G4NPOcore-PETIM in water
75566
    1aaa     O1    1   4.145   2.347   5.832  0.2057 -0.0610 -0.1368
    1aaa     C1    2   4.274   2.287   5.820 -0.6191  0.5876  0.7477
    1aaa     H1    3   4.274   2.227   5.729 -1.9951 -1.8607  2.2376
    1aaa     H2    4   4.298   2.234   5.913 -0.2488 -0.2899  0.1594
    1aaa     C2    5   4.046   2.251   5.864 -0.0512 -0.2767  0.6867
    1aaa     H3    6   4.071   2.202   5.959 -0.1214  0.9944  1.3809
    1aaa     H4    7   4.030   2.182   5.780 -0.6858  0.6501  0.0235
    1aaa     C3    8   4.370   2.408   5.795  0.4432  0.4295 -0.6530
    1aaa     H5    9   4.471   2.367   5.787  0.3364  0.4895 -2.7960
    1aaa     H6   10   4.367   2.485   5.873  0.8557  1.1443 -1.3365
    1aaa     C4   11   3.913   2.322   5.884  0.8721 -0.9590 -0.3207
    1aaa     H7   12   3.850   2.240   5.920 -0.0773 -0.8206 -1.6016
    1aaa     H8   13   3.873   2.374   5.796  0.2405  1.8776  1.4935
    1aaa     C5   14   4.349   2.474   5.655  0.1985  0.5050 -0.3237
    1aaa     H9   15   4.337   2.396   5.579 -0.6699 -0.7852  1.0753
    1aaa    H10   16   4.256   2.532   5.650 -1.3302 -1.7115  0.8358
    1aaa     C6   17   3.924   2.416   6.002 -0.0357 -0.5686  0.0054
    1aaa    H11   18   3.998   2.491   5.970 -0.4108 -0.2119 -0.0359
    1aaa    H12   19   3.984   2.365   6.078  2.6725  2.0937 -0.1502
    1aaa     N1   20   4.464   2.561   5.620  0.0173 -0.8831  0.1301
    1aaa     N2   21   3.792   2.476   6.050 -0.1613  0.3789  0.5909
    1aaa     C7   22   3.738   2.569   5.940  0.1551 -0.3741  0.3421
    1aaa    H13   23   3.815   2.609   5.872 -0.0296  0.3028  0.5283
    1aaa    H14   24   3.655   2.528   5.882 -0.4705 -0.4126  1.2476
    1aaa     C8   25   3.697   2.371   6.085 -0.6540 -1.0105  0.1792
    1aaa    H15   26   3.605   2.424   6.112  0.1496 -0.1430  1.3461
    1aaa    H16   27   3.672   2.303   6.003  0.0925 -1.8272  0.6040
    1aaa     C9   28   4.462   2.621   5.487 -0.3265  0.2058  0.3862
    1aaa    H17   29   4.373   2.684   5.481 -1.8987 -1.9226  0.0459
    1aaa    H18   30   4.556   2.677   5.479 -1.0993  1.4548 -0.1462
    1aaa    C10   31   4.499   2.665   5.724  0.0027 -0.6722 -0.8166
    1aaa    H19   32   4.545   2.622   5.814 -0.2892 -2.5454 -1.5147
    1aaa    H20   33   4.570   2.739   5.684 -2.3259  1.6596 -0.8699
    1aaa    C11   34   3.690   2.701   5.996 -0.2186  0.3488 -0.8207
    1aaa    H21   35   3.785   2.747   6.025  0.0169 -0.5821 -0.0630
    1aaa    H22   36   3.651   2.760   5.913 -0.1914  0.7782 -0.5340
    1aaa    C12   37   3.742   2.276   6.203  0.6862 -0.6821  0.6934
    1aaa    H23   38   3.827   2.213   6.175  1.3638 -0.2468  1.7106
    1aaa    H24   39   3.773   2.334   6.290 -0.7470  0.5220  0.4433
    1aaa    C13   40   4.465   2.515   5.373  0.0042  0.5070 -0.5984
    1aaa    H25   41   4.380   2.446   5.381 -0.5550  1.1595 -0.8537
    1aaa    H26   42   4.459   2.573   5.280  0.4012  1.5813  0.0324
    1aaa    C14   43   4.379   2.771   5.761  0.5719  0.5384 -0.1786
    1aaa    H27   44   4.315   2.782   5.673  3.3179  2.1353 -2.1412
    1aaa    H28   45   4.314   2.735   5.842 -0.2001  0.5923 -0.7704
    1aaa    C15   46   4.427   2.911   5.798 -0.6816 -0.0748  0.2237
    1aaa    H29   47   4.521   2.931   5.746 -0.8867  0.1922 -0.0455
    1aaa    H30   48   4.361   2.983   5.749 -0.7190 -0.5160 -0.3770
    1aaa    C16   49   4.600   2.436   5.354  0.2524 -0.0352  0.2311
    1aaa    H31   50   4.687   2.503   5.347 -1.0410  1.8157  1.0709
    1aaa    H32   51   4.615   2.372   5.442  2.4726 -1.8204 -1.3123
    1aaa    C17   52   3.623   2.180   6.234  0.3727  0.2141 -0.0777
    1aaa    H33   53   3.662   2.111   6.310  0.9990  0.6346 -0.0121
    1aaa    H34   54   3.541   2.235   6.281  0.2038  0.1687 -0.3171
    1aaa    C18   55   3.584   2.692   6.101  1.2275  0.5477 -0.6367
    1aaa    H35   56   3.514   2.613   6.070  2.6836 -1.0197 -0.0767
    1aaa    H36   57   3.630   2.685   6.201 -0.1262  1.2847  0.0689
    2bbb     N1   58   4.584   2.951   6.357  0.6465 -0.6350 -0.2374
    2bbb     C1   59   4.719   2.885   6.378  0.6963 -0.5505  0.3542
    2bbb     H1   60   4.752   2.886   6.482  1.7267 -1.4458  0.0531
    2bbb     H2   61   4.800   2.937   6.326  0.4782  0.6085  1.1491
    2bbb     C2   62   4.477   2.895   6.443 -0.0706  0.6208  0.2924
    2bbb     H3   63   4.464   2.791   6.412 -0.0383  0.9334 -0.8063
    2bbb     H4   64   4.388   2.957   6.426  0.0747  1.6043  2.7041
    2bbb     C3   65   4.546   2.957   6.220  0.2240  0.4879  0.2918
    2bbb     H5   66   4.543   2.855   6.180 -0.1346  0.2484  0.9104
    2bbb     H6   67   4.627   3.009   6.168 -0.8415 -0.4799 -2.5509
    2bbb     C4   68   4.411   3.028   6.172 -0.7794  0.1220 -0.3295
    2bbb     H7   69   4.398   3.123   6.225 -1.2986  0.4879 -1.0925
    2bbb     H8   70   4.325   2.964   6.196 -0.5625 -0.0666 -0.0402
    2bbb     C5   71   4.720   2.732   6.344  0.0521  0.2789  0.2431
    2bbb     H9   72   4.690   2.709   6.241 -0.1749  2.2244 -0.1614
    2bbb    H10   73   4.657   2.682   6.418  1.1786 -0.8213  0.4999
    2bbb     C6   74   4.512   2.903   6.594  0.0722  0.6124  0.1011
    2bbb    H11   75   4.538   3.005   6.624 -2.0524  1.1283  0.3793
    2bbb    H12   76   4.600   2.847   6.629  0.4341  0.5765 -0.8344
    2bbb     C7   77   4.408   3.059   6.016  0.0642 -0.0303 -0.1102
    2bbb    H13   78   4.476   3.140   5.986 -1.3898  0.9454 -0.8760
    2bbb    H14   79   4.306   3.088   5.992  0.1765 -1.1017 -2.0561
    2bbb     C8   80   4.393   2.850   6.675 -0.6461 -0.0135 -1.0140
    2bbb    H15   81   4.298   2.892   6.641 -0.8148 -0.2404 -0.8263
    2bbb    H16   82   4.407   2.884   6.778  0.9015  2.2869 -1.9055
    2bbb     C9   83   4.858   2.669   6.371  0.2701  0.0168  0.1177
    2bbb    H17   84   4.867   2.653   6.479  1.6406 -0.1603 -0.0097
    2bbb    H18   85   4.938   2.736   6.339  0.3625  0.4661  1.2625
    2bbb     O1   86   4.429   2.932   5.944  0.0186  0.0021 -0.1869
    3bbb     N1   87   4.733   1.911   5.100  0.4581 -0.2496  0.4099
    3bbb     C1   88   4.647   1.877   4.984 -0.4350 -0.2050  0.1226
    3bbb     H1   89   4.562   1.945   4.986 -1.7765 -1.8417  0.9053
    3bbb     H2   90   4.596   1.781   4.998  1.6990 -1.3414  0.6110
    3bbb     C2   91   4.849   1.816   5.127  0.3214 -0.6270  0.0257
    3bbb     H3   92   4.895   1.823   5.226 -0.2920 -0.4309  0.2983
    3bbb     H4   93   4.931   1.831   5.055 -0.6808  0.6761 -0.8957
    3bbb     C3   94   4.775   2.048   5.122  0.2846 -0.6737 -0.4472
    3bbb     H5   95   4.850   2.086   5.052  0.8764  1.2412  1.1163
    3bbb     H6   96   4.823   2.057   5.220 -2.6393  1.3038  0.9469
    3bbb     C4   97   4.659   2.149   5.129  0.1959 -0.2243 -0.0368
    3bbb     H7   98   4.581   2.096   5.186 -0.7730  0.5774 -0.5740
    3bbb     H8   99   4.620   2.163   5.027  2.0278 -1.3867 -0.9463
    3bbb     C5  100   4.713   1.870   4.844  0.5585 -0.9905 -0.0021
    3bbb     H9  101   4.640   1.823   4.777 -0.6904  1.0506 -0.1468
    3bbb    H10  102   4.804   1.808   4.845  1.7080  0.6171 -0.0260
    3bbb     C6  103   4.819   1.669   5.111 -0.1088 -0.2210  0.2639
    3bbb    H11  104   4.762   1.651   5.020 -1.2590 -0.0106  0.9166
    3bbb    H12  105   4.759   1.618   5.188 -0.4314 -0.9217 -0.4474
    3bbb     C7  106   4.704   2.282   5.191  0.4503 -0.1926 -0.4095
    3bbb    H13  107   4.749   2.349   5.117 -1.3221 -0.1862 -1.5650
    3bbb    H14  108   4.766   2.269   5.280  1.8399  1.0194 -1.1624
    3bbb     C8  109   4.947   1.580   5.120  0.0878  0.0042 -0.0695
    3bbb    H15  110   4.905   1.479   5.111  0.4634 -0.0780 -1.0065
    3bbb    H16  111   4.985   1.594   5.222  2.1926  1.3245 -0.9478
    3bbb     C9  112   4.736   2.014   4.785  0.4427  1.2028 -0.5593
    3bbb    H17  113   4.795   2.009   4.693 -0.4555 -0.6413 -1.0932
    3bbb    H18  114   4.784   2.081   4.857 -0.9363  1.6823 -0.0383
    3bbb     O1  115   4.589   2.362   5.225  0.2439 -0.1659 -0.1334
    4bbb     N1  116   3.422   1.761   5.816  0.1963 -0.1232 -0.3424
    4bbb     C1  117   3.395   1.615   5.824 -0.5199 -0.0724  0.2593
    4bbb     H1  118   3.294   1.606   5.866 -0.5664 -3.1610 -0.2869
    4bbb     H2  119   3.462   1.572   5.900  1.4089  1.8807 -0.2077
    4bbb     C2  120   3.347   1.837   5.718  0.1244 -0.4292 -0.3905
    4bbb     H3  121   3.364   1.792   5.620  0.0652 -0.6082 -0.3196
    4bbb     H4  122   3.377   1.943   5.715  1.1149 -0.7371 -2.0389
    4bbb     C3  123   3.421   1.819   5.953 -0.0876  0.7861  0.3268
    4bbb     H5  124   3.484   1.763   6.023  0.9959 -1.3317 -2.1566
    4bbb     H6  125   3.321   1.812   5.996 -0.2378  1.2868  0.0689
    4bbb     C4  126   3.461   1.966   5.961 -0.0590 -0.2944 -0.6033
    4bbb     H7  127   3.378   2.032   5.931 -0.6433 -1.2171 -1.0408
    4bbb     H8  128   3.545   1.981   5.893 -1.2133  1.8636 -1.6655
    4bbb     C5  129   3.389   1.536   5.695  0.4994 -0.3842 -0.6311
    4bbb     H9  130   3.313   1.588   5.634  0.6467  2.6908  1.5763
    4bbb    H10  131   3.360   1.431   5.710 -0.6322  0.0562  0.4349
    4bbb     C6  132   3.189   1.850   5.738 -0.4096 -0.6806  0.8766
    4bbb    H11  133   3.178   1.906   5.831  0.9809 -0.8914  1.1884
    4bbb    H12  134   3.145   1.750   5.748 -0.7139 -0.6506 -0.0196
    4bbb     C7  135   3.504   1.999   6.108  0.7886  0.1895 -0.1435
    4bbb    H13  136   3.560   1.919   6.159  0.9711  0.0900 -0.4991
    4bbb    H14  137   3.408   2.017   6.159 -0.5105 -0.5057 -2.2045
    4bbb     C8  138   3.120   1.937   5.632 -0.8976 -0.2691 -0.4060
    4bbb    H15  139   3.153   2.040   5.650  0.7682 -0.6223 -1.2896
    4bbb    H16  140   3.013   1.932   5.656 -0.9153 -0.2301 -0.4777
    4bbb     C9  141   3.523   1.524   5.624  0.0650 -0.0280  0.2522
    4bbb    H17  142   3.543   1.621   5.578  2.7787 -1.2386 -1.3559
    4bbb    H18  143   3.507   1.447   5.548 -0.8784 -0.3245  0.7328
    4bbb     O1  144   3.582   2.122   6.111  0.2891  0.0072 -0.0184
    5bbb     N1  145   3.134   2.838   5.911  0.4686  0.6571  0.2258
    5bbb     C1  146   3.114   2.689   5.898 -0.8402  0.0633 -0.3635
    5bbb     H1  147   3.015   2.667   5.857 -1.5394 -0.4055  1.4962
    5bbb     H2  148   3.120   2.646   5.998  0.0868  2.0589  0.4867
    5bbb     C2  149   3.129   2.910   5.776  0.3534 -0.2393  0.4668
    5bbb     H3  150   3.050   2.860   5.719 -1.3842 -1.1767  3.4811
    5bbb     H4  151   3.217   2.886   5.716 -1.1485 -1.5521 -1.3283
    5bbb     C3  152   3.248   2.886   5.991 -0.3610  0.2437 -0.1585
    5bbb     H5  153   3.229   2.991   6.018 -2.2251  0.1641 -0.9572
    5bbb     H6  154   3.335   2.877   5.926  0.9984  1.2395  1.4570
    5bbb     C4  155   3.283   2.811   6.117 -0.2357  0.5819 -0.4070
    5bbb     H7  156   3.294   2.707   6.084  0.6702  0.2251  0.9487
    5bbb     H8  157   3.204   2.803   6.192  1.5777 -1.8573  1.3689
    5bbb     C5  158   3.228   2.623   5.811 -0.0915  0.0912 -0.7928
    5bbb     H9  159   3.322   2.679   5.817  1.7128 -2.7403 -0.8165
    5bbb    H10  160   3.211   2.624   5.702  1.9239  1.4043 -1.1453
    5bbb     C6  161   3.097   3.063   5.779 -0.7705  0.4183 -0.5125
    5bbb    H11  162   3.182   3.109   5.831 -0.2620 -0.3891 -0.6151
    5bbb    H12  163   3.009   3.091   5.839 -1.3715 -1.2914 -0.5585
    5bbb     C7  164   3.406   2.852   6.191 -0.2782  0.2165 -0.2218
    5bbb    H13  165   3.418   2.793   6.283  1.0495  3.4779  1.8991
    5bbb    H14  166   3.420   2.959   6.212 -1.4364  0.2818  0.3047
    5bbb     C8  167   3.077   3.122   5.639 -0.2288 -0.2098  0.1017
    5bbb    H15  168   3.088   3.231   5.642  0.9345 -0.2632 -1.1236
    5bbb    H16  169   2.980   3.092   5.597  1.6377 -2.4287 -3.1311
    5bbb     C9  170   3.266   2.479   5.858  0.0049 -0.2308  0.1785
    5bbb    H17  171   3.181   2.414   5.882 -0.8370  1.5310  2.2916
    5bbb    H18  172   3.331   2.476   5.946 -1.7225 -2.5293  1.4840
    5bbb     O1  173   3.519   2.823   6.109  0.2849  0.7642  0.1497
    6bbb     N1  174   4.125   2.282   6.709  0.1104 -0.0767 -0.1190
    6bbb     C1  175   4.027   2.278   6.596  0.0710  0.0793 -0.3658
    6bbb     H1  176   4.020   2.173   6.565  0.8220 -0.2204  0.4173
    6bbb     H2  177   4.071   2.336   6.514  1.5423  0.2148  0.4722
    6bbb     C2  178   4.240   2.190   6.703 -0.0938  0.2780 -0.5133
    6bbb     H3  179   4.310   2.201   6.786  0.3469  0.3671 -0.8926
    6bbb     H4  180   4.304   2.213   6.616  1.5322  2.4602  1.1283
    6bbb     C3  181   4.172   2.417   6.766  0.5319  0.3244  0.1753
    6bbb     H5  182   4.204   2.410   6.871  1.9345 -0.0222 -0.2417
    6bbb     H6  183   4.087   2.484   6.783 -1.4139 -2.3769  1.8135
    6bbb     C4  184   4.266   2.505   6.678 -0.4051 -0.6109 -0.7657
    6bbb     H7  185   4.237   2.511   6.573  0.1744 -0.0304 -0.8984
    6bbb     H8  186   4.368   2.465   6.678 -0.4599 -0.7654 -0.1264
    6bbb     C5  187   3.879   2.327   6.633  0.2327 -0.2397 -0.5935
    6bbb     H9  188   3.808   2.315   6.551 -0.4793  1.7644 -0.3201
    6bbb    H10  189   3.887   2.436   6.643 -0.5066  0.2239 -4.0171
    6bbb     C6  190   4.201   2.046   6.698  0.1087  0.6562  0.2587
    6bbb    H11  191   4.160   2.018   6.600  1.2571 -2.8719  0.6392
    6bbb    H12  192   4.121   2.019   6.768  0.4331 -1.0597  0.0095
    6bbb     C7  193   4.279   2.652   6.726  0.0509 -0.1598 -0.3023
    6bbb    H13  194   4.289   2.659   6.835  0.5130  0.7757 -0.3962
    6bbb    H14  195   4.189   2.707   6.697  0.1869  0.2537  0.0485
    6bbb     C8  196   4.322   1.952   6.728  0.0339 -0.1950 -0.4723
    6bbb    H15  197   4.285   1.853   6.758  0.1694  0.3551  1.6621
    6bbb    H16  198   4.375   1.997   6.812  0.5235  1.4391 -1.5912
    6bbb     C9  199   3.816   2.267   6.763 -0.9928  0.1105 -0.0507
    6bbb    H17  200   3.747   2.337   6.813 -3.7121 -0.4254 -2.7759
    6bbb    H18  201   3.902   2.243   6.825  0.9938  0.9281 -2.3289
    6bbb     O1  202   4.395   2.707   6.670 -0.0415 -0.3478 -0.1014
    7bbb     N1  203   4.922   2.136   6.150  0.4138  0.2249 -0.4351
    7bbb     C1  204   4.800   2.056   6.126 -0.4219  0.1724  0.1472
    7bbb     H1  205   4.764   2.018   6.222  1.8726 -0.3619  0.8574
    7bbb     H2  206   4.826   1.969   6.065  3.4111  1.2958 -0.0490
    7bbb     C2  207   5.039   2.051   6.200 -0.3343 -0.4396  0.4442
    7bbb     H3  208   5.135   2.103   6.197 -0.8166  0.4956  0.7584
    7bbb     H4  209   5.044   1.958   6.143 -0.3382  0.4841 -1.1196
    7bbb     C3  210   4.887   2.261   6.233 -1.0077  0.6872 -0.8646
    7bbb     H5  211   4.839   2.241   6.329  0.9975 -1.1844 -0.1756
    7bbb     H6  212   4.817   2.319   6.172 -1.3307 -1.0793 -2.2379
    7bbb     C4  213   5.011   2.352   6.245 -0.1297  0.1865 -0.2881
    7bbb     H7  214   5.034   2.391   6.145  1.6466 -0.8492 -0.3276
    7bbb     H8  215   5.103   2.298   6.271 -0.8521 -1.1576 -0.4205
    7bbb     C5  216   4.691   2.137   6.048 -0.3392 -0.4193 -0.4185
    7bbb     H9  217   4.731   2.203   5.971  0.4905 -3.1914 -2.5358
    7bbb    H10  218   4.654   2.207   6.124  1.0579 -1.6229  1.4721
    7bbb     C6  219   5.016   2.006   6.344 -0.3487 -0.9522  0.2748
    7bbb    H11  220   4.922   1.951   6.333  0.4067 -2.4152  0.7860
    7bbb    H12  221   4.992   2.090   6.410  0.7186 -0.5098  0.1086
    7bbb     C7  222   4.993   2.479   6.342 -0.9243 -0.5279 -0.5850
    7bbb    H13  223   5.083   2.542   6.344 -0.3411 -1.3255  1.1225
    7bbb    H14  224   4.973   2.454   6.447 -3.7171  0.1938 -0.8802
    7bbb     C8  225   5.133   1.930   6.417 -0.0897 -0.0396 -0.0672
    7bbb    H15  226   5.090   1.906   6.515 -0.1541 -1.3772 -0.4072
    7bbb    H16  227   5.217   2.000   6.433  0.9453 -1.1345 -0.5325
    7bbb     C9  228   4.585   2.054   5.978 -0.2526  0.1351  0.2819
    7bbb    H17  229   4.626   2.006   5.888 -2.2898  1.5416 -1.5103
    7bbb    H18  230   4.498   2.113   5.947  0.4312  1.7601  1.3410
    7bbb     O1  231   4.868   2.542   6.308 -0.5996 -0.5749 -0.3509
    8bbb     N1  232   5.241   1.854   4.962  0.3394  0.4281  0.0404
    8bbb     C1  233   5.370   1.907   5.013  0.1681 -0.7401 -0.0635
    8bbb     H1  234   5.424   1.953   4.929  1.5187 -1.3438  0.4544
    8bbb     H2  235   5.421   1.820   5.055 -0.4114 -0.6727  0.8014
    8bbb     C2  236   5.158   1.956   4.899  0.1500  0.5432  0.7112
    8bbb     H3  237   5.137   2.037   4.970  0.6569  2.2280 -0.9852
    8bbb     H4  238   5.060   1.911   4.876 -0.0388  1.1650  0.2718
    8bbb     C3  239   5.253   1.743   4.869 -1.1099  0.0558 -0.1644
    8bbb     H5  240   5.338   1.769   4.805 -0.3739 -1.6732  0.0527
    8bbb     H6  241   5.160   1.733   4.811 -0.3251 -0.9932 -1.2899
    8bbb     C4  242   5.279   1.613   4.951  0.5198 -0.0533 -0.5083
    8bbb     H7  243   5.385   1.607   4.980  0.9829  2.6626 -1.3798
    8bbb     H8  244   5.255   1.528   4.885 -0.5692 -0.8449  0.8597
    8bbb     C5  245   5.341   2.018   5.121  0.3839  0.1391  0.9533
    8bbb     H9  246   5.303   2.107   5.071  0.2898 -0.7725 -0.6660
    8bbb    H10  247   5.437   2.049   5.163  0.5244 -0.7756  1.3249
    8bbb     C6  248   5.210   2.023   4.761  0.1470 -0.0344 -0.7022
    8bbb    H11  249   5.270   1.952   4.703  0.7666  0.1146 -0.2502
    8bbb    H12  250   5.277   2.105   4.791  1.2917 -1.5015  0.8781
    8bbb     C7  251   5.179   1.599   5.067 -0.2469 -0.3135  0.7404
    8bbb    H13  252   5.194   1.673   5.146 -2.7493  2.0111 -0.8060
    8bbb    H14  253   5.187   1.498   5.109  1.5112 -0.9678 -1.0213
    8bbb     C8  254   5.094   2.086   4.677  0.0306 -0.3120  0.0105
    8bbb    H15  255   5.020   2.006   4.662  1.6225 -1.8943  0.2561
    8bbb    H16  256   5.120   2.135   4.582 -2.9976 -1.8242 -1.7457
    8bbb     C9  257   5.250   1.969   5.237  0.5069  0.2437  0.2942
    8bbb    H17  258   5.291   1.877   5.280  0.9243  0.7284  0.9641
    8bbb    H18  259   5.150   1.944   5.199  0.7829 -0.6238  0.1152
    8bbb     O1  260   5.046   1.617   5.019  0.5449 -0.1782 -0.6602
    9bbb     N1  261   4.351   2.280   4.916 -0.0510 -0.0711 -0.1989
    9bbb     C1  262   4.296   2.414   4.919  0.0515  0.0213 -0.0514
    9bbb     H1  263   4.187   2.413   4.930  0.1764 -0.3236  1.2830
    9bbb     H2  264   4.321   2.462   4.823 -0.4947  0.1616 -0.1273
    9bbb     C2  265   4.308   2.197   5.037 -0.2873 -0.2651 -0.3116
    9bbb     H3  266   4.342   2.257   5.123 -0.2475  1.5313 -1.5263
    9bbb     H4  267   4.354   2.097   5.040  0.4705  0.0898  0.7162
    9bbb     C3  268   4.352   2.219   4.785 -0.0330  0.4557  0.0803
    9bbb     H5  269   4.251   2.231   4.745 -0.6298 -1.8403  0.7386
    9bbb     H6  270   4.363   2.110   4.796  1.0622  0.3088 -1.8950
    9bbb     C4  271   4.461   2.266   4.689  0.6589 -0.7113 -0.6422
    9bbb     H7  272   4.466   2.375   4.680  2.2439 -0.6215  0.9085
    9bbb     H8  273   4.440   2.221   4.591 -0.2011 -0.4457 -0.5897
    9bbb     C5  274   4.347   2.504   5.034 -0.2868 -0.0592  1.0468
    9bbb     H9  275   4.450   2.474   5.059  0.6061 -0.3343 -2.4193
    9bbb    H10  276   4.286   2.486   5.123 -0.6299 -0.2946  0.7663
    9bbb     C6  277   4.156   2.185   5.050 -0.0178  0.3376  0.1166
    9bbb    H11  278   4.107   2.270   5.099 -0.7842  0.1886 -0.3808
    9bbb    H12  279   4.142   2.106   5.125  1.2851  0.4437  0.4884
    9bbb     C7  280   4.603   2.216   4.732 -0.2944  0.3346 -0.2351
    9bbb    H13  281   4.633   2.270   4.822  1.8777  0.9327 -1.2603
    9bbb    H14  282   4.673   2.231   4.649  1.3810 -1.8472  0.6906
    9bbb     C8  283   4.082   2.129   4.923 -0.4422  0.1316  0.3191
    9bbb    H15  284   4.137   2.039   4.891 -0.8015 -0.2436  0.7428
    9bbb    H16  285   4.086   2.197   4.838  1.8187  1.1477  1.1520
    9bbb     C9  286   4.348   2.653   4.995 -0.1306  0.0067 -0.4087
    9bbb    H17  287   4.254   2.673   4.943  0.0110  0.5551 -0.4644
    9bbb    H18  288   4.427   2.668   4.921  0.1562  0.5751 -0.0018
    9bbb     O1  289   4.605   2.069   4.762  0.6635 -0.3896 -0.2685
   10bbb     N1  290   3.349   1.699   5.159  0.5137 -0.2048 -0.1817
   10bbb     C1  291   3.305   1.781   5.040  0.1812  0.1591 -0.2507
   10bbb     H1  292   3.197   1.761   5.035  0.2577 -0.5635  0.8503
   10bbb     H2  293   3.353   1.737   4.951  0.0369 -3.0950  1.1510
   10bbb     C2  294   3.498   1.676   5.157 -0.1691 -0.3119 -0.2425
   10bbb     H3  295   3.547   1.772   5.177 -2.7818  1.0255  0.2298
   10bbb     H4  296   3.530   1.649   5.056  2.5425  2.2116 -0.2102
   10bbb     C3  297   3.313   1.755   5.298  0.3659 -0.3806 -0.1763
   10bbb     H5  298   3.369   1.846   5.321  1.8611 -1.3552  0.2039
   10bbb     H6  299   3.341   1.681   5.374 -0.1288  0.5276  0.9149
   10bbb     C4  300   3.164   1.784   5.303  0.1492  0.3108  1.1193
   10bbb     H7  301   3.114   1.694   5.264  0.1245  0.4988  0.7095
   10bbb     H8  302   3.131   1.872   5.247 -2.0350 -0.5980  0.8556
   10bbb     C5  303   3.332   1.935   5.043 -0.3636  0.0572  0.2046
   10bbb     H9  304   3.435   1.943   5.080  0.0993 -0.4940 -0.9141
   10bbb    H10  305   3.274   1.982   5.123 -1.2680 -1.1846  0.3062
   10bbb     C6  306   3.556   1.566   5.249 -0.1108  0.3171 -0.5386
   10bbb    H11  307   3.500   1.472   5.240 -0.3987  0.2550  1.4737
   10bbb    H12  308   3.533   1.589   5.354  0.6291 -0.8044 -0.1058
   10bbb     C7  309   3.106   1.794   5.448  0.0637  0.2189 -0.1047
   10bbb    H13  310   3.134   1.709   5.511  1.6250  0.5136 -0.3603
   10bbb    H14  311   2.996   1.790   5.445 -0.0014  1.7327 -0.2819
   10bbb     C8  312   3.712   1.536   5.247 -0.1414 -0.3265  0.2995
   10bbb    H15  313   3.741   1.501   5.147 -0.7069  0.2631 -0.0865
   10bbb    H16  314   3.739   1.466   5.326  3.4554  2.2335  1.5912
   10bbb     C9  315   3.296   2.011   4.912  0.2362  0.4935  0.1474
   10bbb    H17  316   3.187   2.022   4.902  0.4254  2.3035 -0.1639
   10bbb    H18  317   3.333   1.955   4.826 -1.4998  1.9271 -1.6198
   10bbb     O1  318   3.156   1.912   5.501 -0.1454 -0.1330  0.5890
   11bbb     N1  319   3.948   1.795   5.793 -0.2453  0.3043 -0.2973
   11bbb     C1  320   3.996   1.831   5.926  0.7903  0.7194 -0.3352
   11bbb     H1  321   4.090   1.886   5.922  1.0860  0.1929 -0.7861
   11bbb     H2  322   4.019   1.732   5.968 -0.7904  0.0172 -1.0403
   11bbb     C2  323   3.937   1.906   5.700  0.2625 -0.3567  0.0099
   11bbb     H3  324   3.943   2.000   5.755  1.3824 -0.3088 -0.1690
   11bbb     H4  325   3.846   1.906   5.639  0.5957  1.0938 -0.5187
   11bbb     C3  326   3.831   1.705   5.790 -0.1576  0.3694  1.0662
   11bbb     H5  327   3.741   1.763   5.813  1.0246  2.6191  0.2990
   11bbb     H6  328   3.838   1.629   5.869 -0.3490 -0.0877  0.6441
   11bbb     C4  329   3.807   1.639   5.652 -0.5422 -0.0672  0.1057
   11bbb     H7  330   3.905   1.629   5.604 -0.8105 -1.7732 -0.1237
   11bbb     H8  331   3.749   1.706   5.588 -2.6513 -0.7289  1.2141
   11bbb     C5  332   3.891   1.917   6.009 -0.1074 -0.4884 -0.1727
   11bbb     H9  333   3.797   1.864   6.028 -1.7649  2.7073  1.2976
   11bbb    H10  334   3.861   2.013   5.965 -0.5651 -0.3200  0.4835
   11bbb     C6  335   4.055   1.903   5.598  0.3399 -0.0823 -0.4413
   11bbb    H11  336   4.025   1.978   5.523 -0.3561 -0.9990 -1.0999
   11bbb    H12  337   4.061   1.807   5.546  0.4903  0.1508 -0.8572
   11bbb     C7  338   3.762   1.491   5.657  0.4729  0.4206 -0.0540
   11bbb    H13  339   3.823   1.437   5.730 -1.1434 -0.9827  0.3475
   11bbb    H14  340   3.755   1.442   5.559  1.3508  0.7352 -0.2803
   11bbb     C8  341   4.191   1.953   5.657  0.7960  0.0231 -0.7797
   11bbb    H15  342   4.224   1.879   5.731 -0.0315 -0.4115 -0.8275
   11bbb    H16  343   4.172   2.048   5.708  0.7025 -1.2268  1.6780
   11bbb     C9  344   3.968   1.939   6.146  0.4282 -0.0604 -0.1292
   11bbb    H17  345   3.995   1.838   6.181 -0.8537 -0.4142 -0.0974
   11bbb    H18  346   3.894   1.977   6.218 -0.3071 -1.0350 -0.3474
   11bbb     O1  347   3.632   1.491   5.718  0.3475  0.1299 -0.2097
   12bbb     N1  348   3.349   2.806   5.300  0.4667 -0.0300 -0.1140
   12bbb     C1  349   3.463   2.806   5.389  0.4042 -0.0115 -0.6499
   12bbb     H1  350   3.484   2.913   5.402  1.5120 -0.4666  1.8832
   12bbb     H2  351   3.550   2.752   5.352  1.3432  1.0238 -0.0242
   12bbb     C2  352   3.377   2.816   5.155 -0.2593  0.5538 -0.1746
   12bbb     H3  353   3.459   2.747   5.132 -2.0710 -1.3067 -1.5075
   12bbb     H4  354   3.411   2.910   5.111  0.2279 -0.3050 -1.7453
   12bbb     C3  355   3.235   2.895   5.336 -0.7211  0.4555  0.4103
   12bbb     H5  356   3.203   2.884   5.440 -3.5282  1.0828 -0.3011
   12bbb     H6  357   3.146   2.860   5.283 -1.2470  1.7624  0.3846
   12bbb     C4  358   3.267   3.045   5.324  0.1642 -0.1072  0.0800
   12bbb     H7  359   3.255   3.083   5.222  0.6424 -0.2904 -0.0464
   12bbb     H8  360   3.364   3.073   5.366  0.9326 -1.0547 -0.9969
   12bbb     C5  361   3.429   2.762   5.530 -0.0706  0.2552 -0.3673
   12bbb     H9  362   3.393   2.659   5.525 -0.5883  0.4179  0.0012
   12bbb    H10  363   3.347   2.823   5.570  0.7993  0.4291  1.2334
   12bbb     C6  364   3.261   2.776   5.057  0.5615 -0.0250 -0.3149
   12bbb    H11  365   3.294   2.809   4.958 -0.3115  0.0535 -0.5889
   12bbb    H12  366   3.173   2.837   5.081  1.0530  0.9392 -0.9133
   12bbb     C7  367   3.169   3.127   5.415  0.8761 -0.5069  0.3850
   12bbb    H13  368   3.068   3.120   5.373  1.1392  0.8203 -0.5301
   12bbb    H14  369   3.189   3.235   5.412 -0.4931 -0.1450  2.4116
   12bbb     C8  370   3.230   2.621   5.044 -0.0028 -0.0854 -0.9837
   12bbb    H15  371   3.258   2.578   5.140 -0.0086  0.4727 -0.7299
   12bbb    H16  372   3.299   2.583   4.968 -0.6218 -3.3653 -0.0831
   12bbb     C9  373   3.550   2.743   5.624  0.0709  0.4403  0.4164
   12bbb    H17  374   3.623   2.669   5.591 -0.1337  0.8595 -1.0415
   12bbb    H18  375   3.517   2.702   5.720 -0.6075  0.2089  0.0930
   12bbb     O1  376   3.174   3.076   5.549  0.2081 -0.1708 -0.2462
   13bbb     N1  377   3.515   2.187   5.421 -0.3502  0.7030 -0.5713
   13bbb     C1  378   3.582   2.055   5.456 -0.0338 -0.6685  0.1783
   13bbb     H1  379   3.508   1.974   5.454  0.0624 -0.7322 -1.3346
   13bbb     H2  380   3.640   2.048   5.550  0.7326  1.3113 -0.1055
   13bbb     C2  381   3.457   2.191   5.279 -0.6062 -0.9756  0.1999
   13bbb     H3  382   3.381   2.113   5.267 -0.4886 -1.3082  1.5586
   13bbb     H4  383   3.539   2.168   5.209  0.0813  1.6901 -0.0108
   13bbb     C3  384   3.435   2.234   5.535  0.3842 -0.6064  0.0378
   13bbb     H5  385   3.354   2.162   5.549 -0.8553  0.8253  0.5023
   13bbb     H6  386   3.381   2.327   5.513  0.9722 -0.0891  0.7146
   13bbb     C4  387   3.508   2.255   5.669 -0.3545  0.9206 -0.3451
   13bbb     H7  388   3.583   2.335   5.664  0.7659 -0.1635 -3.9348
   13bbb     H8  389   3.571   2.170   5.699  0.2038  1.6452  0.6274
   13bbb     C5  390   3.694   2.024   5.354  0.2267 -0.6208  0.5995
   13bbb     H9  391   3.651   2.005   5.255 -0.2596 -1.9881  1.0378
   13bbb    H10  392   3.751   1.933   5.379  2.5443  0.9094  1.1607
   13bbb     C6  393   3.394   2.326   5.237 -0.2494 -0.0937 -0.0836
   13bbb    H11  394   3.308   2.344   5.302 -1.7054 -0.9102 -1.6981
   13bbb    H12  395   3.345   2.318   5.139 -3.7303  1.7059  1.3300
   13bbb     C7  396   3.405   2.292   5.781  0.2107 -0.0568 -0.0150
   13bbb    H13  397   3.441   2.292   5.884  0.0057 -0.2551  0.0581
   13bbb    H14  398   3.318   2.225   5.782 -0.0003  0.0599 -2.6233
   13bbb     C8  399   3.498   2.440   5.237 -0.0815  0.2895  0.1768
   13bbb    H15  400   3.560   2.433   5.327 -0.8194 -0.0910  0.6663
   13bbb    H16  401   3.442   2.534   5.238  2.7457  2.1081 -0.5790
   13bbb     C9  402   3.802   2.137   5.335 -0.0147  0.6329 -0.4873
   13bbb    H17  403   3.748   2.227   5.303 -0.1361  0.0418 -2.0346
   13bbb    H18  404   3.874   2.111   5.257  0.5372  1.1695 -0.1675
   13bbb     O1  405   3.352   2.428   5.756 -0.0356  0.2332 -0.5576
   14bbb     N1  406   4.721   1.615   6.618  0.0751 -0.9053 -0.2871
   14bbb     C1  407   4.806   1.686   6.713 -0.0615 -0.5789  0.1367
   14bbb     H1  408   4.749   1.775   6.741 -0.1368 -0.3791 -0.6509
   14bbb     H2  409   4.897   1.726   6.667 -1.2835  0.9348 -1.0881
   14bbb     C2  410   4.773   1.480   6.577  0.1243 -0.1794 -0.4514
   14bbb     H3  411   4.846   1.435   6.646 -1.0744 -1.9846 -0.3123
   14bbb     H4  412   4.838   1.486   6.489  1.3697  1.2521  0.4977
   14bbb     C3  413   4.671   1.694   6.499 -0.5156  0.2900  0.6118
   14bbb     H5  414   4.607   1.624   6.445 -0.4632 -1.6824  2.9759
   14bbb     H6  415   4.762   1.711   6.439 -0.0758 -1.5047  0.7303
   14bbb     C4  416   4.601   1.827   6.517  0.4514  0.0997 -0.1803
   14bbb     H7  417   4.567   1.863   6.419 -1.2986 -1.4804 -0.2086
   14bbb     H8  418   4.669   1.904   6.557  2.2919  0.0396 -2.9579
   14bbb     C5  419   4.842   1.601   6.846  0.5097 -0.0614  0.2308
   14bbb     H9  420   4.934   1.546   6.820  0.4107 -0.7876  1.3613
   14bbb    H10  421   4.761   1.529   6.860 -0.4724  1.2850  1.9130
   14bbb     C6  422   4.665   1.378   6.536  0.1327  0.4562 -0.4339
   14bbb    H11  423   4.718   1.286   6.508  0.7603  0.4959  0.5595
   14bbb    H12  424   4.601   1.415   6.456 -0.0218  0.3931 -0.3411
   14bbb     C7  425   4.488   1.813   6.618 -0.4642  0.2463 -0.3090
   14bbb    H13  426   4.527   1.784   6.716  1.4102 -2.7307 -1.7985
   14bbb    H14  427   4.412   1.744   6.579 -0.3612  1.1017 -2.1525
   14bbb     C8  428   4.568   1.349   6.649 -0.1230  0.3851 -0.1514
   14bbb    H15  429   4.500   1.435   6.650 -0.5311  0.1436 -2.6074
   14bbb    H16  430   4.625   1.333   6.742  1.6874  0.5637 -1.1931
   14bbb     C9  431   4.855   1.682   6.976  0.2024 -0.0242  0.8538
   14bbb    H17  432   4.933   1.757   6.957 -1.5645  1.7908  0.4184
   14bbb    H18  433   4.891   1.613   7.053  0.4732 -1.8971 -0.8828
   14bbb     O1  434   4.421   1.942   6.619  0.0061  0.6939  0.2556
   15bbb     N1  435   3.575   1.742   6.626  0.2089 -0.3586  0.3383
   15bbb     C1  436   3.640   1.621   6.579  0.2790  0.5371 -0.2485
   15bbb     H1  437   3.574   1.534   6.569  1.3799 -0.4952  1.1161
   15bbb     H2  438   3.715   1.591   6.653 -0.0127 -0.4998 -0.3495
   15bbb     C2  439   3.464   1.787   6.538  0.4390  0.0114 -0.1332
   15bbb     H3  440   3.491   1.820   6.437 -0.6068 -0.7389 -0.6724
   15bbb     H4  441   3.422   1.873   6.592  3.3820  0.9745  0.8161
   15bbb     C3  442   3.668   1.859   6.662 -0.0597  0.1518  0.1476
   15bbb     H5  443   3.713   1.917   6.580  0.0367  2.4464  1.7303
   15bbb     H6  444   3.747   1.826   6.730 -1.6559 -0.3199  1.8330
   15bbb     C4  445   3.596   1.962   6.746 -0.1236  0.5065 -0.7886
   15bbb     H7  446   3.561   1.891   6.822  2.2356  0.0397 -0.0413
   15bbb     H8  447   3.516   2.018   6.697 -1.9543 -0.6821  0.7000
   15bbb     C5  448   3.724   1.640   6.449 -0.2175  0.5652  0.3586
   15bbb     H9  449   3.799   1.717   6.469  0.8874 -1.0556  3.0131
   15bbb    H10  450   3.658   1.673   6.368 -0.0020  0.0158 -0.0480
   15bbb     C6  451   3.343   1.687   6.519 -0.6090  0.6320  0.1795
   15bbb    H11  452   3.301   1.659   6.616 -1.6953 -1.2043 -0.7483
   15bbb    H12  453   3.378   1.597   6.467 -1.7674  1.2248 -1.7239
   15bbb     C7  454   3.698   2.060   6.812  0.1355 -0.3411 -0.2105
   15bbb    H13  455   3.779   2.015   6.871  0.3793 -0.8321 -0.9057
   15bbb    H14  456   3.640   2.126   6.877  0.5459  1.7246 -1.8619
   15bbb     C8  457   3.213   1.749   6.450 -0.1017  0.3207 -0.3193
   15bbb    H15  458   3.193   1.838   6.510 -0.3528  0.8114 -1.1075
   15bbb    H16  459   3.127   1.683   6.441 -1.5702  2.2209 -0.9760
   15bbb     C9  460   3.786   1.499   6.407 -0.1232 -0.6796 -0.1718
   15bbb    H17  461   3.715   1.416   6.410 -1.1464  0.1631 -0.3978
   15bbb    H18  462   3.869   1.471   6.474  0.6520  0.4511 -0.6288
   15bbb     O1  463   3.753   2.144   6.719 -0.1592 -0.7575 -0.4437
   16bbb     N1  464   5.009   1.640   6.009 -0.5202 -0.5770 -0.7724
   16bbb     C1  465   5.023   1.696   5.866  0.0615  0.0275  0.6278
   16bbb     H1  466   5.034   1.805   5.875 -1.4931  0.2443  0.2523
   16bbb     H2  467   4.931   1.677   5.809  0.8044  2.5405 -1.6143
   16bbb     C2  468   4.890   1.688   6.079  0.2473 -0.0452  0.6441
   16bbb     H3  469   4.905   1.789   6.119  2.2380  0.3900 -1.0152
   16bbb     H4  470   4.861   1.626   6.164 -1.1825  1.1616  1.0866
   16bbb     C3  471   5.132   1.650   6.094 -0.8274  0.4026 -0.4648
   16bbb     H5  472   5.173   1.751   6.106  1.9380 -0.4988 -1.4903
   16bbb     H6  473   5.212   1.599   6.040 -0.5822 -0.0169  0.2820
   16bbb     C4  474   5.128   1.589   6.238  0.5048 -0.0153  0.0469
   16bbb     H7  475   5.219   1.542   6.277 -0.2701  0.5513  2.7827
   16bbb     H8  476   5.051   1.511   6.247 -0.2313  0.6391 -0.5280
   16bbb     C5  477   5.135   1.635   5.784 -0.0866  0.8107  0.1956
   16bbb     H9  478   5.128   1.526   5.785  0.0889  0.7912 -0.5799
   16bbb    H10  479   5.231   1.655   5.834  1.7512  1.2204 -3.2396
   16bbb     C6  480   4.754   1.697   6.001 -0.2374 -0.3794  0.1246
   16bbb    H11  481   4.769   1.772   5.923  2.2805  0.7660  1.6122
   16bbb    H12  482   4.686   1.731   6.080  0.9305  0.5209  0.7622
   16bbb     C7  483   5.087   1.698   6.348  0.6121 -0.0769  0.0919
   16bbb    H13  484   5.101   1.653   6.447 -0.2094  1.0170  0.7347
   16bbb    H14  485   4.980   1.726   6.342  1.2480  2.4461 -1.0602
   16bbb     C8  486   4.697   1.562   5.943 -0.2168 -0.4044  0.4210
   16bbb    H15  487   4.689   1.488   6.023  0.2503  0.9593  1.7596
   16bbb    H16  488   4.777   1.520   5.882  1.0953  2.1261  0.2664
   16bbb     C9  489   5.155   1.680   5.632  0.2213 -0.5714 -0.0268
   16bbb    H17  490   5.152   1.790   5.632  0.8084 -0.5287  1.5558
   16bbb    H18  491   5.090   1.628   5.561  1.3157  0.5633 -1.9333
   16bbb     O1  492   5.174   1.815   6.339 -0.3475 -0.3533  0.3425
   17bbb     N1  493   4.305   1.560   6.213 -0.1200 -0.1922 -0.1163
   17bbb     C1  494   4.304   1.571   6.362 -0.0760 -0.2126  0.6141
   17bbb     H1  495   4.403   1.603   6.396  1.9306 -1.2445 -3.5152
   17bbb     H2  496   4.287   1.467   6.392  0.5211 -0.2813  0.7196
   17bbb     C2  497   4.407   1.467   6.149 -0.4396 -0.0407 -0.2043
   17bbb     H3  498   4.504   1.517   6.139 -0.8254  0.4128 -1.9599
   17bbb     H4  499   4.385   1.449   6.043  0.9292  2.0510 -0.9134
   17bbb     C3  500   4.289   1.680   6.126 -0.4015 -0.0327 -0.2715
   17bbb     H5  501   4.193   1.730   6.142 -0.1917 -0.1678  1.6633
   17bbb     H6  502   4.281   1.651   6.020  0.6208 -1.6624  0.0622
   17bbb     C4  503   4.403   1.780   6.154 -0.1647 -0.1989 -0.0278
   17bbb     H7  504   4.490   1.730   6.199 -0.0421 -0.4373 -0.5300
   17bbb     H8  505   4.376   1.848   6.235  0.5401  0.1122 -0.0499
   17bbb     C5  506   4.190   1.659   6.419  0.2624  1.1135  0.3214
   17bbb     H9  507   4.103   1.634   6.357  1.6660 -0.1795 -1.1878
   17bbb    H10  508   4.199   1.768   6.410  0.7102  0.9820 -1.0090
   17bbb     C6  509   4.427   1.335   6.222 -0.2929 -0.1857 -0.0340
   17bbb    H11  510   4.329   1.288   6.239 -1.0061  1.8667  1.9626
   17bbb    H12  511   4.473   1.351   6.321 -0.2266  1.2501 -0.2764
   17bbb     C7  512   4.435   1.867   6.030 -0.5071  0.5093  0.4590
   17bbb    H13  513   4.361   1.942   6.000 -0.1865  0.8212  0.4470
   17bbb    H14  514   4.461   1.797   5.949 -1.1607 -0.8306  1.3669
   17bbb     C8  515   4.521   1.242   6.142 -0.1863 -0.0600  0.3059
   17bbb    H15  516   4.500   1.251   6.034 -1.0424  0.1863  0.4799
   17bbb    H16  517   4.497   1.137   6.163 -1.0173 -0.0815 -0.6605
   17bbb     C9  518   4.160   1.619   6.560 -0.0895  0.3537 -0.0519
   17bbb    H17  519   4.243   1.650   6.623  1.1533 -0.4104 -1.2543
   17bbb    H18  520   4.153   1.509   6.566 -1.8406  0.3737 -0.8454
   17bbb     O1  521   4.545   1.953   6.066 -0.0011 -0.5213 -0.2446
   18bbb     N1  522   4.822   2.555   4.849 -0.2934  0.0902 -0.0496
   18bbb     C1  523   4.761   2.608   4.975  0.0270 -0.6053 -0.0117
   18bbb     H1  524   4.688   2.544   5.028 -0.6992 -0.1410 -0.4323
   18bbb     H2  525   4.704   2.698   4.950 -1.4468 -1.6935 -0.7217
   18bbb     C2  526   4.714   2.545   4.738  0.1426 -0.3939 -0.1324
   18bbb     H3  527   4.627   2.485   4.770 -2.9334  3.0808 -1.2608
   18bbb     H4  528   4.760   2.494   4.652  1.5577 -0.5030  0.6649
   18bbb     C3  529   4.902   2.432   4.869  0.7123  0.3780 -0.1419
   18bbb     H5  530   4.845   2.338   4.868  0.6319  0.3997  0.8280
   18bbb     H6  531   4.951   2.438   4.967  1.4661  1.9328 -0.5856
   18bbb     C4  532   4.999   2.418   4.755 -0.2699 -0.7172  0.1602
   18bbb     H7  533   5.061   2.508   4.756  0.7363 -1.3882 -0.1725
   18bbb     H8  534   4.954   2.408   4.655  2.6507 -1.1014 -1.2213
   18bbb     C5  535   4.852   2.648   5.097 -0.1088  0.1227  0.6239
   18bbb     H9  536   4.954   2.677   5.069 -0.5654  0.4506 -0.7685
   18bbb    H10  537   4.846   2.563   5.166 -3.2974 -0.4453 -0.1988
   18bbb     C6  538   4.665   2.686   4.682  0.9277 -0.2060 -0.1557
   18bbb    H11  539   4.750   2.743   4.643 -0.4073  2.6168  0.7813
   18bbb    H12  540   4.618   2.738   4.766  2.1799  1.5135 -0.4709
   18bbb     C7  541   5.102   2.308   4.767  0.4257 -0.1603 -0.0808
   18bbb    H13  542   5.163   2.303   4.858  2.6981 -1.2013 -1.5671
   18bbb    H14  543   5.180   2.320   4.691  0.4085 -2.7614 -0.6154
   18bbb     C8  544   4.557   2.659   4.575  0.5368 -0.1596  0.1714
   18bbb    H15  545   4.490   2.581   4.612 -0.2549 -0.1034 -1.0819
   18bbb    H16  546   4.594   2.605   4.486  1.5844 -0.9629  1.0679
   18bbb     C9  547   4.790   2.774   5.173  0.1645 -0.3609  0.4657
   18bbb    H17  548   4.692   2.752   5.217  0.9260 -0.5740  2.1569
   18bbb    H18  549   4.775   2.861   5.109  1.0177 -0.2386  0.4173
   18bbb     O1  550   5.031   2.185   4.757  0.0004 -0.5634  0.0905
   19bbb     N1  551   5.115   2.477   5.563 -0.1659  0.1933  0.4030
   19bbb     C1  552   5.167   2.433   5.693 -0.5497  0.7916 -0.1054
   19bbb     H1  553   5.264   2.387   5.675  0.2115  2.3143 -0.0175
   19bbb     H2  554   5.105   2.355   5.740  0.3985 -0.3011 -0.6297
   19bbb     C2  555   5.021   2.591   5.548 -0.2803 -0.0271  0.7549
   19bbb     H3  556   5.029   2.631   5.446 -1.7225  1.4751  1.1808
   19bbb     H4  557   5.058   2.672   5.613  1.3759  0.4026 -0.6710
   19bbb     C3  558   5.088   2.366   5.463  0.1252 -0.1543  0.2197
   19bbb     H5  559   5.062   2.423   5.373  0.2728  3.0971  2.0601
   19bbb     H6  560   5.010   2.298   5.498  0.7897 -1.1409 -0.1739
   19bbb     C4  561   5.207   2.277   5.435  0.4431 -0.3503  1.2230
   19bbb     H7  562   5.249   2.229   5.525  0.9809 -0.8172  0.7344
   19bbb     H8  563   5.277   2.352   5.395 -1.7023  1.0852 -0.0035
   19bbb     C5  564   5.208   2.543   5.797 -0.1375  0.4415  0.4031
   19bbb     H9  565   5.113   2.580   5.838 -2.0236 -1.5827 -1.7932
   19bbb    H10  566   5.253   2.630   5.747  0.6204  0.3758  0.9565
   19bbb     C6  567   4.868   2.551   5.576 -0.4477  0.3326 -0.7156
   19bbb    H11  568   4.834   2.463   5.520 -2.1857  0.3528  0.2306
   19bbb    H12  569   4.809   2.635   5.537 -0.4723 -0.1582 -1.7840
   19bbb     C7  570   5.180   2.181   5.314 -0.0808 -0.2408 -0.3223
   19bbb    H13  571   5.227   2.229   5.228 -0.9608 -0.5957 -1.0148
   19bbb    H14  572   5.071   2.174   5.303 -0.5719  0.7883  2.7410
   19bbb     C8  573   4.836   2.525   5.731  0.3398 -0.2004  0.4746
   19bbb    H15  574   4.899   2.447   5.773  2.1430  1.7971  1.6853
   19bbb    H16  575   4.729   2.510   5.749  0.6395  0.0238  2.7653
   19bbb     C9  576   5.280   2.485   5.930 -0.2079  0.0608  0.4928
   19bbb    H17  577   5.206   2.415   5.972 -1.1239 -1.7000 -3.5697
   19bbb    H18  578   5.296   2.565   6.003  1.4496 -1.8994  2.4452
   19bbb     O1  579   5.240   2.058   5.347 -0.2999  0.0448 -0.1358
   20bbb     N1  580   3.693   1.824   4.742 -0.1489  0.0922  0.0169
   20bbb     C1  581   3.604   1.785   4.620 -0.1025 -0.3933 -0.1200
   20bbb     H1  582   3.499   1.777   4.651  0.2714  0.6643  1.5796
   20bbb     H2  583   3.629   1.681   4.595 -1.1523 -1.3016  2.3110
   20bbb     C2  584   3.722   1.708   4.839 -0.0473 -0.3855 -0.0757
   20bbb     H3  585   3.625   1.665   4.868 -0.4307  0.2075 -0.4516
   20bbb     H4  586   3.781   1.745   4.923 -1.8394 -0.2969  1.1918
   20bbb     C3  587   3.635   1.937   4.811  0.0190  0.5935 -0.0756
   20bbb     H5  588   3.555   1.903   4.878 -0.5620 -1.8167 -1.8706
   20bbb     H6  589   3.596   2.014   4.744 -1.9254 -0.0416  0.2711
   20bbb     C4  590   3.734   2.011   4.910  0.2077  0.4224  0.7286
   20bbb     H7  591   3.745   1.951   5.001  0.4462 -0.2114  0.2878
   20bbb     H8  592   3.686   2.105   4.941 -0.4229  0.0482  0.9014
   20bbb     C5  593   3.613   1.886   4.504  0.1390  0.0721  0.4323
   20bbb     H9  594   3.546   1.970   4.528 -2.1703 -1.7776  0.7843
   20bbb    H10  595   3.574   1.836   4.414  0.9128  1.2162 -0.5653
   20bbb     C6  596   3.816   1.605   4.778 -0.0138  0.2732  0.3821
   20bbb    H11  597   3.912   1.658   4.768  0.8140 -1.5643 -2.4182
   20bbb    H12  598   3.784   1.563   4.682  1.0974  0.4853 -0.1015
   20bbb     C7  599   3.872   2.042   4.857  0.2161 -0.2370  0.1391
   20bbb    H13  600   3.869   2.108   4.769  2.5909 -0.7548 -0.3897
   20bbb    H14  601   3.918   1.946   4.830  0.2172 -0.1213 -0.2709
   20bbb     C8  602   3.850   1.493   4.875 -0.0806 -0.4742  0.7599
   20bbb    H15  603   3.772   1.416   4.884  0.2400 -1.0302 -0.8923
   20bbb    H16  604   3.872   1.536   4.973  1.6009 -1.8266  1.0243
   20bbb     C9  605   3.755   1.936   4.475  0.0194  0.4209  0.2632
   20bbb    H17  606   3.803   1.963   4.570  2.3360 -0.6659 -0.5425
   20bbb    H18  607   3.745   2.020   4.405  1.3695 -0.0070 -0.4845
   20bbb     O1  608   3.946   2.105   4.957 -0.5037 -0.6346 -0.6128
   21bbb     N1  609   4.415   3.197   5.239  0.1311  0.0163  0.3752
   21bbb     C1  610   4.484   3.330   5.251 -0.6360  0.3119 -0.4139
   21bbb     H1  611   4.407   3.407   5.256 -0.4020  0.5220 -0.0297
   21bbb     H2  612   4.545   3.356   5.163  0.9451  0.4124  0.6642
   21bbb     C2  613   4.314   3.199   5.124 -0.3386 -0.0694  0.3452
   21bbb     H3  614   4.236   3.273   5.145  0.5213  0.6404  1.1399
   21bbb     H4  615   4.255   3.107   5.127 -0.4477 -0.0305 -0.3679
   21bbb     C3  616   4.505   3.081   5.225 -0.4740 -0.4640  0.0252
   21bbb     H5  617   4.576   3.086   5.309  0.2221  2.2972 -0.6413
   21bbb     H6  618   4.576   3.087   5.142  1.3988 -0.7587  1.5502
   21bbb     C4  619   4.440   2.940   5.235  0.5673 -0.1370  0.4234
   21bbb     H7  620   4.352   2.951   5.300  2.0771  0.9528  2.4109
   21bbb     H8  621   4.511   2.883   5.296  2.8848  1.1843 -0.8765
   21bbb     C5  622   4.572   3.351   5.381 -0.3408 -0.6703 -0.4100
   21bbb     H9  623   4.601   3.457   5.390 -0.8493 -0.5791  0.2360
   21bbb    H10  624   4.668   3.300   5.373  1.4730  2.1686  1.4537
   21bbb     C6  625   4.367   3.230   4.983  0.0852  0.3666 -0.0203
   21bbb    H11  626   4.409   3.135   4.948 -0.3282 -0.7641  2.3328
   21bbb    H12  627   4.454   3.297   4.989  1.4918 -1.3821 -0.0769
   21bbb     C7  628   4.415   2.865   5.104  0.2716 -0.1957 -0.4008
   21bbb    H13  629   4.519   2.860   5.069  0.9442  0.7131  1.3244
   21bbb    H14  630   4.341   2.917   5.042 -1.3814 -0.5926  1.1541
   21bbb     C8  631   4.262   3.274   4.877 -0.0303  0.2240 -0.2436
   21bbb    H15  632   4.223   3.373   4.904 -0.5223 -0.3683  1.3335
   21bbb    H16  633   4.177   3.205   4.877  0.8265 -0.9002  1.2247
   21bbb     C9  634   4.490   3.319   5.511 -0.7040  0.1153  0.1702
   21bbb    H17  635   4.455   3.215   5.498 -2.7984  0.6386  1.1321
   21bbb    H18  636   4.413   3.395   5.529  0.9480  2.6146 -2.4175
   21bbb     O1  637   4.362   2.731   5.120  0.1329  0.3816 -0.3378
   22bbb     N1  638   4.202   1.747   5.152 -0.5331  0.2210  0.3175
   22bbb     C1  639   4.197   1.816   5.018 -0.5037  0.4900 -0.9911
   22bbb     H1  640   4.270   1.897   5.022  0.7949 -0.6950  0.6483
   22bbb     H2  641   4.096   1.855   4.998  0.0363  1.8839 -1.0964
   22bbb     C2  642   4.338   1.700   5.197  0.1009 -0.7467  0.2855
   22bbb     H3  643   4.368   1.772   5.275 -2.7624  2.2129 -1.0923
   22bbb     H4  644   4.406   1.707   5.110 -2.1343  1.2077 -1.4471
   22bbb     C3  645   4.130   1.813   5.264 -0.5765  0.2055 -0.3447
   22bbb     H5  646   4.160   1.918   5.264 -2.6852  0.8637  0.1577
   22bbb     H6  647   4.167   1.774   5.360  0.1602 -2.1927 -1.5226
   22bbb     C4  648   3.977   1.795   5.253 -0.3144 -0.2123 -0.1852
   22bbb     H7  649   3.936   1.860   5.174  2.7788  0.7441 -1.1589
   22bbb     H8  650   3.937   1.838   5.346 -0.3619 -2.6326  0.9873
   22bbb     C5  651   4.229   1.720   4.898  0.1561 -0.5382 -0.3226
   22bbb     H9  652   4.164   1.632   4.894  0.0951 -0.4875 -0.4331
   22bbb    H10  653   4.333   1.686   4.906  0.3307 -0.2290 -1.1297
   22bbb     C6  654   4.342   1.555   5.259 -0.8625  0.2455  0.1698
   22bbb    H11  655   4.287   1.566   5.353  1.6886  1.7287  1.5898
   22bbb    H12  656   4.444   1.521   5.280  0.5288  0.5395 -4.7158
   22bbb     C7  657   3.921   1.657   5.254 -0.1367 -0.6618 -0.2027
   22bbb    H13  658   3.968   1.602   5.337  2.1942 -0.4519 -1.3216
   22bbb    H14  659   3.942   1.606   5.159 -3.0552 -0.0652 -1.2621
   22bbb     C8  660   4.277   1.438   5.164 -0.4554  0.6990  0.1010
   22bbb    H15  661   4.185   1.482   5.122 -0.5962  1.4629  1.1672
   22bbb    H16  662   4.247   1.354   5.229  1.0362  1.2034  1.4884
   22bbb     C9  663   4.215   1.816   4.768  0.4849  0.9531  0.2780
   22bbb    H17  664   4.282   1.902   4.779  1.7749 -0.1672  1.5172
   22bbb    H18  665   4.111   1.847   4.752  1.3408  2.4101 -3.3246
   22bbb     O1  666   3.778   1.664   5.267 -0.0203  0.2872 -0.0101
   23bbb     N1  667   3.351   2.476   4.609 -0.2928  0.0748 -0.0067
   23bbb     C1  668   3.334   2.613   4.663 -0.4902  0.8279 -0.3088
   23bbb     H1  669   3.409   2.681   4.620  1.1411 -1.3671 -1.1623
   23bbb     H2  670   3.353   2.610   4.771  0.8023 -0.9082 -0.5410
   23bbb     C2  671   3.361   2.464   4.458 -0.0383 -0.7928 -0.2484
   23bbb     H3  672   3.467   2.469   4.429 -0.1735  0.7223 -0.6076
   23bbb     H4  673   3.317   2.549   4.404 -0.0441 -0.1010  0.8127
   23bbb     C3  674   3.466   2.399   4.661 -0.6477 -0.6332 -0.1011
   23bbb     H5  675   3.558   2.458   4.660  0.4957 -2.3270 -1.0575
   23bbb     H6  676   3.483   2.315   4.592 -1.7212  1.5713 -3.2472
   23bbb     C4  677   3.444   2.332   4.792  0.0775  0.3247  0.0988
   23bbb     H7  678   3.402   2.405   4.863 -1.7992 -2.0481  1.5854
   23bbb     H8  679   3.546   2.301   4.817 -0.3596 -0.8793  0.4763
   23bbb     C5  680   3.185   2.650   4.643 -0.0240  0.6068 -0.0483
   23bbb     H9  681   3.120   2.581   4.698 -1.1266  1.8730  0.2904
   23bbb    H10  682   3.161   2.639   4.536  0.4493  1.7754 -0.2847
   23bbb     C6  683   3.288   2.343   4.405  0.0572  0.2689  0.1303
   23bbb    H11  684   3.360   2.261   4.398  0.1283  0.4793 -2.4954
   23bbb    H12  685   3.267   2.369   4.301  1.9480 -0.8863 -0.5770
   23bbb     C7  686   3.346   2.209   4.788 -0.3289  0.4284  0.1618
   23bbb    H13  687   3.380   2.139   4.710  0.2571  0.3932  0.4368
   23bbb    H14  688   3.243   2.242   4.772 -0.0510  1.0633 -0.3539
   23bbb     C8  689   3.148   2.302   4.468 -0.2109 -0.5688  0.1168
   23bbb    H15  690   3.072   2.373   4.433  1.5510  0.9818 -0.7805
   23bbb    H16  691   3.148   2.304   4.578 -0.0046 -0.9566  0.1239
   23bbb     C9  692   3.147   2.795   4.688  0.1672 -0.6427  0.1194
   23bbb    H17  693   3.210   2.858   4.625 -1.1285  0.2195 -0.3607
   23bbb    H18  694   3.160   2.801   4.797 -3.1184 -1.2102  0.6608
   23bbb     O1  695   3.349   2.145   4.918 -0.1356  0.4090 -0.8300
   24bbb     N1  696   4.721   1.915   5.623  0.3126  0.1206  0.1175
   24bbb     C1  697   4.702   1.773   5.617 -0.4531 -0.1886 -0.2473
   24bbb     H1  698   4.595   1.749   5.620 -1.0917  2.5043  1.2749
   24bbb     H2  699   4.738   1.727   5.710 -1.6942 -1.4114 -0.3347
   24bbb     C2  700   4.852   1.954   5.667 -0.5969 -0.4127 -0.2856
   24bbb     H3  701   4.915   1.941   5.578 -0.3242  1.4622 -0.4159
   24bbb     H4  702   4.885   1.884   5.745 -2.0700 -0.9244 -0.0874
   24bbb     C3  703   4.669   1.987   5.505 -0.3068 -0.1905  0.2734
   24bbb     H5  704   4.718   1.961   5.410  1.9822 -0.1033  1.3665
   24bbb     H6  705   4.676   2.093   5.530 -0.3124  0.1866 -1.2688
   24bbb     C4  706   4.518   1.962   5.477 -0.1214 -0.3745  0.8941
   24bbb     H7  707   4.506   1.857   5.447 -1.0210  0.2660 -1.2311
   24bbb     H8  708   4.477   2.013   5.389  0.1058  0.6967  1.3957
   24bbb     C5  709   4.769   1.695   5.496 -0.4474 -0.3112 -0.4386
   24bbb     H9  710   4.865   1.733   5.461 -2.0189  0.9553 -3.8407
   24bbb    H10  711   4.706   1.695   5.406 -1.6199 -2.1819  0.3064
   24bbb     C6  712   4.870   2.100   5.715  0.2518  0.3990  0.5181
   24bbb    H11  713   4.771   2.118   5.758  0.4790  2.7146  0.1920
   24bbb    H12  714   4.884   2.169   5.631 -0.5158 -1.4242 -1.2141
   24bbb     C7  715   4.429   1.997   5.595  0.7438  0.0136 -0.2705
   24bbb    H13  716   4.437   2.106   5.606  1.4782  0.1715 -1.9709
   24bbb    H14  717   4.453   1.952   5.692 -1.6147  0.1352  0.4383
   24bbb     C8  718   4.984   2.121   5.816  0.1237 -0.1910  0.1151
   24bbb    H15  719   4.968   2.083   5.918  1.0674 -0.4670  0.1643
   24bbb    H16  720   4.993   2.229   5.834  2.1957 -0.3364  0.1599
   24bbb     C9  721   4.782   1.546   5.538  0.3926 -0.2796  0.3581
   24bbb    H17  722   4.681   1.510   5.561 -0.5335  1.6735 -0.4454
   24bbb    H18  723   4.850   1.535   5.623  0.3120 -1.1136  0.3222
   24bbb     O1  724   4.289   1.960   5.553 -0.2251  0.0478 -0.5511
   25bbb     N1  725   4.414   2.348   6.284 -0.1099 -0.7300 -0.5716
   25bbb     C1  726   4.362   2.451   6.188 -0.1554 -0.2760 -0.6733
   25bbb     H1  727   4.311   2.415   6.098 -0.7277  0.1854 -0.5400
   25bbb     H2  728   4.447   2.509   6.148 -0.5514  0.6010 -0.2678
   25bbb     C2  729   4.509   2.407   6.391 -0.2360  0.2508  0.2409
   25bbb     H3  730   4.451   2.481   6.446  0.1599  0.0663  0.9181
   25bbb     H4  731   4.599   2.458   6.354  0.1800 -1.0030 -0.5580
   25bbb     C3  732   4.317   2.243   6.329  0.3845 -0.1226  0.3962
   25bbb     H5  733   4.244   2.291   6.396  0.5706  2.0073 -0.8487
   25bbb     H6  734   4.375   2.169   6.385  0.4512 -0.2236  0.1940
   25bbb     C4  735   4.232   2.182   6.221  0.0053 -0.2396  0.0099
   25bbb     H7  736   4.296   2.138   6.143 -0.6224 -1.1305 -0.0177
   25bbb     H8  737   4.181   2.262   6.166  0.5449 -0.1966 -0.4428
   25bbb     C5  738   4.274   2.549   6.247  0.3370 -0.2973 -0.1463
   25bbb     H9  739   4.317   2.587   6.341  4.0216 -1.0486 -1.3822
   25bbb    H10  740   4.182   2.494   6.269  0.1872 -0.0678 -0.1968
   25bbb     C6  741   4.567   2.302   6.484  0.4058 -0.0550  0.4066
   25bbb    H11  742   4.605   2.224   6.416  1.1949  1.1445 -0.5591
   25bbb    H12  743   4.489   2.256   6.545  0.9147 -2.6193 -0.7472
   25bbb     C7  744   4.139   2.072   6.253 -0.3909  0.4273  0.5267
   25bbb    H13  745   4.057   2.116   6.311  0.5505  0.9625  1.4942
   25bbb    H14  746   4.181   1.990   6.313 -0.9440  0.0866  0.4494
   25bbb     C8  747   4.682   2.348   6.573 -0.1978 -0.2184  0.7059
   25bbb    H15  748   4.657   2.443   6.621  3.0804  0.9167  0.4041
   25bbb    H16  749   4.773   2.377   6.520 -1.9120  1.4961 -1.5156
   25bbb     C9  750   4.231   2.663   6.147 -0.6224  0.2281 -0.2124
   25bbb    H17  751   4.188   2.611   6.060  0.9957 -0.3554 -0.6918
   25bbb    H18  752   4.321   2.715   6.112 -0.8186  1.1258  0.5896
   25bbb     O1  753   4.082   2.027   6.128 -0.0127  0.4374  0.2759
   26bbb     N1  754   2.809   2.249   4.811  0.0572  0.5120  0.0068
   26bbb     C1  755   2.847   2.278   4.669  0.2470  0.5763  0.0989
   26bbb     H1  756   2.933   2.218   4.637 -0.7487 -1.2109  0.6332
   26bbb     H2  757   2.882   2.382   4.667 -2.2532  1.5015 -0.7487
   26bbb     C2  758   2.760   2.106   4.823 -0.3046  0.1623 -0.5059
   26bbb     H3  759   2.673   2.081   4.761 -0.8830 -0.2978  0.4660
   26bbb     H4  760   2.728   2.098   4.928 -0.7169 -0.9476 -0.6961
   26bbb     C3  761   2.913   2.277   4.908 -0.1049 -0.5030 -0.0270
   26bbb     H5  762   3.004   2.222   4.880 -0.4557 -1.0259 -0.1526
   26bbb     H6  763   2.881   2.244   5.007 -1.3634 -0.2891 -0.3519
   26bbb     C4  764   2.938   2.426   4.926 -1.1471  0.5324  0.0682
   26bbb     H7  765   2.863   2.454   5.001  0.6431  2.0575  1.3789
   26bbb     H8  766   2.946   2.483   4.833 -2.5187  1.6526  0.6005
   26bbb     C5  767   2.734   2.267   4.565  0.3885  0.1329  0.3277
   26bbb     H9  768   2.646   2.326   4.592  1.1736  0.7477  1.6132
   26bbb    H10  769   2.700   2.162   4.563 -1.4727  0.6846 -1.3372
   26bbb     C6  770   2.866   1.995   4.786 -0.5623 -0.5415  0.1281
   26bbb    H11  771   2.959   2.030   4.831 -1.5964  1.6028  0.7209
   26bbb    H12  772   2.878   1.975   4.679  2.1582 -0.7596  0.4259
   26bbb     C7  773   3.079   2.455   4.980 -0.1875  0.3929 -0.1105
   26bbb    H13  774   3.152   2.422   4.906  0.1871  0.5559  0.1785
   26bbb    H14  775   3.086   2.391   5.069  1.0386  0.3745 -0.2089
   26bbb     C8  776   2.831   1.861   4.868 -0.4461  0.3160  0.3845
   26bbb    H15  777   2.740   1.821   4.824 -0.2330 -0.8773  0.9858
   26bbb    H16  778   2.818   1.886   4.975  0.1775  0.0653  0.5209
   26bbb     C9  779   2.779   2.304   4.418 -0.1668 -0.4430 -0.5371
   26bbb    H17  780   2.695   2.281   4.351 -0.7890 -0.5633  0.2693
   26bbb    H18  781   2.867   2.246   4.387 -0.2096 -1.6651  1.4584
   26bbb     O1  782   3.094   2.596   5.002  0.0509  0.1142 -0.0293
   27bbb     N1  783   3.609   3.253   5.950  0.3586  0.8216  0.5471
   27bbb     C1  784   3.663   3.376   5.880 -0.3167 -0.1829 -0.1890
   27bbb     H1  785   3.587   3.455   5.871  0.2661  0.9032  2.9821
   27bbb     H2  786   3.698   3.337   5.784  0.5698  1.6336 -0.6504
   27bbb     C2  787   3.545   3.278   6.081 -0.6022 -0.4039 -0.3655
   27bbb     H3  788   3.624   3.318   6.146  0.4506 -0.4233 -1.5957
   27bbb     H4  789   3.513   3.183   6.125  0.0506  0.1130  1.3199
   27bbb     C3  790   3.526   3.160   5.868  0.0518  0.4984  0.3388
   27bbb     H5  791   3.444   3.214   5.820 -0.3783  1.0734  1.6741
   27bbb     H6  792   3.492   3.081   5.937 -0.8558 -0.0408 -0.6934
   27bbb     C4  793   3.607   3.095   5.761 -0.5002  0.5142  0.6887
   27bbb     H7  794   3.706   3.070   5.801 -0.9096  1.8755  2.7056
   27bbb     H8  795   3.618   3.158   5.672 -0.8070 -0.3952 -0.0110
   27bbb     C5  796   3.781   3.447   5.952  0.2007  0.9341 -0.2290
   27bbb     H9  797   3.745   3.465   6.054  0.0995  0.1539 -0.1185
   27bbb    H10  798   3.797   3.544   5.902 -0.6507  1.3504  0.2784
   27bbb     C6  799   3.427   3.382   6.086 -0.5904 -0.3671  0.2921
   27bbb    H11  800   3.373   3.349   5.996  0.7579 -1.4351 -0.1648
   27bbb    H12  801   3.460   3.483   6.057 -0.7647 -0.4468 -0.2063
   27bbb     C7  802   3.534   2.969   5.711 -0.0118  0.5991  0.5348
   27bbb    H13  803   3.448   2.998   5.649  1.0826  1.6007 -0.5784
   27bbb    H14  804   3.486   2.918   5.795 -0.0503 -2.3893 -1.1517
   27bbb     C8  805   3.336   3.373   6.209 -0.7255  0.2465  0.2068
   27bbb    H15  806   3.263   3.455   6.214  0.8778  1.6716  1.5531
   27bbb    H16  807   3.406   3.380   6.293  0.5668  1.1563 -0.8917
   27bbb     C9  808   3.909   3.358   5.949 -0.2910  0.5729 -0.4074
   27bbb    H17  809   3.884   3.253   5.929  0.1413  0.6996 -1.7304
   27bbb    H18  810   3.976   3.369   6.035  2.2159 -0.4996 -2.1096
   27bbb     O1  811   3.620   2.864   5.645  0.3199 -0.2782  0.0938
   28bbb     N1  812   3.857   2.668   4.797  0.3162  0.8658  0.3463
   28bbb     C1  813   3.775   2.778   4.744  0.3212  0.7707 -0.7139
   28bbb     H1  814   3.674   2.739   4.732  1.2903 -1.9626 -0.5640
   28bbb     H2  815   3.809   2.816   4.647  2.3764  1.0817  0.0650
   28bbb     C2  816   3.870   2.561   4.689 -0.1073  0.2514  0.5999
   28bbb     H3  817   3.909   2.616   4.602  1.6389  0.4735  1.4655
   28bbb     H4  818   3.770   2.520   4.670 -0.3911 -0.3205  2.9576
   28bbb     C3  819   3.834   2.613   4.931  0.2936 -0.4489  0.2496
   28bbb     H5  820   3.831   2.702   4.995 -0.0101  0.1827 -0.6196
   28bbb     H6  821   3.924   2.562   4.967 -1.3441 -2.5644  1.6106
   28bbb     C4  822   3.706   2.533   4.959 -0.2981  0.3841 -0.3419
   28bbb     H7  823   3.712   2.433   4.915 -3.2568 -0.0790  0.1098
   28bbb     H8  824   3.616   2.577   4.914 -0.7750  0.1244  0.3403
   28bbb     C5  825   3.775   2.905   4.835 -0.0344 -0.4875  0.0250
   28bbb     H9  826   3.881   2.933   4.840 -0.5541  1.5280  0.6438
   28bbb    H10  827   3.755   2.900   4.943  2.1160 -3.1165  0.4335
   28bbb     C6  828   3.963   2.438   4.715  0.5070  0.4171 -0.2190
   28bbb    H11  829   3.904   2.377   4.784 -1.4955  3.1495  0.6876
   28bbb    H12  830   4.054   2.474   4.765 -0.2270  1.2577  0.5507
   28bbb     C7  831   3.686   2.520   5.112 -0.2314 -0.1771  0.5079
   28bbb    H13  832   3.654   2.619   5.149  2.2481  0.1936  1.8738
   28bbb    H14  833   3.777   2.487   5.163  0.4756 -0.4244 -0.8846
   28bbb     C8  834   3.999   2.368   4.580  0.0603 -0.0922  0.7616
   28bbb    H15  835   3.979   2.434   4.495  0.5203 -1.9694 -0.8874
   28bbb    H16  836   3.937   2.277   4.573  0.6651 -0.3715 -2.6931
   28bbb     C9  837   3.698   3.029   4.790  0.4589  0.2989 -0.2711
   28bbb    H17  838   3.589   3.023   4.800  0.3757  0.9563 -0.7480
   28bbb    H18  839   3.715   3.029   4.682  1.3442  0.1516 -0.1415
   28bbb     O1  840   3.580   2.425   5.114  0.0855 -0.0632  0.0232
   29bbb     N1  841   4.038   2.614   5.415 -0.1748 -0.5433  0.2852
   29bbb     C1  842   4.066   2.708   5.528  0.2405 -0.1185  0.0211
   29bbb     H1  843   4.048   2.811   5.493  0.0797 -0.3918 -0.7257
   29bbb     H2  844   4.175   2.699   5.537  0.5716  1.8267 -1.4363
   29bbb     C2  845   4.070   2.664   5.278  0.1006  0.8652 -0.9246
   29bbb     H3  846   4.013   2.605   5.205 -1.3757  2.2030 -0.8972
   29bbb     H4  847   4.177   2.649   5.259  0.4579  1.2771  0.6463
   29bbb     C3  848   4.075   2.474   5.434  0.1849  0.3128  0.6434
   29bbb     H5  849   4.074   2.463   5.544 -0.0010 -0.6790  0.5581
   29bbb     H6  850   4.178   2.451   5.404  0.2339  0.8211  0.4275
   29bbb     C4  851   3.980   2.371   5.371  0.3563 -0.3808  0.4062
   29bbb     H7  852   3.984   2.357   5.263 -0.6550  0.4132  0.2459
   29bbb     H8  853   3.875   2.403   5.385 -0.5079 -2.1352 -1.6246
   29bbb     C5  854   3.998   2.686   5.657  1.5071 -0.3709 -0.2952
   29bbb     H9  855   4.072   2.616   5.697  1.8329 -0.3868 -0.9260
   29bbb    H10  856   3.901   2.634   5.655  0.7409  0.9667  0.3329
   29bbb     C6  857   4.039   2.813   5.244 -0.7559 -0.2731  0.5072
   29bbb    H11  858   4.068   2.832   5.140  1.2732  1.7767  1.3582
   29bbb    H12  859   4.111   2.877   5.298  3.0584 -3.9137  0.2322
   29bbb     C7  860   3.992   2.230   5.439  0.3222 -0.2336  0.0312
   29bbb    H13  861   4.038   2.240   5.538  1.6207 -0.8317 -0.4890
   29bbb    H14  862   4.067   2.170   5.387  0.2638  1.4642 -2.1725
   29bbb     C8  863   3.895   2.858   5.272  0.0117 -0.0506 -0.1945
   29bbb    H15  864   3.866   2.818   5.370  0.9774  2.3497  1.1490
   29bbb    H16  865   3.822   2.817   5.200 -1.1361 -0.9018  1.3798
   29bbb     C9  866   3.963   2.818   5.735 -0.1229  0.3511 -0.2332
   29bbb    H17  867   3.928   2.792   5.835  1.6627  0.7922  0.5636
   29bbb    H18  868   3.877   2.866   5.688 -0.9433 -0.9177 -0.0489
   29bbb     O1  869   3.868   2.162   5.456  0.1215 -0.1059 -0.2012
   30ccc     C1  870   4.440   0.979   6.433  0.4696 -0.0492 -0.9306
   30ccc     H1  871   4.395   1.077   6.414  0.8756  0.6000  1.1703
   30ccc     H2  872   4.542   0.965   6.397  0.9246 -0.5243  0.4646
   30ccc     C2  873   4.458   0.985   6.592  0.6050 -0.2673  0.8998
   30ccc     H3  874   4.365   0.987   6.650 -0.6521 -1.0936 -0.9782
   30ccc     H4  875   4.510   0.894   6.626 -0.3734 -0.8305  0.9220
   30ccc     C3  876   4.553   1.098   6.634 -0.2498  0.7210 -0.6256
   30ccc     H5  877   4.644   1.096   6.572  1.1872  0.9756  1.3750
   30ccc     H6  878   4.592   1.081   6.735  0.6249 -1.5574 -1.2961
   30ccc     N1  879   4.347   0.876   6.386  0.2137  0.7459 -0.0072
   30ccc     H7  880   4.358   0.782   6.424  0.4314 -0.1152 -2.1037
   30ccc     H8  881   4.264   0.923   6.421  1.1451  0.8968  2.1621
   30ccc     O1  882   4.488   1.230   6.617  0.2652 -0.4513  0.3996
   31ccc     C1  883   4.590   1.993   7.256  0.1861  0.4412 -0.5655
   31ccc     H1  884   4.677   2.060   7.260  0.5792 -0.1314  1.2295
   31ccc     H2  885   4.500   2.054   7.266  0.9042  1.3865  0.4030
   31ccc     C2  886   4.599   1.909   7.130  0.3817 -0.2326 -0.0723
   31ccc     H3  887   4.516   1.837   7.131  0.0592  0.1307 -0.2745
   31ccc     H4  888   4.578   1.970   7.041 -2.5119 -0.5959  0.2564
   31ccc     C3  889   4.739   1.838   7.129  0.3941 -0.1859  0.1118
   31ccc     H5  890   4.746   1.770   7.215  0.0021  0.0149  0.3052
   31ccc     H6  891   4.817   1.914   7.135 -0.6508  0.8035  1.9489
   31ccc     N1  892   4.603   1.924   7.382 -0.1467 -0.5597  0.4554
   31ccc     H7  893   4.529   1.854   7.379  1.0497 -1.9455  1.7391
   31ccc     H8  894   4.695   1.881   7.375 -0.0988 -0.5601  1.0288
   31ccc     O1  895   4.735   1.755   7.006  0.1749 -0.1213 -0.2411
   32ccc     C1  896   3.060   2.042   6.331 -0.5841 -0.1806  0.5014
   32ccc     H1  897   3.142   2.037   6.404  1.6146  1.4519 -1.6907
   32ccc     H2  898   3.096   2.116   6.258 -2.0594 -0.1092 -0.2100
   32ccc     C2  899   3.023   1.904   6.272 -0.3574  0.0389 -0.6259
   32ccc     H3  900   2.977   1.847   6.353 -0.1482  1.3930  0.4855
   32ccc     H4  901   2.965   1.925   6.180 -1.4985  0.6925  0.2127
   32ccc     C3  902   3.135   1.809   6.227  0.0642 -0.1738 -0.8119
   32ccc     H5  903   3.164   1.843   6.127 -0.8385  1.3390 -0.5762
   32ccc     H6  904   3.090   1.708   6.226 -1.2844  0.3453  0.9878
   32ccc     N1  905   2.944   2.110   6.389  0.0210 -0.0592  0.4799
   32ccc     H7  906   2.987   2.202   6.400 -0.5551  0.4002 -0.8294
   32ccc     H8  907   2.877   2.137   6.317  0.3412  2.4921  1.0505
   32ccc     O1  908   3.248   1.797   6.320  0.2048  0.4947  0.2086
   33ccc     C1  909   3.996   1.343   5.996  0.9935  0.0278 -0.2047
   33ccc     H1  910   3.912   1.276   5.978 -1.3748  3.1666 -2.0050
   33ccc     H2  911   4.028   1.381   5.898 -0.0656 -0.4924 -0.7618
   33ccc     C2  912   3.944   1.462   6.077  0.0646 -0.3488  0.1264
   33ccc     H3  913   4.017   1.543   6.077 -1.0254  0.6653  0.2203
   33ccc     H4  914   3.853   1.504   6.033 -0.3655  0.0481  1.3562
   33ccc     C3  915   3.921   1.429   6.218  0.3599  0.0107  0.8173
   33ccc     H5  916   4.011   1.435   6.281 -1.3933  2.5403  3.3572
   33ccc     H6  917   3.873   1.331   6.221  3.0055 -1.3576  1.6116
   33ccc     N1  918   4.109   1.277   6.056  0.0716 -0.4022 -0.7342
   33ccc     H7  919   4.120   1.199   5.991 -3.0235 -1.8938  0.3509
   33ccc     H8  920   4.186   1.343   6.044  0.8566 -1.7091 -4.0301
   33ccc     O1  921   3.831   1.530   6.273  0.0133 -0.0127  0.4819
   34ccc     C1  922   4.301   1.556   5.760  0.1429 -0.4260  0.5505
   34ccc     H1  923   4.255   1.493   5.838 -2.0532 -0.4844 -0.7144
   34ccc     H2  924   4.319   1.652   5.810  0.0850 -0.1409  0.0295
   34ccc     C2  925   4.426   1.497   5.696  0.4481 -0.0615 -0.1573
   34ccc     H3  926   4.387   1.411   5.640  0.2138 -0.9361  1.3047
   34ccc     H4  927   4.458   1.573   5.623  1.2282  0.5097  0.7638
   34ccc     C3  928   4.533   1.458   5.795  0.3183  0.5674  0.0535
   34ccc     H5  929   4.612   1.401   5.744  0.2116 -0.6679  1.1888
   34ccc     H6  930   4.477   1.392   5.863 -1.4684  1.5436 -0.4379
   34ccc     N1  931   4.197   1.584   5.662  0.2074 -0.3932 -0.2063
   34ccc     H7  932   4.114   1.608   5.716  0.3379 -0.1641 -0.1106
   34ccc     H8  933   4.229   1.670   5.619 -1.4595 -0.2994 -1.3850
   34ccc     O1  934   4.584   1.575   5.861 -0.4912 -0.6496 -0.3841
   35ccc     C1  935   5.506   1.640   5.277  0.0360 -0.3318  0.3131
   35ccc     H1  936   5.571   1.564   5.231 -1.8317 -0.7885 -1.7455
   35ccc     H2  937   5.416   1.648   5.215 -2.5312  0.3697  3.8703
   35ccc     C2  938   5.455   1.605   5.419 -0.0139  0.3820  0.0255
   35ccc     H3  939   5.417   1.502   5.425 -0.8224  0.7410  3.2439
   35ccc     H4  940   5.544   1.611   5.483  1.0822  1.6865 -1.5239
   35ccc     C3  941   5.329   1.684   5.464  0.1119 -0.1786  0.4548
   35ccc     H5  942   5.249   1.661   5.392  0.1584 -0.4472  0.4912
   35ccc     H6  943   5.347   1.793   5.461 -1.9603  0.1825 -0.4930
   35ccc     N1  944   5.575   1.764   5.280  0.0280 -0.0699 -0.0953
   35ccc     H7  945   5.620   1.787   5.192 -1.8853  0.6068 -0.9585
   35ccc     H8  946   5.653   1.748   5.344 -2.1003 -1.3641  2.3688
   35ccc     O1  947   5.286   1.644   5.598 -0.0365 -0.1184 -0.3109
   36ccc     C1  948   4.993   1.264   6.020 -0.8015  0.2375  0.8958
   36ccc     H1  949   5.009   1.157   5.999 -0.6025  0.2394  1.0358
   36ccc     H2  950   4.963   1.316   5.928  0.0489 -1.9901 -0.7325
   36ccc     C2  951   4.891   1.269   6.128 -0.0766  0.5408 -0.5083
   36ccc     H3  952   4.922   1.207   6.213 -0.5923 -0.1192 -0.7990
   36ccc     H4  953   4.887   1.373   6.162  1.3101  0.3775  0.2271
   36ccc     C3  954   4.751   1.218   6.083 -0.1941  0.2702 -0.2673
   36ccc     H5  955   4.732   1.110   6.093  0.0807  0.0799 -1.6269
   36ccc     H6  956   4.735   1.253   5.980 -0.1636 -3.8320 -1.8907
   36ccc     N1  957   5.114   1.333   6.048  0.0263  0.2474 -0.9015
   36ccc     H7  958   5.168   1.308   5.965  2.8619 -0.2481  0.9439
   36ccc     H8  959   5.084   1.428   6.023  1.0844  0.2349 -2.3852
   36ccc     O1  960   4.653   1.277   6.176 -0.2898 -0.0498 -0.1360
   37ccc     C1  961   3.950   1.409   6.727 -0.4991 -0.2287 -0.6015
   37ccc     H1  962   3.840   1.420   6.727 -0.5901 -1.0072 -0.8523
   37ccc     H2  963   3.989   1.410   6.624 -1.1105  2.5281 -0.8789
   37ccc     C2  964   4.003   1.531   6.805 -0.0774  0.0597 -0.0360
   37ccc     H3  965   3.945   1.534   6.897 -2.9054 -2.3897 -1.5799
   37ccc     H4  966   4.108   1.516   6.833  0.6100  4.4357  0.4755
   37ccc     C3  967   3.996   1.669   6.735 -0.3465 -0.4464 -0.8102
   37ccc     H5  968   4.056   1.738   6.796 -1.1268 -0.0181 -0.5212
   37ccc     H6  969   3.894   1.704   6.750  0.5631  2.1166 -0.0890
   37ccc     N1  970   3.980   1.285   6.797 -0.7135  0.2662 -0.5263
   37ccc     H7  971   4.080   1.279   6.783 -0.7147  2.9586 -2.3220
   37ccc     H8  972   3.977   1.290   6.898 -2.2138  1.3298 -0.5838
   37ccc     O1  973   4.028   1.670   6.593 -0.5820  0.1131  0.4139
   38ccc     C1  974   4.438   2.940   4.284 -0.6775 -0.0471  0.5738
   38ccc     H1  975   4.518   2.990   4.341 -0.4083 -0.7939  0.8673
   38ccc     H2  976   4.494   2.861   4.233  2.1140  2.1694 -0.1002
   38ccc     C2  977   4.333   2.888   4.378  0.9796 -0.2048 -0.2842
   38ccc     H3  978   4.313   2.969   4.448 -0.7804 -0.4411 -0.4743
   38ccc     H4  979   4.245   2.861   4.318  1.5076  0.9694 -1.6550
   38ccc     C3  980   4.371   2.752   4.451  0.0583  0.4110  0.6328
   38ccc     H5  981   4.389   2.672   4.379 -2.3984  0.6041 -0.2807
   38ccc     H6  982   4.299   2.718   4.526 -0.6106 -1.2770 -0.7070
   38ccc     N1  983   4.391   3.041   4.194  0.6132  0.0615  0.5017
   38ccc     H7  984   4.369   3.125   4.248  1.1554  1.8041 -1.8107
   38ccc     H8  985   4.475   3.066   4.141  0.7636 -1.0765  0.1890
   38ccc     O1  986   4.500   2.776   4.519 -0.1032 -0.0293 -0.6636
   39ccc     C1  987   4.910   3.031   5.594  0.2281  0.3546 -0.1124
   39ccc     H1  988   4.828   3.101   5.572  1.9213  2.2570 -0.6572
   39ccc     H2  989   4.881   2.972   5.682  1.3136 -0.6652 -0.4205
   39ccc     C2  990   4.949   2.946   5.472 -0.6149 -0.4707 -0.5635
   39ccc     H3  991   5.011   3.005   5.403  0.5322 -0.5744  0.3546
   39ccc     H4  992   5.007   2.857   5.498  0.4427  0.9079  2.0448
   39ccc     C3  993   4.832   2.900   5.378  0.6654  0.5309 -0.6351
   39ccc     H5  994   4.788   2.990   5.334  1.1383  1.8315  1.4066
   39ccc     H6  995   4.745   2.858   5.430 -0.3809  0.2386 -2.5283
   39ccc     N1  996   5.021   3.116   5.631 -0.4970  0.8311 -0.7252
   39ccc     H7  997   5.102   3.056   5.642 -3.2073 -2.8934  1.4304
   39ccc     H8  998   5.048   3.165   5.546  0.0216  1.1506 -0.3858
   39ccc     O1  999   4.881   2.807   5.281 -0.2593  0.5509  0.2390
   40ccc     C1 1000   4.802   2.905   5.942 -0.3054  0.1574 -0.2675
   40ccc     H1 1001   4.778   2.904   5.835 -1.5363  2.3191 -0.0507
   40ccc     H2 1002   4.702   2.910   5.986 -0.9295  0.5202 -1.6544
   40ccc     C2 1003   4.889   2.790   6.000  0.3579 -0.2014  0.3950
   40ccc     H3 1004   4.998   2.805   5.997  0.5240 -1.4802 -2.3419
   40ccc     H4 1005   4.862   2.776   6.106  2.2843 -5.1207  0.4752
   40ccc     C3 1006   4.850   2.650   5.940 -0.4021 -0.3505  0.2267
   40ccc     H5 1007   4.745   2.627   5.962 -0.1727  0.1849  2.0843
   40ccc     H6 1008   4.913   2.574   5.987 -0.0534 -0.5605 -0.5587
   40ccc     N1 1009   4.855   3.034   5.981  0.2524  0.5102 -0.4184
   40ccc     H7 1010   4.955   3.034   5.962  0.1914  1.2091 -0.8147
   40ccc     H8 1011   4.815   3.098   5.912 -1.1500  0.3899  0.2447
   40ccc     O1 1012   4.874   2.646   5.795 -0.0224 -0.4217  0.3784
   41ccc     C1 1013   5.731   2.404   5.963 -0.0037  0.1905 -0.0599
   41ccc     H1 1014   5.724   2.495   5.903  3.1819  1.4898  1.2537
   41ccc     H2 1015   5.739   2.443   6.066 -1.5318 -0.4057  0.3007
   41ccc     C2 1016   5.609   2.324   5.944  0.2252 -0.1323 -0.1542
   41ccc     H3 1017   5.606   2.295   5.838 -2.1395 -1.0456  0.1072
   41ccc     H4 1018   5.613   2.235   6.007  2.0860 -1.0060 -1.4229
   41ccc     C3 1019   5.493   2.406   5.996  0.3716 -0.5418 -0.4387
   41ccc     H5 1020   5.517   2.499   6.050  2.0839 -0.3582 -1.4606
   41ccc     H6 1021   5.439   2.353   6.076 -0.2269  0.8482  0.1221
   41ccc     N1 1022   5.855   2.336   5.942  0.0338  0.1327 -0.7214
   41ccc     H7 1023   5.841   2.329   5.842 -0.2279  2.5018 -0.8942
   41ccc     H8 1024   5.923   2.412   5.946  0.3689 -0.1463 -1.0532
   41ccc     O1 1025   5.405   2.432   5.887  0.3385 -0.3129 -0.4396
   42ccc     C1 1026   4.148   1.120   4.897  0.0506 -0.0724  1.0925
   42ccc     H1 1027   4.238   1.094   4.840 -0.9489  0.1721 -0.6861
   42ccc     H2 1028   4.179   1.126   5.002  0.3659 -0.8908  1.0567
   42ccc     C2 1029   4.105   1.253   4.834 -0.7014 -0.0774  1.0945
   42ccc     H3 1030   4.197   1.313   4.834 -0.7795  0.0517 -0.3604
   42ccc     H4 1031   4.074   1.229   4.732 -2.6768 -1.9122  2.0514
   42ccc     C3 1032   3.992   1.321   4.910 -0.3611  0.0617 -0.4461
   42ccc     H5 1033   4.028   1.365   5.004  0.8945  0.3291 -1.0370
   42ccc     H6 1034   3.909   1.252   4.928  1.1120 -1.5123  0.5884
   42ccc     N1 1035   4.047   1.011   4.894  0.2158 -0.2125 -0.9924
   42ccc     H7 1036   4.033   0.999   4.793 -1.4460  4.3335 -1.5572
   42ccc     H8 1037   4.099   0.928   4.920 -0.5870 -0.5976 -0.5831
   42ccc     O1 1038   3.959   1.428   4.820  0.1667  0.4182  0.6399
   43ccc     C1 1039   3.985   1.581   4.384 -0.0991  0.2718  0.2427
   43ccc     H1 1040   4.047   1.520   4.317  0.8368  0.6644  0.7419
   43ccc     H2 1041   3.985   1.541   4.486 -0.3157 -0.9459 -0.2134
   43ccc     C2 1042   4.030   1.722   4.358 -0.4085  0.1966 -0.3865
   43ccc     H3 1043   4.138   1.741   4.370 -0.5756  0.3509  1.0294
   43ccc     H4 1044   4.018   1.758   4.255  0.7910  0.9730 -0.2767
   43ccc     C3 1045   3.963   1.819   4.452  0.4896  0.2191  0.1020
   43ccc     H5 1046   4.014   1.913   4.428  1.1054  0.0030  0.5205
   43ccc     H6 1047   3.972   1.786   4.556  1.7298  0.2488  0.0248
   43ccc     N1 1048   3.844   1.558   4.336  0.8338 -0.1692 -0.2057
   43ccc     H7 1049   3.792   1.630   4.386  2.7786  0.3161  1.2524
   43ccc     H8 1050   3.850   1.591   4.240  0.4586  0.7386  0.0698
   43ccc     O1 1051   3.825   1.828   4.412 -0.2050 -0.0187  0.0428
   44ccc     C1 1052   4.187   3.308   4.384  0.1948 -0.5164 -0.4707
   44ccc     H1 1053   4.106   3.234   4.389 -1.7103  1.3903 -1.4464
   44ccc     H2 1054   4.150   3.411   4.383 -0.1745 -0.6411  0.0041
   44ccc     C2 1055   4.293   3.284   4.495 -0.8987 -0.0980  0.6819
   44ccc     H3 1056   4.352   3.193   4.482  1.1095  0.8840  2.2654
   44ccc     H4 1057   4.371   3.362   4.494 -1.5862  0.6053  0.9173
   44ccc     C3 1058   4.233   3.278   4.634  0.3711  0.3229 -0.8783
   44ccc     H5 1059   4.171   3.188   4.642 -2.7307  2.4438  0.8899
   44ccc     H6 1060   4.169   3.366   4.646 -0.2053  0.1822 -2.7181
   44ccc     N1 1061   4.240   3.298   4.249 -0.5094  0.9208 -0.0721
   44ccc     H7 1062   4.296   3.379   4.222 -0.0538 -0.1012 -2.3520
   44ccc     H8 1063   4.163   3.305   4.183 -1.5215  0.2033  0.9834
   44ccc     O1 1064   4.323   3.273   4.743 -0.0764 -0.2652 -0.3707
   45ccc     C1 1065   4.780   3.371   5.833 -0.2604  0.1584  0.1234
   45ccc     H1 1066   4.822   3.408   5.738  0.8302  1.7894  1.1806
   45ccc     H2 1067   4.727   3.456   5.877 -2.8926 -0.3614 -1.8216
   45ccc     C2 1068   4.686   3.248   5.815 -0.3062  0.2531  0.1909
   45ccc     H3 1069   4.738   3.166   5.763  1.9828  2.0272 -0.5269
   45ccc     H4 1070   4.666   3.204   5.914  1.1523 -1.9048 -0.4009
   45ccc     C3 1071   4.554   3.281   5.738  0.5827 -0.6055  0.3460
   45ccc     H5 1072   4.500   3.363   5.786 -0.5062 -1.7576  1.1439
   45ccc     H6 1073   4.506   3.183   5.725  0.9646 -0.5114 -2.1067
   45ccc     N1 1074   4.902   3.340   5.904  0.4146 -0.4151 -0.0287
   45ccc     H7 1075   4.946   3.431   5.911  1.6949 -0.7764 -2.3091
   45ccc     H8 1076   4.871   3.328   6.000 -0.0881  2.7558  0.2999
   45ccc     O1 1077   4.595   3.321   5.606 -0.0263  0.1873  0.2143
   46ccc     C1 1078   4.616   1.340   4.879  0.2770 -0.0775  0.1512
   46ccc     H1 1079   4.546   1.416   4.842 -1.0589 -1.0816  0.5392
   46ccc     H2 1080   4.704   1.396   4.914  0.7724 -0.9069  0.2720
   46ccc     C2 1081   4.548   1.239   4.979 -0.2770  0.1188 -0.3808
   46ccc     H3 1082   4.477   1.173   4.926 -1.6724  0.7036  0.6755
   46ccc     H4 1083   4.619   1.162   5.010 -1.4227 -0.7590  0.1537
   46ccc     C3 1084   4.467   1.298   5.101  0.7659 -0.0403  0.0677
   46ccc     H5 1085   4.519   1.336   5.189  1.2687 -0.1827 -0.1617
   46ccc     H6 1086   4.421   1.207   5.140 -1.1828  0.6063 -0.6309
   46ccc     N1 1087   4.656   1.260   4.760 -0.2171  0.0456 -0.0702
   46ccc     H7 1088   4.572   1.233   4.708 -0.3091 -0.5149  0.3662
   46ccc     H8 1089   4.711   1.319   4.697  1.1851 -1.8157 -0.6868
   46ccc     O1 1090   4.357   1.391   5.056 -0.1162 -0.1908 -0.3905
   47ccc     C1 1091   4.401   1.496   4.560  0.2536 -0.5016 -0.8017
   47ccc     H1 1092   4.457   1.473   4.652 -0.0161 -0.2539 -0.5731
   47ccc     H2 1093   4.292   1.496   4.562  0.2591 -0.0887  0.0250
   47ccc     C2 1094   4.443   1.641   4.523  0.5456 -0.3140 -0.2481
   47ccc     H3 1095   4.552   1.644   4.509  0.2725  0.3972 -2.5573
   47ccc     H4 1096   4.399   1.675   4.429 -0.1708  0.7460  0.4426
   47ccc     C3 1097   4.400   1.751   4.630 -0.4732  1.0497 -0.2183
   47ccc     H5 1098   4.435   1.853   4.610  0.7909  0.8222  0.7462
   47ccc     H6 1099   4.448   1.720   4.723  0.1583  2.7865  0.0822
   47ccc     N1 1100   4.449   1.398   4.460  0.0612  0.2232 -0.1276
   47ccc     H7 1101   4.549   1.414   4.452  0.4518 -2.3690 -1.4068
   47ccc     H8 1102   4.452   1.309   4.508  0.9929  1.2113  1.7257
   47ccc     O1 1103   4.256   1.743   4.649 -0.1222  0.3361  0.1349
   48ccc     C1 1104   2.997   1.915   4.372  0.5225 -0.0192 -0.6031
   48ccc     H1 1105   2.932   1.900   4.459  1.8656  1.3069  0.6945
   48ccc     H2 1106   2.960   1.996   4.308  1.0865  0.1110 -0.7710
   48ccc     C2 1107   3.140   1.931   4.432 -0.2628  0.0639  0.2296
   48ccc     H3 1108   3.150   1.848   4.503  0.0576  0.1729  0.3161
   48ccc     H4 1109   3.215   1.918   4.353  0.3301  0.7170  0.6640
   48ccc     C3 1110   3.171   2.064   4.494  0.4671 -0.2989  0.0934
   48ccc     H5 1111   3.276   2.075   4.523  0.6977 -1.4462 -0.2393
   48ccc     H6 1112   3.121   2.063   4.592  1.3741 -0.6273  0.5558
   48ccc     N1 1113   2.992   1.800   4.278 -0.0660 -0.2238  0.3836
   48ccc     H7 1114   2.895   1.800   4.246 -0.5329  0.0247  1.7536
   48ccc     H8 1115   3.037   1.825   4.190  0.1681  0.4381  0.6871
   48ccc     O1 1116   3.122   2.177   4.416 -0.1105 -0.0291  0.3383
   49ccc     C1 1117   2.775   2.953   4.823  0.3656 -0.4796  0.5392
   49ccc     H1 1118   2.676   2.969   4.866  1.2869 -2.5329  3.7517
   49ccc     H2 1119   2.835   2.937   4.914 -0.2256 -0.6901  0.8950
   49ccc     C2 1120   2.766   2.826   4.735  0.1691  0.2460 -0.3093
   49ccc     H3 1121   2.691   2.755   4.771  1.3110 -1.7786 -1.7429
   49ccc     H4 1122   2.734   2.857   4.634 -2.2242  0.8270  0.5784
   49ccc     C3 1123   2.911   2.756   4.740  0.6402 -0.3150 -0.7046
   49ccc     H5 1124   2.903   2.654   4.701 -2.7021 -0.9639  1.2876
   49ccc     H6 1125   2.947   2.755   4.844  0.8571  1.9577 -0.6990
   49ccc     N1 1126   2.824   3.068   4.748  0.2694 -0.0235  0.1474
   49ccc     H7 1127   2.850   3.133   4.822 -0.6482 -0.1114  0.5597
   49ccc     H8 1128   2.915   3.034   4.717  0.3387 -0.5414  0.9038
   49ccc     O1 1129   3.012   2.822   4.659  0.3832  0.0620 -0.5929
   50ccc     C1 1130   5.381   2.042   6.031 -0.5827 -0.2845 -0.3732
   50ccc     H1 1131   5.472   2.077   5.981 -0.4269  1.0808  0.7914
   50ccc     H2 1132   5.341   2.127   6.088  0.8275  0.1209  0.0547
   50ccc     C2 1133   5.279   1.990   5.929  0.1662 -0.3147 -0.0837
   50ccc     H3 1134   5.314   1.906   5.868 -0.9702 -2.3094  1.8609
   50ccc     H4 1135   5.199   1.948   5.992  0.7440 -2.4304 -0.6842
   50ccc     C3 1136   5.232   2.114   5.846 -0.2606  0.5599 -0.0171
   50ccc     H5 1137   5.318   2.159   5.796  0.2058 -0.6440 -0.3386
   50ccc     H6 1138   5.207   2.194   5.917 -1.2459 -0.0782  0.3751
   50ccc     N1 1139   5.402   1.941   6.138  0.5712  0.0388  0.1228
   50ccc     H7 1140   5.439   1.985   6.222  0.5604  0.9503 -0.3334
   50ccc     H8 1141   5.308   1.915   6.169  0.5298  0.3402  0.2462
   50ccc     O1 1142   5.116   2.087   5.762  0.1304 -0.2892 -0.4114
   51ccc     C1 1143   4.708   1.220   5.296  0.0428 -1.0007  0.4145
   51ccc     H1 1144   4.600   1.206   5.288 -0.0304 -0.4477  0.3715
   51ccc     H2 1145   4.725   1.305   5.229 -2.4063 -1.2119 -0.5879
   51ccc     C2 1146   4.757   1.248   5.437 -0.1052 -0.4129 -0.1609
   51ccc     H3 1147   4.673   1.296   5.489  0.4296  1.7344 -1.1876
   51ccc     H4 1148   4.787   1.158   5.493  0.1194  0.5566  1.3397
   51ccc     C3 1149   4.885   1.347   5.443  0.4210  0.6506  0.4815
   51ccc     H5 1150   4.964   1.316   5.373  1.0433  0.1623  1.3819
   51ccc     H6 1151   4.933   1.341   5.542  1.5418 -1.2839 -0.1233
   51ccc     N1 1152   4.771   1.107   5.237 -0.3450  0.4129  0.1982
   51ccc     H7 1153   4.733   1.097   5.143 -1.1424  2.7042  0.2240
   51ccc     H8 1154   4.864   1.143   5.219  0.7191 -1.0699  2.3011
   51ccc     O1 1155   4.835   1.479   5.419  0.4308 -0.1833 -0.1716
   52ccc     C1 1156   4.847   2.128   6.898  0.6522  0.9736 -0.5848
   52ccc     H1 1157   4.789   2.217   6.924 -1.7839 -0.7641  0.2309
   52ccc     H2 1158   4.854   2.071   6.991 -0.8723 -0.6611 -1.4363
   52ccc     C2 1159   4.793   2.058   6.769  0.0609 -0.2128  0.6007
   52ccc     H3 1160   4.835   1.957   6.757 -2.3901 -1.3988  1.1842
   52ccc     H4 1161   4.686   2.036   6.783 -0.6738  3.6396  2.4611
   52ccc     C3 1162   4.796   2.155   6.645 -0.1261 -0.1840 -0.5736
   52ccc     H5 1163   4.757   2.095   6.561 -1.4662 -2.0177  1.2685
   52ccc     H6 1164   4.903   2.176   6.631  0.4053 -0.6434  2.2374
   52ccc     N1 1165   4.971   2.181   6.871  0.2705 -1.1744 -0.4181
   52ccc     H7 1166   4.976   2.250   6.946 -0.7783 -0.1476 -1.2511
   52ccc     H8 1167   4.956   2.232   6.784 -0.3111 -1.2522 -0.3698
   52ccc     O1 1168   4.711   2.265   6.686 -0.2711 -0.3526 -0.3831
   53ccc     C1 1169   3.914   3.022   6.073 -0.1332 -0.2906 -0.3058
   53ccc     H1 1170   3.992   3.099   6.072  0.3100 -0.7371 -0.9514
   53ccc     H2 1171   3.880   2.971   5.982 -1.0375 -0.7811  0.2920
   53ccc     C2 1172   3.962   2.919   6.167 -0.3584  0.2308  0.6943
   53ccc     H3 1173   3.992   2.982   6.252  0.9920  1.8979 -0.9235
   53ccc     H4 1174   3.888   2.843   6.194  0.7123 -0.9097  0.4995
   53ccc     C3 1175   4.082   2.851   6.108  0.8115  0.2341  0.2747
   53ccc     H5 1176   4.151   2.922   6.060  0.0969  0.6460 -0.1651
   53ccc     H6 1177   4.044   2.781   6.033  1.4888  0.2391 -0.0879
   53ccc     N1 1178   3.789   3.074   6.134 -0.2109  0.2698  0.1876
   53ccc     H7 1179   3.756   3.138   6.061  1.2042  0.0074 -0.7177
   53ccc     H8 1180   3.721   2.999   6.138 -0.1147 -0.0634 -2.3620
   53ccc     O1 1181   4.140   2.760   6.200  0.2595 -0.0635 -0.2890
   54ccc     C1 1182   2.988   1.524   4.706  0.2972  0.3988 -0.0161
   54ccc     H1 1183   3.023   1.428   4.666 -0.2752  0.9570 -1.9300
   54ccc     H2 1184   2.886   1.540   4.672  1.0782  3.9875 -1.0279
   54ccc     C2 1185   3.004   1.535   4.855  0.1555 -0.3245  0.2258
   54ccc     H3 1186   2.977   1.436   4.893  0.4099 -0.2222  0.6821
   54ccc     H4 1187   3.109   1.551   4.883  0.7586 -1.5636 -1.2155
   54ccc     C3 1188   2.918   1.648   4.923 -0.3376  0.8069  0.0139
   54ccc     H5 1189   2.945   1.660   5.029 -0.9592 -0.3393  0.3264
   54ccc     H6 1190   2.809   1.639   4.918 -0.4519  2.3872 -0.6938
   54ccc     N1 1191   3.070   1.616   4.630  0.2407 -0.4380  0.1617
   54ccc     H7 1192   3.061   1.702   4.684 -1.0070 -0.0439 -0.6388
   54ccc     H8 1193   3.166   1.586   4.648  0.4205 -2.0471 -2.7140
   54ccc     O1 1194   2.945   1.771   4.862 -0.2848 -0.0165  0.5469
   55ccc     C1 1195   2.951   2.688   4.169  0.8183  0.5677 -0.4868
   55ccc     H1 1196   3.056   2.655   4.165  0.3762 -0.7266 -2.8002
   55ccc     H2 1197   2.883   2.640   4.098 -0.9055  1.2881  0.6247
   55ccc     C2 1198   2.901   2.631   4.307  0.0629 -1.1475  0.4859
   55ccc     H3 1199   2.992   2.619   4.369  0.2898 -1.5394  0.0794
   55ccc     H4 1200   2.834   2.705   4.352  2.3156  0.7125  1.0261
   55ccc     C3 1201   2.844   2.495   4.291  0.8089  0.4647 -0.1594
   55ccc     H5 1202   2.918   2.426   4.246  1.0117  0.3975  0.2694
   55ccc     H6 1203   2.751   2.493   4.233  1.0838  1.7469 -0.6675
   55ccc     N1 1204   2.932   2.833   4.154 -0.0948 -0.4918  0.1492
   55ccc     H7 1205   2.964   2.848   4.058 -0.1143  0.7069  0.3200
   55ccc     H8 1206   2.833   2.855   4.154 -0.0869 -0.3802  1.5857
   55ccc     O1 1207   2.809   2.445   4.419  0.0570  0.3960  0.1037
   56ccc     C1 1208   2.965   3.286   6.297 -0.1328 -0.3970 -0.0606
   56ccc     H1 1209   2.937   3.181   6.283  1.9243 -0.7069 -2.6618
   56ccc     H2 1210   2.883   3.348   6.336 -0.4274 -0.3281 -0.7787
   56ccc     C2 1211   3.095   3.282   6.385  0.0144 -0.3639  0.3974
   56ccc     H3 1212   3.139   3.382   6.385 -0.0965 -0.3149  0.2118
   56ccc     H4 1213   3.077   3.250   6.489 -2.7027  0.1267  0.1659
   56ccc     C3 1214   3.209   3.189   6.328  0.1516 -0.0838 -0.8012
   56ccc     H5 1215   3.172   3.090   6.298  2.0553 -1.1975  0.3241
   56ccc     H6 1216   3.279   3.185   6.413 -2.2251  1.8264  1.3882
   56ccc     N1 1217   2.995   3.349   6.172 -0.3172  0.0081  0.8676
   56ccc     H7 1218   3.083   3.308   6.141 -0.5226  1.0112 -1.2079
   56ccc     H8 1219   2.925   3.315   6.107 -1.7251  1.4980  1.5344
   56ccc     O1 1220   3.274   3.242   6.205 -0.0914  0.0975 -0.0358
   57ccc     C1 1221   4.229   3.579   5.727 -0.4131 -0.1810  0.4649
   57ccc     H1 1222   4.135   3.633   5.709 -0.0561  0.1455 -0.5149
   57ccc     H2 1223   4.258   3.603   5.830 -0.4564 -1.9815  0.9339
   57ccc     C2 1224   4.196   3.423   5.727  0.2948 -0.5503 -0.2188
   57ccc     H3 1225   4.146   3.401   5.631  0.7537 -2.6945 -0.0083
   57ccc     H4 1226   4.285   3.362   5.709  0.8709 -0.4155  1.9494
   57ccc     C3 1227   4.128   3.377   5.857  0.0274  0.7334 -0.3938
   57ccc     H5 1228   4.164   3.428   5.947 -1.7704 -0.0794  0.8331
   57ccc     H6 1229   4.138   3.273   5.889  0.5445  1.0135  0.3819
   57ccc     N1 1230   4.334   3.631   5.640 -0.1719  0.1060  0.2633
   57ccc     H7 1231   4.338   3.730   5.666 -0.5407  0.7585 -1.9625
   57ccc     H8 1232   4.413   3.586   5.685  1.4448  1.2797 -1.2869
   57ccc     O1 1233   3.988   3.398   5.842 -0.3179 -0.1469 -0.5979
   58ccc     C1 1234   4.192   2.076   4.319 -0.0953  0.3723 -0.8700
   58ccc     H1 1235   4.187   1.968   4.339  2.4026  0.4034  0.4310
   58ccc     H2 1236   4.114   2.109   4.250 -0.3665 -2.2553 -1.9357
   58ccc     C2 1237   4.164   2.139   4.459  0.4564 -0.3880 -0.0286
   58ccc     H3 1238   4.060   2.116   4.483  0.2995  1.1652  0.9403
   58ccc     H4 1239   4.231   2.097   4.535  0.4187  0.5980  0.5655
   58ccc     C3 1240   4.193   2.287   4.465  0.4249  0.2573  0.0687
   58ccc     H5 1241   4.160   2.335   4.373  1.7587  0.5076 -0.3044
   58ccc     H6 1242   4.303   2.296   4.470  0.3189  1.2184  2.4757
   58ccc     N1 1243   4.329   2.109   4.273  0.0049 -0.3549  0.2912
   58ccc     H7 1244   4.391   2.068   4.343  0.7049 -0.0297 -0.1248
   58ccc     H8 1245   4.339   2.053   4.189 -0.0457 -1.6421  1.1123
   58ccc     O1 1246   4.142   2.338   4.587  0.3689  0.6278  0.2567
   59ccc     C1 1247   3.787   3.443   4.882 -0.0353 -0.5432  0.0458
   59ccc     H1 1248   3.742   3.470   4.785 -0.2719 -1.1100 -0.0070
   59ccc     H2 1249   3.715   3.404   4.955  1.7149  1.4959  3.0842
   59ccc     C2 1250   3.895   3.337   4.869  0.1105 -0.2034  0.4142
   59ccc     H3 1251   3.987   3.378   4.827 -1.3478  1.7586 -1.1058
   59ccc     H4 1252   3.905   3.293   4.969 -0.9546 -0.2312  0.5272
   59ccc     C3 1253   3.852   3.215   4.793 -0.2227 -0.1250  0.3004
   59ccc     H5 1254   3.942   3.152   4.781 -0.6171 -0.6310 -0.0718
   59ccc     H6 1255   3.832   3.242   4.688  2.3201  1.3873  0.1199
   59ccc     N1 1256   3.847   3.570   4.940  0.1639  0.9962  0.3398
   59ccc     H7 1257   3.881   3.614   4.855 -1.1773  3.0815  0.8269
   59ccc     H8 1258   3.763   3.626   4.953 -0.6382  0.5954 -2.4016
   59ccc     O1 1259   3.745   3.140   4.859 -0.0643 -0.1749 -0.0776
   60ccc     C1 1260   3.758   3.281   5.358 -0.1384  0.4085  0.2204
   60ccc     H1 1261   3.696   3.275   5.449  0.7111  0.3809  0.8123
   60ccc     H2 1262   3.860   3.247   5.382 -0.1772  0.8130  0.9956
   60ccc     C2 1263   3.707   3.192   5.241 -0.3980 -0.6868  0.2050
   60ccc     H3 1264   3.598   3.199   5.239 -0.3550  0.0485 -2.0124
   60ccc     H4 1265   3.740   3.230   5.144  3.8060  0.6646  1.9327
   60ccc     C3 1266   3.737   3.043   5.278 -0.3229  0.4454  0.4720
   60ccc     H5 1267   3.661   2.987   5.222 -0.2041  1.1203 -0.3844
   60ccc     H6 1268   3.702   3.020   5.380  0.0596 -1.8208  0.1450
   60ccc     N1 1269   3.761   3.418   5.296  0.4131 -0.0251 -0.2293
   60ccc     H7 1270   3.817   3.426   5.211 -1.1302  5.8247 -1.1287
   60ccc     H8 1271   3.668   3.433   5.257  0.4022  0.1026 -0.1545
   60ccc     O1 1272   3.874   2.998   5.263 -0.2312  0.3237 -0.0652
   61ccc     C1 1273   4.153   3.071   5.509 -0.1845  0.0530  0.2420
   61ccc     H1 1274   4.238   3.129   5.546  0.2213 -0.8122  0.6762
   61ccc     H2 1275   4.188   2.968   5.504  0.0090  0.1625 -1.1495
   61ccc     C2 1276   4.037   3.081   5.615 -0.4149  0.1377 -0.1424
   61ccc     H3 1277   3.996   3.182   5.620 -1.0938 -0.0202 -1.7887
   61ccc     H4 1278   3.951   3.028   5.574 -0.5016 -0.8089  1.1807
   61ccc     C3 1279   4.070   3.041   5.754 -0.8277 -0.1293  0.4314
   61ccc     H5 1280   3.989   3.075   5.820 -0.9915 -0.5722  0.4576
   61ccc     H6 1281   4.160   3.098   5.781 -1.0383  1.1063 -1.2775
   61ccc     N1 1282   4.112   3.123   5.378 -0.3059 -0.7736  0.1766
   61ccc     H7 1283   4.194   3.136   5.319  0.9994  1.4571  2.2923
   61ccc     H8 1284   4.055   3.057   5.326 -0.8168 -0.3307  0.1606
   61ccc     O1 1285   4.086   2.895   5.757  0.2828 -0.3490  0.6280
   62SOL     OW 1286   8.515   5.285   8.297 -0.1700 -0.1307 -0.2588
   62SOL    HW1 1287   8.516   5.275   8.393  0.8365  1.0463 -0.1243
   62SOL    HW2 1288   8.509   5.195   8.264  0.9240 -0.6631  0.9013
   63SOL     OW 1289   7.567   8.295   1.898 -0.1435  0.1895  0.1130
   63SOL    HW1 1290   7.525   8.325   1.979 -2.1800 -0.3906 -0.6804
   63SOL    HW2 1291   7.508   8.227   1.864  1.5143 -0.7591 -1.0182
   64SOL     OW 1292   1.059   8.529   5.391  0.3871 -0.3326 -0.4894
   64SOL    HW1 1293   0.991   8.596   5.392  0.1192 -0.5880 -1.4419
   64SOL    HW2 1294   1.011   8.446   5.388  0.6953 -0.6310  1.2904
   65SOL     OW 1295   6.971   2.322   3.716 -0.1420  0.0468 -0.1460
   65SOL    HW1 1296   7.031   2.335   3.642  0.9225 -2.5673  0.1524
   65SOL    HW2 1297   6.920   2.245   3.691 -2.1995  1.1635  0.4061
   66SOL     OW 1298   5.489   4.586   7.614 -0.2470 -0.5152  0.1297
   66SOL    HW1 1299   5.406   4.599   7.567  0.0166  0.2073 -0.1477
   66SOL    HW2 1300   5.552   4.638   7.566 -0.2013  1.2117  1.9380
   67SOL     OW 1301   4.213   2.749   3.991 -0.3823  0.0080  0.6942
   67SOL    HW1 1302   4.284   2.766   3.928 -1.0271  0.6745  0.1309
   67SOL    HW2 1303   4.258   2.719   4.070  0.3850 -3.2177 -0.7792
   68SOL     OW 1304   2.682   8.630   7.358  0.1298 -0.1838 -0.2601
   68SOL    HW1 1305   2.740   8.702   7.383 -0.1931  0.4528 -1.2915
   68SOL    HW2 1306   2.654   8.651   7.269  1.0701 -2.2403 -1.1131
   69SOL     OW 1307   7.847   8.261   7.642  0.0160 -0.0370 -0.4799
   69SOL    HW1 1308   7.917   8.279   7.706 -0.7812  0.2982  0.3169
   69SOL    HW2 1309   7.822   8.347   7.609  1.8004 -0.3222 -2.8020
   70SOL     OW 1310   5.607   4.970   0.087 -0.1210 -0.2330  0.5067
   70SOL    HW1 1311   5.552   5.033   0.135  0.2120  0.5411 -0.1218
   70SOL    HW2 1312   5.576   4.885   0.118 -1.6592  0.1814  0.2089
   71SOL     OW 1313   0.620   2.357   5.060 -0.2676  0.2702  0.2415
   71SOL    HW1 1314   0.594   2.278   5.012  0.5797 -0.3551  0.7825
   71SOL    HW2 1315   0.567   2.427   5.022  0.2414 -0.2310 -1.4978
   72SOL     OW 1316   6.481   6.064   6.518 -0.4205  0.7568  0.6777
   72SOL    HW1 1317   6.549   6.022   6.466 -1.0499  0.4105  0.1119
   72SOL    HW2 1318   6.435   5.991   6.561  0.2422  1.0460  1.9477
   73SOL     OW 1319   8.280   6.517   2.296  0.0592  0.5618  0.4241
   73SOL    HW1 1320   8.375   6.519   2.283  0.0048 -0.5904 -0.3085
   73SOL    HW2 1321   8.262   6.429   2.328 -1.2888 -1.4811 -4.8637
   74SOL     OW 1322   7.462   7.868   2.709 -0.2399  0.2531  0.2611
   74SOL    HW1 1323   7.494   7.809   2.777 -1.9972 -0.2026  0.7476
   74SOL    HW2 1324   7.394   7.920   2.753  2.4125  4.0157  0.3857
   75SOL     OW 1325   5.600   1.292   0.779 -0.0641  0.0332 -0.2055
   75SOL    HW1 1326   5.588   1.382   0.752  1.3927  0.4068  0.2587
   75SOL    HW2 1327   5.623   1.245   0.699  0.4489  0.3465 -0.2456
   76SOL     OW 1328   7.965   2.376   2.764 -0.3190 -0.3052  0.4590
   76SOL    HW1 1329   7.932   2.463   2.739  0.6006  0.2831  1.2230
   76SOL    HW2 1330   7.907   2.347   2.834  0.5074  0.5638  1.5447
   77SOL     OW 1331   6.308   7.683   3.534  0.0181 -0.3229 -0.0147
   77SOL    HW1 1332   6.387   7.720   3.495  1.7252 -2.1347  1.5093
   77SOL    HW2 1333   6.285   7.744   3.604  2.2498 -1.5180  1.8761
   78SOL     OW 1334   7.174   0.193   4.100 -0.1623  0.5546  0.0224
   78SOL    HW1 1335   7.231   0.269   4.106  0.6946 -0.0511 -0.2877
   78SOL    HW2 1336   7.088   0.226   4.126  0.3723  1.4188  0.7804
   79SOL     OW 1337   1.083   5.118   2.738  0.5129  0.0851  0.3865
   79SOL    HW1 1338   1.020   5.188   2.754  1.1863  0.6941  0.4084
   79SOL    HW2 1339   1.061   5.086   2.650 -1.1336 -1.1145  1.1681
   80SOL     OW 1340   8.019   2.843   8.377 -0.0636  0.0691  0.1835
   80SOL    HW1 1341   8.093   2.904   8.380 -0.9842  1.2295  2.6114
   80SOL    HW2 1342   8.049   2.767   8.426 -0.4051  0.4986  1.0823
   81SOL     OW 1343   1.802   8.941   1.341  0.2156  0.4957 -0.8249
   81SOL    HW1 1344   1.867   8.876   1.315 -0.3477  0.1578 -1.4085
   81SOL    HW2 1345   1.741   8.946   1.267 -1.1762 -0.1649  0.2340
   82SOL     OW 1346   8.274   1.214   0.221 -0.0862 -0.2562 -0.7464
   82SOL    HW1 1347   8.229   1.268   0.285  3.3378 -0.2929  2.0238
   82SOL    HW2 1348   8.235   1.127   0.231 -1.2602  0.2766 -0.5478
   83SOL     OW 1349   4.085   1.011   7.263  0.5836 -0.2859 -0.0319
   83SOL    HW1 1350   4.105   0.931   7.312  0.3288  0.0150  0.5822
   83SOL    HW2 1351   4.154   1.072   7.288  0.7571 -0.2992 -0.4713
   84SOL     OW 1352   4.138   7.058   0.644 -0.0089 -0.7886  0.6252
   84SOL    HW1 1353   4.062   7.037   0.698 -1.4982  0.2814 -0.9436
   84SOL    HW2 1354   4.127   7.006   0.565 -1.4287  2.2770 -1.4059
   85SOL     OW 1355   7.777   8.052   7.857 -0.0655  0.2185 -0.0928
   85SOL    HW1 1356   7.722   8.103   7.916 -1.2326 -1.3761  0.2706
   85SOL    HW2 1357   7.788   8.107   7.780 -0.9363  1.1687  0.4397
   86SOL     OW 1358   2.909   3.943   2.840 -0.4676 -0.1283  0.0481
   86SOL    HW1 1359   2.980   3.897   2.795 -1.0962  0.5379 -1.7352
   86SOL    HW2 1360   2.897   3.896   2.922  1.1452 -1.0543 -0.2195
   87SOL     OW 1361   8.242   6.232   5.904 -0.3188 -0.7491  0.0659
   87SOL    HW1 1362   8.219   6.311   5.854 -1.0159 -2.4236 -2.4523
   87SOL    HW2 1363   8.328   6.208   5.871  0.5841 -0.2582  1.9463
   88SOL     OW 1364   3.333   7.157   3.692  0.4191  0.1017 -0.3826
   88SOL    HW1 1365   3.341   7.062   3.704 -1.6867 -0.2071 -1.0112
   88SOL    HW2 1366   3.359   7.194   3.776  1.5217 -0.9876 -0.1993
   89SOL     OW 1367   7.503   3.465   7.059 -0.0817  0.6804  0.6731
   89SOL    HW1 1368   7.505   3.389   7.117 -0.3483  1.1941  1.3604
   89SOL    HW2 1369   7.462   3.432   6.978 -0.3758  0.1431  1.0326
   90SOL     OW 1370   5.757   7.092   4.245 -0.3509 -0.1072  0.0824
   90SOL    HW1 1371   5.722   7.181   4.244 -0.7003 -0.2430 -0.2783
   90SOL    HW2 1372   5.786   7.078   4.335  0.8803  0.8223 -0.1425
   91SOL     OW 1373   6.043   4.543   6.954  0.0235  0.4044 -0.1419
   91SOL    HW1 1374   5.987   4.620   6.941 -2.1059 -1.2480 -1.3449
   91SOL    HW2 1375   5.994   4.471   6.915  2.3252 -1.4496  0.1915
   92SOL     OW 1376   1.374   6.792   4.409  0.4873  0.2204  0.1816
   92SOL    HW1 1377   1.309   6.855   4.438 -0.8486 -1.2497  0.5053
   92SOL    HW2 1378   1.401   6.822   4.322 -0.5021  0.9465  0.1198
   93SOL     OW 1379   7.849   0.055   3.084  0.4737 -0.1948  0.4601
   93SOL    HW1 1380   7.807   0.112   3.020 -0.3731 -2.7651 -1.4423
   93SOL    HW2 1381   7.789   0.054   3.159  0.4158  1.1687  0.4650
   94SOL     OW 1382   0.734   0.378   9.128  0.0898  0.4408 -0.2425
   94SOL    HW1 1383   0.739   0.307   9.064 -2.0685  0.5551 -0.5938
   94SOL    HW2 1384   0.642   0.383   9.152  0.6090  1.4169  1.7557
   95SOL     OW 1385   0.175   1.493   7.737 -0.3735  0.0727 -0.2936
   95SOL    HW1 1386   0.109   1.448   7.685 -0.5634  1.1467 -1.0106
   95SOL    HW2 1387   0.245   1.514   7.675 -0.1899  0.5561  0.0694
   96SOL     OW 1388   3.376   1.506   1.956  0.0887  0.0944 -0.1140
   96SOL    HW1 1389   3.286   1.530   1.978 -0.0259 -0.6073  0.2254
   96SOL    HW2 1390   3.368   1.449   1.879  0.1065 -1.2115  0.8294
   97SOL     OW 1391   5.113   1.341   1.263  0.5636  0.4252  0.1412
   97SOL    HW1 1392   5.117   1.246   1.257 -0.1838  0.3684  0.4431
   97SOL    HW2 1393   5.087   1.359   1.354 -0.2941  0.8730 -0.1721
   98SOL     OW 1394   4.800   0.615   0.169 -0.2807  0.1458 -0.2981
   98SOL    HW1 1395   4.742   0.577   0.235 -1.0986  0.0226 -1.0723
   98SOL    HW2 1396   4.887   0.581   0.191 -0.7540 -0.9651 -0.0729
   99SOL     OW 1397   2.024   6.781   2.855  0.2571 -0.0598 -0.4444
   99SOL    HW1 1398   1.953   6.722   2.879 -0.3879  1.0015  0.3624
   99SOL    HW2 1399   2.028   6.844   2.927  1.9656 -0.0397 -0.5228
  100SOL     OW 1400   5.359   3.436   6.724  0.0412 -0.4557 -0.0338
  100SOL    HW1 1401   5.316   3.350   6.717 -0.9145 -0.0172  0.2826
  100SOL    HW2 1402   5.287   3.498   6.735  0.8065  0.1999  1.5502
  101SOL     OW 1403   1.974   1.881   8.275  0.5089 -0.0236  0.3121
  101SOL    HW1 1404   1.933   1.866   8.360 -1.0394  0.8230 -0.2364
  101SOL    HW2 1405   1.942   1.967   8.248  1.1296 -0.1915 -1.0397
  102SOL     OW 1406   2.179   0.773   6.531 -0.5853 -0.1606 -0.9458
  102SOL    HW1 1407   2.162   0.782   6.437 -1.1371 -2.0911 -1.0883
  102SOL    HW2 1408   2.129   0.695   6.556 -0.8666  0.6156  1.0783
  103SOL     OW 1409   0.023   8.200   3.010  0.4863 -0.0859 -0.1368
  103SOL    HW1 1410  -0.010   8.136   3.073  0.4503  0.5152  0.4636
  103SOL    HW2 1411   0.080   8.257   3.061 -2.1679  2.5319  0.1535
  104SOL     OW 1412   7.030   8.590   0.856  0.1202 -0.0248  0.3126
  104SOL    HW1 1413   6.954   8.592   0.913 -2.0419  3.7021 -2.2787
  104SOL    HW2 1414   7.074   8.674   0.870  1.2887 -0.3032 -1.2526
  105SOL     OW 1415   4.497   4.172   8.953 -0.0627 -0.3065 -0.8091
  105SOL    HW1 1416   4.534   4.184   9.041  0.4192 -2.6917 -0.6088
  105SOL    HW2 1417   4.573   4.149   8.898 -0.8599 -3.5601 -0.7603
  106SOL     OW 1418   4.454   4.254   7.210 -0.0798 -0.3294  0.0481
  106SOL    HW1 1419   4.427   4.271   7.120 -0.5017  1.9449  0.5579
  106SOL    HW2 1420   4.550   4.260   7.208  0.1222 -2.7447 -0.6625
  107SOL     OW 1421   2.822   8.608   1.927  0.0763  0.0849 -0.3977
  107SOL    HW1 1422   2.871   8.635   1.850  0.3502  1.7014  0.3106
  107SOL    HW2 1423   2.770   8.684   1.952  1.2324  0.1914  1.9479
  108SOL     OW 1424   1.184   5.114   3.555 -0.5257 -0.4428 -0.1934
  108SOL    HW1 1425   1.225   5.199   3.572  0.5674  0.0142 -4.0459
  108SOL    HW2 1426   1.230   5.052   3.611  0.2305  1.1439  1.0166
  109SOL     OW 1427   2.645   8.263   4.402 -0.2126 -0.1350  0.6736
  109SOL    HW1 1428   2.728   8.258   4.355 -1.3245  0.1357 -1.4212
  109SOL    HW2 1429   2.639   8.353   4.432  0.0377 -0.0348  0.4254
  110SOL     OW 1430   7.561   6.470   0.144  0.3402 -0.4665  0.0632
  110SOL    HW1 1431   7.597   6.488   0.231 -0.8629  0.2614  0.4388
  110SOL    HW2 1432   7.524   6.382   0.152  0.0100 -0.3034  0.3816
  111SOL     OW 1433   0.540   0.245   3.404  0.3378  0.1055  0.2434
  111SOL    HW1 1434   0.632   0.247   3.375  1.0208  0.7510  2.2813
  111SOL    HW2 1435   0.544   0.209   3.493 -1.2574  1.1944  0.7883
  112SOL     OW 1436   4.933   5.326   7.656 -0.5516 -0.6045 -0.1609
  112SOL    HW1 1437   4.917   5.254   7.717 -0.4063 -0.9069 -0.4763
  112SOL    HW2 1438   4.845   5.357   7.633 -0.6296 -0.9799 -0.3760
  113SOL     OW 1439   2.167   5.195   2.529  0.2998 -0.3795 -0.1865
  113SOL    HW1 1440   2.260   5.208   2.543 -0.1540  1.8613  1.3620
  113SOL    HW2 1441   2.153   5.217   2.437  1.3572 -1.3298 -0.5910
  114SOL     OW 1442   6.586   5.782   8.895  0.3469 -0.5986 -0.3653
  114SOL    HW1 1443   6.665   5.807   8.943  1.0518 -0.5180 -1.5222
  114SOL    HW2 1444   6.515   5.827   8.940  1.1699  0.6704 -0.2774
  115SOL     OW 1445   7.551   3.406   6.474  0.1597  0.1523  0.5784
  115SOL    HW1 1446   7.487   3.346   6.434  0.5654 -1.0522  1.6531
  115SOL    HW2 1447   7.540   3.488   6.426 -1.3405 -0.3865 -0.0791
  116SOL     OW 1448   2.557   8.260   1.927  0.0532 -0.6761  0.3808
  116SOL    HW1 1449   2.472   8.217   1.914  0.4344 -1.4715  0.4721
  116SOL    HW2 1450   2.537   8.354   1.925 -1.4438 -0.7470  3.8961
  117SOL     OW 1451   5.433   6.899   3.696  0.1914  0.1494  0.2273
  117SOL    HW1 1452   5.461   6.970   3.754 -0.6190  2.1558 -1.6447
  117SOL    HW2 1453   5.366   6.852   3.744  0.3044  1.0633  1.3082
  118SOL     OW 1454   9.024   6.679   5.151  0.4014  0.1978  0.3344
  118SOL    HW1 1455   9.056   6.693   5.062  0.5868 -0.3644  0.3083
  118SOL    HW2 1456   9.102   6.684   5.206  0.2640  0.7041  0.4862
  119SOL     OW 1457   2.423   5.166   6.204  0.1877  0.2595  0.7096
  119SOL    HW1 1458   2.411   5.247   6.154 -1.3096  0.3085  1.1048
  119SOL    HW2 1459   2.372   5.179   6.284  1.4432 -0.3583  1.6413
  120SOL     OW 1460   8.017   3.346   3.229  0.4030  0.8136 -0.7261
  120SOL    HW1 1461   8.096   3.294   3.218  1.5877  1.9387  1.6560
  120SOL    HW2 1462   8.047   3.437   3.225 -0.8636  1.2662 -0.4752
  121SOL     OW 1463   6.934   3.634   3.951  0.0815 -0.2594 -0.3277
  121SOL    HW1 1464   6.965   3.603   3.866  0.8489 -0.1995 -0.0800
  121SOL    HW2 1465   6.998   3.600   4.013 -1.1059 -1.2888  0.3774
  122SOL     OW 1466   6.896   7.518   3.912  0.0504  0.0657  0.9765
  122SOL    HW1 1467   6.812   7.562   3.894 -0.0160  0.1106  1.3664
  122SOL    HW2 1468   6.962   7.585   3.896  0.0894 -0.2834 -0.3724
  123SOL     OW 1469   0.062   4.444   0.085 -0.1753  0.2378  0.4974
  123SOL    HW1 1470   0.030   4.491   0.162 -0.6645  1.7560 -0.5768
  123SOL    HW2 1471   0.121   4.506   0.042  3.6319 -2.0961  1.8768
  124SOL     OW 1472   5.790   2.670   3.135 -0.1762 -0.0495  0.6883
  124SOL    HW1 1473   5.874   2.645   3.174  0.5715  2.9855  1.2724
  124SOL    HW2 1474   5.810   2.686   3.043 -0.0556  0.7986  0.8544
  125SOL     OW 1475   4.190   7.413   7.970 -0.3771  0.4156  0.2153
  125SOL    HW1 1476   4.202   7.508   7.973 -3.9173  1.0096  0.1110
  125SOL    HW2 1477   4.279   7.378   7.971  1.0621  3.6430  1.8563
  126SOL     OW 1478   0.032   8.300   7.552 -0.0890 -0.8830 -0.1354
  126SOL    HW1 1479   0.033   8.395   7.563 -1.7866 -0.8534  0.1305
  126SOL    HW2 1480  -0.054   8.282   7.514  0.3978 -2.2763 -0.6192
  127SOL     OW 1481   1.147   8.821   8.261  0.2856  0.1696 -0.3929
  127SOL    HW1 1482   1.161   8.893   8.200 -0.2627 -0.3075 -1.0917
  127SOL    HW2 1483   1.235   8.788   8.280  0.6866  1.8869  1.0339
  128SOL     OW 1484   6.893   5.337   0.160  0.5138  0.5619 -0.0320
  128SOL    HW1 1485   6.940   5.388   0.226  1.9400 -0.6001 -0.0983
  128SOL    HW2 1486   6.874   5.401   0.091  1.3125  1.2411  0.3524
  129SOL     OW 1487   1.410   3.078   8.973  0.3491  0.4111  0.6393
  129SOL    HW1 1488   1.337   3.045   9.025 -0.4981 -1.0667 -1.3595
  129SOL    HW2 1489   1.392   3.171   8.961  0.4683  0.7474  2.7249
  130SOL     OW 1490   8.848   7.559   3.437  0.6838  0.5314  0.3466
  130SOL    HW1 1491   8.769   7.579   3.486 -1.1008 -1.7426 -1.3566
  130SOL    HW2 1492   8.915   7.542   3.504 -1.0296 -0.2413  1.9431
  131SOL     OW 1493   0.753   5.685   5.841  0.7836  0.1739 -0.0644
  131SOL    HW1 1494   0.743   5.627   5.917 -0.3262 -0.3475 -0.5771
  131SOL    HW2 1495   0.780   5.626   5.770  0.3630  0.4010 -0.4194
  132SOL     OW 1496   8.370   5.289   0.148 -0.0082  0.4553  0.3559
  132SOL    HW1 1497   8.404   5.377   0.165  2.5598 -0.4086  0.0746
  132SOL    HW2 1498   8.377   5.244   0.232  1.3543 -0.2730 -0.1198
  133SOL     OW 1499   7.068   5.116   6.556 -0.2547 -0.0361  0.2999
  133SOL    HW1 1500   7.056   5.075   6.641 -1.2018 -0.9924 -0.2821
  133SOL    HW2 1501   7.051   5.209   6.572  0.2788 -0.0957  1.2866
  134SOL     OW 1502   1.405   6.593   5.186 -0.1572  0.6380 -0.2757
  134SOL    HW1 1503   1.442   6.512   5.223  0.1654  1.2007  0.6526
  134SOL    HW2 1504   1.413   6.657   5.256 -1.1810  1.2694 -0.7227
  135SOL     OW 1505   2.176   7.498   6.688 -0.0024  0.8432 -0.0699
  135SOL    HW1 1506   2.141   7.449   6.613 -1.1596 -1.5169  1.8461
  135SOL    HW2 1507   2.255   7.450   6.713 -1.4349 -0.5963  2.1651
  136SOL     OW 1508   6.517   3.375   0.296  0.1940 -0.1825  0.3138
  136SOL    HW1 1509   6.433   3.420   0.300  0.9824  1.3120  1.5106
  136SOL    HW2 1510   6.495   3.282   0.292 -1.5074  0.2375 -1.3846
  137SOL     OW 1511   7.854   4.929   0.755  0.0968  0.6320  0.6110
  137SOL    HW1 1512   7.785   4.925   0.821 -0.0181 -2.4434  0.4790
  137SOL    HW2 1513   7.897   4.844   0.761  2.5030  1.6569 -0.7925
  138SOL     OW 1514   7.753   3.532   5.486  0.2935  0.1778 -0.0155
  138SOL    HW1 1515   7.848   3.546   5.490  0.7748 -1.8360 -2.1193
  138SOL    HW2 1516   7.729   3.554   5.397 -1.2061  0.4151  0.4228
  139SOL     OW 1517   7.022   2.366   1.132  0.0483  0.0597  0.1320
  139SOL    HW1 1518   7.073   2.430   1.082 -1.4484  0.5744 -0.7975
  139SOL    HW2 1519   6.985   2.416   1.204 -0.1328 -0.0473  0.1126
  140SOL     OW 1520   2.707   4.493   2.537  0.2466 -0.3928  1.0295
  140SOL    HW1 1521   2.628   4.444   2.559 -0.6455  0.7004  0.3392
  140SOL    HW2 1522   2.687   4.583   2.560  0.1207  0.4285 -1.8777
  141SOL     OW 1523   2.151   0.239   5.300  0.4409  0.7513  0.4309
  141SOL    HW1 1524   2.235   0.245   5.255  0.4912 -0.2703  0.3744
  141SOL    HW2 1525   2.129   0.146   5.297 -0.3537  0.9138  1.0644
  142SOL     OW 1526   2.101   8.169   6.822 -0.6906  0.4074 -0.3606
  142SOL    HW1 1527   2.138   8.255   6.801 -1.5369  0.8941  0.0962
  142SOL    HW2 1528   2.007   8.185   6.832 -0.6581 -0.2567  1.3170
  143SOL     OW 1529   4.161   6.139   0.581 -0.2590  0.1896 -0.0964
  143SOL    HW1 1530   4.094   6.084   0.622  1.3777 -1.6718  0.2288
  143SOL    HW2 1531   4.169   6.214   0.640 -0.7632 -0.4753  0.8576
  144SOL     OW 1532   1.732   2.410   1.538 -0.1045  0.1933  0.8202
  144SOL    HW1 1533   1.695   2.326   1.567 -1.0220  1.0338  2.1871
  144SOL    HW2 1534   1.667   2.445   1.477 -1.0439  1.0988  2.2791
  145SOL     OW 1535   7.953   8.552   2.436  0.0685 -0.2383  0.2014
  145SOL    HW1 1536   8.035   8.589   2.403 -0.7894 -1.0457 -3.1853
  145SOL    HW2 1537   7.931   8.606   2.511  1.0086  3.4639 -1.9485
  146SOL     OW 1538   3.961   4.140   0.966  0.2369  0.2394  0.1999
  146SOL    HW1 1539   3.977   4.178   0.880  1.4536  0.9322  0.7085
  146SOL    HW2 1540   4.038   4.164   1.018 -0.4958 -0.1204  1.4994
  147SOL     OW 1541   0.181   0.930   0.113  0.2263  0.4446  0.8597
  147SOL    HW1 1542   0.112   0.879   0.154  0.1776 -0.2827 -0.0928
  147SOL    HW2 1543   0.259   0.875   0.122  0.6571  1.1640  1.7337
  148SOL     OW 1544   6.179   8.560   8.196 -0.6448 -0.4556 -0.3800
  148SOL    HW1 1545   6.093   8.601   8.195 -0.4163  0.0344 -0.3755
  148SOL    HW2 1546   6.238   8.630   8.224 -0.3702 -1.0319  0.5236
  149SOL     OW 1547   0.739   5.316   1.634 -0.0456  0.1688 -0.3740
  149SOL    HW1 1548   0.735   5.334   1.540 -1.2838 -1.4136 -0.6692
  149SOL    HW2 1549   0.650   5.288   1.657  0.3705  0.0323  1.1554
  150SOL     OW 1550   1.158   1.570   5.791  0.3847 -0.1861  0.1496
  150SOL    HW1 1551   1.132   1.557   5.700  2.0843 -0.5464 -0.3270
  150SOL    HW2 1552   1.219   1.499   5.809 -0.8271 -0.8153  1.9717
  151SOL     OW 1553   8.749   3.579   4.816 -0.1498 -0.1126  0.3469
  151SOL    HW1 1554   8.772   3.524   4.891  1.0319  0.3345  0.3226
  151SOL    HW2 1555   8.822   3.639   4.806 -0.0173 -0.5019 -1.4937
  152SOL     OW 1556   8.176   8.649   2.090  0.0867 -0.0060 -0.0965
  152SOL    HW1 1557   8.181   8.649   2.186  0.5244 -1.4106 -0.0973
  152SOL    HW2 1558   8.082   8.656   2.071  0.0108  0.4839  0.4130
  153SOL     OW 1559   3.361   2.563   4.026 -0.0227  0.0874 -0.1242
  153SOL    HW1 1560   3.278   2.523   4.003  1.3880 -2.9053 -0.4983
  153SOL    HW2 1561   3.426   2.493   4.014  2.7558  2.5870 -1.1314
  154SOL     OW 1562   0.093   1.077   7.251  0.1051  0.4681 -0.1303
  154SOL    HW1 1563   0.054   1.158   7.218 -0.1136 -0.0315 -1.1558
  154SOL    HW2 1564   0.185   1.099   7.265  0.0836  0.8509 -0.5544
  155SOL     OW 1565   8.257   0.920   7.339  0.2675 -0.3513 -0.2541
  155SOL    HW1 1566   8.215   0.983   7.281 -1.3054 -0.8309  0.3301
  155SOL    HW2 1567   8.324   0.879   7.284 -0.8266 -0.4164 -1.5884
  156SOL     OW 1568   2.416   8.597   8.029 -0.2817 -0.1031  0.0103
  156SOL    HW1 1569   2.493   8.621   7.977  0.3387 -0.6818  0.6299
  156SOL    HW2 1570   2.435   8.509   8.060 -1.3395 -0.3719 -0.0614
  157SOL     OW 1571   3.556   0.077   5.172 -0.1755  0.1158 -0.1295
  157SOL    HW1 1572   3.486   0.087   5.237  0.1426  0.2975  0.1900
  157SOL    HW2 1573   3.548   0.155   5.117 -0.7751 -0.2956 -0.6318
  158SOL     OW 1574   6.865   4.839   1.984 -0.1262 -0.0754  0.1032
  158SOL    HW1 1575   6.944   4.890   1.965  1.4541 -1.9742  1.1099
  158SOL    HW2 1576   6.898   4.759   2.024 -2.5620 -1.2847 -0.1195
  159SOL     OW 1577   2.761   2.167   8.077 -0.2037 -0.1716 -0.3748
  159SOL    HW1 1578   2.846   2.210   8.068 -0.5225  0.2868 -1.3712
  159SOL    HW2 1579   2.729   2.159   7.987 -0.8254 -1.1393 -0.0826
  160SOL     OW 1580   2.872   6.018   5.114  0.1395  0.2461 -0.0856
  160SOL    HW1 1581   2.964   5.999   5.093  0.0999 -0.2882  0.2067
  160SOL    HW2 1582   2.852   5.960   5.187 -0.2562  0.7976  0.2503
  161SOL     OW 1583   7.548   0.453   8.301 -0.3178  0.5702  0.6477
  161SOL    HW1 1584   7.640   0.441   8.280 -0.6861  0.7405 -1.2694
  161SOL    HW2 1585   7.532   0.397   8.377  1.2693  0.2609  0.7691
  162SOL     OW 1586   3.600   3.809   3.485  0.3080 -0.4016 -0.0491
  162SOL    HW1 1587   3.651   3.755   3.545 -0.4970 -1.3065 -0.1531
  162SOL    HW2 1588   3.541   3.859   3.541 -0.6690 -1.4829 -0.0548
  163SOL     OW 1589   4.678   0.354   7.560  0.0641  0.1616 -0.4474
  163SOL    HW1 1590   4.720   0.440   7.563  0.5824 -0.0590 -1.1670
  163SOL    HW2 1591   4.627   0.350   7.641  0.9894  0.6654  0.1924
  164SOL     OW 1592   2.293   7.272   3.125 -0.2974  0.9132  0.4217
  164SOL    HW1 1593   2.330   7.258   3.038 -1.5803  3.2835 -0.5884
  164SOL    HW2 1594   2.199   7.285   3.110 -0.5106  1.6706  2.1108
  165SOL     OW 1595   7.129   7.881   8.154  0.6622 -0.2100 -0.0529
  165SOL    HW1 1596   7.059   7.825   8.186  1.3910 -0.4339  1.2260
  165SOL    HW2 1597   7.109   7.968   8.188  0.2351  0.0527 -0.9344
  166SOL     OW 1598   2.801   1.024   6.225  0.3841 -0.1115 -0.0174
  166SOL    HW1 1599   2.816   1.058   6.137 -0.1252 -0.5113 -0.2642
  166SOL    HW2 1600   2.867   0.956   6.236  1.4068  0.9474  0.4793
  167SOL     OW 1601   7.740   6.998   3.008 -0.0068 -0.0103  0.0598
  167SOL    HW1 1602   7.678   6.956   2.948  1.4349 -1.6183 -0.3782
  167SOL    HW2 1603   7.743   6.940   3.084  2.6339 -1.2546 -0.8953
  168SOL     OW 1604   7.822   0.283   2.345 -0.6505 -0.0942  0.5428
  168SOL    HW1 1605   7.807   0.263   2.438 -0.6167  0.6020  0.7005
  168SOL    HW2 1606   7.893   0.225   2.319 -0.7132 -0.3485  0.9329
  169SOL     OW 1607   8.556   7.457   0.979 -0.0835  0.3710  0.5218
  169SOL    HW1 1608   8.591   7.530   0.928  0.5098 -0.8563 -0.8986
  169SOL    HW2 1609   8.576   7.480   1.070  1.4386  1.2855 -0.0003
  170SOL     OW 1610   6.483   8.594   7.358  0.2129 -0.6031 -0.1664
  170SOL    HW1 1611   6.400   8.597   7.407 -0.1988  0.0420 -0.8894
  170SOL    HW2 1612   6.460   8.623   7.270  0.9123 -1.8903 -0.8033
  171SOL     OW 1613   6.171   0.634   6.871  0.0282 -0.8072 -0.3182
  171SOL    HW1 1614   6.143   0.720   6.841 -0.9806 -0.7546  0.6987
  171SOL    HW2 1615   6.267   0.637   6.867  0.0184  0.4562 -0.0794
  172SOL     OW 1616   2.172   7.513   5.952 -0.2796  0.4354 -0.5184
  172SOL    HW1 1617   2.188   7.419   5.947 -0.0936  0.4846 -0.8835
  172SOL    HW2 1618   2.151   7.529   6.044 -0.5875 -0.0050 -0.5078
  173SOL     OW 1619   0.387   0.659   2.801  0.1523 -0.2314 -0.1633
  173SOL    HW1 1620   0.422   0.652   2.890 -1.1423 -1.9981  0.2509
  173SOL    HW2 1621   0.455   0.621   2.745 -0.4963 -2.4364  0.4856
  174SOL     OW 1622   3.944   1.387   1.844  0.2033 -0.3658  0.1975
  174SOL    HW1 1623   3.907   1.460   1.895  0.1784  1.1289 -1.8507
  174SOL    HW2 1624   3.962   1.319   1.910 -0.3508  1.2271  2.1052
  175SOL     OW 1625   5.706   0.544   8.483  0.3171 -0.2521  0.2284
  175SOL    HW1 1626   5.637   0.594   8.527  1.4513  1.7901 -0.1579
  175SOL    HW2 1627   5.661   0.496   8.413 -0.7783  0.6733  0.2709
  176SOL     OW 1628   7.566   6.025   5.013  0.5849 -0.3301  0.1646
  176SOL    HW1 1629   7.658   6.017   5.039  0.6322  0.6342  0.3502
  176SOL    HW2 1630   7.569   6.041   4.918  0.4666 -2.7154 -0.3009
  177SOL     OW 1631   2.670   0.920   2.274  0.0788 -0.4319  0.4676
  177SOL    HW1 1632   2.752   0.968   2.261  0.1936 -0.5698  0.6834
  177SOL    HW2 1633   2.696   0.839   2.316  0.0597 -1.3785 -1.2663
  178SOL     OW 1634   3.783   5.429   8.892  0.2121 -0.0295  0.2124
  178SOL    HW1 1635   3.860   5.423   8.948  1.6785 -0.3055 -1.7343
  178SOL    HW2 1636   3.809   5.489   8.822 -2.0444  1.4240  0.5250
  179SOL     OW 1637   5.467   7.896   3.023 -0.0351  0.5161 -0.2561
  179SOL    HW1 1638   5.487   7.990   3.022  0.6309  0.3861  0.0575
  179SOL    HW2 1639   5.481   7.870   3.114  0.7349 -0.0829 -0.5339
  180SOL     OW 1640   4.475   6.792   0.682  0.0834 -0.0803  0.3618
  180SOL    HW1 1641   4.486   6.866   0.741 -2.3547 -0.5228  1.5160
  180SOL    HW2 1642   4.479   6.831   0.594  1.2098  1.0046  0.8656
  181SOL     OW 1643   0.895   5.742   6.917  0.0991  0.5390 -0.2474
  181SOL    HW1 1644   0.842   5.816   6.888  0.1916 -0.0287 -1.9910
  181SOL    HW2 1645   0.919   5.697   6.837  0.3066 -1.2196  0.7546
  182SOL     OW 1646   5.062   1.512   0.246 -0.4207 -0.5437  0.1022
  182SOL    HW1 1647   5.083   1.530   0.338  1.0226 -1.2923 -0.0491
  182SOL    HW2 1648   5.137   1.462   0.214  0.5054  2.0676 -2.2391
  183SOL     OW 1649   1.351   2.123   4.024 -0.0388 -0.1507 -0.0540
  183SOL    HW1 1650   1.414   2.052   4.016 -1.3163 -1.3365 -0.0088
  183SOL    HW2 1651   1.396   2.190   4.076  1.4126 -0.6314 -0.6459
  184SOL     OW 1652   3.275   3.881   6.539  0.7020  0.3775 -0.0063
  184SOL    HW1 1653   3.317   3.924   6.465 -1.4470  2.5006 -0.1277
  184SOL    HW2 1654   3.203   3.831   6.500  2.2785 -2.2784  0.2884
  185SOL     OW 1655   3.931   0.079   8.013 -0.5103 -0.3535  0.5068
  185SOL    HW1 1656   3.993   0.132   8.065 -0.0005 -1.1829  0.7615
  185SOL    HW2 1657   3.890   0.142   7.954  0.7013  0.1873  0.2160
  186SOL     OW 1658   7.488   8.102   6.973 -0.1234  0.4051  0.0493
  186SOL    HW1 1659   7.535   8.163   7.030  0.3481 -0.7463  0.9278
  186SOL    HW2 1660   7.439   8.047   7.034  0.6666 -1.0917 -0.6283
  187SOL     OW 1661   7.340   2.036   0.071 -0.4550 -0.3614  0.0172
  187SOL    HW1 1662   7.375   2.094   0.138 -0.4554  0.1935 -0.4538
  187SOL    HW2 1663   7.267   1.991   0.114  0.3713 -1.0045  0.7901
  188SOL     OW 1664   8.746   6.740   8.295  0.3909  0.1532 -0.7093
  188SOL    HW1 1665   8.792   6.711   8.373  1.3896  0.4447 -1.1734
  188SOL    HW2 1666   8.778   6.829   8.280 -3.4051  2.1260  1.3398
  189SOL     OW 1667   2.681   7.058   7.249  0.5331  0.0737 -0.0045
  189SOL    HW1 1668   2.599   7.080   7.204  0.7792 -0.9472 -0.9814
  189SOL    HW2 1669   2.683   6.962   7.249  1.8900  0.0907 -0.2873
  190SOL     OW 1670   1.262   0.294   4.803  0.3211  0.4199 -0.1404
  190SOL    HW1 1671   1.293   0.211   4.839 -2.2662 -0.0157  1.3873
  190SOL    HW2 1672   1.192   0.269   4.743  0.9183  1.4285 -1.2915
  191SOL     OW 1673   6.542   8.530   0.578  0.0698 -0.3854 -0.9667
  191SOL    HW1 1674   6.589   8.594   0.631 -0.2080 -0.7534 -0.2650
  191SOL    HW2 1675   6.494   8.476   0.641  0.5403 -1.4931 -1.5095
  192SOL     OW 1676   7.683   2.412   5.444 -0.4704 -0.1477  0.2914
  192SOL    HW1 1677   7.770   2.446   5.467 -0.2772 -0.2150 -0.3252
  192SOL    HW2 1678   7.700   2.322   5.417 -0.6571  0.0190 -0.3794
  193SOL     OW 1679   1.218   5.083   2.095 -0.1229  0.2765 -0.6807
  193SOL    HW1 1680   1.217   5.179   2.091 -1.3856  0.3265  0.0764
  193SOL    HW2 1681   1.194   5.055   2.006  0.0788  0.6698 -0.8612
  194SOL     OW 1682   6.218   4.747   2.721 -0.6518  0.3584 -0.2383
  194SOL    HW1 1683   6.246   4.683   2.655  0.5263  0.2741  0.3202
  194SOL    HW2 1684   6.203   4.695   2.800  0.1701  0.7425  0.1791
  195SOL     OW 1685   6.829   7.553   2.652  0.3919 -0.7901  0.4919
  195SOL    HW1 1686   6.835   7.518   2.563  0.4503 -0.7314  0.4729
  195SOL    HW2 1687   6.919   7.573   2.676  0.4075 -1.0772  0.6722
  196SOL     OW 1688   5.085   0.836   6.654 -0.0261 -0.1224  0.3026
  196SOL    HW1 1689   5.124   0.852   6.740 -0.4730  1.5080  0.2435
  196SOL    HW2 1690   5.063   0.743   6.655  0.6407 -0.3010  1.6651
  197SOL     OW 1691   0.984   4.217   8.840 -0.4813  0.0377  0.2258
  197SOL    HW1 1692   0.908   4.274   8.840 -1.1377 -0.6243 -3.1244
  197SOL    HW2 1693   0.964   4.151   8.907 -3.5415 -0.8597 -1.3845
  198SOL     OW 1694   8.579   8.000   7.986 -0.3610  0.0489 -0.4220
  198SOL    HW1 1695   8.668   8.016   7.955  0.0484  1.4213  1.3134
  198SOL    HW2 1696   8.524   8.052   7.928  0.1429  0.5795 -0.4367
  199SOL     OW 1697   1.752   7.885   1.800 -0.2763  0.0104 -0.2414
  199SOL    HW1 1698   1.769   7.908   1.708  0.1141  0.1244 -0.1439
  199SOL    HW2 1699   1.717   7.796   1.795 -0.5822  0.1459 -0.5270
  200SOL     OW 1700   4.797   0.597   7.579  0.3805  0.1256  0.0553
  200SOL    HW1 1701   4.883   0.636   7.567  0.3465 -0.0451 -0.8597
  200SOL    HW2 1702   4.749   0.659   7.634  1.9564 -1.1035  3.0274
  201SOL     OW 1703   0.187   1.594   8.097 -0.0561 -0.6604  0.3287
  201SOL    HW1 1704   0.105   1.568   8.141  0.7638 -1.3964  1.4785
  201SOL    HW2 1705   0.228   1.511   8.073  0.8548 -0.3324  0.7285
  202SOL     OW 1706   7.136   4.665   8.350  1.4383 -0.2580  0.4714
  202SOL    HW1 1707   7.189   4.640   8.426  3.7091  0.0347 -0.9148
  202SOL    HW2 1708   7.181   4.625   8.275 -0.8973 -0.7956 -0.7273
  203SOL     OW 1709   1.180   1.102   6.251 -0.9832 -0.3695 -0.1718
  203SOL    HW1 1710   1.114   1.152   6.299 -0.1599  1.3334 -0.7402
  203SOL    HW2 1711   1.146   1.013   6.251 -2.8161  0.2644  0.3759
  204SOL     OW 1712   6.568   1.183   8.693 -0.2864  0.2824 -0.2943
  204SOL    HW1 1713   6.507   1.237   8.643  0.4436  0.5267 -0.9458
  204SOL    HW2 1714   6.635   1.245   8.723  0.1749 -0.1458 -0.4368
  205SOL     OW 1715   1.171   8.887   0.913  0.2544  0.1997 -0.4770
  205SOL    HW1 1716   1.163   8.935   0.831 -1.3268  2.9971  1.1419
  205SOL    HW2 1717   1.221   8.945   0.971  1.2404 -1.6318  0.6267
  206SOL     OW 1718   5.409   3.863   3.743  0.2502  0.0497 -0.0884
  206SOL    HW1 1719   5.375   3.784   3.784  1.0650 -0.0757  0.3792
  206SOL    HW2 1720   5.398   3.931   3.810  3.0297 -0.4760  1.0488
  207SOL     OW 1721   8.950   2.982   7.197 -0.2293  0.5537  0.6043
  207SOL    HW1 1722   9.035   2.941   7.208  0.8718  2.1771 -1.3238
  207SOL    HW2 1723   8.896   2.916   7.154  0.5054  0.0325  0.4711
  208SOL     OW 1724   2.398   6.203   3.005  0.0339  0.1659  0.0221
  208SOL    HW1 1725   2.493   6.204   3.011 -0.0376 -0.5650  1.9133
  208SOL    HW2 1726   2.372   6.295   3.014  0.5242  0.2541  0.5831
  209SOL     OW 1727   7.429   5.544   2.523 -0.1455 -0.3674  0.4512
  209SOL    HW1 1728   7.478   5.590   2.591  0.2312  0.2017 -0.2034
  209SOL    HW2 1729   7.433   5.601   2.446  0.6085 -1.6091 -0.4727
  210SOL     OW 1730   3.061   3.917   5.020  0.2274 -0.1706  0.1540
  210SOL    HW1 1731   3.152   3.930   5.047  0.5840 -0.2982 -0.9487
  210SOL    HW2 1732   3.023   3.863   5.090  1.3354 -1.1413  0.0363
  211SOL     OW 1733   3.924   8.057   2.003 -0.2757  0.0661  0.0249
  211SOL    HW1 1734   4.011   8.087   1.978 -0.1800 -1.1456 -1.2074
  211SOL    HW2 1735   3.864   8.121   1.965 -0.0137 -0.4073 -1.2306
  212SOL     OW 1736   7.504   0.601   4.121  0.0690  0.4795  0.2478
  212SOL    HW1 1737   7.574   0.536   4.111  0.1118  0.2632  1.7883
  212SOL    HW2 1738   7.446   0.564   4.187 -0.8457  1.2218 -0.1266
  213SOL     OW 1739   6.663   4.811   5.400  0.6229  0.1379 -0.3506
  213SOL    HW1 1740   6.625   4.792   5.486  0.4134  1.5786 -0.0871
  213SOL    HW2 1741   6.595   4.787   5.338  0.2482  0.3350 -0.0244
  214SOL     OW 1742   8.400   4.993   1.481  0.0775 -0.3444 -0.4570
  214SOL    HW1 1743   8.479   4.939   1.489 -0.1423 -0.7114 -0.7448
  214SOL    HW2 1744   8.427   5.065   1.424  0.1698 -0.5407 -0.6641
  215SOL     OW 1745   8.025   6.043   7.823 -0.3383 -0.5049 -0.3505
  215SOL    HW1 1746   8.056   6.129   7.851  1.8181 -1.4633  0.4593
  215SOL    HW2 1747   7.951   6.024   7.880 -0.0999  0.3396  0.2546
  216SOL     OW 1748   5.773   3.990   4.931  0.5671 -0.2223 -0.3967
  216SOL    HW1 1749   5.713   4.059   4.961  0.8130 -1.0505  2.2711
  216SOL    HW2 1750   5.851   4.038   4.902 -0.7020  0.7701 -2.3905
  217SOL     OW 1751   2.301   2.335   6.274 -0.7399 -0.1186  0.1836
  217SOL    HW1 1752   2.237   2.338   6.204 -1.7102 -0.0779  1.0538
  217SOL    HW2 1753   2.359   2.409   6.256 -1.8309  0.7633  0.2131
  218SOL     OW 1754   8.811   4.606   0.764  0.0748  0.3194  0.0147
  218SOL    HW1 1755   8.843   4.563   0.843  0.4264  1.2716  0.4025
  218SOL    HW2 1756   8.718   4.620   0.781  0.2073  0.7702  0.3775
  219SOL     OW 1757   7.578   8.587   2.802  0.7100  0.2046 -0.6289
  219SOL    HW1 1758   7.545   8.641   2.874  0.6597  0.8401 -1.1107
  219SOL    HW2 1759   7.664   8.558   2.831  1.0994  1.2485 -0.6959
  220SOL     OW 1760   5.744   0.774   4.869  0.2539  0.5427 -0.8367
  220SOL    HW1 1761   5.771   0.841   4.805  2.2547  1.3371  0.6933
  220SOL    HW2 1762   5.685   0.820   4.928  1.9517  1.1761  0.4577
  221SOL     OW 1763   4.440   3.981   1.332 -0.2905  0.3052 -0.0958
  221SOL    HW1 1764   4.437   4.060   1.387 -1.4135 -0.2636  0.7117
  221SOL    HW2 1765   4.527   3.944   1.347 -0.2635  0.6377  0.6264
  222SOL     OW 1766   5.167   1.220   1.801  0.2446 -0.2070 -0.3728
  222SOL    HW1 1767   5.101   1.282   1.831 -0.7507 -1.1508 -0.5438
  222SOL    HW2 1768   5.206   1.186   1.881 -0.7856 -1.0043 -0.1841
  223SOL     OW 1769   9.046   3.921   5.311 -0.2217 -0.5116 -0.4304
  223SOL    HW1 1770   8.992   3.991   5.346  0.0280 -1.0601  1.1161
  223SOL    HW2 1771   9.119   3.965   5.268 -0.2786  0.1869  0.1776
  224SOL     OW 1772   1.054   5.615   3.969 -0.6173  0.2705 -0.5857
  224SOL    HW1 1773   1.147   5.604   3.948 -0.5266  0.6095 -0.3701
  224SOL    HW2 1774   1.008   5.574   3.896 -0.3081  1.3760 -1.4311
  225SOL     OW 1775   9.111   0.398   6.011 -0.4235 -0.0407 -0.4278
  225SOL    HW1 1776   9.063   0.480   6.011  1.6685  1.2594 -0.8366
  225SOL    HW2 1777   9.146   0.391   5.922 -1.0642 -1.7156 -0.5883
  226SOL     OW 1778   4.922   2.153   8.535 -0.2188  0.5390 -0.8824
  226SOL    HW1 1779   4.851   2.090   8.524  0.1775 -0.1485  0.2737
  226SOL    HW2 1780   4.992   2.121   8.477 -0.9024  1.3557 -2.2099
  227SOL     OW 1781   3.284   8.982   3.696 -0.6420 -0.3629 -0.6580
  227SOL    HW1 1782   3.214   9.017   3.751 -0.3787  0.4449 -0.8188
  227SOL    HW2 1783   3.316   9.058   3.647  0.6041 -0.6324 -0.3084
  228SOL     OW 1784   7.419   4.339   8.499  0.2828  0.2573 -0.2657
  228SOL    HW1 1785   7.354   4.274   8.476  1.9728 -1.7156  0.2330
  228SOL    HW2 1786   7.503   4.292   8.498  1.4849  2.1736  1.0301
  229SOL     OW 1787   6.932   3.542   0.612 -0.1697  0.0475  0.0724
  229SOL    HW1 1788   6.930   3.523   0.706 -0.0967  1.5844  0.4092
  229SOL    HW2 1789   6.855   3.498   0.577 -0.6889  0.1887  1.0112
  230SOL     OW 1790   8.389   3.902   1.307 -0.3213  0.0367  0.7250
  230SOL    HW1 1791   8.320   3.956   1.347 -0.0442  0.3183  0.8319
  230SOL    HW2 1792   8.345   3.856   1.236 -0.9218 -0.8148  1.6349
  231SOL     OW 1793   5.465   8.527   5.592  0.4510  0.3412  0.1004
  231SOL    HW1 1794   5.413   8.532   5.672  0.7538  1.7045  0.2265
  231SOL    HW2 1795   5.426   8.454   5.543 -0.6565  0.4167  0.8356
  232SOL     OW 1796   2.598   3.924   2.190 -0.2788  0.1410 -0.1226
  232SOL    HW1 1797   2.545   3.848   2.212  0.9159 -0.7572 -0.2248
  232SOL    HW2 1798   2.535   3.994   2.175 -1.3757 -0.6522  0.6207
  233SOL     OW 1799   1.237   6.843   8.378  0.0658  0.5204  0.0573
  233SOL    HW1 1800   1.255   6.799   8.295  0.4366 -2.8185  1.7200
  233SOL    HW2 1801   1.147   6.817   8.399  0.1332  0.9601  0.9155
  234SOL     OW 1802   5.109   1.106   8.648  0.1713 -0.1783 -0.0704
  234SOL    HW1 1803   5.193   1.062   8.646 -0.0535 -0.5884 -1.2295
  234SOL    HW2 1804   5.045   1.038   8.625 -0.2996  0.4856 -0.7828
  235SOL     OW 1805   6.034   5.501   4.391 -0.1800  0.7766 -0.1043
  235SOL    HW1 1806   6.014   5.472   4.480 -0.3162 -1.5630 -0.8268
  235SOL    HW2 1807   6.123   5.469   4.375 -1.0656 -1.1197 -1.6355
  236SOL     OW 1808   0.681   3.251   6.927 -0.0603  0.1078  0.5204
  236SOL    HW1 1809   0.693   3.234   7.020  2.3074  0.8831  0.4250
  236SOL    HW2 1810   0.623   3.327   6.924 -0.9982 -0.5594  1.3055
  237SOL     OW 1811   3.279   4.692   1.452  0.9523  0.3078 -0.3201
  237SOL    HW1 1812   3.278   4.760   1.385  0.0969  0.9931  0.3598
  237SOL    HW2 1813   3.294   4.740   1.534 -1.2602 -0.0910  0.3761
  238SOL     OW 1814   1.451   4.976   5.484  0.2580  0.1004  0.3231
  238SOL    HW1 1815   1.512   5.040   5.446 -0.2110  0.2041 -0.2685
  238SOL    HW2 1816   1.373   4.982   5.429 -0.3130  0.0038  1.1051
  239SOL     OW 1817   6.222   3.038   5.604 -0.7935 -0.4108  0.4877
  239SOL    HW1 1818   6.212   3.128   5.634 -1.8689 -0.8169  1.4152
  239SOL    HW2 1819   6.267   3.046   5.520  1.8213  0.8142  1.8802
  240SOL     OW 1820   8.982   1.178   8.248  0.2903  0.4421  0.2165
  240SOL    HW1 1821   9.001   1.187   8.155 -1.5599  0.0841 -0.2388
  240SOL    HW2 1822   9.038   1.106   8.278  0.5435  0.2349 -0.7402
  241SOL     OW 1823   8.711   0.003   8.566 -0.7911  0.3866 -0.0067
  241SOL    HW1 1824   8.739   0.055   8.491 -1.3724 -0.9286 -1.1662
  241SOL    HW2 1825   8.744  -0.085   8.548  0.6885  0.3942  2.1832
  242SOL     OW 1826   2.993   7.737   8.494 -0.0291  0.1907 -0.0180
  242SOL    HW1 1827   2.960   7.648   8.511 -0.8034  0.5327  0.3392
  242SOL    HW2 1828   2.922   7.779   8.446  0.8573  0.2313 -1.3500
  243SOL     OW 1829   1.924   2.412   8.672  0.0374  0.1783 -0.8871
  243SOL    HW1 1830   1.869   2.381   8.745  0.2035 -0.5069 -1.0443
  243SOL    HW2 1831   1.956   2.497   8.701 -1.2591  0.6847 -0.8725
  244SOL     OW 1832   5.943   2.277   3.502  0.1115  0.3690  0.2337
  244SOL    HW1 1833   5.904   2.204   3.453  1.1629 -0.2037  0.2144
  244SOL    HW2 1834   6.011   2.311   3.445 -0.7581  1.7871 -0.0063
  245SOL     OW 1835   0.376   7.958   2.941 -0.1224 -0.0604  0.0838
  245SOL    HW1 1836   0.382   7.966   3.036 -2.8793  0.8928  0.2933
  245SOL    HW2 1837   0.318   7.883   2.926  0.3985 -0.3001 -0.8679
  246SOL     OW 1838   1.705   0.670   4.499 -0.7674  0.2974 -0.2088
  246SOL    HW1 1839   1.610   0.686   4.497 -1.0840 -1.3420 -0.0336
  246SOL    HW2 1840   1.740   0.723   4.428 -2.0275 -0.1931 -1.2404
  247SOL     OW 1841   0.846   5.485   5.635 -0.1704  0.1677 -1.0084
  247SOL    HW1 1842   0.929   5.439   5.649 -0.3536 -0.1224 -0.8641
  247SOL    HW2 1843   0.797   5.428   5.575 -2.0534 -1.9398  2.2446
  248SOL     OW 1844   4.284   0.869   6.123 -0.1378  0.5602 -0.3274
  248SOL    HW1 1845   4.333   0.882   6.205 -1.2296 -1.3890  0.7222
  248SOL    HW2 1846   4.265   0.775   6.122 -1.3232  0.7770 -2.1597
  249SOL     OW 1847   4.135   5.658   5.124 -0.2516  0.6066 -0.5951
  249SOL    HW1 1848   4.039   5.657   5.128 -0.3251  0.4133 -2.0468
  249SOL    HW2 1849   4.156   5.624   5.037  1.1004  1.6221 -0.6964
  250SOL     OW 1850   2.933   3.174   2.846  0.1260  0.0184  0.1794
  250SOL    HW1 1851   2.844   3.161   2.879  0.3809  0.5211  1.1034
  250SOL    HW2 1852   2.925   3.161   2.751 -0.9161 -0.0099  0.2509
  251SOL     OW 1853   2.580   3.396   6.365 -0.3373 -1.1335 -0.4289
  251SOL    HW1 1854   2.506   3.435   6.412  0.7343  0.6013 -0.1050
  251SOL    HW2 1855   2.560   3.412   6.272 -0.9526 -1.8029 -0.4226
  252SOL     OW 1856   3.051   4.410   7.958  0.0624  0.6821  0.5221
  252SOL    HW1 1857   3.106   4.485   7.936  0.8838  0.5549  1.9684
  252SOL    HW2 1858   3.050   4.356   7.879 -1.0007  2.4564 -0.7258
  253SOL     OW 1859   1.571   7.664   1.452  0.1001  0.5085 -0.0933
  253SOL    HW1 1860   1.480   7.663   1.424  0.1280 -1.2677 -0.2460
  253SOL    HW2 1861   1.614   7.599   1.396  0.8386 -0.8075  1.9164
  254SOL     OW 1862   3.142   2.465   0.562 -0.2144  0.3801  0.0088
  254SOL    HW1 1863   3.191   2.391   0.527 -1.9294 -1.3237  1.0056
  254SOL    HW2 1864   3.208   2.530   0.586  1.2863 -0.4614 -1.6523
  255SOL     OW 1865   4.476   8.104   3.394  0.0340  0.2966  0.2303
  255SOL    HW1 1866   4.482   8.194   3.362  1.1854  0.0749 -0.2414
  255SOL    HW2 1867   4.553   8.060   3.356  0.4197 -0.4550  1.8119
  256SOL     OW 1868   8.939   7.170   6.755  0.0063  0.1694  0.4556
  256SOL    HW1 1869   8.895   7.114   6.820  1.9086 -1.5164  0.4136
  256SOL    HW2 1870   9.016   7.203   6.801  0.4134  0.4227 -0.3898
  257SOL     OW 1871   3.357   6.539   0.620 -0.0457 -0.0190 -0.4116
  257SOL    HW1 1872   3.271   6.546   0.662  0.4451  0.3554  0.5670
  257SOL    HW2 1873   3.402   6.471   0.670 -0.6279 -2.0227 -2.4867
  258SOL     OW 1874   8.796   0.150   7.888 -0.0137  0.0151 -0.2107
  258SOL    HW1 1875   8.758   0.236   7.869 -0.4535 -0.1076  0.0966
  258SOL    HW2 1876   8.724   0.089   7.871  0.4797 -0.3518 -1.0503
  259SOL     OW 1877   0.008   0.807   8.655 -0.1987 -0.0306  0.0294
  259SOL    HW1 1878   0.099   0.829   8.678 -0.3685 -0.5630  1.2788
  259SOL    HW2 1879  -0.045   0.858   8.717 -0.7915  0.7369 -1.0731
  260SOL     OW 1880   6.907   7.123   0.989 -0.3463  0.4932  0.2287
  260SOL    HW1 1881   6.859   7.122   0.906 -1.8352  2.2594  0.9920
  260SOL    HW2 1882   6.974   7.190   0.977 -0.2806  0.4422  0.3085
  261SOL     OW 1883   5.467   7.591   6.395 -0.7484  0.1983  0.5572
  261SOL    HW1 1884   5.517   7.633   6.465  1.0772 -0.1544 -0.4699
  261SOL    HW2 1885   5.491   7.498   6.400 -1.2664  0.0235 -0.0025
  262SOL     OW 1886   3.231   6.320   0.021  0.4197  0.2113  0.3233
  262SOL    HW1 1887   3.154   6.268   0.041  0.4901  0.1806  0.5215
  262SOL    HW2 1888   3.298   6.256  -0.003 -0.2431  0.3436 -2.0822
  263SOL     OW 1889   5.763   2.017   2.321 -0.1368 -0.8277 -0.1917
  263SOL    HW1 1890   5.701   2.043   2.253 -1.6547  0.4843  1.5858
  263SOL    HW2 1891   5.733   1.931   2.349 -0.2491 -0.8470 -0.3694
  264SOL     OW 1892   2.399   4.507   7.255 -0.1659  0.0270 -0.6215
  264SOL    HW1 1893   2.441   4.542   7.334  0.2643 -0.3349 -0.6893
  264SOL    HW2 1894   2.470   4.498   7.192 -0.4044 -0.2663 -0.8514
  265SOL     OW 1895   5.493   0.570   2.898  0.5562 -0.1527 -0.0600
  265SOL    HW1 1896   5.498   0.649   2.844  0.5946 -1.3938 -1.9880
  265SOL    HW2 1897   5.417   0.583   2.953 -0.6090  0.4391 -1.7279
  266SOL     OW 1898   7.490   0.825   6.006  0.4444  0.3826 -0.1670
  266SOL    HW1 1899   7.418   0.771   6.038 -0.5649  2.2557  0.8721
  266SOL    HW2 1900   7.521   0.779   5.928 -1.7779 -0.5380 -0.5791
  267SOL     OW 1901   4.182   1.433   1.334 -0.0023  0.2451 -0.1186
  267SOL    HW1 1902   4.213   1.515   1.370  0.5537  0.0272 -0.0946
  267SOL    HW2 1903   4.210   1.367   1.397  1.6132 -0.2261 -1.2698
  268SOL     OW 1904   8.480   2.616   2.919  0.8053  0.3766  0.2729
  268SOL    HW1 1905   8.549   2.623   2.853  0.5403  1.3671  0.0956
  268SOL    HW2 1906   8.460   2.706   2.943  0.2008  0.0611  0.9805
  269SOL     OW 1907   0.709   2.973   4.750  0.1391  0.3472  0.3200
  269SOL    HW1 1908   0.732   2.880   4.755  0.9246  0.4641 -0.8321
  269SOL    HW2 1909   0.628   2.975   4.698  1.5030  0.4578 -1.9330
  270SOL     OW 1910   5.326   8.419   8.197 -0.8047  0.1430  0.1601
  270SOL    HW1 1911   5.410   8.386   8.231 -0.6062 -0.8341 -1.1860
  270SOL    HW2 1912   5.260   8.365   8.239 -0.6817  0.1106  0.3147
  271SOL     OW 1913   8.692   5.429   3.876  0.6605 -0.0391  0.1048
  271SOL    HW1 1914   8.764   5.413   3.815  0.1308 -2.7340  0.0961
  271SOL    HW2 1915   8.715   5.513   3.917  2.4332  0.4773 -1.7605
  272SOL     OW 1916   1.262   1.905   7.703  0.4217  0.0455  0.1720
  272SOL    HW1 1917   1.258   1.870   7.614  0.7405  0.7040 -0.1093
  272SOL    HW2 1918   1.274   1.999   7.691  3.0377 -0.1220  0.8920
  273SOL     OW 1919   8.085   2.376   6.641  0.3030 -0.0726 -0.3061
  273SOL    HW1 1920   8.158   2.319   6.616  1.1751  0.9809 -0.2197
  273SOL    HW2 1921   8.010   2.340   6.594  0.6621 -1.7181  0.2972
  274SOL     OW 1922   1.760   6.615   2.394  0.2116  0.2845  0.0165
  274SOL    HW1 1923   1.674   6.585   2.424 -0.3374  0.0284 -1.6926
  274SOL    HW2 1924   1.822   6.574   2.454 -0.5526 -3.5632 -1.5420
  275SOL     OW 1925   6.564   6.185   3.039 -0.2503  0.2357  0.1292
  275SOL    HW1 1926   6.600   6.190   2.951 -1.7846  0.2918 -0.5213
  275SOL    HW2 1927   6.495   6.251   3.041  1.9587  2.7310  2.5241
  276SOL     OW 1928   4.073   8.688   4.229 -0.1988 -0.3838 -0.1801
  276SOL    HW1 1929   4.122   8.769   4.214 -1.2788  0.3865  0.3178
  276SOL    HW2 1930   4.085   8.637   4.149  0.6480  0.1799 -0.4287
  277SOL     OW 1931   1.216   4.217   0.462  0.2964 -0.3567 -0.2420
  277SOL    HW1 1932   1.205   4.258   0.377 -1.2271  2.0428  0.9871
  277SOL    HW2 1933   1.127   4.190   0.488  0.4067  0.6488  1.3203
  278SOL     OW 1934   2.819   5.777   8.121 -0.1973 -0.1599  0.0420
  278SOL    HW1 1935   2.884   5.741   8.181 -1.2543  1.4928  2.2986
  278SOL    HW2 1936   2.844   5.868   8.110 -1.4481  0.1958 -0.0087
  279SOL     OW 1937   1.903   6.650   3.506 -0.2623  0.1452 -0.3668
  279SOL    HW1 1938   1.936   6.740   3.507  0.3456 -0.0843  0.5487
  279SOL    HW2 1939   1.884   6.633   3.413  0.3209  0.9561 -0.6441
  280SOL     OW 1940   7.150   0.830   6.873  0.2168 -0.0701  0.2207
  280SOL    HW1 1941   7.137   0.774   6.796  0.0211  2.1934 -1.4832
  280SOL    HW2 1942   7.245   0.832   6.885  0.2361 -0.5964  0.1921
  281SOL     OW 1943   8.032   3.834   7.537 -0.2598  0.0129 -0.3862
  281SOL    HW1 1944   7.994   3.843   7.450 -0.6382 -0.0842 -0.2342
  281SOL    HW2 1945   8.062   3.922   7.560 -1.1543  0.2687 -0.1655
  282SOL     OW 1946   3.993   2.719   0.483 -0.4425  0.1713 -0.0834
  282SOL    HW1 1947   4.050   2.772   0.539 -0.8230  1.1628 -0.5928
  282SOL    HW2 1948   3.924   2.687   0.542 -0.3848  0.5196  0.1799
  283SOL     OW 1949   4.730   0.820   5.294 -0.0190  0.3723  0.0601
  283SOL    HW1 1950   4.814   0.795   5.255  0.3665  0.8967  0.5391
  283SOL    HW2 1951   4.729   0.916   5.287 -0.4144  0.3915  0.3820
  284SOL     OW 1952   0.426   5.383   3.005 -0.0036 -0.0909  0.2019
  284SOL    HW1 1953   0.435   5.300   3.051  0.7366 -0.5279 -0.7017
  284SOL    HW2 1954   0.515   5.413   2.990 -0.2567  0.7005  0.2188
  285SOL     OW 1955   3.263   5.039   8.219  0.0077 -0.2049 -0.0405
  285SOL    HW1 1956   3.207   5.107   8.257 -1.7810 -0.9204 -1.2788
  285SOL    HW2 1957   3.221   5.017   8.136  2.1490 -0.8018 -1.0318
  286SOL     OW 1958   0.588   4.827   8.018 -0.4670  0.2593 -0.3001
  286SOL    HW1 1959   0.585   4.809   7.924 -0.5264 -0.6694 -0.1265
  286SOL    HW2 1960   0.516   4.776   8.055  0.0471 -0.0142  0.3503
  287SOL     OW 1961   3.631   5.928   5.771  0.2991  0.0365  0.4053
  287SOL    HW1 1962   3.551   5.919   5.720 -0.1181 -2.9268  1.3897
  287SOL    HW2 1963   3.610   5.993   5.838 -2.1781 -2.1921  2.0004
  288SOL     OW 1964   6.844   5.272   5.266 -0.0370  0.3958 -0.3290
  288SOL    HW1 1965   6.851   5.357   5.310  0.3059  0.4307 -0.4463
  288SOL    HW2 1966   6.785   5.221   5.321  0.2074  0.5195  0.0529
  289SOL     OW 1967   2.367   0.574   1.847  0.3258 -0.8073 -0.1424
  289SOL    HW1 1968   2.311   0.506   1.811 -0.9340 -0.9074  1.8675
  289SOL    HW2 1969   2.388   0.630   1.772  0.7408 -2.9079 -1.6754
  290SOL     OW 1970   1.072   2.164   2.492  1.2307  0.2234  0.0849
  290SOL    HW1 1971   1.075   2.068   2.484  1.0086  0.3533 -1.9722
  290SOL    HW2 1972   1.102   2.196   2.407  0.6289  1.9904  0.5015
  291SOL     OW 1973   4.121   6.650   0.548 -0.5208 -0.1371  0.3845
  291SOL    HW1 1974   4.213   6.626   0.551 -0.0926  1.4647  1.5859
  291SOL    HW2 1975   4.083   6.608   0.625 -0.0725  1.7425  1.6874
  292SOL     OW 1976   2.588   4.926   2.353 -0.2377 -0.4308 -0.0894
  292SOL    HW1 1977   2.506   4.962   2.319  0.8111  1.0194 -1.2378
  292SOL    HW2 1978   2.648   4.929   2.279  0.8153 -1.6429  0.6720
  293SOL     OW 1979   1.015   3.702   2.277 -0.0375 -0.3588  0.3410
  293SOL    HW1 1980   1.104   3.698   2.242  0.1024 -0.0539  0.6625
  293SOL    HW2 1981   1.019   3.768   2.347 -0.3789 -0.7800  0.7611
  294SOL     OW 1982   3.038   7.331   8.558 -0.2696 -0.3622 -0.0778
  294SOL    HW1 1983   2.966   7.393   8.561  1.1903  1.3806  0.9906
  294SOL    HW2 1984   3.108   7.377   8.512  0.8071 -1.2592  0.6024
  295SOL     OW 1985   3.843   5.531   6.636 -0.0954  0.0373  0.0651
  295SOL    HW1 1986   3.752   5.561   6.630  0.1640  0.6950 -0.5246
  295SOL    HW2 1987   3.849   5.461   6.571  0.2994  1.2093 -1.1991
  296SOL     OW 1988   6.129   8.977   1.988 -0.7065  0.1086  0.3177
  296SOL    HW1 1989   6.040   8.939   1.989 -0.2906 -0.9389 -0.3082
  296SOL    HW2 1990   6.174   8.929   1.919  0.2005  1.0050  0.2684
  297SOL     OW 1991   2.355   0.613   4.600 -0.1424 -0.1793  0.0545
  297SOL    HW1 1992   2.260   0.614   4.610 -0.1936  1.7394 -0.3271
  297SOL    HW2 1993   2.378   0.703   4.577  1.6817 -0.7928 -0.6902
  298SOL     OW 1994   3.712   3.552   3.311 -0.5221 -0.2647  0.4439
  298SOL    HW1 1995   3.725   3.523   3.401  1.3602  0.5406  0.4880
  298SOL    HW2 1996   3.757   3.486   3.258 -0.0752  0.1869  0.2448
  299SOL     OW 1997   3.211   5.232   7.550  0.4097  0.0070  0.3585
  299SOL    HW1 1998   3.195   5.255   7.641 -0.6849 -0.6101  0.3362
  299SOL    HW2 1999   3.288   5.176   7.552 -0.2144 -0.8499  1.0326
  300SOL     OW 2000   0.061   5.843   4.727  0.2735  0.1704 -0.0954
  300SOL    HW1 2001   0.119   5.914   4.755  2.0047 -1.9143  2.1494
  300SOL    HW2 2002  -0.001   5.833   4.799 -0.1338 -0.3824 -0.5121
  301SOL     OW 2003   0.795   3.227   8.568  0.3300  0.1057 -0.5067
  301SOL    HW1 2004   0.785   3.303   8.512  1.1684  0.9479  0.4554
  301SOL    HW2 2005   0.883   3.234   8.604 -0.0482 -0.5994  0.6229
  302SOL     OW 2006   3.941   3.037   3.206  0.1799 -0.1507 -0.2194
  302SOL    HW1 2007   4.036   3.044   3.195  0.3461 -1.8756 -0.1758
  302SOL    HW2 2008   3.929   2.963   3.265 -1.2340 -0.8681 -1.3451
  303SOL     OW 2009   0.790   6.192   3.015  0.1026 -0.1175 -0.6671
  303SOL    HW1 2010   0.824   6.276   3.048  1.1323 -0.2389 -1.3504
  303SOL    HW2 2011   0.703   6.212   2.983  0.0672  0.5399 -0.1827
  304SOL     OW 2012   5.581   5.165   7.182 -0.0748 -0.1113  0.0098
  304SOL    HW1 2013   5.545   5.131   7.264 -0.7513  0.8102  0.0993
  304SOL    HW2 2014   5.645   5.231   7.209  0.6284 -0.6979 -0.1858
  305SOL     OW 2015   6.890   1.212   7.318 -0.5667  0.4039 -0.5615
  305SOL    HW1 2016   6.863   1.123   7.292  0.5515  0.2089 -1.1226
  305SOL    HW2 2017   6.879   1.264   7.239  0.0458  0.4640 -0.6113
  306SOL     OW 2018   8.435   2.681   8.676 -0.1835  0.7030 -0.1622
  306SOL    HW1 2019   8.382   2.615   8.632  1.3271 -0.1389 -0.8039
  306SOL    HW2 2020   8.388   2.699   8.757  0.3779 -2.8098  1.1468
  307SOL     OW 2021   7.918   4.733   9.000  0.2188 -0.4252  0.4731
  307SOL    HW1 2022   7.992   4.786   8.972  0.6050 -1.6658 -1.0089
  307SOL    HW2 2023   7.921   4.656   8.944  0.6283 -2.8329  3.5356
  308SOL     OW 2024   0.036   3.089   7.594  0.1748  1.0326  0.0545
  308SOL    HW1 2025  -0.059   3.089   7.609 -0.0022  0.9749 -0.9855
  308SOL    HW2 2026   0.055   2.999   7.568  0.1372  1.5411 -1.8743
  309SOL     OW 2027   1.558   6.588   3.578 -0.8726  0.0230 -0.0001
  309SOL    HW1 2028   1.509   6.573   3.497 -0.0534  1.8339 -0.9080
  309SOL    HW2 2029   1.631   6.526   3.573 -1.1712 -0.3074 -0.3482
  310SOL     OW 2030   5.484   3.492   0.323  0.2403 -0.1123  0.1782
  310SOL    HW1 2031   5.550   3.544   0.369  2.1807 -1.3841 -1.0495
  310SOL    HW2 2032   5.465   3.419   0.383  1.2825 -0.6876 -0.1685
  311SOL     OW 2033   5.150   3.711   3.019 -0.1770 -0.8380  0.0229
  311SOL    HW1 2034   5.216   3.764   3.064 -0.2495  0.3263 -1.1777
  311SOL    HW2 2035   5.090   3.684   3.088 -0.3239  0.9398  0.6537
  312SOL     OW 2036   1.435   7.243   1.545 -0.1488 -0.2124  0.6570
  312SOL    HW1 2037   1.499   7.307   1.574  0.2095 -0.3755  0.2423
  312SOL    HW2 2038   1.447   7.168   1.603  0.7275 -0.6310 -0.0347
  313SOL     OW 2039   3.752   7.668   5.417 -0.2682 -0.0381 -0.8883
  313SOL    HW1 2040   3.779   7.591   5.368  0.9286 -1.0599  1.2084
  313SOL    HW2 2041   3.658   7.655   5.433 -0.1295 -0.9583 -0.7797
  314SOL     OW 2042   4.983   0.172   3.603  0.0109  0.3278 -0.1782
  314SOL    HW1 2043   4.978   0.251   3.657  0.9302  0.4382 -0.2435
  314SOL    HW2 2044   5.070   0.136   3.620 -0.9785 -1.6373  1.1937
  315SOL     OW 2045   8.277   1.170   4.117  0.4894  0.7593 -0.1377
  315SOL    HW1 2046   8.287   1.117   4.196 -0.3342  0.4817 -0.2132
  315SOL    HW2 2047   8.340   1.132   4.055 -0.1996 -0.2391 -0.2431
  316SOL     OW 2048   7.360   8.535   2.005 -0.7036 -0.2740  0.1722
  316SOL    HW1 2049   7.272   8.504   2.024 -1.7493  1.4732 -1.3436
  316SOL    HW2 2050   7.375   8.510   1.914  0.8107 -1.4303  0.7056
  317SOL     OW 2051   8.837   1.173   0.630  0.3085 -0.0968 -0.0920
  317SOL    HW1 2052   8.796   1.092   0.603  0.6116 -1.5248  3.2126
  317SOL    HW2 2053   8.931   1.158   0.616  0.4024 -0.5425  0.9150
  318SOL     OW 2054   8.724   2.571   3.091  0.1449 -0.3665  0.1749
  318SOL    HW1 2055   8.697   2.655   3.129  1.5957  0.2328 -0.0344
  318SOL    HW2 2056   8.645   2.517   3.092 -0.8238  1.0125  0.2855
  319SOL     OW 2057   4.298   7.936   1.992 -0.5014 -0.4056 -0.0167
  319SOL    HW1 2058   4.290   8.014   2.047 -0.8178 -1.3830  1.3840
  319SOL    HW2 2059   4.383   7.946   1.948  0.3547 -0.1634  1.6196
  320SOL     OW 2060   1.113   5.006   3.317 -0.1157  1.2257 -0.2774
  320SOL    HW1 2061   1.053   4.932   3.325  0.3984  0.7021 -1.2230
  320SOL    HW2 2062   1.141   5.023   3.407 -2.0465  1.8071  0.2664
  321SOL     OW 2063   4.920   7.237   8.219 -0.8958  0.3370 -0.4714
  321SOL    HW1 2064   4.989   7.296   8.188 -0.9350  0.1739 -0.8902
  321SOL    HW2 2065   4.846   7.255   8.161 -0.3998 -1.2229 -1.6563
  322SOL     OW 2066   2.897   6.008   2.142 -0.6212 -0.6205 -0.1872
  322SOL    HW1 2067   2.892   6.088   2.193  0.4269 -0.0331 -0.9402
  322SOL    HW2 2068   2.870   5.939   2.202  0.0714  0.0976  1.0006
  323SOL     OW 2069   1.670   1.446   3.596  0.2284 -0.0446 -0.0487
  323SOL    HW1 2070   1.609   1.411   3.531  1.7591 -0.5758 -1.2825
  323SOL    HW2 2071   1.711   1.520   3.553  0.5665  0.2109  0.6969
  324SOL     OW 2072   3.840   8.343   2.845  0.0702  1.4891 -0.0686
  324SOL    HW1 2073   3.860   8.429   2.807  2.6291  1.2214  0.4734
  324SOL    HW2 2074   3.911   8.286   2.813 -1.9866 -0.6773 -1.0729
  325SOL     OW 2075   1.263   2.888   0.611 -0.2450 -0.1612 -0.1328
  325SOL    HW1 2076   1.342   2.875   0.662 -0.1586 -0.3187 -0.3045
  325SOL    HW2 2077   1.197   2.918   0.674  0.3291  1.3670 -0.2180
  326SOL     OW 2078   2.177   0.241   5.684  0.1196 -0.3770  0.0140
  326SOL    HW1 2079   2.117   0.177   5.645 -0.8151 -0.0671  0.9077
  326SOL    HW2 2080   2.243   0.188   5.728 -0.4434 -0.7346  0.4377
  327SOL     OW 2081   8.642   0.870   8.722  0.1382  0.7259  0.1780
  327SOL    HW1 2082   8.678   0.837   8.804  0.0788  1.2586  0.4263
  327SOL    HW2 2083   8.639   0.965   8.734  0.2919  0.8224 -0.5100
  328SOL     OW 2084   0.617   3.522   5.712  0.6914  0.1614  0.2601
  328SOL    HW1 2085   0.675   3.523   5.636  0.8819 -0.6270  0.3888
  328SOL    HW2 2086   0.666   3.572   5.779  1.8866 -1.6681  0.8239
  329SOL     OW 2087   2.377   8.935   0.148 -0.3495  0.4478 -0.4003
  329SOL    HW1 2088   2.332   8.851   0.153  0.6415 -0.0807 -0.2858
  329SOL    HW2 2089   2.432   8.938   0.226  0.6525  0.6038 -1.0984
  330SOL     OW 2090   5.620   1.515   3.561 -0.0591 -0.5330  0.4656
  330SOL    HW1 2091   5.562   1.448   3.597  2.3972 -0.7112  4.7374
  330SOL    HW2 2092   5.578   1.598   3.584  0.2744 -0.6701  1.6536
  331SOL     OW 2093   7.596   2.299   3.889 -0.1826 -0.4275 -0.0180
  331SOL    HW1 2094   7.621   2.367   3.952  0.3402 -1.0574  0.4651
  331SOL    HW2 2095   7.533   2.342   3.831 -0.6263  0.1738  0.8905
  332SOL     OW 2096   4.753   8.176   8.233 -0.0505  0.3093 -0.0514
  332SOL    HW1 2097   4.819   8.188   8.164 -0.6570  1.3989 -0.4560
  332SOL    HW2 2098   4.795   8.209   8.313  0.8718 -1.4920  0.2577
  333SOL     OW 2099   5.291   7.863   6.583  0.2622  0.1410  0.3749
  333SOL    HW1 2100   5.367   7.885   6.637  0.1626  1.7806 -0.0804
  333SOL    HW2 2101   5.322   7.873   6.493 -0.0086 -0.9785  0.1467
  334SOL     OW 2102   6.548   5.525   4.505 -0.6686 -0.0161 -0.1943
  334SOL    HW1 2103   6.597   5.455   4.462  0.6284  0.5375  0.3364
  334SOL    HW2 2104   6.551   5.502   4.598  0.6924  1.2633  0.1091
  335SOL     OW 2105   4.988   2.627   1.537  0.6185  0.0371 -0.2562
  335SOL    HW1 2106   4.897   2.644   1.511  0.0993 -0.8766  0.9192
  335SOL    HW2 2107   5.033   2.610   1.454 -0.9636 -2.6979 -0.6864
  336SOL     OW 2108   5.024   3.264   6.478 -0.5531  0.6274  0.3190
  336SOL    HW1 2109   5.009   3.357   6.462 -2.4875  0.4166  0.7117
  336SOL    HW2 2110   5.000   3.221   6.396  0.0945  0.4347  0.2238
  337SOL     OW 2111   2.104   2.643   1.436 -0.3642 -0.4813  0.2333
  337SOL    HW1 2112   2.035   2.699   1.472  0.2660  1.4124 -1.3251
  337SOL    HW2 2113   2.176   2.650   1.499 -0.1559  0.7941 -0.1321
  338SOL     OW 2114   2.756   9.057   1.518  0.4818  0.2909  0.5123
  338SOL    HW1 2115   2.746   9.073   1.612  1.5338  2.7134  0.2831
  338SOL    HW2 2116   2.761   9.144   1.479  2.1169 -0.6344 -1.5493
  339SOL     OW 2117   1.064   5.675   4.936 -0.1244  0.2793 -0.2249
  339SOL    HW1 2118   1.103   5.602   4.888 -0.3470 -0.1990  0.3171
  339SOL    HW2 2119   1.137   5.736   4.949  0.1368  0.0065 -0.3931
  340SOL     OW 2120   5.398   4.095   8.066 -0.1941  0.1786  1.2137
  340SOL    HW1 2121   5.445   4.139   8.138  0.5159  1.1078  0.2127
  340SOL    HW2 2122   5.456   4.104   7.991 -1.0263 -0.5932  0.4611
  341SOL     OW 2123   2.786   3.901   6.501 -0.1953  0.3853 -0.0397
  341SOL    HW1 2124   2.813   3.869   6.587  0.4693 -0.7735 -0.6522
  341SOL    HW2 2125   2.869   3.921   6.456 -0.5304  0.8676 -0.4578
  342SOL     OW 2126   0.511   0.030   4.594  0.1454 -0.5590  0.2711
  342SOL    HW1 2127   0.485   0.122   4.595  0.2725 -0.4967 -0.8423
  342SOL    HW2 2128   0.526   0.008   4.686 -2.2175 -0.1498  0.8221
  343SOL     OW 2129   5.332   4.145   4.397  0.0993  0.1732 -0.0783
  343SOL    HW1 2130   5.409   4.199   4.384 -0.2362  0.4194 -1.1779
  343SOL    HW2 2131   5.353   4.090   4.472  0.5968  1.5433  0.8245
  344SOL     OW 2132   8.046   7.273   3.631  0.4178  0.4451  0.5189
  344SOL    HW1 2133   8.048   7.207   3.701  1.3078  0.4443  0.5043
  344SOL    HW2 2134   7.973   7.246   3.575  1.6134 -1.3612 -0.2591
  345SOL     OW 2135   7.610   2.105   4.453  0.6630  0.1995 -0.1749
  345SOL    HW1 2136   7.544   2.132   4.389  3.7782 -0.5191 -4.0584
  345SOL    HW2 2137   7.639   2.187   4.494 -1.1864  0.7097  0.2317
  346SOL     OW 2138   5.580   3.506   6.078  0.2848 -0.0761 -0.8132
  346SOL    HW1 2139   5.643   3.433   6.081 -1.9465 -2.1246 -0.8241
  346SOL    HW2 2140   5.495   3.463   6.070 -1.0927  2.6065 -1.4064
  347SOL     OW 2141   6.773   2.789   1.594  0.1672  0.1344 -0.1343
  347SOL    HW1 2142   6.721   2.709   1.595  0.1755  0.1288 -0.1445
  347SOL    HW2 2143   6.863   2.759   1.610 -0.0253  0.2945  1.3790
  348SOL     OW 2144   2.186   4.290   6.470  0.7155 -0.6343 -0.7761
  348SOL    HW1 2145   2.144   4.210   6.503 -0.4452 -0.1912 -1.1310
  348SOL    HW2 2146   2.113   4.346   6.444  1.4336  1.1768  0.8545
  349SOL     OW 2147   7.592   1.243   3.515 -0.4966 -0.4590 -0.4212
  349SOL    HW1 2148   7.660   1.182   3.544 -1.5898 -2.4861 -1.8510
  349SOL    HW2 2149   7.532   1.249   3.590  0.3400 -0.0145  0.2257
  350SOL     OW 2150   4.637   7.265   6.633 -0.2067  0.2773  0.2796
  350SOL    HW1 2151   4.576   7.302   6.568  1.1536  1.9201 -0.1488
  350SOL    HW2 2152   4.592   7.275   6.717 -0.6814  1.1753 -0.0627
  351SOL     OW 2153   7.816   1.985   7.432 -0.3525 -0.8085  0.2439
  351SOL    HW1 2154   7.849   2.075   7.439 -2.5188  0.0643 -0.1600
  351SOL    HW2 2155   7.838   1.945   7.516  0.6974  0.0564  0.4078
  352SOL     OW 2156   5.592   0.007   3.723 -0.2177 -0.2566 -0.0568
  352SOL    HW1 2157   5.541   0.007   3.642 -1.1354 -0.8611  0.5177
  352SOL    HW2 2158   5.609  -0.085   3.741  0.4279 -0.0991  0.1796
  353SOL     OW 2159   0.437   0.707   2.341  0.3317  0.1196 -0.3266
  353SOL    HW1 2160   0.350   0.669   2.352  0.2062  0.7860  1.1835
  353SOL    HW2 2161   0.439   0.780   2.402  2.6411 -1.0532  1.1292
  354SOL     OW 2162   5.891   0.107   5.984 -0.2019 -0.5741 -0.0794
  354SOL    HW1 2163   5.901   0.055   6.063 -0.0266 -1.3845 -0.6183
  354SOL    HW2 2164   5.978   0.108   5.944 -0.2393  0.0023 -0.1511
  355SOL     OW 2165   5.828   7.067   6.800 -0.4066  0.3727  0.1155
  355SOL    HW1 2166   5.877   6.986   6.812  0.1389  0.6946  0.0961
  355SOL    HW2 2167   5.861   7.103   6.718 -1.6446 -0.0755 -0.6179
  356SOL     OW 2168   3.505   5.586   0.996  0.0292 -0.5142  0.4047
  356SOL    HW1 2169   3.554   5.512   0.961  0.2708  0.2173 -0.8610
  356SOL    HW2 2170   3.525   5.586   1.090 -1.1917 -2.9543  0.7549
  357SOL     OW 2171   8.877   2.285   1.371  0.2110 -0.0529  0.2351
  357SOL    HW1 2172   8.900   2.311   1.282 -1.1336  1.5082  0.2913
  357SOL    HW2 2173   8.871   2.190   1.368 -2.3669  0.0450 -2.0643
  358SOL     OW 2174   1.643   1.775   7.160 -0.1586  0.4180 -0.1078
  358SOL    HW1 2175   1.584   1.839   7.200 -0.2243  0.4184 -0.2052
  358SOL    HW2 2176   1.656   1.807   7.070 -0.3669  0.1761 -0.2243
  359SOL     OW 2177   5.410   3.519   8.996  1.0608 -0.5736  0.6336
  359SOL    HW1 2178   5.402   3.424   8.984  0.3232 -0.3819 -0.5460
  359SOL    HW2 2179   5.448   3.550   8.913  1.1126  0.1841  0.9362
  360SOL     OW 2180   2.051   2.729   2.668 -0.1088  0.2877 -0.3788
  360SOL    HW1 2181   2.107   2.772   2.733 -1.2766  0.8947  0.2530
  360SOL    HW2 2182   1.967   2.717   2.712 -0.4223 -0.8368 -1.2290
  361SOL     OW 2183   0.806   4.108   3.564  0.6998 -0.0685  0.0815
  361SOL    HW1 2184   0.720   4.149   3.569  0.5832 -0.2538 -0.4085
  361SOL    HW2 2185   0.790   4.022   3.527  1.0274 -0.3233  0.5190
  362SOL     OW 2186   0.497   0.873   8.925  0.1531 -0.3680  0.0664
  362SOL    HW1 2187   0.546   0.793   8.906  0.0108 -0.0366 -1.9385
  362SOL    HW2 2188   0.411   0.842   8.953  0.9118 -0.9190  1.9833
  363SOL     OW 2189   2.059   4.383   3.141 -0.3427  0.2888  0.0949
  363SOL    HW1 2190   1.963   4.387   3.145 -0.3824 -0.6822  0.6576
  363SOL    HW2 2191   2.086   4.376   3.233  0.2068 -0.3275 -0.1052
  364SOL     OW 2192   3.702   6.193   2.208 -0.0038 -0.6728 -0.3038
  364SOL    HW1 2193   3.758   6.224   2.137 -0.8812  1.2671 -0.1998
  364SOL    HW2 2194   3.715   6.098   2.209  2.7927 -0.3669 -0.6637
  365SOL     OW 2195   7.526   4.127   3.570 -0.6659  0.0762 -0.0113
  365SOL    HW1 2196   7.436   4.099   3.560 -0.7164  0.7425 -1.6636
  365SOL    HW2 2197   7.578   4.048   3.554 -0.9211 -0.6062  2.1316
  366SOL     OW 2198   4.358   3.485   3.480 -0.9532  0.0053  0.8366
  366SOL    HW1 2199   4.322   3.569   3.507  0.7832  0.6231  1.3696
  366SOL    HW2 2200   4.421   3.507   3.411 -0.6798 -0.8896  0.7857
  367SOL     OW 2201   3.098   3.822   2.702  0.2992 -1.1362  0.0435
  367SOL    HW1 2202   3.158   3.749   2.684  0.6497 -0.3569 -2.2912
  367SOL    HW2 2203   3.104   3.877   2.624 -0.6259  0.9507  1.3783
  368SOL     OW 2204   6.194   8.184   5.737  0.0221 -0.1401  0.5071
  368SOL    HW1 2205   6.238   8.179   5.652  1.3828 -0.2795  1.1999
  368SOL    HW2 2206   6.101   8.181   5.716  0.3485 -0.8699 -0.9355
  369SOL     OW 2207   0.397   2.692   8.309 -0.0991  0.1351 -0.0946
  369SOL    HW1 2208   0.319   2.711   8.258 -0.3173  0.5205  0.3762
  369SOL    HW2 2209   0.364   2.662   8.394  0.2488 -1.1151 -0.3816
  370SOL     OW 2210   3.027   5.094   4.462  0.1119 -0.2598 -0.0085
  370SOL    HW1 2211   3.082   5.026   4.422  0.3731  0.2058 -0.4552
  370SOL    HW2 2212   3.084   5.172   4.464 -0.0270 -0.1719  0.9144
  371SOL     OW 2213   5.096   6.241   7.830  0.4878 -0.1210 -0.3283
  371SOL    HW1 2214   5.089   6.148   7.853  0.4020  0.0390  0.3223
  371SOL    HW2 2215   5.025   6.256   7.768  1.6828 -0.9200 -1.9472
  372SOL     OW 2216   1.733   4.677   3.694 -0.3543 -0.1157 -0.1023
  372SOL    HW1 2217   1.752   4.688   3.601  0.3254  2.2984  0.2521
  372SOL    HW2 2218   1.815   4.642   3.731 -1.1497 -2.7487 -0.5740
  373SOL     OW 2219   5.092   1.766   8.265  0.5142  0.4473 -0.4933
  373SOL    HW1 2220   5.056   1.854   8.276 -1.8408 -0.7186  2.4288
  373SOL    HW2 2221   5.072   1.744   8.174 -2.5208  1.5136 -0.2135
  374SOL     OW 2222   5.184   0.183   1.741 -0.0912  0.3939 -0.2869
  374SOL    HW1 2223   5.255   0.239   1.709 -0.6005  0.9016 -0.5682
  374SOL    HW2 2224   5.122   0.180   1.668 -0.7072  0.5770  0.2155
  375SOL     OW 2225   1.955   8.978   3.771 -0.0986  0.3089  0.3163
  375SOL    HW1 2226   1.907   8.913   3.719  0.8875 -0.3481  0.2146
  375SOL    HW2 2227   1.907   9.060   3.756  0.0364  0.1051 -1.4913
  376SOL     OW 2228   5.287   0.574   5.774  0.3921  0.0043 -0.4824
  376SOL    HW1 2229   5.234   0.514   5.827  0.3601  0.8322  0.4549
  376SOL    HW2 2230   5.345   0.617   5.837  0.1299  1.2574 -1.0680
  377SOL     OW 2231   0.345   7.627   8.362 -0.2528  0.0671 -0.2394
  377SOL    HW1 2232   0.330   7.708   8.410  0.5348  0.1784 -0.1805
  377SOL    HW2 2233   0.440   7.615   8.364 -0.1941  0.1178 -1.8348
  378SOL     OW 2234   8.035   3.051   8.120 -0.0248  0.2428 -0.2706
  378SOL    HW1 2235   7.943   3.075   8.129  0.1327  0.7527 -0.0249
  378SOL    HW2 2236   8.062   3.026   8.208  0.0478 -0.0111 -0.3626
  379SOL     OW 2237   4.660   2.909   2.996  0.5781  0.6896  0.7107
  379SOL    HW1 2238   4.570   2.902   2.965  1.0710  0.5425 -0.7369
  379SOL    HW2 2239   4.703   2.830   2.963  1.3502  0.9845  1.0012
  380SOL     OW 2240   0.527   6.931   8.880  0.5697  0.3950  0.5196
  380SOL    HW1 2241   0.580   6.852   8.865  0.6675  0.4145  0.7599
  380SOL    HW2 2242   0.591   7.002   8.882  0.3648  0.6543 -1.0041
  381SOL     OW 2243   1.773   3.611   3.795 -0.3094  0.2613 -0.0472
  381SOL    HW1 2244   1.766   3.522   3.830  0.3608 -0.1783 -0.9945
  381SOL    HW2 2245   1.757   3.601   3.701 -0.5013  1.1863 -0.1219
  382SOL     OW 2246   6.161   5.061   4.332  0.3492 -0.1099 -1.0646
  382SOL    HW1 2247   6.238   5.109   4.303  0.8712  0.3318  0.9056
  382SOL    HW2 2248   6.186   4.969   4.327  0.9198  0.0226 -0.6844
  383SOL     OW 2249   8.244   7.891   2.777  0.0443 -0.0165  0.1255
  383SOL    HW1 2250   8.274   7.954   2.712 -2.2954  2.0781  0.9173
  383SOL    HW2 2251   8.284   7.920   2.859  1.8996 -1.8380 -0.0669
  384SOL     OW 2252   7.763   0.354   6.851 -0.3913 -0.9736 -0.8229
  384SOL    HW1 2253   7.734   0.351   6.942  0.5454  1.6593 -0.3505
  384SOL    HW2 2254   7.683   0.347   6.799 -1.2524  0.2007  0.2970
  385SOL     OW 2255   3.564   6.744   6.525 -0.0221 -0.0438  0.6718
  385SOL    HW1 2256   3.565   6.801   6.447 -0.6031 -0.9683 -0.0334
  385SOL    HW2 2257   3.656   6.725   6.542  0.1379  0.5649  0.5102
  386SOL     OW 2258   1.952   0.286   0.957 -0.4435  0.4756 -0.2174
  386SOL    HW1 2259   1.985   0.213   0.905 -0.9654  0.9284 -1.2086
  386SOL    HW2 2260   1.857   0.274   0.957 -0.6346  1.7433 -1.3316
  387SOL     OW 2261   2.331   6.354   2.088  0.3241 -0.4264  0.3961
  387SOL    HW1 2262   2.375   6.411   2.025  0.3003  1.2085  1.7947
  387SOL    HW2 2263   2.239   6.376   2.079 -0.0174 -2.1192 -0.8194
  388SOL     OW 2264   8.500   1.111   6.669 -0.5046  0.3575  0.1215
  388SOL    HW1 2265   8.558   1.109   6.593  1.0678  2.9152  1.1088
  388SOL    HW2 2266   8.428   1.052   6.647  1.0656 -0.7759 -2.3373
  389SOL     OW 2267   1.657   0.179   1.368 -0.7350  0.1938 -0.4098
  389SOL    HW1 2268   1.627   0.137   1.449 -0.5252 -0.5598 -0.7105
  389SOL    HW2 2269   1.613   0.264   1.367 -0.2771  0.4596  0.7849
  390SOL     OW 2270   5.031   6.245   5.480  0.1198  0.4042 -0.1146
  390SOL    HW1 2271   4.962   6.189   5.517  1.2787 -1.7436 -1.0150
  390SOL    HW2 2272   5.099   6.248   5.547 -0.2297  1.3466  0.2088
  391SOL     OW 2273   7.372   4.144   3.293  0.0575  0.4376  0.5322
  391SOL    HW1 2274   7.307   4.213   3.303 -0.8219 -0.3974  0.7855
  391SOL    HW2 2275   7.376   4.128   3.199 -1.2895 -0.5685  0.6133
  392SOL     OW 2276   4.893   8.205   6.187  0.1496  0.3085  0.1253
  392SOL    HW1 2277   4.816   8.163   6.148 -0.0153  0.4351  0.3114
  392SOL    HW2 2278   4.857   8.281   6.235  0.4678  0.8106 -0.4188
  393SOL     OW 2279   2.309   2.653   4.859 -0.2382 -0.0776  0.2687
  393SOL    HW1 2280   2.236   2.595   4.840 -0.2059 -0.9909  2.6548
  393SOL    HW2 2281   2.386   2.606   4.825 -0.6394  0.8196 -2.1073
  394SOL     OW 2282   5.839   1.437   5.349  0.4784  0.2238 -0.1840
  394SOL    HW1 2283   5.900   1.390   5.405  0.2729 -1.1249 -1.0379
  394SOL    HW2 2284   5.753   1.407   5.376  0.1849  1.7210  0.6605
  395SOL     OW 2285   5.360   5.832   6.845 -0.4066 -0.0706 -0.3547
  395SOL    HW1 2286   5.394   5.870   6.927  0.2290 -0.3295 -0.4984
  395SOL    HW2 2287   5.361   5.738   6.860  0.8853 -0.1949 -1.1023
  396SOL     OW 2288   0.040   5.355   1.099  0.6386  0.0646 -0.1585
  396SOL    HW1 2289   0.015   5.285   1.039 -1.7025 -0.1197  0.9557
  396SOL    HW2 2290   0.102   5.408   1.048 -0.0830 -0.9217 -2.1853
  397SOL     OW 2291   8.655   3.329   8.261 -0.3827 -0.2467  0.6592
  397SOL    HW1 2292   8.675   3.354   8.171  0.8136  1.3676  1.3186
  397SOL    HW2 2293   8.681   3.237   8.267  1.2779  0.1383 -0.1727
  398SOL     OW 2294   1.746   6.825   5.020  0.0715 -0.7651  0.6335
  398SOL    HW1 2295   1.755   6.755   4.955 -1.1581 -0.6915  0.3716
  398SOL    HW2 2296   1.681   6.884   4.983  1.6952  1.0018  0.4390
  399SOL     OW 2297   0.994   4.711   9.011 -0.0336 -0.5762 -0.1386
  399SOL    HW1 2298   0.903   4.735   9.033  0.1626  0.0583  0.0040
  399SOL    HW2 2299   0.988   4.673   8.924 -0.4648 -0.6884 -0.0653
  400SOL     OW 2300   8.187   4.689   5.585 -0.8313  0.2945 -0.3336
  400SOL    HW1 2301   8.156   4.708   5.674 -0.6758  1.5613 -0.5345
  400SOL    HW2 2302   8.127   4.737   5.528 -0.3891  0.2090 -0.8772
  401SOL     OW 2303   7.231   2.328   1.315  0.3466 -0.6064 -0.3900
  401SOL    HW1 2304   7.179   2.350   1.237 -0.7361 -0.9474  0.2148
  401SOL    HW2 2305   7.257   2.237   1.301  0.5977 -0.5043 -0.5915
  402SOL     OW 2306   1.162   6.452   1.582 -0.3370  0.0333  0.0922
  402SOL    HW1 2307   1.108   6.374   1.572  1.5379 -1.4648  0.9500
  402SOL    HW2 2308   1.136   6.509   1.510 -1.5369 -1.5306 -0.7710
  403SOL     OW 2309   5.443   2.593   8.090 -1.1105 -0.1047  0.3103
  403SOL    HW1 2310   5.504   2.598   8.164  0.7608 -1.6654 -1.0063
  403SOL    HW2 2311   5.412   2.502   8.091  0.1983 -0.6366 -1.6969
  404SOL     OW 2312   2.489   3.315   6.061 -0.2142 -0.1492  0.6186
  404SOL    HW1 2313   2.426   3.364   6.113 -1.2417 -2.0159  1.2129
  404SOL    HW2 2314   2.438   3.281   5.987  0.2117 -1.1446  0.7607
  405SOL     OW 2315   1.109   8.986   3.628 -0.2240  0.4598 -0.5599
  405SOL    HW1 2316   1.124   8.935   3.549  0.8922 -2.0226  1.1579
  405SOL    HW2 2317   1.015   8.976   3.646 -0.3156  0.3397 -1.1043
  406SOL     OW 2318   5.005   9.068   1.450  0.1932  0.3440  0.2973
  406SOL    HW1 2319   5.033   9.001   1.387 -0.0598  0.9624 -0.4773
  406SOL    HW2 2320   5.053   9.046   1.530  1.9796  0.6475 -0.6414
  407SOL     OW 2321   5.982   1.047   8.570  0.1907 -0.0357 -0.1486
  407SOL    HW1 2322   5.936   1.117   8.524 -0.9734 -0.1560  0.7843
  407SOL    HW2 2323   6.038   1.007   8.504 -0.5657  0.5464 -1.1638
  408SOL     OW 2324   1.460   7.325   3.617 -0.2668  0.4831  0.0167
  408SOL    HW1 2325   1.373   7.298   3.646 -0.7369  2.2676  0.3603
  408SOL    HW2 2326   1.512   7.245   3.621 -1.0959 -0.0192  2.7986
  409SOL     OW 2327   1.315   7.354   0.308  0.0768 -0.2202 -0.3991
  409SOL    HW1 2328   1.224   7.357   0.337  0.7525 -2.1093  2.3859
  409SOL    HW2 2329   1.346   7.444   0.319 -0.7949 -0.0724  1.2170
  410SOL     OW 2330   1.034   7.545   5.142 -0.0970 -0.3165  0.2363
  410SOL    HW1 2331   1.038   7.534   5.047  1.0153  0.1239  0.2190
  410SOL    HW2 2332   1.089   7.621   5.160  0.0401 -0.6411  1.2729
  411SOL     OW 2333   0.837   2.003   8.882 -0.7743  0.1635 -0.0850
  411SOL    HW1 2334   0.808   1.977   8.970 -0.1409  1.7821  0.6500
  411SOL    HW2 2335   0.896   1.933   8.854 -2.3961 -1.2804 -0.0162
  412SOL     OW 2336   0.761   1.706   5.937  0.5918  0.1752  0.5901
  412SOL    HW1 2337   0.750   1.613   5.956  1.3455 -0.0378  0.0101
  412SOL    HW2 2338   0.727   1.750   6.015  1.6970 -0.6215  1.5619
  413SOL     OW 2339   6.271   0.421   0.462 -0.1350 -0.1624 -0.4445
  413SOL    HW1 2340   6.231   0.372   0.534 -0.3346 -0.5606 -0.8174
  413SOL    HW2 2341   6.244   0.373   0.384  2.5470 -1.5657 -0.6241
  414SOL     OW 2342   2.866   4.955   5.323  0.2614  0.1629  0.2526
  414SOL    HW1 2343   2.786   4.923   5.365  0.5519 -1.3170 -0.2607
  414SOL    HW2 2344   2.853   4.937   5.230  2.1241 -2.3307  0.3875
  415SOL     OW 2345   1.392   0.760   2.161  0.4938  0.2690  0.2401
  415SOL    HW1 2346   1.388   0.805   2.077  0.5862 -0.1795 -0.0105
  415SOL    HW2 2347   1.316   0.701   2.160  1.1392 -0.5897 -0.0345
  416SOL     OW 2348   6.908   5.600   5.723 -0.1794 -0.0762 -0.1644
  416SOL    HW1 2349   6.894   5.573   5.814  0.0495  0.1635 -0.0573
  416SOL    HW2 2350   6.991   5.646   5.724 -0.7821  1.0473 -0.2438
  417SOL     OW 2351   8.156   1.473   4.431  0.2074  0.0733 -0.0344
  417SOL    HW1 2352   8.229   1.426   4.392  0.4476  0.7413 -0.4133
  417SOL    HW2 2353   8.183   1.565   4.429 -0.9294  0.4162 -0.8449
  418SOL     OW 2354   1.797   3.145   5.447  0.0685  0.4153  0.3288
  418SOL    HW1 2355   1.849   3.193   5.511  1.2157 -1.7367  1.1089
  418SOL    HW2 2356   1.722   3.112   5.497  1.2188 -1.6820  0.7558
  419SOL     OW 2357   7.236   5.824   4.483  0.5073 -0.4396 -0.0091
  419SOL    HW1 2358   7.256   5.918   4.488  0.1914 -0.4125  2.5499
  419SOL    HW2 2359   7.276   5.788   4.562 -1.0469 -2.0929  0.0853
  420SOL     OW 2360   1.336   8.243   6.053  0.2541 -0.2529  0.0479
  420SOL    HW1 2361   1.354   8.173   5.990 -1.1355 -0.7172  0.1161
  420SOL    HW2 2362   1.336   8.199   6.138 -0.6129 -0.1863  0.0927
  421SOL     OW 2363   0.508   1.151   2.495 -0.1164 -0.3759 -0.4989
  421SOL    HW1 2364   0.531   1.191   2.411  0.2448 -2.3271 -1.4074
  421SOL    HW2 2365   0.547   1.208   2.561 -0.3254  1.1557 -1.6478
  422SOL     OW 2366   5.064   7.570   3.600  0.1109  0.5220  0.4435
  422SOL    HW1 2367   4.972   7.600   3.600  0.3029  1.1228 -0.0461
  422SOL    HW2 2368   5.106   7.622   3.532  0.4087 -1.0746 -0.6397
  423SOL     OW 2369   0.843   2.230   5.791  0.1324  0.4803  0.4659
  423SOL    HW1 2370   0.906   2.162   5.767 -0.5612 -0.7135  1.8694
  423SOL    HW2 2371   0.757   2.192   5.773 -0.2823  2.2954 -1.9736
  424SOL     OW 2372   3.634   4.082   7.024 -0.4323  0.0139 -0.2070
  424SOL    HW1 2373   3.627   4.155   6.963  0.8767 -0.6832 -1.2321
  424SOL    HW2 2374   3.601   4.006   6.974 -1.1894 -0.2195  0.6256
  425SOL     OW 2375   2.453   5.318   5.385 -0.4738  0.2764  0.0301
  425SOL    HW1 2376   2.460   5.302   5.479  0.7334  0.2698 -0.0481
  425SOL    HW2 2377   2.541   5.346   5.358 -1.0537  1.3191 -0.9065
  426SOL     OW 2378   1.757   2.834   4.162 -0.3352  0.2259 -0.2794
  426SOL    HW1 2379   1.686   2.836   4.226  0.0693  1.1648  0.1582
  426SOL    HW2 2380   1.714   2.814   4.079 -0.8285 -1.2954  0.3129
  427SOL     OW 2381   6.834   1.518   0.307 -0.1725  0.5332 -0.3250
  427SOL    HW1 2382   6.816   1.442   0.361 -1.1044  1.2223  0.3716
  427SOL    HW2 2383   6.867   1.482   0.225 -0.8560 -0.6325 -0.1115
  428SOL     OW 2384   0.901   6.761   5.512  0.1329 -0.3714 -0.4979
  428SOL    HW1 2385   0.979   6.803   5.477  1.3480  0.7567  3.1247
  428SOL    HW2 2386   0.835   6.830   5.513  0.0122 -0.4807 -0.7885
  429SOL     OW 2387   0.125   0.076   7.618  0.2450 -0.3945 -0.2896
  429SOL    HW1 2388   0.199   0.136   7.626 -0.2516  0.1604  0.2939
  429SOL    HW2 2389   0.047   0.132   7.630 -0.2424 -1.0627 -0.2765
  430SOL     OW 2390   8.512   5.159   6.548 -0.5773  0.1995 -0.2475
  430SOL    HW1 2391   8.445   5.173   6.481 -1.0056 -1.1806 -0.1383
  430SOL    HW2 2392   8.477   5.088   6.602  0.3400  0.4287  0.6751
  431SOL     OW 2393   0.724   7.861   6.470  0.5141 -0.7209  0.9728
  431SOL    HW1 2394   0.669   7.802   6.522 -0.9119 -0.4523 -0.1595
  431SOL    HW2 2395   0.738   7.813   6.387  1.3617 -0.4589  0.9571
  432SOL     OW 2396   5.440   1.373   5.975  0.1085 -0.0353 -0.1862
  432SOL    HW1 2397   5.364   1.324   5.945 -1.1203  2.2167 -0.8700
  432SOL    HW2 2398   5.430   1.377   6.070  0.2534 -1.0620 -0.1065
  433SOL     OW 2399   5.469   7.205   0.700  0.0273  0.3578 -0.2454
  433SOL    HW1 2400   5.511   7.135   0.750  0.0009 -0.2400 -1.0554
  433SOL    HW2 2401   5.542   7.257   0.665  0.0486  0.6125  0.1652
  434SOL     OW 2402   0.546   7.161   0.286  0.2513  0.2034 -0.0516
  434SOL    HW1 2403   0.538   7.123   0.373 -0.8430  1.4523  0.4343
  434SOL    HW2 2404   0.493   7.240   0.289 -1.7886 -0.9065 -2.5706
  435SOL     OW 2405   4.766   3.957   7.674  0.1590 -0.3011 -0.4364
  435SOL    HW1 2406   4.801   3.874   7.707  3.8938  1.5858  0.9872
  435SOL    HW2 2407   4.742   4.006   7.752  1.6515  1.2875 -0.8933
  436SOL     OW 2408   4.522   0.945   0.885  0.1523  0.0987 -1.0055
  436SOL    HW1 2409   4.614   0.961   0.865  0.1395 -0.9639 -1.9898
  436SOL    HW2 2410   4.512   0.850   0.877 -0.4113 -0.1594  1.8001
  437SOL     OW 2411   0.925   6.952   2.184  0.5657  0.2408 -0.2145
  437SOL    HW1 2412   0.895   6.984   2.098  2.3042  2.2235 -0.1658
  437SOL    HW2 2413   1.008   6.909   2.165  1.1368  1.0069  0.4895
  438SOL     OW 2414   1.454   5.823   0.334 -0.7274  0.3749 -0.1073
  438SOL    HW1 2415   1.409   5.824   0.418  0.4556 -0.0048  0.5418
  438SOL    HW2 2416   1.535   5.775   0.350 -0.4217  0.4053 -1.4337
  439SOL     OW 2417   3.301   4.009   7.887  0.1667  0.9354  0.0885
  439SOL    HW1 2418   3.234   4.052   7.939 -1.5524 -2.3752  0.8954
  439SOL    HW2 2419   3.258   3.990   7.803 -0.1085 -1.4072  0.6872
  440SOL     OW 2420   4.802   3.956   5.169 -0.3244  0.1600 -0.0345
  440SOL    HW1 2421   4.746   3.885   5.137  0.2211  0.2089 -1.1434
  440SOL    HW2 2422   4.841   3.993   5.090  1.5127 -0.0780  0.7106
  441SOL     OW 2423   2.109   2.891   2.474 -0.5536 -0.4199 -0.2834
  441SOL    HW1 2424   2.201   2.874   2.452 -0.3383  0.3403 -0.0169
  441SOL    HW2 2425   2.089   2.827   2.542 -0.7995 -1.8460 -1.6406
  442SOL     OW 2426   2.945   6.018   7.823 -0.1702  0.1019  0.2322
  442SOL    HW1 2427   3.000   5.941   7.812 -0.2575  0.1864 -0.9298
  442SOL    HW2 2428   2.985   6.084   7.766 -0.1817  0.8691  1.1002
  443SOL     OW 2429   3.292   6.344   5.671 -0.1040 -0.2457  0.5266
  443SOL    HW1 2430   3.254   6.328   5.758  1.5336 -0.9861  1.1442
  443SOL    HW2 2431   3.356   6.274   5.660  0.6037  0.5777 -0.7576
  444SOL     OW 2432   1.122   7.503   4.053  0.0037  0.1821 -0.9556
  444SOL    HW1 2433   1.083   7.419   4.077 -2.7105  0.8282 -2.7375
  444SOL    HW2 2434   1.207   7.480   4.016 -0.8965 -1.8405 -1.8765
  445SOL     OW 2435   0.642   0.506   8.126 -0.8163 -0.2299  0.2570
  445SOL    HW1 2436   0.582   0.579   8.111  0.8418  1.4007  1.2189
  445SOL    HW2 2437   0.589   0.441   8.173 -1.6744  1.4605  1.7183
  446SOL     OW 2438   6.245   3.624   3.813  0.3785 -0.8168 -0.5857
  446SOL    HW1 2439   6.334   3.611   3.844 -0.0724  0.3279  1.3856
  446SOL    HW2 2440   6.191   3.617   3.891 -1.0253  0.6181 -1.3546
  447SOL     OW 2441   0.683   3.206   2.202 -0.9029  0.5227  0.1398
  447SOL    HW1 2442   0.604   3.153   2.207 -0.5947 -0.5259 -3.2906
  447SOL    HW2 2443   0.651   3.294   2.178 -1.1452 -0.3067 -3.1286
  448SOL     OW 2444   4.972   9.085   7.196  0.3267  0.2600 -0.1057
  448SOL    HW1 2445   4.935   9.019   7.138  1.4568  0.8084 -1.5206
  448SOL    HW2 2446   5.049   9.043   7.235  1.2934  0.8172 -1.3305
  449SOL     OW 2447   6.515   2.255   4.302 -0.6444 -0.1213 -0.2982
  449SOL    HW1 2448   6.557   2.320   4.245  0.5580  0.6731  1.3925
  449SOL    HW2 2449   6.587   2.221   4.356 -1.9035  0.1940  1.6730
  450SOL     OW 2450   3.929   8.869   8.396 -0.5786  1.0209 -0.7194
  450SOL    HW1 2451   3.891   8.787   8.429 -3.2477  1.9457 -1.2035
  450SOL    HW2 2452   3.997   8.891   8.459 -0.3396 -1.1405 -0.1303
  451SOL     OW 2453   0.831   7.797   1.088 -0.4137  0.2608  0.0769
  451SOL    HW1 2454   0.750   7.772   1.132 -0.2591  0.8680  0.7175
  451SOL    HW2 2455   0.871   7.714   1.062 -1.1849 -0.0420 -0.1487
  452SOL     OW 2456   5.374   2.687   7.428  0.1138  0.8861  0.2532
  452SOL    HW1 2457   5.458   2.665   7.386 -0.8194 -0.4146 -1.0284
  452SOL    HW2 2458   5.362   2.618   7.493  0.8970  2.1337  1.7889
  453SOL     OW 2459   5.723   5.805   8.338 -0.2616 -0.3202  0.5247
  453SOL    HW1 2460   5.667   5.751   8.282 -0.9463 -0.1680  1.0526
  453SOL    HW2 2461   5.670   5.822   8.416  0.1350  0.7007  0.5808
  454SOL     OW 2462   7.474   8.799   8.102 -0.3882 -0.3502  0.1580
  454SOL    HW1 2463   7.494   8.747   8.024  0.2224  1.6460 -1.0690
  454SOL    HW2 2464   7.538   8.769   8.167  0.1985 -0.8618 -0.6331
  455SOL     OW 2465   7.218   0.056   3.072  0.6895  0.0231 -0.2758
  455SOL    HW1 2466   7.184   0.088   3.155  0.4476 -0.8649 -0.0238
  455SOL    HW2 2467   7.295   0.112   3.055  1.5527 -0.6440  1.2167
  456SOL     OW 2468   0.874   7.193   5.491  0.4408 -0.1627 -0.2194
  456SOL    HW1 2469   0.798   7.140   5.469 -0.8783  1.2352  0.6926
  456SOL    HW2 2470   0.875   7.262   5.425  1.2086 -0.4233 -0.4923
  457SOL     OW 2471   0.213   0.303   5.480 -0.5451 -0.4204  0.5858
  457SOL    HW1 2472   0.301   0.333   5.459 -0.1749 -2.9924 -2.3664
  457SOL    HW2 2473   0.221   0.263   5.566  0.5543  1.3979  1.3911
  458SOL     OW 2474   6.230   6.526   4.897  0.5677  0.0729  0.1281
  458SOL    HW1 2475   6.143   6.518   4.858  0.8538  1.0636 -0.7773
  458SOL    HW2 2476   6.214   6.543   4.989 -0.2005  0.1621 -0.0121
  459SOL     OW 2477   4.519   0.805   5.738  0.0396 -0.1073 -0.0763
  459SOL    HW1 2478   4.610   0.777   5.724  0.7371 -0.1908  3.5571
  459SOL    HW2 2479   4.515   0.892   5.697  1.5677 -0.3253 -0.7692
  460SOL     OW 2480   1.893   0.765   5.682  0.6674 -0.1808  0.3698
  460SOL    HW1 2481   1.929   0.795   5.599 -1.1963  1.4994  0.0943
  460SOL    HW2 2482   1.840   0.688   5.659 -0.0327  0.4215 -0.0604
  461SOL     OW 2483   0.658   8.868   6.636 -0.1106 -0.2636 -0.0348
  461SOL    HW1 2484   0.630   8.816   6.710  0.6398 -0.7030 -0.0473
  461SOL    HW2 2485   0.640   8.959   6.661 -0.4733 -0.4617  0.4053
  462SOL     OW 2486   1.333   8.418   7.316  0.1025  0.4142  0.3125
  462SOL    HW1 2487   1.265   8.387   7.376  0.3638  1.3155  1.1029
  462SOL    HW2 2488   1.339   8.512   7.334  0.6191  0.5828 -0.6991
  463SOL     OW 2489   1.958   4.456   6.400  0.1235  0.0644  0.2432
  463SOL    HW1 2490   1.926   4.493   6.318  1.0617 -0.2607 -0.2930
  463SOL    HW2 2491   1.884   4.463   6.461 -0.6669  0.0633 -0.7002
  464SOL     OW 2492   2.036   5.363   5.400 -0.3821  0.0280 -0.4547
  464SOL    HW1 2493   2.116   5.407   5.374  0.7018 -0.5322  1.6885
  464SOL    HW2 2494   2.064   5.277   5.432 -1.6376  0.2170  1.3738
  465SOL     OW 2495   2.448   3.687   6.783  0.1019  0.2995  0.3012
  465SOL    HW1 2496   2.409   3.754   6.726  2.3938  0.6971 -0.9511
  465SOL    HW2 2497   2.503   3.737   6.844  0.0550 -0.3253  0.8634
  466SOL     OW 2498   8.674   6.329   2.394  0.1343  0.2411  0.0086
  466SOL    HW1 2499   8.663   6.413   2.349  0.7906  0.0407 -0.5508
  466SOL    HW2 2500   8.769   6.319   2.401  0.1169 -1.1482 -1.3006
  467SOL     OW 2501   1.560   1.132   0.795 -0.5748 -0.1979  0.0539
  467SOL    HW1 2502   1.610   1.078   0.856 -0.2335  0.6929  0.5730
  467SOL    HW2 2503   1.626   1.172   0.739 -0.8806 -0.9367 -0.8566
  468SOL     OW 2504   0.157   1.235   2.647 -0.0653 -0.1142  0.1284
  468SOL    HW1 2505   0.241   1.233   2.693 -0.6298 -1.3965  1.1635
  468SOL    HW2 2506   0.094   1.200   2.710 -1.4158  0.9533 -0.5790
  469SOL     OW 2507   5.212   8.517   6.071  0.0754  0.0816 -0.1060
  469SOL    HW1 2508   5.276   8.547   6.007 -0.1709  0.8023 -0.0299
  469SOL    HW2 2509   5.127   8.531   6.029 -0.1246  1.2227  0.6057
  470SOL     OW 2510   7.043   6.671   1.951  0.8641  0.0133 -0.6941
  470SOL    HW1 2511   6.973   6.607   1.966  2.2191 -1.1965  0.8440
  470SOL    HW2 2512   7.041   6.727   2.029  0.9946  0.5610 -1.0843
  471SOL     OW 2513   6.962   3.650   5.309 -0.0626 -0.2006  0.5684
  471SOL    HW1 2514   6.886   3.693   5.271  1.1457 -1.1778 -3.4616
  471SOL    HW2 2515   6.945   3.556   5.299  1.9062 -0.4532 -1.3839
  472SOL     OW 2516   5.125   2.083   0.328 -0.2505  0.4657 -0.3171
  472SOL    HW1 2517   5.115   2.152   0.262  0.8613  0.6594 -0.2930
  472SOL    HW2 2518   5.139   2.130   0.410  2.0078  0.2562 -0.5268
  473SOL     OW 2519   7.452   0.384   2.575 -0.4774  0.0536 -0.2367
  473SOL    HW1 2520   7.364   0.423   2.580  0.2970  2.0066 -0.8383
  473SOL    HW2 2521   7.482   0.404   2.486  0.5061 -0.7384 -0.0960
  474SOL     OW 2522   3.070   1.357   5.905  0.2357 -0.2566  0.3630
  474SOL    HW1 2523   2.988   1.368   5.953 -0.0430  0.5886 -0.2905
  474SOL    HW2 2524   3.138   1.370   5.971 -0.0340  4.2856  0.0772
  475SOL     OW 2525   0.607   1.329   8.543 -0.0159  0.4757 -0.0479
  475SOL    HW1 2526   0.589   1.239   8.517  1.2804  0.0592  0.4302
  475SOL    HW2 2527   0.521   1.367   8.562 -0.5535 -0.7195 -0.0564
  476SOL     OW 2528   5.376   0.807   7.530 -0.5696  0.6065 -0.3943
  476SOL    HW1 2529   5.470   0.786   7.538 -0.6460  0.7353  1.2847
  476SOL    HW2 2530   5.354   0.848   7.613 -2.3185 -0.1823 -0.4243
  477SOL     OW 2531   0.585   8.136   5.236 -0.2907  0.0164 -0.0033
  477SOL    HW1 2532   0.652   8.192   5.277  1.1904 -1.2525 -0.5835
  477SOL    HW2 2533   0.524   8.116   5.306 -0.3811  1.6520  0.4228
  478SOL     OW 2534   4.739   8.576   0.560  0.2050  0.4601  0.3330
  478SOL    HW1 2535   4.648   8.599   0.541  0.2610 -0.5851 -1.3609
  478SOL    HW2 2536   4.763   8.633   0.634 -1.4511  1.5531  0.0797
  479SOL     OW 2537   0.609   7.715   9.085 -0.4460  0.4011 -0.4796
  479SOL    HW1 2538   0.663   7.749   9.156  1.7405  0.7485 -2.1996
  479SOL    HW2 2539   0.525   7.760   9.095  0.1856  1.2782  1.1979
  480SOL     OW 2540   7.855   4.590   8.021 -0.4871 -0.1862 -0.2396
  480SOL    HW1 2541   7.845   4.584   8.116 -0.3729 -1.1281 -0.2789
  480SOL    HW2 2542   7.766   4.610   7.989 -0.5311  0.1046  0.0546
  481SOL     OW 2543   2.554   5.378   3.188 -0.0253 -0.2626 -0.0156
  481SOL    HW1 2544   2.462   5.405   3.188  0.0152  0.1504  2.8276
  481SOL    HW2 2545   2.554   5.290   3.225  0.4708 -1.7936 -3.3456
  482SOL     OW 2546   5.512   8.392   1.821 -0.1846  0.1399  0.2310
  482SOL    HW1 2547   5.460   8.454   1.770  0.4755  1.1075  0.7106
  482SOL    HW2 2548   5.495   8.307   1.780 -0.6474  0.7176 -0.8022
  483SOL     OW 2549   2.511   0.863   2.754 -0.0647 -0.3372 -0.1318
  483SOL    HW1 2550   2.606   0.858   2.760 -0.0012 -0.8923 -1.3685
  483SOL    HW2 2551   2.493   0.876   2.660 -1.1957 -0.0166  0.1084
  484SOL     OW 2552   6.371   5.832   2.041  0.2525 -0.1941 -0.1528
  484SOL    HW1 2553   6.402   5.829   1.951 -1.1037  0.6727 -0.6799
  484SOL    HW2 2554   6.291   5.885   2.037  0.4919  0.3601  1.6556
  485SOL     OW 2555   0.427   7.426   8.621  0.1415  0.0324  0.1530
  485SOL    HW1 2556   0.494   7.491   8.602  0.2029 -0.5773 -1.9684
  485SOL    HW2 2557   0.344   7.473   8.610  0.1975  0.0464 -0.2193
  486SOL     OW 2558   1.304   1.851   0.191  0.7320 -0.3825 -0.9540
  486SOL    HW1 2559   1.304   1.912   0.264  1.2359 -1.4261 -0.0554
  486SOL    HW2 2560   1.213   1.846   0.163  0.0235 -2.0068  1.3709
  487SOL     OW 2561   4.006   7.054   4.679 -0.0978 -0.7488  0.0125
  487SOL    HW1 2562   4.052   7.120   4.731  0.3991 -1.2868  0.2710
  487SOL    HW2 2563   3.932   7.028   4.735 -0.7574  0.1393 -0.4166
  488SOL     OW 2564   2.309   1.764   6.502  0.2300 -0.1815  0.1106
  488SOL    HW1 2565   2.392   1.718   6.515  1.0082  1.6205  2.0981
  488SOL    HW2 2566   2.275   1.779   6.591 -1.2025  0.8957 -0.5679
  489SOL     OW 2567   3.534   5.746   5.525 -0.2506 -0.6465 -0.1419
  489SOL    HW1 2568   3.515   5.804   5.451  0.9213 -0.7368 -0.5308
  489SOL    HW2 2569   3.548   5.660   5.486  1.8634 -0.4066 -0.0228
  490SOL     OW 2570   7.941   6.848   2.656 -0.6772  0.3987 -0.1472
  490SOL    HW1 2571   7.995   6.836   2.578  1.3111 -0.1774  1.2165
  490SOL    HW2 2572   7.931   6.760   2.692  0.5293  0.8722  1.4923
  491SOL     OW 2573   1.191   8.448   0.275  0.1852 -0.0595 -0.1076
  491SOL    HW1 2574   1.240   8.388   0.219  1.9873 -0.6123  1.9063
  491SOL    HW2 2575   1.159   8.393   0.347 -1.5053  0.7274 -0.2010
  492SOL     OW 2576   1.749   5.594   5.383 -0.0571  0.5239  0.1361
  492SOL    HW1 2577   1.832   5.638   5.364 -0.6979  0.9473 -1.9521
  492SOL    HW2 2578   1.683   5.662   5.369 -0.8292 -0.0933  0.7153
  493SOL     OW 2579   6.543   3.226   5.577 -0.4650 -0.5079  0.0444
  493SOL    HW1 2580   6.608   3.178   5.628 -0.2129  0.1433  0.3401
  493SOL    HW2 2581   6.504   3.160   5.521  0.9827 -0.7943 -0.6905
  494SOL     OW 2582   0.087   5.845   2.044  0.7355  0.1939  0.0593
  494SOL    HW1 2583   0.052   5.788   1.974  0.2762  0.1118  0.3496
  494SOL    HW2 2584   0.132   5.915   1.997  0.8087 -0.0950 -0.3138
  495SOL     OW 2585   2.570   2.141   1.372  0.4597  0.4869 -0.0827
  495SOL    HW1 2586   2.564   2.085   1.295 -2.2273  0.8497 -0.2388
  495SOL    HW2 2587   2.547   2.083   1.445  0.0677  0.7986  0.0488
  496SOL     OW 2588   9.100   2.718   0.767 -0.1743 -0.3169 -0.4880
  496SOL    HW1 2589   9.171   2.674   0.814 -0.7085  0.6111  1.2945
  496SOL    HW2 2590   9.021   2.671   0.795 -0.4226 -0.3451 -1.2204
  497SOL     OW 2591   5.074   5.045   8.058 -0.6672 -0.8938 -0.4484
  497SOL    HW1 2592   5.149   5.045   8.118 -1.4066  2.0480  0.6325
  497SOL    HW2 2593   5.006   4.998   8.106 -0.8566  0.3385  0.5452
  498SOL     OW 2594   8.396   0.172   1.925  0.3335 -0.9810  0.5109
  498SOL    HW1 2595   8.466   0.107   1.922 -1.4459 -3.0022  1.0461
  498SOL    HW2 2596   8.319   0.124   1.952 -1.2170  1.2652  0.3607
  499SOL     OW 2597   1.252   4.784   0.448 -0.6742  0.0102  0.2076
  499SOL    HW1 2598   1.160   4.797   0.425 -1.0618  0.2473  1.7836
  499SOL    HW2 2599   1.250   4.720   0.520  0.5379 -1.3923 -0.9462
  500SOL     OW 2600   7.230   3.540   7.234  0.2856 -0.1991 -0.2717
  500SOL    HW1 2601   7.314   3.499   7.255 -0.2615 -1.5685 -0.6431
  500SOL    HW2 2602   7.229   3.546   7.139 -0.4064 -1.0351 -0.3280
  501SOL     OW 2603   3.052   3.197   4.171 -0.1952 -0.5060 -0.0475
  501SOL    HW1 2604   3.005   3.120   4.141 -1.9648 -0.0780  1.4519
  501SOL    HW2 2605   3.084   3.174   4.259 -0.5137  0.3460  0.3104
  502SOL     OW 2606   7.263   7.332   0.270 -0.4147  0.2668 -0.4576
  502SOL    HW1 2607   7.239   7.328   0.178 -2.1077  0.5620 -0.0617
  502SOL    HW2 2608   7.191   7.380   0.312 -0.6085 -1.4510  1.3156
  503SOL     OW 2609   1.582   8.854   6.036  0.5718  0.5033  0.4037
  503SOL    HW1 2610   1.658   8.844   5.978  0.6497  1.2487  0.3676
  503SOL    HW2 2611   1.589   8.943   6.069 -1.1628  1.1511 -0.8270
  504SOL     OW 2612   5.667   8.465   4.520  0.6876 -0.2134 -0.1504
  504SOL    HW1 2613   5.580   8.505   4.530  0.4095 -1.3206  4.5390
  504SOL    HW2 2614   5.649   8.374   4.497  0.2294 -0.9914  2.7704
  505SOL     OW 2615   1.764   8.314   7.867 -0.1843  0.0664  0.0076
  505SOL    HW1 2616   1.683   8.364   7.864  0.2078  0.6415 -1.8883
  505SOL    HW2 2617   1.811   8.349   7.943 -1.7106 -0.3571  1.2120
  506SOL     OW 2618   4.073   1.545   3.063 -0.2779  0.1617 -0.4046
  506SOL    HW1 2619   4.070   1.603   2.987  1.2278 -0.1605 -0.7433
  506SOL    HW2 2620   4.092   1.459   3.027 -1.4387 -0.3624  0.1896
  507SOL     OW 2621   6.541   3.587   4.334 -0.0290 -0.3311  0.0994
  507SOL    HW1 2622   6.488   3.534   4.274  0.0298 -1.5754  1.1087
  507SOL    HW2 2623   6.520   3.677   4.311 -2.3171 -0.7775  0.2121
  508SOL     OW 2624   6.258   4.084   7.644  0.1450  0.3054  0.5082
  508SOL    HW1 2625   6.230   4.170   7.613  0.6645  0.5214  0.6094
  508SOL    HW2 2626   6.179   4.031   7.645 -0.5003  1.2102  1.9078
  509SOL     OW 2627   3.993   0.701   4.362 -0.0391  0.1952 -0.0336
  509SOL    HW1 2628   4.066   0.761   4.369 -0.6679  0.9477  0.1868
  509SOL    HW2 2629   3.997   0.669   4.271 -0.0565  1.0401 -0.3400
  510SOL     OW 2630   2.040   4.293   6.971  0.6485  0.0358 -0.0679
  510SOL    HW1 2631   2.081   4.288   6.885  0.7193  1.0530 -0.1025
  510SOL    HW2 2632   1.992   4.210   6.980  0.9364 -0.2317 -0.9255
  511SOL     OW 2633   6.464   2.410   6.720 -0.1802  0.1636 -0.2442
  511SOL    HW1 2634   6.391   2.373   6.769  0.8309 -1.1494  0.3169
  511SOL    HW2 2635   6.539   2.356   6.743  0.8668  1.1203 -1.2551
  512SOL     OW 2636   4.384   0.369   4.379 -0.1697 -0.2998  0.0819
  512SOL    HW1 2637   4.330   0.440   4.344  1.6947  0.9397 -0.4107
  512SOL    HW2 2638   4.321   0.307   4.415 -1.8995  1.2428 -0.1342
  513SOL     OW 2639   2.368   0.694   8.097  0.1046  0.0208 -0.2105
  513SOL    HW1 2640   2.292   0.678   8.042  0.4155 -0.3630 -0.5367
  513SOL    HW2 2641   2.417   0.762   8.051  0.7910 -0.8773 -0.8624
  514SOL     OW 2642   2.607   5.607   8.734  0.2186 -0.0698 -0.1582
  514SOL    HW1 2643   2.650   5.542   8.789 -1.3241  0.7093  2.1261
  514SOL    HW2 2644   2.655   5.688   8.749 -1.5694  0.6740  1.9675
  515SOL     OW 2645   0.460   1.274   5.540  0.3485 -0.0779  0.0708
  515SOL    HW1 2646   0.408   1.195   5.522  0.9958 -0.5336  0.1691
  515SOL    HW2 2647   0.396   1.345   5.539 -0.3565 -0.6799  0.6149
  516SOL     OW 2648   7.940   6.011   7.074 -0.0592  0.0466 -0.1364
  516SOL    HW1 2649   8.030   5.984   7.090 -0.0563  0.0148 -0.2044
  516SOL    HW2 2650   7.942   6.049   6.986  0.1333  1.1017  0.2948
  517SOL     OW 2651   7.857   1.498   6.043 -0.1555  0.1104  0.1414
  517SOL    HW1 2652   7.909   1.566   6.087  0.6523 -0.6119  0.3308
  517SOL    HW2 2653   7.830   1.439   6.113 -0.8607  0.2341 -0.0203
  518SOL     OW 2654   0.645   5.019   1.888  0.6425 -0.4824  0.1230
  518SOL    HW1 2655   0.643   5.010   1.792  0.6552 -0.9584  0.1651
  518SOL    HW2 2656   0.671   4.932   1.919 -0.1068 -0.5413  0.5967
  519SOL     OW 2657   6.458   8.819   2.918 -0.1742 -0.2294  0.3242
  519SOL    HW1 2658   6.366   8.809   2.941 -0.8985  2.3197 -1.0909
  519SOL    HW2 2659   6.495   8.868   2.992  0.2735 -1.8418  1.2169
  520SOL     OW 2660   7.783   1.009   3.270 -0.0307  0.3085  0.4674
  520SOL    HW1 2661   7.793   0.954   3.193  0.1613  1.4400 -0.3317
  520SOL    HW2 2662   7.814   0.954   3.343 -0.9480 -1.0479 -0.1241
  521SOL     OW 2663   4.911   6.412   1.146 -0.2603  0.3154  0.2291
  521SOL    HW1 2664   4.938   6.388   1.057 -2.3824 -2.4056  0.1705
  521SOL    HW2 2665   4.984   6.385   1.201  0.8096  1.4190 -0.6118
  522SOL     OW 2666   3.222   5.297   4.452  0.1924  0.4874 -0.0786
  522SOL    HW1 2667   3.305   5.259   4.482  0.5475  0.0036 -1.6022
  522SOL    HW2 2668   3.208   5.373   4.509  1.3008  0.1462  0.6745
  523SOL     OW 2669   7.903   8.187   6.933  0.1915 -0.2074 -0.0089
  523SOL    HW1 2670   7.814   8.179   6.899  0.2323  0.5284 -0.2966
  523SOL    HW2 2671   7.895   8.176   7.027 -0.0406 -1.3823 -0.1514
  524SOL     OW 2672   0.726   5.418   3.600  0.5909  0.0403 -0.4601
  524SOL    HW1 2673   0.763   5.470   3.529  0.6212 -0.6386 -0.9449
  524SOL    HW2 2674   0.643   5.386   3.566 -1.6121  3.2427  1.2946
  525SOL     OW 2675   6.916   0.997   4.697 -0.0723  0.1024  0.4092
  525SOL    HW1 2676   6.873   1.013   4.613 -1.6349 -1.5795  0.8195
  525SOL    HW2 2677   6.885   0.910   4.723  1.0865  0.2119  2.3068
  526SOL     OW 2678   7.745   1.869   4.193  0.2791  0.0073  0.5683
  526SOL    HW1 2679   7.662   1.904   4.223  0.9306  0.1154  2.3586
  526SOL    HW2 2680   7.758   1.789   4.244 -0.9834 -2.8548 -3.1075
  527SOL     OW 2681   8.907   4.265   3.463  0.1323  0.5742 -0.0209
  527SOL    HW1 2682   8.979   4.326   3.445  0.1043  0.9506  1.0942
  527SOL    HW2 2683   8.939   4.210   3.534 -0.2437 -0.0469 -0.3217
  528SOL     OW 2684   1.800   2.278   8.438  0.4454 -0.2829  0.1808
  528SOL    HW1 2685   1.851   2.334   8.497  1.3509 -1.6504  0.7248
  528SOL    HW2 2686   1.737   2.338   8.398 -0.7824  0.5905  3.1354
  529SOL     OW 2687   2.494   1.766   1.233  0.7490  0.0607  0.0860
  529SOL    HW1 2688   2.453   1.835   1.287  0.3136  0.8402 -1.1903
  529SOL    HW2 2689   2.447   1.686   1.258  0.8720  0.3060  1.1878
  530SOL     OW 2690   0.908   5.658   1.435 -0.2053  0.4115  0.2468
  530SOL    HW1 2691   0.866   5.639   1.519  1.3642 -1.1270  0.7533
  530SOL    HW2 2692   1.001   5.663   1.456  0.1173  1.0922 -1.2442
  531SOL     OW 2693   7.764   1.500   2.651  0.1280  0.2627 -0.4432
  531SOL    HW1 2694   7.839   1.551   2.680 -0.0303  0.9884 -1.2676
  531SOL    HW2 2695   7.773   1.416   2.696  1.5381  0.2646 -0.6714
  532SOL     OW 2696   8.605   3.288   7.295 -0.1763  0.0128 -0.1245
  532SOL    HW1 2697   8.652   3.345   7.236 -0.7018 -0.0999 -0.6656
  532SOL    HW2 2698   8.670   3.224   7.324  0.1521  0.2372 -0.3607
  533SOL     OW 2699   2.717   6.549   7.026 -0.6047  0.4455 -0.7744
  533SOL    HW1 2700   2.793   6.579   7.076 -0.9571  0.6354 -0.3435
  533SOL    HW2 2701   2.735   6.576   6.936  0.0410  0.0890 -0.7567
  534SOL     OW 2702   6.249   2.669   3.176 -0.1843  0.3265  0.2922
  534SOL    HW1 2703   6.158   2.677   3.147  0.1735 -1.2085 -1.4074
  534SOL    HW2 2704   6.270   2.577   3.165  1.3760  0.5038  1.3998
  535SOL     OW 2705   2.467   5.776   3.557  0.2764 -0.4027  0.2579
  535SOL    HW1 2706   2.394   5.783   3.495 -0.4857 -1.4091  1.0235
  535SOL    HW2 2707   2.462   5.857   3.608  1.1833  0.6601 -1.2217
  536SOL     OW 2708   3.303   7.974   2.557  0.1889 -0.6562  0.0220
  536SOL    HW1 2709   3.247   8.006   2.628 -2.0109 -0.9236 -1.4732
  536SOL    HW2 2710   3.270   7.886   2.539 -0.7801  0.1527 -2.6628
  537SOL     OW 2711   5.850   0.561   2.431  0.4868 -0.2648  0.2977
  537SOL    HW1 2712   5.941   0.550   2.402 -0.0868 -1.4231 -1.2018
  537SOL    HW2 2713   5.808   0.610   2.360 -0.3067 -0.6919  0.4616
  538SOL     OW 2714   3.918   2.355   8.052 -0.0034  0.2087  0.2091
  538SOL    HW1 2715   3.935   2.409   7.975  0.7169  0.5811  0.6118
  538SOL    HW2 2716   3.971   2.396   8.121  1.1233 -1.4199  0.3641
  539SOL     OW 2717   0.633   8.461   2.488  0.5234  0.3686  0.2578
  539SOL    HW1 2718   0.577   8.536   2.509  1.2887  1.2803 -0.8343
  539SOL    HW2 2719   0.678   8.442   2.570 -1.4635 -0.5008  1.2147
  540SOL     OW 2720   7.861   3.112   1.550 -0.6753  0.3443 -0.0112
  540SOL    HW1 2721   7.773   3.074   1.551 -0.2121 -0.7976  2.0755
  540SOL    HW2 2722   7.896   3.089   1.464 -1.5173 -1.3874  0.0674
  541SOL     OW 2723   5.099   0.251   4.744 -0.0896  0.3638  0.2074
  541SOL    HW1 2724   5.039   0.202   4.801  0.5113 -1.4121 -0.6207
  541SOL    HW2 2725   5.097   0.340   4.778 -3.4540  0.4985  0.0459
  542SOL     OW 2726   3.713   5.043   4.817  0.3503  0.4796 -0.0046
  542SOL    HW1 2727   3.685   4.954   4.836  0.2336  0.5579  0.1856
  542SOL    HW2 2728   3.765   5.069   4.893  0.0430  0.7225  0.1225
  543SOL     OW 2729   0.504   8.657   1.962  0.2353  0.1322  0.4529
  543SOL    HW1 2730   0.488   8.749   1.940  0.2809  0.0659  0.1300
  543SOL    HW2 2731   0.538   8.619   1.881  0.2611 -0.1589  0.5989
  544SOL     OW 2732   6.519   3.963   5.036 -0.3773  0.4136 -0.4897
  544SOL    HW1 2733   6.468   3.885   5.016 -3.1884  1.4839  1.7376
  544SOL    HW2 2734   6.567   3.940   5.116  0.9505  0.1412 -1.3403
  545SOL     OW 2735   8.718   5.683   5.927 -0.2165 -0.4418  0.1019
  545SOL    HW1 2736   8.639   5.704   5.976 -0.4594 -0.4603 -0.2787
  545SOL    HW2 2737   8.750   5.767   5.895  0.8638 -0.2122  1.6490
  546SOL     OW 2738   3.212   6.540   1.960  0.7889 -0.1783 -0.0842
  546SOL    HW1 2739   3.250   6.575   2.040  0.9794 -0.1492 -0.1888
  546SOL    HW2 2740   3.247   6.595   1.890  0.2170  0.1221 -0.1375
  547SOL     OW 2741   6.888   1.500   4.943 -0.4624 -0.0750 -0.1297
  547SOL    HW1 2742   6.905   1.428   5.004  0.6639  0.1951 -0.1131
  547SOL    HW2 2743   6.799   1.483   4.911 -1.1051 -0.1849  1.6181
  548SOL     OW 2744   4.824   8.590   9.124 -0.2340  0.6161  0.1371
  548SOL    HW1 2745   4.879   8.523   9.082  0.1944  0.4105  1.0037
  548SOL    HW2 2746   4.877   8.670   9.120  0.0123  0.4824  0.7229
  549SOL     OW 2747   2.851   3.926   2.304  0.3952 -0.2803 -0.0114
  549SOL    HW1 2748   2.837   3.996   2.368  3.8348  1.5140 -0.9770
  549SOL    HW2 2749   2.770   3.925   2.252  0.0354  2.6905  0.3192
  550SOL     OW 2750   7.343   3.109   2.222  0.1811 -0.4355 -0.0034
  550SOL    HW1 2751   7.275   3.138   2.282  1.0204 -0.5711  1.0371
  550SOL    HW2 2752   7.310   3.028   2.185  0.1065 -0.9154  1.0905
  551SOL     OW 2753   7.342   0.451   4.287 -0.0987  0.6039 -0.1368
  551SOL    HW1 2754   7.375   0.469   4.375 -0.1751  1.5728 -0.2846
  551SOL    HW2 2755   7.247   0.445   4.298 -0.1824  1.5259 -0.2580
  552SOL     OW 2756   1.588   6.437   8.363 -0.4594 -0.4461 -0.2727
  552SOL    HW1 2757   1.654   6.419   8.296  2.3850  0.1678  2.1270
  552SOL    HW2 2758   1.580   6.356   8.412 -0.8214 -0.2438  0.0085
  553SOL     OW 2759   4.986   1.760   7.995 -0.0568 -0.0375 -0.6823
  553SOL    HW1 2760   4.983   1.797   7.907  0.5540 -0.6169 -0.9468
  553SOL    HW2 2761   4.896   1.769   8.027  0.0295  1.5649 -0.7764
  554SOL     OW 2762   8.141   5.620   4.211 -0.2018  0.4353  0.3399
  554SOL    HW1 2763   8.195   5.648   4.136 -1.1334  0.7463 -0.2314
  554SOL    HW2 2764   8.198   5.631   4.287 -0.0626  2.6135 -0.0099
  555SOL     OW 2765   7.859   7.518   3.866 -0.0254 -0.3748 -0.4699
  555SOL    HW1 2766   7.891   7.450   3.808 -0.2348  1.3973 -2.8083
  555SOL    HW2 2767   7.894   7.599   3.830  1.0029  0.7647  2.7424
  556SOL     OW 2768   4.402   2.741   0.349  0.1593 -0.7737 -0.0499
  556SOL    HW1 2769   4.329   2.680   0.348 -0.9286  0.4619 -1.4669
  556SOL    HW2 2770   4.426   2.752   0.257  1.2957 -0.1722  0.2867
  557SOL     OW 2771   7.833   5.129   5.458  0.1481  0.4787  0.2698
  557SOL    HW1 2772   7.801   5.045   5.490 -0.2095  0.9186  1.0910
  557SOL    HW2 2773   7.807   5.192   5.525  1.2811  1.1015  0.1564
  558SOL     OW 2774   5.343   1.119   1.444 -0.4275 -0.1720 -0.4795
  558SOL    HW1 2775   5.401   1.105   1.519 -1.6332 -2.6389  0.0751
  558SOL    HW2 2776   5.317   1.031   1.417 -1.6528  0.7553 -2.5311
  559SOL     OW 2777   7.449   2.767   6.771 -0.0060  0.6078  0.0416
  559SOL    HW1 2778   7.478   2.677   6.758 -0.5100  0.5599 -0.8238
  559SOL    HW2 2779   7.497   2.818   6.705 -1.1185  0.6699 -0.7562
  560SOL     OW 2780   4.980   8.297   8.765 -0.0171  0.1500  0.1890
  560SOL    HW1 2781   4.936   8.257   8.840 -0.3587 -0.9958 -0.5963
  560SOL    HW2 2782   5.030   8.226   8.726 -0.7707  0.4115 -1.3499
  561SOL     OW 2783   2.684   3.470   8.362 -0.6856  0.1486 -0.6070
  561SOL    HW1 2784   2.611   3.478   8.422 -0.7120 -1.8850 -0.2810
  561SOL    HW2 2785   2.644   3.447   8.278 -0.5404  1.3855 -1.0405
  562SOL     OW 2786   1.475   1.673   6.457  0.4415  0.7299  0.5011
  562SOL    HW1 2787   1.508   1.755   6.494  0.3705  0.0911  2.0234
  562SOL    HW2 2788   1.393   1.698   6.413  1.3473  1.7811 -0.6573
  563SOL     OW 2789   8.612   1.293   7.970  0.3414 -0.1526 -0.4856
  563SOL    HW1 2790   8.682   1.227   7.967 -0.6010 -1.2150 -0.1449
  563SOL    HW2 2791   8.533   1.244   7.948 -0.3269  0.9803 -0.6552
  564SOL     OW 2792   8.160   3.684   2.418 -0.0099  0.1737  0.0376
  564SOL    HW1 2793   8.201   3.598   2.429 -0.7102 -0.0881  0.7259
  564SOL    HW2 2794   8.146   3.693   2.323 -1.4826 -1.2319  0.0781
  565SOL     OW 2795   3.732   3.185   3.888 -0.4255 -0.7981 -0.3582
  565SOL    HW1 2796   3.757   3.276   3.906  0.3536 -0.6888 -1.8726
  565SOL    HW2 2797   3.698   3.153   3.972  0.0644  0.6261  0.4228
  566SOL     OW 2798   3.125   8.866   8.776 -1.3108  0.4950 -0.1692
  566SOL    HW1 2799   3.080   8.909   8.849 -0.0937  0.0377  0.8959
  566SOL    HW2 2800   3.056   8.819   8.729 -2.0280  0.2054  1.1274
  567SOL     OW 2801   1.388   7.833   1.605  0.6147 -0.2638 -0.0933
  567SOL    HW1 2802   1.310   7.875   1.642  1.0383  0.1457  0.3556
  567SOL    HW2 2803   1.396   7.751   1.653  1.7760  0.7454  1.5507
  568SOL     OW 2804   4.147   3.331   7.130  0.6259 -0.0260 -0.2172
  568SOL    HW1 2805   4.116   3.267   7.194  0.6121  0.6459  0.4586
  568SOL    HW2 2806   4.234   3.355   7.162  0.1893  1.1028  0.1546
  569SOL     OW 2807   2.282   7.624   5.339 -0.2483  0.2326 -0.5691
  569SOL    HW1 2808   2.253   7.704   5.383 -0.6788 -0.2896  0.1384
  569SOL    HW2 2809   2.273   7.556   5.406  2.0627 -0.0852 -0.4988
  570SOL     OW 2810   8.690   6.720   2.547 -0.2689 -0.1041  0.3835
  570SOL    HW1 2811   8.649   6.644   2.590  0.3432 -0.3587  0.5247
  570SOL    HW2 2812   8.695   6.786   2.616 -0.3937 -0.0866  0.3777
  571SOL     OW 2813   1.451   2.755   2.851 -0.0837 -0.7422 -0.5450
  571SOL    HW1 2814   1.526   2.800   2.890 -0.5337 -1.6032  1.4107
  571SOL    HW2 2815   1.485   2.721   2.768  1.7082 -1.0999  0.2760
  572SOL     OW 2816   1.364   0.097   3.275  0.0704 -0.1142 -0.4413
  572SOL    HW1 2817   1.434   0.045   3.314  0.9478  1.1560 -0.2580
  572SOL    HW2 2818   1.310   0.122   3.350 -1.2094 -1.9268 -0.6930
  573SOL     OW 2819   8.671   3.248   6.746 -0.1221  0.0002 -0.1142
  573SOL    HW1 2820   8.666   3.322   6.685 -0.5768 -0.3888 -0.5598
  573SOL    HW2 2821   8.621   3.179   6.703  1.3330 -0.9913 -0.2820
  574SOL     OW 2822   4.229   6.734   8.012  0.0815 -0.5834 -0.2995
  574SOL    HW1 2823   4.191   6.675   8.077 -1.8133  0.8705 -0.0158
  574SOL    HW2 2824   4.154   6.778   7.972  1.4015  2.2838  0.1416
  575SOL     OW 2825   8.182   1.106   5.981 -0.0102 -0.1534 -0.3371
  575SOL    HW1 2826   8.095   1.146   5.987 -0.5032 -1.3372  1.5913
  575SOL    HW2 2827   8.164   1.013   5.966  0.8885 -0.4484  0.3081
  576SOL     OW 2828   3.198   4.755   8.946 -0.0957  0.2111  0.4341
  576SOL    HW1 2829   3.121   4.699   8.934  1.2741 -1.6218 -0.5109
  576SOL    HW2 2830   3.196   4.781   9.038 -0.9632 -1.1913  0.8401
  577SOL     OW 2831   6.474   8.382   2.103 -0.0010 -0.5748  0.5877
  577SOL    HW1 2832   6.420   8.371   2.025  0.1976  1.2954  0.1404
  577SOL    HW2 2833   6.553   8.332   2.085  1.0829  1.6922 -1.5023
  578SOL     OW 2834   3.155   8.274   5.212  0.4699 -0.2016  0.5922
  578SOL    HW1 2835   3.142   8.310   5.124  0.6446 -0.8587  0.2872
  578SOL    HW2 2836   3.237   8.313   5.242  1.0539 -0.9134 -0.0403
  579SOL     OW 2837   7.060   3.911   0.859  0.5516  0.3905  0.0122
  579SOL    HW1 2838   7.086   3.829   0.900 -1.3152 -1.0487 -1.5131
  579SOL    HW2 2839   7.137   3.939   0.810  1.2776 -0.3397  0.7206
  580SOL     OW 2840   0.114   3.952   3.708 -0.3996 -0.2982 -0.0086
  580SOL    HW1 2841   0.058   3.948   3.786  0.1192 -0.1764  0.3762
  580SOL    HW2 2842   0.182   3.887   3.724  0.2402  0.3715  0.0648
  581SOL     OW 2843   5.585   4.316   6.719 -0.3578 -0.2996 -0.1622
  581SOL    HW1 2844   5.599   4.227   6.751  3.5522 -0.1356 -0.9707
  581SOL    HW2 2845   5.575   4.306   6.624  0.8792  0.1227 -0.3556
  582SOL     OW 2846   2.553   0.489   8.114  0.1586  0.1748 -0.2804
  582SOL    HW1 2847   2.509   0.573   8.101  0.3703  0.3632  0.2047
  582SOL    HW2 2848   2.619   0.506   8.180 -0.5698 -0.6416  0.7001
  583SOL     OW 2849   7.427   3.014   5.194 -0.0457 -0.0257 -0.3737
  583SOL    HW1 2850   7.480   3.022   5.114 -0.3944 -1.4982 -0.7811
  583SOL    HW2 2851   7.469   2.944   5.244  0.2233  0.9466  0.8094
  584SOL     OW 2852   3.251   6.603   1.235  0.0447  0.1958  0.3779
  584SOL    HW1 2853   3.220   6.658   1.163  0.2752  1.3544  1.1441
  584SOL    HW2 2854   3.299   6.533   1.191 -1.3676 -0.1747 -0.6902
  585SOL     OW 2855   5.936   2.928   4.111  0.7146 -0.4924 -0.0402
  585SOL    HW1 2856   5.924   2.956   4.021 -0.3192  0.5860  0.4017
  585SOL    HW2 2857   6.027   2.950   4.132  1.1987 -1.4715 -1.0373
  586SOL     OW 2858   8.737   2.556   8.167  0.0759  0.1630  0.2593
  586SOL    HW1 2859   8.669   2.604   8.119  0.4630  1.2839  0.7877
  586SOL    HW2 2860   8.709   2.559   8.258 -0.9526 -2.4549  0.1091
  587SOL     OW 2861   6.861   5.694   4.555  0.0936 -0.4845  0.5371
  587SOL    HW1 2862   6.790   5.728   4.501 -0.6050 -0.6452  1.3302
  587SOL    HW2 2863   6.823   5.686   4.643  0.4250 -2.7065  0.5264
  588SOL     OW 2864   2.860   6.888   8.921 -0.1265  0.5091 -0.1047
  588SOL    HW1 2865   2.847   6.951   8.850  0.0376  0.8023  0.1264
  588SOL    HW2 2866   2.779   6.892   8.972 -1.2182 -1.3212 -1.5205
  589SOL     OW 2867   6.182   6.666   0.828 -0.2648 -0.0322  0.0207
  589SOL    HW1 2868   6.186   6.643   0.921 -1.4662 -1.2940 -0.2169
  589SOL    HW2 2869   6.216   6.588   0.783  2.0287  1.2110 -0.5803
  590SOL     OW 2870   7.557   6.843   6.493 -0.5870  0.0834 -0.3501
  590SOL    HW1 2871   7.635   6.794   6.468  0.0135  0.4984  0.6728
  590SOL    HW2 2872   7.518   6.870   6.409  0.5978  0.2501 -0.8701
  591SOL     OW 2873   1.618   1.233   5.674 -0.1224  0.8191 -0.3741
  591SOL    HW1 2874   1.605   1.139   5.680  0.6792  0.7389  0.3546
  591SOL    HW2 2875   1.602   1.254   5.582 -1.0905  0.1098 -0.3851
  592SOL     OW 2876   5.726   2.017   4.792 -0.1228  0.4655  0.2224
  592SOL    HW1 2877   5.815   1.982   4.789  0.2775  1.3829  1.0052
  592SOL    HW2 2878   5.685   1.986   4.711  1.2185  0.8677 -0.6282
  593SOL     OW 2879   3.516   9.004   2.503  0.0968 -0.0950 -0.6919
  593SOL    HW1 2880   3.608   8.994   2.477  0.6108 -0.6605  1.1392
  593SOL    HW2 2881   3.512   8.963   2.590 -1.5979  1.0965 -0.1694
  594SOL     OW 2882   5.462   7.714   0.703  0.6724 -0.1689 -0.1581
  594SOL    HW1 2883   5.387   7.685   0.755  0.6746  3.4348  2.2974
  594SOL    HW2 2884   5.423   7.746   0.621 -0.3208  0.2972  0.4698
  595SOL     OW 2885   3.653   0.880   9.035  0.1085  0.3784 -0.6565
  595SOL    HW1 2886   3.656   0.969   8.998  1.4793  0.8447  0.4862
  595SOL    HW2 2887   3.593   0.832   8.978 -1.2696  2.2415 -0.8716
  596SOL     OW 2888   3.112   7.419   3.812  0.6866 -0.0150 -0.2116
  596SOL    HW1 2889   3.052   7.464   3.871  0.3955  1.8677 -1.8222
  596SOL    HW2 2890   3.100   7.326   3.831  0.0333  0.4716  2.0723
  597SOL     OW 2891   2.639   6.152   8.335  0.0085  0.5677  0.8813
  597SOL    HW1 2892   2.725   6.143   8.377  0.1717 -1.2024  0.2565
  597SOL    HW2 2893   2.637   6.242   8.304  1.8666  0.5287  0.4984
  598SOL     OW 2894   0.143   8.535   6.334  0.4384 -0.3259  0.1524
  598SOL    HW1 2895   0.097   8.618   6.323 -0.0029 -0.4139  1.2540
  598SOL    HW2 2896   0.213   8.554   6.397 -0.7003 -1.1528  1.7263
  599SOL     OW 2897   0.574   3.185   6.242 -0.6490 -0.1245  0.3283
  599SOL    HW1 2898   0.547   3.109   6.294 -1.1839 -0.1752 -0.0113
  599SOL    HW2 2899   0.650   3.219   6.287 -0.9529 -0.3223  1.0009
  600SOL     OW 2900   8.885   4.646   7.765  0.1076 -0.0086  0.0739
  600SOL    HW1 2901   8.934   4.568   7.740  1.7814  1.0021  0.0096
  600SOL    HW2 2902   8.929   4.678   7.844 -0.5474  0.8441  0.1132
  601SOL     OW 2903   6.937   7.584   9.070  0.2449 -0.2695  0.0397
  601SOL    HW1 2904   6.897   7.670   9.061  1.0350 -0.0651 -1.9060
  601SOL    HW2 2905   7.028   7.602   9.092  0.3407 -0.6314 -0.0528
  602SOL     OW 2906   7.970   4.304   4.259  0.0756  0.1814 -0.5913
  602SOL    HW1 2907   7.885   4.294   4.216  0.4003  1.6224 -1.6077
  602SOL    HW2 2908   7.995   4.395   4.244  0.1788  0.8525  2.7531
  603SOL     OW 2909   5.114   8.267   8.304 -0.2191  0.0608  0.1686
  603SOL    HW1 2910   5.076   8.245   8.219 -0.5058  3.2209 -0.6426
  603SOL    HW2 2911   5.039   8.283   8.361 -0.0186 -1.3527  0.8925
  604SOL     OW 2912   5.233   7.314   8.663  0.0795  0.8201  0.2781
  604SOL    HW1 2913   5.165   7.308   8.596  0.4601  0.5330 -0.0904
  604SOL    HW2 2914   5.206   7.254   8.732  0.9215 -0.7885 -0.7398
  605SOL     OW 2915   8.623   0.326   4.200  0.2639  0.3527  0.0466
  605SOL    HW1 2916   8.678   0.303   4.275  1.2533  0.9791 -0.4668
  605SOL    HW2 2917   8.595   0.416   4.217  0.1647  0.3593 -0.1484
  606SOL     OW 2918   8.390   6.815   8.947  0.2166 -0.0775  0.1285
  606SOL    HW1 2919   8.324   6.771   9.000  0.8688 -0.6902  0.4334
  606SOL    HW2 2920   8.394   6.763   8.866  1.4809 -1.0057  0.7671
  607SOL     OW 2921   3.945   7.759   4.903  0.6289  0.0795 -0.5315
  607SOL    HW1 2922   3.980   7.844   4.930  0.2937 -0.2367  0.9744
  607SOL    HW2 2923   3.952   7.760   4.807  1.0743  1.6015 -0.5143
  608SOL     OW 2924   7.349   2.621   1.392  0.3374 -0.0193  0.4594
  608SOL    HW1 2925   7.389   2.534   1.396 -1.4792 -0.8933  0.3863
  608SOL    HW2 2926   7.265   2.611   1.437 -0.5195  1.3390 -0.7414
  609SOL     OW 2927   3.930   3.756   5.111 -0.6310  0.2275 -0.0263
  609SOL    HW1 2928   4.021   3.725   5.117 -0.0663  1.5000 -1.3676
  609SOL    HW2 2929   3.886   3.692   5.056 -0.5133 -0.3056  0.4903
  610SOL     OW 2930   5.846   1.901   8.826  0.0644  0.5470 -0.2848
  610SOL    HW1 2931   5.864   1.849   8.748 -1.1443  0.6458 -0.6494
  610SOL    HW2 2932   5.842   1.837   8.897  0.0668  0.3158 -0.4898
  611SOL     OW 2933   9.017   7.910   8.516 -0.0067  0.2537  0.4827
  611SOL    HW1 2934   9.084   7.891   8.450  0.4820  1.3243  0.6471
  611SOL    HW2 2935   8.941   7.940   8.466  0.7069  2.0819  0.4015
  612SOL     OW 2936   0.611   1.387   6.962  0.4346 -0.5160  0.1156
  612SOL    HW1 2937   0.681   1.439   6.923  0.8369  0.2893  1.8196
  612SOL    HW2 2938   0.533   1.408   6.910  0.8935  0.6810 -0.1047
  613SOL     OW 2939   7.136   0.057   0.457 -0.0334 -0.3247 -0.3809
  613SOL    HW1 2940   7.098  -0.030   0.471  0.1974 -0.5428 -1.0727
  613SOL    HW2 2941   7.152   0.091   0.545  0.6864 -1.3517 -0.0962
  614SOL     OW 2942   6.966   5.532   1.224  0.2775 -0.3906 -0.9655
  614SOL    HW1 2943   6.933   5.483   1.149 -0.7317  0.2473 -0.9530
  614SOL    HW2 2944   6.917   5.614   1.223  0.5662 -0.1897  0.1412
  615SOL     OW 2945   7.770   5.416   6.946  0.0781  0.2033  0.5238
  615SOL    HW1 2946   7.744   5.462   7.025 -0.8695 -0.3775  0.5645
  615SOL    HW2 2947   7.702   5.437   6.882 -0.1387 -0.7738  0.4133
  616SOL     OW 2948   1.531   2.946   1.370 -0.0330  0.3983  0.1194
  616SOL    HW1 2949   1.542   3.041   1.362 -0.0502  0.3364 -0.6597
  616SOL    HW2 2950   1.530   2.914   1.280 -2.2642 -0.0839  0.2415
  617SOL     OW 2951   3.831   8.790   6.409  0.4659  0.0222  0.4504
  617SOL    HW1 2952   3.893   8.786   6.481  0.4421 -0.2207  0.4557
  617SOL    HW2 2953   3.797   8.701   6.400  1.4547 -0.2545 -0.7277
  618SOL     OW 2954   7.947   2.230   0.648  1.0744  0.2388  0.0092
  618SOL    HW1 2955   8.031   2.267   0.620  1.2158  0.2855  0.4955
  618SOL    HW2 2956   7.919   2.177   0.573  1.5873  0.1362 -0.1197
  619SOL     OW 2957   3.680   0.167   3.091  0.3782  0.1913 -0.2255
  619SOL    HW1 2958   3.594   0.200   3.067 -0.4881 -2.3048 -0.8605
  619SOL    HW2 2959   3.740   0.209   3.030 -0.5572  0.9445 -0.6565
  620SOL     OW 2960   5.871   2.067   6.052 -0.1394  0.6779  0.4511
  620SOL    HW1 2961   5.876   2.149   6.003  0.2003  0.8371  0.7398
  620SOL    HW2 2962   5.785   2.032   6.032  0.4500  0.1115 -1.2297
  621SOL     OW 2963   5.466   2.469   1.363 -0.0298 -0.4845 -0.2047
  621SOL    HW1 2964   5.449   2.562   1.376 -1.0805 -0.6317 -0.4023
  621SOL    HW2 2965   5.417   2.447   1.284 -0.0311 -1.2651  0.0062
  622SOL     OW 2966   4.672   3.995   6.218 -0.1120  0.3044 -0.0068
  622SOL    HW1 2967   4.610   3.945   6.164  0.9887 -0.1665 -0.8697
  622SOL    HW2 2968   4.749   4.005   6.163  1.5634 -1.2978  1.8740
  623SOL     OW 2969   8.156   1.841   2.688  0.1182  0.1670  0.2947
  623SOL    HW1 2970   8.147   1.817   2.595 -1.3298 -0.7189  0.6353
  623SOL    HW2 2971   8.220   1.912   2.688  0.6180 -0.2359 -1.3183
  624SOL     OW 2972   8.225   3.501   4.432 -0.1344  0.3024 -0.0406
  624SOL    HW1 2973   8.290   3.457   4.377 -1.1358 -0.8465 -0.3612
  624SOL    HW2 2974   8.175   3.429   4.471 -0.0287  1.1198  1.6779
  625SOL     OW 2975   8.218   0.328   6.250 -0.0447 -0.2638 -0.4454
  625SOL    HW1 2976   8.287   0.388   6.277 -0.2528  0.1583 -0.8328
  625SOL    HW2 2977   8.204   0.271   6.326 -0.6290  0.9037  0.3492
  626SOL     OW 2978   0.519   2.411   7.741  0.0998  0.3020  0.3862
  626SOL    HW1 2979   0.599   2.418   7.690 -0.2281  0.6871 -0.0844
  626SOL    HW2 2980   0.457   2.471   7.698 -0.8670 -0.9749 -0.0676
  627SOL     OW 2981   7.177   5.786   5.748 -0.4405  0.3344 -0.2513
  627SOL    HW1 2982   7.210   5.791   5.658 -0.7225 -0.8649 -0.4425
  627SOL    HW2 2983   7.111   5.854   5.753  0.1984  1.0039 -0.6786
  628SOL     OW 2984   0.092   8.307   0.354  0.5281 -0.8612 -0.0867
  628SOL    HW1 2985   0.073   8.300   0.448 -0.1844 -0.2755 -0.1739
  628SOL    HW2 2986   0.054   8.392   0.328 -0.1298 -1.4349 -1.0887
  629SOL     OW 2987   9.097   2.745   8.622 -0.1086  0.4770  0.0693
  629SOL    HW1 2988   9.103   2.736   8.717 -0.5759 -0.6323  0.0055
  629SOL    HW2 2989   9.188   2.748   8.593  0.0419  0.2872  0.5087
  630SOL     OW 2990   5.636   9.067   1.269 -0.6105 -0.2500  0.0840
  630SOL    HW1 2991   5.603   9.068   1.179 -0.0563 -2.0863 -0.1890
  630SOL    HW2 2992   5.558   9.065   1.323 -1.0032 -2.2928 -0.4868
  631SOL     OW 2993   4.541   0.382   2.987  0.0249 -0.2853  0.4595
  631SOL    HW1 2994   4.623   0.424   3.011  0.7309 -1.3443 -0.0374
  631SOL    HW2 2995   4.566   0.316   2.922 -1.3451  0.0483 -0.4506
  632SOL     OW 2996   2.782   3.701   4.074  0.1599  0.3957  0.4903
  632SOL    HW1 2997   2.862   3.684   4.123  0.1896  1.7716  0.9730
  632SOL    HW2 2998   2.741   3.616   4.064  1.6875 -0.3450  0.2241
  633SOL     OW 2999   1.744   2.095   8.099  0.4520 -0.0418 -0.3909
  633SOL    HW1 3000   1.834   2.114   8.124  0.9613 -2.2958 -0.2681
  633SOL    HW2 3001   1.699   2.078   8.182  0.4245 -0.8627 -0.5682
  634SOL     OW 3002   5.431   2.354   0.896  0.1032  0.3739  0.1277
  634SOL    HW1 3003   5.520   2.327   0.874 -0.6655 -1.7424 -0.6161
  634SOL    HW2 3004   5.375   2.291   0.851 -1.7744  1.3539  0.9804
  635SOL     OW 3005   2.637   1.073   6.615  0.3870 -0.1563  0.2832
  635SOL    HW1 3006   2.553   1.027   6.616 -0.1424  0.8184  1.1118
  635SOL    HW2 3007   2.637   1.128   6.693  0.4794  2.1901 -1.2678
  636SOL     OW 3008   9.056   2.778   0.277 -0.6212 -0.1565 -0.0487
  636SOL    HW1 3009   9.025   2.847   0.336 -1.8355 -0.5989 -0.1379
  636SOL    HW2 3010   9.068   2.702   0.333  0.1359 -0.0407 -0.0502
  637SOL     OW 3011   8.992   8.457   2.524 -0.3950 -0.1676 -0.4372
  637SOL    HW1 3012   9.014   8.517   2.595 -0.3655 -1.5434  0.7699
  637SOL    HW2 3013   9.071   8.453   2.470  0.3015 -0.5871  0.5759
  638SOL     OW 3014   6.142   8.307   2.830 -0.3179  0.7531 -0.1561
  638SOL    HW1 3015   6.162   8.383   2.886  0.1641  0.2450  0.3678
  638SOL    HW2 3016   6.219   8.297   2.774  1.0695 -1.2887  1.9592
  639SOL     OW 3017   2.138   7.824   3.850  0.0905  0.5236  0.1316
  639SOL    HW1 3018   2.165   7.910   3.820  0.4303  0.7630  1.0744
  639SOL    HW2 3019   2.112   7.837   3.941 -2.0933  0.0606 -0.3754
  640SOL     OW 3020   7.170   5.023   5.771  0.2946  0.0538  0.2386
  640SOL    HW1 3021   7.119   4.974   5.835 -0.3812 -0.5862 -0.7569
  640SOL    HW2 3022   7.214   4.956   5.718 -0.3583  0.5007 -0.9117
  641SOL     OW 3023   3.877   2.530   0.883  0.4171 -0.1302 -0.4588
  641SOL    HW1 3024   3.860   2.548   0.790  1.7137 -0.1524 -0.7121
  641SOL    HW2 3025   3.908   2.613   0.918  1.6347 -0.5585 -0.4719
  642SOL     OW 3026   6.743   0.765   4.046 -0.7072 -0.3749 -0.0681
  642SOL    HW1 3027   6.731   0.784   4.139  0.5185  0.3094 -0.0297
  642SOL    HW2 3028   6.654   0.753   4.012 -1.2115  0.1421  1.0224
  643SOL     OW 3029   8.742   8.609   2.387 -0.2990  0.0547  0.2775
  643SOL    HW1 3030   8.730   8.604   2.482 -0.4921 -0.2322  0.2407
  643SOL    HW2 3031   8.820   8.555   2.369  0.0895  0.5943  0.3374
  644SOL     OW 3032   6.885   5.902   5.319  0.4343 -0.5191  0.2565
  644SOL    HW1 3033   6.882   5.875   5.411  3.2537 -0.7199  0.3695
  644SOL    HW2 3034   6.895   5.997   5.322 -1.4196 -0.2720  0.0418
  645SOL     OW 3035   8.232   9.021   1.225 -0.0832  0.5041 -0.3963
  645SOL    HW1 3036   8.219   9.114   1.241 -0.6497  0.3337  0.1720
  645SOL    HW2 3037   8.295   8.994   1.293  1.3428  0.7913 -1.5490
  646SOL     OW 3038   7.254   3.266   4.215 -0.4907 -0.0576 -0.1718
  646SOL    HW1 3039   7.208   3.350   4.206 -1.0766 -0.5575 -2.8220
  646SOL    HW2 3040   7.286   3.247   4.126  1.7765 -1.4768  0.8631
  647SOL     OW 3041   3.941   4.291   0.739  0.1985  0.2061 -0.3604
  647SOL    HW1 3042   3.995   4.308   0.662  1.1292 -1.6507 -0.1881
  647SOL    HW2 3043   3.866   4.350   0.730 -0.2091 -0.6018 -3.1715
  648SOL     OW 3044   3.518   3.055   8.399  0.3903  0.5503  0.5196
  648SOL    HW1 3045   3.533   2.962   8.383  0.9723  0.4761  1.3760
  648SOL    HW2 3046   3.426   3.061   8.423  0.0958  0.3502 -0.5296
  649SOL     OW 3047   0.299   8.940   8.823  0.5203  0.2488 -0.3640
  649SOL    HW1 3048   0.230   8.887   8.863  2.1738 -0.2965  1.9643
  649SOL    HW2 3049   0.351   8.972   8.897  2.3562  1.2367 -1.9774
  650SOL     OW 3050   7.579   8.136   4.634  0.5671  0.4238 -0.0176
  650SOL    HW1 3051   7.660   8.084   4.635  0.0193 -0.4573 -0.3976
  650SOL    HW2 3052   7.574   8.174   4.721  0.2296 -1.3701  0.8002
  651SOL     OW 3053   1.551   7.552   5.942 -0.4799 -0.0695  0.1292
  651SOL    HW1 3054   1.591   7.577   5.858 -1.7958 -1.1824 -0.8938
  651SOL    HW2 3055   1.555   7.456   5.941  0.3138 -0.0831  1.7982
  652SOL     OW 3056   2.654   4.066   3.086 -0.0298  0.7798  0.2569
  652SOL    HW1 3057   2.660   3.989   3.029  2.2104  1.4346 -0.4997
  652SOL    HW2 3058   2.742   4.077   3.121 -0.9456  1.4433  2.5326
  653SOL     OW 3059   2.029   7.294   3.071  0.2815 -0.3514  0.2260
  653SOL    HW1 3060   2.006   7.269   2.982 -1.2756 -1.5491  0.9123
  653SOL    HW2 3061   1.948   7.328   3.108  1.8496  4.3904 -0.0655
  654SOL     OW 3062   2.552   6.788   8.563 -0.0659  0.5688  0.2246
  654SOL    HW1 3063   2.527   6.774   8.471 -2.1016 -2.3991  1.0721
  654SOL    HW2 3064   2.476   6.830   8.603  0.1254  0.3192  0.8702
  655SOL     OW 3065   2.966   3.810   5.928 -0.3820  0.4338  0.1422
  655SOL    HW1 3066   3.012   3.752   5.989 -0.2847  0.2100 -0.1399
  655SOL    HW2 3067   2.968   3.896   5.970  2.0230  0.8922 -0.7092
  656SOL     OW 3068   4.287   3.799   0.141 -0.0107  0.1348  0.1269
  656SOL    HW1 3069   4.367   3.840   0.173 -0.0629 -0.0602  0.5100
  656SOL    HW2 3070   4.236   3.872   0.106  0.5428  0.1909 -0.5685
  657SOL     OW 3071   6.419   6.867   0.332  0.0242 -0.0925  0.1570
  657SOL    HW1 3072   6.500   6.896   0.289  0.5790 -2.4226 -0.5227
  657SOL    HW2 3073   6.390   6.944   0.382  0.9606  1.7969 -2.0046
  658SOL     OW 3074   8.231   1.473   6.531 -0.1637 -0.4588  0.6808
  658SOL    HW1 3075   8.249   1.567   6.530  0.7217 -0.6169 -0.5268
  658SOL    HW2 3076   8.303   1.436   6.583  1.6509 -0.8095 -1.9071
  659SOL     OW 3077   9.064   1.091   3.543 -0.0258 -0.3910 -0.3125
  659SOL    HW1 3078   9.023   1.028   3.482 -1.1723 -0.2634  0.3001
  659SOL    HW2 3079   9.004   1.165   3.544  0.6780  0.1814 -0.0490
  660SOL     OW 3080   1.681   5.671   0.335  0.0758  0.4544  0.0908
  660SOL    HW1 3081   1.686   5.580   0.365 -0.1483  0.4740  0.1868
  660SOL    HW2 3082   1.766   5.708   0.357  0.1733  0.2622  0.0367
  661SOL     OW 3083   0.657   7.560   8.863  0.2179 -0.1870  0.1152
  661SOL    HW1 3084   0.573   7.516   8.848 -1.7583  3.3050  0.0007
  661SOL    HW2 3085   0.641   7.616   8.939  2.7788 -0.0475  0.6369
  662SOL     OW 3086   1.020   4.873   6.702 -0.5476  0.1749 -1.1424
  662SOL    HW1 3087   1.097   4.823   6.731 -1.0241  1.0332  1.9337
  662SOL    HW2 3088   1.048   4.964   6.707 -1.4908  0.4572 -0.7788
  663SOL     OW 3089   1.527   6.959   2.349  0.0181  0.2373  0.1839
  663SOL    HW1 3090   1.616   6.932   2.328 -0.0556 -0.7012  1.0193
  663SOL    HW2 3091   1.536   7.016   2.425 -0.1109 -0.1389  0.4873
  664SOL     OW 3092   3.187   0.263   0.677  0.0578  0.1761 -0.4260
  664SOL    HW1 3093   3.095   0.241   0.667  0.1016 -0.5395  0.6283
  664SOL    HW2 3094   3.211   0.231   0.764  1.0390  1.2617 -0.2639
  665SOL     OW 3095   6.858   9.123   2.804  0.6663 -0.5149 -0.2370
  665SOL    HW1 3096   6.823   9.148   2.889  0.5140 -0.9879 -0.1580
  665SOL    HW2 3097   6.948   9.098   2.821  2.1821  3.6879 -0.8933
  666SOL     OW 3098   1.970   5.177   7.385  0.1919 -0.4701  0.3617
  666SOL    HW1 3099   2.029   5.189   7.311 -1.3647  2.2704 -0.5689
  666SOL    HW2 3100   1.923   5.096   7.366 -0.2873  0.2616 -1.7986
  667SOL     OW 3101   8.428   8.567   1.573  0.1633  0.6429 -0.4253
  667SOL    HW1 3102   8.384   8.627   1.513 -1.3387 -1.2082 -1.2787
  667SOL    HW2 3103   8.358   8.533   1.629  0.6235 -1.4806 -1.0225
  668SOL     OW 3104   3.645   4.205   8.134  0.1829  0.3340 -0.1833
  668SOL    HW1 3105   3.736   4.185   8.112  0.3235  0.4012  0.3297
  668SOL    HW2 3106   3.596   4.126   8.107  0.7613 -0.8618  2.0541
  669SOL     OW 3107   2.465   8.098   7.845 -0.6165  0.3908  0.4427
  669SOL    HW1 3108   2.371   8.088   7.830 -0.5216  0.9661 -0.5953
  669SOL    HW2 3109   2.505   8.081   7.760  0.3844 -1.6541  1.2464
  670SOL     OW 3110   1.301   6.203   8.671 -0.3612 -0.0825  0.3201
  670SOL    HW1 3111   1.392   6.229   8.688 -0.0503 -0.5644 -0.5388
  670SOL    HW2 3112   1.259   6.207   8.757  0.8607 -1.3730  1.0302
  671SOL     OW 3113   6.652   0.957   7.760 -0.4672 -0.2001 -0.0684
  671SOL    HW1 3114   6.677   0.866   7.775 -1.5424 -0.7265 -1.2559
  671SOL    HW2 3115   6.682   1.003   7.838  1.9006 -1.1891 -0.3147
  672SOL     OW 3116   5.044   3.184   2.360 -0.5556 -0.0182  0.6900
  672SOL    HW1 3117   5.105   3.115   2.386 -1.1714 -0.1115  2.0142
  672SOL    HW2 3118   4.958   3.141   2.360 -0.5065 -0.4460 -3.2125
  673SOL     OW 3119   9.002   3.231   5.856  0.3499  0.0251 -0.1807
  673SOL    HW1 3120   9.063   3.165   5.821  0.0041 -0.4883  0.1640
  673SOL    HW2 3121   9.059   3.295   5.899  0.6301 -0.9501  0.9930
  674SOL     OW 3122   1.354   3.930   5.992  0.1387  0.0237  0.3049
  674SOL    HW1 3123   1.400   3.926   5.908  1.4326 -0.0424  0.9937
  674SOL    HW2 3124   1.310   4.014   5.991 -0.2996 -0.2011 -0.6592
  675SOL     OW 3125   7.604   5.813   6.153  0.0745 -0.1291  0.2241
  675SOL    HW1 3126   7.684   5.794   6.201 -0.4988 -0.9467  0.8672
  675SOL    HW2 3127   7.632   5.877   6.086  1.2507 -0.3880  0.4360
  676SOL     OW 3128   6.829   0.412   3.110 -0.4906  0.5222  0.1272
  676SOL    HW1 3129   6.793   0.391   3.024  0.1831  1.2669 -0.3518
  676SOL    HW2 3130   6.763   0.467   3.152 -1.5861 -1.2016  0.7890
  677SOL     OW 3131   6.994   0.091   7.093 -0.1436  0.1966 -0.3383
  677SOL    HW1 3132   7.023   0.013   7.139 -0.2808  0.2688 -0.1286
  677SOL    HW2 3133   6.948   0.057   7.015  1.2023  0.0962 -1.1153
  678SOL     OW 3134   8.138   3.724   3.463  0.1263  0.5395 -0.0821
  678SOL    HW1 3135   8.063   3.782   3.474  1.5912  2.8528 -1.3436
  678SOL    HW2 3136   8.126   3.685   3.377  0.5002  1.1717 -0.4294
  679SOL     OW 3137   9.097   3.986   2.340 -0.0853 -0.4367 -0.4209
  679SOL    HW1 3138   9.013   3.984   2.294 -1.7697 -3.5548  2.3375
  679SOL    HW2 3139   9.077   4.021   2.427  1.8205  0.2461 -0.1969
  680SOL     OW 3140   4.777   3.966   4.413  0.2119 -0.2269  0.6151
  680SOL    HW1 3141   4.865   3.963   4.450  0.3033  0.7005  0.4963
  680SOL    HW2 3142   4.737   4.043   4.454  0.5423  1.2312 -1.6766
  681SOL     OW 3143   2.771   6.315   0.127 -0.0946  0.0481  0.2189
  681SOL    HW1 3144   2.678   6.294   0.121  0.0584 -0.3944 -0.7481
  681SOL    HW2 3145   2.773   6.411   0.134 -0.6030  0.1210 -0.5186
  682SOL     OW 3146   4.537   3.352   6.825 -0.1050 -0.2219  0.0124
  682SOL    HW1 3147   4.468   3.313   6.771 -0.3550  2.1126 -1.4881
  682SOL    HW2 3148   4.492   3.379   6.905 -0.0764 -2.1655  0.7462
  683SOL     OW 3149   3.099   4.071   7.388 -0.3830  0.8431 -0.2840
  683SOL    HW1 3150   3.067   4.096   7.302 -2.1280 -0.3957 -0.0652
  683SOL    HW2 3151   3.036   4.005   7.419  1.5561 -0.5989  0.8956
  684SOL     OW 3152   6.918   4.614   1.445  0.4268 -0.4684 -0.3525
  684SOL    HW1 3153   6.837   4.611   1.394  0.6618  0.3109 -0.7742
  684SOL    HW2 3154   6.895   4.665   1.523  0.3269 -0.8577 -0.1211
  685SOL     OW 3155   4.801   7.247   3.991 -0.0095  0.1899  0.3541
  685SOL    HW1 3156   4.794   7.160   4.030  0.8366  0.1365  0.4049
  685SOL    HW2 3157   4.892   7.254   3.964 -0.2508  0.7715 -0.3484
  686SOL     OW 3158   4.604   8.645   5.284  0.4234  0.1754  0.4657
  686SOL    HW1 3159   4.527   8.595   5.258  0.4613 -0.6696  1.8475
  686SOL    HW2 3160   4.661   8.581   5.327  0.5294  1.3408  2.1758
  687SOL     OW 3161   6.574   2.613   3.737 -0.3887  0.4034 -0.4329
  687SOL    HW1 3162   6.607   2.545   3.678  0.5309 -0.4461  1.0277
  687SOL    HW2 3163   6.495   2.646   3.692  1.6939  1.7259 -3.4806
  688SOL     OW 3164   6.122   2.245   3.712  0.1317  0.1891  0.0718
  688SOL    HW1 3165   6.060   2.240   3.639 -0.1829  0.0793  0.3447
  688SOL    HW2 3166   6.098   2.325   3.758 -0.5385 -0.4360  0.8283
  689SOL     OW 3167   8.513   6.508   2.605 -0.4990 -0.2930  0.2497
  689SOL    HW1 3168   8.531   6.435   2.546  0.1535 -0.3738  0.5414
  689SOL    HW2 3169   8.517   6.470   2.692 -1.1457 -0.1086  0.3601
  690SOL     OW 3170   8.575   0.792   0.358 -0.3052  0.4267 -0.3167
  690SOL    HW1 3171   8.639   0.782   0.288 -1.2887  0.5938 -1.2728
  690SOL    HW2 3172   8.556   0.702   0.386  0.5599  0.3894  0.2010
  691SOL     OW 3173   7.732   7.905   8.888 -0.7313  0.2420  0.0148
  691SOL    HW1 3174   7.649   7.932   8.848 -0.9534 -0.2206  0.1564
  691SOL    HW2 3175   7.738   7.956   8.969 -1.5383 -0.6879  0.6863
  692SOL     OW 3176   6.402   2.585   2.175  0.3421 -0.5538  0.2816
  692SOL    HW1 3177   6.353   2.522   2.228 -1.7304 -0.4258 -1.3573
  692SOL    HW2 3178   6.356   2.669   2.189 -1.1359 -0.7541 -2.5871
  693SOL     OW 3179   2.959   4.578   0.465 -0.9663 -0.3083 -0.4839
  693SOL    HW1 3180   3.015   4.515   0.419 -2.2570 -1.4346 -0.5716
  693SOL    HW2 3181   3.002   4.591   0.550 -0.0498 -0.3623 -0.9208
  694SOL     OW 3182   8.034   3.793   6.653  0.2716  0.3411 -0.0413
  694SOL    HW1 3183   8.028   3.712   6.703 -0.6164 -0.6608 -1.6856
  694SOL    HW2 3184   8.128   3.807   6.643  0.4785  0.5487  1.7979
  695SOL     OW 3185   2.573   0.038   3.909  0.4317 -0.0962 -0.3017
  695SOL    HW1 3186   2.639  -0.022   3.943 -0.1131 -0.3525  0.3053
  695SOL    HW2 3187   2.548   0.000   3.824 -0.3179 -1.0459  0.3239
  696SOL     OW 3188   4.945   3.924   4.851 -0.3332 -0.6383 -0.7880
  696SOL    HW1 3189   4.869   3.900   4.798 -0.4843  1.9126 -1.8529
  696SOL    HW2 3190   4.946   4.019   4.851  1.3400 -0.5732  1.4707
  697SOL     OW 3191   7.358   4.588   0.407  0.0762  0.3322 -0.0820
  697SOL    HW1 3192   7.338   4.640   0.484  2.3906  0.4741  0.4947
  697SOL    HW2 3193   7.347   4.648   0.333 -0.1528  0.7717  0.3097
  698SOL     OW 3194   4.480   7.164   4.349  0.5222  0.4308  0.7814
  698SOL    HW1 3195   4.519   7.204   4.271 -2.0829  2.0628  0.2210
  698SOL    HW2 3196   4.515   7.216   4.422 -0.3845  1.7510  0.3087
  699SOL     OW 3197   4.016   5.308   4.879  0.5559  0.1743 -0.0994
  699SOL    HW1 3198   4.051   5.397   4.883 -0.9847  0.8097 -0.1681
  699SOL    HW2 3199   4.039   5.278   4.791  0.4803  0.7800 -0.3346
  700SOL     OW 3200   4.653   8.486   7.052 -0.2956 -0.3510  0.1082
  700SOL    HW1 3201   4.640   8.457   6.962 -2.1674 -0.0190  0.2449
  700SOL    HW2 3202   4.748   8.479   7.065  0.4823  2.1061 -2.7677
  701SOL     OW 3203   2.028   1.959   2.300  0.1676  0.1936  0.2096
  701SOL    HW1 3204   1.984   1.888   2.347 -0.7302 -1.0729 -2.3781
  701SOL    HW2 3205   2.089   1.915   2.241  1.1502  1.7097  0.0427
  702SOL     OW 3206   2.362   5.417   1.556  0.6226  0.1350 -0.2884
  702SOL    HW1 3207   2.358   5.323   1.543  0.5032  0.3438 -2.0470
  702SOL    HW2 3208   2.397   5.451   1.473 -0.0594  1.6850  0.0179
  703SOL     OW 3209   5.345   5.610   2.795 -0.1627  0.5919  1.0906
  703SOL    HW1 3210   5.332   5.578   2.705  0.8795 -0.2908  1.2353
  703SOL    HW2 3211   5.281   5.680   2.805 -0.2178  0.7830 -0.3887
  704SOL     OW 3212   0.578   0.983   1.157  0.3507  0.3194  0.0899
  704SOL    HW1 3213   0.491   0.981   1.197  0.6265  1.0023  0.7415
  704SOL    HW2 3214   0.585   1.070   1.118 -0.1711 -0.5539 -2.0822
  705SOL     OW 3215   4.248   6.262   0.334  0.5787 -0.3140  0.0173
  705SOL    HW1 3216   4.221   6.236   0.422 -2.7040 -0.5282 -0.9161
  705SOL    HW2 3217   4.341   6.241   0.330  0.2272 -2.9258  2.4920
  706SOL     OW 3218   6.625   2.938   2.828 -0.1294  1.5000 -0.3064
  706SOL    HW1 3219   6.698   2.884   2.797 -0.2715  1.1794 -0.0867
  706SOL    HW2 3220   6.560   2.934   2.758 -1.1278 -0.5226  0.6547
  707SOL     OW 3221   4.075   4.744   6.799  0.1748  0.4185  0.1463
  707SOL    HW1 3222   3.983   4.722   6.810 -0.2241  1.8988 -0.0118
  707SOL    HW2 3223   4.113   4.668   6.757 -0.8804 -0.3955  0.6252
  708SOL     OW 3224   6.011   2.733   2.900  0.4149 -0.6506  0.4143
  708SOL    HW1 3225   6.041   2.643   2.890  0.5119 -0.4379 -1.4969
  708SOL    HW2 3226   6.077   2.786   2.855 -0.2795  0.2619  0.4270
  709SOL     OW 3227   1.094   7.958   1.204  0.1206  0.0729 -0.5138
  709SOL    HW1 3228   1.050   8.041   1.223 -0.2068 -0.3519  0.7053
  709SOL    HW2 3229   1.026   7.903   1.166  0.3452  0.3614 -1.3500
  710SOL     OW 3230   4.970   6.802   5.904 -0.3213  0.4680 -0.7750
  710SOL    HW1 3231   4.994   6.778   5.815 -1.0158 -0.5460 -0.7054
  710SOL    HW2 3232   5.029   6.874   5.926  0.8206 -0.2154 -1.5322
  711SOL     OW 3233   3.168   3.529   2.176  0.2661 -0.4099  0.0710
  711SOL    HW1 3234   3.248   3.573   2.147  0.4523 -0.9137 -0.1989
  711SOL    HW2 3235   3.107   3.600   2.195  1.2242  0.0525  1.6222
  712SOL     OW 3236   1.292   7.942   2.394  0.4757 -0.3366 -0.1161
  712SOL    HW1 3237   1.211   7.991   2.403  0.2236 -0.5202 -1.3184
  712SOL    HW2 3238   1.288   7.903   2.307  1.7353 -0.5590 -0.0985
  713SOL     OW 3239   1.329   2.731   7.954 -0.4789 -0.1315  0.0867
  713SOL    HW1 3240   1.273   2.773   7.889  1.5930 -0.5563 -2.1214
  713SOL    HW2 3241   1.380   2.803   7.991 -1.2126  0.0253  0.8302
  714SOL     OW 3242   1.014   1.971   0.447  0.6848 -0.3876  0.1282
  714SOL    HW1 3243   1.097   1.957   0.492  1.1474  2.3581  0.3245
  714SOL    HW2 3244   1.031   1.946   0.356  2.1476  1.2059 -0.0897
  715SOL     OW 3245   0.426   5.546   0.148 -0.2357 -0.5468 -0.3869
  715SOL    HW1 3246   0.351   5.520   0.095 -1.3516  0.2982  0.7181
  715SOL    HW2 3247   0.433   5.477   0.214 -0.4185 -0.3193 -0.1289
  716SOL     OW 3248   5.495   1.689   2.911 -0.1586 -0.2545  0.2261
  716SOL    HW1 3249   5.452   1.736   2.840  1.4338 -0.3091 -0.8292
  716SOL    HW2 3250   5.482   1.745   2.988  0.7194  1.3961 -0.7616
  717SOL     OW 3251   8.008   3.992   8.939  0.0391 -0.2766 -0.1870
  717SOL    HW1 3252   7.922   4.002   8.898  0.4414 -0.5460 -1.1234
  717SOL    HW2 3253   8.024   3.898   8.938 -0.6013 -0.4479  2.0101
  718SOL     OW 3254   5.742   4.616   3.180 -0.0671 -0.1713  0.6564
  718SOL    HW1 3255   5.751   4.709   3.197  4.9208 -0.1157 -0.8327
  718SOL    HW2 3256   5.666   4.610   3.122 -2.3595  2.4173  3.0897
  719SOL     OW 3257   3.468   6.572   3.611  0.2365 -0.5661 -0.5396
  719SOL    HW1 3258   3.556   6.585   3.646  0.0480 -1.6964  0.4268
  719SOL    HW2 3259   3.481   6.522   3.530  0.5523  0.4384 -1.1292
  720SOL     OW 3260   0.184   4.502   2.636 -0.2976 -0.1815  0.3054
  720SOL    HW1 3261   0.142   4.481   2.719  1.0642  2.2283  1.6912
  720SOL    HW2 3262   0.244   4.429   2.621  0.4966  0.0431  2.2075
  721SOL     OW 3263   2.129   0.154   3.177 -0.3467  0.0847  0.0562
  721SOL    HW1 3264   2.197   0.153   3.245 -1.5012 -0.2288  1.2630
  721SOL    HW2 3265   2.109   0.247   3.165  0.6034  0.2098 -0.6509
  722SOL     OW 3266   1.736   3.730   4.653 -0.0879 -0.1478 -0.1346
  722SOL    HW1 3267   1.802   3.782   4.608 -0.7200  0.8214  0.0476
  722SOL    HW2 3268   1.754   3.743   4.746 -1.8197  1.8929 -0.0083
  723SOL     OW 3269   2.016   0.364   6.519  0.3093 -0.6655 -0.1939
  723SOL    HW1 3270   2.030   0.404   6.433 -2.4567  0.0907 -0.3540
  723SOL    HW2 3271   2.057   0.277   6.511  0.6370 -0.3876 -2.0583
  724SOL     OW 3272   6.159   6.008   3.003  0.2445 -0.5997 -0.2505
  724SOL    HW1 3273   6.138   6.101   3.017  0.9830 -0.4595 -0.0119
  724SOL    HW2 3274   6.253   6.002   3.021 -0.3663 -2.0312  2.9798
  725SOL     OW 3275   2.834   6.082   8.056  0.3234 -0.0633 -0.0878
  725SOL    HW1 3276   2.885   6.055   7.979 -0.4248 -0.1191 -0.5756
  725SOL    HW2 3277   2.893   6.067   8.130  0.3507 -1.9199 -0.4417
  726SOL     OW 3278   8.332   8.725   6.153  0.3843  0.5895 -0.3134
  726SOL    HW1 3279   8.424   8.750   6.169  0.3775  0.0657  0.6645
  726SOL    HW2 3280   8.291   8.733   6.239 -0.1560 -0.5166 -0.4564
  727SOL     OW 3281   7.177   2.816   1.222  0.4289 -0.1072  0.3423
  727SOL    HW1 3282   7.267   2.808   1.254  0.3832 -0.1213  0.4695
  727SOL    HW2 3283   7.124   2.822   1.301  0.1360 -1.8243  0.3117
  728SOL     OW 3284   6.897   8.033   1.281 -0.2340 -0.1776 -0.1030
  728SOL    HW1 3285   6.903   8.119   1.238  2.1936 -0.7632 -1.0647
  728SOL    HW2 3286   6.814   8.037   1.329 -0.8692  2.1799 -1.2298
  729SOL     OW 3287   6.333   7.904   3.751 -0.6006 -0.0326  0.3056
  729SOL    HW1 3288   6.344   7.988   3.707  1.6521  0.0850  0.9694
  729SOL    HW2 3289   6.404   7.901   3.816 -0.6188 -2.4339  0.3061
  730SOL     OW 3290   2.803   8.502   6.085 -0.9458  0.3331 -0.2005
  730SOL    HW1 3291   2.716   8.462   6.081 -0.6159 -0.4197 -0.0212
  730SOL    HW2 3292   2.816   8.542   5.999 -1.8517  1.2792  0.0869
  731SOL     OW 3293   3.923   8.440   1.110 -0.0405  0.4410  0.4360
  731SOL    HW1 3294   3.857   8.372   1.124 -0.6901  1.3727  2.2327
  731SOL    HW2 3295   3.875   8.522   1.119  0.8282  1.1901 -1.1785
  732SOL     OW 3296   8.173   3.241   9.082  0.4985  0.5908  0.1867
  732SOL    HW1 3297   8.247   3.259   9.139  0.9484  0.6801 -0.4185
  732SOL    HW2 3298   8.161   3.146   9.085  0.2692  0.6295  0.7248
  733SOL     OW 3299   5.321   4.787   1.416  0.6075  0.2662  0.1811
  733SOL    HW1 3300   5.416   4.784   1.423  0.5803 -2.1056  0.1072
  733SOL    HW2 3301   5.290   4.709   1.462 -1.3322  1.0311  0.3091
  734SOL     OW 3302   4.362   0.479   6.382  0.0644 -0.4584 -0.2189
  734SOL    HW1 3303   4.384   0.453   6.292 -1.5690  1.9608 -1.4364
  734SOL    HW2 3304   4.409   0.561   6.396  0.3930 -0.8732  1.2040
  735SOL     OW 3305   2.811   2.069   5.813  0.5423 -0.3980  0.5327
  735SOL    HW1 3306   2.777   1.989   5.852  0.7795 -0.7710 -0.0165
  735SOL    HW2 3307   2.784   2.065   5.722  1.1736 -0.2116  0.3287
  736SOL     OW 3308   5.174   2.556   6.715  0.0267  0.3050  0.3432
  736SOL    HW1 3309   5.179   2.616   6.641  0.0118 -1.6932 -1.3647
  736SOL    HW2 3310   5.080   2.538   6.725  0.1593 -1.1160 -0.6478
  737SOL     OW 3311   3.855   8.171   8.175 -0.5423 -0.6236  0.0858
  737SOL    HW1 3312   3.921   8.156   8.241 -1.6701 -0.4459  1.2943
  737SOL    HW2 3313   3.846   8.087   8.129  0.7937 -0.5295 -0.3944
  738SOL     OW 3314   5.309   7.408   2.076  0.5308  0.4573 -0.8094
  738SOL    HW1 3315   5.253   7.365   2.011 -0.7939  0.8082  0.0609
  738SOL    HW2 3316   5.256   7.480   2.109  1.6108  0.9735 -0.1404
  739SOL     OW 3317   5.160   6.314   6.566 -0.0147  0.3707  0.0938
  739SOL    HW1 3318   5.227   6.380   6.580  0.4609 -0.2111  0.5976
  739SOL    HW2 3319   5.127   6.331   6.478  0.5296  0.8936 -0.0120
  740SOL     OW 3320   3.259   8.644   7.339  0.7131  0.0964  0.7810
  740SOL    HW1 3321   3.273   8.689   7.256  1.2582 -0.8682  0.3305
  740SOL    HW2 3322   3.341   8.655   7.387 -0.3727  2.6878  2.2513
  741SOL     OW 3323   0.909   8.588   0.284 -0.1319 -1.0144 -0.3653
  741SOL    HW1 3324   0.989   8.536   0.282  0.8675  0.4610 -0.4157
  741SOL    HW2 3325   0.936   8.673   0.319 -2.6632 -2.0370  5.1224
  742SOL     OW 3326   1.470   8.625   8.929  0.1358  0.1314  0.4505
  742SOL    HW1 3327   1.548   8.611   8.984  1.8609 -1.2202 -2.1400
  742SOL    HW2 3328   1.487   8.709   8.886 -0.3445  0.3133  0.6116
  743SOL     OW 3329   7.398   3.951   1.871  0.6539 -0.9075  0.4172
  743SOL    HW1 3330   7.469   3.894   1.841 -1.0210 -3.0003  0.1811
  743SOL    HW2 3331   7.387   3.928   1.963  0.4430 -0.4194  0.5140
  744SOL     OW 3332   6.324   3.837   3.500 -0.1608  0.2856 -0.2314
  744SOL    HW1 3333   6.369   3.824   3.584 -0.9352  2.5016  0.6125
  744SOL    HW2 3334   6.394   3.855   3.438  0.4467 -1.7101 -0.1656
  745SOL     OW 3335   4.014   0.378   4.558  0.4694 -0.2704  0.4756
  745SOL    HW1 3336   4.098   0.335   4.541 -0.1008 -1.0784 -0.3734
  745SOL    HW2 3337   3.954   0.307   4.579 -0.5886  0.0015 -1.3801
  746SOL     OW 3338   1.217   2.998   2.096  0.5599 -0.2759 -0.0211
  746SOL    HW1 3339   1.254   2.915   2.066 -0.3708 -0.8304  0.3214
  746SOL    HW2 3340   1.129   3.001   2.059  0.8996  1.0072 -0.7897
  747SOL     OW 3341   2.493   7.293   1.522 -0.3341 -0.2184  0.1107
  747SOL    HW1 3342   2.548   7.341   1.584  2.6367 -2.1904 -0.7654
  747SOL    HW2 3343   2.502   7.341   1.440  0.3782 -0.6985 -0.1021
  748SOL     OW 3344   5.966   6.373   0.502 -0.1275 -0.6943  0.2874
  748SOL    HW1 3345   5.921   6.290   0.518  1.4891 -1.5439  0.6764
  748SOL    HW2 3346   5.953   6.391   0.409 -1.4059 -0.8110  0.4348
  749SOL     OW 3347   8.660   6.263   3.658  0.3165  0.0024 -0.1405
  749SOL    HW1 3348   8.742   6.216   3.669  0.7345  0.5610 -0.8028
  749SOL    HW2 3349   8.630   6.280   3.747  1.3596  0.5588  0.1168
  750SOL     OW 3350   3.210   2.865   4.239  0.0614 -0.3144 -0.1179
  750SOL    HW1 3351   3.244   2.848   4.151 -0.0460  0.3175 -0.2891
  750SOL    HW2 3352   3.116   2.846   4.232  0.0035  0.0024 -0.2155
  751SOL     OW 3353   0.670   7.167   8.869  0.6229 -0.3589 -0.4246
  751SOL    HW1 3354   0.597   7.203   8.818  0.7347 -0.6524 -0.7969
  751SOL    HW2 3355   0.717   7.244   8.901  0.4188 -0.1685 -0.5748
  752SOL     OW 3356   2.648   5.600   7.964 -0.4912  0.0768  0.7414
  752SOL    HW1 3357   2.688   5.663   8.024  1.1670  0.3999 -0.6393
  752SOL    HW2 3358   2.586   5.551   8.019 -1.5028  2.5606  1.9613
  753SOL     OW 3359   4.609   0.846   0.522  0.2666  0.4381  0.3693
  753SOL    HW1 3360   4.640   0.756   0.514  0.4253  0.5629 -0.5677
  753SOL    HW2 3361   4.526   0.847   0.474 -0.2405  0.5552  1.2356
  754SOL     OW 3362   7.409   8.365   5.129 -0.0729 -0.1983 -0.2158
  754SOL    HW1 3363   7.398   8.285   5.078  0.1659  0.2884 -1.0596
  754SOL    HW2 3364   7.330   8.369   5.184 -0.6306 -0.4363 -0.9797
  755SOL     OW 3365   8.585   3.219   3.603 -0.1703 -0.3847 -0.4039
  755SOL    HW1 3366   8.664   3.233   3.656 -1.4291  0.7219  1.2950
  755SOL    HW2 3367   8.513   3.252   3.658 -1.9369 -2.1713 -1.5158
  756SOL     OW 3368   0.303   7.372   4.033  0.1052 -0.0374  0.0664
  756SOL    HW1 3369   0.245   7.432   4.081  0.6075  1.5323 -1.2035
  756SOL    HW2 3370   0.282   7.286   4.069 -0.7339  0.8553  1.8836
  757SOL     OW 3371   7.215   8.346   5.468 -0.2252 -0.4430 -0.7343
  757SOL    HW1 3372   7.136   8.328   5.518 -0.2395 -0.2710 -0.6938
  757SOL    HW2 3373   7.259   8.261   5.461  1.0877 -0.0665  1.8064
  758SOL     OW 3374   8.026   7.434   7.819  0.4143 -0.0338 -0.3593
  758SOL    HW1 3375   8.061   7.369   7.880  1.4127  0.5187 -0.3241
  758SOL    HW2 3376   8.026   7.390   7.734 -2.8822 -1.5309  0.2601
  759SOL     OW 3377   8.622   2.783   6.765  0.2234 -1.0874 -0.4150
  759SOL    HW1 3378   8.713   2.774   6.795  0.5957  0.5697 -0.9507
  759SOL    HW2 3379   8.588   2.694   6.765  1.7397 -1.7018  0.1377
  760SOL     OW 3380   3.123   7.056   2.431 -0.7081 -0.1697  0.5160
  760SOL    HW1 3381   3.092   6.965   2.440 -1.4821  0.2453  2.6256
  760SOL    HW2 3382   3.208   7.047   2.388 -1.2699 -1.7860 -0.3882
  761SOL     OW 3383   7.793   0.877   1.944  0.3628 -0.8274 -0.1465
  761SOL    HW1 3384   7.782   0.915   1.857  1.5746 -2.4962 -1.0729
  761SOL    HW2 3385   7.791   0.952   2.003 -1.2884  0.2809 -1.4996
  762SOL     OW 3386   0.558   5.843   0.624 -0.0476 -0.0163 -0.5689
  762SOL    HW1 3387   0.497   5.821   0.554 -0.3986 -0.7371 -0.0464
  762SOL    HW2 3388   0.645   5.826   0.586 -0.2921 -3.3276  0.0605
  763SOL     OW 3389   7.623   0.166   2.927 -0.4111  0.6646 -0.4372
  763SOL    HW1 3390   7.592   0.253   2.953  0.7739  0.6902  1.0545
  763SOL    HW2 3391   7.585   0.107   2.993 -1.1181  0.0365 -1.3769
  764SOL     OW 3392   6.272   8.958   4.870 -0.0366  0.1379 -0.0924
  764SOL    HW1 3393   6.283   8.933   4.778 -3.1910 -0.8331 -0.3310
  764SOL    HW2 3394   6.233   9.046   4.867  1.0447  0.6428  0.3770
  765SOL     OW 3395   3.216   4.233   6.456  0.1490  0.1264  0.0464
  765SOL    HW1 3396   3.269   4.261   6.530  1.0026  1.0517 -0.8799
  765SOL    HW2 3397   3.279   4.209   6.388 -0.6093 -0.6106 -0.4202
  766SOL     OW 3398   5.671   4.558   1.069  0.1020  0.0686  0.3022
  766SOL    HW1 3399   5.667   4.473   1.026 -0.7788  1.0039 -1.5412
  766SOL    HW2 3400   5.752   4.554   1.120  0.1282 -1.8264  0.2020
  767SOL     OW 3401   4.671   4.556   5.493 -0.0224 -0.2472  0.4815
  767SOL    HW1 3402   4.724   4.570   5.572 -1.4181  0.8217  1.2970
  767SOL    HW2 3403   4.581   4.566   5.524 -0.7260 -2.0682 -0.8390
  768SOL     OW 3404   6.300   4.012   8.196 -0.0854  0.4410 -0.2026
  768SOL    HW1 3405   6.352   4.031   8.274 -0.8080 -1.7592  0.9067
  768SOL    HW2 3406   6.231   4.077   8.195  1.0860  1.7250 -0.1677
  769SOL     OW 3407   1.124   6.312   3.906  0.3228 -0.4064  0.2124
  769SOL    HW1 3408   1.060   6.246   3.931 -0.2282 -0.3617 -1.0578
  769SOL    HW2 3409   1.131   6.306   3.811 -0.6167  2.1330 -0.0924
  770SOL     OW 3410   7.360   5.325   9.031  0.0610 -0.3517  0.0462
  770SOL    HW1 3411   7.266   5.312   9.018  0.0903 -1.2569  0.6504
  770SOL    HW2 3412   7.369   5.419   9.047 -0.6583 -0.1554 -0.6607
  771SOL     OW 3413   1.036   4.221   7.476  0.0338 -0.4880 -0.2282
  771SOL    HW1 3414   1.121   4.219   7.518 -0.0430 -1.1992 -0.1073
  771SOL    HW2 3415   0.982   4.159   7.525 -1.0023  1.0079  0.6292
  772SOL     OW 3416   6.066   2.843   1.841  0.2521 -0.6116 -0.1447
  772SOL    HW1 3417   6.004   2.879   1.905  1.9352 -1.8880  2.3796
  772SOL    HW2 3418   6.132   2.911   1.831  0.4668 -0.7675  0.2008
  773SOL     OW 3419   8.918   2.547   8.435 -0.2434  0.1859  0.2216
  773SOL    HW1 3420   8.823   2.543   8.428 -0.3059  2.1503 -0.5310
  773SOL    HW2 3421   8.938   2.504   8.518 -1.7369 -0.5904  0.2024
  774SOL     OW 3422   0.458   0.947   5.925  0.2298 -0.2737 -0.1265
  774SOL    HW1 3423   0.451   0.952   5.830 -0.0753  1.3082 -0.0598
  774SOL    HW2 3424   0.551   0.932   5.941  0.4033  0.1617 -0.6726
  775SOL     OW 3425   8.781   1.957   0.099 -0.5581  0.0418 -0.1656
  775SOL    HW1 3426   8.816   1.915   0.020  0.9006 -0.7709  0.8576
  775SOL    HW2 3427   8.720   1.893   0.135 -1.0845  0.3359 -0.5281
  776SOL     OW 3428   8.631   2.090   4.169 -0.0920  0.2064 -0.4066
  776SOL    HW1 3429   8.623   2.047   4.254 -0.4787 -0.4305 -0.7550
  776SOL    HW2 3430   8.658   2.179   4.190  1.5297 -0.4201  0.2822
  777SOL     OW 3431   4.153   1.261   7.073  0.6097 -0.4183  0.6632
  777SOL    HW1 3432   4.139   1.341   7.123  1.5984  0.9592 -1.1244
  777SOL    HW2 3433   4.243   1.268   7.042 -0.2123 -0.6848 -2.0693
  778SOL     OW 3434   7.503   2.343   6.850  0.4092 -0.0696 -0.1874
  778SOL    HW1 3435   7.426   2.303   6.810  0.3093 -0.1398  0.0706
  778SOL    HW2 3436   7.576   2.311   6.798  0.3598 -0.8437  0.2012
  779SOL     OW 3437   7.424   1.062   5.934  0.1917  0.0836  0.1662
  779SOL    HW1 3438   7.439   0.974   5.970  0.9244 -0.1803 -0.7303
  779SOL    HW2 3439   7.485   1.118   5.981 -1.7298  0.5507  2.2450
  780SOL     OW 3440   8.525   3.172   8.677 -0.0569  0.6328  0.4240
  780SOL    HW1 3441   8.545   3.251   8.727  0.5300 -0.9511  2.8243
  780SOL    HW2 3442   8.435   3.185   8.646  0.3326  2.5933 -0.0361
  781SOL     OW 3443   3.585   8.263   8.597 -0.1222  0.7675 -0.7443
  781SOL    HW1 3444   3.575   8.171   8.623 -0.2966  1.1300  0.5415
  781SOL    HW2 3445   3.495   8.293   8.581 -0.0643  0.7177 -1.1766
  782SOL     OW 3446   8.666   0.599   1.870 -0.2358  0.4076  0.0728
  782SOL    HW1 3447   8.589   0.544   1.857 -0.4804  1.1998 -2.3361
  782SOL    HW2 3448   8.715   0.591   1.788  1.2911  1.4008  0.8443
  783SOL     OW 3449   8.169   2.933   5.865  0.4367 -0.1514  0.1040
  783SOL    HW1 3450   8.204   3.022   5.870  1.5866 -0.5101 -0.9976
  783SOL    HW2 3451   8.136   2.926   5.776 -0.9694 -0.3873  0.6150
  784SOL     OW 3452   0.220   7.417   3.073 -0.3498  0.2026 -0.1985
  784SOL    HW1 3453   0.315   7.417   3.082 -0.4308  0.0428  0.7522
  784SOL    HW2 3454   0.203   7.351   3.006  0.1957  0.0636 -0.2093
  785SOL     OW 3455   7.278   6.553   4.850 -0.8937  0.0566 -0.0042
  785SOL    HW1 3456   7.303   6.642   4.825  1.3887 -0.8723 -1.3458
  785SOL    HW2 3457   7.245   6.514   4.769 -0.1388 -0.8574  0.1167
  786SOL     OW 3458   2.041   7.016   3.183 -0.2495 -0.0500  0.1701
  786SOL    HW1 3459   2.058   7.110   3.187  1.1224 -0.2320 -0.6785
  786SOL    HW2 3460   2.125   6.977   3.160 -0.5723 -1.5859  1.4005
  787SOL     OW 3461   1.978   2.868   3.452  0.2735  0.1095 -0.0675
  787SOL    HW1 3462   2.045   2.916   3.501  2.4543 -4.4699  2.0227
  787SOL    HW2 3463   2.026   2.802   3.403 -2.5614 -1.6911 -0.6644
  788SOL     OW 3464   5.382   4.612   8.964  0.1144  0.0761 -0.3984
  788SOL    HW1 3465   5.301   4.612   9.015  0.3611 -1.8641  0.0815
  788SOL    HW2 3466   5.452   4.611   9.029  0.6147  2.6285 -0.8005
  789SOL     OW 3467   5.308   3.679   3.896 -0.2014 -0.4363  0.3648
  789SOL    HW1 3468   5.261   3.602   3.863 -1.6773  0.2485  0.7603
  789SOL    HW2 3469   5.243   3.724   3.951  0.0544  2.0090 -1.2120
  790SOL     OW 3470   8.696   1.625   8.812 -0.0166  0.3076 -0.6414
  790SOL    HW1 3471   8.651   1.600   8.732  0.4896 -2.6669 -0.1263
  790SOL    HW2 3472   8.784   1.650   8.783 -0.6341  1.8792 -1.2288
  791SOL     OW 3473   0.751   1.726   5.037  0.3340 -0.1909  0.3409
  791SOL    HW1 3474   0.718   1.719   5.127  1.8033  2.0623  1.1638
  791SOL    HW2 3475   0.819   1.793   5.043  2.0279 -1.5888 -2.0601
  792SOL     OW 3476   2.181   5.408   4.301  0.3251  0.0331  0.3656
  792SOL    HW1 3477   2.191   5.317   4.327 -2.0839 -0.4203 -0.0945
  792SOL    HW2 3478   2.137   5.404   4.216  1.5059  1.6171 -0.3740
  793SOL     OW 3479   0.789   5.345   0.190  0.0124 -0.1113 -0.3208
  793SOL    HW1 3480   0.707   5.337   0.141 -0.3746 -2.6468  0.5772
  793SOL    HW2 3481   0.761   5.352   0.282  0.7714  2.7669 -0.1983
  794SOL     OW 3482   2.523   8.887   7.339 -0.1553  0.3418 -0.3199
  794SOL    HW1 3483   2.570   8.858   7.417  0.9629  2.4855 -0.1339
  794SOL    HW2 3484   2.452   8.942   7.373 -1.8022 -1.4368 -0.6944
  795SOL     OW 3485   7.641   5.297   3.812 -0.1092 -0.5444  0.0674
  795SOL    HW1 3486   7.570   5.351   3.847 -0.4259  0.9812 -2.6735
  795SOL    HW2 3487   7.720   5.331   3.854 -0.6580 -0.2045  0.8505
  796SOL     OW 3488   6.701   3.213   6.546 -0.2136  0.6127 -0.2179
  796SOL    HW1 3489   6.704   3.119   6.566  0.4537  1.1569  2.8168
  796SOL    HW2 3490   6.718   3.219   6.452 -0.7866 -2.3121 -0.5937
  797SOL     OW 3491   4.465   6.442   4.502  0.0496  0.4002  0.8660
  797SOL    HW1 3492   4.423   6.425   4.586  0.2008  1.6224  1.2112
  797SOL    HW2 3493   4.481   6.536   4.502  1.1084  0.2394 -0.0511
  798SOL     OW 3494   1.790   0.478   8.991  0.2382  0.1063 -0.1780
  798SOL    HW1 3495   1.865   0.532   8.966 -0.3377  0.9681 -0.0787
  798SOL    HW2 3496   1.775   0.499   9.083 -0.2136  0.0480 -0.2387
  799SOL     OW 3497   6.220   7.758   5.128  0.3404 -0.3842 -0.4403
  799SOL    HW1 3498   6.288   7.701   5.161  0.7330  0.9318  1.1552
  799SOL    HW2 3499   6.193   7.718   5.045  1.6982 -1.9589 -0.1704
  800SOL     OW 3500   0.803   4.680   7.427  0.0599 -0.4227  0.3394
  800SOL    HW1 3501   0.864   4.638   7.366 -0.4792  1.5135 -1.6542
  800SOL    HW2 3502   0.832   4.771   7.431 -0.8898 -0.1489  1.7639
  801SOL     OW 3503   1.579   8.722   0.278 -0.6985  0.1638 -0.0929
  801SOL    HW1 3504   1.545   8.801   0.236  1.3102  0.4803 -1.2063
  801SOL    HW2 3505   1.508   8.695   0.337 -0.9815  3.4858  1.2958
  802SOL     OW 3506   8.133   8.290   5.871 -0.1915 -0.3343 -0.1750
  802SOL    HW1 3507   8.104   8.331   5.953  1.0386 -0.7849  0.5002
  802SOL    HW2 3508   8.072   8.325   5.805  0.3015  1.9799  0.4807
  803SOL     OW 3509   4.109   8.039   3.924 -0.3929  0.0185  0.0717
  803SOL    HW1 3510   4.017   8.047   3.899 -0.2993  0.7249 -0.0678
  803SOL    HW2 3511   4.158   8.044   3.842 -0.2584 -1.2280  0.0515
  804SOL     OW 3512   8.512   6.546   5.109  0.3217 -0.1579  0.6349
  804SOL    HW1 3513   8.604   6.549   5.136  0.9927  3.2335 -1.4921
  804SOL    HW2 3514   8.476   6.629   5.140 -1.0407  0.1280 -1.5287
  805SOL     OW 3515   5.726   8.765   2.838 -0.3393 -0.2910  0.5506
  805SOL    HW1 3516   5.639   8.730   2.860 -0.6472 -0.7670 -1.2121
  805SOL    HW2 3517   5.723   8.776   2.743  1.4047  0.0606  0.5109
  806SOL     OW 3518   7.760   0.746   3.560  0.2292  0.1935  0.3610
  806SOL    HW1 3519   7.771   0.720   3.468  0.8335  1.9914 -0.1113
  806SOL    HW2 3520   7.810   0.681   3.609  0.3149 -0.5042 -0.6042
  807SOL     OW 3521   2.712   2.340   6.824  0.5176 -0.0068  0.0414
  807SOL    HW1 3522   2.647   2.307   6.887  0.5756  1.1766  0.7363
  807SOL    HW2 3523   2.702   2.282   6.748  1.4245 -2.3729  1.6174
  808SOL     OW 3524   1.312   7.710   6.891  0.0173 -0.5891 -0.4377
  808SOL    HW1 3525   1.234   7.680   6.845  0.9044 -1.4240 -1.4773
  808SOL    HW2 3526   1.382   7.702   6.826  0.9516  0.1912  0.4475
  809SOL     OW 3527   6.433   6.921   6.434  0.1616  0.5858 -0.2142
  809SOL    HW1 3528   6.496   6.879   6.492  0.2897 -0.1615 -0.8682
  809SOL    HW2 3529   6.464   7.011   6.425  1.8432 -0.0567 -1.4596
  810SOL     OW 3530   8.843   7.992   1.218  0.6866 -0.0717  0.0885
  810SOL    HW1 3531   8.793   8.068   1.246  0.5092  0.1702 -0.8733
  810SOL    HW2 3532   8.932   8.008   1.250  0.5959  0.4147  0.0964
  811SOL     OW 3533   1.484   2.553   5.650 -0.0091  0.5672  0.5384
  811SOL    HW1 3534   1.553   2.511   5.599 -1.2346 -2.0754  0.8779
  811SOL    HW2 3535   1.414   2.487   5.655 -2.0884  2.6779  1.2014
  812SOL     OW 3536   5.869   3.432   3.434 -0.1734  0.2752 -0.3720
  812SOL    HW1 3537   5.895   3.501   3.495 -1.7209  0.2840  0.3285
  812SOL    HW2 3538   5.793   3.467   3.388 -1.9949 -1.4466  1.1135
  813SOL     OW 3539   0.411   3.153   0.858  0.4758  0.2235  0.6914
  813SOL    HW1 3540   0.482   3.089   0.864  0.6296  0.4485  1.4449
  813SOL    HW2 3541   0.357   3.123   0.785  1.4277  0.1362  0.0076
  814SOL     OW 3542   0.179   3.974   7.827 -0.2194 -0.4187 -0.2921
  814SOL    HW1 3543   0.135   4.053   7.858 -0.6590 -1.2369  1.2333
  814SOL    HW2 3544   0.108   3.912   7.812  0.1689 -0.7122 -0.9721
  815SOL     OW 3545   0.203   0.446   0.845  0.4491  0.5600 -0.7442
  815SOL    HW1 3546   0.167   0.362   0.875  2.9203  0.7381  3.5526
  815SOL    HW2 3547   0.138   0.511   0.872  0.5325  0.3275  0.0446
  816SOL     OW 3548   4.081   3.578   6.497  0.0347 -0.3829  0.0621
  816SOL    HW1 3549   4.160   3.611   6.541  0.9672  2.3081 -3.1958
  816SOL    HW2 3550   4.033   3.657   6.472 -0.8732 -1.7078 -2.7633
  817SOL     OW 3551   8.480   3.010   8.453  0.1619 -0.2695  0.2963
  817SOL    HW1 3552   8.557   3.020   8.397  0.9710 -0.1213  1.3994
  817SOL    HW2 3553   8.507   3.048   8.537 -0.5753 -1.6388  1.1846
  818SOL     OW 3554   4.718   7.206   7.029  0.4439 -0.8430  0.6299
  818SOL    HW1 3555   4.684   7.295   7.038  1.7465 -0.3426  0.7411
  818SOL    HW2 3556   4.701   7.165   7.114  2.3488  0.2115  1.5804
  819SOL     OW 3557   2.043   3.752   2.877  0.0336 -0.0948  0.2879
  819SOL    HW1 3558   2.128   3.754   2.921  1.4502  0.7006 -2.2826
  819SOL    HW2 3559   1.991   3.817   2.922  0.7347 -0.6288  1.9551
  820SOL     OW 3560   7.570   8.741   2.449 -0.2079  0.1054 -0.1077
  820SOL    HW1 3561   7.636   8.777   2.390 -0.5141 -0.0508 -0.5519
  820SOL    HW2 3562   7.594   8.648   2.458 -2.2147 -0.8298 -2.9467
  821SOL     OW 3563   5.227   0.788   0.385 -0.9400 -0.6703  0.1730
  821SOL    HW1 3564   5.282   0.855   0.427 -1.2863 -1.0568  1.2736
  821SOL    HW2 3565   5.141   0.800   0.424 -1.4761 -0.5223 -1.0364
  822SOL     OW 3566   5.880   1.035   3.064  0.3613 -0.0643 -0.0408
  822SOL    HW1 3567   5.843   1.017   3.150  1.1679 -2.1607 -0.0648
  822SOL    HW2 3568   5.813   1.005   3.003  0.4980 -0.2252 -0.1136
  823SOL     OW 3569   3.980   3.981   7.734 -0.4706  0.2584 -0.0927
  823SOL    HW1 3570   3.904   3.930   7.706 -0.2655 -0.8359  1.2248
  823SOL    HW2 3571   3.942   4.059   7.775 -0.8625 -0.0090  0.0564
  824SOL     OW 3572   7.628   4.159   6.610 -0.6869  0.0925  0.2086
  824SOL    HW1 3573   7.564   4.207   6.663 -0.0747  0.4810  0.6190
  824SOL    HW2 3574   7.684   4.115   6.674 -0.1160  0.3262 -0.1189
  825SOL     OW 3575   1.212   2.877   7.265 -0.1309  0.2324  0.7590
  825SOL    HW1 3576   1.151   2.812   7.301 -0.6562  0.8847  1.0806
  825SOL    HW2 3577   1.244   2.924   7.342 -0.8576  1.2970  0.4309
  826SOL     OW 3578   4.268   0.866   1.655  0.0536  0.4785  0.2945
  826SOL    HW1 3579   4.347   0.914   1.631 -0.8035  2.1978  0.7346
  826SOL    HW2 3580   4.292   0.774   1.646  2.0458  0.9562  0.2861
  827SOL     OW 3581   5.751   1.255   3.608  0.1364  0.4992  0.0940
  827SOL    HW1 3582   5.746   1.324   3.673 -0.1034 -0.6139  1.2904
  827SOL    HW2 3583   5.671   1.204   3.620  0.3966 -0.1028 -0.6367
  828SOL     OW 3584   0.889   4.640   7.185  0.2475 -0.3400 -0.3938
  828SOL    HW1 3585   0.815   4.697   7.206 -1.6643 -3.4908  2.6297
  828SOL    HW2 3586   0.880   4.622   7.091 -0.7024  2.0077 -0.8109
  829SOL     OW 3587   3.909   1.227   5.474  0.1757  0.2503  0.2172
  829SOL    HW1 3588   3.948   1.194   5.393 -1.4489 -2.0135  0.2539
  829SOL    HW2 3589   3.977   1.283   5.513  1.4029  0.5312 -2.1267
  830SOL     OW 3590   6.201   3.231   3.417 -0.0456  0.0420  0.9239
  830SOL    HW1 3591   6.154   3.181   3.351  2.0827 -2.0221  0.8303
  830SOL    HW2 3592   6.161   3.318   3.415 -2.3018 -0.9492 -0.6252
  831SOL     OW 3593   8.154   4.179   0.623  0.2575 -0.4241  0.0664
  831SOL    HW1 3594   8.207   4.100   0.612  1.3865  0.4375 -0.9663
  831SOL    HW2 3595   8.178   4.234   0.549 -0.2779  1.0159  0.9315
  832SOL     OW 3596   2.890   2.892   6.194  0.0750  0.3826  0.3784
  832SOL    HW1 3597   2.967   2.949   6.189  1.5197 -1.2738  2.1772
  832SOL    HW2 3598   2.854   2.909   6.281 -0.5046 -0.1965  0.2566
  833SOL     OW 3599   1.118   2.789   7.000 -0.1757  0.2624  0.3474
  833SOL    HW1 3600   1.162   2.773   7.083 -0.3736  0.0893  0.4217
  833SOL    HW2 3601   1.181   2.763   6.933  0.2051  0.9622  0.4288
  834SOL     OW 3602   3.633   7.952   0.016 -0.2543 -0.0664 -0.0353
  834SOL    HW1 3603   3.604   8.038  -0.016  0.5311  0.2598  0.1011
  834SOL    HW2 3604   3.722   7.968   0.049 -0.8037 -0.5352  1.7256
  835SOL     OW 3605   0.018   1.882   0.159  0.3100 -0.3628 -0.1525
  835SOL    HW1 3606   0.042   1.975   0.154 -1.0912 -0.0494 -2.1582
  835SOL    HW2 3607   0.006   1.866   0.253 -0.4263  1.7839  0.1834
  836SOL     OW 3608   1.636   0.261   0.093  0.4058  0.4188 -0.5087
  836SOL    HW1 3609   1.590   0.293   0.015 -1.4605 -0.5563  0.1409
  836SOL    HW2 3610   1.685   0.337   0.125  0.7213  1.0039 -2.2520
  837SOL     OW 3611   0.505   5.706   8.500  0.1579  0.5937  0.3510
  837SOL    HW1 3612   0.435   5.761   8.465  0.1424 -0.4301 -1.3557
  837SOL    HW2 3613   0.460   5.628   8.533  0.4428  0.0549 -0.5008
  838SOL     OW 3614   1.834   6.867   0.207 -0.4290  0.1320  0.3767
  838SOL    HW1 3615   1.764   6.813   0.171  2.2077 -2.5884 -1.2147
  838SOL    HW2 3616   1.855   6.928   0.137  0.2625 -0.6359 -0.1083
  839SOL     OW 3617   4.315   7.050   4.765  1.3785  0.4071 -0.1767
  839SOL    HW1 3618   4.294   7.144   4.770 -0.5403 -0.0100  0.4909
  839SOL    HW2 3619   4.323   7.022   4.856 -0.5154 -0.5308 -0.2435
  840SOL     OW 3620   4.171   8.058   8.173 -0.3661  0.4608 -0.1310
  840SOL    HW1 3621   4.266   8.068   8.168  0.0317 -2.6332 -1.0345
  840SOL    HW2 3622   4.139   8.090   8.089  0.3153 -1.5285 -1.2063
  841SOL     OW 3623   1.104   6.566   0.512  0.7697  0.3870 -0.2430
  841SOL    HW1 3624   1.037   6.498   0.512 -2.4556  3.3260  1.3758
  841SOL    HW2 3625   1.062   6.643   0.474  2.2941  3.1179  3.0845
  842SOL     OW 3626   3.487   8.754   7.143 -0.1249 -0.1928  0.2278
  842SOL    HW1 3627   3.503   8.811   7.068  0.5498  0.1121  0.5905
  842SOL    HW2 3628   3.540   8.676   7.125 -0.1266 -0.2079  0.2885
  843SOL     OW 3629   7.260   3.976   0.144 -0.3290  0.2193  0.2148
  843SOL    HW1 3630   7.224   3.892   0.172 -0.8234  0.1717 -0.5041
  843SOL    HW2 3631   7.320   4.002   0.214  0.6124 -1.2126 -0.0163
  844SOL     OW 3632   3.461   4.234   3.121 -0.5444  0.7849 -0.1807
  844SOL    HW1 3633   3.420   4.212   3.205 -0.9167 -0.4891 -0.6797
  844SOL    HW2 3634   3.472   4.329   3.124 -1.7269  0.9075  0.7745
  845SOL     OW 3635   9.000   8.994   6.188  0.5919 -0.7014  0.0924
  845SOL    HW1 3636   9.006   8.913   6.137  0.4290  0.3389 -1.6686
  845SOL    HW2 3637   9.089   9.011   6.217  0.9778 -0.5684 -1.1109
  846SOL     OW 3638   6.987   6.264   8.803  0.3608  0.2549  0.0147
  846SOL    HW1 3639   6.959   6.174   8.789  1.2760  0.0794 -0.8022
  846SOL    HW2 3640   6.971   6.280   8.896  1.1957 -1.1190  0.4270
  847SOL     OW 3641   1.418   1.752   8.333  0.5767  0.4819 -0.0564
  847SOL    HW1 3642   1.329   1.744   8.368 -0.1042 -0.1668 -1.7950
  847SOL    HW2 3643   1.409   1.725   8.241  3.1790 -3.0299  0.5103
  848SOL     OW 3644   0.015   8.485   7.018 -0.2804  0.0736  0.3759
  848SOL    HW1 3645  -0.065   8.537   7.023  0.0385  0.4489  1.8213
  848SOL    HW2 3646   0.073   8.522   7.085  0.5393 -1.1547  0.3841
  849SOL     OW 3647   7.503   0.693   0.905  0.5295 -0.6284 -0.4492
  849SOL    HW1 3648   7.411   0.716   0.892  0.3848 -0.7703  0.2653
  849SOL    HW2 3649   7.550   0.738   0.835 -0.0327 -0.1677 -0.5345
  850SOL     OW 3650   7.430   3.414   1.123  0.1261 -0.2698 -0.1978
  850SOL    HW1 3651   7.416   3.499   1.166  3.1782 -0.0722  0.6327
  850SOL    HW2 3652   7.406   3.430   1.032 -4.3395 -0.0808  0.7886
  851SOL     OW 3653   6.060   1.752   7.832 -0.5214 -0.0773  0.4907
  851SOL    HW1 3654   5.988   1.785   7.778  0.6080  2.1589  0.2593
  851SOL    HW2 3655   6.068   1.660   7.807 -0.9977  0.5065 -2.0819
  852SOL     OW 3656   3.840   5.398   7.278 -0.4935 -0.1209  0.5532
  852SOL    HW1 3657   3.750   5.404   7.310 -0.5504 -0.6076  0.4881
  852SOL    HW2 3658   3.847   5.468   7.212 -0.8589 -0.1662  0.4652
  853SOL     OW 3659   4.755   2.456   1.248  0.0629 -0.2790 -0.1388
  853SOL    HW1 3660   4.845   2.487   1.237 -0.5090  1.4136 -0.2732
  853SOL    HW2 3661   4.722   2.444   1.159 -0.0618 -0.2279 -0.0997
  854SOL     OW 3662   5.714   5.873   7.956 -0.0998 -0.2370 -1.0197
  854SOL    HW1 3663   5.634   5.830   7.988  0.0474  1.3143  1.7012
  854SOL    HW2 3664   5.682   5.939   7.894 -0.8859  0.0232 -0.3506
  855SOL     OW 3665   0.783   5.844   7.722 -0.2246 -0.1315  0.4999
  855SOL    HW1 3666   0.817   5.784   7.788 -0.3680 -0.6628  0.1023
  855SOL    HW2 3667   0.721   5.900   7.769  1.1994  0.8868  1.2500
  856SOL     OW 3668   1.165   3.665   6.614  0.4349  0.4511  0.1222
  856SOL    HW1 3669   1.071   3.682   6.606 -0.1878 -2.0682  1.1575
  856SOL    HW2 3670   1.186   3.610   6.539  1.0312  0.7542  0.0625
  857SOL     OW 3671   5.776   6.441   3.866 -0.0551 -0.3460 -0.6313
  857SOL    HW1 3672   5.857   6.405   3.830 -1.5222 -1.9656 -2.6567
  857SOL    HW2 3673   5.783   6.428   3.960  1.1642 -2.5213 -0.9390
  858SOL     OW 3674   2.145   6.748   8.902 -0.1321 -0.1707  0.0750
  858SOL    HW1 3675   2.137   6.716   8.812 -1.3474 -1.5465  0.6356
  858SOL    HW2 3676   2.059   6.786   8.921  0.0010 -0.2066  0.7735
  859SOL     OW 3677   4.498   4.289   8.009  0.6163  0.3987 -0.1384
  859SOL    HW1 3678   4.465   4.373   8.043 -0.3413  0.6484 -1.5790
  859SOL    HW2 3679   4.525   4.241   8.086 -1.5848  0.8865  1.0052
  860SOL     OW 3680   0.253   0.190   3.900 -0.1810 -0.1319 -0.2183
  860SOL    HW1 3681   0.258   0.182   3.995  0.2744  1.5284 -0.0692
  860SOL    HW2 3682   0.189   0.124   3.874 -0.9785 -0.0288  1.3417
  861SOL     OW 3683   8.662   8.689   6.742 -0.2164  0.5919 -0.4094
  861SOL    HW1 3684   8.733   8.650   6.690 -0.1063  0.4616 -0.1625
  861SOL    HW2 3685   8.682   8.782   6.745 -0.5152  0.6888 -1.0599
  862SOL     OW 3686   6.654   4.833   3.624  0.1169  0.5990  0.3889
  862SOL    HW1 3687   6.631   4.925   3.628  2.0508  1.0876  2.4747
  862SOL    HW2 3688   6.603   4.791   3.693 -0.4624  0.1652 -0.2900
  863SOL     OW 3689   3.055   3.696   6.693  0.2312  0.3121  0.4545
  863SOL    HW1 3690   3.102   3.613   6.689 -0.6339 -0.3290  2.2354
  863SOL    HW2 3691   3.044   3.723   6.602  0.8065 -1.3663 -0.1380
  864SOL     OW 3692   0.322   0.128   8.575  0.1713  0.0317 -1.0835
  864SOL    HW1 3693   0.316   0.104   8.667  3.0648  0.3711 -0.7150
  864SOL    HW2 3694   0.336   0.044   8.530 -0.3671 -0.0358 -1.1381
  865SOL     OW 3695   1.909   1.639   8.143 -0.4316 -0.0916 -0.1840
  865SOL    HW1 3696   1.889   1.722   8.187 -0.1982  0.0839 -0.4068
  865SOL    HW2 3697   1.914   1.662   8.050  2.2167  0.1799 -0.0592
  866SOL     OW 3698   0.419   3.693   8.163 -0.2646  0.2871  0.3731
  866SOL    HW1 3699   0.466   3.733   8.090 -0.9004  1.2656  0.4816
  866SOL    HW2 3700   0.473   3.712   8.239 -1.5700  2.8895  0.7640
  867SOL     OW 3701   5.664   1.749   2.261  0.4031  0.1924 -0.7426
  867SOL    HW1 3702   5.730   1.695   2.217 -1.2791 -1.2553 -1.5859
  867SOL    HW2 3703   5.618   1.794   2.191 -0.6212 -0.1276 -0.2869
  868SOL     OW 3704   3.796   3.867   2.740  0.7113  1.1393 -0.6931
  868SOL    HW1 3705   3.782   3.867   2.646 -1.2492  0.8003 -0.4368
  868SOL    HW2 3706   3.827   3.779   2.760 -2.8083 -0.2402 -0.5870
  869SOL     OW 3707   6.087   2.667   0.231 -0.2978  0.2107 -0.2899
  869SOL    HW1 3708   6.135   2.740   0.269 -0.7094  1.9898 -2.9317
  869SOL    HW2 3709   6.155   2.613   0.190 -0.2438  0.8316 -1.0296
  870SOL     OW 3710   6.227   3.992   6.454  0.2676 -0.0631 -0.1073
  870SOL    HW1 3711   6.232   3.897   6.450  1.4486 -0.0661  0.7896
  870SOL    HW2 3712   6.146   4.014   6.408  0.1178 -1.4722 -0.5667
  871SOL     OW 3713   4.017   6.195   7.770 -0.6530 -0.1366  0.5461
  871SOL    HW1 3714   4.068   6.125   7.811  0.7263 -0.1103 -0.9878
  871SOL    HW2 3715   4.077   6.269   7.768 -0.6574 -0.1347 -1.4157
  872SOL     OW 3716   7.412   6.782   7.997 -0.0990  0.3418  0.3850
  872SOL    HW1 3717   7.371   6.765   8.082 -0.5855  0.5208  0.1896
  872SOL    HW2 3718   7.339   6.789   7.936  0.2978 -1.3839 -0.3517
  873SOL     OW 3719   2.656   6.136   3.570 -0.4273  0.1255  0.1163
  873SOL    HW1 3720   2.675   6.224   3.538 -0.5387 -0.0638 -0.4888
  873SOL    HW2 3721   2.686   6.079   3.499  2.4479 -0.5095  1.6690
  874SOL     OW 3722   5.151   8.243   0.541  0.3554  0.3734 -0.1547
  874SOL    HW1 3723   5.108   8.323   0.510  1.8167  1.4506  0.4592
  874SOL    HW2 3724   5.108   8.223   0.624  0.0559  0.5952 -0.2551
  875SOL     OW 3725   3.117   2.844   6.825 -0.1911  0.0364  0.0472
  875SOL    HW1 3726   3.124   2.769   6.766 -1.1634 -0.5360  0.6196
  875SOL    HW2 3727   3.188   2.902   6.799  0.9064 -1.3163 -0.0972
  876SOL     OW 3728   1.010   7.440   7.062 -0.2982  0.2918  0.1300
  876SOL    HW1 3729   1.045   7.350   7.064  0.2080  0.4960  0.7643
  876SOL    HW2 3730   1.085   7.495   7.084 -0.1811  1.0190 -1.8581
  877SOL     OW 3731   3.684   7.882   3.191 -0.3169  0.4771 -0.2545
  877SOL    HW1 3732   3.691   7.937   3.112 -1.8583  1.3485  0.1726
  877SOL    HW2 3733   3.759   7.907   3.244 -0.2744  1.2364 -0.6546
  878SOL     OW 3734   0.777   2.636   7.979  0.4581  0.0375  0.9178
  878SOL    HW1 3735   0.704   2.606   8.033 -0.0062  0.5083  0.5647
  878SOL    HW2 3736   0.768   2.732   7.979  1.1005  0.0980  0.9060
  879SOL     OW 3737   1.722   1.036   2.489  0.2905 -0.6284 -0.1903
  879SOL    HW1 3738   1.678   0.978   2.427 -0.8033 -0.4095  0.3581
  879SOL    HW2 3739   1.736   1.118   2.440  0.0349 -0.6842 -0.3580
  880SOL     OW 3740   5.973   3.765   4.956  0.0087  0.6981 -0.0132
  880SOL    HW1 3741   5.897   3.822   4.972 -0.1696  0.0191  1.7990
  880SOL    HW2 3742   6.027   3.814   4.894 -0.4318  2.5707  1.0075
  881SOL     OW 3743   1.969   7.675   5.574  0.0356 -0.1573  0.4020
  881SOL    HW1 3744   1.958   7.586   5.607  0.5687 -0.5546 -0.4531
  881SOL    HW2 3745   2.051   7.672   5.525 -0.9581  0.2587 -1.3896
  882SOL     OW 3746   2.811   3.939   5.528 -0.2422 -0.4455 -0.1840
  882SOL    HW1 3747   2.819   3.851   5.564  2.7331  0.8106  2.7729
  882SOL    HW2 3748   2.750   3.983   5.587  0.5746  0.2107  0.1966
  883SOL     OW 3749   6.745   8.350   5.178 -0.1159 -0.1112 -0.5336
  883SOL    HW1 3750   6.652   8.360   5.156 -0.2269  0.5126  0.2127
  883SOL    HW2 3751   6.769   8.433   5.218 -0.0290 -1.3188  2.1002
  884SOL     OW 3752   2.165   8.581   6.197 -0.2706 -0.2980  0.1909
  884SOL    HW1 3753   2.164   8.529   6.117  0.5985 -0.1407  0.0633
  884SOL    HW2 3754   2.243   8.551   6.244 -0.4669  0.0000  0.7135
  885SOL     OW 3755   2.350   3.475   2.071 -0.2492  1.2607  0.3077
  885SOL    HW1 3756   2.332   3.474   1.977 -0.3728  2.2880  0.3136
  885SOL    HW2 3757   2.425   3.533   2.081 -0.0182  0.8911  0.8164
  886SOL     OW 3758   3.259   4.029   2.864 -0.0495  0.3123  0.4589
  886SOL    HW1 3759   3.202   3.953   2.854 -2.6973  2.0826  1.0649
  886SOL    HW2 3760   3.329   4.016   2.800  0.1242 -2.9992  1.1411
  887SOL     OW 3761   2.360   5.783   1.593  0.1623 -0.6085  0.0593
  887SOL    HW1 3762   2.289   5.846   1.610  1.4788  1.2143 -0.8092
  887SOL    HW2 3763   2.357   5.723   1.668 -0.7373  0.9170  1.3189
  888SOL     OW 3764   0.758   3.912   3.388 -0.4137 -0.1141 -0.5265
  888SOL    HW1 3765   0.784   3.820   3.391 -1.8970 -0.5456  2.0061
  888SOL    HW2 3766   0.663   3.911   3.399 -0.3581  1.7528  0.5866
  889SOL     OW 3767   8.535   6.606   2.915  0.3431  0.2301 -0.1788
  889SOL    HW1 3768   8.455   6.641   2.955  1.7044  1.9716  1.1630
  889SOL    HW2 3769   8.550   6.523   2.961  0.4771  0.9597  1.1174
  890SOL     OW 3770   4.669   8.911   4.112 -0.1960  0.1750  0.1047
  890SOL    HW1 3771   4.708   8.851   4.175  0.7646 -0.3516 -0.9481
  890SOL    HW2 3772   4.625   8.978   4.165  0.9755  0.0077  1.3216
  891SOL     OW 3773   8.329   1.529   8.128  0.6425  0.3656 -0.5304
  891SOL    HW1 3774   8.242   1.495   8.146  0.5635  0.1472 -1.2639
  891SOL    HW2 3775   8.340   1.518   8.033  1.1067  1.2337 -0.5906
  892SOL     OW 3776   5.836   5.979   6.717 -0.2401 -0.1204 -1.0626
  892SOL    HW1 3777   5.910   5.981   6.778  0.8846 -2.4177 -2.2425
  892SOL    HW2 3778   5.763   5.946   6.769  1.1734 -4.0188 -1.2586
  893SOL     OW 3779   3.057   0.605   3.393  0.1615 -1.0401 -0.2864
  893SOL    HW1 3780   3.152   0.595   3.393  0.1377 -1.2710 -0.0185
  893SOL    HW2 3781   3.034   0.613   3.301  0.4769 -0.6222 -0.3334
  894SOL     OW 3782   4.838   6.385   8.541 -0.6565  0.1137 -0.0525
  894SOL    HW1 3783   4.755   6.387   8.492 -0.1354 -0.2853 -0.9798
  894SOL    HW2 3784   4.835   6.303   8.590 -0.0156 -0.8496 -1.5558
  895SOL     OW 3785   0.321   5.952   8.720 -0.3531 -0.3352 -0.1636
  895SOL    HW1 3786   0.226   5.965   8.727 -0.3106 -0.2621  0.3484
  895SOL    HW2 3787   0.355   6.035   8.688 -0.4273 -0.2446 -0.0091
  896SOL     OW 3788   2.147   7.811   7.362  0.6760 -0.3668  0.7586
  896SOL    HW1 3789   2.099   7.841   7.439 -1.7603  0.2550 -0.8727
  896SOL    HW2 3790   2.082   7.760   7.312  2.2650 -1.0548 -0.7183
  897SOL     OW 3791   6.765   0.878   6.640 -0.3443 -0.2308 -0.3582
  897SOL    HW1 3792   6.845   0.876   6.588  0.0158 -0.0031  0.1689
  897SOL    HW2 3793   6.742   0.971   6.644  0.4192 -0.0750  1.0399
  898SOL     OW 3794   1.730   0.242   8.823  0.1050  0.3120 -0.3562
  898SOL    HW1 3795   1.741   0.325   8.869  0.9019  0.2521 -0.4087
  898SOL    HW2 3796   1.777   0.255   8.740  0.1319 -0.1468 -0.4140
  899SOL     OW 3797   0.889   6.999   6.869  0.0509 -0.3383  0.1450
  899SOL    HW1 3798   0.918   6.974   6.957  1.6282 -1.4659 -0.6524
  899SOL    HW2 3799   0.873   6.916   6.824 -0.9906  0.2295 -0.5756
  900SOL     OW 3800   7.117   6.760   1.699  0.5561  0.6230 -0.4399
  900SOL    HW1 3801   7.095   6.709   1.777 -0.7789  2.3706  0.3948
  900SOL    HW2 3802   7.213   6.764   1.699  0.6270 -0.6368  0.2623
  901SOL     OW 3803   7.687   6.698   8.403  0.2003 -0.7274 -0.2384
  901SOL    HW1 3804   7.755   6.632   8.410 -1.5896 -2.8380 -1.5843
  901SOL    HW2 3805   7.698   6.736   8.316  0.4553 -0.1172  0.0536
  902SOL     OW 3806   8.366   3.703   4.602 -0.2012  0.0586  0.2203
  902SOL    HW1 3807   8.345   3.644   4.674 -1.6711  0.2708 -0.0012
  902SOL    HW2 3808   8.315   3.670   4.528 -0.4320  1.1317 -0.1192
  903SOL     OW 3809   0.068   3.123   8.339 -0.5625  0.1196  0.4119
  903SOL    HW1 3810   0.129   3.186   8.377  0.4042  0.9434 -2.2951
  903SOL    HW2 3811  -0.003   3.117   8.403 -0.1158  3.0841  1.3389
  904SOL     OW 3812   2.414   8.871   4.405  0.6674  0.2417  0.3572
  904SOL    HW1 3813   2.464   8.953   4.404  0.6220  0.2692 -0.0095
  904SOL    HW2 3814   2.323   8.897   4.413  0.7193  0.1855  1.1437
  905SOL     OW 3815   6.895   7.303   0.022  0.0969  0.0262 -0.7802
  905SOL    HW1 3816   6.871   7.395   0.027  1.3313  0.3680 -1.0821
  905SOL    HW2 3817   6.844   7.269  -0.052 -2.1469 -0.1289  0.7099
  906SOL     OW 3818   5.052   5.772   9.117  0.0934  0.4585  0.3058
  906SOL    HW1 3819   5.022   5.850   9.163 -1.4173  0.6202 -0.8983
  906SOL    HW2 3820   5.123   5.804   9.061  0.2563  0.7357  0.6641
  907SOL     OW 3821   3.857   2.123   0.279 -0.6886 -0.8686 -0.2573
  907SOL    HW1 3822   3.923   2.105   0.212 -0.1534  0.9977 -0.2762
  907SOL    HW2 3823   3.898   2.093   0.361 -0.1782 -0.5543 -0.3926
  908SOL     OW 3824   4.792   9.033   0.783  0.1514  0.3463  0.8615
  908SOL    HW1 3825   4.821   8.941   0.785  2.4483  1.0075  1.0075
  908SOL    HW2 3826   4.842   9.071   0.710 -2.2357  1.0875 -0.4907
  909SOL     OW 3827   2.740   0.205   1.449  0.2612 -0.2097  0.1670
  909SOL    HW1 3828   2.694   0.244   1.523 -0.2212 -1.2925  0.4583
  909SOL    HW2 3829   2.813   0.264   1.433 -1.1071  1.4751 -0.1993
  910SOL     OW 3830   7.043   2.864   3.370 -0.5447  0.2473 -0.3952
  910SOL    HW1 3831   7.117   2.846   3.313 -1.1597  0.8571 -1.4156
  910SOL    HW2 3832   7.070   2.939   3.423 -0.4092  0.4196 -0.7112
  911SOL     OW 3833   6.532   2.540   0.489 -0.3632  0.7040  0.1620
  911SOL    HW1 3834   6.464   2.481   0.456  0.7172 -1.6665  1.8115
  911SOL    HW2 3835   6.520   2.538   0.584  0.4638  2.2399  0.3169
  912SOL     OW 3836   4.438   3.931   6.502  0.0138 -0.1993  0.1522
  912SOL    HW1 3837   4.520   3.965   6.537  0.6180 -1.4102 -0.0326
  912SOL    HW2 3838   4.401   4.005   6.453  1.2409  0.2147 -0.1964
  913SOL     OW 3839   1.148   4.976   0.698 -0.0967  0.9667  0.0115
  913SOL    HW1 3840   1.191   4.991   0.783 -0.5825  1.1785  0.2267
  913SOL    HW2 3841   1.167   5.054   0.647  0.7009  0.5842 -0.3009
  914SOL     OW 3842   8.072   0.867   5.955 -0.3077 -0.2711 -0.3507
  914SOL    HW1 3843   8.046   0.804   6.023  1.5092 -0.5295  0.1567
  914SOL    HW2 3844   8.019   0.844   5.879 -1.3528 -0.8965  0.5414
  915SOL     OW 3845   2.742   3.078   7.039  0.1675  0.9150  0.1053
  915SOL    HW1 3846   2.718   2.997   6.994 -0.2071  1.4254 -0.6131
  915SOL    HW2 3847   2.678   3.085   7.110  0.2191  0.5716  0.1913
  916SOL     OW 3848   7.798   5.516   2.193  0.4828  0.2512 -0.1961
  916SOL    HW1 3849   7.855   5.441   2.206  0.2331  0.2804  1.2367
  916SOL    HW2 3850   7.848   5.590   2.227  0.4988  0.6486 -1.0670
  917SOL     OW 3851   3.488   4.268   5.309  0.3825  0.0589 -0.4310
  917SOL    HW1 3852   3.544   4.345   5.294  0.6558 -0.2777 -1.1704
  917SOL    HW2 3853   3.532   4.197   5.263 -1.0133 -0.0754 -1.6411
  918SOL     OW 3854   6.910   3.485   2.518 -0.1388  0.4269 -0.1937
  918SOL    HW1 3855   6.990   3.433   2.525 -1.0567 -0.8594  1.2906
  918SOL    HW2 3856   6.889   3.509   2.608 -0.6201  2.0704 -0.6983
  919SOL     OW 3857   3.340   7.113   1.801  0.0980 -0.3926  0.3535
  919SOL    HW1 3858   3.327   7.197   1.757  1.4731  0.4656  1.4887
  919SOL    HW2 3859   3.423   7.124   1.848 -1.3042 -1.2013  3.2076
  920SOL     OW 3860   3.402   7.711   4.071 -0.0745 -0.0141  0.6255
  920SOL    HW1 3861   3.382   7.683   3.982  1.2676  1.4715 -0.2031
  920SOL    HW2 3862   3.316   7.724   4.112 -0.7121 -1.0785 -0.3110
  921SOL     OW 3863   3.238   4.615   8.157  0.5962 -0.2983  0.0169
  921SOL    HW1 3864   3.273   4.530   8.132 -0.9267 -0.4475 -1.9395
  921SOL    HW2 3865   3.215   4.656   8.073 -0.0028  1.4561  0.9871
  922SOL     OW 3866   1.511   6.116   7.875  0.1001 -0.1314 -0.0820
  922SOL    HW1 3867   1.602   6.116   7.906  0.4149  1.6610 -0.8766
  922SOL    HW2 3868   1.463   6.163   7.943  0.2814  1.2540 -0.8628
  923SOL     OW 3869   8.194   7.312   6.143  0.3349  0.1951  0.8053
  923SOL    HW1 3870   8.112   7.289   6.099 -0.5426 -0.8688  2.8850
  923SOL    HW2 3871   8.247   7.354   6.074 -0.6448 -2.0241 -1.4432
  924SOL     OW 3872   1.366   6.387   1.754 -0.3123 -0.1235 -0.4215
  924SOL    HW1 3873   1.397   6.475   1.772 -0.0769 -0.5552  1.4827
  924SOL    HW2 3874   1.307   6.397   1.679 -1.0934  1.8036  0.3973
  925SOL     OW 3875   1.761   2.019   0.794  0.5618  0.1111  0.1815
  925SOL    HW1 3876   1.755   1.965   0.716  1.3765 -2.6523  1.9011
  925SOL    HW2 3877   1.846   2.064   0.785  0.9864 -0.7421 -0.2022
  926SOL     OW 3878   1.714   8.800   2.958 -0.5187 -0.0395 -0.3537
  926SOL    HW1 3879   1.706   8.736   3.029 -0.3362  1.5938  1.2141
  926SOL    HW2 3880   1.625   8.812   2.926 -0.7736  0.0258  0.3702
  927SOL     OW 3881   8.481   7.588   7.310 -0.1647  0.8358  0.1215
  927SOL    HW1 3882   8.519   7.626   7.232 -0.6371 -0.9477 -1.0415
  927SOL    HW2 3883   8.421   7.520   7.277 -0.4561  0.1047  2.0108
  928SOL     OW 3884   8.088   7.961   1.176 -0.3437  0.0229 -0.3547
  928SOL    HW1 3885   8.001   8.002   1.178 -0.1698  0.4205 -0.7073
  928SOL    HW2 3886   8.146   8.027   1.215 -0.3579 -0.6688  0.8901
  929SOL     OW 3887   6.898   1.052   0.525  0.0745  0.2304  0.4186
  929SOL    HW1 3888   6.892   1.074   0.432  2.3266  1.9820  0.5958
  929SOL    HW2 3889   6.856   1.126   0.570 -0.0457 -0.0792  0.8227
  930SOL     OW 3890   7.899   1.664   4.501  0.6956  0.2650  0.0617
  930SOL    HW1 3891   7.838   1.590   4.488  1.1990 -0.1477  0.0175
  930SOL    HW2 3892   7.847   1.741   4.480  0.2392 -0.0978 -0.1714
  931SOL     OW 3893   4.732   4.588   3.373  0.0576 -0.3386  0.0057
  931SOL    HW1 3894   4.637   4.587   3.361 -0.0572  1.3459  0.5085
  931SOL    HW2 3895   4.767   4.613   3.288 -0.0413  0.3013  0.1477
  932SOL     OW 3896   1.281   7.561   7.953 -0.3702  0.1291  0.4185
  932SOL    HW1 3897   1.296   7.472   7.922  0.5939  0.4455 -0.0670
  932SOL    HW2 3898   1.239   7.606   7.879 -2.0776 -0.2510  1.1197
  933SOL     OW 3899   7.843   7.266   6.835  0.2588 -0.5187 -0.2014
  933SOL    HW1 3900   7.867   7.328   6.765 -1.0301 -0.9366 -1.0576
  933SOL    HW2 3901   7.747   7.274   6.842 -0.0434 -2.8653 -0.7963
  934SOL     OW 3902   3.587   0.509   7.675 -0.3961  0.7228 -0.3428
  934SOL    HW1 3903   3.627   0.428   7.706  0.1607  0.1742 -2.3210
  934SOL    HW2 3904   3.500   0.510   7.715  0.7780  0.9028  2.4115
  935SOL     OW 3905   4.851   0.760   1.729 -0.2749 -0.2733  0.0280
  935SOL    HW1 3906   4.930   0.806   1.702 -0.9572 -0.3796 -2.3274
  935SOL    HW2 3907   4.844   0.685   1.670 -1.6856 -0.7549  0.7463
  936SOL     OW 3908   3.862   3.708   7.103  0.0558 -0.4682 -0.0210
  936SOL    HW1 3909   3.944   3.675   7.139  0.7249  0.5747 -0.5275
  936SOL    HW2 3910   3.864   3.682   7.011  0.3432  0.4796 -0.2964
  937SOL     OW 3911   5.639   3.088   6.908  0.1207 -0.0014 -0.3183
  937SOL    HW1 3912   5.579   3.162   6.910  0.4630  0.3760 -2.0611
  937SOL    HW2 3913   5.584   3.014   6.879 -0.0843 -0.3108  0.8150
  938SOL     OW 3914   0.592   3.714   5.015 -0.0218 -0.4550  0.2932
  938SOL    HW1 3915   0.631   3.786   4.966  0.1171 -0.8735 -0.2220
  938SOL    HW2 3916   0.498   3.730   5.012  0.0942  0.6020  1.6048
  939SOL     OW 3917   2.296   5.472   3.124  0.3466 -0.7061  0.8244
  939SOL    HW1 3918   2.212   5.477   3.078  1.4883 -2.2881 -1.6079
  939SOL    HW2 3919   2.351   5.537   3.079  1.3953 -2.0750  0.0457
  940SOL     OW 3920   7.635   2.509   9.017  0.1159  0.1012  0.3352
  940SOL    HW1 3921   7.720   2.551   9.028  0.4789 -0.0160 -1.6632
  940SOL    HW2 3922   7.618   2.513   8.923 -0.6960 -2.5606  0.2891
  941SOL     OW 3923   1.981   4.571   5.160  0.7467  0.1396 -0.1068
  941SOL    HW1 3924   2.062   4.551   5.208 -0.0304  0.7095  1.5193
  941SOL    HW2 3925   1.959   4.489   5.114  0.3165 -1.2317  2.3618
  942SOL     OW 3926   0.585   4.902   2.788 -0.0632  0.3550 -0.0081
  942SOL    HW1 3927   0.607   4.972   2.849 -0.1594 -1.5009  2.2917
  942SOL    HW2 3928   0.669   4.871   2.755  0.1793 -0.2265  1.1104
  943SOL     OW 3929   5.311   0.817   5.299  0.2400 -0.5030  0.9665
  943SOL    HW1 3930   5.279   0.752   5.237 -0.9302 -1.2318  2.2936
  943SOL    HW2 3931   5.380   0.772   5.347  0.1661 -0.4133  1.1575
  944SOL     OW 3932   2.124   2.076   9.106  0.1645 -0.0435  0.6308
  944SOL    HW1 3933   2.143   1.989   9.140  1.7716  0.4518  1.1395
  944SOL    HW2 3934   2.102   2.128   9.184  0.5968  0.3169  0.5221
  945SOL     OW 3935   2.263   8.322   1.123  0.2400 -0.0750  0.3161
  945SOL    HW1 3936   2.292   8.343   1.212  0.3856  2.9615 -0.3496
  945SOL    HW2 3937   2.334   8.268   1.088  1.5663  1.0301  1.1614
  946SOL     OW 3938   5.060   2.988   6.283 -0.5623 -0.1029  0.1203
  946SOL    HW1 3939   5.079   2.962   6.192  0.7475  0.9146  0.0708
  946SOL    HW2 3940   5.005   3.066   6.275 -1.1545 -0.5025  0.2253
  947SOL     OW 3941   0.803   2.693   3.517  0.3038 -0.6666  0.5917
  947SOL    HW1 3942   0.788   2.702   3.423 -0.8534 -0.7065  0.7600
  947SOL    HW2 3943   0.876   2.752   3.535  0.0378 -0.0685 -0.2065
  948SOL     OW 3944   0.343   5.353   3.701 -0.1487  0.2823  0.4242
  948SOL    HW1 3945   0.291   5.433   3.697 -0.4392  0.0599 -1.1339
  948SOL    HW2 3946   0.416   5.369   3.641 -1.4542 -1.3938 -1.7882
  949SOL     OW 3947   5.093   2.875   1.314 -0.2189  0.2882  0.0047
  949SOL    HW1 3948   5.073   2.968   1.308  0.0504  0.2776 -1.3798
  949SOL    HW2 3949   5.012   2.832   1.288 -0.1867  0.1364  0.1546
  950SOL     OW 3950   2.309   1.591   0.998  0.1026 -0.5831  0.1956
  950SOL    HW1 3951   2.356   1.537   1.062  0.5426  0.4018  0.7307
  950SOL    HW2 3952   2.217   1.567   1.010 -0.0746  0.9326  2.5979
  951SOL     OW 3953   5.589   6.998   7.005  0.0265 -0.2815  0.6417
  951SOL    HW1 3954   5.670   6.947   7.000 -0.7335 -1.5398  0.7079
  951SOL    HW2 3955   5.615   7.082   7.042  1.4982 -0.2177 -0.4648
  952SOL     OW 3956   2.924   3.099   6.721  0.0021  0.1546 -0.0029
  952SOL    HW1 3957   2.930   3.034   6.791 -0.4263  1.2262  1.0818
  952SOL    HW2 3958   2.922   3.183   6.767  2.0032  1.0435 -1.4085
  953SOL     OW 3959   5.240   3.213   6.684 -0.0109 -0.4934 -0.1845
  953SOL    HW1 3960   5.314   3.199   6.626  0.5778  1.2300  0.0991
  953SOL    HW2 3961   5.163   3.196   6.630  0.5508 -1.7728 -0.6264
  954SOL     OW 3962   1.804   2.806   2.439  0.1583 -0.0149 -0.1663
  954SOL    HW1 3963   1.805   2.887   2.491  1.7522 -0.3381  0.3570
  954SOL    HW2 3964   1.829   2.834   2.351 -0.3008  0.1897 -0.2392
  955SOL     OW 3965   1.934   7.042   1.810 -0.0792 -0.3886 -0.0008
  955SOL    HW1 3966   1.919   7.061   1.902 -0.0584 -0.5524  0.0377
  955SOL    HW2 3967   1.932   6.946   1.804  1.8711 -0.4864  0.1816
  956SOL     OW 3968   0.374   0.213   7.136  0.6597 -0.2067  0.1616
  956SOL    HW1 3969   0.374   0.120   7.114  1.6793  0.3967 -2.8373
  956SOL    HW2 3970   0.414   0.217   7.223  1.1725 -2.5241  0.0997
  957SOL     OW 3971   1.673   1.807   6.096 -0.3294  0.3050 -0.1353
  957SOL    HW1 3972   1.693   1.774   6.184 -0.6556  0.1846 -0.1069
  957SOL    HW2 3973   1.645   1.730   6.047 -0.6813  0.4660 -0.1883
  958SOL     OW 3974   3.128   6.488   0.367 -0.6972  0.7310  0.0595
  958SOL    HW1 3975   3.033   6.479   0.372 -0.9267  2.2005 -1.0191
  958SOL    HW2 3976   3.155   6.514   0.455 -1.2773  0.3134  0.3686
  959SOL     OW 3977   1.993   1.194   1.662  0.0028  0.3590  0.3193
  959SOL    HW1 3978   1.922   1.173   1.722  1.4622 -1.8933  1.3755
  959SOL    HW2 3979   1.968   1.279   1.624 -2.6743  0.1592  1.4336
  960SOL     OW 3980   3.866   3.359   0.254  0.0859 -0.1989  0.0036
  960SOL    HW1 3981   3.899   3.345   0.343  0.3097 -0.9433 -0.1842
  960SOL    HW2 3982   3.945   3.366   0.200 -0.0518 -0.1437 -0.1914
  961SOL     OW 3983   0.901   8.050   6.180 -0.0093  0.3760 -0.0012
  961SOL    HW1 3984   0.867   8.116   6.120  0.1646 -0.4437 -1.0372
  961SOL    HW2 3985   0.823   8.003   6.211  0.0599 -1.6358 -2.5319
  962SOL     OW 3986   8.616   8.087   1.477  0.3755  0.5326 -0.0376
  962SOL    HW1 3987   8.694   8.046   1.515  0.5334  1.4331  0.6336
  962SOL    HW2 3988   8.543   8.044   1.522  0.5316  0.7524  0.4341
  963SOL     OW 3989   7.464   5.870   6.662 -0.3807 -0.0188 -0.0577
  963SOL    HW1 3990   7.452   5.840   6.752 -1.6748  0.5933  0.0034
  963SOL    HW2 3991   7.490   5.962   6.671 -0.7696  0.1179 -0.3011
  964SOL     OW 3992   7.331   7.295   2.977  0.2157 -0.6630 -0.2088
  964SOL    HW1 3993   7.289   7.381   2.976 -1.7646 -1.5612  0.4896
  964SOL    HW2 3994   7.424   7.314   2.968 -0.1080  1.5830  0.5196
  965SOL     OW 3995   6.198   0.750   0.160  0.3564 -0.4608  0.0028
  965SOL    HW1 3996   6.210   0.777   0.069  0.1438  0.2313  0.1809
  965SOL    HW2 3997   6.225   0.825   0.212 -3.0435  0.5752  0.4640
  966SOL     OW 3998   3.388   7.219   6.060 -0.8848 -0.0289  0.4879
  966SOL    HW1 3999   3.303   7.230   6.018 -0.7671  0.9021  0.4623
  966SOL    HW2 4000   3.392   7.291   6.124  0.9262  1.5880 -1.2915
  967SOL     OW 4001   7.749   1.260   1.092 -0.5260  0.0362 -0.1719
  967SOL    HW1 4002   7.822   1.228   1.039 -1.4264 -1.5294 -0.4987
  967SOL    HW2 4003   7.703   1.322   1.035  0.0466  0.3921 -0.2570
  968SOL     OW 4004   3.234   8.681   0.939  0.0143 -0.1754 -0.1989
  968SOL    HW1 4005   3.197   8.602   0.979  2.2636 -0.7174  0.9362
  968SOL    HW2 4006   3.238   8.659   0.846 -3.3729  0.3312 -0.6156
  969SOL     OW 4007   7.691   5.923   3.332  0.4609 -0.4174  0.0798
  969SOL    HW1 4008   7.738   5.970   3.401 -0.3959  0.2888  0.2074
  969SOL    HW2 4009   7.755   5.916   3.261  0.1658  2.5242 -0.6300
  970SOL     OW 4010   5.371   5.511   7.355  0.7771 -0.1180  0.4140
  970SOL    HW1 4011   5.433   5.584   7.347 -1.3604  2.3741  3.5958
  970SOL    HW2 4012   5.411   5.451   7.417  1.0256  0.3129  0.6771
  971SOL     OW 4013   1.286   4.780   4.842  0.0432 -0.1569  0.0091
  971SOL    HW1 4014   1.261   4.823   4.761  1.8720  0.9201 -0.0309
  971SOL    HW2 4015   1.375   4.810   4.859  0.0081 -1.0036  1.9824
  972SOL     OW 4016   5.082   3.149   3.451 -0.4490 -0.5951 -0.0859
  972SOL    HW1 4017   5.013   3.085   3.431 -0.3378 -0.4389 -0.9972
  972SOL    HW2 4018   5.162   3.098   3.456 -0.4504 -0.6130 -0.2343
  973SOL     OW 4019   7.750   4.169   1.038  0.0056  0.3960 -0.1759
  973SOL    HW1 4020   7.756   4.078   1.068  0.4436  0.2530 -0.6810
  973SOL    HW2 4021   7.829   4.211   1.070 -0.6856  0.8832  0.9530
  974SOL     OW 4022   5.882   9.098   6.223 -0.0020  0.3684 -0.1867
  974SOL    HW1 4023   5.933   9.079   6.302 -0.6169 -4.3345 -0.6267
  974SOL    HW2 4024   5.791   9.086   6.250 -0.2623 -0.4310 -1.3464
  975SOL     OW 4025   2.606   2.665   1.878 -0.2893 -0.4943  0.2752
  975SOL    HW1 4026   2.628   2.668   1.785  1.8169  0.4333  0.7494
  975SOL    HW2 4027   2.646   2.583   1.909  0.6444  0.1189  0.7162
  976SOL     OW 4028   4.106   7.766   3.244  0.4778  0.4084  0.3481
  976SOL    HW1 4029   4.145   7.686   3.277  0.2779  0.3466  0.4318
  976SOL    HW2 4030   4.091   7.820   3.321 -0.2266  0.1610  0.3955
  977SOL     OW 4031   6.458   9.030   3.922 -0.1118 -0.4140 -0.4772
  977SOL    HW1 4032   6.398   9.083   3.870  0.6441 -0.9857 -1.9971
  977SOL    HW2 4033   6.401   8.976   3.977 -0.9069  1.8713  1.0986
  978SOL     OW 4034   8.146   8.110   6.820 -0.3470 -0.3967  0.1769
  978SOL    HW1 4035   8.064   8.113   6.870  0.3451  0.2965  1.3054
  978SOL    HW2 4036   8.211   8.147   6.879  0.3400  1.3173 -1.5477
  979SOL     OW 4037   8.886   5.017   5.828 -0.0690  0.1633 -0.7029
  979SOL    HW1 4038   8.804   4.996   5.785 -0.3421  0.9042 -0.5456
  979SOL    HW2 4039   8.953   4.994   5.764 -0.4576  0.9677 -1.4133
  980SOL     OW 4040   8.021   6.684   3.395 -0.2266  0.3480  0.0804
  980SOL    HW1 4041   7.961   6.731   3.337 -1.4901 -0.4084  0.7169
  980SOL    HW2 4042   7.988   6.702   3.483  0.7810  0.3072  0.4799
  981SOL     OW 4043   3.570   5.385   8.216  0.2319 -0.3073 -0.1150
  981SOL    HW1 4044   3.560   5.382   8.311  1.0438 -0.4345 -0.0326
  981SOL    HW2 4045   3.487   5.351   8.182 -0.1115 -0.1329  0.5435
  982SOL     OW 4046   8.937   2.805   7.736  0.3888 -0.2596 -0.2478
  982SOL    HW1 4047   8.856   2.792   7.785  0.5908  0.2572  0.2254
  982SOL    HW2 4048   9.007   2.785   7.799  0.6587  0.7628 -0.2080
  983SOL     OW 4049   8.900   0.887   8.507  0.6272  0.1179 -0.2051
  983SOL    HW1 4050   8.927   0.914   8.595 -0.6165  1.4627 -0.1872
  983SOL    HW2 4051   8.971   0.831   8.476  0.9869 -0.5519  1.7248
  984SOL     OW 4052   9.092   6.890   8.548 -0.3840 -0.2608 -0.8374
  984SOL    HW1 4053   9.122   6.856   8.633 -2.0385 -1.0897 -0.5588
  984SOL    HW2 4054   9.173   6.915   8.503  0.5398  0.1339  0.9421
  985SOL     OW 4055   2.504   0.047   4.359 -0.1625  0.4474 -1.0364
  985SOL    HW1 4056   2.548   0.089   4.433 -0.5928 -0.1402 -0.4384
  985SOL    HW2 4057   2.420   0.017   4.394 -0.4266  0.2729 -1.7938
  986SOL     OW 4058   0.485   8.766   4.336  0.0123  0.1392  0.5931
  986SOL    HW1 4059   0.498   8.846   4.387  2.7656  0.2545 -0.1006
  986SOL    HW2 4060   0.497   8.695   4.399  2.9846  0.2861  0.3266
  987SOL     OW 4061   6.475   1.362   7.688 -0.6406  0.1056 -0.0220
  987SOL    HW1 4062   6.520   1.421   7.629  2.0735  0.7237  2.4324
  987SOL    HW2 4063   6.503   1.274   7.662 -1.4424  0.1639 -1.1313
  988SOL     OW 4064   2.157   7.925   8.042 -0.7662  0.3206  0.0679
  988SOL    HW1 4065   2.083   7.972   8.083  0.6390  1.7108  1.1310
  988SOL    HW2 4066   2.175   7.974   7.962 -1.2528 -0.3036 -0.4421
  989SOL     OW 4067   7.025   4.347   2.766 -0.1608 -0.0736  0.0982
  989SOL    HW1 4068   7.101   4.389   2.725 -0.1449  0.2172  0.4241
  989SOL    HW2 4069   6.984   4.298   2.694 -0.2358  0.5668 -0.3032
  990SOL     OW 4070   0.426   7.562   7.657 -0.3672  0.1565 -0.5454
  990SOL    HW1 4071   0.332   7.572   7.676 -0.1769  0.3707  0.3514
  990SOL    HW2 4072   0.437   7.470   7.637 -0.5013 -0.2326  1.0429
  991SOL     OW 4073   6.682   3.157   6.008 -0.0169  0.2408 -0.3439
  991SOL    HW1 4074   6.686   3.062   5.999 -0.4387  0.3599 -2.1982
  991SOL    HW2 4075   6.733   3.190   5.934  0.1682  1.4676  0.3012
  992SOL     OW 4076   7.395   6.016   7.004 -0.2636  0.1378 -0.1341
  992SOL    HW1 4077   7.412   6.059   6.920 -0.7123  1.4356  0.4233
  992SOL    HW2 4078   7.430   6.076   7.070 -1.0511 -0.2675  0.6776
  993SOL     OW 4079   5.779   7.846   3.136 -0.3517  0.1107  0.1208
  993SOL    HW1 4080   5.696   7.828   3.180 -0.8775  0.8600 -0.5422
  993SOL    HW2 4081   5.772   7.937   3.109  1.1324  0.5133  0.9932
  994SOL     OW 4082   6.430   8.959   3.419  0.1865 -0.3157  0.1184
  994SOL    HW1 4083   6.342   8.990   3.399 -0.1025 -1.9733 -1.4376
  994SOL    HW2 4084   6.417   8.892   3.486  0.0189 -1.7547 -1.2952
  995SOL     OW 4085   1.095   0.852   4.091  0.5056  0.0231 -0.0908
  995SOL    HW1 4086   1.166   0.791   4.109  0.6384 -0.5989 -2.5016
  995SOL    HW2 4087   1.126   0.936   4.125  2.1960 -0.3438 -0.6653
  996SOL     OW 4088   8.317   6.511   4.529 -0.4858  0.5676 -0.4316
  996SOL    HW1 4089   8.391   6.456   4.503 -0.0218  1.5140 -1.1655
  996SOL    HW2 4090   8.354   6.599   4.537 -1.4913  1.0286 -0.6667
  997SOL     OW 4091   6.308   7.315   4.351 -0.4101  0.1673  0.5048
  997SOL    HW1 4092   6.273   7.372   4.283 -1.3211  0.1194  0.9219
  997SOL    HW2 4093   6.299   7.365   4.432 -1.4727 -0.6446  0.9180
  998SOL     OW 4094   0.506   4.681   5.915  0.2374 -0.6103 -0.2238
  998SOL    HW1 4095   0.416   4.714   5.910  0.2120 -0.6146  0.1443
  998SOL    HW2 4096   0.556   4.738   5.857 -0.1027 -0.9582 -0.8764
  999SOL     OW 4097   7.555   3.329   5.081  0.5991 -0.5273  0.5396
  999SOL    HW1 4098   7.539   3.404   5.023  0.4203 -1.8461 -1.2011
  999SOL    HW2 4099   7.505   3.348   5.160  0.4681  1.1332  0.0893
 1000SOL     OW 4100   4.536   5.171   1.282 -0.2015  0.0829  0.4048
 1000SOL    HW1 4101   4.537   5.266   1.273  0.1857 -0.1321 -3.2647
 1000SOL    HW2 4102   4.462   5.142   1.228  1.7292 -1.8127 -1.4048
 1001SOL     OW 4103   1.732   5.817   2.867 -0.5440  0.4230 -0.3395
 1001SOL    HW1 4104   1.667   5.753   2.839 -0.4412  0.0026  0.3475
 1001SOL    HW2 4105   1.815   5.770   2.865 -0.4115  0.6443 -0.2041
 1002SOL     OW 4106   0.574   6.718   6.835 -0.2533  0.0038 -0.1495
 1002SOL    HW1 4107   0.490   6.717   6.788  0.3904 -1.4079 -1.3275
 1002SOL    HW2 4108   0.638   6.744   6.770  0.1015  2.8029  1.1375
 1003SOL     OW 4109   3.961   4.089   4.217  0.1654  0.4059  0.0624
 1003SOL    HW1 4110   3.943   4.122   4.305 -2.9193  0.2294 -0.3861
 1003SOL    HW2 4111   3.922   4.155   4.159 -0.1692 -0.7533 -1.0604
 1004SOL     OW 4112   7.618   4.967   3.962 -0.2568 -0.0732 -0.2943
 1004SOL    HW1 4113   7.615   4.932   4.051 -1.2505  0.3743 -0.1444
 1004SOL    HW2 4114   7.710   4.991   3.950 -0.2211  0.4108  0.8235
 1005SOL     OW 4115   7.565   5.372   5.184  0.5081  0.0983  0.0516
 1005SOL    HW1 4116   7.629   5.418   5.130  0.6017  1.6079  1.3706
 1005SOL    HW2 4117   7.484   5.420   5.173  0.8760  1.4088  2.3331
 1006SOL     OW 4118   2.267   0.770   2.708  0.2110  0.0784 -1.2335
 1006SOL    HW1 4119   2.334   0.823   2.751  1.5607 -0.7191 -2.2714
 1006SOL    HW2 4120   2.315   0.695   2.672 -1.0851 -0.0760 -2.7641
 1007SOL     OW 4121   3.480   0.808   3.933  0.3450 -0.0688 -0.0080
 1007SOL    HW1 4122   3.518   0.895   3.924 -2.3278  1.0903 -0.8541
 1007SOL    HW2 4123   3.425   0.797   3.856  0.5683 -2.5434  0.0970
 1008SOL     OW 4124   6.124   7.644   6.724  0.2564 -0.5967 -0.4021
 1008SOL    HW1 4125   6.160   7.715   6.670 -0.3171  0.2975  0.3517
 1008SOL    HW2 4126   6.195   7.580   6.730  1.7072  1.0329  0.8879
 1009SOL     OW 4127   1.813   7.584   4.122  0.4232 -0.0108  0.2544
 1009SOL    HW1 4128   1.810   7.503   4.072 -0.1412 -0.6075  1.2262
 1009SOL    HW2 4129   1.906   7.598   4.140  0.8743  1.2183 -2.4821
 1010SOL     OW 4130   4.801   1.804   2.395  0.5288 -0.0775 -0.0524
 1010SOL    HW1 4131   4.831   1.847   2.476  1.1261  0.8564 -0.7519
 1010SOL    HW2 4132   4.719   1.761   2.420  0.0248  1.2732  0.7554
 1011SOL     OW 4133   6.072   0.024   1.694 -0.0186 -0.5001  0.3115
 1011SOL    HW1 4134   6.061   0.110   1.736 -0.9592 -0.7613  0.6315
 1011SOL    HW2 4135   5.983  -0.002   1.670  0.5255 -0.0619 -2.4861
 1012SOL     OW 4136   6.587   0.737   6.214  0.0712 -0.1318  0.1131
 1012SOL    HW1 4137   6.645   0.807   6.182  0.0714 -0.0756  0.2343
 1012SOL    HW2 4138   6.505   0.750   6.167 -0.4093  0.8225  1.1552
 1013SOL     OW 4139   2.820   3.215   0.930  0.4195  0.1051  0.4053
 1013SOL    HW1 4140   2.814   3.139   0.872 -0.9960  1.5396 -1.4624
 1013SOL    HW2 4141   2.735   3.217   0.974  0.3129  0.7720  0.1810
 1014SOL     OW 4142   1.285   2.468   1.531 -0.4268  0.1734  0.0183
 1014SOL    HW1 4143   1.331   2.549   1.507  0.3302 -0.2602 -0.0423
 1014SOL    HW2 4144   1.216   2.496   1.590  2.0573  0.5359  3.0394
 1015SOL     OW 4145   3.530   2.544   8.607 -0.3894  0.0455 -0.3765
 1015SOL    HW1 4146   3.614   2.588   8.595 -0.6666  0.5842 -0.3527
 1015SOL    HW2 4147   3.491   2.544   8.519 -0.3643 -0.2079 -0.3887
 1016SOL     OW 4148   2.606   0.003   0.238 -0.1529 -0.0422 -0.5102
 1016SOL    HW1 4149   2.555   0.052   0.174 -0.9978  1.2985  1.1105
 1016SOL    HW2 4150   2.631   0.068   0.304  1.2231 -1.2367  0.2119
 1017SOL     OW 4151   2.173   5.887   0.016 -0.1414 -0.3220  0.2752
 1017SOL    HW1 4152   2.158   5.875  -0.078 -0.8049 -0.3605  0.3826
 1017SOL    HW2 4153   2.123   5.817   0.057  0.0893 -0.2619  0.6643
 1018SOL     OW 4154   2.156   8.247   4.866  0.2846 -0.0468 -0.3375
 1018SOL    HW1 4155   2.129   8.235   4.775  1.6607  1.3384 -0.9785
 1018SOL    HW2 4156   2.247   8.217   4.869  0.7428  1.3204  0.1973
 1019SOL     OW 4157   2.490   3.252   4.206  0.1405  0.2070 -1.0964
 1019SOL    HW1 4158   2.429   3.181   4.224 -0.0426  0.2534 -1.5330
 1019SOL    HW2 4159   2.484   3.309   4.283 -0.1914  0.0881 -1.0343
 1020SOL     OW 4160   8.519   3.248   2.773 -0.2861  0.3316  0.3332
 1020SOL    HW1 4161   8.509   3.290   2.858 -1.5900 -3.0709  2.0522
 1020SOL    HW2 4162   8.429   3.237   2.741  0.1841  1.6371 -1.6089
 1021SOL     OW 4163   1.835   3.720   1.741 -0.1661  0.2134 -0.4621
 1021SOL    HW1 4164   1.742   3.700   1.740 -0.8166  2.6216  1.7316
 1021SOL    HW2 4165   1.840   3.814   1.727  1.9602  0.1591 -0.4804
 1022SOL     OW 4166   4.805   0.599   5.853  0.3451  0.1441 -0.0459
 1022SOL    HW1 4167   4.733   0.544   5.824 -0.3252 -0.0058  1.7769
 1022SOL    HW2 4168   4.881   0.541   5.857 -0.2613 -0.5926  1.4488
 1023SOL     OW 4169   2.636   5.335   8.355 -0.0971 -1.4541 -0.5885
 1023SOL    HW1 4170   2.697   5.274   8.396 -0.0730 -0.9060  0.2233
 1023SOL    HW2 4171   2.686   5.417   8.347 -0.4307 -1.2660 -0.7716
 1024SOL     OW 4172   4.055   0.312   7.700  0.1746  0.3180  0.0464
 1024SOL    HW1 4173   4.147   0.286   7.693  0.2435  0.4767  0.3314
 1024SOL    HW2 4174   4.006   0.231   7.691  0.3008  0.3350 -0.9728
 1025SOL     OW 4175   3.923   8.618   3.697 -0.3284 -0.0259  0.2391
 1025SOL    HW1 4176   3.877   8.538   3.672 -1.6207  1.1688 -1.3957
 1025SOL    HW2 4177   3.931   8.667   3.616 -0.0738  1.7650  1.3065
 1026SOL     OW 4178   3.084   1.077   6.331 -0.0633  0.6099 -0.7800
 1026SOL    HW1 4179   3.007   1.117   6.372  0.2853  0.1282  0.3905
 1026SOL    HW2 4180   3.066   0.983   6.334  1.9939  0.1589  2.7452
 1027SOL     OW 4181   3.597   8.931   4.057 -0.2672  0.1251  0.5096
 1027SOL    HW1 4182   3.601   8.921   3.961 -0.3281  0.6004  0.4575
 1027SOL    HW2 4183   3.660   8.867   4.090 -0.5125 -0.2984  0.1676
 1028SOL     OW 4184   5.443   3.351   1.418 -0.0978 -0.6208 -0.2740
 1028SOL    HW1 4185   5.476   3.262   1.419  0.0296 -0.6240 -2.0179
 1028SOL    HW2 4186   5.364   3.347   1.365  0.6649  0.5167 -1.5643
 1029SOL     OW 4187   2.445   7.177   3.819  0.6468  0.3432  0.6036
 1029SOL    HW1 4188   2.536   7.150   3.812  0.3539 -0.4007 -0.8302
 1029SOL    HW2 4189   2.405   7.114   3.879  0.5628 -0.8219 -0.6438
 1030SOL     OW 4190   2.329   3.040   4.265 -0.1486 -0.0957 -0.7970
 1030SOL    HW1 4191   2.253   3.089   4.232  0.6479  1.8805  0.1440
 1030SOL    HW2 4192   2.307   2.948   4.248 -2.6159  0.4165 -0.8174
 1031SOL     OW 4193   1.950   6.192   0.811 -0.2017 -0.7036 -0.3318
 1031SOL    HW1 4194   1.912   6.270   0.853  0.4341 -0.5425 -0.0435
 1031SOL    HW2 4195   2.001   6.150   0.880  0.0119 -1.0051 -0.6699
 1032SOL     OW 4196   0.327   4.216   7.225  0.0868  0.0092  0.2861
 1032SOL    HW1 4197   0.413   4.180   7.206  1.0429  1.9303  0.7484
 1032SOL    HW2 4198   0.339   4.311   7.224 -1.8441  0.3227  1.1699
 1033SOL     OW 4199   0.545   8.724   7.471 -0.4716  0.4168  0.0538
 1033SOL    HW1 4200   0.453   8.740   7.450 -0.3265  0.1272 -0.8352
 1033SOL    HW2 4201   0.584   8.811   7.478 -0.3358  0.5371 -1.8032
 1034SOL     OW 4202   8.772   7.363   3.689 -0.1077  0.4114 -0.5834
 1034SOL    HW1 4203   8.741   7.391   3.776  0.1982  0.3095 -0.4401
 1034SOL    HW2 4204   8.725   7.420   3.628  0.8587  1.5791 -0.2726
 1035SOL     OW 4205   1.992   8.331   7.641 -0.0032 -0.2362  0.3180
 1035SOL    HW1 4206   1.951   8.323   7.555  2.0417  1.1381 -0.8720
 1035SOL    HW2 4207   1.923   8.307   7.703 -1.1786 -2.6074 -1.7076
 1036SOL     OW 4208   0.992   4.868   0.290  0.8728 -0.2448 -1.1553
 1036SOL    HW1 4209   0.984   4.936   0.224  0.5146  0.0331 -0.8298
 1036SOL    HW2 4210   0.928   4.891   0.356  1.2539 -0.4976 -0.6890
 1037SOL     OW 4211   0.816   0.663   2.607  0.2611  0.2754 -0.3685
 1037SOL    HW1 4212   0.900   0.700   2.634  1.8429 -1.2655 -2.8106
 1037SOL    HW2 4213   0.776   0.731   2.552  0.7117  0.3710 -0.5780
 1038SOL     OW 4214   5.194   4.421   5.367  0.1873 -0.0828  0.7978
 1038SOL    HW1 4215   5.184   4.328   5.388 -1.2336  0.2911  1.9562
 1038SOL    HW2 4216   5.172   4.427   5.274 -1.5982 -0.6573  1.1530
 1039SOL     OW 4217   3.027   3.950   6.214  0.1582  0.3412  0.1799
 1039SOL    HW1 4218   2.968   4.013   6.172  0.6335  0.6401 -0.0526
 1039SOL    HW2 4219   3.105   3.950   6.158 -0.0984 -0.9614 -0.2076
 1040SOL     OW 4220   2.543   2.633   6.134 -0.6971  0.4291 -0.3156
 1040SOL    HW1 4221   2.558   2.541   6.156 -1.7760  0.5825  1.2925
 1040SOL    HW2 4222   2.496   2.631   6.051 -0.2320 -0.4420 -0.5663
 1041SOL     OW 4223   2.335   5.093   5.589  0.4848 -0.0239 -0.1573
 1041SOL    HW1 4224   2.312   5.013   5.637  0.0225 -1.4393 -2.5978
 1041SOL    HW2 4225   2.256   5.115   5.540  1.0621  1.1164 -0.6079
 1042SOL     OW 4226   1.849   3.423   4.588  0.2168  1.1460 -0.3195
 1042SOL    HW1 4227   1.792   3.478   4.641 -0.1290  0.1110  0.4190
 1042SOL    HW2 4228   1.936   3.464   4.595 -0.2763  2.3538 -0.9160
 1043SOL     OW 4229   2.877   6.666   4.951  0.2895  0.2449  0.5419
 1043SOL    HW1 4230   2.885   6.760   4.935  0.9872 -0.1149 -1.5084
 1043SOL    HW2 4231   2.931   6.626   4.884 -1.7649 -1.7153 -0.0464
 1044SOL     OW 4232   2.169   1.547   1.683 -0.1148 -0.0064 -0.3291
 1044SOL    HW1 4233   2.262   1.563   1.697 -0.2008 -0.6267  1.1138
 1044SOL    HW2 4234   2.154   1.458   1.715 -1.2253  0.1211 -0.4465
 1045SOL     OW 4235   7.858   8.254   0.788  0.3512  0.3052  0.4086
 1045SOL    HW1 4236   7.872   8.167   0.826  0.2059  0.8137  1.7025
 1045SOL    HW2 4237   7.926   8.262   0.721 -0.7301 -1.4717 -0.9915
 1046SOL     OW 4238   9.124   7.244   4.252  0.3300 -0.0598 -0.0055
 1046SOL    HW1 4239   9.090   7.292   4.177 -0.4950  0.3390  0.6139
 1046SOL    HW2 4240   9.145   7.312   4.317  0.6564 -0.4276  0.2827
 1047SOL     OW 4241   6.086   7.487   2.031 -0.5160 -0.1215 -0.3285
 1047SOL    HW1 4242   6.121   7.399   2.044  0.1778  0.2349  0.2643
 1047SOL    HW2 4243   6.135   7.542   2.092 -1.8237  0.4717  0.2223
 1048SOL     OW 4244   5.634   2.433   0.454 -0.7893 -0.2052 -0.0131
 1048SOL    HW1 4245   5.602   2.367   0.393 -2.7049 -0.8708  1.6129
 1048SOL    HW2 4246   5.699   2.387   0.507  2.0373  0.7573 -2.3371
 1049SOL     OW 4247   8.537   1.354   2.367  0.1406  0.6326 -0.6592
 1049SOL    HW1 4248   8.444   1.341   2.349 -0.1158 -1.5485  1.6989
 1049SOL    HW2 4249   8.580   1.279   2.327  0.5261  0.1705  0.5868
 1050SOL     OW 4250   8.732   4.995   5.175  0.0067  0.2311 -0.3516
 1050SOL    HW1 4251   8.678   4.930   5.130 -2.6690  2.4638 -0.6347
 1050SOL    HW2 4252   8.738   5.068   5.113  1.4112  0.9698  0.6068
 1051SOL     OW 4253   7.657   4.597   0.349 -0.2483  0.6858  0.2285
 1051SOL    HW1 4254   7.586   4.655   0.321  0.7478  1.6369 -0.4062
 1051SOL    HW2 4255   7.736   4.639   0.317  0.8425  0.8765  2.9212
 1052SOL     OW 4256   3.825   4.667   0.239  0.4380 -0.5712  0.0964
 1052SOL    HW1 4257   3.807   4.595   0.300  0.5509  0.5514  1.5177
 1052SOL    HW2 4258   3.919   4.685   0.250 -0.0311  1.3234  1.5881
 1053SOL     OW 4259   7.802   7.213   0.379 -0.2482  0.2408 -0.5103
 1053SOL    HW1 4260   7.793   7.254   0.293  2.5827  0.1521 -0.9197
 1053SOL    HW2 4261   7.825   7.122   0.360 -0.4883 -0.0146  0.3542
 1054SOL     OW 4262   8.632   7.202   5.848 -0.1613 -0.2149  0.1441
 1054SOL    HW1 4263   8.718   7.209   5.806  0.4766  1.4802  1.5996
 1054SOL    HW2 4264   8.644   7.134   5.915  0.4953  0.9037  1.2162
 1055SOL     OW 4265   8.645   4.497   6.754 -0.1325  0.4033 -0.0765
 1055SOL    HW1 4266   8.691   4.557   6.813  0.0132 -0.1115  0.3378
 1055SOL    HW2 4267   8.699   4.496   6.675  1.7588 -1.7445  1.1084
 1056SOL     OW 4268   8.963   5.067   1.513  0.1830 -0.6512  0.0187
 1056SOL    HW1 4269   8.915   5.127   1.570 -0.6708 -0.3124 -1.0250
 1056SOL    HW2 4270   8.992   5.121   1.440  0.9205 -1.1548 -0.0748
 1057SOL     OW 4271   8.005   0.935   1.133 -0.2846 -0.3801  0.5190
 1057SOL    HW1 4272   8.096   0.939   1.103 -0.6326  3.3875 -0.5274
 1057SOL    HW2 4273   8.011   0.939   1.228  0.6823  0.2942  0.4446
 1058SOL     OW 4274   2.123   7.448   1.158  0.5393 -0.1871  0.1873
 1058SOL    HW1 4275   2.145   7.401   1.239  0.1711  0.8996  0.9376
 1058SOL    HW2 4276   2.154   7.391   1.088 -0.3846 -1.8158  1.0402
 1059SOL     OW 4277   0.496   3.053   6.566  0.1817 -0.2993 -0.0407
 1059SOL    HW1 4278   0.495   3.013   6.479  0.5234 -0.8005  0.1846
 1059SOL    HW2 4279   0.447   2.993   6.621  0.0322 -0.0194  0.1339
 1060SOL     OW 4280   4.450   1.594   0.737  0.6823  0.7528 -0.7234
 1060SOL    HW1 4281   4.492   1.566   0.656  0.1669  3.0125 -1.8683
 1060SOL    HW2 4282   4.522   1.601   0.800  0.8830 -2.4319 -0.4750
 1061SOL     OW 4283   2.110   5.643   5.094 -0.5259 -0.0614 -0.0483
 1061SOL    HW1 4284   2.044   5.590   5.049 -1.1400  2.1861 -2.0478
 1061SOL    HW2 4285   2.064   5.678   5.171 -0.9327 -0.3952 -0.1383
 1062SOL     OW 4286   4.091   3.344   8.690 -0.2195  0.0417  0.5394
 1062SOL    HW1 4287   4.087   3.275   8.756 -0.7819  0.2880  0.7661
 1062SOL    HW2 4288   4.075   3.425   8.738  0.6084  0.3571  0.3039
 1063SOL     OW 4289   4.615   0.178   7.340  0.5111  0.2914  0.2285
 1063SOL    HW1 4290   4.560   0.118   7.391  1.1495 -0.3683  0.1429
 1063SOL    HW2 4291   4.634   0.250   7.401 -1.9327  1.4982 -0.2674
 1064SOL     OW 4292   2.458   8.394   0.867 -0.1951  0.4892 -0.8855
 1064SOL    HW1 4293   2.441   8.311   0.912 -1.4836  1.8637  1.3446
 1064SOL    HW2 4294   2.554   8.402   0.868 -0.1216 -0.2659  0.2763
 1065SOL     OW 4295   2.970   7.768   6.266  0.4145 -0.2014  0.7120
 1065SOL    HW1 4296   3.042   7.742   6.208 -0.5727 -0.8796 -0.2403
 1065SOL    HW2 4297   2.996   7.855   6.298  1.3610 -0.1562 -0.1122
 1066SOL     OW 4298   0.085   6.609   7.697 -0.0752 -0.7275  0.8692
 1066SOL    HW1 4299   0.013   6.546   7.696 -0.8932  0.1445 -1.3530
 1066SOL    HW2 4300   0.136   6.588   7.619  0.2788  0.6459  0.7080
 1067SOL     OW 4301   8.502   2.602   0.920 -0.5043  0.2307  0.0441
 1067SOL    HW1 4302   8.487   2.507   0.928  0.8648  0.0458  0.7316
 1067SOL    HW2 4303   8.431   2.642   0.970 -0.5522 -0.4764  0.5599
 1068SOL     OW 4304   0.792   4.075   3.898  0.4390 -0.2709  0.3174
 1068SOL    HW1 4305   0.806   4.006   3.833  0.0736 -0.9747  0.9711
 1068SOL    HW2 4306   0.731   4.136   3.856 -0.0187 -0.8708  0.1052
 1069SOL     OW 4307   2.965   1.071   0.383  0.0037 -0.1007  0.5164
 1069SOL    HW1 4308   2.913   1.028   0.451  0.4194 -1.6684 -0.1132
 1069SOL    HW2 4309   2.972   1.006   0.313 -2.3380  2.2031 -2.1195
 1070SOL     OW 4310   0.195   3.000   3.739 -0.3721 -0.0688 -0.7305
 1070SOL    HW1 4311   0.270   3.045   3.698 -0.8710  0.6628 -0.8578
 1070SOL    HW2 4312   0.191   3.037   3.827 -0.3957 -0.3412 -0.6168
 1071SOL     OW 4313   3.240   4.789   2.520 -0.2937 -0.4565  0.2473
 1071SOL    HW1 4314   3.216   4.742   2.440 -1.6784 -1.2876  1.1288
 1071SOL    HW2 4315   3.185   4.868   2.519  0.7356  0.2871 -0.3184
 1072SOL     OW 4316   2.481   5.547   6.563 -0.0622 -0.2585  0.1507
 1072SOL    HW1 4317   2.544   5.506   6.621 -0.3399  0.2924  0.8612
 1072SOL    HW2 4318   2.524   5.549   6.477  0.6750 -0.3448  0.5141
 1073SOL     OW 4319   0.745   8.444   6.338 -0.1860 -0.6002 -0.1262
 1073SOL    HW1 4320   0.831   8.403   6.324  0.9538  1.3194  0.9011
 1073SOL    HW2 4321   0.708   8.452   6.250  1.0607 -0.6804 -0.6802
 1074SOL     OW 4322   7.622   2.808   5.244 -0.7270 -0.0077  0.3167
 1074SOL    HW1 4323   7.636   2.833   5.153  0.6815  0.7369  0.7062
 1074SOL    HW2 4324   7.620   2.712   5.243 -1.2578  0.0000 -0.5491
 1075SOL     OW 4325   3.038   8.904   6.384  0.2018 -0.1344 -0.3508
 1075SOL    HW1 4326   3.017   8.977   6.442 -0.3635 -0.5621  0.0001
 1075SOL    HW2 4327   3.132   8.891   6.394 -0.0769 -1.1395  1.6352
 1076SOL     OW 4328   0.656   8.420   5.410  0.1894  0.3074 -0.1120
 1076SOL    HW1 4329   0.611   8.453   5.333 -0.0600 -1.7984 -0.9294
 1076SOL    HW2 4330   0.746   8.406   5.381  0.1596 -0.2408  0.0459
 1077SOL     OW 4331   4.215   2.152   1.747  0.5108  0.6989 -0.1376
 1077SOL    HW1 4332   4.180   2.087   1.687 -0.8268  1.2721 -0.0148
 1077SOL    HW2 4333   4.289   2.190   1.700  2.9001 -2.4779  0.7104
 1078SOL     OW 4334   5.844   3.984   6.486  0.1749 -0.6577  0.0278
 1078SOL    HW1 4335   5.795   3.935   6.553 -2.6966  2.0428  0.1473
 1078SOL    HW2 4336   5.780   3.998   6.416  1.1721  1.8831 -0.4656
 1079SOL     OW 4337   3.105   8.684   1.451 -0.1545 -0.0116 -0.0313
 1079SOL    HW1 4338   3.101   8.762   1.396 -2.2678  1.9746  2.6260
 1079SOL    HW2 4339   3.197   8.679   1.479  0.0495  1.4556 -0.3752
 1080SOL     OW 4340   0.984   8.914   1.363  0.3054  0.0847  0.7012
 1080SOL    HW1 4341   0.980   8.983   1.296  0.8897 -0.6618 -0.1307
 1080SOL    HW2 4342   0.984   8.961   1.446  1.3913  1.1246  0.1391
 1081SOL     OW 4343   3.842   1.269   0.824  0.1103  0.1393  0.1536
 1081SOL    HW1 4344   3.907   1.213   0.783 -1.5350 -1.3447 -0.5598
 1081SOL    HW2 4345   3.806   1.321   0.752  1.2619  1.8292  0.7287
 1082SOL     OW 4346   7.028   2.018   6.165 -0.4989 -0.1223 -0.3998
 1082SOL    HW1 4347   7.088   1.956   6.124  0.3583 -0.4312  1.2204
 1082SOL    HW2 4348   6.960   2.033   6.100  0.0547 -1.6399 -1.3765
 1083SOL     OW 4349   3.153   2.167   0.154 -0.5825  0.7339 -0.2032
 1083SOL    HW1 4350   3.201   2.084   0.157 -0.0368  1.0512  0.2343
 1083SOL    HW2 4351   3.157   2.200   0.244  0.8996  2.1607 -0.7421
 1084SOL     OW 4352   6.931   2.604   8.382  0.1105 -0.1752 -0.0685
 1084SOL    HW1 4353   6.955   2.693   8.357  0.5090  0.1386  1.3316
 1084SOL    HW2 4354   6.935   2.554   8.300  1.1712  0.8226 -0.6556
 1085SOL     OW 4355   6.561   7.359   5.631 -0.0574 -0.6790 -0.1483
 1085SOL    HW1 4356   6.633   7.333   5.574  0.6095  2.0535 -0.6975
 1085SOL    HW2 4357   6.488   7.373   5.572  0.2493  0.8177 -0.2113
 1086SOL     OW 4358   2.322   1.904   4.592 -0.0194 -0.2512  0.1687
 1086SOL    HW1 4359   2.263   1.851   4.539  3.1278 -1.0555 -2.8515
 1086SOL    HW2 4360   2.393   1.845   4.617  1.6638  1.5810  0.0014
 1087SOL     OW 4361   3.788   0.236   2.855  0.7017 -0.1229  0.0218
 1087SOL    HW1 4362   3.880   0.219   2.835  0.5810 -1.7818  0.7401
 1087SOL    HW2 4363   3.775   0.327   2.829  3.4349  1.3250  2.9710
 1088SOL     OW 4364   5.472   6.623   6.477  0.7058  0.2766 -0.7002
 1088SOL    HW1 4365   5.432   6.621   6.564 -2.5545 -0.2796 -2.0807
 1088SOL    HW2 4366   5.495   6.715   6.463  0.7828  0.4591  0.5010
 1089SOL     OW 4367   1.924   8.597   7.232 -0.3996 -0.4302 -0.0532
 1089SOL    HW1 4368   1.864   8.525   7.209 -0.3947 -0.3081 -0.4424
 1089SOL    HW2 4369   1.896   8.623   7.320 -1.7672  0.4815 -0.7220
 1090SOL     OW 4370   7.249   1.323   7.127 -0.2645 -0.2224  0.3055
 1090SOL    HW1 4371   7.261   1.351   7.218 -2.0843 -0.9407  0.8255
 1090SOL    HW2 4372   7.310   1.251   7.115  0.1301  0.0051  0.9062
 1091SOL     OW 4373   3.326   7.557   2.521  0.1543  0.1599 -0.5358
 1091SOL    HW1 4374   3.310   7.464   2.533  1.4209 -0.2030 -1.4415
 1091SOL    HW2 4375   3.382   7.581   2.595  2.2810 -0.5203 -1.8202
 1092SOL     OW 4376   1.645   6.688   0.131 -0.2080 -0.0296  0.4985
 1092SOL    HW1 4377   1.592   6.723   0.203 -0.4656 -0.8525  0.7141
 1092SOL    HW2 4378   1.626   6.594   0.130 -0.5728  0.0378 -0.9493
 1093SOL     OW 4379   7.163   8.371   7.066  0.8510 -0.4027 -0.9516
 1093SOL    HW1 4380   7.107   8.414   7.001  0.5267  0.8857  0.1260
 1093SOL    HW2 4381   7.101   8.338   7.131  1.2998  1.0463  0.2597
 1094SOL     OW 4382   7.869   6.459   8.712  0.0505 -0.1346 -0.7063
 1094SOL    HW1 4383   7.873   6.373   8.754  0.5729  0.7693  1.1563
 1094SOL    HW2 4384   7.955   6.498   8.726 -0.0222  0.5384 -1.9368
 1095SOL     OW 4385   8.833   8.228   3.110 -0.2508  0.3142 -0.3113
 1095SOL    HW1 4386   8.825   8.313   3.066 -0.0313  0.3233 -0.3331
 1095SOL    HW2 4387   8.833   8.249   3.203  0.1080  0.3629 -0.3230
 1096SOL     OW 4388   1.994   4.099   1.962 -0.0526  0.5420  0.2947
 1096SOL    HW1 4389   1.966   4.135   2.046  0.8319 -0.9316  1.2708
 1096SOL    HW2 4390   1.994   4.004   1.975 -1.3079  0.1743 -1.8465
 1097SOL     OW 4391   7.671   3.846   3.838  0.2588  0.3221  0.3119
 1097SOL    HW1 4392   7.701   3.908   3.905  0.2481 -1.0068  1.5749
 1097SOL    HW2 4393   7.576   3.850   3.842  0.2214  1.4105 -0.7777
 1098SOL     OW 4394   6.210   4.448   5.347  0.1884 -0.2732  0.0240
 1098SOL    HW1 4395   6.251   4.382   5.291 -0.4956 -1.0113  0.3746
 1098SOL    HW2 4396   6.284   4.499   5.383  0.5985  1.1454 -2.6029
 1099SOL     OW 4397   4.027   7.016   5.798  0.7637  0.2842 -0.4463
 1099SOL    HW1 4398   4.050   6.927   5.824 -1.2960 -1.0310 -2.7778
 1099SOL    HW2 4399   3.936   7.027   5.825  0.5658  1.1803 -1.4281
 1100SOL     OW 4400   1.155   8.069   2.742 -0.1438  0.0920 -0.5898
 1100SOL    HW1 4401   1.090   8.016   2.787 -0.2744 -0.4720 -1.4182
 1100SOL    HW2 4402   1.149   8.155   2.784 -1.6636  0.1519 -0.8667
 1101SOL     OW 4403   0.949   8.668   8.038  0.0669  0.3116 -0.6675
 1101SOL    HW1 4404   1.007   8.688   7.965  0.5573 -0.9063 -0.6397
 1101SOL    HW2 4405   0.895   8.595   8.007  0.5184 -0.4615  0.2735
 1102SOL     OW 4406   1.228   0.677   8.714  0.4484  0.4900 -0.6635
 1102SOL    HW1 4407   1.250   0.635   8.630  1.0445  1.9533 -1.2718
 1102SOL    HW2 4408   1.310   0.675   8.763  0.8145  1.9891 -1.1771
 1103SOL     OW 4409   2.182   7.406   8.584 -0.4632 -0.4503  0.1505
 1103SOL    HW1 4410   2.205   7.395   8.492 -2.2009 -0.9138 -0.2604
 1103SOL    HW2 4411   2.266   7.407   8.630  0.4504  0.1672 -1.4676
 1104SOL     OW 4412   4.365   1.874   3.793  0.0242 -0.1381 -0.0903
 1104SOL    HW1 4413   4.413   1.823   3.859  0.3557 -0.2772 -0.4322
 1104SOL    HW2 4414   4.341   1.955   3.838  1.3159  0.3098 -0.1469
 1105SOL     OW 4415   4.945   2.804   7.873  0.3465 -0.5223  0.4002
 1105SOL    HW1 4416   4.931   2.871   7.939 -0.2734 -0.7602  0.5213
 1105SOL    HW2 4417   4.923   2.722   7.917 -0.3879 -0.6525 -0.1898
 1106SOL     OW 4418   1.847   8.517   4.203 -0.0493  0.0107 -0.1164
 1106SOL    HW1 4419   1.785   8.444   4.205 -2.4811  1.9415 -0.3469
 1106SOL    HW2 4420   1.883   8.516   4.115  0.6019 -1.3613  0.1332
 1107SOL     OW 4421   3.130   0.721   0.076  0.6461  0.5347 -0.1905
 1107SOL    HW1 4422   3.213   0.716   0.030  0.2963  1.6895 -1.0036
 1107SOL    HW2 4423   3.073   0.659   0.031  0.9191  0.1079  0.0513
 1108SOL     OW 4424   1.106   2.148   4.199 -0.1279  0.2477 -0.1296
 1108SOL    HW1 4425   1.147   2.084   4.141 -0.2973 -0.2099  0.2465
 1108SOL    HW2 4426   1.012   2.133   4.189 -0.1471 -0.7511  1.2439
 1109SOL     OW 4427   2.096   0.690   3.921  0.2682  0.5679  0.1781
 1109SOL    HW1 4428   2.040   0.759   3.955 -2.4538 -0.1813 -2.3940
 1109SOL    HW2 4429   2.142   0.731   3.847  1.2372  0.4810  0.7113
 1110SOL     OW 4430   7.897   2.125   7.169  0.4166 -0.3797 -0.4004
 1110SOL    HW1 4431   7.845   2.160   7.097 -0.1739 -0.5932 -0.0875
 1110SOL    HW2 4432   7.882   2.186   7.242 -2.4532 -2.3682  0.8719
 1111SOL     OW 4433   3.436   0.129   2.630 -0.3748 -0.1214 -0.4555
 1111SOL    HW1 4434   3.394   0.114   2.715 -0.0782  1.3717 -0.0214
 1111SOL    HW2 4435   3.483   0.047   2.613  1.2178  0.2169  1.8148
 1112SOL     OW 4436   6.387   1.175   0.661 -0.2434  1.0542 -0.1865
 1112SOL    HW1 4437   6.391   1.225   0.580  0.0860  1.4365  0.0618
 1112SOL    HW2 4438   6.389   1.083   0.633 -1.3485  1.1538 -0.6759
 1113SOL     OW 4439   6.185   0.671   0.541  0.1975  0.0732 -0.0646
 1113SOL    HW1 4440   6.183   0.598   0.479 -0.7673 -0.6524  0.7837
 1113SOL    HW2 4441   6.266   0.659   0.590  0.1622 -0.3079 -0.0931
 1114SOL     OW 4442   1.622   5.876   5.890 -0.1257  0.1331  0.2119
 1114SOL    HW1 4443   1.617   5.848   5.799  0.3285  1.6895 -0.3265
 1114SOL    HW2 4444   1.557   5.821   5.936  0.5911 -1.6094 -0.7609
 1115SOL     OW 4445   5.586   2.458   4.700 -0.1009  0.0957  0.3621
 1115SOL    HW1 4446   5.674   2.421   4.701 -0.7975 -1.7194 -0.2617
 1115SOL    HW2 4447   5.578   2.498   4.613  0.9942  2.7526  1.3822
 1116SOL     OW 4448   6.367   4.262   5.237 -0.0433 -0.6128  0.0345
 1116SOL    HW1 4449   6.454   4.300   5.230 -0.3504 -0.2114 -2.4619
 1116SOL    HW2 4450   6.382   4.173   5.269  1.4676 -1.0541 -1.7558
 1117SOL     OW 4451   4.688   3.056   0.125  0.3727 -0.3002  0.3279
 1117SOL    HW1 4452   4.600   3.067   0.163  0.2400 -0.1184 -0.0232
 1117SOL    HW2 4453   4.714   3.145   0.102  1.4865 -0.0775  2.2528
 1118SOL     OW 4454   7.859   7.484   4.144 -0.2109  0.2846  0.1437
 1118SOL    HW1 4455   7.800   7.418   4.179 -0.5320  1.5713  2.1630
 1118SOL    HW2 4456   7.849   7.477   4.049  0.1823 -2.8817  0.2220
 1119SOL     OW 4457   1.610   8.402   5.864 -0.1160  0.3490 -0.2714
 1119SOL    HW1 4458   1.635   8.480   5.815  3.7445 -0.0348  0.7581
 1119SOL    HW2 4459   1.560   8.435   5.939  0.5066  1.7284 -0.4399
 1120SOL     OW 4460   1.664   3.103   8.421 -0.2617 -0.7822  0.0372
 1120SOL    HW1 4461   1.609   3.099   8.499  0.6110  0.8145  0.7885
 1120SOL    HW2 4462   1.751   3.077   8.451 -0.0564 -0.8051 -0.5586
 1121SOL     OW 4463   4.029   3.209   3.451 -0.0643 -0.3607 -0.4313
 1121SOL    HW1 4464   4.011   3.135   3.393 -0.1869  0.1402 -1.0456
 1121SOL    HW2 4465   3.974   3.195   3.527  0.8721 -1.5862  0.0549
 1122SOL     OW 4466   8.227   2.731   5.007  0.0358 -0.1132 -0.1601
 1122SOL    HW1 4467   8.271   2.651   5.038 -3.4646 -1.8914  0.6897
 1122SOL    HW2 4468   8.235   2.793   5.080 -0.8727 -1.2579  0.9524
 1123SOL     OW 4469   1.904   1.274   6.768  0.8243 -0.3899  0.1430
 1123SOL    HW1 4470   1.871   1.346   6.821 -2.0899 -0.4235 -1.4217
 1123SOL    HW2 4471   1.971   1.314   6.712  0.8622  0.5756  0.8573
 1124SOL     OW 4472   1.774   7.487   0.329  0.3680 -0.1561 -0.2217
 1124SOL    HW1 4473   1.815   7.408   0.293 -0.2920 -0.0824 -1.1816
 1124SOL    HW2 4474   1.720   7.520   0.257 -0.8961  0.0711  0.8055
 1125SOL     OW 4475   5.917   7.617   4.209  0.3374  0.0346 -0.1732
 1125SOL    HW1 4476   5.908   7.573   4.294 -1.1743  0.7705  0.0824
 1125SOL    HW2 4477   5.828   7.621   4.174  0.3477  2.8927 -0.1400
 1126SOL     OW 4478   6.264   5.566   6.933 -0.4177 -0.2154 -0.0101
 1126SOL    HW1 4479   6.284   5.473   6.919  1.3652  0.0864  0.3673
 1126SOL    HW2 4480   6.175   5.576   6.899 -0.4720 -1.9574 -0.4942
 1127SOL     OW 4481   0.077   3.561   2.499 -0.0180 -0.4320 -0.2379
 1127SOL    HW1 4482  -0.013   3.590   2.510  0.3933  0.7055  0.3658
 1127SOL    HW2 4483   0.075   3.467   2.518 -1.1023 -0.4638 -0.4683
 1128SOL     OW 4484   8.718   1.215   5.070  0.5787  0.1589 -0.0054
 1128SOL    HW1 4485   8.661   1.291   5.080  0.9211  0.5010 -0.5712
 1128SOL    HW2 4486   8.806   1.252   5.062  0.5584 -0.1135 -2.3526
 1129SOL     OW 4487   5.806   6.393   5.257 -0.2125 -0.2543  0.1987
 1129SOL    HW1 4488   5.836   6.324   5.316  0.1797 -0.3506 -0.1057
 1129SOL    HW2 4489   5.779   6.464   5.315  1.6640  0.2687  0.4913
 1130SOL     OW 4490   8.105   3.172   4.798  0.0932  0.4118 -0.3731
 1130SOL    HW1 4491   8.015   3.161   4.828 -0.2877  2.8982 -0.3658
 1130SOL    HW2 4492   8.155   3.188   4.878  0.4412 -0.3058 -0.4402
 1131SOL     OW 4493   6.433   7.393   0.731 -0.2797  0.5276  0.4411
 1131SOL    HW1 4494   6.398   7.482   0.739  0.3966  0.9827 -1.1101
 1131SOL    HW2 4495   6.371   7.338   0.778 -1.5167  1.6592  0.1977
 1132SOL     OW 4496   7.118   8.191   4.716  0.6801 -0.0356 -0.7489
 1132SOL    HW1 4497   7.042   8.218   4.767  0.5372  2.4597 -2.1196
 1132SOL    HW2 4498   7.178   8.152   4.779 -1.4995 -1.6491  0.4441
 1133SOL     OW 4499   0.693   9.080   4.440 -0.5702 -0.1580 -0.4052
 1133SOL    HW1 4500   0.763   9.068   4.505 -0.6176 -1.9733 -0.6305
 1133SOL    HW2 4501   0.617   9.108   4.491 -0.2426 -0.2651  0.1472
 1134SOL     OW 4502   0.352   3.215   6.071 -0.4713 -0.6544 -0.0481
 1134SOL    HW1 4503   0.421   3.205   6.137 -1.3047 -1.3023  0.7431
 1134SOL    HW2 4504   0.271   3.193   6.117 -0.9916 -1.9899 -1.5080
 1135SOL     OW 4505   8.960   7.577   7.769 -0.3293 -0.2122  0.3990
 1135SOL    HW1 4506   8.955   7.510   7.838  0.2452 -0.2421  0.4161
 1135SOL    HW2 4507   8.917   7.653   7.807 -1.1010 -0.6062  0.3333
 1136SOL     OW 4508   2.310   5.960   3.052  0.0666 -0.3840 -0.3307
 1136SOL    HW1 4509   2.328   5.946   3.145  0.5588  0.6148 -0.2661
 1136SOL    HW2 4510   2.345   6.047   3.034 -0.5623 -0.3307 -1.3173
 1137SOL     OW 4511   1.939   6.393   3.954  0.2124  0.0032  0.0856
 1137SOL    HW1 4512   1.937   6.319   3.893 -1.3947  1.8750 -2.3453
 1137SOL    HW2 4513   1.856   6.438   3.939  0.7716  1.8310  2.0888
 1138SOL     OW 4514   6.589   7.347   4.164  0.4745 -0.0118  0.0867
 1138SOL    HW1 4515   6.542   7.412   4.217  1.9517  0.4004  0.9357
 1138SOL    HW2 4516   6.520   7.301   4.116 -0.7684  0.7901  1.0474
 1139SOL     OW 4517   4.503   3.625   4.504  0.4763  0.0065 -0.1433
 1139SOL    HW1 4518   4.467   3.627   4.593  0.1288 -1.6013 -0.2018
 1139SOL    HW2 4519   4.569   3.555   4.508 -1.2939 -1.8493 -1.7324
 1140SOL     OW 4520   3.179   2.491   3.460 -0.2162  0.1494 -0.0597
 1140SOL    HW1 4521   3.085   2.481   3.479 -0.0415 -0.5988  0.4723
 1140SOL    HW2 4522   3.214   2.536   3.537  0.0746 -0.7041  0.3175
 1141SOL     OW 4523   5.649   2.562   8.291  0.5681 -0.1145  0.3997
 1141SOL    HW1 4524   5.725   2.606   8.329  0.7354  1.2081 -1.3557
 1141SOL    HW2 4525   5.615   2.507   8.362  2.4398  0.1757  1.5866
 1142SOL     OW 4526   8.521   3.385   6.456  0.2557 -0.1737 -0.1092
 1142SOL    HW1 4527   8.554   3.296   6.468 -0.0879 -0.3052 -0.1424
 1142SOL    HW2 4528   8.541   3.405   6.364  2.1544  0.5369  0.4062
 1143SOL     OW 4529   1.773   7.207   0.651 -0.7917  0.4667  0.1988
 1143SOL    HW1 4530   1.695   7.262   0.659 -1.4181 -0.5805  2.0589
 1143SOL    HW2 4531   1.759   7.156   0.571 -1.4250  1.1572 -0.1385
 1144SOL     OW 4532   4.293   1.713   0.005  0.9788 -0.0353  0.0757
 1144SOL    HW1 4533   4.278   1.763  -0.075 -0.5014 -0.5820 -0.0127
 1144SOL    HW2 4534   4.330   1.630  -0.024  1.3745  0.1489  0.0468
 1145SOL     OW 4535   0.330   3.426   8.224  0.3657 -0.1665  0.2248
 1145SOL    HW1 4536   0.313   3.370   8.148  0.6548 -2.0138  1.4621
 1145SOL    HW2 4537   0.369   3.506   8.186  0.0771 -0.8274 -1.5858
 1146SOL     OW 4538   3.051   8.408   5.879  0.1111 -0.2684  0.1531
 1146SOL    HW1 4539   3.108   8.347   5.832  1.0385 -0.7510  1.8395
 1146SOL    HW2 4540   3.090   8.494   5.864  1.7542 -0.6682  1.8656
 1147SOL     OW 4541   2.134   3.116   2.843  0.1050 -0.4105  0.0165
 1147SOL    HW1 4542   2.115   3.186   2.906  0.7501  0.3321 -0.5840
 1147SOL    HW2 4543   2.078   3.135   2.768 -0.6408 -1.2772  0.3368
 1148SOL     OW 4544   3.419   2.380   1.288  0.2048  0.0464  0.6880
 1148SOL    HW1 4545   3.334   2.379   1.245 -0.6914 -0.8003  2.3741
 1148SOL    HW2 4546   3.416   2.307   1.349  2.9332 -1.3061 -0.6135
 1149SOL     OW 4547   6.757   8.038   7.174  0.0731 -0.1170  0.3562
 1149SOL    HW1 4548   6.690   7.971   7.185  0.1323 -0.1364  0.6094
 1149SOL    HW2 4549   6.711   8.121   7.185  0.1411 -0.1375  0.8137
 1150SOL     OW 4550   4.472   2.100   0.718  0.2776 -0.1902  0.2150
 1150SOL    HW1 4551   4.418   2.093   0.639  0.7055 -0.8810 -0.0218
 1150SOL    HW2 4552   4.533   2.027   0.712  0.2135 -0.3460  1.2649
 1151SOL     OW 4553   7.810   9.063   7.417  0.0228  0.8561  0.3718
 1151SOL    HW1 4554   7.863   8.999   7.370  2.8565  2.8628  0.6213
 1151SOL    HW2 4555   7.826   9.045   7.510  1.3521  2.2321  0.4458
 1152SOL     OW 4556   2.419   8.373   6.820 -0.0137  0.2793  0.5741
 1152SOL    HW1 4557   2.423   8.277   6.816  1.4936  0.3527 -1.8362
 1152SOL    HW2 4558   2.338   8.396   6.774  1.6483  0.1708 -2.6764
 1153SOL     OW 4559   9.016   1.453   3.766 -0.0933  0.2638 -0.3353
 1153SOL    HW1 4560   8.944   1.397   3.794 -0.8713 -0.0511 -2.7401
 1153SOL    HW2 4561   8.973   1.531   3.730  0.7099 -0.0204 -2.0062
 1154SOL     OW 4562   0.906   8.418   3.830 -0.8431 -0.0372  0.5767
 1154SOL    HW1 4563   0.847   8.343   3.830  0.0966 -0.8043  0.8053
 1154SOL    HW2 4564   0.987   8.385   3.790 -0.2062  0.6842  1.2242
 1155SOL     OW 4565   8.269   9.025   5.473  0.0165 -0.4881  0.1986
 1155SOL    HW1 4566   8.345   9.055   5.425 -0.5436 -0.5712 -0.7728
 1155SOL    HW2 4567   8.229   8.960   5.416 -1.9248  1.0148 -0.2601
 1156SOL     OW 4568   4.335   6.915   1.726  0.0487 -0.1573 -0.4361
 1156SOL    HW1 4569   4.422   6.918   1.685 -0.6292  1.6811 -1.8879
 1156SOL    HW2 4570   4.276   6.952   1.660 -1.9812 -1.9822  0.2576
 1157SOL     OW 4571   8.443   6.792   5.245 -0.0643 -0.3154  0.1933
 1157SOL    HW1 4572   8.387   6.858   5.202  0.2351 -0.4079 -0.3522
 1157SOL    HW2 4573   8.464   6.830   5.330 -0.5141 -0.0400  0.1842
 1158SOL     OW 4574   1.631   2.833   4.574 -0.2252 -0.1289 -0.2971
 1158SOL    HW1 4575   1.611   2.848   4.481  2.1663 -0.6368 -0.9501
 1158SOL    HW2 4576   1.571   2.892   4.620 -0.6441  1.0492 -2.2090
 1159SOL     OW 4577   3.796   7.514   7.742  0.1731 -0.0488  0.1572
 1159SOL    HW1 4578   3.734   7.458   7.696 -0.2461  0.0670  0.5772
 1159SOL    HW2 4579   3.768   7.510   7.834 -0.3150  1.4260  0.0942
 1160SOL     OW 4580   1.419   5.029   0.274  0.2457 -0.4254 -0.2305
 1160SOL    HW1 4581   1.383   4.947   0.241  0.7331  0.1699 -2.4296
 1160SOL    HW2 4582   1.382   5.096   0.215  1.2293  0.7177  0.4156
 1161SOL     OW 4583   2.570   0.863   4.690 -0.3074 -0.1887 -0.2247
 1161SOL    HW1 4584   2.568   0.957   4.671  3.5067  0.1023 -0.0747
 1161SOL    HW2 4585   2.519   0.854   4.771 -2.8255  1.2497 -1.5251
 1162SOL     OW 4586   7.682   2.866   2.223 -0.0261 -0.3294  0.2563
 1162SOL    HW1 4587   7.771   2.877   2.190 -0.1286 -2.4415 -0.8779
 1162SOL    HW2 4588   7.691   2.805   2.296 -0.5468 -0.5387  0.1485
 1163SOL     OW 4589   8.533   2.092   6.741 -0.3803 -0.3606 -0.2759
 1163SOL    HW1 4590   8.502   2.061   6.656  0.5013 -0.3420 -0.6164
 1163SOL    HW2 4591   8.584   2.170   6.720 -1.1475  0.3473  0.4021
 1164SOL     OW 4592   2.588   8.326   6.390  0.2180  0.1539 -0.3528
 1164SOL    HW1 4593   2.659   8.356   6.447 -0.5969 -0.4099  1.0031
 1164SOL    HW2 4594   2.628   8.258   6.335  0.3987 -1.2739  1.4606
 1165SOL     OW 4595   7.874   2.972   0.066 -0.1002  0.8285  0.2554
 1165SOL    HW1 4596   7.902   2.982   0.157  0.8374 -0.6954  0.1645
 1165SOL    HW2 4597   7.955   2.977   0.015 -0.1979 -1.2957 -0.2145
 1166SOL     OW 4598   2.269   0.681   1.021  0.1549 -0.7975  0.1786
 1166SOL    HW1 4599   2.227   0.739   0.958 -0.3702 -0.5417  0.7572
 1166SOL    HW2 4600   2.329   0.628   0.968  0.0694 -0.2671 -0.4651
 1167SOL     OW 4601   3.674   3.618   7.865  0.0506  0.2454  0.2916
 1167SOL    HW1 4602   3.603   3.667   7.823  0.3496  0.8731  0.5083
 1167SOL    HW2 4603   3.648   3.611   7.957 -0.4826 -0.9108  0.0694
 1168SOL     OW 4604   6.823   2.319   5.771 -0.1630  0.5483 -0.1888
 1168SOL    HW1 4605   6.782   2.398   5.805 -0.2700  0.4659 -0.1277
 1168SOL    HW2 4606   6.784   2.247   5.821  0.9226  0.5531  0.7300
 1169SOL     OW 4607   7.920   8.542   8.098 -0.0928 -0.1906 -0.6205
 1169SOL    HW1 4608   7.933   8.630   8.063 -0.4680 -0.4106 -1.3399
 1169SOL    HW2 4609   8.007   8.513   8.123 -0.0565  0.6440  0.2661
 1170SOL     OW 4610   3.620   8.297   3.005  0.2088 -0.1812  0.0818
 1170SOL    HW1 4611   3.648   8.218   3.052  1.2018 -0.3429 -0.7453
 1170SOL    HW2 4612   3.695   8.320   2.951  0.0347  1.5195  0.5216
 1171SOL     OW 4613   6.857   0.571   1.259  0.0014 -0.1710 -0.6487
 1171SOL    HW1 4614   6.856   0.623   1.340  0.3019 -1.3249  0.1239
 1171SOL    HW2 4615   6.766   0.569   1.231 -0.2381 -0.4027  0.1097
 1172SOL     OW 4616   8.435   7.068   7.212  0.1573  0.2984  0.0593
 1172SOL    HW1 4617   8.395   7.074   7.298 -0.9158  2.1137 -0.5097
 1172SOL    HW2 4618   8.381   7.005   7.164  1.1460 -1.2091  0.8812
 1173SOL     OW 4619   7.230   3.818   7.310 -0.0879  0.2773  0.5005
 1173SOL    HW1 4620   7.295   3.853   7.249  0.6856 -1.1285  0.4780
 1173SOL    HW2 4621   7.229   3.724   7.293 -2.3722  0.2722  0.2874
 1174SOL     OW 4622   6.743   4.794   0.062  0.2011  0.0252 -0.3269
 1174SOL    HW1 4623   6.807   4.842   0.010 -1.3170  0.8741 -1.5192
 1174SOL    HW2 4624   6.757   4.825   0.152  0.7598  1.0032 -0.7401
 1175SOL     OW 4625   6.662   6.317   2.168 -0.4551 -0.6229 -0.5442
 1175SOL    HW1 4626   6.592   6.252   2.177  0.2896 -1.6094 -1.6673
 1175SOL    HW2 4627   6.706   6.316   2.253 -1.3765 -0.4618 -0.0449
 1176SOL     OW 4628   0.944   8.188   7.162  0.2553 -0.3935 -0.1079
 1176SOL    HW1 4629   0.992   8.260   7.122 -1.7221  0.6648 -0.7270
 1176SOL    HW2 4630   0.962   8.112   7.107 -1.0810  0.6530 -2.0849
 1177SOL     OW 4631   4.451   5.091   3.240  0.0692  0.0187  0.0856
 1177SOL    HW1 4632   4.408   5.106   3.156  1.1747  1.0085 -0.3326
 1177SOL    HW2 4633   4.384   5.111   3.305 -0.3667  0.6924 -0.5537
 1178SOL     OW 4634   7.512   3.509   4.633 -0.2937 -0.7378  0.1550
 1178SOL    HW1 4635   7.558   3.555   4.563 -0.2607  0.0410  0.6738
 1178SOL    HW2 4636   7.421   3.506   4.603 -0.2941 -0.3452  0.1024
 1179SOL     OW 4637   7.260   2.093   7.591  0.5998  0.3594 -0.2040
 1179SOL    HW1 4638   7.215   2.131   7.516 -1.0536 -1.7832 -0.4145
 1179SOL    HW2 4639   7.352   2.116   7.579  0.3658  0.2341 -2.8047
 1180SOL     OW 4640   0.537   6.041   9.083  0.0472 -0.1746  0.0829
 1180SOL    HW1 4641   0.498   5.960   9.117 -0.5050 -0.3400 -0.9142
 1180SOL    HW2 4642   0.491   6.111   9.130 -0.8031 -0.3946 -0.4026
 1181SOL     OW 4643   0.396   5.098   3.576 -0.1787 -0.3732  0.3659
 1181SOL    HW1 4644   0.367   5.136   3.660  0.1428  0.2830  0.1851
 1181SOL    HW2 4645   0.492   5.105   3.579 -0.1358 -0.8370  0.1643
 1182SOL     OW 4646   8.745   1.278   0.169 -0.1311 -0.2143  0.0693
 1182SOL    HW1 4647   8.705   1.319   0.245 -1.0305 -0.1176 -0.4320
 1182SOL    HW2 4648   8.782   1.351   0.119  0.8329 -0.3206  0.6168
 1183SOL     OW 4649   6.287   6.347   0.359  0.3048  0.0009  0.7641
 1183SOL    HW1 4650   6.341   6.423   0.379  0.2862  0.9962 -2.5115
 1183SOL    HW2 4651   6.298   6.332   0.265 -1.5628 -2.6015  0.8290
 1184SOL     OW 4652   8.145   0.112   7.812 -0.0293  0.3905 -0.6948
 1184SOL    HW1 4653   8.229   0.159   7.805 -0.6768  1.5254 -1.0963
 1184SOL    HW2 4654   8.080   0.175   7.782 -0.9975 -0.6116 -0.7532
 1185SOL     OW 4655   4.094   8.659   0.953 -0.6427 -0.0323  0.0080
 1185SOL    HW1 4656   4.019   8.667   1.012 -0.7287 -0.4612 -0.0345
 1185SOL    HW2 4657   4.169   8.649   1.011 -0.4331  1.7368  0.0697
 1186SOL     OW 4658   3.428   3.340   2.328  0.3358 -0.8264  0.0024
 1186SOL    HW1 4659   3.395   3.293   2.252 -1.2080 -0.7974  0.6261
 1186SOL    HW2 4660   3.481   3.412   2.291  0.7843 -1.6457 -0.9914
 1187SOL     OW 4661   1.432   2.834   6.054  0.6976  0.0053 -0.0462
 1187SOL    HW1 4662   1.422   2.791   5.969 -1.2476 -1.8723  1.0372
 1187SOL    HW2 4663   1.346   2.871   6.073  1.7192  2.4587  0.1252
 1188SOL     OW 4664   3.032   0.699   1.341 -0.3167  0.0362 -0.1343
 1188SOL    HW1 4665   3.042   0.691   1.246 -2.2246 -0.0145 -0.3632
 1188SOL    HW2 4666   3.111   0.658   1.376  0.8567  0.8253 -1.6869
 1189SOL     OW 4667   6.915   3.952   0.352 -0.0139 -0.0797  0.7619
 1189SOL    HW1 4668   6.946   4.028   0.401  0.5056  1.2305 -1.4580
 1189SOL    HW2 4669   6.989   3.891   0.354 -0.1083 -0.1802  1.8049
 1190SOL     OW 4670   2.269   0.872   8.589 -0.1735 -0.0133 -0.4855
 1190SOL    HW1 4671   2.287   0.800   8.528  1.9657  0.3176 -0.3117
 1190SOL    HW2 4672   2.174   0.879   8.590 -0.3121 -0.3044 -3.4667
 1191SOL     OW 4673   2.364   3.915   8.693 -0.0259  0.1969 -1.3882
 1191SOL    HW1 4674   2.413   3.969   8.755 -0.5783  2.1167 -2.5537
 1191SOL    HW2 4675   2.430   3.884   8.632  0.4474 -1.3219 -0.1770
 1192SOL     OW 4676   2.932   3.206   0.365 -0.0233 -0.5120 -0.1416
 1192SOL    HW1 4677   2.963   3.226   0.453 -0.5205  0.8874 -0.2565
 1192SOL    HW2 4678   2.853   3.153   0.379 -0.9699  0.9509  0.3396
 1193SOL     OW 4679   8.393   1.100   7.956 -0.3279  0.5168 -0.1009
 1193SOL    HW1 4680   8.347   1.116   7.874  0.6798 -0.3075 -0.8500
 1193SOL    HW2 4681   8.339   1.144   8.022 -2.0971 -0.2570 -0.9491
 1194SOL     OW 4682   7.043   8.526   6.709  0.0037  0.2990 -0.4978
 1194SOL    HW1 4683   7.077   8.446   6.669 -0.2058  1.6366 -3.6711
 1194SOL    HW2 4684   6.949   8.510   6.719 -0.0695  0.1689 -1.3049
 1195SOL     OW 4685   0.942   7.458   2.154  0.1201  0.6366 -0.7809
 1195SOL    HW1 4686   0.862   7.409   2.170  0.3100  0.4693 -0.3125
 1195SOL    HW2 4687   1.011   7.391   2.152  0.4077  0.8920  0.0512
 1196SOL     OW 4688   3.035   5.881   8.399  0.3478 -0.1781  0.3429
 1196SOL    HW1 4689   3.124   5.910   8.421  0.4601 -0.4799  0.2965
 1196SOL    HW2 4690   3.047   5.791   8.368  0.0703 -0.0932 -0.0091
 1197SOL     OW 4691   0.633   4.582   8.856  0.1555  0.0861 -0.2333
 1197SOL    HW1 4692   0.651   4.653   8.918  0.0571  2.6054 -2.8702
 1197SOL    HW2 4693   0.716   4.569   8.811 -0.3193 -0.1446 -1.0492
 1198SOL     OW 4694   2.428   3.643   3.636 -0.3268 -0.7298 -0.1366
 1198SOL    HW1 4695   2.468   3.637   3.549 -0.7220 -3.4242 -0.2179
 1198SOL    HW2 4696   2.355   3.580   3.633 -0.3610 -0.8756  2.1356
 1199SOL     OW 4697   4.356   4.197   8.362  0.0038 -0.1330 -0.2414
 1199SOL    HW1 4698   4.335   4.285   8.332  0.0439 -0.3412 -0.8798
 1199SOL    HW2 4699   4.314   4.139   8.299 -0.4063 -0.5829  0.4356
 1200SOL     OW 4700   1.533   7.744   0.719  0.4860  0.4597  0.5680
 1200SOL    HW1 4701   1.580   7.794   0.786 -1.1726  1.8544  0.7589
 1200SOL    HW2 4702   1.585   7.664   0.709  1.2726  0.5820  2.8910
 1201SOL     OW 4703   8.320   3.160   8.084 -0.1967  0.3193  0.0730
 1201SOL    HW1 4704   8.349   3.196   8.167  0.4036 -1.5486  0.7269
 1201SOL    HW2 4705   8.249   3.101   8.107  1.0234 -1.4520 -0.4897
 1202SOL     OW 4706   4.213   3.996   2.434 -0.1453  0.0434 -0.2144
 1202SOL    HW1 4707   4.262   3.962   2.510  0.5155 -1.9424 -1.4504
 1202SOL    HW2 4708   4.225   4.091   2.439  0.4565 -0.0827  1.7693
 1203SOL     OW 4709   1.048   0.948   6.605 -0.3117 -0.2179 -0.1457
 1203SOL    HW1 4710   1.126   0.953   6.549  0.0351 -1.7812  0.1308
 1203SOL    HW2 4711   1.071   0.997   6.683  1.2812 -2.3731  0.8523
 1204SOL     OW 4712   2.766   2.914   3.229  0.7524 -0.2243 -0.4167
 1204SOL    HW1 4713   2.843   2.857   3.234  0.1739 -1.1725 -1.7447
 1204SOL    HW2 4714   2.756   2.934   3.136 -0.1189  0.5844 -0.1701
 1205SOL     OW 4715   8.878   2.647   9.118  0.2924 -0.9946  0.3228
 1205SOL    HW1 4716   8.893   2.582   9.050 -2.1368 -1.8451  0.5045
 1205SOL    HW2 4717   8.817   2.709   9.079  0.7826 -0.1157  0.9317
 1206SOL     OW 4718   4.436   3.127   8.210 -0.6693  0.4572 -0.2949
 1206SOL    HW1 4719   4.513   3.094   8.164 -0.1583 -0.3311  1.0484
 1206SOL    HW2 4720   4.438   3.222   8.195  1.3017  0.6378  0.7119
 1207SOL     OW 4721   3.383   7.371   1.728 -0.4590 -0.2610 -0.4559
 1207SOL    HW1 4722   3.335   7.442   1.772  0.2089  0.3204 -0.6591
 1207SOL    HW2 4723   3.358   7.378   1.636  0.3104  0.3002 -0.6328
 1208SOL     OW 4724   2.218   7.325   8.922 -1.0907  0.0436  0.3603
 1208SOL    HW1 4725   2.158   7.269   8.970 -0.3826 -0.0262  1.1823
 1208SOL    HW2 4726   2.273   7.365   8.989 -1.9924  2.2559 -0.1346
 1209SOL     OW 4727   7.215   2.687   9.082  0.6364 -0.2520 -0.4627
 1209SOL    HW1 4728   7.307   2.713   9.087  0.5105  0.0815  0.2732
 1209SOL    HW2 4729   7.171   2.743   9.146  0.2929 -2.0284  0.9343
 1210SOL     OW 4730   2.323   8.960   5.719 -0.1627 -0.0114  0.4967
 1210SOL    HW1 4731   2.273   8.918   5.789  0.3574  0.4100  1.1397
 1210SOL    HW2 4732   2.257   8.998   5.661 -0.5967 -0.0308  0.9707
 1211SOL     OW 4733   5.183   0.460   7.540 -0.8153  0.1826  0.1097
 1211SOL    HW1 4734   5.187   0.487   7.632 -1.8660  0.3761  0.1083
 1211SOL    HW2 4735   5.236   0.381   7.537  0.4443  0.9628  0.5732
 1212SOL     OW 4736   8.407   4.987   5.266  0.3375 -0.1495 -0.0754
 1212SOL    HW1 4737   8.484   5.033   5.300 -0.9257  1.0677  1.3308
 1212SOL    HW2 4738   8.409   5.003   5.172  1.3560  0.5632  0.0508
 1213SOL     OW 4739   5.784   7.059   4.516  0.4987  0.0355 -0.4996
 1213SOL    HW1 4740   5.856   7.033   4.573  0.7372 -0.1458 -0.8822
 1213SOL    HW2 4741   5.724   7.106   4.573  0.1047 -1.2544  0.1842
 1214SOL     OW 4742   1.864   6.334   7.547 -0.3552  0.6517  0.3904
 1214SOL    HW1 4743   1.893   6.309   7.459  0.7981 -0.3736  1.0382
 1214SOL    HW2 4744   1.839   6.251   7.588  1.7098  0.7210  1.9393
 1215SOL     OW 4745   3.109   2.573   8.940  0.4444 -0.2218  0.3125
 1215SOL    HW1 4746   3.034   2.528   8.902  0.7436 -1.0586  0.6969
 1215SOL    HW2 4747   3.081   2.664   8.949  0.4924  0.1343 -2.2993
 1216SOL     OW 4748   4.483   8.208   7.368 -0.8094 -0.1932  0.6561
 1216SOL    HW1 4749   4.395   8.228   7.337 -0.3735  1.2138  0.2385
 1216SOL    HW2 4750   4.470   8.143   7.438 -2.3031  1.0617  1.6145
 1217SOL     OW 4751   5.839   1.452   0.033 -0.8170  0.1229  0.2033
 1217SOL    HW1 4752   5.837   1.374  -0.023  0.8563 -0.4227  0.8420
 1217SOL    HW2 4753   5.865   1.419   0.119  2.4077  1.6249 -0.0625
 1218SOL     OW 4754   6.979   6.577   3.272 -0.5260 -0.4395 -0.2345
 1218SOL    HW1 4755   7.056   6.633   3.267 -0.8707 -0.0330 -0.9813
 1218SOL    HW2 4756   7.015   6.488   3.272 -0.0315 -0.2448 -0.0096
 1219SOL     OW 4757   3.760   2.976   0.032 -0.6042  0.2672  0.3468
 1219SOL    HW1 4758   3.764   3.015   0.119 -1.3551  1.9176 -0.3058
 1219SOL    HW2 4759   3.835   2.917   0.028  0.7200  1.8061  1.3490
 1220SOL     OW 4760   4.113   4.067   2.826 -0.1760  0.1274 -0.3329
 1220SOL    HW1 4761   4.133   3.974   2.816  3.0168  0.6084  0.4159
 1220SOL    HW2 4762   4.198   4.109   2.833 -1.5268  3.0636  0.0457
 1221SOL     OW 4763   2.411   1.457   2.744  0.2121 -0.0419  0.1983
 1221SOL    HW1 4764   2.455   1.460   2.829 -0.6870  2.3892  0.6756
 1221SOL    HW2 4765   2.432   1.541   2.703 -1.3213 -0.1547 -0.9382
 1222SOL     OW 4766   8.371   4.075   2.356  0.4333 -0.2034 -0.2018
 1222SOL    HW1 4767   8.315   4.037   2.425  1.7817 -0.3214  0.8666
 1222SOL    HW2 4768   8.324   4.056   2.275 -3.0276  2.9223  0.7611
 1223SOL     OW 4769   5.704   0.092   4.686 -0.1246  0.1742  0.0411
 1223SOL    HW1 4770   5.611   0.068   4.682  0.2291 -1.2765  0.1008
 1223SOL    HW2 4771   5.727   0.115   4.596 -0.3272 -0.3337 -0.1438
 1224SOL     OW 4772   7.644   7.859   4.342  0.2829 -0.0662 -0.4278
 1224SOL    HW1 4773   7.548   7.851   4.336  0.3297 -1.5367  0.2609
 1224SOL    HW2 4774   7.660   7.953   4.349 -1.0377  0.2808 -1.5250
 1225SOL     OW 4775   4.275   6.366   0.723  0.0951 -0.1693 -0.1142
 1225SOL    HW1 4776   4.229   6.415   0.790  0.4056  0.0220 -0.0429
 1225SOL    HW2 4777   4.314   6.432   0.666  0.9442 -0.3219  0.2744
 1226SOL     OW 4778   1.849   7.044   4.617 -0.3859 -0.3056 -0.1984
 1226SOL    HW1 4779   1.882   7.130   4.639  0.6615 -0.6726 -0.3052
 1226SOL    HW2 4780   1.754   7.051   4.630 -0.4260  1.1010 -1.0127
 1227SOL     OW 4781   1.478   6.256   0.029 -0.0595 -0.0727  0.3167
 1227SOL    HW1 4782   1.468   6.181   0.087  1.2377 -0.5964 -0.0908
 1227SOL    HW2 4783   1.392   6.268  -0.011 -0.2045 -1.5695  0.1259
 1228SOL     OW 4784   7.126   1.605   0.785 -0.4751 -0.0227 -0.8542
 1228SOL    HW1 4785   7.206   1.617   0.837 -0.7032 -0.0857 -0.4856
 1228SOL    HW2 4786   7.080   1.689   0.791 -0.7547 -0.1968 -0.5174
 1229SOL     OW 4787   4.421   9.130   5.658 -0.0353 -0.1638  0.0856
 1229SOL    HW1 4788   4.442   9.166   5.745  1.0950  0.3504 -0.3770
 1229SOL    HW2 4789   4.426   9.205   5.599 -1.6260 -0.3494 -0.3295
 1230SOL     OW 4790   0.494   2.818   3.429 -0.0435  0.6018  0.0533
 1230SOL    HW1 4791   0.525   2.909   3.434  0.0848  0.6504 -1.3088
 1230SOL    HW2 4792   0.443   2.815   3.348 -2.1041  0.0665  1.3043
 1231SOL     OW 4793   0.415   8.291   6.321 -0.2363 -0.3018 -0.0585
 1231SOL    HW1 4794   0.425   8.230   6.394 -1.7070 -1.1456 -0.5210
 1231SOL    HW2 4795   0.403   8.376   6.363  1.2707 -0.3916  0.6052
 1232SOL     OW 4796   8.659   3.469   8.760  0.2283  0.2294  0.2871
 1232SOL    HW1 4797   8.691   3.471   8.670  1.4321  0.3951  0.7042
 1232SOL    HW2 4798   8.726   3.421   8.808 -0.8291 -0.6304  0.9451
 1233SOL     OW 4799   7.708   6.612   3.257 -0.2101  0.5748  0.3273
 1233SOL    HW1 4800   7.702   6.707   3.269 -0.6081  0.4980  0.7516
 1233SOL    HW2 4801   7.699   6.600   3.162  0.9728  1.0399  0.1423
 1234SOL     OW 4802   9.009   6.292   5.355 -0.4161  0.2045  0.1267
 1234SOL    HW1 4803   9.070   6.365   5.367  0.2605 -0.5923  2.0182
 1234SOL    HW2 4804   8.932   6.317   5.405 -0.9711  0.4755 -0.8595
 1235SOL     OW 4805   6.186   6.027   6.746  0.4338  0.3118  0.2197
 1235SOL    HW1 4806   6.113   6.087   6.759  1.3952  1.2538  1.6655
 1235SOL    HW2 4807   6.234   6.030   6.829  2.7211  0.6012 -1.0252
 1236SOL     OW 4808   0.515   1.071   8.720  0.5155  0.0383  0.0617
 1236SOL    HW1 4809   0.555   0.996   8.764  0.6563  0.4568  0.6455
 1236SOL    HW2 4810   0.558   1.074   8.634  0.6300 -0.4450  0.0997
 1237SOL     OW 4811   4.803   0.105   8.779  0.1592 -0.2622  0.0644
 1237SOL    HW1 4812   4.891   0.067   8.772  0.0051 -0.3037 -2.9991
 1237SOL    HW2 4813   4.819   0.200   8.781  0.2827 -0.2822  1.4330
 1238SOL     OW 4814   2.881   3.717   1.455 -0.5868  0.3419 -0.5897
 1238SOL    HW1 4815   2.924   3.684   1.534 -0.8103  1.5099  0.0492
 1238SOL    HW2 4816   2.808   3.657   1.440 -0.6071  0.1689  0.1595
 1239SOL     OW 4817   7.966   8.204   8.130 -0.6605  0.0768 -0.1617
 1239SOL    HW1 4818   7.972   8.118   8.087  1.6601  0.6573 -1.1273
 1239SOL    HW2 4819   8.036   8.203   8.196  0.3745  1.7009 -1.1635
 1240SOL     OW 4820   6.926   2.200   1.772 -0.1018  0.3844 -0.4301
 1240SOL    HW1 4821   6.847   2.231   1.728 -0.9961  0.0989  0.9083
 1240SOL    HW2 4822   6.917   2.233   1.862 -0.1197 -2.0193  0.5151
 1241SOL     OW 4823   6.747   3.663   3.738  0.0085  0.0295 -0.3940
 1241SOL    HW1 4824   6.767   3.678   3.830  1.9579  0.2389 -0.8052
 1241SOL    HW2 4825   6.765   3.570   3.724  0.6138  0.1943 -0.7510
 1242SOL     OW 4826   8.011   0.604   2.902 -0.2019 -0.2169  0.3313
 1242SOL    HW1 4827   8.036   0.612   2.810 -0.0130 -3.6872 -0.0685
 1242SOL    HW2 4828   8.089   0.628   2.951 -0.3591  1.8522 -0.3336
 1243SOL     OW 4829   7.358   8.759   2.616  0.3873 -0.5729  0.0812
 1243SOL    HW1 4830   7.427   8.769   2.551  1.5008 -1.3062  1.1070
 1243SOL    HW2 4831   7.332   8.667   2.610 -0.4864 -0.3224 -0.2542
 1244SOL     OW 4832   2.782   2.474   3.491  0.2978  0.3618 -0.2508
 1244SOL    HW1 4833   2.838   2.399   3.472  0.9642  0.9896 -0.8451
 1244SOL    HW2 4834   2.693   2.444   3.473  0.6033 -0.1381 -0.9697
 1245SOL     OW 4835   5.596   4.165   2.483  0.0379  0.2668 -0.2516
 1245SOL    HW1 4836   5.590   4.191   2.391 -0.6524  1.5876  0.1273
 1245SOL    HW2 4837   5.522   4.106   2.497 -0.6430  1.0961 -0.2563
 1246SOL     OW 4838   5.307   0.006   4.759 -0.1314  0.1259  0.5593
 1246SOL    HW1 4839   5.240   0.065   4.722 -1.6882 -1.4725  0.6795
 1246SOL    HW2 4840   5.272  -0.019   4.844  0.9157 -0.3282  0.8671
 1247SOL     OW 4841   3.016   7.098   1.198  0.0796 -0.2743 -0.0202
 1247SOL    HW1 4842   2.927   7.094   1.165 -0.4995 -2.4382  1.5932
 1247SOL    HW2 4843   3.066   7.040   1.140  0.3344  0.5111 -0.5950
 1248SOL     OW 4844   4.142   7.278   6.080  0.7720 -0.1286  0.2171
 1248SOL    HW1 4845   4.065   7.331   6.060  0.5599 -1.1503 -1.8644
 1248SOL    HW2 4846   4.123   7.239   6.166 -1.1025 -0.4917 -0.3359
 1249SOL     OW 4847   0.875   7.974   0.890  0.4064  0.6296  0.2580
 1249SOL    HW1 4848   0.866   7.920   0.969  1.8040 -0.3381 -0.1927
 1249SOL    HW2 4849   0.924   8.051   0.920  1.3871  0.0254  0.2740
 1250SOL     OW 4850   4.245   4.034   8.143  0.4090  0.1527  0.0290
 1250SOL    HW1 4851   4.296   3.965   8.184  0.6219 -1.1102 -2.2344
 1250SOL    HW2 4852   4.244   4.012   8.050 -1.1390  2.1681 -0.5072
 1251SOL     OW 4853   7.487   8.289   8.470  0.4155 -0.2789  0.3840
 1251SOL    HW1 4854   7.427   8.316   8.400  0.3048 -4.2878 -1.3323
 1251SOL    HW2 4855   7.430   8.256   8.539  0.5853  2.3478  1.9030
 1252SOL     OW 4856   2.553   7.230   5.020 -0.4898 -0.2359  0.5551
 1252SOL    HW1 4857   2.549   7.323   5.044  0.8136  0.3058 -1.1402
 1252SOL    HW2 4858   2.480   7.190   5.067 -0.2173  1.3565  2.4906
 1253SOL     OW 4859   5.720   2.170   4.495  0.4855  0.1947 -0.0045
 1253SOL    HW1 4860   5.803   2.126   4.515  0.9125  1.5378  1.3439
 1253SOL    HW2 4861   5.654   2.101   4.506  1.2994 -0.5876  0.1463
 1254SOL     OW 4862   3.098   5.265   2.789 -0.0592  0.1425  0.0148
 1254SOL    HW1 4863   3.009   5.293   2.768 -0.3072  0.7112  1.6235
 1254SOL    HW2 4864   3.154   5.336   2.756  0.0241 -1.0041 -2.5604
 1255SOL     OW 4865   0.390   8.634   7.069  0.0083 -0.6580  0.7634
 1255SOL    HW1 4866   0.374   8.546   7.037  0.2365 -0.2474 -0.5501
 1255SOL    HW2 4867   0.303   8.667   7.094 -0.0233 -1.3805  1.6619
 1256SOL     OW 4868   3.707   3.261   1.428  0.2958  0.3108  0.8041
 1256SOL    HW1 4869   3.801   3.269   1.408  0.0137 -0.5989 -1.1359
 1256SOL    HW2 4870   3.705   3.217   1.512  1.6672 -1.6974 -0.1238
 1257SOL     OW 4871   7.221   8.155   6.885 -0.0555  0.1643  0.3884
 1257SOL    HW1 4872   7.314   8.132   6.873 -0.0623  0.7813 -1.0791
 1257SOL    HW2 4873   7.217   8.196   6.971  1.0633  0.2317  0.4230
 1258SOL     OW 4874   6.267   6.866   2.633  0.0778  0.0136  0.1702
 1258SOL    HW1 4875   6.262   6.777   2.667 -0.4132 -0.0582 -0.0947
 1258SOL    HW2 4876   6.353   6.897   2.661  1.3510 -1.4214 -1.8511
 1259SOL     OW 4877   6.816   3.543   2.760 -0.4068 -0.3096 -0.3445
 1259SOL    HW1 4878   6.732   3.586   2.743 -0.1126  0.2404 -0.4549
 1259SOL    HW2 4879   6.807   3.508   2.848  0.1912  2.1629  0.7982
 1260SOL     OW 4880   4.528   1.638   1.619 -0.4267 -0.1828  0.0351
 1260SOL    HW1 4881   4.505   1.562   1.673 -1.0157 -0.7206 -0.9323
 1260SOL    HW2 4882   4.596   1.683   1.668 -0.7958 -0.7698  1.1171
 1261SOL     OW 4883   8.950   2.484   5.674 -0.2070 -0.5424 -0.5425
 1261SOL    HW1 4884   8.975   2.530   5.754 -3.1243  0.9797 -0.3587
 1261SOL    HW2 4885   8.959   2.392   5.695  0.6941 -0.1399  0.9665
 1262SOL     OW 4886   7.423   9.077   6.014  0.0008 -0.0667 -0.8267
 1262SOL    HW1 4887   7.390   9.013   5.951 -1.5915  1.3585 -1.5175
 1262SOL    HW2 4888   7.504   9.110   5.975 -0.7861  0.5368 -1.9916
 1263SOL     OW 4889   4.721   0.236   2.776  0.0486 -0.0324 -0.2754
 1263SOL    HW1 4890   4.738   0.268   2.688  1.6149  0.3895  0.1457
 1263SOL    HW2 4891   4.674   0.154   2.764  2.4613 -1.3190 -1.6247
 1264SOL     OW 4892   1.801   3.043   3.304  0.6432  0.2739  0.2606
 1264SOL    HW1 4893   1.872   2.988   3.336 -0.0346 -0.4942  0.4968
 1264SOL    HW2 4894   1.766   3.085   3.383 -1.0671 -1.6642  0.6212
 1265SOL     OW 4895   7.643   8.505   1.675  0.5502 -0.8239 -0.4754
 1265SOL    HW1 4896   7.547   8.507   1.682  0.5429  1.7068 -0.4604
 1265SOL    HW2 4897   7.670   8.440   1.741 -1.0828 -0.3227  0.7640
 1266SOL     OW 4898   6.110   5.233   3.071 -0.0347 -0.0967  0.3121
 1266SOL    HW1 4899   6.094   5.322   3.102 -0.5295 -0.0504 -0.0654
 1266SOL    HW2 4900   6.206   5.226   3.069  0.0249  0.6673 -0.2947
 1267SOL     OW 4901   4.943   8.556   1.541  0.5176  0.9134  0.5069
 1267SOL    HW1 4902   4.873   8.618   1.518 -1.8976 -2.1782 -1.2447
 1267SOL    HW2 4903   4.903   8.498   1.606  1.7655 -0.3833  0.1543
 1268SOL     OW 4904   9.055   5.621   3.911  0.3240 -0.3292  0.0649
 1268SOL    HW1 4905   9.125   5.673   3.949 -1.1469  0.5010  1.7408
 1268SOL    HW2 4906   9.088   5.531   3.916  1.5344  0.0887  0.1477
 1269SOL     OW 4907   3.158   9.037   4.253  0.4493  0.0117  0.1976
 1269SOL    HW1 4908   3.213   9.111   4.228  1.2749 -0.5190  0.3964
 1269SOL    HW2 4909   3.202   8.998   4.329 -1.1510  0.6367  1.5253
 1270SOL     OW 4910   7.878   3.731   7.312  0.3381  0.8360  0.1212
 1270SOL    HW1 4911   7.855   3.765   7.225  1.0227 -0.6231 -0.6753
 1270SOL    HW2 4912   7.794   3.712   7.353 -0.0035  1.7910 -0.1135
 1271SOL     OW 4913   4.729   1.417   3.925  0.3213 -0.0954 -0.4139
 1271SOL    HW1 4914   4.733   1.409   3.830 -0.1836 -0.0258 -0.4429
 1271SOL    HW2 4915   4.722   1.327   3.956 -2.0470 -0.0399 -0.5797
 1272SOL     OW 4916   4.924   1.903   2.176  0.0532 -0.4282  0.1813
 1272SOL    HW1 4917   5.014   1.870   2.175  0.0012 -0.5943  0.5483
 1272SOL    HW2 4918   4.898   1.896   2.268  1.0125  3.3085  0.8810
 1273SOL     OW 4919   3.030   1.744   2.809 -0.4909  0.0294  0.4125
 1273SOL    HW1 4920   2.962   1.756   2.875 -1.5427 -2.4711 -0.0830
 1273SOL    HW2 4921   2.998   1.791   2.732  0.0329  1.7154  1.1899
 1274SOL     OW 4922   1.928   8.616   8.317 -0.1238  0.4155  0.3971
 1274SOL    HW1 4923   1.937   8.710   8.303  1.3890 -0.0529 -2.4479
 1274SOL    HW2 4924   1.856   8.590   8.260 -1.9995  0.0354  2.7334
 1275SOL     OW 4925   3.904   4.829   1.370  0.1341  0.0493  0.2946
 1275SOL    HW1 4926   3.984   4.806   1.322  0.0407  0.1988  0.0659
 1275SOL    HW2 4927   3.857   4.746   1.379  0.8061 -0.2403  1.3597
 1276SOL     OW 4928   7.556   6.358   4.814 -0.0083  0.0697  0.0936
 1276SOL    HW1 4929   7.509   6.359   4.730 -0.6039  0.2767  0.4180
 1276SOL    HW2 4930   7.639   6.315   4.795  0.2082  0.8287 -0.7791
 1277SOL     OW 4931   3.073   2.999   0.932  0.2791  0.2175  0.0515
 1277SOL    HW1 4932   3.109   2.912   0.914  0.2557  0.6119 -2.1343
 1277SOL    HW2 4933   3.055   3.036   0.846 -2.3087  1.3313  0.9712
 1278SOL     OW 4934   1.753   4.617   6.256 -0.1803  0.4402  0.3501
 1278SOL    HW1 4935   1.699   4.692   6.280 -1.0507 -0.6155  1.9148
 1278SOL    HW2 4936   1.710   4.581   6.178 -2.0114 -0.5381  1.7262
 1279SOL     OW 4937   8.009   0.345   5.164  0.5512  0.2746  0.9091
 1279SOL    HW1 4938   8.059   0.268   5.136 -0.6738 -0.6977  1.2981
 1279SOL    HW2 4939   8.072   0.417   5.160  2.3083 -1.0595  2.3721
 1280SOL     OW 4940   3.300   5.345   8.210 -0.2666 -0.3026 -0.1374
 1280SOL    HW1 4941   3.326   5.430   8.246 -1.2522  0.2107 -0.5656
 1280SOL    HW2 4942   3.243   5.308   8.278  1.2044 -1.2409  0.6277
 1281SOL     OW 4943   3.414   8.240   2.619  0.3603 -0.4403 -0.1175
 1281SOL    HW1 4944   3.430   8.295   2.695  0.9648 -0.7039 -0.0449
 1281SOL    HW2 4945   3.349   8.287   2.568  1.9016  1.0575 -0.7868
 1282SOL     OW 4946   5.267   5.568   4.849 -0.3357  0.0070 -0.2148
 1282SOL    HW1 4947   5.256   5.473   4.853  1.6973 -0.2562 -0.0650
 1282SOL    HW2 4948   5.218   5.601   4.924  0.9050 -1.1509  1.1572
 1283SOL     OW 4949   7.412   6.877   6.268 -0.9976  0.6240 -0.2952
 1283SOL    HW1 4950   7.454   6.792   6.259 -2.1373  0.1047 -0.8167
 1283SOL    HW2 4951   7.327   6.867   6.227 -0.4659  2.5387 -2.0559
 1284SOL     OW 4952   2.246   4.880   1.448 -0.2150 -0.0499 -0.1712
 1284SOL    HW1 4953   2.307   4.902   1.377 -1.4419 -0.3329 -1.3596
 1284SOL    HW2 4954   2.170   4.843   1.403 -2.1353  2.1183  1.0736
 1285SOL     OW 4955   1.243   0.000   4.866  0.4361 -0.1692  0.3050
 1285SOL    HW1 4956   1.181   0.014   4.938 -0.0482  0.0524 -0.1557
 1285SOL    HW2 4957   1.221  -0.087   4.832 -0.8916  0.6599 -1.0808
 1286SOL     OW 4958   5.869   0.938   5.862  0.3078 -0.5462 -0.7234
 1286SOL    HW1 4959   5.884   0.939   5.767 -0.8774 -0.8032 -0.9223
 1286SOL    HW2 4960   5.877   1.030   5.888  3.6984 -0.7629 -0.5288
 1287SOL     OW 4961   2.639   2.612   7.723 -0.2836  0.5721  0.2150
 1287SOL    HW1 4962   2.618   2.629   7.631 -0.0697  3.3187  0.5970
 1287SOL    HW2 4963   2.734   2.602   7.726 -0.2970  0.4178  0.1506
 1288SOL     OW 4964   2.413   8.415   0.255  0.4637 -0.5317  0.5280
 1288SOL    HW1 4965   2.352   8.360   0.303 -1.1258  0.5792 -0.1143
 1288SOL    HW2 4966   2.493   8.416   0.308  0.1401 -2.4909  1.0995
 1289SOL     OW 4967   2.551   3.001   0.945  0.4918 -0.3529 -0.2098
 1289SOL    HW1 4968   2.621   3.016   0.881  1.7165 -1.5128  0.7828
 1289SOL    HW2 4969   2.486   2.950   0.897 -1.1040  3.0177 -1.9640
 1290SOL     OW 4970   8.002   3.874   5.685 -0.4802  0.1611 -0.5596
 1290SOL    HW1 4971   8.052   3.821   5.747 -0.0436 -0.1416 -1.1535
 1290SOL    HW2 4972   8.018   3.833   5.600 -0.8297  0.7381 -0.9138
 1291SOL     OW 4973   0.375   1.014   2.127 -0.0124 -0.1048  0.4488
 1291SOL    HW1 4974   0.351   0.964   2.049 -1.9781 -0.5244  1.2627
 1291SOL    HW2 4975   0.450   0.966   2.163 -0.1715 -0.9056 -0.2475
 1292SOL     OW 4976   0.554   2.038   1.861 -0.0463 -0.1077 -0.2253
 1292SOL    HW1 4977   0.619   2.085   1.809 -2.4377  2.1692 -1.3801
 1292SOL    HW2 4978   0.540   1.956   1.813  0.2440  0.4494 -1.2919
 1293SOL     OW 4979   6.815   5.138   8.864 -0.3140  0.1677  0.3349
 1293SOL    HW1 4980   6.764   5.165   8.940 -0.8962 -0.0874  0.0475
 1293SOL    HW2 4981   6.780   5.051   8.842  1.5090 -0.8592  1.2512
 1294SOL     OW 4982   7.801   8.990   8.621  0.3108  0.2383  0.0675
 1294SOL    HW1 4983   7.805   8.901   8.586  1.4975  0.5671 -0.7111
 1294SOL    HW2 4984   7.809   8.979   8.716  0.9888 -0.4708 -0.0534
 1295SOL     OW 4985   7.218   5.258   7.525  0.2700 -0.0754 -0.1043
 1295SOL    HW1 4986   7.247   5.303   7.604 -0.7431  1.8177 -0.7351
 1295SOL    HW2 4987   7.293   5.206   7.498  1.8633  1.8815  0.2622
 1296SOL     OW 4988   3.075   0.402   2.798 -0.2126  0.2716 -0.2039
 1296SOL    HW1 4989   3.098   0.394   2.706  1.6615  1.0874  0.1441
 1296SOL    HW2 4990   3.058   0.496   2.810  1.2540  0.4659  0.6029
 1297SOL     OW 4991   7.626   3.831   8.016  0.0271 -0.5136 -0.3388
 1297SOL    HW1 4992   7.698   3.828   7.953 -0.5496 -1.9557 -0.9891
 1297SOL    HW2 4993   7.582   3.914   8.000  3.1089  1.8207  1.9604
 1298SOL     OW 4994   1.033   4.917   5.930 -0.1133 -0.1397  0.2415
 1298SOL    HW1 4995   0.986   4.912   5.846 -1.2064  1.3406  0.7230
 1298SOL    HW2 4996   1.119   4.951   5.907 -0.6092  0.8401 -0.2274
 1299SOL     OW 4997   5.968   6.330   0.198 -0.3808  0.6010 -0.6997
 1299SOL    HW1 4998   6.016   6.375   0.129 -1.3337 -0.4456 -2.1019
 1299SOL    HW2 4999   5.876   6.355   0.184 -0.6194  0.1822  0.0452
 1300SOL     OW 5000   8.560   2.802   6.009  0.0610 -0.3749  0.0960
 1300SOL    HW1 5001   8.521   2.870   6.065  0.8787  1.1651 -1.1173
 1300SOL    HW2 5002   8.560   2.841   5.921  0.4411 -2.0207 -0.6646
 1301SOL     OW 5003   3.683   2.117   8.022 -0.0145 -0.3989 -0.2841
 1301SOL    HW1 5004   3.767   2.162   8.037 -0.3752 -0.0172  0.7192
 1301SOL    HW2 5005   3.708   2.032   7.988  0.8581 -0.6615  0.9043
 1302SOL     OW 5006   5.478   0.165   2.085  0.3217 -0.6017 -0.1873
 1302SOL    HW1 5007   5.563   0.160   2.129 -0.3719 -0.9882  1.1586
 1302SOL    HW2 5008   5.456   0.258   2.087 -0.3269 -0.7570  1.5780
 1303SOL     OW 5009   3.263   4.204   0.228  0.0130 -0.4525 -0.0755
 1303SOL    HW1 5010   3.321   4.131   0.208 -0.0384 -0.2243 -1.1441
 1303SOL    HW2 5011   3.246   4.245   0.143 -0.7259  0.2244  0.3802
 1304SOL     OW 5012   8.191   2.954   4.570  0.1432 -0.3722  0.5123
 1304SOL    HW1 5013   8.133   2.981   4.499  0.8872 -0.7475 -0.2480
 1304SOL    HW2 5014   8.140   2.970   4.649  0.2616  2.5254  0.1037
 1305SOL     OW 5015   5.141   7.884   2.304 -0.1690 -0.0420 -0.1257
 1305SOL    HW1 5016   5.114   7.816   2.243 -0.6983  0.5111 -0.5245
 1305SOL    HW2 5017   5.180   7.952   2.249  0.7514 -0.2085  0.3106
 1306SOL     OW 5018   6.999   7.953   1.619 -0.0362  0.1126 -0.0354
 1306SOL    HW1 5019   6.908   7.955   1.587  0.3106 -1.4347 -1.3046
 1306SOL    HW2 5020   6.991   7.946   1.714 -1.2455  0.2873 -0.1029
 1307SOL     OW 5021   5.208   6.034   3.932  0.7477 -0.2169 -0.4049
 1307SOL    HW1 5022   5.141   5.976   3.896 -0.5658  0.5153  0.7479
 1307SOL    HW2 5023   5.264   5.976   3.984  0.0285 -0.6223 -0.0536
 1308SOL     OW 5024   6.480   8.190   0.251  0.0999  0.6128  0.4821
 1308SOL    HW1 5025   6.498   8.219   0.161 -0.6586  2.7959  0.9665
 1308SOL    HW2 5026   6.545   8.236   0.304 -0.2154  0.2884  1.1561
 1309SOL     OW 5027   3.055   8.829   8.413  0.8787 -0.2437  0.0205
 1309SOL    HW1 5028   3.008   8.809   8.494 -0.2385  0.3168 -0.4559
 1309SOL    HW2 5029   3.069   8.743   8.372 -0.3174 -0.4017 -0.1167
 1310SOL     OW 5030   2.776   4.283   5.862  0.0570  0.0416 -0.0999
 1310SOL    HW1 5031   2.716   4.311   5.793 -1.5724 -1.1255  0.7514
 1310SOL    HW2 5032   2.863   4.293   5.825 -0.6360  1.9375 -1.3465
 1311SOL     OW 5033   3.516   4.815   6.937 -0.3519 -0.0973 -0.2899
 1311SOL    HW1 5034   3.563   4.787   7.015  1.2781 -1.7215 -1.7668
 1311SOL    HW2 5035   3.461   4.740   6.913 -2.5225  1.1581  0.4315
 1312SOL     OW 5036   4.616   6.540   8.010  0.1605 -0.7410  0.2125
 1312SOL    HW1 5037   4.596   6.634   8.014 -0.5146 -0.9159  1.9973
 1312SOL    HW2 5038   4.687   6.533   7.947  1.5707  1.2475  1.4500
 1313SOL     OW 5039   4.758   6.700   6.938 -0.6006 -0.1656  0.5444
 1313SOL    HW1 5040   4.799   6.636   6.880  0.2310  1.5629 -0.8812
 1313SOL    HW2 5041   4.773   6.666   7.026 -0.0037 -1.8002 -0.1487
 1314SOL     OW 5042   5.776   6.411   4.137  0.3286 -0.0651  0.5276
 1314SOL    HW1 5043   5.749   6.365   4.217  0.9431  0.4306  1.0308
 1314SOL    HW2 5044   5.866   6.438   4.155  1.1895 -1.6138 -1.0579
 1315SOL     OW 5045   1.144   3.482   0.403 -0.7323  0.1008 -0.7295
 1315SOL    HW1 5046   1.174   3.434   0.480 -1.2673 -1.1196 -1.2512
 1315SOL    HW2 5047   1.089   3.552   0.438 -1.2345 -0.6442 -0.0097
 1316SOL     OW 5048   0.071   4.282   8.185 -0.0720 -0.4010 -0.7175
 1316SOL    HW1 5049   0.045   4.288   8.277  0.0854  1.1796 -0.7505
 1316SOL    HW2 5050   0.077   4.188   8.168 -0.3332 -0.7223  0.8135
 1317SOL     OW 5051   4.918   4.577   6.813  0.6721  0.6422  0.0921
 1317SOL    HW1 5052   4.988   4.543   6.758  1.4545 -0.7567  1.8307
 1317SOL    HW2 5053   4.838   4.536   6.779  1.2838 -1.0545  0.5816
 1318SOL     OW 5054   1.232   2.304   4.385  0.9349 -0.1202 -0.1037
 1318SOL    HW1 5055   1.184   2.249   4.323  0.1800 -0.2712  0.5930
 1318SOL    HW2 5056   1.307   2.337   4.335 -0.2922  0.7240 -1.4364
 1319SOL     OW 5057   2.682   5.455   5.306 -0.1288 -0.1092  0.0651
 1319SOL    HW1 5058   2.759   5.463   5.362  0.3392  0.5608 -0.6504
 1319SOL    HW2 5059   2.674   5.540   5.263  0.3391 -1.0030 -1.9265
 1320SOL     OW 5060   6.927   0.678   4.307 -0.4334  0.3007  0.0788
 1320SOL    HW1 5061   6.845   0.727   4.313  1.0282  3.1271 -1.0882
 1320SOL    HW2 5062   6.939   0.665   4.213  1.7923  2.6341 -0.0814
 1321SOL     OW 5063   2.534   7.604   3.729  0.6398 -0.7042 -0.0902
 1321SOL    HW1 5064   2.571   7.691   3.717 -1.4072  0.3817  0.8122
 1321SOL    HW2 5065   2.570   7.573   3.812  1.8697 -1.0364 -0.7224
 1322SOL     OW 5066   4.811   7.874   2.426 -0.4521  0.5432  0.4272
 1322SOL    HW1 5067   4.879   7.871   2.493 -0.5604 -0.2422  0.5107
 1322SOL    HW2 5068   4.751   7.942   2.456  0.5796  1.6341  0.0676
 1323SOL     OW 5069   1.429   5.645   2.442  0.2959 -0.2283  0.6905
 1323SOL    HW1 5070   1.490   5.590   2.394  0.4478 -0.5330  1.2263
 1323SOL    HW2 5071   1.479   5.724   2.463 -0.5553  1.1957 -2.0470
 1324SOL     OW 5072   7.903   5.128   4.814  0.3360 -0.5208 -0.3302
 1324SOL    HW1 5073   7.836   5.176   4.862  0.8758  0.3811 -0.4454
 1324SOL    HW2 5074   7.963   5.096   4.883 -0.3164 -1.5142 -0.2108
 1325SOL     OW 5075   4.981   3.913   0.489 -0.1183  0.1553 -0.1185
 1325SOL    HW1 5076   4.952   3.827   0.522  0.9917 -0.1200  0.1652
 1325SOL    HW2 5077   5.021   3.894   0.405  2.3411  0.0148  1.0161
 1326SOL     OW 5078   7.704   8.430   7.458  0.1652  0.0391 -0.0497
 1326SOL    HW1 5079   7.687   8.516   7.496 -0.1840 -0.1281  0.1769
 1326SOL    HW2 5080   7.629   8.412   7.402  0.7068  0.3060 -0.8680
 1327SOL     OW 5081   7.159   6.792   5.143 -0.2133  0.1262  0.7641
 1327SOL    HW1 5082   7.168   6.870   5.198 -2.3438  0.1917  1.1388
 1327SOL    HW2 5083   7.214   6.727   5.185 -1.4934  0.2845  2.8590
 1328SOL     OW 5084   5.426   3.732   5.622 -0.1622 -0.0830  0.1735
 1328SOL    HW1 5085   5.348   3.704   5.574 -0.2863 -0.5800  0.6633
 1328SOL    HW2 5086   5.392   3.788   5.692  0.0747  1.2843 -0.7556
 1329SOL     OW 5087   3.538   5.865   6.237 -0.4552  0.0290 -0.4082
 1329SOL    HW1 5088   3.526   5.796   6.172 -0.4417  0.7063 -1.1411
 1329SOL    HW2 5089   3.582   5.936   6.189 -0.0032  0.3512  0.4553
 1330SOL     OW 5090   2.848   8.621   5.010  1.2067  0.3177 -0.2472
 1330SOL    HW1 5091   2.828   8.696   4.955 -0.1575  0.8919  0.9574
 1330SOL    HW2 5092   2.786   8.553   4.982  0.7993  0.4690  0.2694
 1331SOL     OW 5093   1.463   1.069   8.917 -0.0484 -0.1252 -0.2130
 1331SOL    HW1 5094   1.412   1.138   8.876 -1.1632  0.4546  2.0130
 1331SOL    HW2 5095   1.534   1.115   8.963 -0.4036 -0.4895  0.7303
 1332SOL     OW 5096   8.005   5.288   7.346  0.1229  0.2817  0.2993
 1332SOL    HW1 5097   7.961   5.277   7.262  4.1592  0.7790 -2.1365
 1332SOL    HW2 5098   7.934   5.305   7.408 -3.0995 -0.1392 -2.9185
 1333SOL     OW 5099   4.408   0.519   4.783  0.0628  0.6697  0.0310
 1333SOL    HW1 5100   4.452   0.465   4.717  1.1505  2.6312 -0.9409
 1333SOL    HW2 5101   4.315   0.510   4.763  0.1188 -1.4984  0.4831
 1334SOL     OW 5102   2.559   5.639   0.218  0.1183  0.7337 -0.1928
 1334SOL    HW1 5103   2.594   5.658   0.131  0.5590 -2.3643 -0.7997
 1334SOL    HW2 5104   2.468   5.614   0.202  0.2607 -0.0484  0.1924
 1335SOL     OW 5105   2.339   3.053   5.190 -0.0942 -0.0089 -0.0120
 1335SOL    HW1 5106   2.288   2.997   5.132 -1.3877  0.5206  0.5650
 1335SOL    HW2 5107   2.382   2.993   5.251 -1.3835 -0.4179  0.5334
 1336SOL     OW 5108   5.452   4.835   8.436 -0.0941  0.1951 -0.4642
 1336SOL    HW1 5109   5.495   4.878   8.511 -1.7436  1.9184 -0.4287
 1336SOL    HW2 5110   5.515   4.769   8.408  1.9390  1.5948  0.4861
 1337SOL     OW 5111   5.454   7.895   6.806  0.3267  0.1804 -0.0179
 1337SOL    HW1 5112   5.395   7.904   6.881 -0.1089 -0.0922 -0.3230
 1337SOL    HW2 5113   5.538   7.931   6.837 -0.2039  1.3193  0.1674
 1338SOL     OW 5114   2.313   9.080   6.883 -0.2838 -0.4390 -0.0941
 1338SOL    HW1 5115   2.381   9.033   6.835 -0.0263 -0.9601  0.7576
 1338SOL    HW2 5116   2.235   9.026   6.873 -0.3559 -0.2910 -0.3381
 1339SOL     OW 5117   8.053   4.323   8.824 -0.6012 -0.3120 -0.2186
 1339SOL    HW1 5118   8.019   4.311   8.913  0.1140 -0.8468 -0.0063
 1339SOL    HW2 5119   8.028   4.412   8.800 -2.4689 -0.7972 -0.2241
 1340SOL     OW 5120   3.451   5.303   3.978 -0.3239  0.3964  0.0955
 1340SOL    HW1 5121   3.443   5.262   3.892 -1.5284 -0.1140  0.4304
 1340SOL    HW2 5122   3.433   5.396   3.963  1.1932  0.6249 -0.4671
 1341SOL     OW 5123   0.188   6.791   6.872 -0.0959 -0.2736  0.3915
 1341SOL    HW1 5124   0.251   6.812   6.803  0.7351  0.9567  1.4712
 1341SOL    HW2 5125   0.102   6.805   6.831  0.3744  0.6057 -0.3536
 1342SOL     OW 5126   4.106   2.433   2.274 -0.2500 -0.0286  0.0441
 1342SOL    HW1 5127   4.150   2.348   2.270  0.8288  0.4739  0.8899
 1342SOL    HW2 5128   4.039   2.422   2.342 -1.4129 -0.7527 -1.1591
 1343SOL     OW 5129   5.067   4.978   6.497  0.7585 -0.3472  0.4266
 1343SOL    HW1 5130   5.055   5.009   6.587 -1.1475 -1.1796  0.5148
 1343SOL    HW2 5131   4.979   4.957   6.467  1.2751  0.5227 -1.8967
 1344SOL     OW 5132   2.163   1.531   8.221  0.2291  0.2069 -0.0665
 1344SOL    HW1 5133   2.068   1.538   8.211  0.2265 -0.0617 -0.2158
 1344SOL    HW2 5134   2.185   1.444   8.189  0.5008  0.1878  0.1669
 1345SOL     OW 5135   2.675   5.228   8.678  0.6793 -0.3432  0.0961
 1345SOL    HW1 5136   2.617   5.172   8.730 -0.3700  0.7204  0.1201
 1345SOL    HW2 5137   2.683   5.308   8.730  0.3751  0.3761 -0.9409
 1346SOL     OW 5138   3.414   4.898   5.048  0.4015 -0.1230 -0.1639
 1346SOL    HW1 5139   3.467   4.978   5.053  1.0326 -0.5562  0.1841
 1346SOL    HW2 5140   3.461   4.842   4.987 -0.3144 -0.0427 -0.8139
 1347SOL     OW 5141   3.436   7.962   2.928  0.0554 -0.0274  0.1661
 1347SOL    HW1 5142   3.355   7.974   2.978 -0.5931 -0.9543 -0.6188
 1347SOL    HW2 5143   3.436   8.034   2.865 -0.8010 -0.6942 -0.6304
 1348SOL     OW 5144   2.343   6.835   7.233  0.1516  0.8426 -0.0622
 1348SOL    HW1 5145   2.295   6.760   7.197  0.8412 -0.1808  1.0498
 1348SOL    HW2 5146   2.434   6.819   7.208  0.4713  0.7011  1.0914
 1349SOL     OW 5147   0.669   3.347   4.272 -0.3541 -0.0678 -0.4664
 1349SOL    HW1 5148   0.741   3.302   4.317 -1.4815 -0.9099  0.5571
 1349SOL    HW2 5149   0.712   3.411   4.216  1.1993 -0.6501  0.0127
 1350SOL     OW 5150   8.835   2.178   5.647 -0.1785 -0.1158 -0.8233
 1350SOL    HW1 5151   8.800   2.267   5.642 -1.4368 -0.5511 -0.0201
 1350SOL    HW2 5152   8.784   2.128   5.584  0.2919 -0.3654 -1.0170
 1351SOL     OW 5153   2.749   4.887   1.298  0.6484  0.4886 -0.1566
 1351SOL    HW1 5154   2.658   4.857   1.296  0.2368  1.7064 -0.6778
 1351SOL    HW2 5155   2.751   4.956   1.364  1.2157  0.4073 -0.0809
 1352SOL     OW 5156   5.971   7.841   1.583 -0.0995 -0.0443  0.1035
 1352SOL    HW1 5157   5.948   7.790   1.661 -1.2609  1.2979  0.6843
 1352SOL    HW2 5158   6.061   7.816   1.564 -0.6678 -2.5163  0.1781
 1353SOL     OW 5159   8.905   7.967   0.941 -0.4696  0.4294 -0.0007
 1353SOL    HW1 5160   8.898   7.956   1.036 -1.9656 -0.9394 -0.2175
 1353SOL    HW2 5161   8.835   8.029   0.919  1.1308  2.3194 -0.0351
 1354SOL     OW 5162   4.641   3.778   4.244 -0.2845  0.1428  0.2763
 1354SOL    HW1 5163   4.690   3.792   4.162 -2.5410  1.0138 -1.0069
 1354SOL    HW2 5164   4.676   3.843   4.304  0.8273  0.0647 -0.2476
 1355SOL     OW 5165   8.619   6.019   3.084  0.0331 -0.1128 -0.2204
 1355SOL    HW1 5166   8.691   6.045   3.027 -0.6017  1.1872 -0.4928
 1355SOL    HW2 5167   8.617   6.087   3.152  0.6233 -1.5051  1.2338
 1356SOL     OW 5168   8.464   0.455   6.392 -0.4891  0.0345  0.1507
 1356SOL    HW1 5169   8.448   0.501   6.475  0.6305 -1.9925  1.5754
 1356SOL    HW2 5170   8.513   0.518   6.339  0.8407  0.6090  1.9542
 1357SOL     OW 5171   8.277   1.845   8.680  0.2042 -0.5337  0.0884
 1357SOL    HW1 5172   8.192   1.888   8.690  0.3627  0.7719 -3.1144
 1357SOL    HW2 5173   8.338   1.900   8.729 -0.0496  1.5011 -1.7420
 1358SOL     OW 5174   5.428   7.163   9.048  0.3345 -0.0213 -0.2306
 1358SOL    HW1 5175   5.432   7.150   9.142  1.7828 -0.5468 -0.3356
 1358SOL    HW2 5176   5.491   7.100   9.012  0.2700  0.5932 -1.4987
 1359SOL     OW 5177   5.303   6.514   8.176 -0.4830 -0.1984  0.5440
 1359SOL    HW1 5178   5.325   6.421   8.175 -0.3001 -0.2606  3.2190
 1359SOL    HW2 5179   5.208   6.516   8.163 -0.2289 -0.5277 -1.8684
 1360SOL     OW 5180   7.901   1.301   3.048 -0.4180 -0.6873 -0.2499
 1360SOL    HW1 5181   7.986   1.259   3.033 -0.2140  0.1564 -1.6271
 1360SOL    HW2 5182   7.902   1.324   3.141  1.8300  1.3013 -0.6532
 1361SOL     OW 5183   5.596   2.850   3.634 -0.2217  0.2399  1.1047
 1361SOL    HW1 5184   5.667   2.815   3.581 -1.1860 -0.6668  0.3676
 1361SOL    HW2 5185   5.625   2.937   3.660  0.4197  0.5638 -0.6198
 1362SOL     OW 5186   2.585   8.342   5.686  0.1115 -0.1044  0.6276
 1362SOL    HW1 5187   2.551   8.432   5.691  0.9524  0.3027 -0.6621
 1362SOL    HW2 5188   2.678   8.352   5.665  0.5091 -1.2669  1.6974
 1363SOL     OW 5189   3.875   4.028   5.787 -0.1467  0.1044  0.8324
 1363SOL    HW1 5190   3.956   3.981   5.769  1.1198  2.6045 -0.5866
 1363SOL    HW2 5191   3.897   4.084   5.862 -1.1517 -0.4427  1.5602
 1364SOL     OW 5192   3.689   5.514   1.386  0.1865  0.3075  0.0144
 1364SOL    HW1 5193   3.723   5.541   1.300 -0.0231 -0.1202 -0.2024
 1364SOL    HW2 5194   3.741   5.437   1.408  0.7447  0.8397  0.6106
 1365SOL     OW 5195   3.959   3.312   4.105  0.5099 -0.0987 -0.5075
 1365SOL    HW1 5196   3.911   3.327   4.186  3.2204  0.1162  1.2114
 1365SOL    HW2 5197   3.960   3.397   4.062  0.9959  0.4132  0.4589
 1366SOL     OW 5198   2.449   0.668   0.680 -0.7591  0.2778 -0.1420
 1366SOL    HW1 5199   2.501   0.748   0.673  0.9851 -0.9500 -2.7203
 1366SOL    HW2 5200   2.365   0.690   0.640 -1.1058  1.3621  1.1073
 1367SOL     OW 5201   1.888   6.119   8.684  0.1704  0.1907 -0.5005
 1367SOL    HW1 5202   1.889   6.044   8.625  0.1309 -1.0382  0.9796
 1367SOL    HW2 5203   1.860   6.193   8.630  1.8365 -0.4904 -2.3988
 1368SOL     OW 5204   3.511   6.966   4.403 -0.6132  0.5320 -0.0231
 1368SOL    HW1 5205   3.491   7.054   4.433 -0.9263  0.2383  0.6533
 1368SOL    HW2 5206   3.590   6.941   4.451 -2.1688 -0.6580  2.0850
 1369SOL     OW 5207   5.072   4.125   9.048 -0.1221  0.4182  0.1529
 1369SOL    HW1 5208   5.139   4.083   9.102 -0.9479 -1.8856 -0.4752
 1369SOL    HW2 5209   5.107   4.211   9.028  1.3587  0.3474  2.1825
 1370SOL     OW 5210   0.524   8.041   4.279  0.3106 -0.5025  0.1271
 1370SOL    HW1 5211   0.524   7.952   4.315 -0.1851 -0.2973  0.6587
 1370SOL    HW2 5212   0.459   8.037   4.208 -1.5473 -0.0001  1.6952
 1371SOL     OW 5213   4.180   2.745   3.607 -0.0431 -0.2227  0.0380
 1371SOL    HW1 5214   4.250   2.727   3.669 -0.1489  0.4767  0.3636
 1371SOL    HW2 5215   4.221   2.802   3.541 -1.0075  2.7295  1.8101
 1372SOL     OW 5216   0.778   7.492   4.226  0.2980  0.3581 -0.2657
 1372SOL    HW1 5217   0.850   7.548   4.198  1.5070 -0.2900  1.4526
 1372SOL    HW2 5218   0.763   7.433   4.151  0.6928  1.3098 -1.1112
 1373SOL     OW 5219   7.552   0.333   6.030  0.0623 -0.0244 -0.0070
 1373SOL    HW1 5220   7.490   0.345   5.959  2.1731 -0.8172 -2.1197
 1373SOL    HW2 5221   7.575   0.422   6.057 -1.1050  0.2791  0.0545
 1374SOL     OW 5222   1.154   1.020   1.331 -0.2216 -0.1750 -0.1819
 1374SOL    HW1 5223   1.163   0.958   1.403 -0.4218 -0.6032 -0.5201
 1374SOL    HW2 5224   1.204   1.096   1.359  0.4516 -0.6829  0.0201
 1375SOL     OW 5225   5.132   4.164   7.037  0.4608 -0.2237  0.0560
 1375SOL    HW1 5226   5.209   4.211   7.004  1.3834  0.2579  2.6378
 1375SOL    HW2 5227   5.095   4.223   7.103 -0.0640 -1.8925  1.3270
 1376SOL     OW 5228   8.187   2.319   2.595  0.3895 -0.5786  0.3893
 1376SOL    HW1 5229   8.102   2.337   2.634 -0.2262  0.3948 -1.2932
 1376SOL    HW2 5230   8.248   2.373   2.645 -0.5201  1.4221 -0.5388
 1377SOL     OW 5231   0.312   1.216   4.664  0.0508 -0.0183 -0.1983
 1377SOL    HW1 5232   0.217   1.202   4.661 -0.3383  1.4341  2.2255
 1377SOL    HW2 5233   0.349   1.128   4.661 -1.3405 -0.6160 -1.2150
 1378SOL     OW 5234   8.389   4.897   9.091  0.0188  0.4199 -0.0460
 1378SOL    HW1 5235   8.397   4.844   9.170  0.4501  1.5485  0.6965
 1378SOL    HW2 5236   8.479   4.910   9.062 -0.1882 -1.0045 -1.4564
 1379SOL     OW 5237   1.384   7.832   2.023  0.1766  0.5315 -0.0906
 1379SOL    HW1 5238   1.310   7.801   2.075  0.1403 -0.3044 -0.6246
 1379SOL    HW2 5239   1.382   7.778   1.944  1.4340  0.3965 -0.0544
 1380SOL     OW 5240   8.224   5.641   5.817  0.0886  0.4293 -0.2962
 1380SOL    HW1 5241   8.238   5.698   5.892  1.3870 -0.2144 -0.0257
 1380SOL    HW2 5242   8.285   5.568   5.829 -0.6889 -0.4269 -1.2395
 1381SOL     OW 5243   8.361   9.068   6.291 -0.7937  0.9205 -0.4682
 1381SOL    HW1 5244   8.408   9.127   6.350  1.7778 -2.2026  0.8877
 1381SOL    HW2 5245   8.392   9.093   6.203  1.3801  0.7151  0.1941
 1382SOL     OW 5246   7.454   1.542   0.182 -0.6078 -0.2254  0.4128
 1382SOL    HW1 5247   7.457   1.637   0.169  0.8985 -0.3995 -0.7421
 1382SOL    HW2 5248   7.501   1.527   0.264 -3.2025  0.1977  2.1001
 1383SOL     OW 5249   2.916   4.104   3.159  0.5749 -0.2102  0.3126
 1383SOL    HW1 5250   3.004   4.069   3.147  0.4680 -0.3554 -0.0303
 1383SOL    HW2 5251   2.907   4.113   3.254  0.6341 -1.0229  0.4024
 1384SOL     OW 5252   0.741   0.937   2.500  0.2110  0.5650 -0.1126
 1384SOL    HW1 5253   0.655   0.945   2.458  0.9985  1.9055 -1.6127
 1384SOL    HW2 5254   0.791   1.012   2.465  2.2173 -0.5935  0.1318
 1385SOL     OW 5255   4.479   0.113   5.308 -0.5676  0.1862  0.5183
 1385SOL    HW1 5256   4.472   0.159   5.391 -0.5847  0.3356  0.4342
 1385SOL    HW2 5257   4.521   0.029   5.330 -1.5646 -0.2445  0.8510
 1386SOL     OW 5258   4.194   5.674   7.711 -0.3456  0.1679  0.5145
 1386SOL    HW1 5259   4.278   5.710   7.738  0.9264 -2.3184  0.2022
 1386SOL    HW2 5260   4.208   5.644   7.621 -1.8464  0.4841  0.1461
 1387SOL     OW 5261   6.974   0.301   2.019 -0.4456 -0.1464 -0.2044
 1387SOL    HW1 5262   7.014   0.336   2.098  1.1395 -0.8423 -0.6630
 1387SOL    HW2 5263   7.034   0.325   1.948 -2.0449  0.8438 -1.2928
 1388SOL     OW 5264   7.151   8.839   0.987  0.1493 -0.3209  0.0588
 1388SOL    HW1 5265   7.217   8.905   1.007  0.9410 -0.9204 -0.5667
 1388SOL    HW2 5266   7.068   8.886   0.995  0.5670  0.1631  1.9579
 1389SOL     OW 5267   1.225   8.073   0.119 -0.5432  0.2023 -0.1608
 1389SOL    HW1 5268   1.159   8.084   0.187  1.2445  0.2872  1.6453
 1389SOL    HW2 5269   1.273   8.155   0.118  1.0306 -0.6740  0.2545
 1390SOL     OW 5270   3.496   8.215   7.625  0.2946 -0.1077  0.4325
 1390SOL    HW1 5271   3.402   8.213   7.641  0.4776  0.7039  1.7826
 1390SOL    HW2 5272   3.510   8.294   7.573  0.3387  0.3245  1.0950
 1391SOL     OW 5273   7.233   0.335   2.224 -0.1418 -0.0956  0.5332
 1391SOL    HW1 5274   7.310   0.280   2.205  0.8927  0.9609  1.4768
 1391SOL    HW2 5275   7.268   0.424   2.228 -1.4845  0.4445  0.6883
 1392SOL     OW 5276   5.207   1.638   8.888 -0.0694 -0.2298 -0.5923
 1392SOL    HW1 5277   5.145   1.595   8.947  0.3105 -0.7948 -0.6024
 1392SOL    HW2 5278   5.171   1.726   8.876 -0.1695 -0.1138  0.4592
 1393SOL     OW 5279   1.549   2.944   3.295 -0.3124  0.0681 -0.1433
 1393SOL    HW1 5280   1.496   2.991   3.231  0.2064 -1.0790 -1.4357
 1393SOL    HW2 5281   1.630   2.995   3.301 -0.1739 -0.0740 -0.7563
 1394SOL     OW 5282   8.044   4.417   7.848  0.7875  0.0363  0.4832
 1394SOL    HW1 5283   8.005   4.330   7.853  1.6597 -0.3182  1.5947
 1394SOL    HW2 5284   7.990   4.471   7.905  0.1797  0.2649 -0.2932
 1395SOL     OW 5285   1.535   8.936   1.885 -0.0400 -0.6350 -0.6049
 1395SOL    HW1 5286   1.573   8.888   1.812  1.8997  1.8742 -1.3936
 1395SOL    HW2 5287   1.601   8.929   1.955  0.4411  1.0312 -0.8463
 1396SOL     OW 5288   3.543   6.384   0.759  0.0461  0.7438 -0.0531
 1396SOL    HW1 5289   3.602   6.454   0.786 -0.7146  0.4259  2.7583
 1396SOL    HW2 5290   3.599   6.307   0.750  0.2121  0.5548  2.1273
 1397SOL     OW 5291   5.516   4.683   6.046 -0.2460 -0.1671  0.4333
 1397SOL    HW1 5292   5.471   4.708   6.127 -0.4516 -2.4992  1.1386
 1397SOL    HW2 5293   5.446   4.660   5.985 -0.0815  1.2941 -0.3252
 1398SOL     OW 5294   0.271   0.342   6.195 -0.6827 -0.1198  0.5342
 1398SOL    HW1 5295   0.347   0.303   6.239 -0.8492  0.5063  1.3979
 1398SOL    HW2 5296   0.200   0.281   6.213 -0.3483 -0.8206 -0.4619
 1399SOL     OW 5297   7.474   9.006   8.302 -0.0399 -0.2533  0.9075
 1399SOL    HW1 5298   7.461   8.954   8.222 -0.8266  0.5698  0.4766
 1399SOL    HW2 5299   7.566   8.995   8.323  0.5372  0.6153 -0.9340
 1400SOL     OW 5300   6.722   6.052   8.122  0.2592 -0.2229  0.1378
 1400SOL    HW1 5301   6.647   6.110   8.107  1.2347  0.9595 -0.3901
 1400SOL    HW2 5302   6.789   6.109   8.160  1.1978 -1.0467 -0.2320
 1401SOL     OW 5303   1.642   3.278   2.414  0.6497  0.3375 -0.6208
 1401SOL    HW1 5304   1.638   3.284   2.319 -0.1990 -1.1220 -0.7048
 1401SOL    HW2 5305   1.670   3.188   2.431  0.9516  0.6303  0.5053
 1402SOL     OW 5306   3.680   3.846   9.058 -0.0810  0.0822  0.4282
 1402SOL    HW1 5307   3.586   3.831   9.047 -0.0290  0.4722 -0.6164
 1402SOL    HW2 5308   3.704   3.792   9.134 -1.0737 -0.3052  0.4785
 1403SOL     OW 5309   7.703   1.943   9.006 -0.1022 -0.2113  0.2945
 1403SOL    HW1 5310   7.717   2.036   9.022  0.6016 -0.0698 -0.9921
 1403SOL    HW2 5311   7.734   1.901   9.086  2.1415  0.5241 -0.1092
 1404SOL     OW 5312   4.814   1.190   0.048 -0.1525 -0.1741  1.0631
 1404SOL    HW1 5313   4.900   1.163   0.018 -1.5186 -1.7114 -1.8962
 1404SOL    HW2 5314   4.777   1.112   0.090 -1.2265 -0.6285 -0.6016
 1405SOL     OW 5315   4.675   5.328   6.137  0.6371 -0.1638  0.0438
 1405SOL    HW1 5316   4.719   5.244   6.133  0.7192 -0.1294  0.2115
 1405SOL    HW2 5317   4.747   5.392   6.144  0.5970 -0.0462 -0.5818
 1406SOL     OW 5318   2.563   4.686   9.025 -0.0912 -0.6121 -0.4705
 1406SOL    HW1 5319   2.511   4.765   9.035  2.6714  1.2750  0.1445
 1406SOL    HW2 5320   2.551   4.639   9.107 -0.6621 -0.1389 -0.2743
 1407SOL     OW 5321   5.259   6.041   1.160 -0.1608  0.0109 -0.2740
 1407SOL    HW1 5322   5.303   6.110   1.111  0.1730  1.7513  2.2986
 1407SOL    HW2 5323   5.167   6.047   1.134 -0.0413  1.0602 -0.4866
 1408SOL     OW 5324   5.743   6.867   2.180  0.2675  0.2065 -0.0778
 1408SOL    HW1 5325   5.774   6.885   2.269  0.0734  0.9392 -0.1475
 1408SOL    HW2 5326   5.815   6.896   2.124 -0.4571  1.8494 -0.2377
 1409SOL     OW 5327   0.942   2.528   2.852 -0.5435 -0.2788 -0.0046
 1409SOL    HW1 5328   1.033   2.548   2.870 -0.8756  0.9979  0.3861
 1409SOL    HW2 5329   0.945   2.458   2.787  0.6877 -1.7228  1.5227
 1410SOL     OW 5330   2.022   1.514   1.044 -0.1719 -1.1158 -0.4344
 1410SOL    HW1 5331   1.940   1.498   0.999 -0.0840 -1.9519 -0.3232
 1410SOL    HW2 5332   2.061   1.427   1.053 -0.6625 -1.1525  2.1421
 1411SOL     OW 5333   7.695   9.034   4.501 -0.1158  0.1313 -0.2653
 1411SOL    HW1 5334   7.660   9.121   4.483  1.3734  1.0172  0.9528
 1411SOL    HW2 5335   7.779   9.031   4.455  0.5198 -0.1016  0.8718
 1412SOL     OW 5336   2.865   7.211   4.369  0.5674  0.0749 -0.1654
 1412SOL    HW1 5337   2.945   7.253   4.400 -0.4529  1.7435  0.3337
 1412SOL    HW2 5338   2.833   7.162   4.444  0.0178  1.1680  0.3458
 1413SOL     OW 5339   5.893   7.973   2.278 -0.4774 -0.6334  0.1221
 1413SOL    HW1 5340   5.916   7.986   2.186 -1.6033 -1.2436 -0.2644
 1413SOL    HW2 5341   5.848   8.053   2.304  0.9823  0.0867  0.5491
 1414SOL     OW 5342   4.851   6.749   0.713 -0.0850  0.2467 -0.6104
 1414SOL    HW1 5343   4.800   6.747   0.632 -0.1270  0.4737 -0.5884
 1414SOL    HW2 5344   4.821   6.672   0.762  0.2282 -0.1168 -0.9860
 1415SOL     OW 5345   1.646   2.282   6.561  0.0648  0.2359 -0.6465
 1415SOL    HW1 5346   1.596   2.220   6.508 -1.1941 -1.2158  1.9934
 1415SOL    HW2 5347   1.594   2.363   6.559 -0.5820 -0.1723 -0.6904
 1416SOL     OW 5348   1.393   7.972   2.939 -0.5093 -0.1007  0.6475
 1416SOL    HW1 5349   1.298   7.982   2.949 -0.8794 -1.3755 -1.0529
 1416SOL    HW2 5350   1.403   7.893   2.886  1.5351 -0.1982  1.0988
 1417SOL     OW 5351   4.569   2.350   1.468  0.0549 -0.4887 -0.2739
 1417SOL    HW1 5352   4.558   2.270   1.417  1.4296 -0.4492 -0.6812
 1417SOL    HW2 5353   4.620   2.407   1.412 -1.9148  1.1829 -0.4843
 1418SOL     OW 5354   5.763   4.299   0.826  0.3325 -0.5712  0.4144
 1418SOL    HW1 5355   5.799   4.273   0.911 -0.5437  0.6386  1.1756
 1418SOL    HW2 5356   5.838   4.297   0.767  1.5352  1.2046  1.8097
 1419SOL     OW 5357   1.584   8.329   8.607 -0.1080 -0.1103 -0.2122
 1419SOL    HW1 5358   1.660   8.283   8.574  0.0311  0.4669 -0.7122
 1419SOL    HW2 5359   1.602   8.422   8.589 -0.1327  0.2082  1.2506
 1420SOL     OW 5360   5.360   2.125   0.195 -0.5982 -0.0492 -0.1767
 1420SOL    HW1 5361   5.311   2.068   0.254  0.2886 -2.2201 -1.4218
 1420SOL    HW2 5362   5.319   2.112   0.109 -0.0165  0.7630 -0.5881
 1421SOL     OW 5363   3.104   6.634   2.259  0.3291 -0.5701 -0.0880
 1421SOL    HW1 5364   3.074   6.697   2.193  0.1001  1.0085  1.4469
 1421SOL    HW2 5365   3.196   6.620   2.238  0.6139  0.9514  0.0010
 1422SOL     OW 5366   6.781   7.181   5.345  0.0961  0.4096 -0.2263
 1422SOL    HW1 5367   6.744   7.107   5.393  0.5566 -0.9657 -1.8938
 1422SOL    HW2 5368   6.854   7.210   5.399 -0.7016  0.3277  0.9422
 1423SOL     OW 5369   0.900   4.561   8.735  0.3594 -0.0142 -0.2022
 1423SOL    HW1 5370   0.897   4.625   8.664  0.8050  0.2841  0.0394
 1423SOL    HW2 5371   0.988   4.526   8.732  0.7145  0.7286  0.8191
 1424SOL     OW 5372   3.109   1.593   1.961 -0.0533 -0.3707  0.2890
 1424SOL    HW1 5373   3.106   1.666   2.024  3.3239 -0.9952  1.3580
 1424SOL    HW2 5374   3.058   1.524   2.003 -1.0025  0.4497  0.5348
 1425SOL     OW 5375   3.264   5.432   2.656  0.0243  0.0449  0.3723
 1425SOL    HW1 5376   3.356   5.460   2.660  0.2033 -0.1011 -1.5074
 1425SOL    HW2 5377   3.214   5.513   2.648 -0.0626  0.1448  1.7620
 1426SOL     OW 5378   8.998   3.833   8.885 -0.3326 -0.5616  0.2308
 1426SOL    HW1 5379   8.945   3.909   8.910  0.4058  0.2148 -0.4969
 1426SOL    HW2 5380   8.937   3.773   8.843 -1.0030 -0.5658  1.1696
 1427SOL     OW 5381   0.195   4.909   7.975  0.3270 -0.4411 -0.3294
 1427SOL    HW1 5382   0.180   4.999   8.005  1.7611  0.1144 -1.1997
 1427SOL    HW2 5383   0.174   4.855   8.051  0.3707  0.6928  0.5132
 1428SOL     OW 5384   1.389   2.981   4.607 -0.8141  0.1709  0.0085
 1428SOL    HW1 5385   1.307   3.028   4.625 -0.2008  0.7081  1.5132
 1428SOL    HW2 5386   1.443   3.044   4.561 -0.9869  0.0381 -0.3810
 1429SOL     OW 5387   1.332   4.586   4.080 -0.6239 -0.0254 -0.3779
 1429SOL    HW1 5388   1.397   4.647   4.116 -1.5278  1.5254 -1.2735
 1429SOL    HW2 5389   1.266   4.578   4.149 -0.7553  0.4427 -0.4409
 1430SOL     OW 5390   3.977   1.345   4.157  0.0823  0.5596  0.1400
 1430SOL    HW1 5391   4.065   1.323   4.188  0.1876  1.4288  0.4857
 1430SOL    HW2 5392   3.930   1.373   4.236 -0.5298  0.0406 -0.0333
 1431SOL     OW 5393   2.017   8.211   6.315  0.7710  0.4854 -0.8881
 1431SOL    HW1 5394   2.013   8.122   6.280  1.6355 -0.4425  1.2122
 1431SOL    HW2 5395   2.074   8.205   6.391 -2.9944  1.7116  2.4149
 1432SOL     OW 5396   2.089   0.936   1.264 -0.3309  0.4899  0.1820
 1432SOL    HW1 5397   2.173   0.922   1.308 -1.0046 -0.2539  1.2718
 1432SOL    HW2 5398   2.052   0.849   1.252 -0.9967  0.8136 -0.2122
 1433SOL     OW 5399   6.290   1.164   8.143  0.1527 -0.0493  0.2221
 1433SOL    HW1 5400   6.235   1.103   8.093  0.6779 -1.1279  0.9045
 1433SOL    HW2 5401   6.356   1.193   8.080  0.3467 -0.7853  0.0668
 1434SOL     OW 5402   5.895   4.528   5.900 -0.0360  0.9116  0.2335
 1434SOL    HW1 5403   5.971   4.544   5.957 -1.1172 -1.3767  2.4863
 1434SOL    HW2 5404   5.928   4.468   5.833 -0.0374 -0.9361  1.8271
 1435SOL     OW 5405   1.434   6.286   4.569  0.3783  0.4758 -0.0871
 1435SOL    HW1 5406   1.479   6.362   4.605  0.5121  0.7713 -0.8620
 1435SOL    HW2 5407   1.342   6.313   4.564 -0.0153 -0.2864  1.9260
 1436SOL     OW 5408   2.035   8.781   3.936  0.2510 -0.2935  0.1216
 1436SOL    HW1 5409   2.085   8.835   3.997  0.2869  0.1672 -0.3086
 1436SOL    HW2 5410   1.995   8.843   3.876  0.7270 -0.7734 -0.7097
 1437SOL     OW 5411   7.473   7.719   7.286  0.2943  0.0985 -0.3460
 1437SOL    HW1 5412   7.545   7.707   7.348 -0.4610  1.5417  0.8997
 1437SOL    HW2 5413   7.403   7.662   7.319 -0.4487  1.5741  0.7852
 1438SOL     OW 5414   7.370   1.668   0.908  0.1744  0.5698 -0.1035
 1438SOL    HW1 5415   7.445   1.614   0.932  0.0638  0.1856 -0.5901
 1438SOL    HW2 5416   7.367   1.737   0.974  0.2948 -0.0492  0.5675
 1439SOL     OW 5417   4.497   3.511   8.462 -0.2688 -0.5014  0.6126
 1439SOL    HW1 5418   4.424   3.457   8.491 -2.0925  0.7155 -1.4349
 1439SOL    HW2 5419   4.487   3.593   8.511 -1.0908  0.1468 -0.6075
 1440SOL     OW 5420   3.677   0.777   7.671  0.0506 -0.3548 -0.1661
 1440SOL    HW1 5421   3.772   0.762   7.671  0.2899  1.0254 -0.2010
 1440SOL    HW2 5422   3.639   0.690   7.667  1.3215 -0.9420  0.0481
 1441SOL     OW 5423   8.850   3.058   2.734 -0.0799  0.0645  0.2357
 1441SOL    HW1 5424   8.874   2.991   2.799  0.4706 -0.2680 -0.2947
 1441SOL    HW2 5425   8.792   3.012   2.673  1.5999 -0.4470 -1.0775
 1442SOL     OW 5426   0.354   1.957   7.932 -0.2663  0.5212 -0.6102
 1442SOL    HW1 5427   0.338   2.045   7.898 -0.4355  0.0219 -1.8623
 1442SOL    HW2 5428   0.297   1.900   7.880  0.9748 -0.5185 -0.8736
 1443SOL     OW 5429   8.950   2.948   6.157  0.2389  0.0730  0.4227
 1443SOL    HW1 5430   8.885   2.956   6.087 -0.6953 -1.4189  1.0536
 1443SOL    HW2 5431   8.900   2.960   6.238  1.4771  2.8066  0.8933
 1444SOL     OW 5432   7.606   2.393   1.289 -0.3894  0.8162 -0.1592
 1444SOL    HW1 5433   7.694   2.370   1.260 -0.3876  0.1000  0.4064
 1444SOL    HW2 5434   7.619   2.456   1.359 -0.2778 -0.2027  0.7566
 1445SOL     OW 5435   8.528   3.681   5.211  0.4825  0.7235 -0.1720
 1445SOL    HW1 5436   8.443   3.663   5.252  0.1194 -0.1760 -1.2389
 1445SOL    HW2 5437   8.506   3.710   5.123  1.2735  0.8456 -0.3349
 1446SOL     OW 5438   5.846   8.891   2.035 -0.3337 -0.1239 -0.6117
 1446SOL    HW1 5439   5.804   8.878   1.950 -0.4453  0.1235 -0.5950
 1446SOL    HW2 5440   5.825   8.811   2.084 -0.8169  0.0140 -0.5904
 1447SOL     OW 5441   8.673   8.722   7.959 -0.4382  0.1108  0.8549
 1447SOL    HW1 5442   8.740   8.657   7.980 -0.4111  0.0593  0.6162
 1447SOL    HW2 5443   8.714   8.806   7.981 -0.1113  0.1150  0.2530
 1448SOL     OW 5444   3.039   3.421   5.480 -0.3001  0.4889 -0.2442
 1448SOL    HW1 5445   2.944   3.421   5.485 -0.2588  0.4111  1.0244
 1448SOL    HW2 5446   3.067   3.422   5.572  0.9172 -0.6265 -0.5825
 1449SOL     OW 5447   4.287   1.860   7.607 -0.5106 -0.1976  0.0017
 1449SOL    HW1 5448   4.273   1.797   7.678 -1.1480  0.6645  0.6616
 1449SOL    HW2 5449   4.366   1.908   7.634 -1.1974  0.6572  0.5402
 1450SOL     OW 5450   2.259   4.031   7.223  0.8160  0.1741  0.0877
 1450SOL    HW1 5451   2.353   4.013   7.215  0.5413 -1.0775 -0.5902
 1450SOL    HW2 5452   2.253   4.126   7.217  2.0227  0.2626 -0.1427
 1451SOL     OW 5453   4.257   0.746   5.849 -0.2610  0.0916  0.1046
 1451SOL    HW1 5454   4.252   0.710   5.937 -1.2472 -0.6705 -0.2431
 1451SOL    HW2 5455   4.347   0.731   5.821  0.1093  0.5077  1.0393
 1452SOL     OW 5456   6.021   8.990   6.448 -0.6956  0.3292  0.0784
 1452SOL    HW1 5457   5.975   8.909   6.469  2.2374 -1.8691 -1.2771
 1452SOL    HW2 5458   6.050   9.023   6.533 -3.8543  1.3817  0.8928
 1453SOL     OW 5459   7.475   3.717   7.097 -0.2315 -0.2005  0.2647
 1453SOL    HW1 5460   7.468   3.622   7.081 -0.0920 -0.1590 -0.0454
 1453SOL    HW2 5461   7.567   3.730   7.121  0.2990  0.1673 -1.8348
 1454SOL     OW 5462   5.611   0.546   1.796 -0.2796  0.8626  0.0628
 1454SOL    HW1 5463   5.670   0.574   1.867  0.0981  1.7094 -0.5599
 1454SOL    HW2 5464   5.645   0.591   1.718 -0.6527 -0.0918 -0.6728
 1455SOL     OW 5465   0.707   7.330   6.104  0.4720  0.0851  0.5199
 1455SOL    HW1 5466   0.797   7.310   6.079  0.2013 -0.9182  0.3115
 1455SOL    HW2 5467   0.716   7.384   6.183  1.2808  1.8143 -0.7106
 1456SOL     OW 5468   9.118   5.510   2.267 -0.3982  0.1285 -0.0695
 1456SOL    HW1 5469   9.117   5.417   2.291 -3.3246  0.2393  0.6369
 1456SOL    HW2 5470   9.122   5.555   2.351 -1.6346  0.5854 -0.2343
 1457SOL     OW 5471   4.996   2.296   1.856 -0.3229  0.1005 -0.3828
 1457SOL    HW1 5472   5.021   2.224   1.914  1.2630  1.0679  0.2046
 1457SOL    HW2 5473   4.938   2.350   1.908 -0.1662  0.1297 -0.2378
 1458SOL     OW 5474   0.557   3.125   8.682  0.4841  0.0483 -0.3132
 1458SOL    HW1 5475   0.631   3.162   8.635 -0.2308  1.0788 -0.6397
 1458SOL    HW2 5476   0.587   3.037   8.708  1.9562  0.5914 -0.0831
 1459SOL     OW 5477   1.989   2.704   4.069  0.1911 -0.1399 -0.3666
 1459SOL    HW1 5478   1.917   2.751   4.111  0.9872 -0.7555  1.8491
 1459SOL    HW2 5479   1.959   2.614   4.062  0.5999 -0.3287  0.2456
 1460SOL     OW 5480   7.688   7.156   5.663 -0.0540 -0.2517 -0.0982
 1460SOL    HW1 5481   7.665   7.248   5.674 -1.3121 -0.1753 -2.6221
 1460SOL    HW2 5482   7.783   7.153   5.676  0.5151  1.9942 -2.7705
 1461SOL     OW 5483   1.641   1.561   5.973  0.1835 -0.7516 -0.3033
 1461SOL    HW1 5484   1.552   1.583   6.002  0.6635 -0.6814  1.2000
 1461SOL    HW2 5485   1.649   1.467   5.989  0.0584 -0.9609 -1.3880
 1462SOL     OW 5486   4.663   0.362   5.801  0.0445  0.7882  0.2020
 1462SOL    HW1 5487   4.594   0.400   5.747 -1.7647  0.0287  1.8792
 1462SOL    HW2 5488   4.654   0.268   5.789  1.0619  0.6834  0.1647
 1463SOL     OW 5489   1.032   1.203   5.824  0.0773  0.1698  0.3321
 1463SOL    HW1 5490   0.993   1.220   5.909 -0.5670 -0.6114  0.2061
 1463SOL    HW2 5491   0.978   1.134   5.786  2.1641 -1.7128  0.5859
 1464SOL     OW 5492   0.535   4.958   6.326 -0.2365 -0.1971  0.4092
 1464SOL    HW1 5493   0.490   4.906   6.393 -0.9130 -1.3790 -0.9152
 1464SOL    HW2 5494   0.503   5.047   6.340 -1.2168 -0.6218  0.9705
 1465SOL     OW 5495   6.095   7.606   1.429 -0.3431 -0.0748  0.0900
 1465SOL    HW1 5496   6.182   7.632   1.459 -0.1288  0.9549 -1.2824
 1465SOL    HW2 5497   6.064   7.544   1.494  1.3844 -0.3900  0.6646
 1466SOL     OW 5498   6.728   3.914   8.265  0.1543 -0.0013  0.5200
 1466SOL    HW1 5499   6.666   3.955   8.205 -0.5594  0.2014  1.3863
 1466SOL    HW2 5500   6.798   3.883   8.208 -1.8482 -2.4126 -0.8075
 1467SOL     OW 5501   5.123   1.087   1.198 -0.3492  0.4960  0.0827
 1467SOL    HW1 5502   5.068   1.068   1.122  0.2482 -0.0087 -0.2344
 1467SOL    HW2 5503   5.207   1.046   1.178  0.1421  1.2416  0.5642
 1468SOL     OW 5504   2.673   8.996   4.212  0.5577  0.3991  0.2884
 1468SOL    HW1 5505   2.613   9.059   4.254 -0.6677 -1.5930  1.6959
 1468SOL    HW2 5506   2.742   8.982   4.277  0.3264 -0.3906  0.3648
 1469SOL     OW 5507   4.465   1.613   3.977 -0.6524 -0.1659 -0.2790
 1469SOL    HW1 5508   4.401   1.558   3.931 -1.5639  1.2440 -0.7600
 1469SOL    HW2 5509   4.547   1.565   3.971 -0.9357 -0.4477 -2.6294
 1470SOL     OW 5510   7.338   2.194   0.683 -0.0248  0.0144 -0.2063
 1470SOL    HW1 5511   7.311   2.123   0.624 -1.5921  1.6602 -1.6061
 1470SOL    HW2 5512   7.273   2.192   0.753 -0.4043  0.3837 -0.5400
 1471SOL     OW 5513   1.228   3.664   5.276  0.1221 -0.2410 -0.3500
 1471SOL    HW1 5514   1.171   3.620   5.339  0.5205 -1.2075 -0.6488
 1471SOL    HW2 5515   1.235   3.754   5.308  0.1418 -0.6579  0.8552
 1472SOL     OW 5516   8.658   2.801   3.242 -0.2946 -0.0272  0.2181
 1472SOL    HW1 5517   8.670   2.896   3.239  1.7036 -0.2414  0.4126
 1472SOL    HW2 5518   8.584   2.789   3.301 -0.3905  1.3968  0.4249
 1473SOL     OW 5519   8.685   2.101   5.407 -0.7892 -0.1621 -0.1873
 1473SOL    HW1 5520   8.624   2.149   5.352  0.3666  0.7362 -0.7372
 1473SOL    HW2 5521   8.738   2.050   5.345 -0.1256  0.0892  0.1559
 1474SOL     OW 5522   8.649   5.964   0.541  0.0576  0.0865  0.2110
 1474SOL    HW1 5523   8.556   5.975   0.563 -0.3984 -0.4087 -1.3343
 1474SOL    HW2 5524   8.681   5.899   0.604 -1.2486 -1.4802 -0.6635
 1475SOL     OW 5525   6.281   3.936   6.846  0.6923  0.1690  0.0751
 1475SOL    HW1 5526   6.306   3.946   6.938  0.2978  1.5378  0.0502
 1475SOL    HW2 5527   6.230   3.854   6.845  3.0016 -1.3787  0.5384
 1476SOL     OW 5528   7.779   4.594   1.499 -0.0523 -0.3750 -0.0147
 1476SOL    HW1 5529   7.815   4.517   1.454  1.7076  0.4491 -0.1222
 1476SOL    HW2 5530   7.728   4.640   1.432  0.8647 -0.2185 -0.6231
 1477SOL     OW 5531   0.460   2.460   4.359  0.1244  0.1581  0.0241
 1477SOL    HW1 5532   0.372   2.490   4.381 -0.4703 -1.4824  0.0098
 1477SOL    HW2 5533   0.516   2.499   4.426 -0.6784  0.7940  0.3429
 1478SOL     OW 5534   6.682   5.754   6.570  0.7874 -0.6795 -0.0308
 1478SOL    HW1 5535   6.687   5.743   6.475 -1.8849  0.4220 -0.3771
 1478SOL    HW2 5536   6.648   5.670   6.602 -0.1303 -0.4126 -0.2880
 1479SOL     OW 5537   7.071   0.845   7.452 -0.3362 -0.4787 -0.1226
 1479SOL    HW1 5538   6.989   0.812   7.489 -0.5390  1.2667  1.1126
 1479SOL    HW2 5539   7.048   0.874   7.364 -1.2378  0.5549  0.4214
 1480SOL     OW 5540   1.906   5.858   1.627 -0.0088  0.1166 -0.7058
 1480SOL    HW1 5541   1.901   5.937   1.573 -1.4933  0.7392  0.2992
 1480SOL    HW2 5542   1.836   5.867   1.691  2.1993 -0.2076  1.9067
 1481SOL     OW 5543   1.574   3.334   1.046  0.3807 -0.1681  0.1186
 1481SOL    HW1 5544   1.625   3.342   1.126  0.3583  0.9320  0.0365
 1481SOL    HW2 5545   1.617   3.394   0.984 -1.2134  1.0935  0.1608
 1482SOL     OW 5546   5.816   7.885   1.176 -0.0065 -0.6673  0.2911
 1482SOL    HW1 5547   5.835   7.791   1.181  2.7039 -0.1622  0.5606
 1482SOL    HW2 5548   5.865   7.915   1.100  1.0919  0.9391  1.5845
 1483SOL     OW 5549   5.503   1.637   8.222  0.5917  0.0452  0.0149
 1483SOL    HW1 5550   5.595   1.627   8.247  0.5553  0.4016  0.3100
 1483SOL    HW2 5551   5.469   1.703   8.283  0.3022  0.3776 -0.4986
 1484SOL     OW 5552   1.831   0.816   7.967 -0.7507 -0.2032  0.1099
 1484SOL    HW1 5553   1.868   0.751   8.028  0.6119 -0.8827 -1.3624
 1484SOL    HW2 5554   1.777   0.764   7.907 -1.2410  0.3023  0.1122
 1485SOL     OW 5555   7.317   7.161   7.334 -0.2068 -0.3700  0.4263
 1485SOL    HW1 5556   7.366   7.209   7.401 -2.0807  1.0586  0.8673
 1485SOL    HW2 5557   7.367   7.081   7.320  2.2383  0.9878  0.8026
 1486SOL     OW 5558   4.401   3.390   0.178 -0.1388 -0.0312  0.1798
 1486SOL    HW1 5559   4.378   3.420   0.091 -0.7178  0.1666  0.3993
 1486SOL    HW2 5560   4.347   3.442   0.237  2.4005  2.0740  0.8564
 1487SOL     OW 5561   3.037   2.911   2.873  0.0579 -0.2641  0.1730
 1487SOL    HW1 5562   3.111   2.906   2.813  0.6243  0.4446  0.8002
 1487SOL    HW2 5563   3.023   3.004   2.888  0.9457 -0.4072  2.3392
 1488SOL     OW 5564   1.671   7.606   1.698 -0.0027  0.5491  0.1781
 1488SOL    HW1 5565   1.596   7.576   1.751  0.5477 -1.5298 -0.1295
 1488SOL    HW2 5566   1.637   7.607   1.609  0.4087 -0.7090 -0.0006
 1489SOL     OW 5567   6.296   2.576   7.963  0.2227  0.0365  0.0601
 1489SOL    HW1 5568   6.340   2.563   8.047  1.3031  1.0101 -0.3213
 1489SOL    HW2 5569   6.216   2.624   7.984  0.6000  0.4707  0.5181
 1490SOL     OW 5570   6.720   2.935   4.277 -0.2676  0.2557  0.2872
 1490SOL    HW1 5571   6.653   2.999   4.251  0.9084  1.1486 -0.6720
 1490SOL    HW2 5572   6.803   2.982   4.268  0.5599 -1.0483  0.7430
 1491SOL     OW 5573   5.407   4.900   7.627  0.4370  0.4183 -0.0372
 1491SOL    HW1 5574   5.374   4.830   7.684 -1.4443  0.5576 -0.8781
 1491SOL    HW2 5575   5.368   4.980   7.664  0.0188  0.6225 -0.8963
 1492SOL     OW 5576   3.349   2.833   3.968 -0.2805  0.0201  0.6284
 1492SOL    HW1 5577   3.354   2.741   3.994 -0.2923  0.3341  1.7919
 1492SOL    HW2 5578   3.415   2.842   3.900  0.1744 -0.7025  0.9579
 1493SOL     OW 5579   4.598   7.934   4.565 -0.7157 -0.1521  0.1660
 1493SOL    HW1 5580   4.624   7.923   4.656  0.2682  0.4871 -0.0230
 1493SOL    HW2 5581   4.566   8.024   4.560  3.5205  1.5053 -1.0378
 1494SOL     OW 5582   8.979   7.483   5.388  0.6509 -0.4240  0.6258
 1494SOL    HW1 5583   9.054   7.492   5.328 -0.2329  2.1773 -0.2452
 1494SOL    HW2 5584   9.001   7.408   5.443  2.9388 -1.0070 -0.9327
 1495SOL     OW 5585   7.379   1.023   3.149 -0.1885  0.9196 -0.4884
 1495SOL    HW1 5586   7.406   1.114   3.137  0.7836  0.6497 -0.4700
 1495SOL    HW2 5587   7.358   1.016   3.242 -1.1251  1.3315 -0.6542
 1496SOL     OW 5588   0.634   4.636   4.524 -0.1441  0.2435 -0.0358
 1496SOL    HW1 5589   0.546   4.655   4.554 -0.4316 -1.6591  0.3862
 1496SOL    HW2 5590   0.677   4.595   4.598 -0.0450 -2.1022 -1.3087
 1497SOL     OW 5591   0.746   4.579   7.971  0.3686 -0.4804 -0.3601
 1497SOL    HW1 5592   0.765   4.627   7.890 -0.9251 -1.0394 -1.0156
 1497SOL    HW2 5593   0.665   4.531   7.952  0.7235 -1.6000  0.8483
 1498SOL     OW 5594   3.224   0.226   4.667  0.1371 -0.4643  0.2622
 1498SOL    HW1 5595   3.199   0.286   4.597 -0.3838  0.1691  0.9704
 1498SOL    HW2 5596   3.227   0.281   4.746 -0.4271 -1.3706  0.9353
 1499SOL     OW 5597   4.863   4.226   8.242 -0.2791 -0.2749  0.3293
 1499SOL    HW1 5598   4.860   4.295   8.175 -0.7108 -0.7202 -0.1120
 1499SOL    HW2 5599   4.775   4.224   8.278 -0.3825 -0.8839  0.0495
 1500SOL     OW 5600   6.082   2.693   3.756  0.1034 -0.3875 -0.2503
 1500SOL    HW1 5601   6.151   2.751   3.724 -0.6248  0.2232 -0.7667
 1500SOL    HW2 5602   6.007   2.751   3.770 -0.3106 -1.0390  0.2775
 1501SOL     OW 5603   3.288   3.311   1.879 -0.0888 -0.3300 -0.0879
 1501SOL    HW1 5604   3.270   3.362   1.800  0.2313  1.1032  0.7493
 1501SOL    HW2 5605   3.378   3.280   1.868 -0.1490 -0.3946 -0.4144
 1502SOL     OW 5606   8.831   7.218   7.291 -0.7113  0.3175 -0.1319
 1502SOL    HW1 5607   8.908   7.163   7.305 -2.1458 -2.5960 -2.4106
 1502SOL    HW2 5608   8.864   7.294   7.243  0.7812 -0.9568 -1.2391
 1503SOL     OW 5609   0.836   4.770   2.682 -0.4528 -0.2261  0.4480
 1503SOL    HW1 5610   0.866   4.745   2.769 -1.8649  0.7994  1.2779
 1503SOL    HW2 5611   0.890   4.719   2.622  1.5336  0.0951  1.8624
 1504SOL     OW 5612   7.650   2.588   3.067 -0.3221 -0.3796  0.0258
 1504SOL    HW1 5613   7.595   2.510   3.074  0.4736 -1.0244 -0.6806
 1504SOL    HW2 5614   7.721   2.572   3.130 -0.9573  0.4902  1.0058
 1505SOL     OW 5615   4.092   5.608   5.441  0.3536  0.1977 -0.1783
 1505SOL    HW1 5616   4.129   5.524   5.467 -0.3240 -0.3552 -0.9773
 1505SOL    HW2 5617   4.075   5.599   5.348 -2.0926  0.3085  0.1996
 1506SOL     OW 5618   5.398   7.310   3.167 -0.1442 -0.0971  0.1817
 1506SOL    HW1 5619   5.393   7.289   3.260  2.1527  0.3107  0.4679
 1506SOL    HW2 5620   5.473   7.260   3.135  0.9940  2.0437 -0.7157
 1507SOL     OW 5621   8.822   0.622   5.237  0.2522  0.4038 -0.1828
 1507SOL    HW1 5622   8.913   0.595   5.236  0.1304 -0.0114 -0.0641
 1507SOL    HW2 5623   8.790   0.604   5.148  0.7204  2.0736 -0.7385
 1508SOL     OW 5624   0.948   5.153   1.152  0.5293 -0.0358 -0.6850
 1508SOL    HW1 5625   0.969   5.072   1.105  2.0013  0.8094 -1.5497
 1508SOL    HW2 5626   0.876   5.128   1.211  1.1572 -2.0533 -0.6776
 1509SOL     OW 5627   4.376   7.852   5.267 -0.3615 -0.1995  0.1523
 1509SOL    HW1 5628   4.432   7.817   5.336 -0.8378  0.5769  0.9560
 1509SOL    HW2 5629   4.308   7.785   5.255 -0.6311 -0.0636  0.8825
 1510SOL     OW 5630   8.853   1.147   4.243 -0.2287  0.0342 -0.2349
 1510SOL    HW1 5631   8.792   1.215   4.269  3.3265  3.1331  0.9663
 1510SOL    HW2 5632   8.849   1.145   4.147 -1.8473  0.4090 -0.1934
 1511SOL     OW 5633   3.909   3.361   3.223  0.4098 -0.3485  0.4369
 1511SOL    HW1 5634   3.942   3.381   3.310  1.2067 -0.9317  0.2835
 1511SOL    HW2 5635   3.941   3.273   3.205  0.0467 -0.3318 -0.3504
 1512SOL     OW 5636   8.368   3.369   4.670 -0.1350  0.0106 -0.5458
 1512SOL    HW1 5637   8.374   3.395   4.579  3.7453 -0.7086 -0.6680
 1512SOL    HW2 5638   8.396   3.446   4.719 -0.2788 -0.2134 -0.1061
 1513SOL     OW 5639   5.345   9.100   0.804 -0.2050 -0.2405  0.4427
 1513SOL    HW1 5640   5.251   9.084   0.804 -0.1373 -0.6490 -0.1867
 1513SOL    HW2 5641   5.382   9.031   0.750  0.0176  2.2944 -3.0088
 1514SOL     OW 5642   8.440   0.146   4.549  0.1473 -0.0668  0.2457
 1514SOL    HW1 5643   8.390   0.168   4.628 -1.5408  2.5289 -1.4078
 1514SOL    HW2 5644   8.516   0.203   4.552  2.6919 -3.2134  2.1691
 1515SOL     OW 5645   3.249   1.414   6.103  0.0525 -0.3307 -0.3677
 1515SOL    HW1 5646   3.329   1.453   6.138  0.0113 -0.8173  0.3027
 1515SOL    HW2 5647   3.262   1.319   6.115 -0.6930 -0.4055 -0.0817
 1516SOL     OW 5648   6.817   3.378   1.256 -0.1473  0.2877 -0.0481
 1516SOL    HW1 5649   6.888   3.405   1.198 -0.2685 -0.3796 -0.5211
 1516SOL    HW2 5650   6.749   3.443   1.244  0.1428  0.5929 -0.0495
 1517SOL     OW 5651   2.310   3.265   8.047 -0.1180  0.0796 -0.1712
 1517SOL    HW1 5652   2.309   3.179   8.005 -1.4543  0.1130 -0.2499
 1517SOL    HW2 5653   2.349   3.249   8.133  0.1810 -0.4912 -0.4108
 1518SOL     OW 5654   8.628   1.442   3.025  0.1849  0.2182  0.5720
 1518SOL    HW1 5655   8.653   1.481   3.109 -0.1578  2.1266 -0.1586
 1518SOL    HW2 5656   8.535   1.463   3.016  0.2787  0.2490 -0.3989
 1519SOL     OW 5657   5.488   4.033   0.625  0.2821 -0.3616 -0.9139
 1519SOL    HW1 5658   5.400   4.041   0.587  0.8295  2.4830 -1.8325
 1519SOL    HW2 5659   5.541   4.096   0.576  1.7101  1.5695  2.6556
 1520SOL     OW 5660   1.236   5.650   6.473  0.7589 -0.0321  0.4177
 1520SOL    HW1 5661   1.201   5.581   6.417  1.0141 -0.4553  0.7688
 1520SOL    HW2 5662   1.166   5.666   6.537  0.4354  0.5092 -0.0709
 1521SOL     OW 5663   7.462   2.513   4.459  0.1811 -0.0388 -0.3304
 1521SOL    HW1 5664   7.396   2.453   4.424  0.0033  0.5834 -1.0997
 1521SOL    HW2 5665   7.484   2.570   4.386  0.0540  1.0836  0.4712
 1522SOL     OW 5666   1.036   0.321   7.649  0.4442 -0.4775 -1.0441
 1522SOL    HW1 5667   1.037   0.368   7.566  0.9816 -0.1099 -0.8350
 1522SOL    HW2 5668   1.107   0.361   7.700 -1.2841  0.8805  0.4580
 1523SOL     OW 5669   1.530   6.936   8.917  0.6235 -0.1258  0.2516
 1523SOL    HW1 5670   1.435   6.944   8.922  0.7492  1.9183  0.2818
 1523SOL    HW2 5671   1.548   6.847   8.946 -1.3114 -0.7464 -0.3038
 1524SOL     OW 5672   6.460   3.222   7.259  0.3939  0.0367  0.0395
 1524SOL    HW1 5673   6.473   3.296   7.318  1.6129  0.5752 -0.8730
 1524SOL    HW2 5674   6.366   3.224   7.238  0.0927  0.3030  1.3039
 1525SOL     OW 5675   6.804   1.847   5.635  0.4676  0.2134 -0.3219
 1525SOL    HW1 5676   6.755   1.771   5.604  0.4061  0.2328 -0.2720
 1525SOL    HW2 5677   6.738   1.916   5.644 -0.3083 -0.8572  3.7778
 1526SOL     OW 5678   5.627   0.458   2.544  0.3191  0.1970  0.4463
 1526SOL    HW1 5679   5.713   0.460   2.502  0.4148  0.9117  0.6615
 1526SOL    HW2 5680   5.589   0.374   2.517  1.4076 -0.4988  0.9907
 1527SOL     OW 5681   8.395   3.827   4.162  0.6707  0.2206 -0.0900
 1527SOL    HW1 5682   8.450   3.809   4.239  0.5648  1.1939  0.2321
 1527SOL    HW2 5683   8.438   3.901   4.119 -0.5801  1.2575  0.3881
 1528SOL     OW 5684   6.992   0.911   7.206 -0.3449 -0.1963  0.3911
 1528SOL    HW1 5685   6.902   0.915   7.236 -0.2494  0.0567  0.6578
 1528SOL    HW2 5686   7.006   0.996   7.163 -0.3277 -0.3555  0.0845
 1529SOL     OW 5687   7.531   5.952   5.601  0.1160 -0.1414 -0.0061
 1529SOL    HW1 5688   7.451   6.003   5.585  0.6804  0.4203 -1.1635
 1529SOL    HW2 5689   7.540   5.951   5.696  0.3480  2.3991  0.0794
 1530SOL     OW 5690   7.345   5.126   5.379 -0.3732 -0.4015  0.4365
 1530SOL    HW1 5691   7.345   5.096   5.288  0.5701  3.4850 -1.0123
 1530SOL    HW2 5692   7.261   5.169   5.391 -0.0063  0.1825  0.9941
 1531SOL     OW 5693   1.977   7.460   6.896 -0.0221  0.3368  0.1378
 1531SOL    HW1 5694   2.039   7.485   6.827 -0.9474 -0.7114 -1.1272
 1531SOL    HW2 5695   1.976   7.535   6.956  1.4320  0.9284 -0.5397
 1532SOL     OW 5696   0.788   1.672   3.233  0.2143 -0.1627 -0.3000
 1532SOL    HW1 5697   0.791   1.762   3.265  2.0492 -1.3500  3.4164
 1532SOL    HW2 5698   0.699   1.643   3.254 -0.8855  1.0729 -2.8418
 1533SOL     OW 5699   3.133   8.394   2.794  0.3910 -0.2304  0.1116
 1533SOL    HW1 5700   3.188   8.414   2.719  0.6363  1.0540  0.6156
 1533SOL    HW2 5701   3.045   8.422   2.768  0.7916  1.9857  0.9408
 1534SOL     OW 5702   1.715   3.492   4.327 -0.2249 -0.9613 -0.6909
 1534SOL    HW1 5703   1.748   3.581   4.338 -2.4243 -0.2068  0.4388
 1534SOL    HW2 5704   1.755   3.442   4.399 -1.1499 -0.1744  0.4041
 1535SOL     OW 5705   5.275   7.765   4.618  0.4311  0.3317 -0.2526
 1535SOL    HW1 5706   5.250   7.848   4.576 -0.2126  0.2045 -0.1348
 1535SOL    HW2 5707   5.224   7.698   4.572  0.3125  0.1031  0.2017
 1536SOL     OW 5708   0.620   6.425   0.511 -0.2637 -0.0331 -0.3089
 1536SOL    HW1 5709   0.569   6.369   0.570 -2.2807  1.6864 -0.3158
 1536SOL    HW2 5710   0.569   6.428   0.431  0.0860  1.3629 -0.4947
 1537SOL     OW 5711   8.306   5.272   5.238 -0.1570  0.1993  0.0460
 1537SOL    HW1 5712   8.385   5.221   5.259  1.0702  2.8335  2.6454
 1537SOL    HW2 5713   8.326   5.313   5.154 -0.8087 -2.6880 -1.6472
 1538SOL     OW 5714   2.968   4.459   4.948  0.0245  0.0903  0.5799
 1538SOL    HW1 5715   2.951   4.401   5.022 -0.1407  0.5789  0.9272
 1538SOL    HW2 5716   3.014   4.403   4.885 -0.3638 -0.4913  0.7947
 1539SOL     OW 5717   2.438   1.428   3.597  0.2846 -0.0906 -0.2863
 1539SOL    HW1 5718   2.430   1.348   3.545  1.1364 -0.0513 -0.5007
 1539SOL    HW2 5719   2.532   1.435   3.615  0.3922  1.4931 -1.2617
 1540SOL     OW 5720   3.365   8.929   6.914 -0.3406  0.6260 -0.2425
 1540SOL    HW1 5721   3.382   9.017   6.948  0.9265 -0.2065  1.4420
 1540SOL    HW2 5722   3.274   8.932   6.885 -0.4044  2.4049  0.0116
 1541SOL     OW 5723   3.102   1.631   7.854 -1.1223 -0.2073  0.1694
 1541SOL    HW1 5724   3.065   1.566   7.795 -0.6252 -0.6937  0.3756
 1541SOL    HW2 5725   3.040   1.704   7.854 -0.9254 -0.0274 -1.2553
 1542SOL     OW 5726   2.643   1.283   5.601  0.1782 -0.1442 -0.1603
 1542SOL    HW1 5727   2.711   1.306   5.538 -0.7284 -1.9863 -1.8956
 1542SOL    HW2 5728   2.561   1.292   5.553 -0.6815 -0.0289  1.2638
 1543SOL     OW 5729   7.470   3.859   4.532  0.0246 -0.1911 -0.1311
 1543SOL    HW1 5730   7.415   3.857   4.611  0.5866 -0.0540  0.2698
 1543SOL    HW2 5731   7.454   3.945   4.493  1.6943  0.8176  1.2619
 1544SOL     OW 5732   1.568   0.440   7.521 -0.5474 -0.0345  0.6742
 1544SOL    HW1 5733   1.641   0.435   7.583 -1.3677 -1.3287  1.6009
 1544SOL    HW2 5734   1.525   0.523   7.541  0.8530  0.9282 -0.1453
 1545SOL     OW 5735   3.518   0.833   3.502  0.8557 -0.2555 -0.3803
 1545SOL    HW1 5736   3.451   0.833   3.570  1.0330  2.9581 -0.0582
 1545SOL    HW2 5737   3.566   0.751   3.516  0.1108 -0.3136  2.5529
 1546SOL     OW 5738   0.754   3.658   2.247  0.2865 -0.3133 -0.2745
 1546SOL    HW1 5739   0.723   3.716   2.317  0.9287 -3.6355  3.0922
 1546SOL    HW2 5740   0.849   3.669   2.246  0.4990 -1.7197  0.9382
 1547SOL     OW 5741   4.034   1.232   2.070  0.1041 -0.1069  0.2210
 1547SOL    HW1 5742   4.115   1.278   2.049  1.4010 -2.0781  0.6029
 1547SOL    HW2 5743   4.043   1.207   2.162 -0.4652 -1.2111 -0.0008
 1548SOL     OW 5744   4.082   8.754   5.938 -0.2925 -0.2445 -0.2456
 1548SOL    HW1 5745   4.023   8.815   5.894 -1.5445 -1.1672  0.1184
 1548SOL    HW2 5746   4.084   8.677   5.881 -0.6371 -0.8086  0.4850
 1549SOL     OW 5747   1.564   1.527   1.666 -0.1087 -0.1845 -0.2054
 1549SOL    HW1 5748   1.651   1.547   1.701 -0.8376 -0.8624  2.1438
 1549SOL    HW2 5749   1.508   1.598   1.697 -1.0904 -1.6066  1.4494
 1550SOL     OW 5750   8.446   5.514   0.271  0.2207 -0.0862 -0.4031
 1550SOL    HW1 5751   8.370   5.565   0.300  0.4960 -1.4142  3.1436
 1550SOL    HW2 5752   8.522   5.562   0.305  0.7518 -0.5378 -0.9312
 1551SOL     OW 5753   5.380   6.751   8.535 -0.0406 -0.7934  0.0838
 1551SOL    HW1 5754   5.286   6.746   8.551 -0.3371 -2.0409 -1.6715
 1551SOL    HW2 5755   5.402   6.844   8.547 -1.2343 -0.6880  1.6671
 1552SOL     OW 5756   8.409   6.630   7.716  0.3368 -0.0425  0.4149
 1552SOL    HW1 5757   8.470   6.557   7.718  1.0267  0.4879 -0.4937
 1552SOL    HW2 5758   8.369   6.625   7.629 -0.6609 -0.1651  0.8635
 1553SOL     OW 5759   5.212   2.524   7.157 -0.2258  0.4136  0.2290
 1553SOL    HW1 5760   5.208   2.473   7.238 -1.8227  0.5187  0.2520
 1553SOL    HW2 5761   5.197   2.614   7.185  0.4503  0.6143 -0.0522
 1554SOL     OW 5762   8.489   5.928   5.008  0.2226 -0.1083 -0.3072
 1554SOL    HW1 5763   8.550   5.990   4.968  0.3000 -0.1409 -0.2403
 1554SOL    HW2 5764   8.426   5.909   4.939 -0.3248  0.7366 -0.0552
 1555SOL     OW 5765   7.216   5.958   5.371  1.0040 -0.2641 -0.3104
 1555SOL    HW1 5766   7.248   6.005   5.294  0.7290  1.5437  0.6325
 1555SOL    HW2 5767   7.171   5.882   5.335  0.2242  0.9333 -1.9856
 1556SOL     OW 5768   6.911   3.107   1.291  0.1159 -0.3866 -0.5191
 1556SOL    HW1 5769   6.892   3.198   1.268  1.3693 -0.1018 -0.5355
 1556SOL    HW2 5770   6.953   3.071   1.213  0.6687 -0.6198 -0.1235
 1557SOL     OW 5771   2.390   8.735   2.251 -0.2281  0.5279  0.4363
 1557SOL    HW1 5772   2.436   8.691   2.180  1.7201  0.6540  1.5497
 1557SOL    HW2 5773   2.441   8.714   2.329 -1.4761  1.5769  1.5918
 1558SOL     OW 5774   0.686   4.457   6.643 -0.0493 -0.2246  0.3064
 1558SOL    HW1 5775   0.653   4.528   6.588 -1.5950  0.1771  1.6835
 1558SOL    HW2 5776   0.688   4.494   6.731  0.1901 -1.5591  0.8797
 1559SOL     OW 5777   1.091   1.816   5.912 -0.3051  0.4177 -0.5725
 1559SOL    HW1 5778   1.119   1.736   5.869  1.6293 -0.0756  1.4108
 1559SOL    HW2 5779   1.024   1.788   5.974 -0.1416  0.4462 -0.3820
 1560SOL     OW 5780   8.502   5.021   6.101 -0.1457  0.1542 -0.4199
 1560SOL    HW1 5781   8.574   4.966   6.070 -0.5655 -1.4226  1.2870
 1560SOL    HW2 5782   8.454   5.044   6.021  0.2150 -1.7281 -1.2392
 1561SOL     OW 5783   4.345   3.690   7.076  0.0466 -0.4815 -0.2184
 1561SOL    HW1 5784   4.273   3.639   7.038 -0.2978 -0.4846  0.4264
 1561SOL    HW2 5785   4.310   3.721   7.160  1.0086 -0.9995  0.3883
 1562SOL     OW 5786   7.185   7.297   0.020  0.2000 -0.1898 -0.4015
 1562SOL    HW1 5787   7.100   7.254   0.028  0.3915 -0.2017  2.6232
 1562SOL    HW2 5788   7.187   7.330  -0.070 -1.7850 -2.6240 -1.4566
 1563SOL     OW 5789   5.525   8.664   5.371  0.2145  0.5673  0.0460
 1563SOL    HW1 5790   5.572   8.745   5.389 -0.8718  1.4559 -0.9851
 1563SOL    HW2 5791   5.517   8.621   5.456  3.2755  0.1165  0.2313
 1564SOL     OW 5792   1.110   2.369   4.064  0.1887 -0.2824  0.2273
 1564SOL    HW1 5793   1.196   2.411   4.071  0.2793 -0.3455 -0.3903
 1564SOL    HW2 5794   1.121   2.283   4.103  0.4470 -0.3386  0.0367
 1565SOL     OW 5795   7.508   9.099   3.076 -0.3189 -0.2433  0.6688
 1565SOL    HW1 5796   7.418   9.087   3.044 -0.1097  0.4560 -0.2339
 1565SOL    HW2 5797   7.539   9.010   3.094 -0.8264 -0.5823 -0.0729
 1566SOL     OW 5798   3.692   0.466   4.111 -0.6310  0.3908  0.0108
 1566SOL    HW1 5799   3.711   0.556   4.135  0.4199  0.2819 -0.3303
 1566SOL    HW2 5800   3.704   0.417   4.193 -0.5479  0.4803  0.0528
 1567SOL     OW 5801   7.400   8.444   2.401  0.0774 -0.0878  0.0762
 1567SOL    HW1 5802   7.488   8.463   2.368 -0.0081  1.3789  0.6135
 1567SOL    HW2 5803   7.372   8.368   2.350  1.9993 -1.1929  0.5629
 1568SOL     OW 5804   5.814   5.351   4.907 -0.2677  0.4037 -0.1339
 1568SOL    HW1 5805   5.821   5.445   4.924 -0.2740  0.1782  1.2163
 1568SOL    HW2 5806   5.721   5.336   4.893 -0.4832  0.3701  1.2184
 1569SOL     OW 5807   0.633   2.609   2.766 -0.3883  0.3888  0.1103
 1569SOL    HW1 5808   0.660   2.697   2.741  0.5771  0.1784  0.3642
 1569SOL    HW2 5809   0.705   2.576   2.821 -1.5537  0.1030  1.5192
 1570SOL     OW 5810   2.597   3.348   4.813  0.4403  0.0117  0.0242
 1570SOL    HW1 5811   2.542   3.305   4.879  0.5031  1.0699  0.7986
 1570SOL    HW2 5812   2.635   3.423   4.859  2.0695 -0.3598 -0.6718
 1571SOL     OW 5813   1.932   0.187   1.242  0.1609 -0.1330  0.4824
 1571SOL    HW1 5814   1.842   0.180   1.274  0.0539  0.6525  0.3745
 1571SOL    HW2 5815   1.941   0.278   1.214 -0.1331 -0.9482 -2.7617
 1572SOL     OW 5816   8.422   2.464   3.194 -0.0312  0.0553  0.0463
 1572SOL    HW1 5817   8.464   2.462   3.108 -0.4784  2.9237 -0.3493
 1572SOL    HW2 5818   8.328   2.469   3.174 -0.3118 -1.4131  0.8117
 1573SOL     OW 5819   2.685   7.323   6.690 -0.1879  0.2390  0.3741
 1573SOL    HW1 5820   2.659   7.284   6.607 -2.0622  0.4682  0.7984
 1573SOL    HW2 5821   2.780   7.326   6.687 -0.2116  1.7023 -2.4589
 1574SOL     OW 5822   3.925   8.127   4.412  0.5333  0.3263 -0.3335
 1574SOL    HW1 5823   3.920   8.088   4.325  2.4528 -0.2766 -0.2184
 1574SOL    HW2 5824   3.837   8.115   4.449  0.7013 -3.0018 -0.7043
 1575SOL     OW 5825   0.529   2.587   5.789  0.2621 -0.0430 -0.0690
 1575SOL    HW1 5826   0.570   2.518   5.737  0.3295 -0.5051  0.5862
 1575SOL    HW2 5827   0.596   2.612   5.852  0.0862  0.3273 -0.0251
 1576SOL     OW 5828   5.927   7.546   0.177  0.4648  0.4711 -0.0821
 1576SOL    HW1 5829   5.897   7.620   0.230  0.2639  0.3427 -0.0161
 1576SOL    HW2 5830   5.999   7.581   0.125  0.7973  0.5435  0.4273
 1577SOL     OW 5831   2.369   1.002   7.546  0.1047 -0.6367  0.3568
 1577SOL    HW1 5832   2.316   0.959   7.479 -1.5643 -0.1737  1.3043
 1577SOL    HW2 5833   2.454   1.016   7.505 -0.9133 -0.1685 -1.7337
 1578SOL     OW 5834   8.237   4.511   4.691 -0.3252  0.2361  0.6097
 1578SOL    HW1 5835   8.239   4.572   4.617 -0.5572 -0.9806 -0.4397
 1578SOL    HW2 5836   8.198   4.431   4.655 -0.4437 -0.3888  2.0580
 1579SOL     OW 5837   8.368   3.824   3.723  0.9387 -0.2108 -0.1472
 1579SOL    HW1 5838   8.278   3.806   3.695  1.1464  0.0034 -0.9485
 1579SOL    HW2 5839   8.368   3.803   3.817  0.4685 -1.7953 -0.4703
 1580SOL     OW 5840   4.489   4.478   3.732 -0.3233  0.2883 -0.2346
 1580SOL    HW1 5841   4.547   4.546   3.767  0.6046 -0.4401 -0.3251
 1580SOL    HW2 5842   4.432   4.524   3.671 -0.5820  1.2147  0.6716
 1581SOL     OW 5843   0.700   8.643   5.860 -0.3033  0.0735  0.1334
 1581SOL    HW1 5844   0.793   8.643   5.835 -0.0780 -0.0659  0.9451
 1581SOL    HW2 5845   0.653   8.640   5.777  0.4029  1.2518 -0.3439
 1582SOL     OW 5846   6.087   7.748   5.345 -0.0492 -0.0382 -0.4197
 1582SOL    HW1 5847   6.122   7.663   5.373 -1.2260 -0.4548 -0.1745
 1582SOL    HW2 5848   6.130   7.764   5.261 -0.1756 -1.1104 -0.7058
 1583SOL     OW 5849   4.812   4.764   8.747 -0.0997 -0.3706  0.6437
 1583SOL    HW1 5850   4.893   4.744   8.701 -0.3920 -2.9328  1.0693
 1583SOL    HW2 5851   4.836   4.766   8.839 -0.5030 -1.2566  0.7803
 1584SOL     OW 5852   8.160   6.755   0.434 -0.0972  0.3570  0.0274
 1584SOL    HW1 5853   8.225   6.792   0.375 -1.1870  0.0868 -1.4134
 1584SOL    HW2 5854   8.153   6.663   0.406 -1.0258  0.3645  0.2108
 1585SOL     OW 5855   9.093   2.580   4.342 -0.0326 -0.4109  0.1224
 1585SOL    HW1 5856   9.027   2.512   4.354 -0.6700  0.1546 -0.1068
 1585SOL    HW2 5857   9.100   2.590   4.247  0.5735 -0.6440  0.1375
 1586SOL     OW 5858   6.706   2.133   5.957 -0.0848 -0.7547  0.0700
 1586SOL    HW1 5859   6.717   2.067   6.026 -0.3516 -0.4664  0.3906
 1586SOL    HW2 5860   6.678   2.212   6.003  1.8651  0.0958 -0.1047
 1587SOL     OW 5861   3.417   5.543   3.565  0.1008  0.2390 -0.5994
 1587SOL    HW1 5862   3.415   5.527   3.659  0.2819 -1.5794 -0.8621
 1587SOL    HW2 5863   3.438   5.635   3.556 -0.7265  0.6352  1.1493
 1588SOL     OW 5864   7.443   7.981   5.207 -0.7923  0.0189  0.0757
 1588SOL    HW1 5865   7.423   7.890   5.186  0.7260 -0.8417  2.1187
 1588SOL    HW2 5866   7.535   7.992   5.185 -0.7743  0.8655  0.5183
 1589SOL     OW 5867   1.975   4.716   0.605  0.0590 -0.0263 -0.0405
 1589SOL    HW1 5868   1.912   4.780   0.572  0.7815 -0.4697 -2.4748
 1589SOL    HW2 5869   2.057   4.738   0.562  0.8913 -1.1752  0.8969
 1590SOL     OW 5870   2.606   5.398   7.609  0.1479 -0.0788  0.2338
 1590SOL    HW1 5871   2.681   5.386   7.666  1.2438 -0.6716 -1.2712
 1590SOL    HW2 5872   2.619   5.484   7.570  1.3099 -1.0876 -1.7397
 1591SOL     OW 5873   2.151   1.519   4.053  0.5000 -0.1094 -0.3114
 1591SOL    HW1 5874   2.068   1.487   4.089  1.7404 -2.4355  0.7053
 1591SOL    HW2 5875   2.125   1.587   3.992 -2.1485 -0.5758  0.1395
 1592SOL     OW 5876   0.936   4.785   3.347 -0.4406 -0.2386 -0.2143
 1592SOL    HW1 5877   0.906   4.731   3.274  0.5751 -0.1892 -0.6883
 1592SOL    HW2 5878   1.008   4.735   3.386 -0.1235  0.3261 -0.0628
 1593SOL     OW 5879   3.784   0.656   7.294  0.2039  0.3493 -0.4658
 1593SOL    HW1 5880   3.779   0.583   7.355  0.8277  1.2175  0.6729
 1593SOL    HW2 5881   3.861   0.637   7.239  0.7130  0.4236  0.2119
 1594SOL     OW 5882   7.077   1.879   0.797 -0.1256 -0.7824 -0.2832
 1594SOL    HW1 5883   7.040   1.880   0.885 -0.4193 -0.8354 -0.4040
 1594SOL    HW2 5884   7.066   1.968   0.765 -1.7326 -1.1935 -0.9631
 1595SOL     OW 5885   7.566   8.301   9.089 -0.1609 -0.0141  0.3531
 1595SOL    HW1 5886   7.536   8.390   9.106  1.0463  0.2405  1.2546
 1595SOL    HW2 5887   7.547   8.287   8.996  0.1849  1.3973  0.0562
 1596SOL     OW 5888   5.301   4.071   1.759 -0.5091 -0.9987 -0.0242
 1596SOL    HW1 5889   5.291   4.034   1.847 -1.4762 -1.2588 -0.2317
 1596SOL    HW2 5890   5.226   4.037   1.710  0.6684 -1.8314 -1.2977
 1597SOL     OW 5891   1.341   2.057   6.156  0.7704 -0.0838 -0.4312
 1597SOL    HW1 5892   1.374   2.096   6.076  1.8847  0.7465  0.4130
 1597SOL    HW2 5893   1.256   2.020   6.131  1.2527 -0.1708 -2.0663
 1598SOL     OW 5894   2.964   4.083   4.217  0.2477 -0.1659 -0.4939
 1598SOL    HW1 5895   2.921   4.138   4.283  2.8047  0.1712  1.0548
 1598SOL    HW2 5896   2.948   4.128   4.134  1.1110  2.2633  0.5474
 1599SOL     OW 5897   1.836   0.835   4.302 -0.2860  0.3935  0.2517
 1599SOL    HW1 5898   1.832   0.880   4.218 -0.8575 -0.6330 -0.2854
 1599SOL    HW2 5899   1.928   0.814   4.315 -0.2825 -0.0064 -0.4170
 1600SOL     OW 5900   6.162   7.025   6.018 -0.0448 -0.1375  0.1109
 1600SOL    HW1 5901   6.097   7.000   6.084 -1.5087 -0.4245 -1.3524
 1600SOL    HW2 5902   6.191   7.112   6.045 -1.8776  0.4712  0.2425
 1601SOL     OW 5903   2.033   2.011   4.370 -0.4322 -0.6895  0.2413
 1601SOL    HW1 5904   2.085   2.084   4.337 -0.3927 -0.9852 -0.3580
 1601SOL    HW2 5905   1.947   2.049   4.389  0.1060 -0.1029  1.6510
 1602SOL     OW 5906   5.980   0.265   2.701  0.3637  0.0728  0.4893
 1602SOL    HW1 5907   5.995   0.213   2.780 -0.0236 -1.3016 -0.3116
 1602SOL    HW2 5908   5.936   0.344   2.732  0.6819 -0.2010  1.6984
 1603SOL     OW 5909   0.344   4.521   1.221  0.0200  0.2619 -0.1459
 1603SOL    HW1 5910   0.370   4.598   1.169  1.3319 -0.2847 -0.3331
 1603SOL    HW2 5911   0.366   4.446   1.165 -0.9648 -0.2620  0.1584
 1604SOL     OW 5912   8.368   3.301   0.142  0.2617 -0.0973  0.2418
 1604SOL    HW1 5913   8.453   3.342   0.124 -0.7665  2.6004  1.0679
 1604SOL    HW2 5914   8.387   3.233   0.207  2.0041 -0.8053 -0.9399
 1605SOL     OW 5915   4.938   0.375   4.097 -0.6466  0.0228  0.2428
 1605SOL    HW1 5916   4.999   0.395   4.026 -1.3268 -0.2162 -0.4217
 1605SOL    HW2 5917   4.866   0.329   4.054 -1.3232  0.3544  1.0029
 1606SOL     OW 5918   8.909   0.245   7.106  0.5150 -0.3346  0.3546
 1606SOL    HW1 5919   8.978   0.295   7.061 -0.2327  0.6410  0.2533
 1606SOL    HW2 5920   8.948   0.222   7.190  1.2934 -0.6138 -0.0691
 1607SOL     OW 5921   1.403   6.715   8.143 -0.0992  0.1043  0.1850
 1607SOL    HW1 5922   1.490   6.701   8.105  0.1682 -0.5147  1.0090
 1607SOL    HW2 5923   1.347   6.730   8.067  0.6349  0.0351 -0.3883
 1608SOL     OW 5924   0.076   2.902   6.982 -0.2174  0.2628 -0.3695
 1608SOL    HW1 5925   0.066   2.922   7.075 -1.6429  0.0454 -0.4433
 1608SOL    HW2 5926   0.096   2.808   6.980 -0.6600  0.1648 -0.2944
 1609SOL     OW 5927   1.589   0.985   7.749 -0.0524  0.1120 -0.9491
 1609SOL    HW1 5928   1.510   1.027   7.783  1.9061  1.6046  2.2446
 1609SOL    HW2 5929   1.581   0.894   7.778  0.2928  0.7482  1.4089
 1610SOL     OW 5930   1.104   3.550   5.029  0.3082  0.0187  0.1364
 1610SOL    HW1 5931   1.146   3.599   5.100 -0.6047 -0.4512  1.0327
 1610SOL    HW2 5932   1.069   3.472   5.072 -1.2823  0.2860 -0.5988
 1611SOL     OW 5933   0.943   2.739   2.107 -0.0886  0.1855  0.0145
 1611SOL    HW1 5934   1.004   2.764   2.037 -1.1422  0.4636 -0.8387
 1611SOL    HW2 5935   0.910   2.822   2.141 -0.9883  0.0456 -0.4634
 1612SOL     OW 5936   6.735   3.464   3.000 -0.0794  0.0863  0.4914
 1612SOL    HW1 5937   6.647   3.489   2.973 -0.1105  0.5550  1.0110
 1612SOL    HW2 5938   6.735   3.472   3.095 -0.3490 -2.7491  0.8127
 1613SOL     OW 5939   7.103   2.204   6.987 -0.2759  0.6013 -0.1054
 1613SOL    HW1 5940   7.164   2.173   6.920 -1.8191 -1.0075 -0.8408
 1613SOL    HW2 5941   7.115   2.299   6.988  1.1764  0.4607 -1.2707
 1614SOL     OW 5942   3.850   0.125   5.112 -0.2185  0.2397  0.3214
 1614SOL    HW1 5943   3.769   0.115   5.160 -0.6031  1.8400  0.0856
 1614SOL    HW2 5944   3.910   0.168   5.173  0.3242 -0.5299  0.3513
 1615SOL     OW 5945   2.586   3.266   3.898  0.3529  0.3052 -0.0576
 1615SOL    HW1 5946   2.520   3.231   3.958  1.8638  0.5609  1.8444
 1615SOL    HW2 5947   2.562   3.229   3.813 -2.4910  0.7823  0.4332
 1616SOL     OW 5948   1.227   7.302   2.211  0.1445 -0.1881 -0.2910
 1616SOL    HW1 5949   1.265   7.308   2.299 -0.6712  1.9475 -0.0356
 1616SOL    HW2 5950   1.292   7.252   2.161  2.0389  1.0441  0.8006
 1617SOL     OW 5951   0.129   1.730   1.883 -0.1234  0.3359 -0.6549
 1617SOL    HW1 5952   0.086   1.655   1.925 -0.0279  0.0950 -0.9825
 1617SOL    HW2 5953   0.214   1.736   1.928  0.5524 -0.7714 -1.7059
 1618SOL     OW 5954   0.396   5.535   7.246  0.4491 -0.1519  0.2578
 1618SOL    HW1 5955   0.341   5.607   7.215  2.0630  1.1985  0.3837
 1618SOL    HW2 5956   0.434   5.567   7.327 -0.8456 -2.2325  1.7960
 1619SOL     OW 5957   8.079   2.796   7.711 -0.3119  0.6585 -0.1991
 1619SOL    HW1 5958   8.090   2.807   7.806  0.7950  0.9160 -0.3488
 1619SOL    HW2 5959   8.165   2.814   7.674 -0.6464  0.2325 -1.2363
 1620SOL     OW 5960   3.847   0.478   0.424 -0.1427 -0.1146  0.3477
 1620SOL    HW1 5961   3.854   0.538   0.350 -1.0336  0.5033  0.7357
 1620SOL    HW2 5962   3.886   0.526   0.497  1.2490 -0.9433  0.1844
 1621SOL     OW 5963   4.076   5.659   3.993  0.1908  0.3952  0.4735
 1621SOL    HW1 5964   4.108   5.747   3.970  0.2554  0.6404  1.4349
 1621SOL    HW2 5965   4.150   5.601   3.977 -0.3217  0.2540 -1.6488
 1622SOL     OW 5966   1.636   8.781   0.861 -0.2002  0.1658  0.1730
 1622SOL    HW1 5967   1.676   8.696   0.843 -0.5482 -0.5201  2.3608
 1622SOL    HW2 5968   1.588   8.769   0.942 -0.0784  2.5319  0.6895
 1623SOL     OW 5969   2.902   8.442   2.345  0.3759 -0.5471  0.0662
 1623SOL    HW1 5970   2.912   8.347   2.353  0.7259 -0.5407 -0.2956
 1623SOL    HW2 5971   2.940   8.464   2.260 -0.7200 -0.2345 -0.3623
 1624SOL     OW 5972   7.880   6.235   1.442  0.1139  0.1723  0.0740
 1624SOL    HW1 5973   7.894   6.202   1.531  0.4804  1.7869  0.6528
 1624SOL    HW2 5974   7.930   6.317   1.439 -0.3218  0.4077 -1.4518
 1625SOL     OW 5975   3.683   8.135   0.570 -0.1620 -0.1240  0.3184
 1625SOL    HW1 5976   3.721   8.091   0.495 -0.9895 -0.1596 -0.0853
 1625SOL    HW2 5977   3.588   8.127   0.558 -0.3057  0.1518  1.1917
 1626SOL     OW 5978   4.109   5.434   8.492  0.0996  0.2748  0.1605
 1626SOL    HW1 5979   4.109   5.380   8.413 -1.9239 -0.2627  0.4784
 1626SOL    HW2 5980   4.193   5.416   8.533  2.0594  1.9393 -2.7058
 1627SOL     OW 5981   7.703   5.471   6.374 -0.2348 -0.0217 -0.1114
 1627SOL    HW1 5982   7.735   5.487   6.462 -0.0423  1.5303 -0.4346
 1627SOL    HW2 5983   7.614   5.506   6.374 -0.6260 -0.9739 -0.2563
 1628SOL     OW 5984   5.248   0.081   9.071 -0.1789 -0.0017  0.4163
 1628SOL    HW1 5985   5.329   0.042   9.037 -1.1977  0.4201 -2.8069
 1628SOL    HW2 5986   5.278   0.159   9.119  1.3586  0.5803 -1.3346
 1629SOL     OW 5987   1.066   3.696   5.724  0.1444  0.4929  0.2538
 1629SOL    HW1 5988   1.108   3.626   5.774 -2.3870 -1.5709 -0.2965
 1629SOL    HW2 5989   1.019   3.748   5.790 -1.1233 -0.7014  0.3261
 1630SOL     OW 5990   0.936   0.288   8.429  0.2300 -0.5142 -0.3893
 1630SOL    HW1 5991   0.929   0.381   8.447 -2.3533 -0.8981  1.0628
 1630SOL    HW2 5992   1.023   0.264   8.461  2.2731  1.8346 -3.5841
 1631SOL     OW 5993   8.674   0.278   4.580 -0.1173  0.2520 -0.5499
 1631SOL    HW1 5994   8.704   0.333   4.652 -0.5208 -0.3703  0.1071
 1631SOL    HW2 5995   8.716   0.315   4.502 -1.6556  2.5117 -0.3920
 1632SOL     OW 5996   1.421   3.656   2.805 -0.2246 -0.7754  0.0289
 1632SOL    HW1 5997   1.488   3.703   2.756  1.1818 -0.7923  1.8449
 1632SOL    HW2 5998   1.430   3.565   2.776 -0.9629 -0.4508 -1.3124
 1633SOL     OW 5999   6.447   5.185   1.143  0.1156 -0.3791  0.3768
 1633SOL    HW1 6000   6.416   5.192   1.053  2.3008  0.3084 -0.3861
 1633SOL    HW2 6001   6.467   5.092   1.155  0.4748 -0.3641 -0.0986
 1634SOL     OW 6002   4.943   1.414   1.791 -0.0388  0.2771  0.5899
 1634SOL    HW1 6003   4.869   1.472   1.772 -1.6911 -1.5115  1.1955
 1634SOL    HW2 6004   4.903   1.338   1.833  2.1452 -0.8847  0.6919
 1635SOL     OW 6005   8.278   6.658   8.422  0.9647 -0.5005  0.0338
 1635SOL    HW1 6006   8.233   6.583   8.384 -0.9069 -0.2083  1.5004
 1635SOL    HW2 6007   8.358   6.667   8.370 -0.4301 -1.3333 -2.4430
 1636SOL     OW 6008   1.477   7.064   3.864  0.5250  0.5015 -0.0814
 1636SOL    HW1 6009   1.417   7.090   3.934  0.8691  0.9339  0.0562
 1636SOL    HW2 6010   1.513   7.146   3.831 -0.7827  0.4246 -1.8149
 1637SOL     OW 6011   4.704   7.186   2.428  0.4057 -0.0763  0.8917
 1637SOL    HW1 6012   4.710   7.274   2.466  1.4065 -0.4590  1.6751
 1637SOL    HW2 6013   4.676   7.201   2.338  1.6573  1.1348  0.6652
 1638SOL     OW 6014   1.647   8.472   2.354 -0.6087  0.6444 -0.3985
 1638SOL    HW1 6015   1.717   8.478   2.288  0.2939 -0.1944  0.4392
 1638SOL    HW2 6016   1.582   8.415   2.315  0.6201 -1.1000 -0.0178
 1639SOL     OW 6017   9.125   5.708   4.285 -0.4624 -0.3132  0.1198
 1639SOL    HW1 6018   9.143   5.790   4.332  1.2650 -0.3415 -0.4071
 1639SOL    HW2 6019   9.064   5.733   4.216  0.2430  0.5952 -0.1949
 1640SOL     OW 6020   4.725   1.365   4.274 -0.3532  0.2285  0.2537
 1640SOL    HW1 6021   4.754   1.328   4.191 -1.5202  0.6142 -0.3475
 1640SOL    HW2 6022   4.742   1.296   4.338  0.5553 -0.0747 -0.2925
 1641SOL     OW 6023   8.477   4.854   3.643  0.2312  0.4478 -0.2535
 1641SOL    HW1 6024   8.470   4.759   3.636 -0.8939  0.3831  1.3850
 1641SOL    HW2 6025   8.562   4.868   3.686  0.2023  0.1689 -0.1027
 1642SOL     OW 6026   0.148   5.627   8.583  0.1312 -0.3957  0.3604
 1642SOL    HW1 6027   0.115   5.577   8.508 -0.2156 -1.4957  1.2269
 1642SOL    HW2 6028   0.228   5.581   8.609  0.7952  0.5687  0.0629
 1643SOL     OW 6029   7.952   8.803   8.015  0.6493  0.3508  0.0647
 1643SOL    HW1 6030   7.984   8.880   8.062  0.0927  0.8713 -0.3906
 1643SOL    HW2 6031   7.862   8.825   7.992  1.3798  0.7939 -2.6670
 1644SOL     OW 6032   6.856   8.212   8.599  0.0694  0.0498  0.2396
 1644SOL    HW1 6033   6.764   8.199   8.621  0.0754  0.6600  0.6338
 1644SOL    HW2 6034   6.854   8.276   8.527  0.1798  0.0129  0.2036
 1645SOL     OW 6035   1.244   2.017   8.045 -0.1746  0.2989 -0.0067
 1645SOL    HW1 6036   1.258   1.927   8.017 -0.7247  0.5928 -1.2959
 1645SOL    HW2 6037   1.288   2.023   8.129  1.4272 -0.6755 -0.7389
 1646SOL     OW 6038   3.325   0.432   6.269  0.3412 -0.3839 -0.2379
 1646SOL    HW1 6039   3.313   0.492   6.195  0.0809 -0.3352 -0.1552
 1646SOL    HW2 6040   3.419   0.411   6.267  1.0182  2.0776  1.3255
 1647SOL     OW 6041   7.880   3.919   2.278  0.0425 -0.1502  0.5119
 1647SOL    HW1 6042   7.832   3.962   2.207  0.0904 -1.5393 -0.4095
 1647SOL    HW2 6043   7.813   3.893   2.341  0.1009  2.0254  1.5518
 1648SOL     OW 6044   6.951   1.786   3.361 -0.5650 -1.0335 -0.1862
 1648SOL    HW1 6045   7.009   1.722   3.403  0.6137 -0.3493 -0.6933
 1648SOL    HW2 6046   6.963   1.771   3.267 -0.0261  0.1138 -0.3212
 1649SOL     OW 6047   5.674   7.220   7.982 -0.4647  0.3853 -0.3467
 1649SOL    HW1 6048   5.596   7.275   7.990  1.4944  3.4034 -0.3969
 1649SOL    HW2 6049   5.691   7.189   8.071 -0.4201  1.7260  0.1355
 1650SOL     OW 6050   3.631   7.134   8.568 -0.5010  0.1074 -0.0098
 1650SOL    HW1 6051   3.586   7.156   8.649 -1.8236 -0.3679 -0.5918
 1650SOL    HW2 6052   3.714   7.095   8.597 -0.2510  1.3835  1.0737
 1651SOL     OW 6053   5.852   6.990   2.849  0.2429  0.0788  0.2909
 1651SOL    HW1 6054   5.847   7.019   2.940  0.7670  0.7419  0.1094
 1651SOL    HW2 6055   5.925   7.038   2.812 -0.6260  0.6058 -0.7770
 1652SOL     OW 6056   7.717   6.969   1.514  0.1728  0.7141  0.2897
 1652SOL    HW1 6057   7.741   6.966   1.422 -0.1491  0.9381  0.1968
 1652SOL    HW2 6058   7.650   6.900   1.524  0.9113  0.0213  0.5689
 1653SOL     OW 6059   3.931   8.862   1.364  0.0787  0.0672 -0.1690
 1653SOL    HW1 6060   3.897   8.896   1.447  1.0531  0.1088  0.2248
 1653SOL    HW2 6061   3.857   8.815   1.326 -0.7164  0.9922  0.1836
 1654SOL     OW 6062   1.234   7.200   2.715  0.0872 -0.1809  0.4053
 1654SOL    HW1 6063   1.147   7.238   2.713  0.6681  1.1675 -0.7609
 1654SOL    HW2 6064   1.278   7.236   2.638  1.3594 -1.6101  0.4135
 1655SOL     OW 6065   0.822   1.490   4.925 -0.3802 -0.1688 -0.2632
 1655SOL    HW1 6066   0.801   1.570   4.974 -0.6636  0.3372 -1.1938
 1655SOL    HW2 6067   0.842   1.425   4.993  2.3564  1.3208  0.5195
 1656SOL     OW 6068   2.247   5.197   0.531 -0.5920  0.2532  0.6805
 1656SOL    HW1 6069   2.174   5.150   0.490  0.2117 -0.4434  0.0150
 1656SOL    HW2 6070   2.254   5.158   0.618  0.6805 -1.6243 -0.1940
 1657SOL     OW 6071   5.526   0.201   8.165 -0.2168 -0.0108  0.4263
 1657SOL    HW1 6072   5.497   0.152   8.242  0.7051 -0.2511  0.6284
 1657SOL    HW2 6073   5.468   0.171   8.095 -0.9940  0.1296  0.9849
 1658SOL     OW 6074   0.877   0.792   1.533  0.1440 -0.1115  0.3780
 1658SOL    HW1 6075   0.828   0.710   1.535 -0.9332  0.4778 -0.4900
 1658SOL    HW2 6076   0.968   0.765   1.515 -0.6487 -1.0138 -3.0544
 1659SOL     OW 6077   5.559   7.906   8.451  0.4556  0.0800  0.5092
 1659SOL    HW1 6078   5.560   7.920   8.545  1.4014  1.1846  0.3580
 1659SOL    HW2 6079   5.552   7.994   8.414  0.6696 -0.2959 -0.4585
 1660SOL     OW 6080   1.401   3.087   2.275  0.1192 -0.0652 -0.2007
 1660SOL    HW1 6081   1.346   3.133   2.338  1.2701  3.4842 -1.5813
 1660SOL    HW2 6082   1.340   3.052   2.211 -0.7413  0.8053  0.1217
 1661SOL     OW 6083   2.439   7.806   7.986  0.0310  0.2886 -0.0477
 1661SOL    HW1 6084   2.429   7.711   7.992  1.7543  0.1095  0.6475
 1661SOL    HW2 6085   2.363   7.841   8.032  0.3085 -0.7898  1.2950
 1662SOL     OW 6086   1.640   7.540   6.792  0.3468 -0.3100 -0.2091
 1662SOL    HW1 6087   1.706   7.590   6.744 -1.2253  0.3193 -1.8098
 1662SOL    HW2 6088   1.672   7.450   6.790  1.3278  0.0371 -0.6537
 1663SOL     OW 6089   8.461   5.157   0.366  0.4233 -0.0388 -0.6821
 1663SOL    HW1 6090   8.467   5.146   0.460 -0.7396 -0.5521 -0.6439
 1663SOL    HW2 6091   8.512   5.085   0.329  0.4064 -0.1676 -0.4497
 1664SOL     OW 6092   3.184   0.390   1.129 -0.2021 -0.1934  0.3948
 1664SOL    HW1 6093   3.243   0.460   1.101 -0.1472  0.2439  1.5543
 1664SOL    HW2 6094   3.097   0.429   1.125 -0.3650 -0.6162 -0.6197
 1665SOL     OW 6095   5.817   9.028   7.004  0.2263  0.0492 -0.0756
 1665SOL    HW1 6096   5.827   9.022   7.099 -1.6315  2.6031  0.3813
 1665SOL    HW2 6097   5.723   9.028   6.989  0.4689  0.2737 -1.8875
 1666SOL     OW 6098   2.531   0.669   8.631  0.1870  0.1700  0.4131
 1666SOL    HW1 6099   2.559   0.760   8.630  1.0195 -0.0394  2.0669
 1666SOL    HW2 6100   2.472   0.662   8.556  0.7670  1.8407 -0.2534
 1667SOL     OW 6101   6.619   6.684   5.606  0.1118  0.0373  0.3226
 1667SOL    HW1 6102   6.687   6.680   5.673  0.6348 -0.5421 -0.2274
 1667SOL    HW2 6103   6.644   6.616   5.543  0.6617  1.7235 -1.3888
 1668SOL     OW 6104   2.149   0.086   8.473  0.4935 -0.3621  0.3136
 1668SOL    HW1 6105   2.157  -0.007   8.450 -0.7646 -0.1416 -1.1437
 1668SOL    HW2 6106   2.231   0.106   8.519  1.8536 -1.6034 -1.4367
 1669SOL     OW 6107   2.267   7.701   3.630  0.4437  0.7619  0.3728
 1669SOL    HW1 6108   2.328   7.635   3.664 -0.9399 -0.2443  0.9869
 1669SOL    HW2 6109   2.228   7.739   3.708 -2.2239 -1.0494  0.0655
 1670SOL     OW 6110   5.387   5.425   5.120 -0.1585  0.4022  0.0670
 1670SOL    HW1 6111   5.312   5.367   5.126  1.2507 -1.4241  1.4989
 1670SOL    HW2 6112   5.436   5.394   5.044 -1.0191  1.9045 -1.1694
 1671SOL     OW 6113   7.582   1.196   8.752  0.4891 -0.3836 -0.1115
 1671SOL    HW1 6114   7.532   1.223   8.675  0.0555 -0.7463  0.0407
 1671SOL    HW2 6115   7.672   1.190   8.721  0.5703  0.9874 -0.2105
 1672SOL     OW 6116   8.573   4.836   4.225 -0.3022  0.3443  0.9201
 1672SOL    HW1 6117   8.512   4.802   4.160  0.8461  2.1855 -1.3068
 1672SOL    HW2 6118   8.659   4.832   4.181  0.4315  2.2322  2.0406
 1673SOL     OW 6119   4.237   5.842   3.765  0.1845  0.4933 -0.3203
 1673SOL    HW1 6120   4.163   5.892   3.800  1.7351  1.8534  1.2836
 1673SOL    HW2 6121   4.198   5.770   3.717 -2.1631  1.6199 -0.2286
 1674SOL     OW 6122   4.916   8.905   7.643  1.2312 -0.2149 -0.3840
 1674SOL    HW1 6123   4.996   8.949   7.618  1.0757  0.4990  0.3369
 1674SOL    HW2 6124   4.846   8.967   7.623  1.0477  0.0910  1.0636
 1675SOL     OW 6125   1.841   3.712   3.340  0.0232  0.4629  0.4150
 1675SOL    HW1 6126   1.935   3.714   3.324 -0.0497  1.2499  0.0162
 1675SOL    HW2 6127   1.826   3.783   3.403 -0.3453  0.5734  0.2092
 1676SOL     OW 6128   3.233   0.204   4.282  0.1852 -0.2987  0.3907
 1676SOL    HW1 6129   3.309   0.186   4.336  0.8223  1.8967  0.3196
 1676SOL    HW2 6130   3.203   0.290   4.311 -1.4671 -0.5290 -0.5041
 1677SOL     OW 6131   3.313   6.601   1.482 -0.2379  0.3910 -0.0964
 1677SOL    HW1 6132   3.246   6.550   1.527  0.7844 -1.4437 -0.5943
 1677SOL    HW2 6133   3.268   6.638   1.406 -0.4928 -1.6574 -1.0001
 1678SOL     OW 6134   8.707   1.882   2.906  0.3018 -0.0901  0.5101
 1678SOL    HW1 6135   8.788   1.865   2.955  0.9415  1.4484  0.0396
 1678SOL    HW2 6136   8.692   1.801   2.857  1.1198 -0.6872  1.1986
 1679SOL     OW 6137   0.109   6.075   8.250  0.3069 -0.4102 -0.2537
 1679SOL    HW1 6138   0.125   6.019   8.174 -0.2787  1.7551 -2.0834
 1679SOL    HW2 6139   0.182   6.137   8.249  0.9556 -1.0836  1.7333
 1680SOL     OW 6140   0.009   0.801   7.218 -0.4122  0.2580 -0.0807
 1680SOL    HW1 6141   0.070   0.873   7.235 -1.4228  1.1090  0.0322
 1680SOL    HW2 6142  -0.072   0.828   7.262 -1.0020 -0.6552 -0.5907
 1681SOL     OW 6143   1.894   1.398   1.503  0.2680  0.4234  0.0396
 1681SOL    HW1 6144   1.803   1.369   1.503  0.2161  0.5625  0.7893
 1681SOL    HW2 6145   1.894   1.480   1.453 -0.0988  0.6609  0.4278
 1682SOL     OW 6146   2.936   4.534   3.430  0.1740  0.0937 -0.0784
 1682SOL    HW1 6147   2.902   4.559   3.516 -0.1729 -0.2896 -0.0966
 1682SOL    HW2 6148   2.865   4.555   3.369  1.2096  2.3675 -0.5828
 1683SOL     OW 6149   5.272   7.177   4.402  0.2601 -0.1165 -0.4332
 1683SOL    HW1 6150   5.221   7.113   4.352  0.7062  0.6286 -1.8806
 1683SOL    HW2 6151   5.354   7.132   4.423 -1.0902 -1.5382  2.4204
 1684SOL     OW 6152   6.829   5.975   6.637  0.5171  0.1394 -0.2153
 1684SOL    HW1 6153   6.845   6.019   6.554  2.2233  0.5906  0.3036
 1684SOL    HW2 6154   6.774   5.900   6.615  1.6638 -0.2567 -1.9071
 1685SOL     OW 6155   5.170   8.299   3.531 -0.4304  0.7867 -0.0772
 1685SOL    HW1 6156   5.196   8.233   3.596  1.2008  0.8327 -0.6436
 1685SOL    HW2 6157   5.103   8.255   3.478 -0.7014  0.2337  0.7001
 1686SOL     OW 6158   8.336   8.814   2.626  0.1363  0.0394 -0.6920
 1686SOL    HW1 6159   8.382   8.784   2.548  0.6362 -2.0504  0.3631
 1686SOL    HW2 6160   8.404   8.850   2.682  0.0128 -0.0307 -0.4964
 1687SOL     OW 6161   6.642   0.510   8.949  0.1344  0.1650 -0.1008
 1687SOL    HW1 6162   6.638   0.439   9.014  4.6321 -3.7903 -3.4374
 1687SOL    HW2 6163   6.561   0.500   8.899 -1.2851  0.3693  2.0098
 1688SOL     OW 6164   6.894   4.745   8.567  0.5206  0.3929  0.1876
 1688SOL    HW1 6165   6.832   4.756   8.639  0.0221  3.2372 -0.5442
 1688SOL    HW2 6166   6.979   4.767   8.606  0.4690  0.4217  0.2865
 1689SOL     OW 6167   0.675   0.805   6.714 -0.2612  0.1125  0.9281
 1689SOL    HW1 6168   0.747   0.745   6.694  0.2113  1.0654 -0.3982
 1689SOL    HW2 6169   0.602   0.748   6.739  0.4573 -0.9592  0.6301
 1690SOL     OW 6170   2.169   3.722   5.307 -0.3319 -0.6570 -0.0066
 1690SOL    HW1 6171   2.125   3.676   5.379 -0.3522  0.9586  1.0901
 1690SOL    HW2 6172   2.101   3.735   5.241 -0.0971 -2.9350 -0.7560
 1691SOL     OW 6173   8.655   4.016   7.624  0.3684  0.3874 -0.2921
 1691SOL    HW1 6174   8.683   4.076   7.555  0.0154 -0.6353 -1.3804
 1691SOL    HW2 6175   8.570   4.051   7.653  0.5210  0.8281 -0.3720
 1692SOL     OW 6176   5.072   1.222   6.496  0.8625 -0.1662  0.3235
 1692SOL    HW1 6177   5.125   1.264   6.427  0.7979 -0.6682 -0.0359
 1692SOL    HW2 6178   5.041   1.141   6.456 -1.9036  1.0471 -0.2351
 1693SOL     OW 6179   6.938   0.817   3.319  0.6331 -0.0722 -0.5301
 1693SOL    HW1 6180   6.888   0.785   3.394  1.7272 -0.7394 -0.0654
 1693SOL    HW2 6181   6.896   0.900   3.297 -0.3999 -0.3992  0.1161
 1694SOL     OW 6182   0.747   6.626   5.301  0.3521  0.1383  0.0470
 1694SOL    HW1 6183   0.799   6.646   5.378  0.3052  1.3707 -0.2264
 1694SOL    HW2 6184   0.811   6.610   5.232  0.3976  1.3004 -0.2018
 1695SOL     OW 6185   5.025   4.424   7.411 -0.0136 -0.7781 -0.1966
 1695SOL    HW1 6186   5.070   4.501   7.377 -1.3364 -0.3168 -0.9831
 1695SOL    HW2 6187   5.013   4.442   7.504  0.1994 -0.2944 -0.2596
 1696SOL     OW 6188   3.803   0.942   7.312 -0.4292 -0.4279 -0.1641
 1696SOL    HW1 6189   3.891   0.980   7.312 -0.8851  0.6545 -0.5029
 1696SOL    HW2 6190   3.818   0.847   7.311  0.7624 -0.3931  3.0292
 1697SOL     OW 6191   6.408   2.241   7.288 -0.4571  0.0467  0.2756
 1697SOL    HW1 6192   6.455   2.291   7.221 -0.7920  0.4706  0.3516
 1697SOL    HW2 6193   6.453   2.156   7.290 -1.5834 -0.6709 -1.8155
 1698SOL     OW 6194   1.821   0.764   1.096  0.0316  0.0500 -0.1623
 1698SOL    HW1 6195   1.850   0.673   1.091  1.1626  0.3650  0.4570
 1698SOL    HW2 6196   1.799   0.776   1.189 -0.7561  0.2335 -0.3610
 1699SOL     OW 6197   6.956   2.572   7.262 -0.1705  0.0475 -0.2419
 1699SOL    HW1 6198   6.911   2.560   7.346  0.3002 -0.5543 -0.0676
 1699SOL    HW2 6199   7.009   2.650   7.275 -1.0646  0.6985 -0.4124
 1700SOL     OW 6200   5.734   8.623   0.663  0.1908 -0.6476 -0.3082
 1700SOL    HW1 6201   5.666   8.560   0.686  1.3213 -1.9387 -0.3470
 1700SOL    HW2 6202   5.774   8.588   0.583  0.6524  0.2953 -0.5158
 1701SOL     OW 6203   5.013   3.750   4.300 -0.0983  0.6637  0.2143
 1701SOL    HW1 6204   5.094   3.701   4.294 -0.2330  0.3263  1.0412
 1701SOL    HW2 6205   4.965   3.727   4.220 -0.1269 -0.5042  0.5493
 1702SOL     OW 6206   1.840   6.758   1.122 -0.2574  0.6582 -0.9467
 1702SOL    HW1 6207   1.782   6.831   1.142 -0.6935 -0.2145  1.2159
 1702SOL    HW2 6208   1.782   6.683   1.114  0.4565 -0.0716  0.4104
 1703SOL     OW 6209   2.300   2.508   2.199 -0.6480  0.0613  0.2658
 1703SOL    HW1 6210   2.395   2.509   2.189 -0.6668 -2.4968 -1.1573
 1703SOL    HW2 6211   2.286   2.473   2.287 -0.2844  0.4313  0.4753
 1704SOL     OW 6212   4.884   4.746   9.001 -0.3333  0.0372 -0.0767
 1704SOL    HW1 6213   4.958   4.803   9.022 -1.3337  1.2586  0.2964
 1704SOL    HW2 6214   4.914   4.658   9.020  0.5114  0.6500  1.5771
 1705SOL     OW 6215   7.234   2.367   4.369 -0.0318  0.5473 -0.4542
 1705SOL    HW1 6216   7.201   2.308   4.437 -1.7232  2.5607  0.5697
 1705SOL    HW2 6217   7.201   2.330   4.287  0.8340 -1.1152 -0.0975
 1706SOL     OW 6218   3.334   7.026   7.414 -0.2301  0.3008  0.2297
 1706SOL    HW1 6219   3.410   6.971   7.395  0.1580  1.1626 -0.7886
 1706SOL    HW2 6220   3.318   7.075   7.333 -1.4707  0.6230  0.6383
 1707SOL     OW 6221   4.754   6.760   8.961  0.2247  0.5080  0.2766
 1707SOL    HW1 6222   4.756   6.742   9.055 -0.2055  0.5349  0.2935
 1707SOL    HW2 6223   4.754   6.673   8.921 -0.5177  0.4804  0.3266
 1708SOL     OW 6224   8.662   2.495   2.060  0.4252 -0.6118  0.5717
 1708SOL    HW1 6225   8.678   2.560   2.128  1.4495  0.3826 -0.5619
 1708SOL    HW2 6226   8.748   2.478   2.022 -0.2136 -0.3539 -1.1274
 1709SOL     OW 6227   3.677   7.444   3.389  0.4259 -0.1889  0.0286
 1709SOL    HW1 6228   3.680   7.360   3.343 -0.7931  0.0765 -0.5868
 1709SOL    HW2 6229   3.611   7.432   3.457 -0.0245  0.3705 -0.2959
 1710SOL     OW 6230   1.324   8.004   5.913  0.2235  0.3981  0.2588
 1710SOL    HW1 6231   1.417   8.004   5.890 -0.1635 -1.0417 -1.4460
 1710SOL    HW2 6232   1.303   7.912   5.928 -0.5696  0.8688  2.3543
 1711SOL     OW 6233   7.975   6.895   2.011 -0.7525  0.0936  0.7559
 1711SOL    HW1 6234   8.033   6.971   2.006  0.0377 -0.4739  1.0853
 1711SOL    HW2 6235   8.028   6.827   2.053 -1.6503 -0.4479  1.0397
 1712SOL     OW 6236   3.258   3.217   8.184  0.5124 -0.4161  0.4137
 1712SOL    HW1 6237   3.301   3.278   8.244  0.2132 -0.1681  0.3769
 1712SOL    HW2 6238   3.328   3.158   8.155  1.2931  1.2601 -1.3019
 1713SOL     OW 6239   6.093   1.384   7.222  0.3934 -0.4170 -0.3348
 1713SOL    HW1 6240   6.036   1.314   7.252  0.1126  0.2609  0.7638
 1713SOL    HW2 6241   6.160   1.391   7.290  0.2680  0.5575 -0.3006
 1714SOL     OW 6242   7.532   1.794   2.069 -0.1859  0.4120  0.3024
 1714SOL    HW1 6243   7.464   1.823   2.130 -0.5216 -0.8596  0.5626
 1714SOL    HW2 6244   7.597   1.751   2.125 -1.5787 -2.8266 -0.3393
 1715SOL     OW 6245   8.143   8.151   3.522  0.1011 -0.2065  0.3801
 1715SOL    HW1 6246   8.108   8.219   3.580  0.5891 -0.3844  0.8850
 1715SOL    HW2 6247   8.070   8.090   3.511 -0.8151  1.0812 -1.1976
 1716SOL     OW 6248   0.438   8.965   8.052  0.0356 -0.6987  0.4389
 1716SOL    HW1 6249   0.398   8.943   7.968  0.7204 -0.0649 -0.0698
 1716SOL    HW2 6250   0.378   9.029   8.091 -0.1067 -0.7320  0.2741
 1717SOL     OW 6251   0.626   5.629   2.175  0.7816  0.4169 -0.0812
 1717SOL    HW1 6252   0.693   5.656   2.238  0.8702 -1.4892  0.6827
 1717SOL    HW2 6253   0.591   5.547   2.209  0.7202 -0.6243 -2.4400
 1718SOL     OW 6254   6.166   8.284   7.450 -0.8877 -0.0953 -0.0204
 1718SOL    HW1 6255   6.202   8.330   7.526  0.5242 -0.5471 -0.3825
 1718SOL    HW2 6256   6.073   8.306   7.450 -0.5283  1.5099  0.6858
 1719SOL     OW 6257   7.547   4.416   5.023  0.5606 -0.0297  0.4888
 1719SOL    HW1 6258   7.577   4.472   4.952  0.2072 -1.3093 -0.7194
 1719SOL    HW2 6259   7.481   4.467   5.069 -0.5027  0.2017 -1.2080
 1720SOL     OW 6260   0.097   3.894   0.022 -0.1669  0.8515  0.2748
 1720SOL    HW1 6261   0.122   3.985   0.042 -0.9787  1.3368 -0.8313
 1720SOL    HW2 6262   0.048   3.865   0.098  2.6890  0.2457  2.0355
 1721SOL     OW 6263   5.973   3.179   3.920  0.0965  0.3756  0.3917
 1721SOL    HW1 6264   6.046   3.241   3.913 -0.3917  0.7815 -1.7901
 1721SOL    HW2 6265   5.987   3.118   3.848  0.2324 -1.7697  2.1313
 1722SOL     OW 6266   3.585   0.772   6.506 -0.1467 -0.3783 -0.0267
 1722SOL    HW1 6267   3.609   0.809   6.591 -0.4659 -1.4601  0.5562
 1722SOL    HW2 6268   3.558   0.683   6.526  1.0623 -1.1036 -1.4277
 1723SOL     OW 6269   3.406   8.563   6.819 -0.5032  0.0686  0.0575
 1723SOL    HW1 6270   3.424   8.651   6.786 -0.4536  0.1165  0.2121
 1723SOL    HW2 6271   3.358   8.520   6.748  0.9925 -0.3584 -0.7479
 1724SOL     OW 6272   5.418   2.970   6.429 -0.0672 -0.1817  0.2840
 1724SOL    HW1 6273   5.418   2.991   6.336  0.5770 -1.7662 -0.1188
 1724SOL    HW2 6274   5.506   2.938   6.447 -0.0168  0.6275  1.5794
 1725SOL     OW 6275   5.135   5.560   7.470  0.7340 -0.0138 -0.4419
 1725SOL    HW1 6276   5.198   5.519   7.411  1.2725 -0.3554  0.3531
 1725SOL    HW2 6277   5.188   5.615   7.528  0.3548 -0.5203  0.4147
 1726SOL     OW 6278   4.951   4.706   1.414  0.0956 -0.1834  0.3700
 1726SOL    HW1 6279   4.992   4.773   1.469 -0.4186 -0.0237  0.5633
 1726SOL    HW2 6280   4.857   4.725   1.419  0.1166  1.1879 -2.2543
 1727SOL     OW 6281   3.314   2.694   0.583  0.2374  0.0849  0.5011
 1727SOL    HW1 6282   3.325   2.772   0.529  1.5558 -1.5846 -1.7767
 1727SOL    HW2 6283   3.387   2.637   0.560 -0.3554 -1.6312  2.5174
 1728SOL     OW 6284   4.063   3.985   4.762  0.2225  0.1175  0.2354
 1728SOL    HW1 6285   4.096   4.058   4.813  0.1814 -0.8393  1.6824
 1728SOL    HW2 6286   4.089   3.907   4.811 -2.4013 -0.7513  0.4282
 1729SOL     OW 6287   0.987   0.087   8.709 -0.1377  0.1951 -0.5062
 1729SOL    HW1 6288   1.027   0.172   8.694 -1.9181  1.2600  0.5383
 1729SOL    HW2 6289   0.978   0.080   8.804  0.5298 -1.4526 -0.5216
 1730SOL     OW 6290   2.671   2.744   5.769  0.0489 -0.2355  0.9670
 1730SOL    HW1 6291   2.731   2.783   5.833  0.2556  1.8048 -0.3803
 1730SOL    HW2 6292   2.728   2.711   5.700 -0.3035  0.1188  0.5053
 1731SOL     OW 6293   7.291   6.543   8.420 -0.1992  0.8102 -0.1867
 1731SOL    HW1 6294   7.207   6.499   8.433  0.2833  0.4069  1.9819
 1731SOL    HW2 6295   7.282   6.627   8.466  0.2266  1.2561 -0.8977
 1732SOL     OW 6296   1.329   1.307   6.196 -0.3975 -0.4918 -0.5953
 1732SOL    HW1 6297   1.284   1.222   6.199  0.4685 -0.9976 -1.3071
 1732SOL    HW2 6298   1.261   1.370   6.172 -1.6275 -0.5293  2.3368
 1733SOL     OW 6299   0.346   9.112   6.849  0.1814  0.1015  0.5621
 1733SOL    HW1 6300   0.306   9.111   6.937  0.5754 -1.3006  0.7486
 1733SOL    HW2 6301   0.440   9.108   6.866  0.2292 -1.2388  0.0855
 1734SOL     OW 6302   4.515   0.653   0.810  0.1704  0.4846 -0.1932
 1734SOL    HW1 6303   4.445   0.599   0.846 -0.4085 -1.2996 -3.6574
 1734SOL    HW2 6304   4.596   0.616   0.846 -0.4540  0.3710  1.1341
 1735SOL     OW 6305   3.337   8.370   8.517 -0.3713  0.0410  0.2224
 1735SOL    HW1 6306   3.322   8.412   8.602  3.4668 -0.8006  1.5320
 1735SOL    HW2 6307   3.311   8.436   8.453 -0.8488  1.7556  2.0673
 1736SOL     OW 6308   2.121   4.915   7.635  0.0437 -0.1410  0.2432
 1736SOL    HW1 6309   2.203   4.955   7.660 -0.7463  1.6363  0.1271
 1736SOL    HW2 6310   2.086   4.971   7.566 -0.7168 -1.5132 -0.5431
 1737SOL     OW 6311   7.453   6.407   7.414 -0.0189  0.5116  0.5285
 1737SOL    HW1 6312   7.536   6.450   7.435  1.1484 -1.4255  0.1375
 1737SOL    HW2 6313   7.434   6.354   7.491 -1.2576  1.4177  0.8712
 1738SOL     OW 6314   8.765   2.058   8.809 -0.4509  0.1296  0.5119
 1738SOL    HW1 6315   8.675   2.048   8.839 -1.3283  1.1358 -1.5492
 1738SOL    HW2 6316   8.790   1.972   8.776 -0.9274  0.0199  0.4372
 1739SOL     OW 6317   5.338   4.516   5.913 -0.8479 -0.0238  0.6287
 1739SOL    HW1 6318   5.271   4.516   5.982 -1.1269 -0.1347  0.3577
 1739SOL    HW2 6319   5.288   4.518   5.831 -0.5787 -1.7746  0.3786
 1740SOL     OW 6320   0.592   1.535   0.334 -0.2707  0.4853  0.2097
 1740SOL    HW1 6321   0.593   1.506   0.425  1.2145 -0.1345  0.0189
 1740SOL    HW2 6322   0.509   1.501   0.300  0.1593 -1.2198  0.7389
 1741SOL     OW 6323   4.152   8.064   8.502 -0.3805 -0.4416  0.3341
 1741SOL    HW1 6324   4.219   8.002   8.531  0.4127 -0.1839 -0.8676
 1741SOL    HW2 6325   4.201   8.143   8.478 -1.2950  0.3777  1.0941
 1742SOL     OW 6326   0.937   8.798   6.673 -0.3298  0.4771 -0.3242
 1742SOL    HW1 6327   0.986   8.803   6.591 -0.9184 -1.8747 -0.9150
 1742SOL    HW2 6328   0.853   8.839   6.654 -0.7219 -0.6443 -1.1824
 1743SOL     OW 6329   0.582   8.455   2.199 -0.2097 -0.3327  0.0960
 1743SOL    HW1 6330   0.509   8.517   2.195  0.9745  1.2080  1.1320
 1743SOL    HW2 6331   0.627   8.476   2.281  0.6782 -2.0935  0.1144
 1744SOL     OW 6332   4.546   8.611   1.959 -0.0563  0.7678 -0.1447
 1744SOL    HW1 6333   4.494   8.603   2.039  1.3674 -0.0173  0.7388
 1744SOL    HW2 6334   4.572   8.703   1.956  1.4020  0.4498  1.3365
 1745SOL     OW 6335   5.003   0.121   3.178 -0.4681  0.4322  0.3429
 1745SOL    HW1 6336   5.005   0.131   3.083  0.0751 -1.4733  0.1204
 1745SOL    HW2 6337   5.091   0.144   3.207 -0.2458 -0.2507  0.2246
 1746SOL     OW 6338   8.606   5.023   8.681 -0.4499  0.4726 -0.3293
 1746SOL    HW1 6339   8.564   5.023   8.595  1.1572  0.5800 -1.1561
 1746SOL    HW2 6340   8.602   4.932   8.711 -3.3719  0.8612  0.7497
 1747SOL     OW 6341   0.036   0.686   5.949  0.0098 -0.3692  0.4966
 1747SOL    HW1 6342   0.086   0.758   5.987 -2.5764  3.3227 -2.2905
 1747SOL    HW2 6343  -0.042   0.679   6.005 -0.0406 -0.5813  0.4009
 1748SOL     OW 6344   8.800   3.711   7.540 -0.0037 -0.2098 -0.0703
 1748SOL    HW1 6345   8.736   3.782   7.544 -1.1690 -1.1860 -0.6167
 1748SOL    HW2 6346   8.765   3.643   7.598  0.6840 -0.6426 -0.1519
 1749SOL     OW 6347   7.478   3.440   7.401 -0.5411 -0.6564  0.1823
 1749SOL    HW1 6348   7.452   3.352   7.430  0.1016 -0.1629  2.4626
 1749SOL    HW2 6349   7.560   3.426   7.353 -0.5683 -1.3498  0.3289
 1750SOL     OW 6350   2.686   3.057   5.894 -0.0463 -0.3410  0.3628
 1750SOL    HW1 6351   2.720   2.976   5.855 -0.2579 -0.0075 -0.5187
 1750SOL    HW2 6352   2.609   3.028   5.943  0.4787 -0.8303  0.9209
 1751SOL     OW 6353   6.482   1.748   0.310  0.0783 -0.1612  0.3173
 1751SOL    HW1 6354   6.395   1.714   0.328 -0.4658  1.7013  1.4368
 1751SOL    HW2 6355   6.475   1.788   0.223 -0.0780 -0.2898  0.2707
 1752SOL     OW 6356   3.381   3.591   7.309  0.1179 -0.7779  0.0348
 1752SOL    HW1 6357   3.429   3.658   7.261 -0.8952  0.0189  0.0953
 1752SOL    HW2 6358   3.405   3.509   7.266  1.1828 -0.3530 -0.2032
 1753SOL     OW 6359   6.960   1.889   2.975  0.6205  0.1903 -0.7164
 1753SOL    HW1 6360   6.921   1.952   2.914  1.6821  0.6714 -0.9147
 1753SOL    HW2 6361   7.052   1.914   2.981  0.3715  0.8103  1.8790
 1754SOL     OW 6362   0.108   2.425   4.855 -0.2001 -0.5743 -0.0201
 1754SOL    HW1 6363   0.174   2.359   4.834 -0.7132 -0.9661 -0.4217
 1754SOL    HW2 6364   0.078   2.458   4.771  0.5958  0.7416  0.1876
 1755SOL     OW 6365   0.669   9.032   5.683  0.2406  0.2593  0.2852
 1755SOL    HW1 6366   0.680   9.127   5.689 -2.0771  0.6358 -0.3966
 1755SOL    HW2 6367   0.721   8.997   5.756 -0.0343  2.1534  1.4459
 1756SOL     OW 6368   6.745   6.557   3.124 -0.2230  0.1307 -0.0808
 1756SOL    HW1 6369   6.678   6.508   3.173 -1.0229  0.3196 -0.9801
 1756SOL    HW2 6370   6.824   6.548   3.178 -1.0862  0.3444  1.2552
 1757SOL     OW 6371   7.594   5.002   2.175  0.5293 -0.5132  0.2231
 1757SOL    HW1 6372   7.619   5.073   2.234  2.1765 -0.6967 -0.2152
 1757SOL    HW2 6373   7.676   4.959   2.152 -0.3494 -2.0683 -0.1736
 1758SOL     OW 6374   7.401   0.459   0.332 -0.2143  0.0064 -0.4740
 1758SOL    HW1 6375   7.442   0.457   0.245  0.8124 -1.6056 -0.0021
 1758SOL    HW2 6376   7.419   0.546   0.365 -0.8081  0.7291 -1.9528
 1759SOL     OW 6377   7.386   3.595   4.384 -0.1269  0.6171  0.0299
 1759SOL    HW1 6378   7.312   3.571   4.328 -1.2672  1.0572  1.2814
 1759SOL    HW2 6379   7.421   3.674   4.344 -1.8956  1.8206  0.6915
 1760SOL     OW 6380   5.867   1.198   5.853  0.3571  0.0481  0.5530
 1760SOL    HW1 6381   5.860   1.193   5.758  2.4681 -0.2755  0.3680
 1760SOL    HW2 6382   5.903   1.285   5.870 -0.4022  0.2654  1.1039
 1761SOL     OW 6383   8.078   1.995   9.060  0.3530 -0.0455 -0.1995
 1761SOL    HW1 6384   8.044   2.084   9.057  0.2455 -0.1110 -1.0880
 1761SOL    HW2 6385   8.117   1.980   8.974  1.7693 -0.3176  0.4505
 1762SOL     OW 6386   8.112   1.244   1.952  0.2213 -0.0027 -0.5580
 1762SOL    HW1 6387   8.205   1.226   1.965 -0.1701 -1.9736 -0.1546
 1762SOL    HW2 6388   8.094   1.215   1.863  0.0854  0.7910 -0.7906
 1763SOL     OW 6389   2.893   1.998   2.947 -0.3762  0.4654  1.1923
 1763SOL    HW1 6390   2.897   2.092   2.964 -0.7133  1.3320 -2.7159
 1763SOL    HW2 6391   2.802   1.981   2.926  0.4536  0.5807 -3.5334
 1764SOL     OW 6392   6.947   8.184   5.284  0.2329 -0.1552 -0.6715
 1764SOL    HW1 6393   6.856   8.207   5.269  0.4282  1.6809  0.6942
 1764SOL    HW2 6394   6.951   8.155   5.375  1.1185  0.4249 -0.5152
 1765SOL     OW 6395   4.599   5.489   5.878 -0.2159 -0.3970 -0.0957
 1765SOL    HW1 6396   4.601   5.533   5.963 -2.2225 -1.7997  0.7575
 1765SOL    HW2 6397   4.667   5.422   5.883 -0.7356 -0.8787  0.6622
 1766SOL     OW 6398   7.102   0.197   3.578 -0.8771 -0.2785 -0.4771
 1766SOL    HW1 6399   7.182   0.251   3.584 -0.0727 -1.4832  0.0394
 1766SOL    HW2 6400   7.098   0.152   3.663 -1.6824 -0.8187 -0.7949
 1767SOL     OW 6401   8.848   5.128   1.961  0.4767  0.1601 -0.2255
 1767SOL    HW1 6402   8.840   5.163   1.872  1.5652  0.8836 -0.0561
 1767SOL    HW2 6403   8.785   5.056   1.964  0.6020 -0.0440 -1.6645
 1768SOL     OW 6404   5.707   4.695   3.920 -0.0694 -0.3025  0.2171
 1768SOL    HW1 6405   5.710   4.658   3.832 -0.0008 -0.5164  0.3093
 1768SOL    HW2 6406   5.773   4.765   3.920 -2.6840  2.3774 -1.1069
 1769SOL     OW 6407   1.350   3.122   0.287  0.0458  0.1542 -0.7411
 1769SOL    HW1 6408   1.424   3.183   0.281  0.1644  0.0719 -0.1754
 1769SOL    HW2 6409   1.281   3.163   0.235  0.4564  0.2786 -1.1964
 1770SOL     OW 6410   3.715   2.715   2.967  0.0458  0.0748 -0.7301
 1770SOL    HW1 6411   3.664   2.781   2.921 -0.4151  0.4051  0.2267
 1770SOL    HW2 6412   3.685   2.721   3.058  2.7894  1.3485  0.2282
 1771SOL     OW 6413   3.800   8.752   4.134  0.1402  0.2921  0.5263
 1771SOL    HW1 6414   3.872   8.793   4.182  0.6558 -0.5065  0.4447
 1771SOL    HW2 6415   3.842   8.687   4.078 -0.6125  0.0782  0.1974
 1772SOL     OW 6416   5.533   3.890   8.514 -0.7926  0.9997 -0.6122
 1772SOL    HW1 6417   5.474   3.814   8.508  2.9834 -2.2602 -0.5769
 1772SOL    HW2 6418   5.571   3.898   8.427  1.8976 -0.0454  0.3506
 1773SOL     OW 6419   4.004   8.434   2.206 -0.0209 -0.5705  0.3041
 1773SOL    HW1 6420   3.992   8.519   2.249 -1.7299 -1.5547  1.8652
 1773SOL    HW2 6421   4.034   8.457   2.117 -1.0429  1.6784  0.4671
 1774SOL     OW 6422   6.888   3.447   0.267 -0.0460 -0.2802 -0.1128
 1774SOL    HW1 6423   6.865   3.536   0.241  0.1665  0.5861  2.3411
 1774SOL    HW2 6424   6.984   3.449   0.276 -0.1152 -0.4522  0.8163
 1775SOL     OW 6425   6.446   6.488   1.992 -0.7508  0.0436 -0.1115
 1775SOL    HW1 6426   6.514   6.465   2.055 -0.8425 -0.8879 -0.3453
 1775SOL    HW2 6427   6.486   6.475   1.906 -0.9570  0.3131 -0.2517
 1776SOL     OW 6428   1.543   5.150   4.888  0.4885 -0.1745  0.5087
 1776SOL    HW1 6429   1.540   5.170   4.981 -0.3336  0.6770  0.3121
 1776SOL    HW2 6430   1.545   5.054   4.884 -0.7156 -0.2605  1.3828
 1777SOL     OW 6431   4.514   2.159   1.917  0.5057 -0.7854  0.0166
 1777SOL    HW1 6432   4.562   2.191   1.994  1.4537 -1.2113 -0.3895
 1777SOL    HW2 6433   4.577   2.166   1.845 -0.0735 -1.2751 -0.5406
 1778SOL     OW 6434   5.328   5.549   6.890  0.1132  0.2529  0.2382
 1778SOL    HW1 6435   5.290   5.509   6.968 -0.9561  1.8351  0.5816
 1778SOL    HW2 6436   5.280   5.510   6.817  2.2486 -2.4918  0.1591
 1779SOL     OW 6437   9.097   4.897   0.879  0.4679 -0.3366  0.0137
 1779SOL    HW1 6438   9.005   4.883   0.858  0.3244 -1.3771  1.1786
 1779SOL    HW2 6439   9.105   4.991   0.891 -0.7481 -0.3406  1.1079
 1780SOL     OW 6440   2.653   4.202   6.883 -0.2825  0.3152  0.8858
 1780SOL    HW1 6441   2.662   4.260   6.959 -0.6743  0.8009  0.5742
 1780SOL    HW2 6442   2.565   4.166   6.892 -0.9242  1.5477 -0.1201
 1781SOL     OW 6443   5.405   1.234   0.547 -0.1729 -0.6358 -0.3484
 1781SOL    HW1 6444   5.339   1.256   0.612 -0.2458 -0.0020 -0.6315
 1781SOL    HW2 6445   5.369   1.158   0.501 -0.9426  0.0149 -0.8356
 1782SOL     OW 6446   7.431   3.323   8.855  0.6596 -0.1777  0.5252
 1782SOL    HW1 6447   7.340   3.305   8.832 -0.0405  1.0832  2.1059
 1782SOL    HW2 6448   7.444   3.281   8.940  2.1330 -1.8221 -0.4348
 1783SOL     OW 6449   4.234   0.986   3.067  0.1525  0.6242 -0.2540
 1783SOL    HW1 6450   4.251   0.950   2.979  0.0236  0.9197 -0.4011
 1783SOL    HW2 6451   4.142   0.964   3.084  0.7162 -1.2919  0.6904
 1784SOL     OW 6452   6.119   4.226   8.150  0.3181  0.2835  0.1035
 1784SOL    HW1 6453   6.137   4.208   8.058 -0.7225 -0.4105  0.0171
 1784SOL    HW2 6454   6.106   4.321   8.153  0.2173  0.2971 -0.4980
 1785SOL     OW 6455   6.591   3.677   7.612  0.0483  0.2583 -0.2322
 1785SOL    HW1 6456   6.522   3.674   7.546  0.3838 -1.2375 -0.5448
 1785SOL    HW2 6457   6.668   3.709   7.565  0.1716 -0.3804 -0.4786
 1786SOL     OW 6458   7.172   3.062   0.086 -0.2074 -0.0599  0.3771
 1786SOL    HW1 6459   7.232   3.063   0.160  0.0623 -2.0081  0.2427
 1786SOL    HW2 6460   7.099   3.008   0.115  1.1713 -3.3302 -1.5944
 1787SOL     OW 6461   3.343   8.192   7.012 -0.1151  0.3184 -0.1179
 1787SOL    HW1 6462   3.311   8.218   6.925  1.0231  1.5310 -0.2067
 1787SOL    HW2 6463   3.390   8.269   7.044  2.4279 -1.2148  0.1229
 1788SOL     OW 6464   0.234   4.675   2.047  0.0980 -0.0265 -0.4310
 1788SOL    HW1 6465   0.268   4.709   2.130 -0.7308  0.0855 -0.1194
 1788SOL    HW2 6466   0.147   4.642   2.069  1.2622 -3.5184 -0.4432
 1789SOL     OW 6467   5.639   3.682   2.474  0.4543  0.1047 -0.0493
 1789SOL    HW1 6468   5.598   3.745   2.534  0.5918  0.5807 -0.4428
 1789SOL    HW2 6469   5.650   3.603   2.526  1.3208  0.7588  0.8048
 1790SOL     OW 6470   0.802   6.973   1.429  0.3790 -0.6158 -0.2376
 1790SOL    HW1 6471   0.865   6.903   1.447 -0.2647 -0.6147  2.5239
 1790SOL    HW2 6472   0.742   6.970   1.504  0.1752  2.7138 -0.1291
 1791SOL     OW 6473   1.871   1.550   8.825 -0.2111  0.1106  0.3711
 1791SOL    HW1 6474   1.961   1.582   8.812  0.3809 -2.2019 -2.2449
 1791SOL    HW2 6475   1.872   1.509   8.911  0.9975  0.7980  0.7106
 1792SOL     OW 6476   9.133   8.972   6.581 -0.2030 -0.8372 -0.2572
 1792SOL    HW1 6477   9.117   8.879   6.565  0.1760 -0.7558 -1.1824
 1792SOL    HW2 6478   9.228   8.981   6.576 -0.3234 -0.0019 -2.7662
 1793SOL     OW 6479   2.267   7.689   7.052 -0.3004  0.3071 -0.2800
 1793SOL    HW1 6480   2.237   7.732   6.971 -0.5239  1.4285  0.3743
 1793SOL    HW2 6481   2.293   7.761   7.109  0.2825 -0.4956  0.4908
 1794SOL     OW 6482   8.277   7.159   0.772 -0.1395  0.2248 -0.1161
 1794SOL    HW1 6483   8.279   7.170   0.677 -1.9240 -1.1594 -0.3624
 1794SOL    HW2 6484   8.369   7.153   0.797  0.3431 -1.0124 -1.9632
 1795SOL     OW 6485   1.246   7.030   5.103  0.0166  0.0654 -0.5002
 1795SOL    HW1 6486   1.169   7.056   5.052 -0.7630 -0.4470  0.3922
 1795SOL    HW2 6487   1.302   6.984   5.040 -0.2356  0.7372 -1.2328
 1796SOL     OW 6488   4.096   6.047   1.775  0.4230 -0.0844 -0.4037
 1796SOL    HW1 6489   4.083   6.096   1.694  0.5728  0.7003  0.0371
 1796SOL    HW2 6490   4.007   6.037   1.811  0.3660 -0.3532 -0.6153
 1797SOL     OW 6491   7.676   8.553   6.967  0.1405 -0.2523 -0.6453
 1797SOL    HW1 6492   7.711   8.515   7.048 -2.4858  0.4214  0.9266
 1797SOL    HW2 6493   7.679   8.481   6.904  1.7253 -0.9657  0.1712
 1798SOL     OW 6494   8.388   7.670   4.521  0.1461 -0.0101  1.0785
 1798SOL    HW1 6495   8.296   7.694   4.521 -0.1171 -0.9568  1.0044
 1798SOL    HW2 6496   8.399   7.618   4.441  0.2465 -1.6443  2.0893
 1799SOL     OW 6497   6.204   9.079   7.637  0.1489  0.3511  0.0459
 1799SOL    HW1 6498   6.118   9.104   7.674 -0.3412  1.3576 -1.6772
 1799SOL    HW2 6499   6.249   9.036   7.710 -1.5298  0.4656  1.2214
 1800SOL     OW 6500   8.037   8.863   2.926  0.0746  0.0145 -0.0109
 1800SOL    HW1 6501   8.112   8.900   2.972 -0.8857  2.0763  0.0118
 1800SOL    HW2 6502   8.075   8.797   2.868  1.7591  0.1996  0.8154
 1801SOL     OW 6503   8.310   2.091   2.659  0.0318 -0.2918  0.1535
 1801SOL    HW1 6504   8.395   2.099   2.617  0.1949  0.0600  0.5478
 1801SOL    HW2 6505   8.261   2.167   2.628  0.5204  0.5742  1.4360
 1802SOL     OW 6506   4.878   7.710   8.733 -0.1503 -0.6536  0.5822
 1802SOL    HW1 6507   4.849   7.619   8.726  0.5369 -0.8112 -0.4508
 1802SOL    HW2 6508   4.831   7.755   8.663  1.3893 -0.7497 -0.5783
 1803SOL     OW 6509   8.021   3.096   7.512 -0.0430  0.0614  0.0645
 1803SOL    HW1 6510   8.091   3.037   7.483 -0.1811 -0.0602 -0.0255
 1803SOL    HW2 6511   8.058   3.183   7.501 -0.4532  0.0804 -1.5342
 1804SOL     OW 6512   6.655   4.838   2.452  0.3878 -0.0697 -0.1845
 1804SOL    HW1 6513   6.569   4.797   2.464  0.5201  0.1343  1.9241
 1804SOL    HW2 6514   6.640   4.931   2.467  0.8037  0.1074 -0.8421
 1805SOL     OW 6515   7.166   1.348   4.049  0.1509  0.2096 -0.0916
 1805SOL    HW1 6516   7.112   1.271   4.062  2.0845 -1.6013 -1.8931
 1805SOL    HW2 6517   7.104   1.418   4.030 -1.6191 -1.1721  0.3102
 1806SOL     OW 6518   9.010   4.346   9.012 -0.1424  0.1151 -0.0082
 1806SOL    HW1 6519   9.084   4.379   9.064  0.9351 -0.5336 -1.0709
 1806SOL    HW2 6520   8.940   4.332   9.076  0.3454  1.6102  0.8839
 1807SOL     OW 6521   8.947   5.669   7.963  0.6889 -0.4365  0.1817
 1807SOL    HW1 6522   8.867   5.629   7.928  0.3372 -0.0901  0.5684
 1807SOL    HW2 6523   8.947   5.646   8.056  1.4942 -1.1581  0.0134
 1808SOL     OW 6524   7.459   8.774   5.561 -0.2298  0.3010  0.1270
 1808SOL    HW1 6525   7.413   8.711   5.504 -0.2988  1.1386 -0.7796
 1808SOL    HW2 6526   7.524   8.721   5.607 -1.1346 -0.6590  0.3559
 1809SOL     OW 6527   4.341   5.037   5.921 -0.2734  0.2914  0.1734
 1809SOL    HW1 6528   4.330   5.029   6.016  0.9953 -0.1623  0.3023
 1809SOL    HW2 6529   4.278   4.975   5.885 -0.3836  0.0632  0.7446
 1810SOL     OW 6530   9.123   6.080   0.946  0.1728  0.0784 -0.1070
 1810SOL    HW1 6531   9.108   6.079   0.852 -0.4902  2.4408 -0.0910
 1810SOL    HW2 6532   9.036   6.068   0.985  0.1888  0.8545  0.1769
 1811SOL     OW 6533   5.009   1.786   3.131  0.5103  0.3254 -0.1974
 1811SOL    HW1 6534   4.942   1.760   3.195 -2.2426 -0.3522 -3.0934
 1811SOL    HW2 6535   5.068   1.711   3.127  0.5674  0.2702  1.3238
 1812SOL     OW 6536   0.227   5.436   9.058 -0.1655  0.8286 -0.0950
 1812SOL    HW1 6537   0.209   5.520   9.016 -1.4170  0.2986 -0.6700
 1812SOL    HW2 6538   0.247   5.377   8.985 -0.0610  0.4547  0.2355
 1813SOL     OW 6539   9.037   6.691   3.513  0.0992 -0.6363 -0.4302
 1813SOL    HW1 6540   8.970   6.758   3.527  0.9745 -0.1625  1.8374
 1813SOL    HW2 6541   8.988   6.609   3.511 -0.6495 -0.2210  0.2969
 1814SOL     OW 6542   5.193   8.435   6.934 -0.2287  0.0028  0.4893
 1814SOL    HW1 6543   5.204   8.517   6.886  0.3109 -0.6006 -0.4414
 1814SOL    HW2 6544   5.241   8.370   6.883  0.3670 -0.6742  1.8544
 1815SOL     OW 6545   5.260   7.603   8.621 -0.1826 -0.6395  0.1267
 1815SOL    HW1 6546   5.268   7.508   8.624 -2.1380 -0.8637 -0.1468
 1815SOL    HW2 6547   5.203   7.620   8.546  0.5142  0.8009 -0.1292
 1816SOL     OW 6548   4.361   5.515   7.959 -0.0460  0.1242  0.4247
 1816SOL    HW1 6549   4.391   5.432   7.996  0.3833  0.5765  1.1060
 1816SOL    HW2 6550   4.265   5.510   7.964 -0.1726 -1.4310 -1.9909
 1817SOL     OW 6551   1.311   0.120   3.850  0.1319  0.2883 -0.0151
 1817SOL    HW1 6552   1.320   0.078   3.935  1.4356  0.5768  0.0152
 1817SOL    HW2 6553   1.271   0.054   3.793 -0.6162  0.0512  0.7780
 1818SOL     OW 6554   2.440   3.848   9.122  0.0147 -0.1696 -0.5639
 1818SOL    HW1 6555   2.473   3.864   9.211  0.8794  0.3399 -0.9553
 1818SOL    HW2 6556   2.364   3.905   9.114 -0.3605 -0.5789  0.0083
 1819SOL     OW 6557   1.830   1.669   3.223 -0.4327 -0.7014  0.8213
 1819SOL    HW1 6558   1.743   1.704   3.205 -0.5269 -1.4129 -0.2095
 1819SOL    HW2 6559   1.890   1.735   3.189 -0.5881 -0.7293  0.4832
 1820SOL     OW 6560   2.407   5.988   7.067  0.2935  0.2651 -0.3735
 1820SOL    HW1 6561   2.415   6.083   7.057  1.6866  0.2212  0.0461
 1820SOL    HW2 6562   2.329   5.975   7.121 -1.6445  0.9827 -2.8071
 1821SOL     OW 6563   8.669   8.973   6.829  0.1017  0.1602 -0.0332
 1821SOL    HW1 6564   8.736   8.976   6.761  0.9661 -1.0062  0.7393
 1821SOL    HW2 6565   8.710   9.015   6.905 -0.3225  0.1327  0.2174
 1822SOL     OW 6566   1.413   7.467   8.723 -0.1077 -0.5403 -0.2622
 1822SOL    HW1 6567   1.396   7.373   8.735 -0.3361 -0.4442  0.2122
 1822SOL    HW2 6568   1.377   7.486   8.636  1.0231 -1.1314 -0.8871
 1823SOL     OW 6569   3.576   1.964   9.065 -0.2552 -0.1343 -0.5146
 1823SOL    HW1 6570   3.572   2.010   9.149 -1.8457  0.5839 -0.9535
 1823SOL    HW2 6571   3.545   2.027   9.001  0.9490 -0.6640 -1.6850
 1824SOL     OW 6572   7.316   5.549   8.267 -0.5551 -0.5494 -0.1493
 1824SOL    HW1 6573   7.290   5.481   8.204  0.1237  0.0520 -1.0985
 1824SOL    HW2 6574   7.401   5.580   8.235 -1.4867  1.7553 -0.5720
 1825SOL     OW 6575   0.368   1.024   3.769 -0.5619 -0.1852  0.0425
 1825SOL    HW1 6576   0.287   0.976   3.748 -0.2388 -1.2716  1.1718
 1825SOL    HW2 6577   0.374   1.020   3.864  0.9243 -0.2920 -0.0363
 1826SOL     OW 6578   1.311   4.069   6.846  0.4510 -0.0549  0.2805
 1826SOL    HW1 6579   1.321   3.978   6.817 -0.8087 -0.4538  1.0220
 1826SOL    HW2 6580   1.218   4.078   6.866 -0.0338  2.2045 -2.3192
 1827SOL     OW 6581   8.980   6.755   2.908 -0.1977 -0.3136  0.1427
 1827SOL    HW1 6582   8.912   6.689   2.898  1.7129 -2.3822  0.0306
 1827SOL    HW2 6583   8.971   6.785   2.998 -0.7164 -1.1750  0.3937
 1828SOL     OW 6584   2.442   8.907   2.036  0.8123 -0.2057  0.1172
 1828SOL    HW1 6585   2.348   8.892   2.027  1.1181 -1.1663 -1.9693
 1828SOL    HW2 6586   2.449   8.970   2.108 -1.3681 -0.5760  0.7305
 1829SOL     OW 6587   0.321   3.124   5.816 -0.5431 -0.4118  0.0194
 1829SOL    HW1 6588   0.323   3.155   5.906  0.3522 -0.5643  0.0614
 1829SOL    HW2 6589   0.353   3.034   5.820  2.3478  0.4593 -0.7533
 1830SOL     OW 6590   7.294   8.610   8.613 -0.0897 -0.6686  0.0020
 1830SOL    HW1 6591   7.386   8.629   8.598 -0.1496  0.8844  1.3645
 1830SOL    HW2 6592   7.293   8.559   8.694 -0.4635 -0.1696  0.3147
 1831SOL     OW 6593   0.423   4.284   5.129 -0.5823 -0.3592 -0.3074
 1831SOL    HW1 6594   0.507   4.255   5.162  0.1135  1.7365 -0.0842
 1831SOL    HW2 6595   0.444   4.353   5.065 -2.1096  1.1865  0.7482
 1832SOL     OW 6596   4.065   3.248   0.013 -0.1391 -0.2869 -0.0838
 1832SOL    HW1 6597   4.093   3.156   0.013 -2.4934 -1.0969 -1.4567
 1832SOL    HW2 6598   4.119   3.290  -0.054  1.9988 -0.2453  1.5829
 1833SOL     OW 6599   7.251   3.140   2.940 -0.0313  0.1793 -0.5107
 1833SOL    HW1 6600   7.274   3.205   2.874 -2.5304  1.1993 -0.4986
 1833SOL    HW2 6601   7.160   3.162   2.964  0.1317 -1.3702  1.8233
 1834SOL     OW 6602   0.620   1.571   2.210  0.3343 -0.3672 -0.0182
 1834SOL    HW1 6603   0.563   1.513   2.158  1.9040 -0.8611 -1.2795
 1834SOL    HW2 6604   0.602   1.547   2.301  0.2658 -2.1984 -0.4761
 1835SOL     OW 6605   6.279   6.998   6.955 -0.1693 -0.1341  0.8957
 1835SOL    HW1 6606   6.275   6.983   7.049 -1.9343  0.8273  1.0319
 1835SOL    HW2 6607   6.240   7.085   6.943  3.4192  1.4831 -0.4001
 1836SOL     OW 6608   6.950   4.149   0.903 -0.3759  0.2503 -0.2900
 1836SOL    HW1 6609   6.984   4.060   0.891 -0.7509  0.1971 -1.0220
 1836SOL    HW2 6610   7.011   4.205   0.855 -1.0972  0.1926 -1.3029
 1837SOL     OW 6611   1.843   7.437   1.904 -0.0179 -0.2481 -0.0725
 1837SOL    HW1 6612   1.812   7.520   1.867 -0.5508  0.2040  1.2990
 1837SOL    HW2 6613   1.933   7.429   1.872 -0.5703 -0.1039 -1.7510
 1838SOL     OW 6614   6.081   2.983   8.500 -0.7745 -0.1795  0.0145
 1838SOL    HW1 6615   6.104   2.988   8.408 -1.6783 -0.1617 -0.2216
 1838SOL    HW2 6616   6.117   3.064   8.538 -0.3955 -0.1920 -0.3125
 1839SOL     OW 6617   8.432   1.256   8.361 -0.1974  0.2683  0.2652
 1839SOL    HW1 6618   8.384   1.231   8.281  0.9846 -0.3525 -0.2715
 1839SOL    HW2 6619   8.488   1.329   8.333 -0.4825  0.6891  0.7749
 1840SOL     OW 6620   8.115   8.384   6.773 -0.4105  0.7443 -0.3188
 1840SOL    HW1 6621   8.145   8.300   6.807  1.2236  1.9706  1.4972
 1840SOL    HW2 6622   8.073   8.428   6.847 -1.7762  1.3273 -1.3851
 1841SOL     OW 6623   4.618   8.467   1.632 -0.0081  0.3166 -0.0552
 1841SOL    HW1 6624   4.548   8.517   1.673  0.2494  0.7856 -0.1731
 1841SOL    HW2 6625   4.658   8.418   1.704 -1.0317 -0.6694 -0.1338
 1842SOL     OW 6626   4.818   5.670   3.052  0.0500 -0.8768  0.0125
 1842SOL    HW1 6627   4.786   5.757   3.074 -0.6486 -0.9833 -0.5623
 1842SOL    HW2 6628   4.791   5.655   2.962 -2.8987 -2.9963  1.0813
 1843SOL     OW 6629   8.784   3.277   4.331  0.0289  0.4546 -0.3998
 1843SOL    HW1 6630   8.849   3.279   4.402  0.8040  2.2748 -1.1166
 1843SOL    HW2 6631   8.790   3.363   4.290 -0.4588 -0.5058 -2.6388
 1844SOL     OW 6632   1.653   3.455   4.840  0.4782 -0.3007  0.5653
 1844SOL    HW1 6633   1.637   3.373   4.886  2.1111 -2.3659 -2.2433
 1844SOL    HW2 6634   1.566   3.486   4.816 -0.2600 -0.3235  2.9745
 1845SOL     OW 6635   0.762   8.476   5.061 -0.4315  0.0814  0.2035
 1845SOL    HW1 6636   0.681   8.473   5.010 -0.0270  1.7686 -0.5916
 1845SOL    HW2 6637   0.800   8.389   5.049 -1.4412 -0.2767 -0.5534
 1846SOL     OW 6638   1.474   5.195   3.433  0.1840 -0.2157  0.1723
 1846SOL    HW1 6639   1.543   5.258   3.450 -0.5049  0.4159  0.6922
 1846SOL    HW2 6640   1.394   5.247   3.427 -0.0335 -0.7264 -2.2137
 1847SOL     OW 6641   3.626   1.817   2.744 -0.0066  0.2162  0.6485
 1847SOL    HW1 6642   3.597   1.762   2.817  4.0887 -1.0943  1.5722
 1847SOL    HW2 6643   3.664   1.894   2.785  1.5747 -0.1284 -0.0776
 1848SOL     OW 6644   6.611   9.099   4.337  0.1026 -0.0594  0.2187
 1848SOL    HW1 6645   6.686   9.154   4.360 -0.5960  1.3630 -0.7306
 1848SOL    HW2 6646   6.553   9.158   4.287  0.5278 -2.2543 -3.2186
 1849SOL     OW 6647   5.588   4.321   9.011 -0.2483 -0.2579  0.3503
 1849SOL    HW1 6648   5.534   4.307   9.089 -0.3575  0.8316  0.4883
 1849SOL    HW2 6649   5.661   4.376   9.042 -0.7002  0.8251 -0.4602
 1850SOL     OW 6650   6.402   8.643   6.668  0.6579 -0.2149  0.0689
 1850SOL    HW1 6651   6.470   8.709   6.665  1.4205 -1.0091 -0.8564
 1850SOL    HW2 6652   6.345   8.663   6.594  1.1124 -0.8098 -0.4500
 1851SOL     OW 6653   3.277   6.262   0.869 -0.7151  0.1393 -0.1560
 1851SOL    HW1 6654   3.304   6.348   0.902 -1.7084 -0.0872  1.3029
 1851SOL    HW2 6655   3.321   6.199   0.926 -2.0017 -0.2660  0.4253
 1852SOL     OW 6656   8.139   5.562   2.019 -0.0771  0.1211  0.3716
 1852SOL    HW1 6657   8.163   5.489   2.076  1.7198  0.5456  0.2239
 1852SOL    HW2 6658   8.211   5.568   1.956  0.2784  2.5264  0.9004
 1853SOL     OW 6659   3.358   4.318   8.868 -0.1924 -0.0604  0.0849
 1853SOL    HW1 6660   3.385   4.232   8.901  0.2900 -0.4623 -1.2621
 1853SOL    HW2 6661   3.269   4.303   8.834 -0.2667  0.0712  0.2238
 1854SOL     OW 6662   3.282   4.742   8.418 -0.3443 -0.5333 -0.1037
 1854SOL    HW1 6663   3.243   4.746   8.331  0.4847 -0.1308 -0.4592
 1854SOL    HW2 6664   3.366   4.699   8.405 -0.0161 -0.0555  0.4233
 1855SOL     OW 6665   0.032   8.036   4.572 -0.4350  0.8078  0.3838
 1855SOL    HW1 6666  -0.052   7.991   4.572  0.1211 -0.3388 -1.3620
 1855SOL    HW2 6667   0.012   8.124   4.540 -1.5055  1.9015  3.6649
 1856SOL     OW 6668   8.469   4.262   8.311 -0.4189  0.5932  0.0959
 1856SOL    HW1 6669   8.468   4.177   8.265  1.9352  0.3198  0.4430
 1856SOL    HW2 6670   8.376   4.281   8.326 -1.1136 -0.9724 -1.6969
 1857SOL     OW 6671   6.532   4.757   3.013 -0.7094  0.5334 -0.3861
 1857SOL    HW1 6672   6.580   4.687   3.057 -0.5204  0.7922 -0.1728
 1857SOL    HW2 6673   6.453   4.768   3.065 -1.8755 -1.0846 -1.7309
 1858SOL     OW 6674   7.106   6.533   2.989  1.0844 -0.3048 -0.2630
 1858SOL    HW1 6675   7.014   6.554   2.978  1.0410 -0.5062 -0.2854
 1858SOL    HW2 6676   7.133   6.499   2.903  0.7602 -1.8247  0.2172
 1859SOL     OW 6677   5.285   1.199   7.553 -0.1084  0.1360  0.3196
 1859SOL    HW1 6678   5.299   1.105   7.564 -1.7740 -0.2204 -0.2058
 1859SOL    HW2 6679   5.291   1.213   7.458 -0.3644  0.4681  0.3510
 1860SOL     OW 6680   2.246   6.141   4.129  0.0869  0.1439  0.5087
 1860SOL    HW1 6681   2.338   6.168   4.129 -0.3023  1.9565  3.5767
 1860SOL    HW2 6682   2.197   6.221   4.147 -2.0981 -0.8604 -0.5767
 1861SOL     OW 6683   1.957   4.225   1.151  0.3703 -0.4719 -0.4020
 1861SOL    HW1 6684   1.930   4.316   1.144  1.3422 -0.1237  0.1690
 1861SOL    HW2 6685   1.875   4.175   1.147 -0.2625  0.4775  0.2992
 1862SOL     OW 6686   3.155   0.158   4.002 -0.5333 -0.0751 -0.0386
 1862SOL    HW1 6687   3.238   0.186   3.962 -1.3260  1.1969 -0.8496
 1862SOL    HW2 6688   3.168   0.173   4.095  1.0826 -2.4016  0.2083
 1863SOL     OW 6689   3.286   8.591   2.226 -0.5457 -0.1569 -0.0197
 1863SOL    HW1 6690   3.321   8.658   2.284  1.4989  0.3499 -1.7010
 1863SOL    HW2 6691   3.193   8.587   2.248 -0.2332  1.3511  1.9188
 1864SOL     OW 6692   0.230   1.073   8.823  0.0618 -0.0280  0.2586
 1864SOL    HW1 6693   0.321   1.075   8.794  0.6019  3.9507  1.5800
 1864SOL    HW2 6694   0.226   1.001   8.885  1.5644 -1.8654 -1.6071
 1865SOL     OW 6695   4.637   7.634   2.343  0.9891 -0.5886  0.0139
 1865SOL    HW1 6696   4.590   7.676   2.415 -0.8721  2.0675 -2.4898
 1865SOL    HW2 6697   4.711   7.691   2.326  1.4345 -1.2103 -0.1497
 1866SOL     OW 6698   4.980   0.524   3.268 -0.0079 -0.1922  0.3671
 1866SOL    HW1 6699   4.973   0.449   3.209 -0.9368  1.1977 -1.3799
 1866SOL    HW2 6700   4.899   0.573   3.256  0.3482  0.8522  1.8389
 1867SOL     OW 6701   1.281   4.320   5.257  0.0783  0.0714  0.4480
 1867SOL    HW1 6702   1.313   4.408   5.278  0.0776  0.2362 -0.2307
 1867SOL    HW2 6703   1.353   4.262   5.283  1.1197  0.4667 -1.4053
 1868SOL     OW 6704   2.499   5.033   8.820  0.1228 -0.1811  0.7483
 1868SOL    HW1 6705   2.427   4.976   8.795  0.0682  1.0050 -2.3270
 1868SOL    HW2 6706   2.457   5.109   8.862 -0.0290 -1.1218  2.3623
 1869SOL     OW 6707   2.362   6.805   6.504 -0.0287  0.5171  0.4724
 1869SOL    HW1 6708   2.418   6.813   6.581 -1.9919  0.8274  1.9556
 1869SOL    HW2 6709   2.274   6.795   6.540 -0.7599 -1.7828 -1.7301
 1870SOL     OW 6710   1.650   0.035   4.952  0.2900 -0.8146  0.4619
 1870SOL    HW1 6711   1.682   0.085   4.877  0.4144 -2.5609 -0.7143
 1870SOL    HW2 6712   1.597   0.098   5.002  0.7055  0.5537 -0.7549
 1871SOL     OW 6713   2.438   5.245   2.474  0.2151  0.0229 -0.0807
 1871SOL    HW1 6714   2.492   5.231   2.396  1.3476  1.6916  0.3501
 1871SOL    HW2 6715   2.499   5.236   2.547 -1.2110 -3.7181  0.8922
 1872SOL     OW 6716   0.857   1.563   8.872 -0.6227 -0.0724 -0.5806
 1872SOL    HW1 6717   0.819   1.532   8.789 -1.4130 -1.4664  0.2530
 1872SOL    HW2 6718   0.936   1.610   8.846 -1.2198  0.1338 -2.1746
 1873SOL     OW 6719   5.972   1.173   6.163  0.0928 -0.0707 -0.4293
 1873SOL    HW1 6720   5.877   1.170   6.149 -0.1470  2.1187  0.3967
 1873SOL    HW2 6721   5.985   1.132   6.248 -0.2963  0.7868  0.0598
 1874SOL     OW 6722   8.567   1.325   0.605  0.2003 -0.6299  0.1272
 1874SOL    HW1 6723   8.662   1.316   0.607  0.4315  1.5263  0.1620
 1874SOL    HW2 6724   8.545   1.368   0.687 -0.5005  1.2281 -0.9762
 1875SOL     OW 6725   5.180   6.713   4.541  0.3760  0.0207  0.4422
 1875SOL    HW1 6726   5.194   6.622   4.515  1.4408  0.2126  0.3005
 1875SOL    HW2 6727   5.155   6.757   4.460 -0.1413 -0.1419  0.5113
 1876SOL     OW 6728   1.821   3.338   7.277 -0.5366  0.6895  0.3321
 1876SOL    HW1 6729   1.883   3.327   7.348 -0.6109  0.1942  0.3210
 1876SOL    HW2 6730   1.763   3.262   7.283 -2.2296  1.9586  1.4268
 1877SOL     OW 6731   5.043   0.865   7.214  0.4281 -0.4230 -0.4706
 1877SOL    HW1 6732   5.086   0.806   7.276  3.1109  0.6384 -1.1703
 1877SOL    HW2 6733   5.012   0.807   7.144 -2.3626 -1.5937  1.5428
 1878SOL     OW 6734   7.382   1.361   6.225  0.4181 -0.2818  0.0050
 1878SOL    HW1 6735   7.457   1.421   6.223  0.2517 -0.0689  0.0804
 1878SOL    HW2 6736   7.332   1.384   6.146  0.3993 -0.3796 -0.0112
 1879SOL     OW 6737   8.187   3.195   3.469 -0.0772 -0.1287 -0.1168
 1879SOL    HW1 6738   8.188   3.290   3.482 -2.0043  0.4235 -2.9588
 1879SOL    HW2 6739   8.275   3.175   3.438  0.1864  0.8635 -0.0551
 1880SOL     OW 6740   0.839   7.360   9.009  1.0343  0.3856  0.0762
 1880SOL    HW1 6741   0.848   7.441   8.959  2.0222  0.1410 -0.1782
 1880SOL    HW2 6742   0.910   7.363   9.073 -0.1998  0.6729  1.4684
 1881SOL     OW 6743   1.328   0.517   1.215  0.3173  0.4869 -0.2452
 1881SOL    HW1 6744   1.241   0.549   1.192 -0.6346  0.7031  3.1414
 1881SOL    HW2 6745   1.365   0.585   1.272  1.1406 -1.2101  1.3608
 1882SOL     OW 6746   2.877   6.955   4.546  0.3511  0.6789  0.2599
 1882SOL    HW1 6747   2.812   6.899   4.589  0.4667  1.7960  1.9815
 1882SOL    HW2 6748   2.865   7.041   4.587  2.3668  1.1111  0.0460
 1883SOL     OW 6749   2.296   5.585   1.773  0.0170 -0.0639 -0.1734
 1883SOL    HW1 6750   2.310   5.525   1.700 -1.4102  0.4737 -0.9314
 1883SOL    HW2 6751   2.360   5.558   1.839  0.3403 -1.5020 -1.0337
 1884SOL     OW 6752   6.804   8.243   8.953 -0.1166 -0.2286  0.1244
 1884SOL    HW1 6753   6.834   8.257   9.043  0.5625 -0.0727 -0.1170
 1884SOL    HW2 6754   6.885   8.239   8.901 -0.5401  1.7677 -0.7839
 1885SOL     OW 6755   3.892   6.015   0.467  0.0754  0.1798 -0.0770
 1885SOL    HW1 6756   3.930   5.927   0.470  2.3236  0.8918 -2.8627
 1885SOL    HW2 6757   3.931   6.060   0.542 -0.6737 -0.9844  1.0569
 1886SOL     OW 6758   8.171   7.498   6.825  0.5224 -0.2817 -0.6567
 1886SOL    HW1 6759   8.186   7.583   6.867 -1.4762  0.1310 -0.6490
 1886SOL    HW2 6760   8.228   7.437   6.871  3.3231  1.3016 -1.7824
 1887SOL     OW 6761   1.881   1.919   1.717 -0.2247  0.0684  0.3485
 1887SOL    HW1 6762   1.933   1.877   1.648 -1.3807 -0.5960 -0.1496
 1887SOL    HW2 6763   1.929   2.000   1.737 -0.0009  0.4296 -1.4504
 1888SOL     OW 6764   3.764   0.452   2.176  0.3489  0.5446 -0.3045
 1888SOL    HW1 6765   3.812   0.490   2.249 -1.5989  1.0198  0.7881
 1888SOL    HW2 6766   3.677   0.435   2.211 -0.6729  0.8750 -2.5395
 1889SOL     OW 6767   6.064   1.080   0.705  0.8782 -0.2980  0.2575
 1889SOL    HW1 6768   6.018   1.001   0.730  0.3763 -0.3369 -0.7304
 1889SOL    HW2 6769   6.117   1.103   0.782  0.7090 -1.3422  0.6997
 1890SOL     OW 6770   6.438   0.355   1.864  0.6390 -0.2672  1.0092
 1890SOL    HW1 6771   6.424   0.271   1.820 -0.2322  0.0118  0.7284
 1890SOL    HW2 6772   6.358   0.370   1.914 -0.3456  1.5395 -0.9009
 1891SOL     OW 6773   2.313   2.826   7.742 -0.3499 -0.3163 -0.0093
 1891SOL    HW1 6774   2.276   2.788   7.822 -0.1105  0.0766  0.2905
 1891SOL    HW2 6775   2.406   2.838   7.762 -0.2352 -0.4664 -0.4444
 1892SOL     OW 6776   0.753   0.672   0.458 -0.0906 -0.6883 -0.2324
 1892SOL    HW1 6777   0.825   0.728   0.486 -1.4499  1.3477 -0.5991
 1892SOL    HW2 6778   0.785   0.583   0.473  2.1985  0.1412  0.2948
 1893SOL     OW 6779   3.256   7.403   7.431  0.2311 -0.5110  0.2164
 1893SOL    HW1 6780   3.336   7.351   7.435  0.2409 -0.4495  0.9969
 1893SOL    HW2 6781   3.199   7.356   7.370  1.4442  0.2965 -1.6514
 1894SOL     OW 6782   8.170   5.770   6.713  0.3150  1.0435  0.4353
 1894SOL    HW1 6783   8.253   5.815   6.729  0.3193  1.1206  0.2008
 1894SOL    HW2 6784   8.138   5.748   6.800  0.8235  0.5751  0.5118
 1895SOL     OW 6785   6.771   1.509   4.111 -0.1622  0.0588 -0.0955
 1895SOL    HW1 6786   6.841   1.512   4.046  0.6620  0.1753  0.7606
 1895SOL    HW2 6787   6.697   1.468   4.066  1.2275 -2.4250 -0.3471
 1896SOL     OW 6788   2.725   2.179   1.726 -0.6575  0.1900  0.5196
 1896SOL    HW1 6789   2.633   2.166   1.747 -0.8738  1.1417  0.1868
 1896SOL    HW2 6790   2.724   2.227   1.643  0.1135  1.5788  1.2859
 1897SOL     OW 6791   1.040   1.497   7.260 -0.0409  0.4870 -0.0279
 1897SOL    HW1 6792   1.024   1.446   7.339  1.1399  1.0298  0.5813
 1897SOL    HW2 6793   1.032   1.433   7.189 -0.5371 -0.1230  0.5597
 1898SOL     OW 6794   4.317   2.389   1.075 -0.0078 -0.0039 -0.0053
 1898SOL    HW1 6795   4.271   2.469   1.102 -1.0252 -0.4701 -0.3079
 1898SOL    HW2 6796   4.288   2.322   1.136 -1.4348 -0.8006 -1.4926
 1899SOL     OW 6797   7.292   3.912   7.003  0.0374 -0.3798 -0.4308
 1899SOL    HW1 6798   7.349   3.984   6.976  0.9409 -1.1056 -0.4900
 1899SOL    HW2 6799   7.351   3.838   7.015 -0.6514 -0.6989  1.2251
 1900SOL     OW 6800   8.932   8.876   7.687 -0.2936  0.2237 -0.0966
 1900SOL    HW1 6801   8.884   8.956   7.662 -1.8383 -0.6559 -0.0795
 1900SOL    HW2 6802   8.901   8.810   7.626  0.6834 -0.4713  0.1406
 1901SOL     OW 6803   1.284   5.914   4.915  0.1904 -0.1186  0.2327
 1901SOL    HW1 6804   1.345   5.973   4.870 -0.8474  1.3698  0.6995
 1901SOL    HW2 6805   1.229   5.972   4.968 -0.8706 -1.5243  0.7424
 1902SOL     OW 6806   7.423   8.030   8.133  0.4100 -0.3269 -0.3292
 1902SOL    HW1 6807   7.504   7.986   8.159  0.6832  0.0776 -0.4666
 1902SOL    HW2 6808   7.356   7.993   8.189  1.3111  2.0695  2.6114
 1903SOL     OW 6809   4.287   2.944   2.641  0.3439 -0.1615 -0.2409
 1903SOL    HW1 6810   4.295   3.017   2.579  0.3635  2.0178  2.1654
 1903SOL    HW2 6811   4.204   2.903   2.619 -1.0160  2.2963 -0.0575
 1904SOL     OW 6812   7.504   4.136   1.695 -0.1370  0.2143 -0.1322
 1904SOL    HW1 6813   7.475   4.071   1.760  1.8870  0.3154  0.9526
 1904SOL    HW2 6814   7.458   4.216   1.719 -2.4933 -0.6635 -1.3498
 1905SOL     OW 6815   0.758   7.226   1.138 -0.0845 -0.7524 -0.2326
 1905SOL    HW1 6816   0.779   7.214   1.231  2.8084  1.8355 -0.3989
 1905SOL    HW2 6817   0.667   7.258   1.139  0.0699 -0.2214  1.7714
 1906SOL     OW 6818   2.285   5.287   0.948  0.0057 -0.3775  0.2126
 1906SOL    HW1 6819   2.261   5.361   0.892  0.2725 -0.2580  0.2570
 1906SOL    HW2 6820   2.316   5.220   0.887 -0.7467 -0.6592  0.1229
 1907SOL     OW 6821   6.999   3.717   2.338  0.3149  0.5575 -0.1497
 1907SOL    HW1 6822   6.958   3.643   2.383 -1.2465  0.8555 -0.9947
 1907SOL    HW2 6823   7.078   3.735   2.388 -0.5898 -0.0578  1.5807
 1908SOL     OW 6824   7.514   5.609   7.196 -0.5326 -0.1754 -0.1188
 1908SOL    HW1 6825   7.465   5.598   7.115 -1.3167 -2.2175  0.5568
 1908SOL    HW2 6826   7.465   5.557   7.261  2.2732 -2.0700  0.6935
 1909SOL     OW 6827   6.352   8.116   6.955 -0.5627  0.2853 -0.7466
 1909SOL    HW1 6828   6.354   8.115   7.050  0.2439  1.2397 -0.7411
 1909SOL    HW2 6829   6.296   8.189   6.932  1.0917  1.5401 -0.9787
 1910SOL     OW 6830   7.806   5.654   4.721 -0.1802  0.1370  0.4955
 1910SOL    HW1 6831   7.850   5.572   4.744  0.5787 -0.0452 -1.3725
 1910SOL    HW2 6832   7.750   5.674   4.796  1.8154 -0.5219  2.2412
 1911SOL     OW 6833   5.467   3.523   2.882  0.6845  0.0325 -0.2246
 1911SOL    HW1 6834   5.549   3.572   2.875  1.3745 -1.1411 -0.7861
 1911SOL    HW2 6835   5.400   3.583   2.850  1.0513  1.5710  1.6854
 1912SOL     OW 6836   4.540   5.127   8.284 -0.3661  0.2212  0.3880
 1912SOL    HW1 6837   4.607   5.059   8.284 -1.2471 -0.7800 -2.3246
 1912SOL    HW2 6838   4.578   5.199   8.334  3.2489  0.1542 -1.9619
 1913SOL     OW 6839   1.586   7.974   5.911  0.0776 -0.0216 -1.0808
 1913SOL    HW1 6840   1.624   7.979   5.998 -3.5661 -1.7621  0.8555
 1913SOL    HW2 6841   1.637   7.906   5.866  1.2019 -0.0070  0.1209
 1914SOL     OW 6842   6.716   8.329   1.365  0.0529  0.1723 -0.2645
 1914SOL    HW1 6843   6.649   8.396   1.381 -2.4052 -1.8696 -1.3632
 1914SOL    HW2 6844   6.674   8.267   1.306  1.7528 -2.9461  1.5390
 1915SOL     OW 6845   6.932   0.371   0.062  0.1013 -0.1570 -0.3327
 1915SOL    HW1 6846   6.891   0.433   0.123  0.7200 -0.2772  0.2228
 1915SOL    HW2 6847   7.018   0.352   0.102 -0.2888 -1.7963 -0.1950
 1916SOL     OW 6848   3.252   2.890   0.242  0.0705 -0.0373 -0.7277
 1916SOL    HW1 6849   3.255   2.933   0.157  0.8435  0.8069 -0.2922
 1916SOL    HW2 6850   3.207   2.807   0.226  1.0844 -0.3487 -2.1639
 1917SOL     OW 6851   8.122   0.798   0.031 -0.0434 -0.0569  0.3410
 1917SOL    HW1 6852   8.122   0.720   0.087  0.3499 -1.1715 -1.1494
 1917SOL    HW2 6853   8.156   0.767  -0.053 -2.0183  1.1973 -0.9946
 1918SOL     OW 6854   2.784   6.733   8.019  0.0213 -0.0057 -0.4074
 1918SOL    HW1 6855   2.779   6.792   8.094 -0.6375  0.6501 -0.9504
 1918SOL    HW2 6856   2.865   6.683   8.032 -0.6566 -0.7205  1.3224
 1919SOL     OW 6857   9.036   4.407   7.732 -0.5360  0.0068  0.3249
 1919SOL    HW1 6858   9.108   4.353   7.699  1.3391  1.9219  1.0029
 1919SOL    HW2 6859   9.003   4.360   7.808  0.9717 -0.2709  0.8417
 1920SOL     OW 6860   1.077   6.005   0.555 -0.2031  0.7174  0.6357
 1920SOL    HW1 6861   1.102   5.921   0.516 -2.5721  0.6964 -1.0236
 1920SOL    HW2 6862   1.082   6.068   0.483 -1.9991  1.2531  0.9380
 1921SOL     OW 6863   8.474   1.376   7.719  0.0785 -0.3867 -0.3274
 1921SOL    HW1 6864   8.411   1.352   7.651  0.5680 -1.6519 -0.3484
 1921SOL    HW2 6865   8.420   1.417   7.788 -0.4410  0.7309 -1.3625
 1922SOL     OW 6866   9.133   1.523   8.288  0.1405 -0.1800  0.1456
 1922SOL    HW1 6867   9.202   1.470   8.327  0.1384 -0.3844 -0.1258
 1922SOL    HW2 6868   9.053   1.472   8.298  0.0011  0.1183  0.5844
 1923SOL     OW 6869   6.388   5.195   3.411 -0.0019 -0.2823 -0.5867
 1923SOL    HW1 6870   6.333   5.127   3.373 -0.5837  0.6192 -1.4136
 1923SOL    HW2 6871   6.397   5.260   3.342  0.4837  0.5212  0.2066
 1924SOL     OW 6872   1.261   8.552   3.158 -0.1104  0.3822  0.0402
 1924SOL    HW1 6873   1.260   8.524   3.250  0.0460 -0.3273 -0.1700
 1924SOL    HW2 6874   1.222   8.479   3.110  0.7059  0.3293 -0.5750
 1925SOL     OW 6875   8.075   4.108   4.447 -0.6757  0.2833 -0.3093
 1925SOL    HW1 6876   8.075   4.038   4.381 -2.0773  0.8012 -0.8977
 1925SOL    HW2 6877   8.016   4.175   4.411 -0.5931  1.0766  0.9627
 1926SOL     OW 6878   2.999   9.108   1.362 -0.1384 -0.2862 -0.1220
 1926SOL    HW1 6879   2.933   9.081   1.426  0.4433 -2.2238 -0.2775
 1926SOL    HW2 6880   2.957   9.097   1.277  0.2562 -1.2411 -0.2076
 1927SOL     OW 6881   4.965   6.101   8.400 -0.3270 -0.4286  0.3311
 1927SOL    HW1 6882   4.981   6.133   8.489 -2.0616 -0.4430  0.6734
 1927SOL    HW2 6883   4.885   6.049   8.407  0.8107 -2.4753 -0.7712
 1928SOL     OW 6884   6.323   5.551   0.447 -0.1781  0.2066 -0.7592
 1928SOL    HW1 6885   6.261   5.524   0.378  0.3104 -2.4937 -0.2442
 1928SOL    HW2 6886   6.380   5.615   0.404 -2.7070  2.1563 -1.4866
 1929SOL     OW 6887   4.308   6.465   4.727  0.2670 -0.3891  0.1608
 1929SOL    HW1 6888   4.291   6.374   4.748  0.5338 -0.1795  1.3567
 1929SOL    HW2 6889   4.226   6.497   4.688  0.2189 -1.1610 -0.3754
 1930SOL     OW 6890   7.318   6.325   5.482  0.0049 -0.5857  0.1084
 1930SOL    HW1 6891   7.373   6.379   5.539 -0.9235  0.1065  0.3762
 1930SOL    HW2 6892   7.307   6.243   5.530 -0.2927 -0.2236  0.6688
 1931SOL     OW 6893   5.750   8.537   5.247 -0.1888  0.3891  0.1038
 1931SOL    HW1 6894   5.669   8.569   5.287  0.5578  1.5939  0.6895
 1931SOL    HW2 6895   5.805   8.513   5.321  0.7861  1.5788 -0.2165
 1932SOL     OW 6896   7.915   5.643   2.946 -0.1350 -0.6962 -0.5501
 1932SOL    HW1 6897   7.908   5.550   2.968  1.2973 -0.9330 -0.9786
 1932SOL    HW2 6898   7.967   5.680   3.018 -0.4502 -0.2842 -0.5336
 1933SOL     OW 6899   7.449   1.905   1.055 -0.3407  0.1068 -0.1534
 1933SOL    HW1 6900   7.400   1.987   1.048  1.0374  0.9907  0.0602
 1933SOL    HW2 6901   7.515   1.910   0.986  0.0574 -0.5995  0.1570
 1934SOL     OW 6902   5.123   4.228   4.609  0.1349  0.2729  0.4842
 1934SOL    HW1 6903   5.069   4.177   4.669  0.2487 -1.6124 -0.9070
 1934SOL    HW2 6904   5.129   4.173   4.530 -0.9850  3.0957 -1.7301
 1935SOL     OW 6905   3.596   5.681   8.749 -0.0814 -0.6602  0.0099
 1935SOL    HW1 6906   3.669   5.728   8.790 -0.4369  0.4392 -0.5860
 1935SOL    HW2 6907   3.518   5.726   8.781 -0.3766  0.2923 -1.8888
 1936SOL     OW 6908   8.797   0.461   0.490 -0.3185  0.0940 -0.2387
 1936SOL    HW1 6909   8.838   0.532   0.538  0.7679 -1.2735  0.9464
 1936SOL    HW2 6910   8.803   0.386   0.549  0.8371 -1.6108 -2.3835
 1937SOL     OW 6911   5.522   1.160   1.692 -0.3044  0.3980  0.4309
 1937SOL    HW1 6912   5.613   1.189   1.679  0.2549 -0.4838  1.9758
 1937SOL    HW2 6913   5.526   1.065   1.678 -1.6553  0.6756 -2.4520
 1938SOL     OW 6914   2.527   5.316   3.502  1.0445 -0.2135  0.5868
 1938SOL    HW1 6915   2.596   5.380   3.485  0.3625  0.3006 -0.3298
 1938SOL    HW2 6916   2.523   5.264   3.422  1.7899 -1.6224  1.4256
 1939SOL     OW 6917   3.778   6.939   2.053  0.2428  0.0553  0.2318
 1939SOL    HW1 6918   3.733   7.009   2.006 -0.6125 -0.7424 -0.1848
 1939SOL    HW2 6919   3.767   6.961   2.145  0.1812  0.5881  0.0995
 1940SOL     OW 6920   0.960   3.091   2.706  0.3106  0.1184  0.5411
 1940SOL    HW1 6921   0.874   3.129   2.722  0.7569  1.3763  0.0933
 1940SOL    HW2 6922   1.013   3.164   2.675  2.1528 -0.1059  2.8551
 1941SOL     OW 6923   4.685   4.682   0.613  0.7207 -0.0108 -0.0883
 1941SOL    HW1 6924   4.715   4.720   0.531  1.9786 -1.1518 -0.1931
 1941SOL    HW2 6925   4.676   4.756   0.673  1.9068  0.5966 -0.6286
 1942SOL     OW 6926   4.940   6.083   2.549 -0.2535 -0.0379  0.4079
 1942SOL    HW1 6927   4.898   6.128   2.475  0.0284 -1.1970 -0.4723
 1942SOL    HW2 6928   5.022   6.051   2.514  0.1135 -0.1855  1.3772
 1943SOL     OW 6929   2.091   7.487   7.449 -0.2825 -0.5454 -0.3199
 1943SOL    HW1 6930   2.178   7.519   7.472 -0.2021 -1.3542  0.5619
 1943SOL    HW2 6931   2.032   7.560   7.467  0.1219 -0.2439 -0.2129
 1944SOL     OW 6932   7.554   4.517   3.691  0.2078 -0.0080  0.8121
 1944SOL    HW1 6933   7.614   4.589   3.710  0.5510  0.3328 -1.3247
 1944SOL    HW2 6934   7.480   4.558   3.647 -0.3903 -0.7585  1.0981
 1945SOL     OW 6935   8.524   1.865   5.130  0.2285  0.6079  0.5651
 1945SOL    HW1 6936   8.446   1.829   5.088  0.4771  1.9233 -1.1180
 1945SOL    HW2 6937   8.534   1.813   5.209 -2.3807  0.4288  0.8780
 1946SOL     OW 6938   1.755   4.062   6.708 -0.7306 -0.6018  0.1358
 1946SOL    HW1 6939   1.721   4.151   6.714 -0.5562 -0.4638 -0.7878
 1946SOL    HW2 6940   1.732   4.034   6.620  0.1861 -1.0680  0.0366
 1947SOL     OW 6941   6.142   0.047   4.527 -0.4548 -0.0980 -0.3669
 1947SOL    HW1 6942   6.169   0.132   4.495  0.0065 -0.1883 -0.2182
 1947SOL    HW2 6943   6.058   0.031   4.484 -0.9792  0.8232  0.2800
 1948SOL     OW 6944   3.748   0.158   5.937  0.0356  0.5378  0.5610
 1948SOL    HW1 6945   3.798   0.115   5.867  1.3140  1.4761  0.8591
 1948SOL    HW2 6946   3.674   0.100   5.953 -0.2148  0.2052 -1.4600
 1949SOL     OW 6947   1.323   4.103   4.759  0.6985 -0.0204  0.3093
 1949SOL    HW1 6948   1.357   4.016   4.741  0.3186 -0.4770  1.7102
 1949SOL    HW2 6949   1.333   4.115   4.853  1.1348  1.6300  0.0858
 1950SOL     OW 6950   1.998   7.437   4.923  0.2515 -0.1705 -0.1511
 1950SOL    HW1 6951   1.924   7.490   4.892 -0.5434 -1.7910 -1.1265
 1950SOL    HW2 6952   2.075   7.478   4.883 -0.2974  0.4316 -0.6251
 1951SOL     OW 6953   0.654   8.679   1.140  0.0022 -0.6538 -0.0772
 1951SOL    HW1 6954   0.571   8.710   1.102  0.7199  1.3189 -0.1424
 1951SOL    HW2 6955   0.708   8.655   1.064 -0.2870 -1.3729 -0.0608
 1952SOL     OW 6956   3.516   4.453   0.558 -0.1501  0.3878 -0.0162
 1952SOL    HW1 6957   3.514   4.425   0.466  0.2609 -0.2276  0.1559
 1952SOL    HW2 6958   3.528   4.372   0.608  2.0361  0.9154  0.4470
 1953SOL     OW 6959   4.286   7.994   0.320  0.2889  0.3531  0.0352
 1953SOL    HW1 6960   4.199   8.031   0.337  1.0746  1.9200  0.8435
 1953SOL    HW2 6961   4.335   8.065   0.278  1.5137 -0.1268  0.6009
 1954SOL     OW 6962   0.321   6.078   6.292 -0.0909 -0.2750  0.1811
 1954SOL    HW1 6963   0.347   6.097   6.202 -2.0318 -0.1529 -0.4022
 1954SOL    HW2 6964   0.234   6.040   6.285 -0.8436  0.8927  2.0748
 1955SOL     OW 6965   1.890   0.412   1.516 -0.0785 -1.0873  0.6746
 1955SOL    HW1 6966   1.902   0.372   1.602  1.4424  0.0797  1.0526
 1955SOL    HW2 6967   1.977   0.448   1.494 -0.7123 -0.3961 -0.8367
 1956SOL     OW 6968   8.703   4.040   6.853  0.3228 -0.0940  0.1619
 1956SOL    HW1 6969   8.684   3.966   6.796 -0.3858 -0.3883  0.7728
 1956SOL    HW2 6970   8.701   4.004   6.941  0.9413  0.4544  0.4088
 1957SOL     OW 6971   1.004   0.896   3.530  0.3815 -0.4715 -0.4839
 1957SOL    HW1 6972   1.084   0.851   3.556  1.4491  0.3056 -2.2147
 1957SOL    HW2 6973   1.022   0.989   3.546  1.1062  0.0634 -3.6564
 1958SOL     OW 6974   8.471   0.614   1.094  0.2567 -0.4430  0.2696
 1958SOL    HW1 6975   8.381   0.582   1.106  0.1291 -0.0200  0.4750
 1958SOL    HW2 6976   8.462   0.710   1.095  0.8619 -0.3818  1.5128
 1959SOL     OW 6977   7.232   1.518   8.792 -0.2021 -0.2834 -0.3833
 1959SOL    HW1 6978   7.296   1.542   8.725  1.1981 -1.1372  0.5973
 1959SOL    HW2 6979   7.225   1.596   8.847  1.1750 -0.6507  0.3695
 1960SOL     OW 6980   4.837   7.090   4.777  0.5588 -0.6285  0.0224
 1960SOL    HW1 6981   4.903   7.049   4.722  0.5234 -0.5223 -0.0992
 1960SOL    HW2 6982   4.757   7.040   4.762  1.3385 -2.9619  2.7004
 1961SOL     OW 6983   3.268   5.564   6.508  0.2411 -0.1497  0.1509
 1961SOL    HW1 6984   3.253   5.488   6.451  1.5816 -0.8395  0.6639
 1961SOL    HW2 6985   3.212   5.548   6.584  0.8029 -0.8432  0.4309
 1962SOL     OW 6986   7.360   3.138   3.199 -0.1453  0.0750 -0.0477
 1962SOL    HW1 6987   7.361   3.140   3.103  0.7881 -0.2892 -0.0520
 1962SOL    HW2 6988   7.344   3.046   3.221  0.3139  0.0372  0.1434
 1963SOL     OW 6989   5.626   8.923   8.120  0.9278  0.2440 -0.0193
 1963SOL    HW1 6990   5.706   8.931   8.172  0.1051  0.1707  1.3001
 1963SOL    HW2 6991   5.642   8.979   8.044  2.5168 -0.3670 -0.1710
 1964SOL     OW 6992   7.486   6.334   4.178 -0.8153  0.0306  0.4757
 1964SOL    HW1 6993   7.391   6.343   4.173 -0.8243 -0.6138 -2.1373
 1964SOL    HW2 6994   7.503   6.242   4.155  0.4173 -0.2206  2.1805
 1965SOL     OW 6995   5.581   1.814   9.079 -0.7149 -0.3170 -0.2438
 1965SOL    HW1 6996   5.545   1.800   8.992  1.4476 -0.5181 -1.1585
 1965SOL    HW2 6997   5.508   1.848   9.130 -1.4587  2.2710 -2.7787
 1966SOL     OW 6998   1.187   6.374   4.560  0.2798 -0.2841 -0.1868
 1966SOL    HW1 6999   1.144   6.421   4.489  0.3162 -0.4146 -0.2964
 1966SOL    HW2 7000   1.119   6.318   4.598 -0.0910  0.7785  0.7604
 1967SOL     OW 7001   1.491   5.890   6.439 -0.2217  0.2822  0.4353
 1967SOL    HW1 7002   1.439   5.950   6.493 -2.6412 -0.8089 -0.5207
 1967SOL    HW2 7003   1.445   5.806   6.446  1.7568 -0.9008 -0.0861
 1968SOL     OW 7004   6.367   1.173   2.129  0.8682  0.2755 -0.1338
 1968SOL    HW1 7005   6.434   1.155   2.064  0.3976  0.6287 -0.7354
 1968SOL    HW2 7006   6.288   1.131   2.094  0.6659  0.2700  0.3221
 1969SOL     OW 7007   5.344   4.528   3.795 -0.2581  0.4201 -0.6261
 1969SOL    HW1 7008   5.437   4.517   3.811 -0.2325  1.1216 -0.2384
 1969SOL    HW2 7009   5.321   4.459   3.733  0.4083 -0.0703 -0.3282
 1970SOL     OW 7010   8.961   8.948   3.578  0.2831 -0.0762 -0.3012
 1970SOL    HW1 7011   8.922   9.022   3.532 -0.0490 -2.3658 -4.1677
 1970SOL    HW2 7012   8.895   8.879   3.573  1.1517 -1.1398  1.7769
 1971SOL     OW 7013   0.793   2.234   2.254 -0.1301 -1.1004  0.3602
 1971SOL    HW1 7014   0.793   2.239   2.159 -2.7101  1.1301  0.3469
 1971SOL    HW2 7015   0.821   2.322   2.282 -1.3924 -1.0698  1.5963
 1972SOL     OW 7016   7.685   7.451   4.888  0.1751  0.6057  0.1577
 1972SOL    HW1 7017   7.681   7.450   4.792  0.2986  0.4954  0.1534
 1972SOL    HW2 7018   7.775   7.425   4.908 -0.5865 -2.1963  0.3398
 1973SOL     OW 7019   0.203   2.710   5.828  0.0103 -0.6100  0.2768
 1973SOL    HW1 7020   0.225   2.772   5.897 -0.8984 -0.5511  0.5302
 1973SOL    HW2 7021   0.107   2.708   5.828  0.0101 -0.9466 -0.6801
 1974SOL     OW 7022   5.143   6.644   7.826  0.1432 -0.1619 -0.4349
 1974SOL    HW1 7023   5.156   6.738   7.838  2.7752 -0.1366 -2.5236
 1974SOL    HW2 7024   5.231   6.610   7.807 -0.8607 -2.9201 -0.5573
 1975SOL     OW 7025   6.792   6.732   0.778  0.1231 -0.4163 -0.4149
 1975SOL    HW1 7026   6.826   6.691   0.699  0.0770  0.8635 -1.1285
 1975SOL    HW2 7027   6.828   6.680   0.850  1.1402 -0.8800 -1.2384
 1976SOL     OW 7028   1.696   2.225   2.300  0.4458  0.1132  0.4449
 1976SOL    HW1 7029   1.691   2.205   2.394 -0.5933  0.5614  0.4938
 1976SOL    HW2 7030   1.669   2.316   2.294 -0.7914 -0.2906 -0.4249
 1977SOL     OW 7031   1.103   4.640   4.216 -0.7259  0.3928  0.1567
 1977SOL    HW1 7032   1.040   4.572   4.240 -1.3561  1.8409  2.9366
 1977SOL    HW2 7033   1.049   4.713   4.185 -0.3139  1.0063  0.8652
 1978SOL     OW 7034   7.642   7.796   3.376 -0.5369  0.7421 -0.3880
 1978SOL    HW1 7035   7.605   7.825   3.459 -0.4808  1.1791 -0.5076
 1978SOL    HW2 7036   7.578   7.734   3.341  0.6775 -1.5400  1.2182
 1979SOL     OW 7037   2.091   1.775   1.870 -0.0591  0.5974  0.0841
 1979SOL    HW1 7038   2.016   1.826   1.840  0.9606  0.1542 -3.7054
 1979SOL    HW2 7039   2.059   1.685   1.873  0.2815  0.3773 -1.7480
 1980SOL     OW 7040   0.480   8.774   3.365 -0.0941  0.0989  0.1276
 1980SOL    HW1 7041   0.455   8.859   3.329 -0.6379  0.3054  0.9582
 1980SOL    HW2 7042   0.416   8.757   3.434  0.1443 -0.8828  0.1245
 1981SOL     OW 7043   6.535   2.430   7.620  0.0259 -0.1923 -0.0002
 1981SOL    HW1 7044   6.440   2.425   7.609  0.1637  1.4279 -2.7205
 1981SOL    HW2 7045   6.547   2.481   7.700 -1.4648  1.4164 -0.7297
 1982SOL     OW 7046   7.962   4.180   5.244 -0.0891 -0.0570  0.8241
 1982SOL    HW1 7047   7.914   4.202   5.164 -1.3393 -3.0476  0.6175
 1982SOL    HW2 7048   7.935   4.247   5.308 -2.8515 -0.3637  0.0708
 1983SOL     OW 7049   2.141   6.144   7.550  0.0825 -0.0160 -0.2498
 1983SOL    HW1 7050   2.197   6.216   7.579  0.7093 -1.0625  1.2164
 1983SOL    HW2 7051   2.120   6.166   7.459  1.2231  1.4125 -0.2066
 1984SOL     OW 7052   0.771   5.569   1.236 -0.2316 -0.0023  0.1340
 1984SOL    HW1 7053   0.844   5.595   1.293  0.1153  0.0352 -0.3165
 1984SOL    HW2 7054   0.696   5.617   1.270  0.0536  0.3088  0.3362
 1985SOL     OW 7055   2.349   6.775   7.888  0.2010 -0.3026 -1.0302
 1985SOL    HW1 7056   2.391   6.729   7.960 -0.8757 -0.9648 -0.7925
 1985SOL    HW2 7057   2.419   6.790   7.825  1.3091  0.9043  0.4317
 1986SOL     OW 7058   0.322   8.399   0.980  0.0228  0.0445 -0.2658
 1986SOL    HW1 7059   0.272   8.425   1.057 -0.5977  0.8366 -0.9148
 1986SOL    HW2 7060   0.400   8.454   0.983  0.4701 -0.6012  0.2967
 1987SOL     OW 7061   4.253   3.304   7.607 -0.1070  0.2618 -0.0297
 1987SOL    HW1 7062   4.218   3.388   7.580 -0.5910  0.1944  0.3722
 1987SOL    HW2 7063   4.208   3.284   7.689 -1.5526 -1.3602 -1.1419
 1988SOL     OW 7064   6.830   2.474   1.823 -1.1828 -0.3591  0.8697
 1988SOL    HW1 7065   6.769   2.427   1.879  1.6347 -1.6897  3.0430
 1988SOL    HW2 7066   6.882   2.528   1.883 -0.2055  0.7343 -0.8646
 1989SOL     OW 7067   8.523   3.568   1.045 -0.0862  0.3742 -0.1630
 1989SOL    HW1 7068   8.454   3.501   1.037  1.0080 -0.6971 -1.0544
 1989SOL    HW2 7069   8.506   3.628   0.973 -0.4054  0.4197 -0.0518
 1990SOL     OW 7070   0.119   2.829   3.410 -0.0593  0.1944  0.4379
 1990SOL    HW1 7071   0.096   2.776   3.334 -2.2794  0.8635  0.5682
 1990SOL    HW2 7072   0.044   2.887   3.423 -0.1660 -0.4743  3.6461
 1991SOL     OW 7073   0.760   7.444   6.351 -0.1569 -0.4819 -0.4509
 1991SOL    HW1 7074   0.708   7.434   6.431  0.1614  1.1046 -0.0079
 1991SOL    HW2 7075   0.846   7.470   6.382 -0.2102  0.8169 -1.3205
 1992SOL     OW 7076   0.150   8.643   0.022  0.1707 -0.2156  0.2288
 1992SOL    HW1 7077   0.132   8.625   0.114  1.0341  0.3938  0.5317
 1992SOL    HW2 7078   0.246   8.649   0.017  0.1179  0.0926 -0.6379
 1993SOL     OW 7079   6.769   6.454   9.060 -0.7375  0.4583 -0.1298
 1993SOL    HW1 7080   6.681   6.415   9.062 -0.7864  0.5423 -0.4595
 1993SOL    HW2 7081   6.823   6.393   9.110 -0.9242  0.2459 -0.1797
 1994SOL     OW 7082   3.534   6.186   5.936  0.1253 -0.3016  0.2393
 1994SOL    HW1 7083   3.456   6.214   5.984 -1.2668 -0.1059 -2.0084
 1994SOL    HW2 7084   3.579   6.268   5.914  1.0960 -0.4191  1.6379
 1995SOL     OW 7085   0.861   4.116   1.478 -0.6053  0.4005  0.4010
 1995SOL    HW1 7086   0.797   4.177   1.515 -0.7410  0.7663 -0.4168
 1995SOL    HW2 7087   0.912   4.169   1.418 -1.5148 -0.5186 -1.2426
 1996SOL     OW 7088   2.288   9.116   3.993  0.3136 -0.4349  0.1212
 1996SOL    HW1 7089   2.274   9.089   4.084 -0.1616 -1.6606 -0.2886
 1996SOL    HW2 7090   2.382   9.102   3.978  0.4394  0.0012  0.4878
 1997SOL     OW 7091   6.832   9.122   0.330 -0.3012  0.0876 -0.4555
 1997SOL    HW1 7092   6.856   9.212   0.353 -0.4604 -0.5343  2.5943
 1997SOL    HW2 7093   6.889   9.068   0.385 -1.4266 -1.6276 -0.9074
 1998SOL     OW 7094   2.596   0.493   7.536 -0.0164  0.5765 -0.1728
 1998SOL    HW1 7095   2.510   0.474   7.575 -0.0872  0.5859 -0.3246
 1998SOL    HW2 7096   2.628   0.570   7.583 -0.4437  1.0568 -0.6662
 1999SOL     OW 7097   3.346   1.447   4.706  0.7990  0.2337 -0.1449
 1999SOL    HW1 7098   3.298   1.368   4.680  2.2524 -0.8228  0.2644
 1999SOL    HW2 7099   3.361   1.436   4.800  1.1620  0.9227 -0.1182
 2000SOL     OW 7100   1.658   2.540   8.263  0.2830 -0.2359 -0.3173
 2000SOL    HW1 7101   1.600   2.577   8.195 -0.4279  0.4720  0.6377
 2000SOL    HW2 7102   1.648   2.600   8.337 -0.0757 -1.7883  0.9283
 2001SOL     OW 7103   1.195   4.714   5.076  0.1867 -0.3367  0.8618
 2001SOL    HW1 7104   1.248   4.767   5.136  0.4033  0.6901 -0.1937
 2001SOL    HW2 7105   1.219   4.746   4.989 -0.9010 -1.0587  0.2800
 2002SOL     OW 7106   0.104   0.496   2.754  0.1994 -0.5051  0.6800
 2002SOL    HW1 7107   0.098   0.468   2.663  1.4339  0.1296  0.3770
 2002SOL    HW2 7108   0.051   0.433   2.802 -0.5151 -0.8181 -0.4798
 2003SOL     OW 7109   0.497   1.478   5.809  0.3182  0.1647 -0.6350
 2003SOL    HW1 7110   0.577   1.485   5.861 -0.4811  0.0963  0.6559
 2003SOL    HW2 7111   0.435   1.537   5.853 -0.9077 -1.1906 -0.4790
 2004SOL     OW 7112   6.348   8.553   3.364  0.2457  0.3629  0.0586
 2004SOL    HW1 7113   6.399   8.586   3.290 -0.9813 -0.4670 -1.2057
 2004SOL    HW2 7114   6.281   8.619   3.378 -0.1611  0.0185 -0.2610
 2005SOL     OW 7115   7.882   1.081   0.379  0.3482  0.2460  0.1605
 2005SOL    HW1 7116   7.862   0.994   0.414 -0.3536  0.7587  1.0727
 2005SOL    HW2 7117   7.818   1.094   0.309 -0.7700  0.7673  1.2539
 2006SOL     OW 7118   4.038   6.530   6.665  0.2012  0.4624  0.3274
 2006SOL    HW1 7119   3.995   6.565   6.744  1.5209  3.4013 -0.1145
 2006SOL    HW2 7120   4.111   6.478   6.699 -1.0831 -0.9453  1.0254
 2007SOL     OW 7121   1.458   4.462   8.521 -0.0150  0.1453  0.1754
 2007SOL    HW1 7122   1.383   4.519   8.504  0.9948  1.0111 -1.6295
 2007SOL    HW2 7123   1.510   4.508   8.586  0.0925  0.6543 -0.2612
 2008SOL     OW 7124   4.862   4.319   0.654 -0.0922 -0.2152  0.3088
 2008SOL    HW1 7125   4.938   4.366   0.689  0.0820 -0.4344  0.2321
 2008SOL    HW2 7126   4.869   4.231   0.691 -1.4980  0.3457  2.0229
 2009SOL     OW 7127   0.455   1.752   4.685  0.0636 -0.0097  0.1196
 2009SOL    HW1 7128   0.383   1.774   4.626 -0.0080 -0.7291 -0.0662
 2009SOL    HW2 7129   0.459   1.825   4.747 -0.9171 -0.0382  0.2181
 2010SOL     OW 7130   3.661   8.846   3.475 -0.3911  0.4318  0.0333
 2010SOL    HW1 7131   3.701   8.855   3.388  1.1169  0.8211  0.7360
 2010SOL    HW2 7132   3.567   8.840   3.458 -0.0041 -2.5738 -1.8578
 2011SOL     OW 7133   2.850   1.416   0.320 -0.4236 -0.1080 -0.1525
 2011SOL    HW1 7134   2.791   1.348   0.352 -0.9551  0.6414  0.4963
 2011SOL    HW2 7135   2.805   1.452   0.243 -0.2077 -0.3873 -0.4127
 2012SOL     OW 7136   3.651   6.107   0.788  0.9190  0.2819  0.2480
 2012SOL    HW1 7137   3.706   6.035   0.816  3.0347  1.0304 -1.6623
 2012SOL    HW2 7138   3.610   6.077   0.707 -0.7733  0.0952  1.1355
 2013SOL     OW 7139   1.980   8.060   7.170 -0.2766  0.1646  0.3103
 2013SOL    HW1 7140   1.966   7.999   7.097 -0.0402  2.4031 -1.7560
 2013SOL    HW2 7141   1.893   8.076   7.205 -0.7254  0.8226 -1.0473
 2014SOL     OW 7142   7.072   7.278   7.210  0.2671 -0.6611 -0.6225
 2014SOL    HW1 7143   7.114   7.328   7.141  0.5102  1.3191  0.8765
 2014SOL    HW2 7144   7.145   7.249   7.266 -0.0901  0.1117  0.2771
 2015SOL     OW 7145   5.963   3.208   8.992  0.2505  0.0799 -0.0390
 2015SOL    HW1 7146   5.884   3.196   9.043  1.0039  0.2935  1.2168
 2015SOL    HW2 7147   5.938   3.185   8.902 -1.6303  1.6362  0.0152
 2016SOL     OW 7148   9.129   5.388   6.781 -0.1709  0.1936 -0.0824
 2016SOL    HW1 7149   9.064   5.323   6.809  1.4419 -2.0378 -1.1235
 2016SOL    HW2 7150   9.182   5.403   6.860  0.4715 -1.1321 -0.2246
 2017SOL     OW 7151   0.816   7.878   7.474 -0.5278 -0.3412  0.2782
 2017SOL    HW1 7152   0.863   7.958   7.450 -2.2707  0.3329 -1.0376
 2017SOL    HW2 7153   0.820   7.877   7.570 -0.7793  1.5406  0.3503
 2018SOL     OW 7154   1.178   3.546   2.455 -0.5762 -0.5439 -0.9543
 2018SOL    HW1 7155   1.092   3.580   2.432 -1.0166 -2.1466 -1.8099
 2018SOL    HW2 7156   1.232   3.562   2.377  0.4555  2.0276  0.1739
 2019SOL     OW 7157   4.029   8.647   1.762  0.0195  0.3026 -0.2562
 2019SOL    HW1 7158   4.104   8.698   1.733  0.3468 -0.0273  0.0024
 2019SOL    HW2 7159   4.064   8.590   1.830 -0.2118 -0.7258 -0.9883
 2020SOL     OW 7160   7.826   4.586   8.309 -0.1917 -0.4160  0.1054
 2020SOL    HW1 7161   7.912   4.553   8.335  0.1579  0.8137  0.5403
 2020SOL    HW2 7162   7.774   4.583   8.389 -0.5137 -0.9699 -0.1137
 2021SOL     OW 7163   1.947   3.161   4.780 -0.1426  0.4976  0.1266
 2021SOL    HW1 7164   1.952   3.236   4.720  1.7155 -0.1888 -0.6763
 2021SOL    HW2 7165   2.007   3.096   4.741 -0.0139 -0.5453  1.9642
 2022SOL     OW 7166   7.875   4.933   6.148 -0.3852 -0.3100 -0.6568
 2022SOL    HW1 7167   7.784   4.927   6.177 -2.0961  0.7007 -5.0425
 2022SOL    HW2 7168   7.890   4.854   6.095  1.1238 -0.2083 -0.4429
 2023SOL     OW 7169   8.399   4.928   1.755 -0.0594  0.2605 -0.5597
 2023SOL    HW1 7170   8.429   4.837   1.748 -0.2240  0.1744 -0.1824
 2023SOL    HW2 7171   8.371   4.951   1.666  1.0385  0.3191 -0.9145
 2024SOL     OW 7172   3.354   3.440   2.815  0.1861 -0.0915 -0.1292
 2024SOL    HW1 7173   3.445   3.421   2.838 -0.4466 -1.1345  1.6649
 2024SOL    HW2 7174   3.359   3.521   2.764  2.0385  0.2845  0.5656
 2025SOL     OW 7175   1.182   0.820   6.947 -0.4110 -0.0006  0.2231
 2025SOL    HW1 7176   1.155   0.904   6.912 -1.6418 -0.4071  0.1581
 2025SOL    HW2 7177   1.219   0.773   6.873 -2.2497 -0.5475 -0.3782
 2026SOL     OW 7178   5.294   3.814   1.516 -0.8188  0.4295 -0.3909
 2026SOL    HW1 7179   5.329   3.855   1.595 -2.0214 -0.6840  0.7737
 2026SOL    HW2 7180   5.258   3.887   1.465  0.9420  1.2875 -0.4819
 2027SOL     OW 7181   2.142   5.296   6.788  0.9282 -0.1803 -0.2931
 2027SOL    HW1 7182   2.162   5.255   6.872  3.2142  1.0979 -0.1400
 2027SOL    HW2 7183   2.167   5.388   6.800 -1.0035  0.6020 -1.6300
 2028SOL     OW 7184   8.101   1.762   7.431  0.0684  0.2546 -0.6621
 2028SOL    HW1 7185   8.062   1.795   7.350 -0.2237  0.4436 -0.4457
 2028SOL    HW2 7186   8.056   1.810   7.501  0.9210  0.7372 -0.4207
 2029SOL     OW 7187   3.149   5.353   6.376  0.2429 -0.4446 -0.1026
 2029SOL    HW1 7188   3.168   5.276   6.321  0.5661 -0.7125  0.3743
 2029SOL    HW2 7189   3.105   5.414   6.317  0.3518 -0.8316 -0.5965
 2030SOL     OW 7190   7.214   2.108   8.963 -0.1180  0.2422  0.4850
 2030SOL    HW1 7191   7.228   2.201   8.947 -0.9741  0.6682  1.9840
 2030SOL    HW2 7192   7.275   2.086   9.033 -0.0096 -0.2959  0.2239
 2031SOL     OW 7193   8.828   1.193   0.898  0.5168  0.2832  0.0760
 2031SOL    HW1 7194   8.922   1.174   0.899  0.7172  1.2406  0.2316
 2031SOL    HW2 7195   8.806   1.199   0.805  0.5566 -0.1693  0.0346
 2032SOL     OW 7196   5.025   5.188   0.866  0.0991 -0.2590 -0.4207
 2032SOL    HW1 7197   5.049   5.096   0.878  0.6610 -0.3943 -2.2523
 2032SOL    HW2 7198   5.107   5.232   0.847 -0.2578  0.5104 -0.2311
 2033SOL     OW 7199   6.024   7.253   7.842  0.0710  0.0130  0.0616
 2033SOL    HW1 7200   6.113   7.222   7.856 -0.5170 -0.9725  1.9520
 2033SOL    HW2 7201   6.030   7.348   7.849  0.6545 -0.1339  2.6215
 2034SOL     OW 7202   5.344   0.437   4.384  0.3004  0.1375  0.5068
 2034SOL    HW1 7203   5.339   0.518   4.333 -0.8488  0.2713  0.8070
 2034SOL    HW2 7204   5.357   0.467   4.474 -0.7148  0.0365  0.7040
 2035SOL     OW 7205   8.365   4.289   5.084  0.4312 -0.1950  0.1897
 2035SOL    HW1 7206   8.432   4.351   5.056 -1.6625  0.4546 -4.3768
 2035SOL    HW2 7207   8.395   4.205   5.050  0.2551 -0.4264  0.6091
 2036SOL     OW 7208   4.184   8.277   2.479  0.1558  0.4140 -0.5040
 2036SOL    HW1 7209   4.168   8.227   2.399  0.5557  0.4347 -0.5958
 2036SOL    HW2 7210   4.171   8.214   2.549  0.6428  0.1781 -0.6189
 2037SOL     OW 7211   3.088   0.411   1.616 -0.8553  0.2972 -0.4664
 2037SOL    HW1 7212   3.110   0.358   1.540  0.3038  1.5635 -1.0591
 2037SOL    HW2 7213   3.102   0.502   1.587 -3.2062  0.9873  0.3637
 2038SOL     OW 7214   7.477   4.139   6.195 -0.0019  0.2843  0.1113
 2038SOL    HW1 7215   7.480   4.099   6.108  1.6146  0.0261  0.2542
 2038SOL    HW2 7216   7.566   4.130   6.228 -0.4329  0.9939  1.5263
 2039SOL     OW 7217   5.561   4.043   2.104 -0.0522  0.1829  0.2986
 2039SOL    HW1 7218   5.609   3.963   2.126 -2.0363 -1.1892 -0.0690
 2039SOL    HW2 7219   5.617   4.089   2.042  1.2646 -0.7713  0.7461
 2040SOL     OW 7220   2.896   8.700   5.416  0.2017 -0.4723 -0.2653
 2040SOL    HW1 7221   2.913   8.738   5.330 -1.3939  0.7403 -0.0958
 2040SOL    HW2 7222   2.982   8.699   5.459  0.7250  0.5297 -1.2392
 2041SOL     OW 7223   8.290   3.449   2.489  0.5561  0.0794  0.2805
 2041SOL    HW1 7224   8.309   3.395   2.412  0.6341 -0.6142  0.7797
 2041SOL    HW2 7225   8.293   3.389   2.562  0.0701  0.6587  0.7905
 2042SOL     OW 7226   5.806   0.671   1.995 -0.1396  0.0966 -0.1588
 2042SOL    HW1 7227   5.798   0.678   2.090  0.8466  2.9166 -0.1900
 2042SOL    HW2 7228   5.883   0.616   1.982 -1.2265 -1.6994  0.5737
 2043SOL     OW 7229   7.145   3.786   7.625  0.0167  0.0747 -0.2138
 2043SOL    HW1 7230   7.204   3.857   7.599  0.9974 -0.5365  0.2966
 2043SOL    HW2 7231   7.097   3.822   7.700  0.7663  0.0839  0.2705
 2044SOL     OW 7232   6.965   4.755   8.103 -0.0064  0.1277  0.7394
 2044SOL    HW1 7233   7.005   4.727   8.185  0.6813  1.3207  0.8358
 2044SOL    HW2 7234   7.031   4.733   8.037  0.4978  1.4022  0.8061
 2045SOL     OW 7235   6.452   0.439   3.227  0.4607  0.6596  0.5391
 2045SOL    HW1 7236   6.510   0.515   3.237  1.5365 -0.0538 -0.0468
 2045SOL    HW2 7237   6.395   0.461   3.153 -0.1981  1.4689  1.2726
 2046SOL     OW 7238   1.049   6.835   8.677  0.1845  0.6449 -0.2560
 2046SOL    HW1 7239   1.016   6.902   8.737  1.6304  2.0375 -0.9608
 2046SOL    HW2 7240   1.137   6.816   8.709  1.0388  1.5185 -1.9878
 2047SOL     OW 7241   2.448   8.199   4.860  0.2671  0.3762 -0.1070
 2047SOL    HW1 7242   2.444   8.185   4.765 -2.0462  4.0546 -0.7641
 2047SOL    HW2 7243   2.503   8.276   4.871  0.8429 -0.2421  1.6170
 2048SOL     OW 7244   5.685   5.978   3.331 -1.1758 -0.2177  0.5578
 2048SOL    HW1 7245   5.703   6.072   3.335 -0.0064 -0.3852 -0.2002
 2048SOL    HW2 7246   5.690   5.949   3.422  0.9340  0.0603  0.5784
 2049SOL     OW 7247   1.365   0.364   3.534  1.1510  0.2399 -0.0005
 2049SOL    HW1 7248   1.288   0.410   3.501  1.8621  0.7924 -0.9202
 2049SOL    HW2 7249   1.341   0.339   3.624  0.1194  0.8953 -0.0798
 2050SOL     OW 7250   2.785   3.515   5.418 -0.5612 -0.2865  0.4454
 2050SOL    HW1 7251   2.699   3.511   5.461 -1.2634  0.2574 -0.8424
 2050SOL    HW2 7252   2.803   3.609   5.411  0.2563 -0.4044  0.9153
 2051SOL     OW 7253   6.174   3.104   6.161  0.0777 -0.2193  0.0952
 2051SOL    HW1 7254   6.246   3.164   6.141  0.8094 -1.0240  0.2497
 2051SOL    HW2 7255   6.130   3.090   6.077  0.6228 -0.3693 -0.1713
 2052SOL     OW 7256   4.208   7.517   3.069 -0.0988 -0.2999  0.4868
 2052SOL    HW1 7257   4.166   7.512   3.155 -0.3930 -0.1098  0.3546
 2052SOL    HW2 7258   4.265   7.440   3.066  0.5315  0.1298  1.1703
 2053SOL     OW 7259   6.686   1.433   8.378 -0.5128 -0.8546 -0.1560
 2053SOL    HW1 7260   6.609   1.376   8.376 -0.4445 -0.9480 -0.1291
 2053SOL    HW2 7261   6.651   1.522   8.387 -0.8569 -0.3974 -4.2093
 2054SOL     OW 7262   4.582   0.097   0.115  0.0671 -0.0096  0.0511
 2054SOL    HW1 7263   4.488   0.098   0.099 -0.2023  0.0462  1.5423
 2054SOL    HW2 7264   4.598   0.176   0.167  0.6343 -0.9598  1.3535
 2055SOL     OW 7265   6.767   8.085   3.215  0.2954  0.1092 -0.6067
 2055SOL    HW1 7266   6.824   8.013   3.243 -0.0807 -0.0052 -0.1135
 2055SOL    HW2 7267   6.679   8.058   3.242  0.2872  1.2742  0.6975
 2056SOL     OW 7268   3.843   4.255   7.603  0.1270 -0.2839 -0.0128
 2056SOL    HW1 7269   3.886   4.186   7.552 -0.0713 -1.2677  1.1098
 2056SOL    HW2 7270   3.913   4.318   7.621  0.3881 -0.3452 -0.7718
 2057SOL     OW 7271   6.288   2.934   9.042 -0.1728  0.1744  0.8234
 2057SOL    HW1 7272   6.363   2.935   9.101  1.0878  2.4217 -0.6844
 2057SOL    HW2 7273   6.216   2.970   9.095  0.1543 -0.6356  1.8513
 2058SOL     OW 7274   3.419   1.738   9.106  0.1876 -0.3702 -0.0388
 2058SOL    HW1 7275   3.450   1.651   9.084 -0.0416 -0.5560  0.3713
 2058SOL    HW2 7276   3.481   1.797   9.062  1.5113 -0.7309  1.2585
 2059SOL     OW 7277   2.642   5.887   6.913 -0.1018  0.0043 -0.0531
 2059SOL    HW1 7278   2.563   5.922   6.954  0.4096  0.0566  0.9003
 2059SOL    HW2 7279   2.675   5.959   6.860 -0.9077 -0.1466 -0.7915
 2060SOL     OW 7280   2.710   5.654   6.777 -0.7544  0.7523 -0.4161
 2060SOL    HW1 7281   2.689   5.736   6.820 -1.1810  0.3435  0.1624
 2060SOL    HW2 7282   2.764   5.606   6.840 -1.3069  0.1894 -0.3675
 2061SOL     OW 7283   1.659   1.120   0.402  0.1398 -0.1233 -0.1195
 2061SOL    HW1 7284   1.727   1.168   0.450 -1.0250  1.1015  0.3703
 2061SOL    HW2 7285   1.577   1.163   0.428 -0.8801 -1.9030 -0.2805
 2062SOL     OW 7286   0.253   4.995   2.798  0.1743  0.0403 -0.0342
 2062SOL    HW1 7287   0.207   4.979   2.880  1.0519  0.1017  0.4936
 2062SOL    HW2 7288   0.288   4.910   2.772 -1.2575 -0.2558 -1.0998
 2063SOL     OW 7289   6.712   7.678   8.008 -0.1907  0.1682 -0.0823
 2063SOL    HW1 7290   6.626   7.720   8.015  0.2043  1.3800 -1.7430
 2063SOL    HW2 7291   6.719   7.655   7.915  1.4741  0.5294 -0.0602
 2064SOL     OW 7292   3.006   6.672   7.570 -0.6427  0.1919  0.2969
 2064SOL    HW1 7293   3.048   6.621   7.501 -1.6358  0.4555 -0.5341
 2064SOL    HW2 7294   2.968   6.606   7.629  1.4959 -0.0739  1.4946
 2065SOL     OW 7295   3.930   3.546   3.015  0.8886  0.4265 -0.1274
 2065SOL    HW1 7296   3.893   3.478   3.071  2.3485  0.4320  0.8910
 2065SOL    HW2 7297   3.928   3.625   3.069  1.5918  0.6098 -0.3638
 2066SOL     OW 7298   6.109   4.199   0.280  0.0759  0.0110  0.0981
 2066SOL    HW1 7299   6.066   4.172   0.362 -1.1438  1.6638  0.0550
 2066SOL    HW2 7300   6.152   4.282   0.301 -0.7389  0.7555 -1.0566
 2067SOL     OW 7301   8.793   8.959   8.036 -0.0652  0.1913  0.3628
 2067SOL    HW1 7302   8.729   8.985   8.103 -0.1738 -1.1816  0.8321
 2067SOL    HW2 7303   8.753   8.983   7.953 -1.1769 -0.5900  0.6568
 2068SOL     OW 7304   5.390   6.227   9.117  0.4417  0.1690  0.2229
 2068SOL    HW1 7305   5.326   6.163   9.149  2.8308 -1.8378  1.2403
 2068SOL    HW2 7306   5.385   6.221   9.022 -2.1973  1.5116  0.1867
 2069SOL     OW 7307   7.712   2.537   1.488  0.5604  0.2272 -0.5242
 2069SOL    HW1 7308   7.788   2.570   1.537  0.0867 -0.5580  0.8107
 2069SOL    HW2 7309   7.640   2.538   1.552 -0.4095  0.3526 -1.5804
 2070SOL     OW 7310   8.001   3.291   2.502  0.6168  0.4348  0.1741
 2070SOL    HW1 7311   8.084   3.287   2.454 -0.2919  2.1257 -1.6734
 2070SOL    HW2 7312   7.963   3.204   2.491  1.5727  0.0328 -0.0148
 2071SOL     OW 7313   3.819   7.083   3.092 -0.7467  0.0448  0.2069
 2071SOL    HW1 7314   3.787   7.030   3.019  0.0240 -0.3533  0.1481
 2071SOL    HW2 7315   3.880   7.145   3.051 -1.4892  0.8586  0.3026
 2072SOL     OW 7316   7.896   6.474   7.674 -0.7463 -0.3839  0.1891
 2072SOL    HW1 7317   7.854   6.535   7.736 -1.7918  0.1400 -0.9964
 2072SOL    HW2 7318   7.861   6.388   7.698 -1.3450 -0.1511  0.1700
 2073SOL     OW 7319   4.705   2.562   8.080 -0.6827 -0.0917  0.0836
 2073SOL    HW1 7320   4.663   2.643   8.108 -0.1712 -0.0549  0.7873
 2073SOL    HW2 7321   4.643   2.522   8.019 -0.7751  0.9951 -0.5475
 2074SOL     OW 7322   6.305   7.957   0.933  0.2439  0.3399  0.3006
 2074SOL    HW1 7323   6.324   8.051   0.936  1.6319  0.0789  0.3051
 2074SOL    HW2 7324   6.387   7.915   0.960 -0.2967 -0.8794  0.1004
 2075SOL     OW 7325   3.500   4.097   2.523  0.4622 -0.3401 -0.3960
 2075SOL    HW1 7326   3.540   4.046   2.594 -1.5610 -0.8976  0.4089
 2075SOL    HW2 7327   3.462   4.173   2.567  1.3011  0.6021 -1.2541
 2076SOL     OW 7328   3.717   9.055   3.721  0.1801  0.1229 -0.3631
 2076SOL    HW1 7329   3.779   9.066   3.793 -0.9210  0.3588  0.5691
 2076SOL    HW2 7330   3.753   8.982   3.670  0.1696 -1.1440  1.3294
 2077SOL     OW 7331   0.648   6.706   6.543 -0.8877  0.2614  0.0692
 2077SOL    HW1 7332   0.646   6.611   6.540 -2.1797  0.2937 -2.1445
 2077SOL    HW2 7333   0.607   6.734   6.461  1.2655  2.7236 -0.3097
 2078SOL     OW 7334   1.410   8.823   8.363  0.1235  0.2386 -0.4458
 2078SOL    HW1 7335   1.443   8.755   8.304  0.0552 -0.8127  0.6865
 2078SOL    HW2 7336   1.457   8.902   8.337  0.3960 -0.2857 -1.6230
 2079SOL     OW 7337   5.815   8.280   1.463  0.4104 -0.1793  0.0235
 2079SOL    HW1 7338   5.844   8.221   1.392  0.2345  0.2682 -0.4271
 2079SOL    HW2 7339   5.895   8.322   1.493  0.2185  1.3518 -1.4899
 2080SOL     OW 7340   1.447   8.500   6.047 -0.5867 -0.0139 -0.1057
 2080SOL    HW1 7341   1.426   8.536   6.133 -0.5411  0.8639 -0.4518
 2080SOL    HW2 7342   1.368   8.451   6.023  0.4230 -2.7020  1.6324
 2081SOL     OW 7343   7.467   0.206   5.515 -0.5338  0.0999 -0.3080
 2081SOL    HW1 7344   7.458   0.179   5.607  1.4835  2.4376  0.6800
 2081SOL    HW2 7345   7.532   0.147   5.478 -0.9222 -0.4777 -0.0798
 2082SOL     OW 7346   0.011   3.985   6.773  0.2745  0.4301 -0.5081
 2082SOL    HW1 7347  -0.056   4.051   6.789 -0.3439  0.1692 -1.8735
 2082SOL    HW2 7348   0.085   4.013   6.827 -0.5932  1.2364  0.3123
 2083SOL     OW 7349   6.946   8.631   3.232 -0.2482 -0.8006 -0.7604
 2083SOL    HW1 7350   6.986   8.695   3.291  1.7205 -2.0757 -0.6143
 2083SOL    HW2 7351   6.921   8.682   3.155  0.1805  0.3368 -0.1762
 2084SOL     OW 7352   0.816   5.540   7.539 -0.1161  0.4136  0.2284
 2084SOL    HW1 7353   0.834   5.595   7.615  1.0379  0.6179 -0.1808
 2084SOL    HW2 7354   0.819   5.451   7.573  0.9132  0.4777  0.3420
 2085SOL     OW 7355   1.923   2.060   8.629  0.7060 -0.1717 -0.3657
 2085SOL    HW1 7356   1.979   2.135   8.608  1.5573 -1.3252 -2.4979
 2085SOL    HW2 7357   1.839   2.081   8.588  0.3346  0.4071  0.6440
 2086SOL     OW 7358   5.220   8.061   3.683  0.2857  0.2961 -0.0678
 2086SOL    HW1 7359   5.270   8.027   3.757 -0.3185  2.3630  1.4005
 2086SOL    HW2 7360   5.129   8.062   3.714 -0.1357  0.1863 -1.2586
 2087SOL     OW 7361   1.492   1.106   0.102  0.1018  0.0449  0.6823
 2087SOL    HW1 7362   1.581   1.078   0.083 -0.0292  0.2889 -0.3674
 2087SOL    HW2 7363   1.502   1.187   0.151  0.4562 -0.2793  1.1561
 2088SOL     OW 7364   3.290   6.864   7.143 -0.4991 -0.7191 -0.3250
 2088SOL    HW1 7365   3.262   6.865   7.051 -0.9295 -2.5459 -0.2349
 2088SOL    HW2 7366   3.241   6.935   7.184  0.3744  0.7307 -1.6711
 2089SOL     OW 7367   0.417   6.309   5.315 -0.0363  0.3097 -0.0744
 2089SOL    HW1 7368   0.502   6.331   5.353  0.1115  0.6134 -0.5776
 2089SOL    HW2 7369   0.427   6.325   5.222 -0.7408  0.6613 -0.0999
 2090SOL     OW 7370   0.210   7.773   2.841  0.3693  1.1659 -0.1722
 2090SOL    HW1 7371   0.132   7.717   2.843  1.0415  0.2412  1.0188
 2090SOL    HW2 7372   0.277   7.720   2.798  1.2080  0.7423  1.5619
 2091SOL     OW 7373   6.416   1.148   4.914  1.2319  0.0037 -0.3015
 2091SOL    HW1 7374   6.472   1.160   4.991  1.3410 -0.0775 -0.3680
 2091SOL    HW2 7375   6.448   1.213   4.851  0.0336  1.2551  0.3392
 2092SOL     OW 7376   8.366   3.166   7.183 -0.9621 -0.5980  0.3767
 2092SOL    HW1 7377   8.459   3.186   7.195 -1.1681  0.3613  0.3885
 2092SOL    HW2 7378   8.350   3.092   7.243 -0.6691  0.5283  1.9012
 2093SOL     OW 7379   5.876   9.086   3.418  0.3159  0.3017 -0.8335
 2093SOL    HW1 7380   5.971   9.089   3.426  0.4621 -2.6621 -0.2312
 2093SOL    HW2 7381   5.853   9.166   3.370  2.6995  2.8405  1.8916
 2094SOL     OW 7382   1.447   7.743   8.605  0.4677  0.1056 -0.9954
 2094SOL    HW1 7383   1.414   7.661   8.643 -0.4183  0.4085 -1.0855
 2094SOL    HW2 7384   1.423   7.737   8.512 -0.9645  1.1000 -0.7311
 2095SOL     OW 7385   2.899   2.435   6.502  0.7028  0.6331  0.0226
 2095SOL    HW1 7386   2.915   2.430   6.408  0.5165  2.7179 -0.1641
 2095SOL    HW2 7387   2.806   2.457   6.509  0.9403  1.4905  0.6389
 2096SOL     OW 7388   4.454   4.871   0.984  0.5788 -0.3042  0.5428
 2096SOL    HW1 7389   4.461   4.781   1.016 -1.6362 -0.3164  1.1695
 2096SOL    HW2 7390   4.379   4.870   0.925  0.1417  1.2385  1.0187
 2097SOL     OW 7391   5.984   0.609   8.124 -0.0256 -0.0591  0.2324
 2097SOL    HW1 7392   6.006   0.538   8.064 -2.6743 -2.2698  1.6155
 2097SOL    HW2 7393   6.062   0.619   8.179  0.6402 -1.4890 -0.3849
 2098SOL     OW 7394   7.592   6.116   1.993 -0.0645  0.1113 -0.1532
 2098SOL    HW1 7395   7.667   6.167   2.026 -0.8495  2.7285 -2.0200
 2098SOL    HW2 7396   7.518   6.177   1.999 -1.5287 -1.5577 -0.6377
 2099SOL     OW 7397   1.845   6.739   0.482  0.0146 -0.8222 -0.4210
 2099SOL    HW1 7398   1.938   6.755   0.496 -0.2677  0.3430  0.2863
 2099SOL    HW2 7399   1.831   6.760   0.390  0.1380  0.8314 -0.1048
 2100SOL     OW 7400   0.488   3.568   2.825  0.2919 -0.1255 -0.9397
 2100SOL    HW1 7401   0.461   3.557   2.734  1.6560 -1.2682 -1.2444
 2100SOL    HW2 7402   0.561   3.507   2.836  0.4176  0.2826  0.8120
 2101SOL     OW 7403   7.791   8.621   1.473  0.6107 -0.4587 -0.0519
 2101SOL    HW1 7404   7.756   8.705   1.442  0.3637 -0.4976  0.1209
 2101SOL    HW2 7405   7.720   8.582   1.524  1.6425  0.4596  2.2075
 2102SOL     OW 7406   8.155   3.831   5.223 -1.0064  0.6380 -0.1740
 2102SOL    HW1 7407   8.083   3.849   5.162 -1.4009 -0.9078 -0.2223
 2102SOL    HW2 7408   8.215   3.905   5.213 -1.3101  0.6674 -2.0729
 2103SOL     OW 7409   8.682   2.591   1.362 -0.1634 -0.4886 -0.1555
 2103SOL    HW1 7410   8.757   2.636   1.322 -0.3762  0.3183  0.3158
 2103SOL    HW2 7411   8.706   2.584   1.455 -0.9389  0.3664  0.1199
 2104SOL     OW 7412   8.450   6.291   0.884  0.8644 -0.1439 -0.0103
 2104SOL    HW1 7413   8.525   6.256   0.932  0.3166 -0.0054  0.9862
 2104SOL    HW2 7414   8.488   6.331   0.805  1.8557  0.0735  0.5564
 2105SOL     OW 7415   5.673   6.172   4.007  0.0682 -0.2711  0.5536
 2105SOL    HW1 7416   5.583   6.173   4.039 -0.2324 -1.1798 -0.2126
 2105SOL    HW2 7417   5.701   6.264   4.013 -0.5209 -0.1459  1.8100
 2106SOL     OW 7418   4.508   6.367   7.465 -0.7995  0.1372  0.7761
 2106SOL    HW1 7419   4.534   6.420   7.540  0.1832  0.3050  0.3339
 2106SOL    HW2 7420   4.516   6.276   7.495 -0.1017  0.1964  0.7875
 2107SOL     OW 7421   8.953   6.212   5.090  0.1633  0.3104  0.0349
 2107SOL    HW1 7422   8.956   6.223   5.185  0.0544  0.1341  0.0600
 2107SOL    HW2 7423   9.024   6.152   5.070  0.2249  0.3948 -0.0027
 2108SOL     OW 7424   5.022   7.589   5.753 -0.2112 -0.1445  0.6610
 2108SOL    HW1 7425   5.019   7.661   5.689  0.0183 -0.5460  0.1880
 2108SOL    HW2 7426   4.973   7.622   5.828 -2.4173 -0.4609 -0.5390
 2109SOL     OW 7427   8.126   2.227   8.617  0.1799 -0.4635  0.4175
 2109SOL    HW1 7428   8.113   2.172   8.694 -1.8599  0.3911  0.7389
 2109SOL    HW2 7429   8.186   2.295   8.646 -1.5865  0.6298  1.7336
 2110SOL     OW 7430   2.274   6.820   5.955  0.3443 -0.2582  0.1518
 2110SOL    HW1 7431   2.256   6.820   5.860 -2.3971  0.2663  0.5651
 2110SOL    HW2 7432   2.276   6.728   5.979  0.8945 -0.3911 -0.3857
 2111SOL     OW 7433   3.579   5.559   6.564 -0.2686  0.4783  0.1615
 2111SOL    HW1 7434   3.621   5.566   6.478 -0.4179 -2.3961 -0.2564
 2111SOL    HW2 7435   3.488   5.539   6.544 -0.6681  1.3883  1.0312
 2112SOL     OW 7436   5.932   2.419   3.008  0.2648  0.2890 -0.0300
 2112SOL    HW1 7437   5.862   2.356   3.026  0.1188  0.2834 -0.5987
 2112SOL    HW2 7438   5.995   2.371   2.954  1.2435 -0.0288  1.3614
 2113SOL     OW 7439   7.586   2.303   8.276  0.4051  0.1093 -0.1950
 2113SOL    HW1 7440   7.581   2.310   8.181  0.7245  2.3240 -0.1027
 2113SOL    HW2 7441   7.495   2.305   8.305  0.3621  1.0298 -0.3829
 2114SOL     OW 7442   7.885   1.997   1.269 -0.5509  0.3457 -0.3169
 2114SOL    HW1 7443   7.976   1.971   1.261 -0.3723  1.0981 -0.7528
 2114SOL    HW2 7444   7.853   1.947   1.345 -0.2471 -1.1763 -1.1560
 2115SOL     OW 7445   8.867   1.730   5.335  0.0256 -0.6362 -0.2814
 2115SOL    HW1 7446   8.889   1.737   5.428  1.9842 -1.8057 -0.5978
 2115SOL    HW2 7447   8.883   1.638   5.314 -1.4585 -0.6520 -1.5569
 2116SOL     OW 7448   2.240   6.518   1.452 -0.5296  0.6411 -1.3037
 2116SOL    HW1 7449   2.197   6.454   1.509  0.1337  1.0314 -0.3320
 2116SOL    HW2 7450   2.279   6.466   1.382 -1.3347  0.1449 -1.3908
 2117SOL     OW 7451   2.376   1.559   7.561  0.2691  0.0302 -0.2938
 2117SOL    HW1 7452   2.456   1.591   7.603  0.8136  0.6112 -1.7246
 2117SOL    HW2 7453   2.392   1.466   7.547  0.8496  0.2128 -0.8806
 2118SOL     OW 7454   0.622   2.189   0.802  0.1079  0.5220  0.1413
 2118SOL    HW1 7455   0.553   2.146   0.853  0.7267 -1.1437 -0.3612
 2118SOL    HW2 7456   0.607   2.160   0.712  1.9667 -0.6162  0.1476
 2119SOL     OW 7457   0.021   3.299   1.770  0.2698 -0.3861  0.0410
 2119SOL    HW1 7458  -0.070   3.285   1.744  0.7812 -2.5624 -0.7621
 2119SOL    HW2 7459   0.063   3.214   1.757  2.3822  0.5172  0.5881
 2120SOL     OW 7460   2.730   8.901   2.694  0.1486  0.6298  0.1879
 2120SOL    HW1 7461   2.709   8.992   2.673  0.7020  0.9073  0.7811
 2120SOL    HW2 7462   2.783   8.871   2.620  1.0084  1.1886  0.5674
 2121SOL     OW 7463   0.830   0.409   0.918  0.4257 -0.1474 -0.3754
 2121SOL    HW1 7464   0.789   0.480   0.968 -3.1972 -1.4304 -1.2182
 2121SOL    HW2 7465   0.919   0.439   0.902  0.8169  1.7713  3.9272
 2122SOL     OW 7466   2.512   3.062   2.179 -0.0309 -0.4864  0.3556
 2122SOL    HW1 7467   2.425   3.096   2.202  0.5280  0.7451  0.7424
 2122SOL    HW2 7468   2.495   3.001   2.107 -1.0550  1.0786 -0.8031
 2123SOL     OW 7469   4.027   3.050   4.117 -0.4476 -0.3845  0.5852
 2123SOL    HW1 7470   4.008   3.143   4.104 -2.1678 -0.7279  0.2966
 2123SOL    HW2 7471   4.122   3.044   4.116 -0.3053  1.3417  0.4353
 2124SOL     OW 7472   2.683   1.181   0.241  0.1319  0.1466 -0.1165
 2124SOL    HW1 7473   2.707   1.151   0.154 -0.9570  0.7767 -0.6528
 2124SOL    HW2 7474   2.716   1.112   0.300  1.1522 -0.1256 -0.9789
 2125SOL     OW 7475   4.085   6.031   6.833  0.1244 -0.2183 -0.4006
 2125SOL    HW1 7476   4.008   6.082   6.859 -1.5606 -1.9046 -1.7872
 2125SOL    HW2 7477   4.136   6.092   6.779  0.7185  1.4543  1.9131
 2126SOL     OW 7478   1.701   2.026   5.401  0.0213 -0.2906  0.0370
 2126SOL    HW1 7479   1.629   2.088   5.392 -0.0872 -0.4006  0.1359
 2126SOL    HW2 7480   1.676   1.972   5.476  0.1088 -0.4610 -0.0572
 2127SOL     OW 7481   6.099   2.900   0.404  0.0567  1.1010 -0.5953
 2127SOL    HW1 7482   6.061   2.987   0.416 -1.6767  0.3232 -0.0561
 2127SOL    HW2 7483   6.056   2.846   0.471  1.1535 -0.1545 -0.8682
 2128SOL     OW 7484   3.455   1.123   5.633  0.3294 -0.2225 -0.4247
 2128SOL    HW1 7485   3.415   1.164   5.710 -1.4873 -2.8232  0.1770
 2128SOL    HW2 7486   3.380   1.100   5.577  1.5945  1.5773 -3.0807
 2129SOL     OW 7487   3.835   2.101   1.755 -0.3850 -0.5066  0.0923
 2129SOL    HW1 7488   3.817   2.052   1.675 -0.8818  0.5120 -0.4311
 2129SOL    HW2 7489   3.750   2.103   1.801 -0.0608 -1.2596  0.7639
 2130SOL     OW 7490   3.493   5.495   5.387 -0.3086 -0.3791  0.7206
 2130SOL    HW1 7491   3.429   5.453   5.446 -0.7269 -1.0450 -0.1816
 2130SOL    HW2 7492   3.442   5.515   5.308  0.6084 -0.9686 -0.0329
 2131SOL     OW 7493   0.781   0.640   7.126  0.3183 -0.5872 -0.2234
 2131SOL    HW1 7494   0.792   0.597   7.211  1.0675  0.1968  0.0812
 2131SOL    HW2 7495   0.780   0.567   7.063 -0.1208 -1.1627  0.4282
 2132SOL     OW 7496   7.487   6.224   3.535 -0.1297  0.0477 -0.4693
 2132SOL    HW1 7497   7.544   6.262   3.469  0.8660  0.7527  0.7492
 2132SOL    HW2 7498   7.403   6.269   3.523  0.0670  0.2434 -1.1672
 2133SOL     OW 7499   5.959   0.814   0.508  0.0245  0.2701 -0.1273
 2133SOL    HW1 7500   6.037   0.759   0.508 -0.5965 -0.6268 -0.7994
 2133SOL    HW2 7501   5.930   0.813   0.599  0.8220  0.6676  0.1456
 2134SOL     OW 7502   8.604   0.826   3.631  0.1639 -0.1681  0.3302
 2134SOL    HW1 7503   8.593   0.732   3.616  0.8203 -0.1919 -0.0451
 2134SOL    HW2 7504   8.663   0.854   3.561  0.2525  0.4549  0.6550
 2135SOL     OW 7505   2.852   0.006   7.009 -0.0183 -0.3390  0.0863
 2135SOL    HW1 7506   2.772   0.002   7.060  0.7864 -2.0026  1.3005
 2135SOL    HW2 7507   2.922   0.019   7.074  0.7730  0.3751 -0.8722
 2136SOL     OW 7508   2.729   3.481   0.839  0.3388  0.0544  0.1577
 2136SOL    HW1 7509   2.716   3.403   0.785 -0.7050 -0.3102  0.8918
 2136SOL    HW2 7510   2.777   3.449   0.915 -0.0510  0.1266  0.4376
 2137SOL     OW 7511   2.861   7.762   7.512 -0.5801  0.0006  0.5022
 2137SOL    HW1 7512   2.781   7.780   7.463  0.5098  1.0588 -0.9804
 2137SOL    HW2 7513   2.928   7.750   7.444  0.5836 -0.5680  1.7112
 2138SOL     OW 7514   1.155   3.642   7.129  0.2478  0.0702  0.3679
 2138SOL    HW1 7515   1.147   3.572   7.194 -2.6928  0.1967  0.2506
 2138SOL    HW2 7516   1.066   3.674   7.117  0.5329 -0.2808 -4.1038
 2139SOL     OW 7517   0.268   8.236   7.648 -0.1636  0.3043 -0.1160
 2139SOL    HW1 7518   0.275   8.247   7.743  1.2327  0.2117 -0.1861
 2139SOL    HW2 7519   0.193   8.290   7.623 -0.7571  0.0640  1.0756
 2140SOL     OW 7520   3.171   3.350   6.890 -0.2625 -0.5310 -0.0418
 2140SOL    HW1 7521   3.220   3.277   6.928 -0.4645  0.3209  1.9721
 2140SOL    HW2 7522   3.080   3.335   6.916 -0.1270  1.0550  1.5306
 2141SOL     OW 7523   5.898   1.041   5.599  0.0258 -0.2419 -0.3698
 2141SOL    HW1 7524   5.804   1.030   5.584  0.1363 -1.8980 -0.0690
 2141SOL    HW2 7525   5.939   0.992   5.527  0.6400 -0.1075 -0.1104
 2142SOL     OW 7526   8.844   3.280   3.193  0.1319 -0.2291  0.0796
 2142SOL    HW1 7527   8.930   3.313   3.219 -0.8929  1.2100  1.8062
 2142SOL    HW2 7528   8.840   3.297   3.098  1.2758  0.7671  0.1841
 2143SOL     OW 7529   3.816   6.019   1.821  0.0055 -0.2398  0.3973
 2143SOL    HW1 7530   3.760   5.978   1.887 -1.0301  0.5333  0.0409
 2143SOL    HW2 7531   3.769   6.006   1.739  0.2590  0.5779  0.1099
 2144SOL     OW 7532   6.047   2.785   1.353  0.4098 -0.1582  0.4024
 2144SOL    HW1 7533   6.001   2.704   1.328  0.2169  0.0171  0.1831
 2144SOL    HW2 7534   6.140   2.762   1.348  0.3416 -0.8066  1.8122
 2145SOL     OW 7535   1.731   3.849   3.903 -0.4166 -0.1060  0.1250
 2145SOL    HW1 7536   1.820   3.877   3.923 -0.8067 -0.0660  1.9883
 2145SOL    HW2 7537   1.741   3.768   3.854  0.6533  0.9136 -1.4270
 2146SOL     OW 7538   3.415   0.831   5.672 -0.3998  0.2995  0.0130
 2146SOL    HW1 7539   3.432   0.925   5.682 -0.8476  0.6000 -1.7287
 2146SOL    HW2 7540   3.474   0.789   5.735  1.2570  1.6618 -0.5520
 2147SOL     OW 7541   2.207   2.811   4.203  0.1912  0.3551  0.5583
 2147SOL    HW1 7542   2.143   2.770   4.144  0.7488  0.5388 -0.1824
 2147SOL    HW2 7543   2.165   2.807   4.289 -0.9800  0.8095  0.0294
 2148SOL     OW 7544   2.572   5.921   2.925 -0.7128 -0.0509 -0.1105
 2148SOL    HW1 7545   2.573   6.002   2.874 -0.1497  0.4309  0.6450
 2148SOL    HW2 7546   2.595   5.948   3.013  0.3680 -1.1625 -0.0245
 2149SOL     OW 7547   2.902   3.730   3.067 -0.4356  0.5782  0.1927
 2149SOL    HW1 7548   2.940   3.650   3.030 -0.6168  1.1143 -1.2128
 2149SOL    HW2 7549   2.969   3.763   3.127  0.9853  1.0202 -1.5568
 2150SOL     OW 7550   1.709   8.079   7.221 -0.3507  0.6027  0.0974
 2150SOL    HW1 7551   1.692   7.985   7.236 -1.7666  0.7350 -0.4617
 2150SOL    HW2 7552   1.622   8.119   7.227  0.0261  1.6605 -1.1451
 2151SOL     OW 7553   6.341   0.492   6.515  0.7316 -0.3542 -0.1973
 2151SOL    HW1 7554   6.265   0.435   6.497  0.9587 -0.0520 -2.4280
 2151SOL    HW2 7555   6.312   0.579   6.488  1.0737  0.2376  1.2910
 2152SOL     OW 7556   6.194   1.631   5.855 -0.8228  0.1058  0.0817
 2152SOL    HW1 7557   6.284   1.602   5.844 -0.6560  0.2075  1.1408
 2152SOL    HW2 7558   6.178   1.687   5.778  0.8760  2.1908  1.1430
 2153SOL     OW 7559   2.325   0.650   1.286 -0.0838  0.3583 -0.0656
 2153SOL    HW1 7560   2.331   0.741   1.315  0.6800  0.5513 -0.7849
 2153SOL    HW2 7561   2.321   0.656   1.191 -0.3223 -0.3554 -0.1041
 2154SOL     OW 7562   0.145   4.245   4.278  0.6263  0.5055 -0.0005
 2154SOL    HW1 7563   0.218   4.303   4.259  0.7426  1.2661  2.5162
 2154SOL    HW2 7564   0.184   4.169   4.320  0.2298 -0.4813 -1.3221
 2155SOL     OW 7565   7.337   2.174   5.398  0.2592  0.6614 -0.1908
 2155SOL    HW1 7566   7.373   2.212   5.478  0.5601 -1.6579  0.8417
 2155SOL    HW2 7567   7.305   2.088   5.424  0.1434 -0.0654 -2.5092
 2156SOL     OW 7568   5.507   0.187   6.907 -0.0682  0.3007 -0.0069
 2156SOL    HW1 7569   5.505   0.250   6.835  1.3551  1.0733  0.6016
 2156SOL    HW2 7570   5.446   0.224   6.972 -1.1029 -0.2303 -0.6545
 2157SOL     OW 7571   6.862   1.078   3.218 -0.0734  0.2741 -0.5923
 2157SOL    HW1 7572   6.797   1.149   3.218  0.2334  0.5590  0.0095
 2157SOL    HW2 7573   6.889   1.071   3.126  0.3746  1.3907 -0.5674
 2158SOL     OW 7574   2.426   8.043   8.297 -0.0235 -0.3540  0.1780
 2158SOL    HW1 7575   2.435   7.963   8.350 -1.8684 -0.0989  0.9649
 2158SOL    HW2 7576   2.461   8.112   8.353  0.9435 -0.4945 -0.2328
 2159SOL     OW 7577   6.879   4.606   3.917 -0.0332  0.0424 -0.0867
 2159SOL    HW1 7578   6.884   4.629   3.824  1.1703 -0.3922 -0.1507
 2159SOL    HW2 7579   6.800   4.553   3.924 -0.2459  0.2481 -0.8223
 2160SOL     OW 7580   1.454   4.054   2.526 -0.1027  0.3952  0.0851
 2160SOL    HW1 7581   1.507   3.987   2.569 -0.6055 -0.5355 -0.7061
 2160SOL    HW2 7582   1.374   4.057   2.577 -0.4514 -0.2734 -0.4103
 2161SOL     OW 7583   2.473   4.367   2.586  0.4884 -0.0995  0.2170
 2161SOL    HW1 7584   2.453   4.290   2.639  0.9915  0.3488  1.0870
 2161SOL    HW2 7585   2.457   4.340   2.496  0.0921 -1.0344  0.5621
 2162SOL     OW 7586   3.036   7.514   4.200 -0.0277  0.7390  0.0274
 2162SOL    HW1 7587   3.065   7.423   4.203 -0.9975  0.4338  1.0533
 2162SOL    HW2 7588   3.111   7.564   4.233  0.7010  0.3871 -1.0435
 2163SOL     OW 7589   7.690   7.883   4.868 -0.2831  0.4536 -0.5539
 2163SOL    HW1 7590   7.773   7.867   4.824 -0.0846 -0.5732  0.1589
 2163SOL    HW2 7591   7.627   7.830   4.818 -0.5159  1.1770 -1.0517
 2164SOL     OW 7592   7.455   6.634   4.505  0.0151 -0.3301 -0.2020
 2164SOL    HW1 7593   7.506   6.711   4.479  0.0287 -0.7386 -1.4554
 2164SOL    HW2 7594   7.503   6.560   4.468  0.5749 -1.0601  1.8823
 2165SOL     OW 7595   3.286   3.692   3.084 -0.2133  0.3355  0.5487
 2165SOL    HW1 7596   3.302   3.763   3.147 -0.5297  0.6303  0.2979
 2165SOL    HW2 7597   3.373   3.663   3.058 -0.0816  0.5258  0.7732
 2166SOL     OW 7598   2.219   8.434   3.686  0.2195 -0.4906 -0.1821
 2166SOL    HW1 7599   2.212   8.529   3.681 -1.8454 -0.6256 -0.7087
 2166SOL    HW2 7600   2.241   8.415   3.777  0.2006  0.4707  0.0248
 2167SOL     OW 7601   3.558   2.941   7.330 -0.1794 -0.3224  0.1498
 2167SOL    HW1 7602   3.490   2.979   7.275  1.1260 -1.2407 -2.2689
 2167SOL    HW2 7603   3.629   3.006   7.328 -0.0850 -0.4033  0.7083
 2168SOL     OW 7604   4.672   1.335   7.677  0.4844  0.4064  0.1041
 2168SOL    HW1 7605   4.640   1.392   7.747 -1.2049 -0.5522  0.1654
 2168SOL    HW2 7606   4.594   1.313   7.626  0.6623 -3.2880  1.1442
 2169SOL     OW 7607   2.432   5.527   4.386  0.0633 -0.1257  0.1737
 2169SOL    HW1 7608   2.346   5.490   4.366 -0.9350  2.2267 -0.3100
 2169SOL    HW2 7609   2.484   5.511   4.307 -0.7832  0.6652 -0.5724
 2170SOL     OW 7610   2.557   8.909   1.055 -0.4866  0.1537 -0.0315
 2170SOL    HW1 7611   2.568   8.815   1.068  0.3859  0.1833 -0.4269
 2170SOL    HW2 7612   2.577   8.948   1.140  2.2111  0.1522 -0.5673
 2171SOL     OW 7613   1.400   5.231   2.286  0.4746  0.2744  0.1985
 2171SOL    HW1 7614   1.364   5.224   2.375  0.8969 -1.5899  0.2628
 2171SOL    HW2 7615   1.336   5.186   2.231  1.8336 -1.5638  0.0720
 2172SOL     OW 7616   2.532   0.548   0.277 -0.3425 -0.2227 -0.1906
 2172SOL    HW1 7617   2.499   0.638   0.275  0.6310  0.1509  0.1737
 2172SOL    HW2 7618   2.541   0.525   0.184  1.6608  0.9253 -0.3424
 2173SOL     OW 7619   5.338   8.228   7.643 -0.0388 -0.2203  0.1547
 2173SOL    HW1 7620   5.363   8.285   7.570 -1.1473  1.0234  0.7096
 2173SOL    HW2 7621   5.419   8.219   7.694  1.1359 -2.1837 -1.8236
 2174SOL     OW 7622   8.062   5.473   2.502  0.5176 -0.2215  0.4733
 2174SOL    HW1 7623   8.127   5.485   2.571  0.5750 -1.0345  0.5771
 2174SOL    HW2 7624   7.994   5.537   2.521  1.4974  0.9625  0.0995
 2175SOL     OW 7625   3.088   5.241   0.272  0.4062 -0.0629 -0.7122
 2175SOL    HW1 7626   3.031   5.179   0.318 -1.0801  2.0312  0.4745
 2175SOL    HW2 7627   3.062   5.326   0.307  2.0054  1.2821 -2.6289
 2176SOL     OW 7628   4.159   5.521   1.158 -0.5517  0.0169  0.5356
 2176SOL    HW1 7629   4.124   5.608   1.175  0.8704  0.8459 -0.5188
 2176SOL    HW2 7630   4.206   5.530   1.075 -1.6171 -2.1354 -0.3632
 2177SOL     OW 7631   6.015   0.181   4.070 -0.0717  0.1800  0.3167
 2177SOL    HW1 7632   5.965   0.258   4.042 -1.1134  0.3823  2.5934
 2177SOL    HW2 7633   6.106   0.211   4.069 -0.3727  1.1344  0.2492
 2178SOL     OW 7634   4.596   4.471   6.240  0.4197  0.0664 -0.2600
 2178SOL    HW1 7635   4.646   4.404   6.287 -0.8275  0.4282  1.7017
 2178SOL    HW2 7636   4.612   4.452   6.148  0.9943 -2.2364  0.2478
 2179SOL     OW 7637   8.515   6.628   1.202  0.2301  0.0446 -0.2712
 2179SOL    HW1 7638   8.430   6.618   1.159  0.0252  0.0517  0.1317
 2179SOL    HW2 7639   8.554   6.541   1.200 -1.1145 -0.7215  2.3072
 2180SOL     OW 7640   5.277   3.847   5.820 -0.0089  0.1813  0.4870
 2180SOL    HW1 7641   5.203   3.894   5.780 -1.2665 -1.0474  1.3079
 2180SOL    HW2 7642   5.334   3.917   5.854 -1.0960  1.1394  0.3873
 2181SOL     OW 7643   8.983   1.836   4.989  0.1524  0.1298  0.6145
 2181SOL    HW1 7644   8.953   1.927   4.984  0.2968  0.1418 -0.0225
 2181SOL    HW2 7645   9.073   1.839   4.958 -0.6952 -0.6586 -2.1614
 2182SOL     OW 7646   4.792   3.552   1.124 -0.0595 -0.7791  0.2845
 2182SOL    HW1 7647   4.757   3.584   1.041  0.3419 -1.1432 -0.0329
 2182SOL    HW2 7648   4.886   3.540   1.107  0.3369  0.6567  1.2627
 2183SOL     OW 7649   4.061   7.498   5.382 -0.6482  0.3118  0.1277
 2183SOL    HW1 7650   4.115   7.506   5.460  1.0550  2.7274 -1.1547
 2183SOL    HW2 7651   4.100   7.425   5.333  1.5675  1.9798 -0.7526
 2184SOL     OW 7652   6.081   0.706   4.593  0.1471 -0.4040 -0.2938
 2184SOL    HW1 7653   6.010   0.756   4.554 -0.2044  0.0273  0.8625
 2184SOL    HW2 7654   6.135   0.771   4.639  1.1278 -0.7628 -0.8908
 2185SOL     OW 7655   5.862   7.946   5.363 -0.0031 -0.0289  0.1423
 2185SOL    HW1 7656   5.902   7.861   5.346 -0.2512 -0.1362  0.0981
 2185SOL    HW2 7657   5.880   7.997   5.284 -2.0089 -0.8458 -0.9020
 2186SOL     OW 7658   5.210   0.689   2.778 -0.1233  0.9409  0.0731
 2186SOL    HW1 7659   5.204   0.624   2.709 -1.5519  1.6596 -0.5204
 2186SOL    HW2 7660   5.145   0.661   2.843  1.8655 -0.2761  1.6747
 2187SOL     OW 7661   7.014   2.904   7.179  0.8430 -0.3096  0.0623
 2187SOL    HW1 7662   6.973   2.849   7.112 -1.8298 -1.0642  2.1499
 2187SOL    HW2 7663   6.949   2.970   7.199  2.8510  1.8910 -0.2520
 2188SOL     OW 7664   8.199   3.805   0.859  0.0129 -0.2166 -0.0487
 2188SOL    HW1 7665   8.206   3.715   0.826 -1.2927 -1.1242  1.9531
 2188SOL    HW2 7666   8.107   3.828   0.846 -0.0897  0.1058  1.1431
 2189SOL     OW 7667   1.463   8.168   2.567  0.4452  0.6636  0.6039
 2189SOL    HW1 7668   1.426   8.082   2.589 -0.0466  0.8254  0.4344
 2189SOL    HW2 7669   1.468   8.214   2.651  1.4168  0.2080  0.8052
 2190SOL     OW 7670   3.231   3.757   8.591  0.0388  0.3756  0.5813
 2190SOL    HW1 7671   3.209   3.770   8.498 -0.8000 -1.1000  0.5414
 2190SOL    HW2 7672   3.164   3.696   8.623  1.1494 -0.2456  1.7973
 2191SOL     OW 7673   6.090   1.135   8.844  0.4342  1.0017 -0.4128
 2191SOL    HW1 7674   6.168   1.080   8.840  0.6098  1.2736 -0.8261
 2191SOL    HW2 7675   6.049   1.124   8.758 -1.0590 -0.6817  0.4377
 2192SOL     OW 7676   0.227   5.559   3.970  0.3554 -0.1444 -0.1462
 2192SOL    HW1 7677   0.306   5.541   4.021  1.7500  0.8634 -1.8450
 2192SOL    HW2 7678   0.259   5.605   3.892 -1.9010  0.1211 -0.9758
 2193SOL     OW 7679   1.104   3.681   2.678 -0.0974  0.1794  0.3814
 2193SOL    HW1 7680   1.169   3.693   2.746  1.0378  1.9994 -0.9213
 2193SOL    HW2 7681   1.148   3.626   2.612 -0.2728  0.4769  0.0099
 2194SOL     OW 7682   2.194   3.735   0.630 -0.9080 -0.2084 -0.2639
 2194SOL    HW1 7683   2.101   3.739   0.609 -0.7504 -2.1219 -1.5981
 2194SOL    HW2 7684   2.231   3.675   0.565  1.3487  0.8037 -0.0210
 2195SOL     OW 7685   6.277   3.263   0.140 -0.4161  0.3294  0.1715
 2195SOL    HW1 7686   6.253   3.283   0.049  0.0369  0.1501  0.0112
 2195SOL    HW2 7687   6.251   3.342   0.189  1.5700  1.4768 -0.4963
 2196SOL     OW 7688   7.012   3.910   7.040 -0.4888  0.0807 -0.1387
 2196SOL    HW1 7689   6.983   3.963   6.966 -1.0504 -1.0680 -0.7677
 2196SOL    HW2 7690   7.106   3.896   7.024 -0.2033  1.2898  0.3191
 2197SOL     OW 7691   8.413   2.331   5.479  0.6429 -0.1985 -0.0432
 2197SOL    HW1 7692   8.458   2.411   5.503 -0.9911  0.9905 -0.6914
 2197SOL    HW2 7693   8.374   2.299   5.560 -0.0885  0.6283 -0.0474
 2198SOL     OW 7694   1.062   3.914   5.065  0.2474  0.0983 -0.1550
 2198SOL    HW1 7695   1.016   3.969   5.128 -0.8372  0.1961 -0.9883
 2198SOL    HW2 7696   1.152   3.911   5.096  0.0572  1.3357  0.5734
 2199SOL     OW 7697   8.547   2.177   8.524  0.3088 -0.4266 -0.3816
 2199SOL    HW1 7698   8.612   2.191   8.455  0.4911 -1.1799 -0.3821
 2199SOL    HW2 7699   8.495   2.103   8.493  0.9642 -1.3808  0.6655
 2200SOL     OW 7700   3.246   3.929   2.469 -0.0776  0.5213  0.5038
 2200SOL    HW1 7701   3.285   4.014   2.485 -0.3557  0.2974  2.6293
 2200SOL    HW2 7702   3.284   3.900   2.386  1.5172  1.8433  0.7304
 2201SOL     OW 7703   7.247   1.723   4.005 -0.2020 -0.3742  0.2277
 2201SOL    HW1 7704   7.284   1.700   4.090  0.8031 -0.9059 -0.3262
 2201SOL    HW2 7705   7.324   1.735   3.949 -0.8265  0.7935 -0.4050
 2202SOL     OW 7706   6.825   7.772   5.703  0.2331 -0.2604 -0.1887
 2202SOL    HW1 7707   6.828   7.720   5.783  0.3539  0.3974  0.2384
 2202SOL    HW2 7708   6.744   7.744   5.660 -0.3550  0.0929  0.6551
 2203SOL     OW 7709   1.427   2.843   3.784  0.2176 -0.3930 -0.2257
 2203SOL    HW1 7710   1.359   2.782   3.755  1.2697 -1.5051 -0.4945
 2203SOL    HW2 7711   1.390   2.930   3.771 -0.7491 -0.9500 -1.3671
 2204SOL     OW 7712   7.252   4.814   2.916 -0.1606 -0.0325 -0.5564
 2204SOL    HW1 7713   7.305   4.877   2.867  0.7979  1.0960  1.8030
 2204SOL    HW2 7714   7.308   4.737   2.927  0.6720  0.7608  1.0364
 2205SOL     OW 7715   3.926   7.744   2.943  0.1328  0.0645 -0.0914
 2205SOL    HW1 7716   4.017   7.751   2.971  0.1144  1.6798 -0.3757
 2205SOL    HW2 7717   3.875   7.773   3.018 -0.0453  1.3320 -0.6866
 2206SOL     OW 7718   7.468   5.627   3.207  0.1874 -0.5662 -0.0100
 2206SOL    HW1 7719   7.451   5.538   3.237  1.1060 -0.8903 -0.4115
 2206SOL    HW2 7720   7.394   5.649   3.150  0.6043 -1.5708 -0.9651
 2207SOL     OW 7721   5.999   2.746   9.098 -0.1310 -0.1629 -0.1054
 2207SOL    HW1 7722   6.067   2.705   9.152  1.5210 -0.2334 -2.0986
 2207SOL    HW2 7723   5.940   2.788   9.161  0.1495 -2.4684  1.8561
 2208SOL     OW 7724   1.906   6.660   0.742 -0.0160 -0.3619 -0.1200
 2208SOL    HW1 7725   1.890   6.668   0.648  1.5053 -1.1385 -0.4839
 2208SOL    HW2 7726   1.917   6.750   0.772 -0.1221 -0.1307 -0.7607
 2209SOL     OW 7727   7.399   7.672   4.842  0.1457 -0.3746 -0.7429
 2209SOL    HW1 7728   7.317   7.663   4.794 -0.1045  1.7784 -0.8185
 2209SOL    HW2 7729   7.460   7.613   4.798 -1.6651 -3.1319  0.1816
 2210SOL     OW 7730   4.108   8.170   1.822  0.1884 -0.1764 -0.0142
 2210SOL    HW1 7731   4.050   8.114   1.771  1.3764 -1.7212  0.2501
 2210SOL    HW2 7732   4.178   8.194   1.761 -0.5144  1.4159 -0.2448
 2211SOL     OW 7733   2.102   9.033   1.709 -0.3585 -0.1025 -0.1276
 2211SOL    HW1 7734   2.081   9.050   1.801 -0.6611 -1.7314  0.1316
 2211SOL    HW2 7735   2.031   9.074   1.661 -1.1850 -0.8042  0.4700
 2212SOL     OW 7736   3.541   3.590   3.100 -0.0053 -0.7564 -0.1596
 2212SOL    HW1 7737   3.603   3.592   3.172  0.4028  1.7363 -0.4930
 2212SOL    HW2 7738   3.592   3.558   3.025  0.2091 -1.0268  0.0995
 2213SOL     OW 7739   0.025   1.066   5.044 -0.3633 -0.4519  0.3785
 2213SOL    HW1 7740  -0.028   0.996   5.081 -0.7285  0.2010  1.1329
 2213SOL    HW2 7741   0.112   1.028   5.033 -0.9049 -1.4551 -0.6162
 2214SOL     OW 7742   1.616   0.037   2.220  0.3914  0.7054 -0.0574
 2214SOL    HW1 7743   1.664   0.103   2.270 -1.3635  1.3185  0.9386
 2214SOL    HW2 7744   1.612  -0.039   2.278  1.5226  0.0631 -0.7911
 2215SOL     OW 7745   0.687   2.769   2.337  0.4614 -0.1222  0.0663
 2215SOL    HW1 7746   0.753   2.821   2.293 -0.6077  1.4193  0.2191
 2215SOL    HW2 7747   0.632   2.833   2.382 -0.4265 -1.4409  0.9199
 2216SOL     OW 7748   7.918   3.846   0.834  0.1107  0.1575 -0.0439
 2216SOL    HW1 7749   7.931   3.924   0.888  1.5436  0.6069 -0.9479
 2216SOL    HW2 7750   7.849   3.871   0.772 -0.0102  0.4187  0.1945
 2217SOL     OW 7751   1.272   7.237   5.283  0.5385 -0.3742 -0.2606
 2217SOL    HW1 7752   1.289   7.167   5.220 -0.9603  0.4836 -1.6955
 2217SOL    HW2 7753   1.207   7.201   5.343  0.4691 -0.5131 -0.4203
 2218SOL     OW 7754   0.872   2.547   1.063 -0.0701 -0.6853 -0.2798
 2218SOL    HW1 7755   0.912   2.627   1.029  0.1414 -1.0378 -0.8642
 2218SOL    HW2 7756   0.894   2.547   1.156 -0.0118 -0.1030 -0.2893
 2219SOL     OW 7757   5.833   0.218   4.473 -0.8354 -0.1627 -0.1356
 2219SOL    HW1 7758   5.920   0.257   4.476 -0.5975 -0.2346 -3.1943
 2219SOL    HW2 7759   5.773   0.293   4.465 -0.8291 -0.2208 -0.7203
 2220SOL     OW 7760   2.121   8.866   1.058 -0.3742  0.4681 -0.0123
 2220SOL    HW1 7761   2.068   8.945   1.063 -0.7142  0.2655 -0.3288
 2220SOL    HW2 7762   2.062   8.796   1.087 -0.0249  0.3532  0.4264
 2221SOL     OW 7763   2.624   2.500   4.858  0.3303  0.0751  0.0682
 2221SOL    HW1 7764   2.689   2.430   4.855  0.4971  0.2192  0.3142
 2221SOL    HW2 7765   2.555   2.471   4.798  1.2426  0.5435 -1.2719
 2222SOL     OW 7766   2.098   1.625   8.634 -0.8616 -0.3873 -0.3906
 2222SOL    HW1 7767   2.025   1.683   8.614 -0.6386  0.3081  0.7151
 2222SOL    HW2 7768   2.161   1.639   8.562 -0.8023  0.7716 -0.1370
 2223SOL     OW 7769   0.246   2.721   2.045 -0.2152  0.5528 -0.0949
 2223SOL    HW1 7770   0.236   2.816   2.040  1.9146  0.8772  0.7347
 2223SOL    HW2 7771   0.232   2.701   2.138  1.2990  0.3556  0.1095
 2224SOL     OW 7772   3.722   5.100   7.290 -0.6239  0.5958  0.2872
 2224SOL    HW1 7773   3.692   5.167   7.352 -2.6154 -0.2183  0.2810
 2224SOL    HW2 7774   3.760   5.031   7.346 -2.9297 -0.3976  0.7358
 2225SOL     OW 7775   7.578   5.717   2.691  0.3943  0.5742 -0.7969
 2225SOL    HW1 7776   7.586   5.684   2.780 -0.8491  0.9759 -0.5170
 2225SOL    HW2 7777   7.542   5.805   2.701  1.2538  1.0442 -1.6526
 2226SOL     OW 7778   1.632   7.940   2.079 -0.3808  0.6874  0.0097
 2226SOL    HW1 7779   1.674   7.903   2.001  0.5768  0.2484  0.7223
 2226SOL    HW2 7780   1.538   7.938   2.058 -0.2575 -0.9192 -0.4998
 2227SOL     OW 7781   7.979   4.200   6.864 -0.8750  0.1168 -0.1667
 2227SOL    HW1 7782   7.951   4.274   6.919  1.1048 -0.1327  1.2676
 2227SOL    HW2 7783   8.059   4.231   6.821 -1.1647 -0.4954 -1.1861
 2228SOL     OW 7784   6.552   3.842   4.754  0.2046 -0.0177 -0.6331
 2228SOL    HW1 7785   6.522   3.760   4.715 -0.2700 -0.2942  0.2804
 2228SOL    HW2 7786   6.576   3.897   4.679  0.1246 -0.8307 -1.2718
 2229SOL     OW 7787   8.693   4.206   3.097 -0.1707 -0.3734 -0.0366
 2229SOL    HW1 7788   8.622   4.198   3.160  0.4468  0.3889  0.7783
 2229SOL    HW2 7789   8.666   4.151   3.023 -1.6306 -0.0448  0.2257
 2230SOL     OW 7790   7.203   7.165   3.634 -0.3373  0.3537 -0.0628
 2230SOL    HW1 7791   7.109   7.159   3.648 -0.0330 -0.9477  1.7100
 2230SOL    HW2 7792   7.242   7.140   3.717  1.6126 -1.8649 -1.5044
 2231SOL     OW 7793   4.734   4.731   6.278  0.5224 -0.1073  0.2189
 2231SOL    HW1 7794   4.677   4.659   6.251 -0.6954  0.9923 -0.2405
 2231SOL    HW2 7795   4.812   4.723   6.222  0.0890 -0.6465 -0.3158
 2232SOL     OW 7796   1.960   5.967   3.259 -0.1265  0.0917  0.3440
 2232SOL    HW1 7797   1.982   5.874   3.247  0.1646  0.3753 -1.6011
 2232SOL    HW2 7798   1.982   6.008   3.175  1.0641  2.2005  1.6024
 2233SOL     OW 7799   1.343   4.878   2.751 -0.1842 -0.2337 -0.4196
 2233SOL    HW1 7800   1.253   4.889   2.721 -0.6879 -0.7197  0.8374
 2233SOL    HW2 7801   1.337   4.876   2.847  1.0640 -1.0791 -0.3255
 2234SOL     OW 7802   0.764   3.777   7.724  0.2233  0.2336 -0.3400
 2234SOL    HW1 7803   0.701   3.846   7.747 -1.2989 -1.5642  1.3893
 2234SOL    HW2 7804   0.824   3.774   7.799  0.0551 -0.5103 -0.2241
 2235SOL     OW 7805   3.480   0.198   0.999 -0.0540  0.1498  0.1049
 2235SOL    HW1 7806   3.473   0.258   0.926  1.2684  0.3851  0.1450
 2235SOL    HW2 7807   3.505   0.114   0.959 -0.4388 -0.0057  0.1859
 2236SOL     OW 7808   0.906   2.133   3.162 -0.0049 -0.1099  0.0758
 2236SOL    HW1 7809   0.945   2.050   3.136 -0.5057 -0.1590 -0.5449
 2236SOL    HW2 7810   0.813   2.124   3.140  0.1400  1.0579 -1.1601
 2237SOL     OW 7811   0.990   7.048   1.050 -0.1939  0.1462  0.0595
 2237SOL    HW1 7812   0.974   7.137   1.083 -0.2250  0.4497 -0.7560
 2237SOL    HW2 7813   1.076   7.025   1.084 -0.5628  0.1331  1.0213
 2238SOL     OW 7814   7.681   1.683   5.599  0.0795 -0.4800  0.0440
 2238SOL    HW1 7815   7.702   1.614   5.661 -1.4014 -1.2352 -0.2480
 2238SOL    HW2 7816   7.587   1.695   5.607  0.3195  1.7099  0.2638
 2239SOL     OW 7817   8.090   2.450   1.766  0.4651  0.6119  0.2086
 2239SOL    HW1 7818   8.042   2.390   1.823 -0.8963 -0.0958 -1.5700
 2239SOL    HW2 7819   8.165   2.400   1.735  0.1592  0.3410 -0.0979
 2240SOL     OW 7820   2.306   7.908   7.177 -0.2615 -0.4285  0.0451
 2240SOL    HW1 7821   2.263   7.994   7.173  1.0349  0.3051  0.8748
 2240SOL    HW2 7822   2.263   7.863   7.250  0.2985  0.2810  0.8447
 2241SOL     OW 7823   3.303   7.846   1.088 -0.0056 -0.2104 -0.6631
 2241SOL    HW1 7824   3.224   7.877   1.132  0.7969  1.1122 -0.1007
 2241SOL    HW2 7825   3.350   7.926   1.065  0.2429 -0.8979 -2.7844
 2242SOL     OW 7826   8.143   0.652   6.196  0.2642 -0.0910  0.1079
 2242SOL    HW1 7827   8.142   0.732   6.248 -1.9776 -0.0463  0.0578
 2242SOL    HW2 7828   8.085   0.592   6.242  1.2390 -1.4267 -0.3273
 2243SOL     OW 7829   2.605   8.569   6.768  0.2154 -0.4184  0.2298
 2243SOL    HW1 7830   2.675   8.569   6.834  0.7125 -0.2856 -0.2808
 2243SOL    HW2 7831   2.538   8.512   6.804  0.2665  0.0306  1.0679
 2244SOL     OW 7832   2.605   2.009   1.122 -0.6016  0.0519  0.6539
 2244SOL    HW1 7833   2.690   2.020   1.079 -1.0479 -0.1046 -0.2900
 2244SOL    HW2 7834   2.588   1.915   1.120  0.0143 -0.1444  2.4815
 2245SOL     OW 7835   8.622   2.285   0.289 -0.1235 -0.0857  0.0651
 2245SOL    HW1 7836   8.573   2.211   0.326 -1.3099  1.5412  1.9758
 2245SOL    HW2 7837   8.693   2.245   0.240 -2.0833 -2.5348 -0.9922
 2246SOL     OW 7838   4.428   6.267   5.523 -0.1490  0.0797  0.2840
 2246SOL    HW1 7839   4.339   6.238   5.506  0.1421 -0.3779 -0.5562
 2246SOL    HW2 7840   4.420   6.360   5.545 -0.7992  0.1105 -0.0759
 2247SOL     OW 7841   4.295   1.973   8.310  0.0631  0.8336 -0.2691
 2247SOL    HW1 7842   4.348   1.904   8.348 -0.2544 -0.0730 -1.4018
 2247SOL    HW2 7843   4.358   2.028   8.262  0.1420  0.5097 -0.5388
 2248SOL     OW 7844   0.738   7.172   4.631 -0.6050  0.4004 -0.2479
 2248SOL    HW1 7845   0.688   7.250   4.607  0.1282  1.4173  1.3760
 2248SOL    HW2 7846   0.742   7.174   4.726 -0.1089 -1.3581 -0.1913
 2249SOL     OW 7847   7.372   7.944   7.159 -0.3929  0.0406 -0.2044
 2249SOL    HW1 7848   7.427   7.873   7.190 -0.8706 -0.7944 -1.1846
 2249SOL    HW2 7849   7.300   7.949   7.222  0.7312  1.1219  1.0687
 2250SOL     OW 7850   2.170   2.206   4.251 -0.0391 -0.6311 -0.4404
 2250SOL    HW1 7851   2.260   2.174   4.254 -0.5147 -1.9678  0.0403
 2250SOL    HW2 7852   2.171   2.272   4.181  1.1365 -1.1788 -0.9681
 2251SOL     OW 7853   2.456   0.351   6.642 -0.0239 -0.1381  0.0623
 2251SOL    HW1 7854   2.397   0.308   6.703 -2.1216  0.1516 -1.6628
 2251SOL    HW2 7855   2.506   0.280   6.602  0.0310 -0.4864  0.7423
 2252SOL     OW 7856   2.127   3.756   3.773 -0.1222  0.3879  0.2504
 2252SOL    HW1 7857   2.036   3.729   3.764  0.0260  0.2227 -1.0877
 2252SOL    HW2 7858   2.178   3.676   3.759  0.2290  0.3194  1.7957
 2253SOL     OW 7859   1.745   2.445   4.934 -0.3186  0.3523 -0.1482
 2253SOL    HW1 7860   1.751   2.454   4.839  0.1422 -0.9691 -0.2684
 2253SOL    HW2 7861   1.831   2.472   4.966 -0.4418  0.7040 -0.1096
 2254SOL     OW 7862   5.875   6.858   8.571  0.2727 -0.0627 -0.2925
 2254SOL    HW1 7863   5.876   6.764   8.555  0.5774 -0.2841  0.9610
 2254SOL    HW2 7864   5.966   6.881   8.590  0.6350  0.9188 -2.7738
 2255SOL     OW 7865   3.949   3.839   6.752 -0.2409  0.1510 -0.5210
 2255SOL    HW1 7866   4.008   3.886   6.811 -1.0616  1.4529 -0.7178
 2255SOL    HW2 7867   3.923   3.761   6.801  0.1542  0.5239  0.2909
 2256SOL     OW 7868   6.913   1.404   2.528 -0.2344  0.2417  0.1742
 2256SOL    HW1 7869   6.961   1.468   2.475 -0.9266  1.6222  1.1535
 2256SOL    HW2 7870   6.949   1.414   2.616 -0.4174 -0.6744  0.3655
 2257SOL     OW 7871   1.845   3.043   6.735 -0.6678 -0.6248  0.2944
 2257SOL    HW1 7872   1.891   3.066   6.654 -3.2140  2.1536 -0.5831
 2257SOL    HW2 7873   1.886   3.098   6.802 -1.3354  0.3995 -0.0972
 2258SOL     OW 7874   2.302   0.504   2.677 -0.4448 -0.4231  0.8557
 2258SOL    HW1 7875   2.295   0.498   2.582 -1.6715 -1.7316  0.9842
 2258SOL    HW2 7876   2.269   0.419   2.708 -0.8195  0.2778  2.4701
 2259SOL     OW 7877   1.546   8.251   2.821 -0.2906 -0.8887 -0.0221
 2259SOL    HW1 7878   1.484   8.192   2.863 -0.0690 -0.5281  0.8357
 2259SOL    HW2 7879   1.581   8.303   2.893  1.0978 -1.1706 -0.4675
 2260SOL     OW 7880   2.083   2.940   6.292  0.2652  0.5185 -0.1479
 2260SOL    HW1 7881   2.169   2.951   6.333 -0.8285 -0.7530  2.7064
 2260SOL    HW2 7882   2.086   2.853   6.254 -0.6849 -0.8770  2.7100
 2261SOL     OW 7883   6.125   1.608   2.973  0.1591  0.2829 -0.1836
 2261SOL    HW1 7884   6.186   1.534   2.976 -0.1078 -0.1004 -2.3298
 2261SOL    HW2 7885   6.085   1.610   3.060  0.7078 -1.6471  0.1602
 2262SOL     OW 7886   3.706   3.472   8.384 -0.1700 -0.2065  0.5844
 2262SOL    HW1 7887   3.681   3.495   8.474 -1.9785  0.0200  0.0695
 2262SOL    HW2 7888   3.792   3.512   8.372 -1.1602  2.3786  1.2795
 2263SOL     OW 7889   1.608   1.893   3.460 -0.0483  0.3543  0.1228
 2263SOL    HW1 7890   1.646   1.858   3.380  2.3697  1.8800  0.5309
 2263SOL    HW2 7891   1.574   1.815   3.505  1.3781 -0.9318 -0.9096
 2264SOL     OW 7892   2.199   8.155   3.368 -0.2109  0.2634 -0.1251
 2264SOL    HW1 7893   2.260   8.228   3.360 -1.1654  1.1808  0.7211
 2264SOL    HW2 7894   2.113   8.196   3.373 -0.8727 -0.9884 -0.7998
 2265SOL     OW 7895   3.488   1.188   1.286 -0.3239 -0.2100 -0.6893
 2265SOL    HW1 7896   3.511   1.271   1.328 -0.8733 -1.3097  1.9903
 2265SOL    HW2 7897   3.568   1.161   1.241  0.5598  0.6926  0.2850
 2266SOL     OW 7898   5.962   0.198   0.461  0.0717 -0.0187 -0.0608
 2266SOL    HW1 7899   5.982   0.212   0.554  0.9912 -1.1798 -0.0606
 2266SOL    HW2 7900   6.046   0.175   0.422 -0.4994 -0.5994 -0.9759
 2267SOL     OW 7901   6.474   3.986   8.412  0.1922 -0.1328  0.1816
 2267SOL    HW1 7902   6.457   3.917   8.476 -1.2276  0.6950  0.7498
 2267SOL    HW2 7903   6.554   3.959   8.368  2.3874  0.1966  3.6297
 2268SOL     OW 7904   4.770   5.245   1.910 -0.4637 -0.3083  0.0433
 2268SOL    HW1 7905   4.763   5.214   1.820 -0.7318  1.1946 -0.4936
 2268SOL    HW2 7906   4.818   5.176   1.956  0.2092 -0.8317 -1.3812
 2269SOL     OW 7907   0.730   4.302   8.375  0.4986 -0.2023  0.3524
 2269SOL    HW1 7908   0.639   4.273   8.371  0.4786 -0.4709  2.0391
 2269SOL    HW2 7909   0.772   4.259   8.301 -0.1262 -2.5024  1.2404
 2270SOL     OW 7910   8.262   5.883   7.768 -0.3833 -0.3672  0.4138
 2270SOL    HW1 7911   8.286   5.865   7.860  0.9842  0.7969  0.3163
 2270SOL    HW2 7912   8.173   5.916   7.773  0.4916  2.0315  1.6400
 2271SOL     OW 7913   2.969   5.327   8.280  0.1150 -0.1167 -0.1415
 2271SOL    HW1 7914   2.917   5.261   8.236  3.1292 -1.7855 -1.5253
 2271SOL    HW2 7915   2.997   5.286   8.361 -0.3873  0.6049  0.4063
 2272SOL     OW 7916   0.705   3.207   7.208 -0.4101  0.3154  0.2333
 2272SOL    HW1 7917   0.683   3.233   7.298 -2.2307  1.0810 -0.3779
 2272SOL    HW2 7918   0.663   3.122   7.197 -0.4696  0.3739  0.0073
 2273SOL     OW 7919   4.523   7.311   0.122 -0.4122  0.4410 -0.4386
 2273SOL    HW1 7920   4.583   7.344   0.189  0.2082 -1.2229 -0.1250
 2273SOL    HW2 7921   4.580   7.270   0.057 -1.1855 -1.4205  0.0064
 2274SOL     OW 7922   1.543   8.578   8.515  0.4705 -0.4443 -0.1408
 2274SOL    HW1 7923   1.623   8.630   8.504  0.0770  0.6035  1.5718
 2274SOL    HW2 7924   1.520   8.550   8.426  3.0059 -1.2346 -0.6177
 2275SOL     OW 7925   5.394   5.986   3.543  0.1655 -0.4143 -0.0656
 2275SOL    HW1 7926   5.319   6.007   3.599  1.2488  0.0992  1.2641
 2275SOL    HW2 7927   5.409   5.893   3.558 -1.0053 -0.8520 -1.3912
 2276SOL     OW 7928   1.354   2.675   4.550  0.9034 -0.1645  0.1746
 2276SOL    HW1 7929   1.259   2.673   4.537  0.9005  0.4287  0.0710
 2276SOL    HW2 7930   1.378   2.767   4.534  1.4960 -0.3188  0.1753
 2277SOL     OW 7931   0.635   1.784   8.629 -0.3216 -0.3387  0.1040
 2277SOL    HW1 7932   0.598   1.755   8.546  3.1442 -0.6310 -1.5320
 2277SOL    HW2 7933   0.680   1.707   8.664  0.7503  0.5218  0.7167
 2278SOL     OW 7934   4.247   2.673   2.190 -0.4865  0.5657 -0.3078
 2278SOL    HW1 7935   4.207   2.587   2.175 -0.8787  0.9630 -1.6467
 2278SOL    HW2 7936   4.253   2.680   2.285 -0.4409 -0.9463 -0.1774
 2279SOL     OW 7937   2.998   5.998   3.609 -0.5597  0.3751  0.4438
 2279SOL    HW1 7938   3.012   5.905   3.589  0.8149  0.3391  1.4086
 2279SOL    HW2 7939   2.987   6.039   3.523 -1.0316 -0.6414 -0.0061
 2280SOL     OW 7940   8.820   0.301   5.391 -0.3554  0.0031 -0.2906
 2280SOL    HW1 7941   8.847   0.389   5.418 -0.7578  0.0814 -0.1381
 2280SOL    HW2 7942   8.724   0.306   5.385 -0.4932 -0.7863  1.0079
 2281SOL     OW 7943   4.193   3.179   8.307  0.6594 -0.0889  0.7940
 2281SOL    HW1 7944   4.123   3.125   8.270  0.4744 -0.5442  1.7756
 2281SOL    HW2 7945   4.272   3.150   8.261  0.2357  0.3767 -0.2703
 2282SOL     OW 7946   4.466   7.785   2.479  0.0727  0.1875 -0.4546
 2282SOL    HW1 7947   4.430   7.729   2.548  1.5879 -1.4818 -0.9448
 2282SOL    HW2 7948   4.392   7.799   2.420 -0.6975 -0.1667  0.3963
 2283SOL     OW 7949   3.348   4.171   3.368 -0.0555 -0.8665 -0.5898
 2283SOL    HW1 7950   3.327   4.103   3.433  1.7671  0.2395  1.2734
 2283SOL    HW2 7951   3.272   4.229   3.370  0.0983 -0.6822  0.8429
 2284SOL     OW 7952   4.802   4.389   4.712 -0.1322  0.3449  0.2355
 2284SOL    HW1 7953   4.732   4.416   4.771 -1.1016  1.9469 -1.5000
 2284SOL    HW2 7954   4.850   4.469   4.694  1.7094 -0.5903  0.7646
 2285SOL     OW 7955   6.527   0.284   2.566 -0.2378  0.0317 -0.0177
 2285SOL    HW1 7956   6.611   0.315   2.532 -0.1076 -1.4381 -1.1505
 2285SOL    HW2 7957   6.525   0.191   2.544 -1.1196 -0.5320  2.1704
 2286SOL     OW 7958   2.857   4.751   2.746  0.6349  0.2786  0.6478
 2286SOL    HW1 7959   2.799   4.698   2.800  1.3024 -0.4673  0.6510
 2286SOL    HW2 7960   2.943   4.709   2.755  0.7117 -0.0379 -1.2183
 2287SOL     OW 7961   2.401   4.917   3.276 -0.0991 -0.7953 -0.0845
 2287SOL    HW1 7962   2.347   4.895   3.351  0.0291  0.1500  0.2876
 2287SOL    HW2 7963   2.407   4.835   3.227  0.0477 -1.5021  1.0734
 2288SOL     OW 7964   4.947   3.517   4.033 -0.2050 -0.4131 -0.0323
 2288SOL    HW1 7965   4.914   3.458   4.101  0.8662 -2.2111 -0.9990
 2288SOL    HW2 7966   4.871   3.534   3.977 -0.4109 -1.3500 -0.0501
 2289SOL     OW 7967   4.997   3.492   8.679 -0.1643  0.0121 -0.1124
 2289SOL    HW1 7968   5.003   3.565   8.617 -0.2787  0.0047 -0.1316
 2289SOL    HW2 7969   4.998   3.414   8.623  0.4742 -0.0238 -0.0681
 2290SOL     OW 7970   3.800   5.049   7.561 -0.2826 -0.1156 -0.2061
 2290SOL    HW1 7971   3.892   5.025   7.565 -0.5270 -1.0878 -0.1807
 2290SOL    HW2 7972   3.785   5.099   7.641  0.8055  2.2501 -1.4013
 2291SOL     OW 7973   8.291   0.821   6.968  0.5570 -0.1680  0.1559
 2291SOL    HW1 7974   8.211   0.861   6.935  1.3527  0.7101 -0.7816
 2291SOL    HW2 7975   8.294   0.735   6.927  0.3180 -0.0320 -0.1464
 2292SOL     OW 7976   8.945   8.093   7.464  0.2945 -0.2125  0.1909
 2292SOL    HW1 7977   8.851   8.102   7.479  0.1971 -0.8542  0.0175
 2292SOL    HW2 7978   8.981   8.069   7.550  0.0187 -1.8846 -0.1203
 2293SOL     OW 7979   8.818   4.435   0.095  0.2396  0.5594  0.0992
 2293SOL    HW1 7980   8.861   4.359   0.134  1.1216  0.3040 -1.2932
 2293SOL    HW2 7981   8.726   4.428   0.123 -0.3372 -2.4975 -2.0159
 2294SOL     OW 7982   3.584   2.129   3.087  0.0237  0.7502 -0.0002
 2294SOL    HW1 7983   3.505   2.129   3.032  1.2221 -1.1619 -1.9055
 2294SOL    HW2 7984   3.586   2.041   3.125  0.6470  1.1785  0.9876
 2295SOL     OW 7985   8.931   7.650   5.785  0.5636  0.6771  0.5721
 2295SOL    HW1 7986   8.886   7.683   5.863  2.8579  2.1560  1.3990
 2295SOL    HW2 7987   9.022   7.679   5.797  1.9613 -2.7437 -0.6086
 2296SOL     OW 7988   3.058   8.152   3.745  0.6136 -0.2079  0.2438
 2296SOL    HW1 7989   3.098   8.138   3.831 -1.5098 -0.3485  1.2586
 2296SOL    HW2 7990   3.013   8.236   3.752 -0.0442 -0.4725 -0.5448
 2297SOL     OW 7991   5.104   6.788   8.621  0.6708  0.7902 -0.0231
 2297SOL    HW1 7992   5.100   6.693   8.628 -0.7791  0.8237  0.0117
 2297SOL    HW2 7993   5.055   6.808   8.541  1.4705  1.4744 -0.3482
 2298SOL     OW 7994   2.823   6.133   4.279 -0.5380 -0.0267 -0.3679
 2298SOL    HW1 7995   2.808   6.178   4.362  0.4001  2.4608 -1.4421
 2298SOL    HW2 7996   2.909   6.093   4.288 -1.1481 -1.1930  0.4140
 2299SOL     OW 7997   1.086   1.138   4.898  1.0510 -0.6675  0.0268
 2299SOL    HW1 7998   1.097   1.220   4.850  1.1127 -0.4337  0.4375
 2299SOL    HW2 7999   1.071   1.073   4.829  1.6141 -0.4238 -0.3399
 2300SOL     OW 8000   1.086   3.704   1.246  0.1567 -0.5992  0.4075
 2300SOL    HW1 8001   1.179   3.712   1.266  0.1647 -0.8317  0.4656
 2300SOL    HW2 8002   1.055   3.634   1.303 -0.1198 -0.3134  0.6095
 2301SOL     OW 8003   6.827   0.333   5.874 -0.1945  0.3357 -0.9748
 2301SOL    HW1 8004   6.759   0.379   5.922 -0.8625 -0.8711 -0.7288
 2301SOL    HW2 8005   6.797   0.335   5.783  0.6519  1.8814 -1.2511
 2302SOL     OW 8006   8.938   7.692   6.340  0.6600  0.1472  0.4329
 2302SOL    HW1 8007   8.851   7.728   6.359  0.0022 -0.6669 -0.8631
 2302SOL    HW2 8008   8.991   7.716   6.415 -1.2803 -1.3603  2.4449
 2303SOL     OW 8009   2.121   2.968   1.233 -0.3255  0.5837 -0.4092
 2303SOL    HW1 8010   2.175   2.909   1.179  0.1841  1.1385 -0.5243
 2303SOL    HW2 8011   2.041   2.919   1.250 -0.7425  0.6005 -2.1564
 2304SOL     OW 8012   4.128   5.838   4.737 -0.5244  0.8879  0.1374
 2304SOL    HW1 8013   4.102   5.775   4.670  0.6629  0.5703 -0.0417
 2304SOL    HW2 8014   4.139   5.920   4.690 -1.1732  1.0233  0.2132
 2305SOL     OW 8015   7.622   1.246   4.700 -0.2024  0.4662 -0.2679
 2305SOL    HW1 8016   7.713   1.220   4.714 -0.2638 -0.1588 -0.9902
 2305SOL    HW2 8017   7.572   1.199   4.766 -0.2925 -1.1667 -1.4470
 2306SOL     OW 8018   4.870   0.323   9.082 -0.0880  0.0096  0.2533
 2306SOL    HW1 8019   4.830   0.386   9.023 -1.0695 -0.2901  0.5734
 2306SOL    HW2 8020   4.935   0.373   9.131  2.6035 -0.2144 -2.7599
 2307SOL     OW 8021   1.043   5.319   7.442  0.1733  0.0462 -0.0807
 2307SOL    HW1 8022   1.014   5.241   7.490  1.4146  0.1117  0.8153
 2307SOL    HW2 8023   1.049   5.290   7.350  1.5567 -1.2202  0.3700
 2308SOL     OW 8024   8.901   6.688   6.581  0.9870  0.4588 -0.1307
 2308SOL    HW1 8025   8.869   6.701   6.491 -2.5960  2.0312  1.1630
 2308SOL    HW2 8026   8.890   6.595   6.597 -4.7563  0.8930  0.5027
 2309SOL     OW 8027   7.773   5.414   7.555  0.0327  0.0604 -0.3138
 2309SOL    HW1 8028   7.796   5.427   7.648 -3.3021 -1.4457  0.8504
 2309SOL    HW2 8029   7.760   5.503   7.522 -0.2952  0.5867  1.1339
 2310SOL     OW 8030   4.221   6.476   8.529  0.5595  0.1857 -0.5292
 2310SOL    HW1 8031   4.285   6.521   8.586  0.1563  0.2401 -0.1084
 2310SOL    HW2 8032   4.137   6.513   8.555  0.4115  0.5077 -1.4619
 2311SOL     OW 8033   0.198   0.188   4.179  0.8068 -0.0382 -0.7910
 2311SOL    HW1 8034   0.119   0.239   4.158  1.6260  2.4804  1.6316
 2311SOL    HW2 8035   0.165   0.111   4.226 -0.2715  1.4818  1.1149
 2312SOL     OW 8036   3.668   1.485   0.247  0.4384 -0.1777 -0.3323
 2312SOL    HW1 8037   3.618   1.526   0.177  1.3698  0.4836 -0.6194
 2312SOL    HW2 8038   3.617   1.503   0.326  0.1271  0.3328 -0.6439
 2313SOL     OW 8039   8.850   6.849   3.602  0.0791 -0.7636  0.3893
 2313SOL    HW1 8040   8.789   6.823   3.671  1.1962  0.7986  2.0515
 2313SOL    HW2 8041   8.850   6.945   3.605  0.2670 -0.6504 -1.7332
 2314SOL     OW 8042   5.261   3.240   5.477 -0.4257 -0.3390 -0.6818
 2314SOL    HW1 8043   5.269   3.293   5.397 -0.6220 -0.3340 -0.6991
 2314SOL    HW2 8044   5.299   3.295   5.545 -0.1227 -0.4036 -0.7985
 2315SOL     OW 8045   5.492   3.883   4.875  0.4383 -0.2888  0.0795
 2315SOL    HW1 8046   5.585   3.872   4.895  0.7986 -0.3119 -1.4893
 2315SOL    HW2 8047   5.450   3.889   4.961  2.0507  1.1279  0.8451
 2316SOL     OW 8048   6.752   8.251   4.451 -0.1068 -0.3012 -0.2145
 2316SOL    HW1 8049   6.788   8.318   4.509 -0.5189 -0.5882  0.3799
 2316SOL    HW2 8050   6.780   8.278   4.364 -1.4747  1.4799 -0.1645
 2317SOL     OW 8051   0.437   0.905   2.507 -0.0580 -0.1040  0.1719
 2317SOL    HW1 8052   0.466   0.884   2.596 -0.3189 -0.3065  0.2118
 2317SOL    HW2 8053   0.463   0.996   2.494 -1.5899  0.5011  1.1143
 2318SOL     OW 8054   2.860   6.879   1.090 -0.0791 -0.0704 -0.4027
 2318SOL    HW1 8055   2.776   6.910   1.057 -0.3170 -1.1525 -0.8529
 2318SOL    HW2 8056   2.839   6.836   1.173 -0.0716 -0.9153 -0.8341
 2319SOL     OW 8057   0.962   6.809   3.359  0.3517 -0.2150 -0.3399
 2319SOL    HW1 8058   0.970   6.810   3.264  0.6962  0.6833 -0.3160
 2319SOL    HW2 8059   0.957   6.901   3.383 -1.6745 -0.4776  0.3708
 2320SOL     OW 8060   3.670   3.366   0.553  0.2283 -0.5438 -0.1407
 2320SOL    HW1 8061   3.634   3.363   0.464  1.4501  1.3728 -0.7884
 2320SOL    HW2 8062   3.654   3.280   0.589 -2.2252 -0.7105 -1.4500
 2321SOL     OW 8063   4.796   2.389   8.492 -0.0899  0.1290 -0.6997
 2321SOL    HW1 8064   4.855   2.314   8.486 -1.5232 -0.9735 -1.6516
 2321SOL    HW2 8065   4.767   2.404   8.403  3.2899  4.5557 -1.4296
 2322SOL     OW 8066   4.145   4.761   8.596  0.0345  0.8762 -0.3774
 2322SOL    HW1 8067   4.143   4.679   8.547 -0.1157  0.8280 -0.2924
 2322SOL    HW2 8068   4.107   4.825   8.536 -0.4062  0.7612 -0.2238
 2323SOL     OW 8069   6.623   5.431   2.346 -0.8751 -0.4369 -0.8836
 2323SOL    HW1 8070   6.605   5.522   2.322 -2.3116 -0.8162 -1.3851
 2323SOL    HW2 8071   6.655   5.435   2.436 -0.5406  0.5962 -1.0383
 2324SOL     OW 8072   0.231   0.778   8.993 -0.2804 -0.3521  0.4596
 2324SOL    HW1 8073   0.191   0.710   8.940 -1.1526  0.5739 -0.1114
 2324SOL    HW2 8074   0.178   0.782   9.073 -0.1094 -0.4708  0.5805
 2325SOL     OW 8075   1.543   3.603   8.880  0.8615 -0.1601  0.0404
 2325SOL    HW1 8076   1.570   3.512   8.872 -0.3996 -0.4342 -2.2121
 2325SOL    HW2 8077   1.601   3.651   8.821  1.0825  0.4048  0.7003
 2326SOL     OW 8078   8.748   6.644   5.446  0.0085 -0.4602 -0.2304
 2326SOL    HW1 8079   8.721   6.734   5.466  1.8525  0.1383 -0.1980
 2326SOL    HW2 8080   8.667   6.598   5.427 -1.1869  0.7108  1.6966
 2327SOL     OW 8081   1.790   1.721   2.011 -0.3652  0.2629 -0.1436
 2327SOL    HW1 8082   1.772   1.734   1.917 -0.0248  0.2789 -0.2058
 2327SOL    HW2 8083   1.707   1.688   2.046 -0.5995  0.5913 -0.3832
 2328SOL     OW 8084   2.930   5.341   2.381  0.1153 -0.3814  0.1749
 2328SOL    HW1 8085   2.950   5.434   2.382 -0.2101 -0.3092  1.1312
 2328SOL    HW2 8086   3.005   5.301   2.336  1.1331  0.1603  1.3265
 2329SOL     OW 8087   4.376   6.719   7.635 -0.1391 -0.3908 -0.0731
 2329SOL    HW1 8088   4.280   6.718   7.634 -0.1461 -0.2802 -1.5571
 2329SOL    HW2 8089   4.400   6.630   7.663 -0.6376 -0.0479  1.5924
 2330SOL     OW 8090   6.549   0.997   5.284  0.0768  0.2072 -0.1159
 2330SOL    HW1 8091   6.550   1.079   5.234 -2.2200  1.1296  1.1773
 2330SOL    HW2 8092   6.483   0.943   5.241  0.0852 -0.1041  0.2577
 2331SOL     OW 8093   3.355   6.910   1.201 -0.1928 -0.4446  0.1396
 2331SOL    HW1 8094   3.386   6.840   1.143  0.3687 -0.4566  0.4488
 2331SOL    HW2 8095   3.433   6.941   1.246 -0.4315  0.4317 -0.0389
 2332SOL     OW 8096   1.136   0.707   6.083 -0.2207 -0.3009 -0.1819
 2332SOL    HW1 8097   1.126   0.766   6.008  1.3016  2.3436  1.5451
 2332SOL    HW2 8098   1.205   0.647   6.057  0.6808  0.9316 -0.7535
 2333SOL     OW 8099   1.696   8.592   6.817  0.9277 -0.0015  0.0051
 2333SOL    HW1 8100   1.644   8.661   6.775  1.4415 -0.4752 -1.4542
 2333SOL    HW2 8101   1.670   8.596   6.909 -1.6272 -0.1229 -0.6144
 2334SOL     OW 8102   6.695   2.533   0.289  0.0742 -0.4646  0.0261
 2334SOL    HW1 8103   6.709   2.438   0.286  0.9844 -0.4178  1.4613
 2334SOL    HW2 8104   6.642   2.546   0.368 -2.8794 -0.0101 -1.8466
 2335SOL     OW 8105   0.655   4.741   7.751  0.2929  0.1956  0.0100
 2335SOL    HW1 8106   0.601   4.671   7.713  1.6163 -1.2681  0.6930
 2335SOL    HW2 8107   0.664   4.805   7.681 -1.7526  0.1819 -0.3336
 2336SOL     OW 8108   5.279   3.434   5.274 -0.2454  0.0171 -0.3825
 2336SOL    HW1 8109   5.366   3.401   5.255 -0.0325 -0.9267  1.9592
 2336SOL    HW2 8110   5.229   3.418   5.193  1.3747 -0.6543 -1.2898
 2337SOL     OW 8111   7.804   1.077   2.403 -0.3840 -0.2482  0.3725
 2337SOL    HW1 8112   7.717   1.053   2.372 -0.1414  0.4492 -0.9495
 2337SOL    HW2 8113   7.807   1.172   2.395  0.4493 -0.2552  0.5149
 2338SOL     OW 8114   0.204   5.721   2.422 -0.0125 -0.1046  0.7652
 2338SOL    HW1 8115   0.115   5.688   2.422  0.3182 -1.1061 -0.8070
 2338SOL    HW2 8116   0.257   5.647   2.393  1.2347  0.7024  0.9218
 2339SOL     OW 8117   0.233   1.635   1.061  0.1682 -0.3205  0.6488
 2339SOL    HW1 8118   0.184   1.624   0.980  0.7881 -0.2988  0.2628
 2339SOL    HW2 8119   0.307   1.575   1.053  0.6552  0.2434  0.8519
 2340SOL     OW 8120   2.258   3.985   0.282 -0.0089 -0.0859 -0.5016
 2340SOL    HW1 8121   2.246   4.070   0.323 -1.6958 -0.5347  0.0324
 2340SOL    HW2 8122   2.212   3.992   0.198 -2.9288 -1.3347  0.8475
 2341SOL     OW 8123   3.722   1.339   3.253 -0.3529 -0.1068 -0.2110
 2341SOL    HW1 8124   3.746   1.331   3.346  1.1900 -2.8373 -0.7432
 2341SOL    HW2 8125   3.770   1.416   3.223  1.4721 -0.8381  0.6482
 2342SOL     OW 8126   8.145   0.496   2.293  0.1477 -0.7028 -0.5955
 2342SOL    HW1 8127   8.089   0.558   2.247  2.2942  0.8313 -1.3026
 2342SOL    HW2 8128   8.195   0.452   2.224  2.0985  0.3139  0.0847
 2343SOL     OW 8129   5.814   2.673   1.882  0.0228  0.3881  0.1430
 2343SOL    HW1 8130   5.720   2.672   1.903  0.6399 -0.0158  3.4175
 2343SOL    HW2 8131   5.837   2.581   1.871  0.2087  0.4076  0.3584
 2344SOL     OW 8132   4.563   4.634   4.037 -0.0740 -0.5547 -0.2031
 2344SOL    HW1 8133   4.640   4.620   4.092  0.0508 -1.4996 -0.5850
 2344SOL    HW2 8134   4.506   4.560   4.058  0.7935 -2.0531 -2.6610
 2345SOL     OW 8135   3.849   3.820   6.058  0.3641 -0.0218 -0.4867
 2345SOL    HW1 8136   3.803   3.891   6.103  1.3397  0.5734 -0.3891
 2345SOL    HW2 8137   3.867   3.756   6.126  0.1644 -0.0062 -0.4173
 2346SOL     OW 8138   6.817   8.160   7.422 -0.7945  0.1690 -0.2131
 2346SOL    HW1 8139   6.822   8.094   7.354  0.2621  1.6596 -1.6777
 2346SOL    HW2 8140   6.764   8.230   7.384 -1.9549  0.1907  1.3234
 2347SOL     OW 8141   5.261   1.821   1.480 -0.0650 -0.5218 -0.0428
 2347SOL    HW1 8142   5.172   1.855   1.474  0.1663 -0.1712 -2.3173
 2347SOL    HW2 8143   5.260   1.763   1.557 -1.3996  1.7971  1.8187
 2348SOL     OW 8144   7.965   0.078   4.422  0.3245 -0.2580  0.0351
 2348SOL    HW1 8145   7.998   0.056   4.509  2.8773  2.4134 -0.0801
 2348SOL    HW2 8146   7.900   0.147   4.438 -0.3926 -0.8775 -0.1332
 2349SOL     OW 8147   5.356   2.107   8.728 -0.6889  0.2534 -0.2168
 2349SOL    HW1 8148   5.279   2.057   8.754 -1.5660  1.7441  0.2366
 2349SOL    HW2 8149   5.429   2.049   8.744 -1.6609 -0.8949  0.2102
 2350SOL     OW 8150   7.918   3.018   0.314  0.1581 -0.3491 -0.2208
 2350SOL    HW1 8151   7.981   3.087   0.334  0.0924 -0.2330 -0.4080
 2350SOL    HW2 8152   7.851   3.027   0.382 -1.0521  1.2721 -1.5153
 2351SOL     OW 8153   5.396   6.284   4.795  0.4241 -0.1137 -0.2573
 2351SOL    HW1 8154   5.312   6.323   4.772  0.3419 -0.3217 -0.3132
 2351SOL    HW2 8155   5.393   6.275   4.890 -0.0093 -0.9959 -0.3389
 2352SOL     OW 8156   3.541   2.276   4.213 -0.0195  0.0110 -0.4264
 2352SOL    HW1 8157   3.544   2.198   4.158 -0.5329 -0.1694 -0.2029
 2352SOL    HW2 8158   3.557   2.349   4.152  3.2931 -0.4045 -0.2379
 2353SOL     OW 8159   0.256   4.954   5.292 -0.3710 -0.0323 -0.2209
 2353SOL    HW1 8160   0.303   5.036   5.279 -1.2754  0.5396  0.0622
 2353SOL    HW2 8161   0.287   4.922   5.377 -0.4506  0.3160 -0.0590
 2354SOL     OW 8162   8.007   5.099   3.197  0.8542 -0.1304 -0.6316
 2354SOL    HW1 8163   8.057   5.104   3.278  0.7765 -0.1593 -0.5814
 2354SOL    HW2 8164   8.062   5.140   3.131  0.1310  1.6305 -0.1905
 2355SOL     OW 8165   3.670   0.503   0.720 -0.0262 -0.4037 -0.1898
 2355SOL    HW1 8166   3.594   0.465   0.765 -0.3982  1.7016  1.0928
 2355SOL    HW2 8167   3.735   0.514   0.788  0.9827 -0.9635 -1.0305
 2356SOL     OW 8168   9.129   2.058   4.784 -0.4620 -0.3283 -0.2856
 2356SOL    HW1 8169   9.220   2.057   4.754 -0.4444  4.0321 -1.1395
 2356SOL    HW2 8170   9.133   2.096   4.871 -1.4556  1.9577 -1.1447
 2357SOL     OW 8171   3.368   1.698   8.290 -0.3296 -0.0685  0.4143
 2357SOL    HW1 8172   3.301   1.762   8.313 -1.2934 -0.8107 -0.2458
 2357SOL    HW2 8173   3.349   1.677   8.198  1.1766  0.1427  0.0305
 2358SOL     OW 8174   0.882   4.394   3.513 -0.2898 -0.1870  0.5279
 2358SOL    HW1 8175   0.838   4.327   3.565 -0.2447 -1.2342 -0.7526
 2358SOL    HW2 8176   0.877   4.473   3.567 -3.1755 -0.4100  0.7405
 2359SOL     OW 8177   6.873   5.253   3.081  0.0778  0.4795  0.1504
 2359SOL    HW1 8178   6.926   5.235   3.003 -0.4783 -1.2866  0.1242
 2359SOL    HW2 8179   6.916   5.204   3.151 -0.2835  0.8281  0.6248
 2360SOL     OW 8180   5.088   6.572   6.008 -0.6568 -0.6999 -0.2962
 2360SOL    HW1 8181   5.057   6.513   5.939  0.3279  0.0194 -1.3958
 2360SOL    HW2 8182   5.053   6.658   5.983 -1.5213 -0.6720  0.9206
 2361SOL     OW 8183   2.572   8.076   7.059  0.0329 -0.3009 -0.4239
 2361SOL    HW1 8184   2.500   8.034   7.106 -0.3304  0.5300 -0.2090
 2361SOL    HW2 8185   2.531   8.112   6.980  0.1453  0.4277 -0.1592
 2362SOL     OW 8186   4.175   8.949   4.221 -0.2788  0.3685 -0.1922
 2362SOL    HW1 8187   4.241   9.015   4.241  0.9400 -0.2419 -1.9968
 2362SOL    HW2 8188   4.103   9.000   4.181 -2.7474  1.6072  4.9321
 2363SOL     OW 8189   4.382   7.690   2.075 -0.0719  0.0264  0.3721
 2363SOL    HW1 8190   4.352   7.779   2.056 -1.7620 -0.5539  0.1361
 2363SOL    HW2 8191   4.356   7.639   1.998  0.3320 -0.7941  0.7644
 2364SOL     OW 8192   6.836   8.172   2.970  0.6084 -0.1817  0.6550
 2364SOL    HW1 8193   6.797   8.151   3.055 -0.8904 -1.8139 -0.3534
 2364SOL    HW2 8194   6.877   8.090   2.942 -0.8628 -0.3902 -1.1316
 2365SOL     OW 8195   6.094   4.264   4.401 -0.2354 -0.0664  0.2593
 2365SOL    HW1 8196   6.002   4.287   4.389 -0.3629 -0.7398 -0.1586
 2365SOL    HW2 8197   6.121   4.230   4.316  0.0897 -0.8832  0.6727
 2366SOL     OW 8198   5.858   5.373   0.458  0.7046 -0.0034 -0.0710
 2366SOL    HW1 8199   5.839   5.306   0.523  0.4192 -1.2192 -1.3432
 2366SOL    HW2 8200   5.887   5.449   0.508  3.9942 -1.9898  1.3323
 2367SOL     OW 8201   0.076   3.062   6.177  0.4555  0.1573  0.4914
 2367SOL    HW1 8202  -0.006   3.013   6.185  0.2503  0.1730 -1.1756
 2367SOL    HW2 8203   0.069   3.130   6.244 -1.1779  0.5343 -0.0027
 2368SOL     OW 8204   3.368   0.433   7.289 -0.7926 -0.7620 -0.1684
 2368SOL    HW1 8205   3.424   0.505   7.319  0.3013 -1.9200  0.6774
 2368SOL    HW2 8206   3.279   0.461   7.313 -0.7091  1.2694 -1.8497
 2369SOL     OW 8207   3.028   2.378   6.265  0.4000  0.0299  0.8696
 2369SOL    HW1 8208   3.121   2.385   6.247 -0.0784  1.5143 -1.4283
 2369SOL    HW2 8209   2.993   2.328   6.191 -0.5969 -0.9735  1.9676
 2370SOL     OW 8210   7.178   6.353   5.244 -0.0015 -0.3759  0.3624
 2370SOL    HW1 8211   7.227   6.321   5.320  2.9699  1.8799 -0.3763
 2370SOL    HW2 8212   7.228   6.321   5.169  1.4035  3.1308 -0.4090
 2371SOL     OW 8213   1.185   2.730   1.984  0.1226 -0.2177 -0.2183
 2371SOL    HW1 8214   1.224   2.710   1.899  0.0060  0.8500 -0.5281
 2371SOL    HW2 8215   1.258   2.726   2.046 -0.0375 -2.5916 -0.0590
 2372SOL     OW 8216   7.624   0.147   1.082  0.4081 -0.0372 -0.1549
 2372SOL    HW1 8217   7.635   0.162   0.988  1.3611 -1.8782 -0.3724
 2372SOL    HW2 8218   7.685   0.077   1.103  1.7224  1.6641  2.2694
 2373SOL     OW 8219   7.684   7.901   7.149  0.3315 -0.1498 -0.2042
 2373SOL    HW1 8220   7.617   7.951   7.104  0.4866  1.2085  0.9859
 2373SOL    HW2 8221   7.640   7.868   7.228  0.5399 -0.9458 -0.4142
 2374SOL     OW 8222   5.753   4.702   0.709 -0.1582  0.3417  0.0346
 2374SOL    HW1 8223   5.687   4.770   0.724  0.1039  0.5455  0.2784
 2374SOL    HW2 8224   5.706   4.619   0.724 -0.3182  0.4885  0.3696
 2375SOL     OW 8225   1.552   3.378   5.500 -0.1650  0.3698  0.2972
 2375SOL    HW1 8226   1.601   3.370   5.582 -0.6114  0.6166  0.5968
 2375SOL    HW2 8227   1.524   3.289   5.480  0.2980  0.2493  0.1957
 2376SOL     OW 8228   7.297   8.436   7.975  0.2823  0.5075 -0.6099
 2376SOL    HW1 8229   7.232   8.487   7.928 -0.3854 -0.1657 -0.4470
 2376SOL    HW2 8230   7.381   8.476   7.953 -0.3431  3.0187  1.1831
 2377SOL     OW 8231   7.266   1.859   5.962  0.2289  0.5850 -0.0430
 2377SOL    HW1 8232   7.284   1.866   5.868  0.0378 -1.2804 -0.2542
 2377SOL    HW2 8233   7.343   1.896   6.004  0.7572  0.5391 -0.9459
 2378SOL     OW 8234   7.440   8.820   5.063  0.4116  0.1760  0.4383
 2378SOL    HW1 8235   7.444   8.834   4.968  2.1548 -0.5992  0.3399
 2378SOL    HW2 8236   7.359   8.862   5.091  0.0346  0.7200 -1.3455
 2379SOL     OW 8237   5.962   4.713   6.222 -0.0772 -0.3659 -0.2968
 2379SOL    HW1 8238   5.889   4.660   6.254  0.4574 -1.2093 -0.4167
 2379SOL    HW2 8239   6.026   4.648   6.191  0.5646  0.3616 -0.5211
 2380SOL     OW 8240   2.629   7.458   4.714 -0.3083 -0.1992  0.2937
 2380SOL    HW1 8241   2.712   7.498   4.690 -0.4399 -0.4414 -0.5965
 2380SOL    HW2 8242   2.625   7.378   4.663 -1.2605  0.0061  0.0295
 2381SOL     OW 8243   0.072   0.350   5.757 -0.0769  0.2735  0.1088
 2381SOL    HW1 8244   0.145   0.406   5.730 -0.6101 -0.2005 -2.5805
 2381SOL    HW2 8245   0.110   0.263   5.761 -0.2582  0.1725 -0.3120
 2382SOL     OW 8246   3.100   4.955   5.493 -0.2795  0.1659  0.2923
 2382SOL    HW1 8247   3.139   4.871   5.466  0.0854  0.4957 -0.2407
 2382SOL    HW2 8248   3.025   4.966   5.435  1.3871  1.6101 -1.7449
 2383SOL     OW 8249   6.966   8.955   8.201  0.1944 -0.1058 -0.0335
 2383SOL    HW1 8250   6.957   8.974   8.295  3.3213 -0.6712  0.4830
 2383SOL    HW2 8251   7.042   8.898   8.195 -1.2118 -1.8953 -2.7811
 2384SOL     OW 8252   7.553   6.014   4.742  0.2067 -1.2515  0.5344
 2384SOL    HW1 8253   7.549   5.996   4.648  0.5399  0.9176  0.0470
 2384SOL    HW2 8254   7.621   5.955   4.775  0.5287 -1.6108 -0.7041
 2385SOL     OW 8255   4.853   3.047   7.963 -0.1636  0.0581 -0.2318
 2385SOL    HW1 8256   4.865   3.142   7.950 -1.2269  0.4052  1.1881
 2385SOL    HW2 8257   4.818   3.016   7.879  1.5266  0.6424 -1.2046
 2386SOL     OW 8258   0.272   0.082   6.516 -0.0137  0.0402  0.3637
 2386SOL    HW1 8259   0.310   0.092   6.429 -0.9988 -0.1383 -0.1058
 2386SOL    HW2 8260   0.315   0.006   6.553 -1.0460 -1.1706 -0.8090
 2387SOL     OW 8261   3.821   8.422   4.298 -0.2471  0.3419 -0.0763
 2387SOL    HW1 8262   3.779   8.349   4.344  0.4842 -0.0769 -0.0463
 2387SOL    HW2 8263   3.796   8.500   4.347  0.1499 -0.0476  0.7687
 2388SOL     OW 8264   0.907   5.068   7.911 -0.4732  0.1376  0.2833
 2388SOL    HW1 8265   0.856   5.065   7.992  0.0381 -4.2451  0.6951
 2388SOL    HW2 8266   0.843   5.049   7.842 -0.4692  1.3135 -0.0607
 2389SOL     OW 8267   5.845   4.865   5.309  0.2046  0.1770 -0.2839
 2389SOL    HW1 8268   5.900   4.933   5.348 -1.1993  0.2644  1.7001
 2389SOL    HW2 8269   5.763   4.910   5.288  0.2768 -0.2999 -1.7236
 2390SOL     OW 8270   0.562   6.701   1.407  0.2908  0.0596 -0.2851
 2390SOL    HW1 8271   0.576   6.743   1.492  0.1652 -0.3117 -0.0772
 2390SOL    HW2 8272   0.583   6.769   1.343  1.4939 -0.0073  0.0241
 2391SOL     OW 8273   5.307   0.556   0.642 -0.1569 -0.9669  0.3189
 2391SOL    HW1 8274   5.233   0.587   0.590 -0.2697  0.4076  1.2345
 2391SOL    HW2 8275   5.309   0.615   0.718  2.4471 -0.3273 -0.1513
 2392SOL     OW 8276   3.023   4.088   4.743  0.3764  0.0870 -0.3385
 2392SOL    HW1 8277   2.940   4.043   4.726 -0.0688  0.7042  0.1237
 2392SOL    HW2 8278   3.074   4.026   4.795 -0.3514  0.2075  0.5655
 2393SOL     OW 8279   3.318   7.857   3.297  0.6519  0.2112  0.6569
 2393SOL    HW1 8280   3.248   7.815   3.346  0.7813 -0.6653  0.1199
 2393SOL    HW2 8281   3.392   7.796   3.303  0.9555  0.5138  0.1483
 2394SOL     OW 8282   2.365   5.330   8.412 -0.3635  0.1158 -0.2614
 2394SOL    HW1 8283   2.313   5.394   8.363  0.3161  0.9737  0.1089
 2394SOL    HW2 8284   2.452   5.336   8.374 -0.1337 -0.1076  0.2235
 2395SOL     OW 8285   3.307   0.703   9.001  0.0484 -0.7850  0.3836
 2395SOL    HW1 8286   3.287   0.767   8.933  0.1127  0.5423  1.5655
 2395SOL    HW2 8287   3.333   0.624   8.953 -1.3775 -0.3948 -1.1234
 2396SOL     OW 8288   5.030   6.629   2.814  0.1039 -0.0338 -0.5573
 2396SOL    HW1 8289   4.992   6.716   2.804 -0.8492 -0.5941 -2.2626
 2396SOL    HW2 8290   5.095   6.622   2.744  2.2461  0.2804  1.2872
 2397SOL     OW 8291   7.385   8.446   0.614 -0.0149 -0.3212 -0.2247
 2397SOL    HW1 8292   7.308   8.409   0.659 -0.8630  1.1266 -0.4467
 2397SOL    HW2 8293   7.459   8.399   0.653 -0.8683 -0.4852  1.3034
 2398SOL     OW 8294   6.323   1.779   8.260 -0.1722  0.6334 -0.1560
 2398SOL    HW1 8295   6.235   1.762   8.226  0.3369  0.3394 -1.3962
 2398SOL    HW2 8296   6.350   1.860   8.217  0.3125  0.5023 -0.1089
 2399SOL     OW 8297   9.093   6.425   8.423 -0.1331  0.3767  0.2109
 2399SOL    HW1 8298   9.072   6.441   8.331  0.3485  1.4009  0.2600
 2399SOL    HW2 8299   9.009   6.429   8.469 -0.3977 -0.3338 -0.2094
 2400SOL     OW 8300   0.521   7.315   2.897 -0.5733  0.0083  0.2722
 2400SOL    HW1 8301   0.513   7.301   2.991  1.0903  2.8299  0.9549
 2400SOL    HW2 8302   0.614   7.334   2.883 -0.9764  0.7669 -1.7545
 2401SOL     OW 8303   1.259   7.543   7.148  0.3057  0.3660 -0.2113
 2401SOL    HW1 8304   1.304   7.595   7.082  0.0810 -0.4432 -1.0089
 2401SOL    HW2 8305   1.263   7.597   7.227  0.8893  1.1845 -0.7844
 2402SOL     OW 8306   8.490   8.894   4.667 -0.2864 -0.5644  0.5173
 2402SOL    HW1 8307   8.452   8.905   4.754 -0.0796  0.7234  0.4693
 2402SOL    HW2 8308   8.551   8.968   4.658 -1.1286 -0.0125 -1.1417
 2403SOL     OW 8309   5.339   3.700   8.525 -0.0175 -0.0700 -0.3814
 2403SOL    HW1 8310   5.254   3.733   8.553 -0.0758 -0.4625 -0.0832
 2403SOL    HW2 8311   5.319   3.634   8.459  0.0053 -0.8020  0.3285
 2404SOL     OW 8312   6.287   8.009   8.389 -0.0629  0.3464  0.3167
 2404SOL    HW1 8313   6.319   7.958   8.463  1.5117  2.1197  0.9464
 2404SOL    HW2 8314   6.364   8.026   8.336 -0.7167  1.2464 -0.3812
 2405SOL     OW 8315   4.854   0.633   8.081  0.0593 -0.7422  0.5377
 2405SOL    HW1 8316   4.809   0.556   8.046  2.5233 -1.6258 -0.9771
 2405SOL    HW2 8317   4.811   0.707   8.039 -1.2213 -1.3983  0.6575
 2406SOL     OW 8318   8.852   4.863   7.038  0.3648  0.1042  0.1456
 2406SOL    HW1 8319   8.844   4.941   7.093 -3.4247 -0.1586  0.2785
 2406SOL    HW2 8320   8.889   4.796   7.096  2.7278  1.4506  0.3069
 2407SOL     OW 8321   2.600   4.535   1.844 -0.7670  0.4706  0.6336
 2407SOL    HW1 8322   2.514   4.498   1.864  0.0859 -1.3301  1.1664
 2407SOL    HW2 8323   2.656   4.459   1.829  0.6927  1.6114  0.0456
 2408SOL     OW 8324   5.031   6.881   3.381 -0.3914  0.4071 -0.0328
 2408SOL    HW1 8325   5.050   6.885   3.287  0.6902 -1.0470  0.0923
 2408SOL    HW2 8326   5.103   6.929   3.422  0.6172 -1.1935  0.1689
 2409SOL     OW 8327   3.414   1.013   2.328  0.3647  0.2352 -0.2059
 2409SOL    HW1 8328   3.423   0.983   2.237 -0.4657  1.2407 -0.6389
 2409SOL    HW2 8329   3.502   1.043   2.351  1.0399 -1.7764 -0.0004
 2410SOL     OW 8330   6.310   5.708   4.481 -0.4482  0.5670  0.0887
 2410SOL    HW1 8331   6.330   5.616   4.464 -0.1547  0.4862  0.8247
 2410SOL    HW2 8332   6.395   5.751   4.486 -0.6047  1.1148 -1.4112
 2411SOL     OW 8333   6.682   6.193   8.776  0.3341 -0.0239 -0.3823
 2411SOL    HW1 8334   6.671   6.240   8.858  1.7980  0.0832 -0.2223
 2411SOL    HW2 8335   6.749   6.127   8.795  0.8601  0.1538 -1.5335
 2412SOL     OW 8336   7.353   2.983   0.616 -0.0990 -0.7356  0.1242
 2412SOL    HW1 8337   7.289   3.009   0.550  0.0085  0.6763  0.5441
 2412SOL    HW2 8338   7.430   3.036   0.597  0.4754 -1.4249  0.4607
 2413SOL     OW 8339   3.940   5.669   1.902  0.3015 -0.4282 -0.0651
 2413SOL    HW1 8340   4.023   5.652   1.858  2.2987 -2.2815  3.9714
 2413SOL    HW2 8341   3.888   5.590   1.887  0.1447 -0.2189 -0.6671
 2414SOL     OW 8342   2.310   4.797   2.642  0.2530 -0.0871  0.2399
 2414SOL    HW1 8343   2.333   4.890   2.637  1.8872 -0.3155  2.2289
 2414SOL    HW2 8344   2.236   4.794   2.703  0.1318 -0.0914  0.0937
 2415SOL     OW 8345   2.603   0.177   2.081  1.2779  0.3221  0.0957
 2415SOL    HW1 8346   2.609   0.271   2.067 -0.2157  0.7712  2.0753
 2415SOL    HW2 8347   2.608   0.139   1.993  0.5531  2.3148 -0.8608
 2416SOL     OW 8348   5.471   3.215   8.173 -0.3513  0.0837 -0.1051
 2416SOL    HW1 8349   5.458   3.296   8.122 -0.3817 -0.9801 -1.8572
 2416SOL    HW2 8350   5.401   3.157   8.144 -1.1249 -0.1738  2.0861
 2417SOL     OW 8351   0.698   7.539   2.671  0.4655 -0.1681 -0.7107
 2417SOL    HW1 8352   0.745   7.496   2.599  1.8996  0.4704 -0.1879
 2417SOL    HW2 8353   0.701   7.476   2.743  0.3061 -0.2224 -0.7512
 2418SOL     OW 8354   2.459   2.950   6.688 -0.1692  0.6042 -0.3982
 2418SOL    HW1 8355   2.401   2.911   6.753  0.9344 -1.4644 -0.5543
 2418SOL    HW2 8356   2.546   2.944   6.728  0.4690 -0.2941 -1.8464
 2419SOL     OW 8357   2.043   0.541   4.149 -0.3017  0.3346 -0.0681
 2419SOL    HW1 8358   2.071   0.595   4.222 -0.4319 -0.2921  0.4548
 2419SOL    HW2 8359   2.063   0.593   4.071  0.7693  0.5872  0.3602
 2420SOL     OW 8360   1.595   2.265   7.654 -0.3661 -0.2995 -0.8315
 2420SOL    HW1 8361   1.642   2.348   7.664  0.9275 -1.0757 -0.2541
 2420SOL    HW2 8362   1.579   2.236   7.744 -0.9304 -0.6234 -1.0316
 2421SOL     OW 8363   0.801   2.176   2.791  0.2438 -0.5266 -0.2723
 2421SOL    HW1 8364   0.837   2.260   2.760  1.1813 -1.0017 -0.4988
 2421SOL    HW2 8365   0.876   2.117   2.791 -0.7728 -1.8931 -1.9412
 2422SOL     OW 8366   9.088   2.125   5.420  0.1411  0.7378  0.3839
 2422SOL    HW1 8367   9.081   2.085   5.507  2.1654 -0.9537 -0.1270
 2422SOL    HW2 8368   9.012   2.093   5.373 -1.8068  2.8604  1.8742
 2423SOL     OW 8369   1.701   6.117   8.308 -0.2446 -0.0220  0.1379
 2423SOL    HW1 8370   1.635   6.136   8.375  0.4380  0.9380  0.5516
 2423SOL    HW2 8371   1.697   6.022   8.297 -0.8845 -0.1065  1.0009
 2424SOL     OW 8372   8.423   8.212   3.985 -0.8002  0.2231 -0.7668
 2424SOL    HW1 8373   8.340   8.184   3.947 -1.2575  1.7717 -0.9861
 2424SOL    HW2 8374   8.453   8.283   3.929  0.1376  0.4126 -0.0639
 2425SOL     OW 8375   2.870   3.705   8.337 -0.2400  0.0015  0.2442
 2425SOL    HW1 8376   2.803   3.639   8.322  1.0368 -0.9166 -1.9856
 2425SOL    HW2 8377   2.844   3.779   8.281  0.8647 -0.6182 -1.1618
 2426SOL     OW 8378   1.659   3.499   1.502 -0.0320  0.2961 -0.5054
 2426SOL    HW1 8379   1.570   3.510   1.467 -0.3925 -2.8884 -0.8999
 2426SOL    HW2 8380   1.711   3.471   1.426  0.8508  0.2265  0.1131
 2427SOL     OW 8381   6.585   8.843   0.398  0.4102  0.2837 -0.1482
 2427SOL    HW1 8382   6.676   8.821   0.419  0.8609  0.9990 -1.2427
 2427SOL    HW2 8383   6.568   8.923   0.448  1.3678  1.7872 -2.0801
 2428SOL     OW 8384   1.561   0.523   2.208 -0.4590  0.0264 -0.4290
 2428SOL    HW1 8385   1.538   0.609   2.241 -1.3029 -0.8602  1.4337
 2428SOL    HW2 8386   1.488   0.467   2.233  0.0426 -1.2295 -1.6468
 2429SOL     OW 8387   8.279   3.239   5.434  0.0562  0.1913  0.3270
 2429SOL    HW1 8388   8.212   3.308   5.435 -1.1015 -0.8703 -0.8887
 2429SOL    HW2 8389   8.237   3.165   5.391  2.5893  0.0880 -2.3189
 2430SOL     OW 8390   6.182   3.296   7.230  0.1640  0.1120 -0.2584
 2430SOL    HW1 8391   6.128   3.272   7.305  0.4134 -1.0001 -0.4151
 2430SOL    HW2 8392   6.143   3.377   7.197 -0.5083  0.1137  0.5053
 2431SOL     OW 8393   6.502   6.639   2.332 -0.5285 -0.1152  0.0510
 2431SOL    HW1 8394   6.481   6.731   2.316  0.1592 -0.2484 -1.8499
 2431SOL    HW2 8395   6.426   6.605   2.380 -1.2361  1.1898 -0.0933
 2432SOL     OW 8396   0.576   0.371   1.931  0.1403  0.5117 -0.5121
 2432SOL    HW1 8397   0.482   0.386   1.947  0.6780  2.3742  1.3901
 2432SOL    HW2 8398   0.602   0.307   1.997  0.2032 -0.0933 -1.1153
 2433SOL     OW 8399   1.824   6.138   0.586  0.7451  0.6209 -0.6220
 2433SOL    HW1 8400   1.879   6.167   0.659  0.0205  2.4194 -0.7420
 2433SOL    HW2 8401   1.784   6.057   0.617  3.2789 -0.6726 -0.4617
 2434SOL     OW 8402   1.586   1.736   7.528  0.0346 -0.4504  0.1259
 2434SOL    HW1 8403   1.594   1.664   7.591  0.2620 -1.8296 -1.4225
 2434SOL    HW2 8404   1.643   1.804   7.564 -1.4221 -0.3627  2.4642
 2435SOL     OW 8405   8.857   1.740   5.595  0.1898  0.1288 -0.0633
 2435SOL    HW1 8406   8.770   1.775   5.578  0.2670  0.2688 -0.1650
 2435SOL    HW2 8407   8.890   1.791   5.669  0.2050  0.1087 -0.0559
 2436SOL     OW 8408   1.306   4.242   7.797 -1.0875 -0.2066 -0.2112
 2436SOL    HW1 8409   1.290   4.238   7.891  1.7362  1.5640  0.4624
 2436SOL    HW2 8410   1.353   4.161   7.778  0.8442  0.6844  0.5464
 2437SOL     OW 8411   3.626   7.550   7.047 -0.3801 -0.2658  0.1979
 2437SOL    HW1 8412   3.660   7.538   7.136 -0.1449  1.3417  0.3495
 2437SOL    HW2 8413   3.535   7.578   7.060 -0.7422 -1.2318 -0.1269
 2438SOL     OW 8414   6.812   2.090   8.740 -0.4381  0.1329 -0.0103
 2438SOL    HW1 8415   6.728   2.129   8.766 -0.9764 -0.7483 -0.3938
 2438SOL    HW2 8416   6.791   2.037   8.663  0.7037  0.8645 -0.8446
 2439SOL     OW 8417   7.621   3.657   0.104 -0.8514  0.1355  0.0083
 2439SOL    HW1 8418   7.707   3.627   0.074 -0.3337  0.0230  1.5187
 2439SOL    HW2 8419   7.639   3.740   0.148 -1.3537 -0.3603  1.1758
 2440SOL     OW 8420   2.643   2.635   5.099  0.0607 -0.9146 -0.2380
 2440SOL    HW1 8421   2.642   2.602   5.009 -0.1346  0.6435 -0.8576
 2440SOL    HW2 8422   2.702   2.711   5.096  1.0145 -1.5493  1.2490
 2441SOL     OW 8423   3.384   8.552   3.582 -0.0513 -0.0725  0.3679
 2441SOL    HW1 8424   3.348   8.485   3.639 -0.6502  0.8011  1.0417
 2441SOL    HW2 8425   3.319   8.622   3.583  0.0956  0.1178 -1.1001
 2442SOL     OW 8426   2.042   4.895   2.415 -0.1733  0.0861 -0.0107
 2442SOL    HW1 8427   2.009   4.984   2.430 -1.5123 -0.6170  1.4590
 2442SOL    HW2 8428   2.136   4.907   2.400 -0.6640  1.9605 -2.2633
 2443SOL     OW 8429   8.975   6.499   1.638  0.2847  0.8584 -0.2712
 2443SOL    HW1 8430   8.929   6.423   1.603  0.5185  0.2626  0.6659
 2443SOL    HW2 8431   9.014   6.542   1.562 -1.6833  1.3018 -1.0688
 2444SOL     OW 8432   7.846   4.363   5.445 -0.0838  0.6985  0.6171
 2444SOL    HW1 8433   7.856   4.416   5.524 -0.4698  0.3578  0.9017
 2444SOL    HW2 8434   7.778   4.299   5.468  1.7040 -1.1751  0.9435
 2445SOL     OW 8435   4.938   7.310   3.522  0.7071  0.5608  0.3803
 2445SOL    HW1 8436   4.913   7.238   3.579 -1.2600  1.1176  0.3232
 2445SOL    HW2 8437   4.982   7.373   3.579  3.6651 -1.1545  0.1890
 2446SOL     OW 8438   6.753   7.720   8.868  0.0229 -0.1568  0.5987
 2446SOL    HW1 8439   6.791   7.803   8.837 -0.7010  0.3019  0.9111
 2446SOL    HW2 8440   6.731   7.672   8.788 -0.1430  0.2307  0.4096
 2447SOL     OW 8441   2.656   5.144   6.046 -0.1529 -0.2155  0.1189
 2447SOL    HW1 8442   2.700   5.059   6.046 -0.0441 -0.1852  1.4850
 2447SOL    HW2 8443   2.573   5.128   6.092  0.8547  0.8411  2.4837
 2448SOL     OW 8444   0.063   1.749   7.503 -0.2209 -0.4654 -0.7682
 2448SOL    HW1 8445   0.129   1.814   7.481  0.9600 -1.2109  0.4259
 2448SOL    HW2 8446   0.111   1.681   7.550 -1.3196 -2.4051 -2.2659
 2449SOL     OW 8447   6.502   5.858   5.863 -0.7605 -0.0049 -0.4024
 2449SOL    HW1 8448   6.413   5.893   5.868 -0.8317 -0.0805 -0.9909
 2449SOL    HW2 8449   6.502   5.805   5.783 -0.0897  0.2709 -0.5927
 2450SOL     OW 8450   0.059   6.638   8.620 -0.1417  0.3387  0.5227
 2450SOL    HW1 8451   0.080   6.576   8.690 -0.2161 -1.1592 -0.7315
 2450SOL    HW2 8452  -0.004   6.592   8.565 -0.5037  1.6963 -0.2491
 2451SOL     OW 8453   2.512   2.734   4.169 -0.0675  0.2183  0.0068
 2451SOL    HW1 8454   2.422   2.738   4.135  0.1100 -0.0010 -0.4970
 2451SOL    HW2 8455   2.509   2.666   4.236 -0.1252 -0.2951 -0.5013
 2452SOL     OW 8456   1.640   1.316   3.299  0.2159 -0.0678  0.0033
 2452SOL    HW1 8457   1.598   1.377   3.239 -0.4775 -0.5798 -0.0465
 2452SOL    HW2 8458   1.568   1.266   3.337  0.6937 -0.1444  0.8330
 2453SOL     OW 8459   7.056   8.051   5.780 -0.0961 -0.3235  0.6292
 2453SOL    HW1 8460   7.078   7.962   5.752 -2.7666 -0.7990 -0.1607
 2453SOL    HW2 8461   6.962   8.058   5.766  0.2108  3.0419 -0.4461
 2454SOL     OW 8462   4.074   0.033   8.541  0.1348  0.2061  0.0965
 2454SOL    HW1 8463   4.131  -0.003   8.608  0.6068 -0.4424 -0.6357
 2454SOL    HW2 8464   3.990  -0.012   8.553  0.2086  0.1149  0.2638
 2455SOL     OW 8465   2.322   6.932   5.370 -0.0109  0.0931  0.0696
 2455SOL    HW1 8466   2.231   6.902   5.367 -0.0702  0.2886 -2.0769
 2455SOL    HW2 8467   2.371   6.863   5.324  0.7982  0.4116  0.4361
 2456SOL     OW 8468   0.520   0.543   5.826 -0.0962 -0.3472  0.5834
 2456SOL    HW1 8469   0.427   0.544   5.850 -0.6772 -0.5159 -1.4337
 2456SOL    HW2 8470   0.541   0.450   5.818  0.4300 -0.3283  1.5705
 2457SOL     OW 8471   0.090   4.613   7.829 -0.0107 -0.1429  0.9335
 2457SOL    HW1 8472   0.122   4.692   7.785 -2.8161  0.4795 -0.2113
 2457SOL    HW2 8473   0.076   4.550   7.759  0.5063 -1.0668  1.6316
 2458SOL     OW 8474   1.848   2.198   6.852  0.3107  0.1716  0.1529
 2458SOL    HW1 8475   1.776   2.214   6.912 -1.6103 -0.3291 -1.9005
 2458SOL    HW2 8476   1.901   2.277   6.857 -2.0925  1.9339 -0.5322
 2459SOL     OW 8477   8.329   1.271   3.226  0.0888  0.8957  0.6834
 2459SOL    HW1 8478   8.412   1.319   3.221  1.0954 -0.7718  0.7374
 2459SOL    HW2 8479   8.270   1.330   3.273  0.9472  2.4876 -0.1209
 2460SOL     OW 8480   3.456   8.831   5.016 -0.4057  0.1299 -0.1708
 2460SOL    HW1 8481   3.451   8.769   4.943  0.8534 -1.6855  1.2020
 2460SOL    HW2 8482   3.517   8.898   4.986 -1.3381  0.4440 -1.4630
 2461SOL     OW 8483   5.540   2.494   4.031 -0.5176 -0.3753 -0.4519
 2461SOL    HW1 8484   5.453   2.473   3.997 -0.5608 -1.3415  0.2334
 2461SOL    HW2 8485   5.557   2.428   4.098  0.5682  0.0613 -0.2715
 2462SOL     OW 8486   5.167   3.892   5.023  0.1660 -0.9005  0.0136
 2462SOL    HW1 8487   5.193   3.819   5.080 -3.9392 -1.3696  1.6080
 2462SOL    HW2 8488   5.096   3.856   4.970 -0.0646  1.2359 -1.2117
 2463SOL     OW 8489   5.254   7.934   3.451 -0.2297  0.1953  0.5418
 2463SOL    HW1 8490   5.253   7.977   3.536  1.3794 -0.9485  1.1855
 2463SOL    HW2 8491   5.335   7.964   3.409 -1.7445  1.9785 -1.3073
 2464SOL     OW 8492   1.783   3.127   8.996  0.0209 -0.0609 -0.1713
 2464SOL    HW1 8493   1.818   3.162   9.078 -0.0313  0.6158 -0.4371
 2464SOL    HW2 8494   1.771   3.033   9.014  1.5484 -0.2374  0.0781
 2465SOL     OW 8495   1.558   2.689   2.542  0.0807 -0.0181  0.2927
 2465SOL    HW1 8496   1.639   2.710   2.495  0.5147  0.0898  1.0736
 2465SOL    HW2 8497   1.574   2.603   2.580 -0.6182 -0.5180 -0.5111
 2466SOL     OW 8498   5.871   4.114   5.277 -0.1797  0.0991  0.6160
 2466SOL    HW1 8499   5.824   4.156   5.205  0.9297  0.2121 -0.0710
 2466SOL    HW2 8500   5.860   4.020   5.262 -0.9588  0.1206  0.9999
 2467SOL     OW 8501   1.135   0.949   8.612 -0.3558  0.0419 -0.7285
 2467SOL    HW1 8502   1.069   1.013   8.586 -1.1277 -0.0122  0.9170
 2467SOL    HW2 8503   1.090   0.864   8.609 -1.1041  0.1901  2.2761
 2468SOL     OW 8504   7.121   7.920   7.272  0.3378  0.5629 -0.2227
 2468SOL    HW1 8505   7.145   7.913   7.364  0.2368 -0.2967 -0.2531
 2468SOL    HW2 8506   7.035   7.963   7.273 -0.2742 -0.6117  0.1773
 2469SOL     OW 8507   6.149   7.222   5.803  0.6404  0.1510  0.7075
 2469SOL    HW1 8508   6.146   7.137   5.846  0.2581 -0.2899 -0.1429
 2469SOL    HW2 8509   6.240   7.233   5.777  0.6806 -0.0245  0.7743
 2470SOL     OW 8510   4.369   3.637   3.215 -0.1535  0.3456 -0.0130
 2470SOL    HW1 8511   4.284   3.606   3.248  0.4901 -1.1279  0.3444
 2470SOL    HW2 8512   4.359   3.638   3.120  0.0327 -1.8372 -0.1085
 2471SOL     OW 8513   0.208   8.188   8.783 -0.0335 -0.4830 -0.2577
 2471SOL    HW1 8514   0.184   8.273   8.747  0.5889  0.1607  0.7957
 2471SOL    HW2 8515   0.244   8.139   8.709  0.3626  0.4606 -0.6985
 2472SOL     OW 8516   8.379   7.379   7.180 -0.1777  0.1768 -0.5880
 2472SOL    HW1 8517   8.405   7.310   7.241  0.7627  1.8793  1.0182
 2472SOL    HW2 8518   8.374   7.335   7.095  1.2038 -1.6865  0.2271
 2473SOL     OW 8519   0.066   5.446   7.034 -0.0210 -0.4720  0.5351
 2473SOL    HW1 8520   0.080   5.527   7.082  0.4509 -0.4453  0.3594
 2473SOL    HW2 8521  -0.002   5.400   7.083  0.6630 -0.5887  1.4041
 2474SOL     OW 8522   0.789   5.625   8.815  0.2817 -0.3270 -0.9354
 2474SOL    HW1 8523   0.699   5.597   8.799  0.5734 -1.8996 -0.0943
 2474SOL    HW2 8524   0.843   5.552   8.784  1.3105  0.7813 -1.8435
 2475SOL     OW 8525   5.640   7.455   7.428  0.2905  0.4753  0.3004
 2475SOL    HW1 8526   5.601   7.458   7.340  1.1976 -1.0417 -0.1812
 2475SOL    HW2 8527   5.576   7.498   7.484 -3.0922 -3.5184 -0.0835
 2476SOL     OW 8528   5.767   1.930   3.908  0.1670  0.2770 -0.2266
 2476SOL    HW1 8529   5.762   2.025   3.896  1.3507  0.4596  0.4768
 2476SOL    HW2 8530   5.704   1.894   3.846 -0.5186  1.5356 -0.2974
 2477SOL     OW 8531   2.102   6.800   0.530 -0.3197 -0.2802 -1.1336
 2477SOL    HW1 8532   2.134   6.890   0.539  3.6699 -1.7013  2.5476
 2477SOL    HW2 8533   2.176   6.752   0.492 -0.5276 -2.6478  1.1529
 2478SOL     OW 8534   8.848   6.522   1.904  0.2415  0.0538  0.5419
 2478SOL    HW1 8535   8.882   6.453   1.961 -0.0841  0.8552  1.7237
 2478SOL    HW2 8536   8.906   6.519   1.827  1.4648 -0.2228  1.4445
 2479SOL     OW 8537   4.936   0.462   0.631  0.3661  0.0255 -0.0376
 2479SOL    HW1 8538   4.990   0.383   0.627 -0.7236 -0.7844  0.6598
 2479SOL    HW2 8539   4.853   0.437   0.589 -0.6735  0.1844  1.8265
 2480SOL     OW 8540   4.449   4.771   2.973  0.2944  0.3735  0.1262
 2480SOL    HW1 8541   4.448   4.737   3.063 -2.2491 -0.2587 -0.0708
 2480SOL    HW2 8542   4.455   4.866   2.984 -0.8845  0.3733  1.0440
 2481SOL     OW 8543   1.682   7.914   1.540 -0.3998 -0.3206  0.4979
 2481SOL    HW1 8544   1.603   7.886   1.585 -0.9587 -0.3695 -0.4930
 2481SOL    HW2 8545   1.697   7.847   1.473 -0.2322  0.3293 -0.1317
 2482SOL     OW 8546   9.083   0.253   4.098 -0.1905  0.6041  0.2608
 2482SOL    HW1 8547   9.009   0.262   4.038 -0.7516 -2.0803  0.4334
 2482SOL    HW2 8548   9.054   0.189   4.163  2.2169 -0.4860  0.3859
 2483SOL     OW 8549   4.347   4.444   4.122 -0.3773  0.1921  0.2742
 2483SOL    HW1 8550   4.397   4.383   4.067  0.7504  0.4630  0.9703
 2483SOL    HW2 8551   4.256   4.430   4.096  0.1234  0.5440 -1.8915
 2484SOL     OW 8552   1.970   7.147   8.083  0.3682 -0.4490  0.6153
 2484SOL    HW1 8553   1.891   7.112   8.125 -1.8778 -0.8028 -3.3731
 2484SOL    HW2 8554   1.998   7.076   8.024 -0.2385  1.8060 -2.6568
 2485SOL     OW 8555   3.084   8.868   2.364 -0.0925 -0.0822  0.4237
 2485SOL    HW1 8556   3.034   8.794   2.396 -0.3431 -0.0302  0.1619
 2485SOL    HW2 8557   3.088   8.929   2.438  1.3921 -0.9877  1.1208
 2486SOL     OW 8558   4.330   1.128   5.604  0.3412 -0.0636 -0.0553
 2486SOL    HW1 8559   4.347   1.089   5.518  0.5315 -0.6280  0.2334
 2486SOL    HW2 8560   4.413   1.169   5.628 -0.3396  2.1352 -1.1513
 2487SOL     OW 8561   6.685   0.800   5.775 -0.7940  0.0552  0.6273
 2487SOL    HW1 8562   6.633   0.754   5.710 -0.7008  1.8634 -0.8062
 2487SOL    HW2 8563   6.638   0.881   5.791  0.1789  0.4968  1.3787
 2488SOL     OW 8564   5.995   4.988   8.476  0.9649 -0.0250  0.6186
 2488SOL    HW1 8565   6.077   5.038   8.478  1.2020 -0.3825  0.0178
 2488SOL    HW2 8566   5.959   5.005   8.389  0.4523  0.0395  0.8420
 2489SOL     OW 8567   8.180   1.266   9.032 -0.2465 -0.2718  0.0224
 2489SOL    HW1 8568   8.207   1.245   9.121  0.7584 -0.2957 -0.2658
 2489SOL    HW2 8569   8.220   1.197   8.978  0.3641  0.5406 -0.5869
 2490SOL     OW 8570   3.304   3.035   4.906 -0.0533 -0.7828  0.2451
 2490SOL    HW1 8571   3.328   3.007   4.818  1.3806  0.7551  0.0925
 2490SOL    HW2 8572   3.216   3.071   4.896 -0.8983 -2.7599 -0.0304
 2491SOL     OW 8573   8.700   7.189   6.624 -0.6895 -0.1371 -0.1917
 2491SOL    HW1 8574   8.785   7.210   6.662  0.3824  0.7248 -2.8804
 2491SOL    HW2 8575   8.641   7.257   6.657  0.1259  0.4395  0.0974
 2492SOL     OW 8576   5.249   5.904   0.324 -0.1925  0.2706  0.0427
 2492SOL    HW1 8577   5.316   5.961   0.288 -0.7043 -0.5287 -2.3973
 2492SOL    HW2 8578   5.169   5.928   0.277 -1.3146  0.1721  1.7874
 2493SOL     OW 8579   6.200   1.223   6.031 -0.0997 -0.0585  0.4597
 2493SOL    HW1 8580   6.116   1.226   6.077 -0.3480  1.7781 -0.0389
 2493SOL    HW2 8581   6.252   1.292   6.072  0.8308 -0.5438  0.1256
 2494SOL     OW 8582   1.450   4.390   7.034 -0.5090  0.3733  0.0892
 2494SOL    HW1 8583   1.539   4.404   7.065 -0.6266 -0.7023  0.9735
 2494SOL    HW2 8584   1.453   4.306   6.988 -0.9663  0.5447 -0.2559
 2495SOL     OW 8585   5.401   6.757   1.085  0.5902 -0.1160 -0.3112
 2495SOL    HW1 8586   5.445   6.773   1.002 -1.1699 -1.6156 -1.6073
 2495SOL    HW2 8587   5.349   6.679   1.070 -2.7236  1.6457  0.9581
 2496SOL     OW 8588   3.665   1.032   5.786  0.7009 -0.5305 -0.2818
 2496SOL    HW1 8589   3.615   1.063   5.711  1.3077  1.1456 -0.0334
 2496SOL    HW2 8590   3.746   0.998   5.748  0.5318 -0.7402 -0.4609
 2497SOL     OW 8591   8.014   6.499   5.532 -0.6124  0.0610 -0.4037
 2497SOL    HW1 8592   7.969   6.428   5.486 -0.0184 -1.4326  1.2260
 2497SOL    HW2 8593   8.100   6.504   5.490 -0.5376 -0.4145 -0.3130
 2498SOL     OW 8594   4.316   1.663   1.452  0.4721  0.1773 -0.3581
 2498SOL    HW1 8595   4.400   1.640   1.492  0.8762 -0.2893 -1.4538
 2498SOL    HW2 8596   4.255   1.669   1.526  1.3009 -0.2076  0.3697
 2499SOL     OW 8597   3.092   0.861   8.840  0.1580  0.5122  0.2448
 2499SOL    HW1 8598   3.079   0.943   8.888 -0.4526  1.3906 -1.3351
 2499SOL    HW2 8599   3.004   0.822   8.836  0.4954 -0.3848  1.2343
 2500SOL     OW 8600   5.066   7.163   2.427 -0.1401  0.0074  0.1631
 2500SOL    HW1 8601   4.973   7.149   2.442  0.1268 -1.6938  0.5516
 2500SOL    HW2 8602   5.102   7.183   2.514 -0.2887  1.8319 -0.1655
 2501SOL     OW 8603   1.718   4.491   7.034  0.4390  0.2580 -0.6316
 2501SOL    HW1 8604   1.713   4.561   6.968  2.0108 -2.0400 -3.4435
 2501SOL    HW2 8605   1.804   4.500   7.073 -1.0540  2.5951  2.5468
 2502SOL     OW 8606   2.530   3.154   7.891 -0.9067  0.3907  0.2667
 2502SOL    HW1 8607   2.560   3.063   7.881 -0.7524  0.6295 -1.9206
 2502SOL    HW2 8608   2.480   3.172   7.811  0.2233  2.6394 -0.0187
 2503SOL     OW 8609   5.104   5.861   6.740 -0.4153  0.1473 -0.4008
 2503SOL    HW1 8610   5.196   5.847   6.758 -0.4575  1.1624  0.6529
 2503SOL    HW2 8611   5.102   5.920   6.665 -0.2350 -1.0299 -1.3626
 2504SOL     OW 8612   2.431   6.652   6.298  0.6148  0.1608  0.0412
 2504SOL    HW1 8613   2.461   6.703   6.222  1.8496 -0.6983 -0.0817
 2504SOL    HW2 8614   2.407   6.718   6.363  0.3132  0.9111 -0.8022
 2505SOL     OW 8615   1.788   4.218   4.588 -0.3752  0.2157  0.5255
 2505SOL    HW1 8616   1.761   4.238   4.678 -1.3273  1.6605 -0.0438
 2505SOL    HW2 8617   1.716   4.164   4.553 -0.8024  1.0082  0.1491
 2506SOL     OW 8618   5.391   6.550   6.726  0.0438  0.3783  0.0780
 2506SOL    HW1 8619   5.426   6.463   6.747 -0.5196  0.0846 -0.1615
 2506SOL    HW2 8620   5.384   6.594   6.811 -0.0020  0.0600  0.2421
 2507SOL     OW 8621   8.466   7.352   0.611 -0.1803  0.1238  0.4416
 2507SOL    HW1 8622   8.424   7.401   0.682 -0.3490 -0.4575  0.7558
 2507SOL    HW2 8623   8.551   7.325   0.647  0.2583  0.8703 -0.0168
 2508SOL     OW 8624   4.959   2.471   0.327  0.7341 -0.5640 -0.1364
 2508SOL    HW1 8625   4.945   2.551   0.379 -0.3914 -0.0601 -1.1645
 2508SOL    HW2 8626   5.053   2.468   0.313  0.7526  0.8223 -0.4364
 2509SOL     OW 8627   6.256   1.726   7.565 -0.0803 -0.1080  0.3453
 2509SOL    HW1 8628   6.248   1.722   7.470 -0.2879 -0.5479  0.3773
 2509SOL    HW2 8629   6.310   1.803   7.582 -2.0921  1.4797 -0.0251
 2510SOL     OW 8630   2.898   0.469   4.619  0.5128 -0.0109  0.2557
 2510SOL    HW1 8631   2.947   0.451   4.539 -0.4933 -2.3218  0.0771
 2510SOL    HW2 8632   2.958   0.521   4.673  2.2451 -0.7256 -0.8932
 2511SOL     OW 8633   6.269   0.855   7.084 -0.0157 -0.9319  0.4102
 2511SOL    HW1 8634   6.222   0.838   7.002  0.1127  0.1594  0.0981
 2511SOL    HW2 8635   6.216   0.813   7.151 -1.1887 -0.1502  0.0048
 2512SOL     OW 8636   0.321   6.108   2.169 -0.3182 -0.0503  0.1938
 2512SOL    HW1 8637   0.364   6.130   2.252 -0.4064 -1.4745  0.6343
 2512SOL    HW2 8638   0.349   6.018   2.151 -0.3441  0.2201 -1.3026
 2513SOL     OW 8639   1.513   2.987   6.297  0.5275 -0.3485  0.0759
 2513SOL    HW1 8640   1.493   2.964   6.207  0.4709  0.1887 -0.0551
 2513SOL    HW2 8641   1.608   2.988   6.301  0.6382  2.4223 -0.7690
 2514SOL     OW 8642   3.886   4.701   2.483  0.2224 -0.3416 -0.1226
 2514SOL    HW1 8643   3.812   4.649   2.514 -0.3855 -0.3569 -1.5344
 2514SOL    HW2 8644   3.855   4.792   2.487  0.4321 -0.2751  0.0512
 2515SOL     OW 8645   3.086   8.048   4.203  0.1093  0.4602 -0.2358
 2515SOL    HW1 8646   3.147   8.113   4.240 -1.1010  0.8648  1.1416
 2515SOL    HW2 8647   3.055   7.998   4.279 -0.5290 -0.3755 -1.0300
 2516SOL     OW 8648   6.984   1.410   4.376 -0.6757  0.5590  0.4082
 2516SOL    HW1 8649   7.014   1.328   4.413  1.3822  0.0746 -2.0496
 2516SOL    HW2 8650   6.934   1.385   4.298  0.5194  1.5640 -0.7431
 2517SOL     OW 8651   8.051   7.429   9.000  0.3837  0.1719  0.7942
 2517SOL    HW1 8652   8.053   7.524   8.990 -0.8926 -0.0360 -2.8579
 2517SOL    HW2 8653   8.072   7.414   9.092  2.3585  3.8561  1.1190
 2518SOL     OW 8654   7.963   6.149   8.750 -0.4204 -0.7363 -0.7153
 2518SOL    HW1 8655   8.040   6.194   8.786  0.3263 -2.8166  0.4975
 2518SOL    HW2 8656   7.914   6.122   8.827 -2.7779  1.0978 -1.4801
 2519SOL     OW 8657   9.125   3.560   0.760  0.5476 -0.3892 -0.0659
 2519SOL    HW1 8658   9.157   3.480   0.718 -1.0583 -1.5375  0.7779
 2519SOL    HW2 8659   9.177   3.568   0.840  1.1740 -0.2054 -0.4899
 2520SOL     OW 8660   4.219   2.061   3.951 -0.1735 -0.0073 -0.3222
 2520SOL    HW1 8661   4.226   1.986   4.010  1.6304  1.0293  0.8825
 2520SOL    HW2 8662   4.137   2.103   3.975 -0.1559 -0.4180  0.4888
 2521SOL     OW 8663   8.910   5.934   8.411  0.0710 -0.3420  0.4236
 2521SOL    HW1 8664   8.984   5.959   8.467  1.6105 -0.4971 -1.4375
 2521SOL    HW2 8665   8.835   5.931   8.471  0.9912  2.4818  1.9158
 2522SOL     OW 8666   2.020   2.943   7.127  0.1669  0.2642  0.2788
 2522SOL    HW1 8667   2.078   2.881   7.172  1.7308  0.2640 -1.5944
 2522SOL    HW2 8668   1.975   2.889   7.061 -2.5045  0.1468  2.0441
 2523SOL     OW 8669   5.760   3.684   3.996 -0.1832  0.7157  0.6162
 2523SOL    HW1 8670   5.791   3.752   3.936 -1.6144 -0.3971 -1.4989
 2523SOL    HW2 8671   5.798   3.603   3.961 -0.6987  0.0900  1.4890
 2524SOL     OW 8672   4.331   5.898   4.273 -0.0550 -0.2118  0.2457
 2524SOL    HW1 8673   4.334   5.912   4.178  2.2058 -1.0078  0.1459
 2524SOL    HW2 8674   4.409   5.847   4.293  0.5704  1.5400  2.8117
 2525SOL     OW 8675   8.663   1.882   6.873 -0.0920  0.4896 -0.0301
 2525SOL    HW1 8676   8.612   1.957   6.841  1.2594  1.1682 -0.6844
 2525SOL    HW2 8677   8.662   1.891   6.969 -1.7277  0.1028  0.0144
 2526SOL     OW 8678   0.134   0.659   8.310  0.3124  0.4361  0.0241
 2526SOL    HW1 8679   0.222   0.698   8.304 -0.2160  1.5812 -0.6419
 2526SOL    HW2 8680   0.142   0.577   8.262  0.6616  1.2639 -1.4221
 2527SOL     OW 8681   4.496   6.782   2.774 -0.4148 -0.0348  0.1006
 2527SOL    HW1 8682   4.547   6.706   2.746 -0.0228 -0.7684  2.5577
 2527SOL    HW2 8683   4.443   6.750   2.847 -1.5592  1.6520  0.0659
 2528SOL     OW 8684   7.744   4.636   3.059  0.3582 -0.1613 -0.1513
 2528SOL    HW1 8685   7.649   4.646   3.061  0.3038 -0.4527 -1.0991
 2528SOL    HW2 8686   7.778   4.724   3.077 -0.0591 -0.3902  2.0127
 2529SOL     OW 8687   3.908   1.107   6.466 -0.5077  0.2636 -0.1741
 2529SOL    HW1 8688   3.959   1.165   6.409 -1.2750  2.2624  1.0664
 2529SOL    HW2 8689   3.818   1.115   6.433 -0.5844 -0.4188 -0.1336
 2530SOL     OW 8690   4.824   7.215   5.037 -0.2336 -0.4261 -0.1850
 2530SOL    HW1 8691   4.896   7.278   5.029 -2.1283  1.7161 -1.6051
 2530SOL    HW2 8692   4.839   7.153   4.965  1.2255 -1.2129  0.7467
 2531SOL     OW 8693   4.747   0.844   5.984  0.1989 -0.0612  0.5261
 2531SOL    HW1 8694   4.818   0.859   6.047 -0.4413 -0.5348  1.3822
 2531SOL    HW2 8695   4.770   0.761   5.942  0.0849 -0.2941  0.9132
 2532SOL     OW 8696   6.240   2.236   7.990 -0.1603 -0.6445 -0.8007
 2532SOL    HW1 8697   6.299   2.283   7.930  0.5824 -0.4863  0.0341
 2532SOL    HW2 8698   6.196   2.172   7.935  0.3613 -0.3682 -1.5569
 2533SOL     OW 8699   7.957   7.033   5.685 -0.1990  0.1869 -0.3085
 2533SOL    HW1 8700   7.972   7.077   5.768 -2.2445  0.8492 -0.2470
 2533SOL    HW2 8701   7.973   6.940   5.703 -1.4898  0.2033  1.0796
 2534SOL     OW 8702   9.089   7.630   0.012 -0.1765  0.7616 -0.2179
 2534SOL    HW1 8703   9.164   7.623  -0.046 -1.0426  1.0214 -1.4204
 2534SOL    HW2 8704   9.106   7.708   0.065  0.4968  0.6778 -0.3026
 2535SOL     OW 8705   1.044   7.885   6.747  0.2660 -0.0094 -0.4508
 2535SOL    HW1 8706   1.139   7.896   6.757  0.2524  0.4999 -0.8787
 2535SOL    HW2 8707   1.034   7.796   6.713  0.5736 -0.1382 -0.2148
 2536SOL     OW 8708   4.849   1.867   3.407  0.4905  0.2530 -0.1861
 2536SOL    HW1 8709   4.819   1.957   3.394  0.2822  0.0769 -0.9220
 2536SOL    HW2 8710   4.937   1.877   3.445  0.6399  0.7704 -0.6477
 2537SOL     OW 8711   5.906   8.469   0.027  0.4304 -0.2968 -0.2024
 2537SOL    HW1 8712   5.897   8.515  -0.056 -0.0102 -0.5443 -0.2955
 2537SOL    HW2 8713   5.976   8.515   0.073 -0.8870  1.3432  0.2685
 2538SOL     OW 8714   7.269   5.280   3.733 -0.0543 -0.3757 -0.1109
 2538SOL    HW1 8715   7.311   5.195   3.748 -0.3805 -0.3721  0.8933
 2538SOL    HW2 8716   7.217   5.267   3.654 -0.3103 -1.2025  0.1816
 2539SOL     OW 8717   7.764   1.358   6.239 -0.3179  0.1481 -0.1838
 2539SOL    HW1 8718   7.725   1.273   6.218 -0.7135 -0.1840  1.6592
 2539SOL    HW2 8719   7.708   1.392   6.309 -0.3956  2.1262 -1.1576
 2540SOL     OW 8720   2.609   4.688   8.726  0.0869 -0.0468  0.4669
 2540SOL    HW1 8721   2.674   4.621   8.704 -1.7773 -2.2215  1.2656
 2540SOL    HW2 8722   2.626   4.709   8.818 -0.3982 -0.6880  0.7040
 2541SOL     OW 8723   4.746   0.745   5.601  0.0604 -0.4250 -0.0901
 2541SOL    HW1 8724   4.747   0.771   5.509  1.8184 -0.1360 -0.0311
 2541SOL    HW2 8725   4.798   0.664   5.604  0.5517 -0.0947  0.7303
 2542SOL     OW 8726   0.680   2.229   6.174  0.3164  0.1893 -0.1661
 2542SOL    HW1 8727   0.734   2.276   6.111  1.1847 -1.4948 -0.7305
 2542SOL    HW2 8728   0.712   2.258   6.259  1.1600  0.2790 -0.5045
 2543SOL     OW 8729   8.383   4.749   3.266 -0.0574  0.5043  0.2664
 2543SOL    HW1 8730   8.477   4.760   3.248 -0.1585  1.4399  0.2573
 2543SOL    HW2 8731   8.341   4.768   3.182 -0.1195 -3.2726 -0.7262
 2544SOL     OW 8732   2.878   7.486   6.975  0.0600  0.1908 -0.3671
 2544SOL    HW1 8733   2.813   7.416   6.972 -0.1607  0.3953 -0.4422
 2544SOL    HW2 8734   2.962   7.441   6.979  0.0028 -0.0986 -1.8146
 2545SOL     OW 8735   1.586   7.359   5.652 -0.1335 -0.3996 -0.2420
 2545SOL    HW1 8736   1.547   7.445   5.666  1.2037  0.1618  0.1484
 2545SOL    HW2 8737   1.570   7.340   5.560 -1.4383 -0.2600 -0.0632
 2546SOL     OW 8738   5.544   7.237   3.708  0.2540  0.0855  0.2934
 2546SOL    HW1 8739   5.608   7.269   3.645 -2.4093 -0.3646 -2.9214
 2546SOL    HW2 8740   5.564   7.144   3.718  1.9662  0.5660  1.8964
 2547SOL     OW 8741   2.682   0.976   5.292 -0.1922  0.3787 -0.1395
 2547SOL    HW1 8742   2.680   0.949   5.384  1.6829 -2.8200 -0.8728
 2547SOL    HW2 8743   2.630   0.909   5.247  1.1417  0.3425 -1.6930
 2548SOL     OW 8744   7.959   2.184   5.964 -0.0548  0.3884  0.1004
 2548SOL    HW1 8745   8.040   2.218   6.003 -1.0741  2.3480  0.6207
 2548SOL    HW2 8746   7.920   2.260   5.920 -0.6529 -0.9736 -1.8618
 2549SOL     OW 8747   3.804   6.512   1.501  0.0809 -0.3134  0.8691
 2549SOL    HW1 8748   3.774   6.514   1.592  0.5671  0.6762  1.0249
 2549SOL    HW2 8749   3.726   6.533   1.450  0.3344  1.8210  1.2458
 2550SOL     OW 8750   7.829   3.776   4.654 -0.0945  0.0747 -0.3718
 2550SOL    HW1 8751   7.844   3.867   4.682 -2.7323  0.3075  0.6118
 2550SOL    HW2 8752   7.763   3.784   4.585 -0.6937 -1.0970  0.0410
 2551SOL     OW 8753   0.592   7.733   1.242 -0.2178 -0.0015 -0.6885
 2551SOL    HW1 8754   0.509   7.770   1.272 -1.0428 -1.5990 -0.8965
 2551SOL    HW2 8755   0.621   7.677   1.314 -0.3624 -1.0050 -1.3736
 2552SOL     OW 8756   7.445   4.596   5.420 -0.1484  0.1850 -0.1786
 2552SOL    HW1 8757   7.382   4.575   5.489 -0.3741  1.1465 -0.0857
 2552SOL    HW2 8758   7.456   4.691   5.425  0.5395  0.1520 -0.8610
 2553SOL     OW 8759   6.059   0.423   3.764 -0.2569 -0.0684  0.0678
 2553SOL    HW1 8760   6.047   0.329   3.771 -4.1328  0.2258 -0.2376
 2553SOL    HW2 8761   6.136   0.434   3.708 -1.1433 -3.1028 -1.9823
 2554SOL     OW 8762   6.757   7.812   8.455 -0.1850  0.0516 -0.1509
 2554SOL    HW1 8763   6.722   7.736   8.502 -2.8404  0.8908 -0.5974
 2554SOL    HW2 8764   6.797   7.866   8.523  0.6372 -1.1441  0.3392
 2555SOL     OW 8765   8.258   7.009   5.473 -0.4259  0.4602 -0.3956
 2555SOL    HW1 8766   8.207   6.929   5.457 -1.8837  1.2294  0.2051
 2555SOL    HW2 8767   8.346   6.978   5.496 -0.6752 -0.9194 -1.2078
 2556SOL     OW 8768   7.136   8.263   2.780  0.5523 -0.3676 -0.1013
 2556SOL    HW1 8769   7.204   8.326   2.757 -0.5905  0.4692 -1.3360
 2556SOL    HW2 8770   7.122   8.212   2.701  0.0437 -0.8147  0.2663
 2557SOL     OW 8771   6.270   1.120   8.427  0.0362  0.1318  0.3330
 2557SOL    HW1 8772   6.270   1.124   8.332  1.2690 -0.2585  0.2950
 2557SOL    HW2 8773   6.189   1.163   8.454  0.3890  1.5980 -0.8396
 2558SOL     OW 8774   2.799   0.564   5.362 -0.1261 -0.0546 -0.5730
 2558SOL    HW1 8775   2.866   0.587   5.426  1.3455 -2.8534 -0.9409
 2558SOL    HW2 8776   2.779   0.646   5.317  3.7552  0.8354 -1.0588
 2559SOL     OW 8777   8.640   5.046   5.739 -0.2677 -0.3196 -0.9771
 2559SOL    HW1 8778   8.584   5.018   5.811  1.2774  0.4648  0.6172
 2559SOL    HW2 8779   8.590   5.026   5.660 -1.9861 -1.3092  0.2935
 2560SOL     OW 8780   2.446   1.425   8.006 -0.3543  0.2379 -0.0857
 2560SOL    HW1 8781   2.407   1.351   7.959 -0.5793 -1.4809  2.5532
 2560SOL    HW2 8782   2.533   1.434   7.968 -0.3449 -1.3906 -0.5465
 2561SOL     OW 8783   6.073   5.481   6.262 -0.0823 -0.2867  0.4939
 2561SOL    HW1 8784   6.087   5.563   6.214 -0.7981 -0.0046  0.7587
 2561SOL    HW2 8785   6.125   5.491   6.342 -1.0477  0.4035  1.0682
 2562SOL     OW 8786   0.909   7.951   6.995 -0.0004  0.2639  0.4646
 2562SOL    HW1 8787   0.938   7.927   6.907 -0.0200  0.3417  0.4366
 2562SOL    HW2 8788   0.922   7.872   7.047  0.1786  0.2719  0.4316
 2563SOL     OW 8789   1.640   0.136   7.480  0.3129 -0.3271 -0.1289
 2563SOL    HW1 8790   1.631   0.062   7.420 -1.0045 -1.8657  1.8557
 2563SOL    HW2 8791   1.569   0.195   7.456  0.0789 -0.7015 -0.3627
 2564SOL     OW 8792   4.412   7.729   0.330  0.0439  0.2438  0.2245
 2564SOL    HW1 8793   4.502   7.733   0.363 -0.4052 -0.7061  1.6571
 2564SOL    HW2 8794   4.418   7.762   0.240  1.9089 -0.3238  0.1019
 2565SOL     OW 8795   0.152   2.312   6.781  0.2576 -0.4624  0.0131
 2565SOL    HW1 8796   0.192   2.387   6.736  0.4285 -0.5149  0.0770
 2565SOL    HW2 8797   0.081   2.350   6.833  0.0194 -0.4078 -0.3471
 2566SOL     OW 8798   4.821   4.110   0.358 -0.4968 -0.0086 -0.4128
 2566SOL    HW1 8799   4.807   4.064   0.275  0.1520  0.0106 -0.5412
 2566SOL    HW2 8800   4.858   4.044   0.416 -1.3673 -0.1378  0.0107
 2567SOL     OW 8801   8.896   2.401   4.461 -0.3480  0.7748 -0.3342
 2567SOL    HW1 8802   8.824   2.346   4.491 -1.1405  0.4936 -2.5548
 2567SOL    HW2 8803   8.963   2.339   4.433  0.0019  1.0032 -0.0070
 2568SOL     OW 8804   5.649   3.709   7.776 -0.1781 -0.3625 -0.8209
 2568SOL    HW1 8805   5.692   3.757   7.847  0.9965 -0.0141 -1.7484
 2568SOL    HW2 8806   5.556   3.712   7.799 -0.3183  3.1440 -1.2373
 2569SOL     OW 8807   8.258   0.968   1.556 -0.1081 -0.6647  0.4517
 2569SOL    HW1 8808   8.252   0.905   1.628 -0.3871 -2.1588 -0.8135
 2569SOL    HW2 8809   8.277   0.914   1.479  1.1921  0.9870 -0.4439
 2570SOL     OW 8810   0.362   4.949   7.444 -0.6979  0.0064 -0.0264
 2570SOL    HW1 8811   0.348   4.979   7.534  0.0721  1.5827 -0.3997
 2570SOL    HW2 8812   0.274   4.941   7.407 -1.0629 -1.2946  1.0218
 2571SOL     OW 8813   8.643   0.695   6.408  0.2598 -0.2657  0.2019
 2571SOL    HW1 8814   8.616   0.680   6.499 -0.2801 -2.9136 -0.2873
 2571SOL    HW2 8815   8.599   0.776   6.383 -1.8275 -0.8960  1.5216
 2572SOL     OW 8816   7.880   4.578   1.133 -0.1023 -0.0009 -0.1845
 2572SOL    HW1 8817   7.856   4.497   1.178  1.0994  0.4253  1.2957
 2572SOL    HW2 8818   7.971   4.565   1.107  0.5560  1.3532  1.2883
 2573SOL     OW 8819   6.453   1.240   0.996  0.1363  0.7152  0.5728
 2573SOL    HW1 8820   6.451   1.315   0.937  2.8042  1.4731  1.3424
 2573SOL    HW2 8821   6.521   1.260   1.059  0.3262 -1.9803  1.3596
 2574SOL     OW 8822   4.658   3.897   0.641  0.0224 -0.0865 -0.0239
 2574SOL    HW1 8823   4.674   3.836   0.570 -0.5874  0.3693 -0.5748
 2574SOL    HW2 8824   4.604   3.966   0.602 -3.2390 -1.4931  1.6440
 2575SOL     OW 8825   1.813   5.161   1.460 -0.0501 -0.3640  0.0410
 2575SOL    HW1 8826   1.878   5.154   1.531 -2.7094 -0.6355  2.6636
 2575SOL    HW2 8827   1.773   5.247   1.473 -3.2657 -1.9158  1.5518
 2576SOL     OW 8828   2.260   9.029   0.667  0.0070 -0.4642  0.1947
 2576SOL    HW1 8829   2.265   8.953   0.725 -0.9199 -0.7275 -0.0421
 2576SOL    HW2 8830   2.173   9.065   0.683 -0.0003 -0.1371 -0.5312
 2577SOL     OW 8831   6.255   3.796   5.551 -0.0508  0.2073  0.0203
 2577SOL    HW1 8832   6.324   3.802   5.617  0.9599  0.6179 -1.0346
 2577SOL    HW2 8833   6.302   3.801   5.468 -1.2629 -0.6503 -0.7376
 2578SOL     OW 8834   3.864   2.377   4.126  0.4602 -0.1301  0.1226
 2578SOL    HW1 8835   3.849   2.449   4.187  1.7257 -1.3812  2.0090
 2578SOL    HW2 8836   3.877   2.420   4.041 -2.0139  1.6218  0.5156
 2579SOL     OW 8837   7.927   0.848   8.639  0.4660 -0.5983 -0.8225
 2579SOL    HW1 8838   7.855   0.898   8.601 -0.1577 -0.7656  0.0970
 2579SOL    HW2 8839   7.936   0.882   8.728  0.4876 -1.6256 -0.4106
 2580SOL     OW 8840   6.381   2.284   2.223 -0.2126  0.1979  0.1899
 2580SOL    HW1 8841   6.442   2.239   2.282  0.1763  0.8193  0.2680
 2580SOL    HW2 8842   6.433   2.353   2.183 -0.6030  0.0843 -0.5301
 2581SOL     OW 8843   8.728   1.185   2.977 -0.2465  0.3347  0.1886
 2581SOL    HW1 8844   8.677   1.258   3.012  1.2066  1.3298  0.3301
 2581SOL    HW2 8845   8.777   1.222   2.904 -0.4230 -0.8148 -0.5420
 2582SOL     OW 8846   5.529   8.189   9.015  0.0150  0.0491 -0.0800
 2582SOL    HW1 8847   5.471   8.212   8.942  0.1562 -0.0786 -0.2317
 2582SOL    HW2 8848   5.617   8.200   8.981  0.0813  0.1429  0.1208
 2583SOL     OW 8849   2.396   8.666   1.409  0.1064  0.7043 -0.4130
 2583SOL    HW1 8850   2.336   8.737   1.383 -0.1904  1.0969  1.2493
 2583SOL    HW2 8851   2.406   8.677   1.504  0.5020 -1.1506 -0.2151
 2584SOL     OW 8852   4.038   8.320   5.918  0.1861  0.2960  0.2035
 2584SOL    HW1 8853   3.946   8.310   5.892  0.1905 -0.0830  0.3213
 2584SOL    HW2 8854   4.046   8.266   5.996  0.7178 -0.3769 -0.3055
 2585SOL     OW 8855   2.910   0.967   3.350  0.6094 -0.5700  0.7809
 2585SOL    HW1 8856   2.934   0.883   3.391 -2.4547 -1.2929  1.3647
 2585SOL    HW2 8857   2.959   0.968   3.268 -0.2615 -3.6718  0.0776
 2586SOL     OW 8858   3.803   4.938   0.362 -0.3121 -0.4981 -0.2567
 2586SOL    HW1 8859   3.779   4.916   0.451  0.9443 -0.3293  0.1528
 2586SOL    HW2 8860   3.799   4.855   0.314 -0.8035 -0.6232  0.0052
 2587SOL     OW 8861   3.707   3.652   2.006  0.2472  0.1507  0.0209
 2587SOL    HW1 8862   3.792   3.613   1.983  1.0379  2.8248 -2.2306
 2587SOL    HW2 8863   3.642   3.595   1.965  1.0635 -0.8211  0.0289
 2588SOL     OW 8864   6.790   6.184   0.873 -0.3474  0.5198  0.6811
 2588SOL    HW1 8865   6.872   6.235   0.882  0.6654 -0.9841  0.2620
 2588SOL    HW2 8866   6.731   6.243   0.827  0.9693  1.1645 -0.2695
 2589SOL     OW 8867   4.103   1.610   8.474 -0.2515 -0.7745 -0.3406
 2589SOL    HW1 8868   4.190   1.613   8.436  0.8899 -0.9440  2.0794
 2589SOL    HW2 8869   4.106   1.537   8.536 -1.3371  0.6366  1.4814
 2590SOL     OW 8870   8.710   4.541   5.189  0.5425 -0.2002  0.0432
 2590SOL    HW1 8871   8.667   4.543   5.274  1.7763 -0.1646  0.6760
 2590SOL    HW2 8872   8.803   4.545   5.208  0.8333  0.3483 -1.3297
 2591SOL     OW 8873   0.204   1.971   2.585  0.5538  0.0075  0.2394
 2591SOL    HW1 8874   0.196   2.064   2.566  0.4564 -0.1251 -0.4113
 2591SOL    HW2 8875   0.248   1.935   2.508 -0.5989 -0.6915 -0.1175
 2592SOL     OW 8876   0.198   3.719   1.702  0.3684  0.4495 -0.2347
 2592SOL    HW1 8877   0.121   3.717   1.759  1.1175  1.2800  0.8416
 2592SOL    HW2 8878   0.205   3.630   1.668  0.5963 -0.4143  1.9372
 2593SOL     OW 8879   3.424   1.207   2.737  0.0634 -0.0878 -0.2657
 2593SOL    HW1 8880   3.418   1.239   2.827  0.5823  0.1015 -0.2956
 2593SOL    HW2 8881   3.458   1.281   2.687  3.4196 -1.2437  0.0282
 2594SOL     OW 8882   4.229   4.091   0.392  0.4315  0.2669 -0.5478
 2594SOL    HW1 8883   4.195   4.001   0.396 -0.6507  0.6823  0.1217
 2594SOL    HW2 8884   4.244   4.114   0.484  0.6396  0.8012 -0.7143
 2595SOL     OW 8885   1.860   0.042   3.252 -0.3577  0.1158  0.0116
 2595SOL    HW1 8886   1.845   0.062   3.159 -0.9739 -0.5240 -0.0389
 2595SOL    HW2 8887   1.948   0.075   3.270  0.8506 -2.0206 -1.5064
 2596SOL     OW 8888   1.403   4.571   1.957  0.3320  0.0106 -0.9913
 2596SOL    HW1 8889   1.436   4.499   1.903  1.6522  0.7248 -1.1722
 2596SOL    HW2 8890   1.475   4.591   2.018 -1.2138 -0.9847  1.3072
 2597SOL     OW 8891   3.962   3.608   8.328 -0.0201  0.3093 -0.3654
 2597SOL    HW1 8892   4.031   3.568   8.381  0.1607  1.2330  0.1248
 2597SOL    HW2 8893   3.943   3.690   8.373 -2.9993 -0.8798  0.8277
 2598SOL     OW 8894   4.599   0.506   5.189  0.1500  0.5158 -0.1974
 2598SOL    HW1 8895   4.515   0.535   5.223  0.7388  1.6549  0.3330
 2598SOL    HW2 8896   4.630   0.578   5.134  1.3505  0.6574  0.6240
 2599SOL     OW 8897   5.612   1.314   8.000 -0.5112  0.6320  0.3429
 2599SOL    HW1 8898   5.577   1.258   7.931 -0.3394  1.8234 -0.7359
 2599SOL    HW2 8899   5.603   1.262   8.080 -5.1334  0.9483  0.2910
 2600SOL     OW 8900   5.096   3.281   4.158  0.6892 -0.0525 -0.4448
 2600SOL    HW1 8901   5.008   3.249   4.138  0.1450  0.9892  0.2114
 2600SOL    HW2 8902   5.150   3.247   4.087  0.0368 -1.8523 -0.1469
 2601SOL     OW 8903   9.004   1.346   3.397  0.9065  0.0931  0.1279
 2601SOL    HW1 8904   8.973   1.424   3.353  0.6529  0.0911  0.3017
 2601SOL    HW2 8905   9.069   1.378   3.460  0.6577  0.1870  0.3390
 2602SOL     OW 8906   1.138   1.955   5.344 -0.2638 -0.2797  0.5404
 2602SOL    HW1 8907   1.198   1.928   5.413  0.9996  2.3338  0.5681
 2602SOL    HW2 8908   1.094   2.032   5.379 -0.5290  0.3454 -1.0723
 2603SOL     OW 8909   1.506   5.263   2.634  0.2471 -0.4851 -0.0220
 2603SOL    HW1 8910   1.435   5.273   2.696  0.3487 -0.0421  0.0206
 2603SOL    HW2 8911   1.494   5.174   2.598 -0.1316 -0.5314  0.2181
 2604SOL     OW 8912   0.097   4.114   8.516  0.2635  0.2410  0.3702
 2604SOL    HW1 8913   0.118   4.080   8.429 -1.0001 -0.8116  0.4442
 2604SOL    HW2 8914   0.106   4.038   8.574  0.9388  0.8963  1.1388
 2605SOL     OW 8915   4.907   5.148   7.880  0.0165 -0.2435 -0.1973
 2605SOL    HW1 8916   4.984   5.140   7.936  0.3416 -0.4929 -0.6773
 2605SOL    HW2 8917   4.845   5.200   7.932  1.1724  1.5172 -0.5197
 2606SOL     OW 8918   0.870   6.992   1.831  0.1244 -0.0326 -0.5379
 2606SOL    HW1 8919   0.950   6.972   1.783  1.5669 -2.1161  2.4147
 2606SOL    HW2 8920   0.816   6.913   1.822  0.3153 -0.3619  0.9777
 2607SOL     OW 8921   3.696   3.508   0.850  0.5434 -0.2074  0.5837
 2607SOL    HW1 8922   3.621   3.497   0.792  0.1645  0.9760  0.8148
 2607SOL    HW2 8923   3.769   3.531   0.792  0.4224 -0.1089  0.4710
 2608SOL     OW 8924   5.140   1.766   0.755  0.9042 -0.0255 -0.5927
 2608SOL    HW1 8925   5.223   1.732   0.788  0.9438  0.7863  0.1861
 2608SOL    HW2 8926   5.136   1.856   0.789  0.1211  0.2396 -1.3553
 2609SOL     OW 8927   3.533   1.698   2.517  0.3803  0.0951  0.8469
 2609SOL    HW1 8928   3.572   1.749   2.588 -0.1137  0.0828  1.1302
 2609SOL    HW2 8929   3.477   1.760   2.470  1.0413  0.2173  0.1870
 2610SOL     OW 8930   5.695   4.878   4.672  0.6114 -1.0962  0.6365
 2610SOL    HW1 8931   5.789   4.862   4.664  0.6949 -1.4632  2.0266
 2610SOL    HW2 8932   5.661   4.800   4.717 -0.2075 -0.5678  0.9581
 2611SOL     OW 8933   0.363   8.542   3.236 -0.1434  0.0348 -0.8553
 2611SOL    HW1 8934   0.395   8.631   3.252 -1.3585  0.2200  0.7443
 2611SOL    HW2 8935   0.402   8.489   3.305 -0.6556 -0.3857 -0.8854
 2612SOL     OW 8936   5.452   7.527   3.392  0.0307  0.0714 -0.3629
 2612SOL    HW1 8937   5.366   7.558   3.361 -0.1761 -0.1828 -0.0508
 2612SOL    HW2 8938   5.434   7.487   3.477  0.5885  0.7034  0.0606
 2613SOL     OW 8939   0.379   7.100   2.406 -0.2172  0.1520  0.0802
 2613SOL    HW1 8940   0.296   7.141   2.430  0.1062  1.0553 -0.2990
 2613SOL    HW2 8941   0.432   7.171   2.370  0.8828 -0.3171  0.7057
 2614SOL     OW 8942   6.072   5.068   0.782  0.0028  0.1474 -0.4008
 2614SOL    HW1 8943   6.044   5.027   0.700  2.1316 -1.0986 -0.5627
 2614SOL    HW2 8944   6.010   5.141   0.794 -1.1921 -0.4579 -2.3841
 2615SOL     OW 8945   5.041   6.048   0.602  0.1054 -0.0351  0.2087
 2615SOL    HW1 8946   5.026   6.118   0.665 -1.3185 -0.1456  0.0263
 2615SOL    HW2 8947   5.111   6.081   0.546  0.2800  0.7343  0.8665
 2616SOL     OW 8948   2.093   6.316   1.592  0.1560  0.2275 -0.2141
 2616SOL    HW1 8949   2.023   6.303   1.656 -0.0884 -0.3165 -0.5705
 2616SOL    HW2 8950   2.174   6.299   1.640 -0.1185 -2.5479 -0.5399
 2617SOL     OW 8951   3.016   1.283   1.803 -0.1068 -0.3121  0.3969
 2617SOL    HW1 8952   2.966   1.244   1.874  1.0963 -0.8270  0.9873
 2617SOL    HW2 8953   2.978   1.370   1.792 -1.0443 -0.6427  0.8999
 2618SOL     OW 8954   8.319   1.068   4.354  0.6993  0.3525 -0.1827
 2618SOL    HW1 8955   8.383   0.999   4.372  0.6772 -0.0200 -1.4318
 2618SOL    HW2 8956   8.317   1.121   4.433  2.6600  0.4546 -0.1674
 2619SOL     OW 8957   3.987   5.002   8.143 -0.2213 -0.4058  0.0114
 2619SOL    HW1 8958   3.899   4.972   8.164 -1.1604  0.6468 -2.1200
 2619SOL    HW2 8959   4.044   4.931   8.173 -1.5790 -0.4234  2.8963
 2620SOL     OW 8960   8.277   2.278   5.765 -0.1446 -0.0467  0.7436
 2620SOL    HW1 8961   8.188   2.242   5.769  0.4396 -1.5001  1.1659
 2620SOL    HW2 8962   8.326   2.228   5.830  1.3948 -0.4260 -0.6537
 2621SOL     OW 8963   3.845   1.519   7.174 -0.1815 -0.7035  0.5912
 2621SOL    HW1 8964   3.760   1.496   7.139 -0.2951  1.3352 -0.6543
 2621SOL    HW2 8965   3.879   1.584   7.113  0.8345  0.9642  2.7883
 2622SOL     OW 8966   8.187   8.288   4.834  0.6112 -0.0762  0.3041
 2622SOL    HW1 8967   8.213   8.234   4.759 -0.0504 -0.0250  0.0345
 2622SOL    HW2 8968   8.092   8.297   4.826  0.4841 -0.3715  1.3538
 2623SOL     OW 8969   2.438   4.215   1.009 -0.4885 -0.3486 -0.1712
 2623SOL    HW1 8970   2.353   4.186   0.976 -0.3214 -0.5802 -0.4024
 2623SOL    HW2 8971   2.481   4.256   0.933 -0.4240 -0.1621 -0.0363
 2624SOL     OW 8972   1.082   1.906   7.163  0.2107 -0.2029  0.2818
 2624SOL    HW1 8973   1.122   1.973   7.218 -0.0121 -0.3984  0.6833
 2624SOL    HW2 8974   1.054   1.954   7.084  2.5797 -0.3216 -0.7240
 2625SOL     OW 8975   7.976   2.758   0.562 -0.2508 -0.6643  0.3899
 2625SOL    HW1 8976   7.916   2.717   0.499  0.6023  0.2044 -1.0484
 2625SOL    HW2 8977   7.931   2.838   0.589  0.3474  0.1642 -0.9517
 2626SOL     OW 8978   6.906   3.790   4.217  0.0727  0.0208 -0.0120
 2626SOL    HW1 8979   6.936   3.880   4.218 -0.2540  0.1231  0.6712
 2626SOL    HW2 8980   6.907   3.765   4.124 -0.2452  0.8571 -0.2461
 2627SOL     OW 8981   5.073   8.613   8.305  0.3225  0.7887 -0.2329
 2627SOL    HW1 8982   5.016   8.685   8.279 -2.0417 -1.4120 -1.5537
 2627SOL    HW2 8983   5.040   8.586   8.391  1.1869  1.2001  0.2476
 2628SOL     OW 8984   1.192   1.043   1.630 -0.1664 -0.1994 -0.5651
 2628SOL    HW1 8985   1.221   1.133   1.613  0.2958  0.1361  1.6821
 2628SOL    HW2 8986   1.111   1.052   1.679  0.2608 -0.9610  0.3247
 2629SOL     OW 8987   2.862   4.784   4.439  0.3285  0.0259 -0.3092
 2629SOL    HW1 8988   2.823   4.811   4.356  0.1728 -0.7611 -0.4963
 2629SOL    HW2 8989   2.955   4.804   4.429  0.1714  0.8128 -0.3031
 2630SOL     OW 8990   3.195   8.794   2.662  0.1138 -0.1559  0.0089
 2630SOL    HW1 8991   3.152   8.878   2.647  0.2019  0.4349  2.6106
 2630SOL    HW2 8992   3.142   8.731   2.614 -2.0658  0.9383  0.8533
 2631SOL     OW 8993   2.591   2.220   2.978 -0.2704  0.4447 -0.2974
 2631SOL    HW1 8994   2.578   2.274   2.900 -2.2275 -0.2930 -0.5153
 2631SOL    HW2 8995   2.606   2.132   2.944 -1.0296  0.1403  0.1498
 2632SOL     OW 8996   7.673   3.744   4.425 -0.0706 -0.0105 -0.2877
 2632SOL    HW1 8997   7.612   3.795   4.478  0.9854  1.0878 -0.0701
 2632SOL    HW2 8998   7.626   3.728   4.343 -0.8153  0.4228  0.0421
 2633SOL     OW 8999   0.609   2.039   8.100  0.1423  0.0900 -0.6183
 2633SOL    HW1 9000   0.544   1.984   8.057  1.2173 -2.2117  0.5370
 2633SOL    HW2 9001   0.600   2.125   8.058 -2.4253 -0.6088 -1.6609
 2634SOL     OW 9002   7.176   3.471   8.030 -0.0456  0.5421  0.0654
 2634SOL    HW1 9003   7.203   3.544   8.087  0.0630  1.0200 -0.5924
 2634SOL    HW2 9004   7.080   3.472   8.035 -0.2101  2.4392 -1.9934
 2635SOL     OW 9005   1.324   3.542   0.199  0.3151  0.2033 -0.6155
 2635SOL    HW1 9006   1.403   3.487   0.204 -0.6960 -1.1565  1.6917
 2635SOL    HW2 9007   1.276   3.523   0.279 -1.5783  2.2727 -1.1631
 2636SOL     OW 9008   4.917   5.247   8.218 -0.2832 -0.4162  0.0317
 2636SOL    HW1 9009   4.992   5.305   8.202  0.7052 -2.1740 -2.1673
 2636SOL    HW2 9010   4.956   5.164   8.246 -1.6130 -0.5221  1.7499
 2637SOL     OW 9011   6.273   5.322   8.698 -0.1964  0.1273  0.6671
 2637SOL    HW1 9012   6.330   5.366   8.635 -0.4102  0.1963  0.5218
 2637SOL    HW2 9013   6.202   5.384   8.714  0.0255  0.2391  1.2169
 2638SOL     OW 9014   1.562   4.492   7.331  0.1258 -0.3913 -0.2440
 2638SOL    HW1 9015   1.603   4.405   7.325 -0.5798 -0.6762 -0.9971
 2638SOL    HW2 9016   1.481   4.476   7.380  1.9541  0.5625  3.5145
 2639SOL     OW 9017   0.729   7.589   1.505  0.5651  0.1585  0.1657
 2639SOL    HW1 9018   0.634   7.596   1.509  0.6414  0.9847  0.9339
 2639SOL    HW2 9019   0.746   7.496   1.492 -0.3655  0.1622 -1.2376
 2640SOL     OW 9020   5.125   3.484   7.393  0.8592  0.1755 -0.9774
 2640SOL    HW1 9021   5.150   3.394   7.416  1.0102  0.5157  0.2770
 2640SOL    HW2 9022   5.079   3.476   7.309  0.2774 -1.1510 -0.5505
 2641SOL     OW 9023   5.904   1.729   1.797  0.1218  0.1511 -0.3079
 2641SOL    HW1 9024   5.848   1.693   1.727  0.0426  0.3067 -0.3250
 2641SOL    HW2 9025   5.905   1.661   1.864  0.6206 -0.2222 -0.6852
 2642SOL     OW 9026   6.351   4.548   8.241  0.4982 -0.3324  0.3360
 2642SOL    HW1 9027   6.338   4.634   8.281 -1.4295  0.6671 -2.1041
 2642SOL    HW2 9028   6.443   4.546   8.216  0.6760  0.8528  0.8504
 2643SOL     OW 9029   7.852   3.435   6.153 -0.2300 -0.5294 -0.0084
 2643SOL    HW1 9030   7.918   3.408   6.088 -0.7916  0.7027 -1.1458
 2643SOL    HW2 9031   7.851   3.530   6.146  0.1706 -0.3037  2.3373
 2644SOL     OW 9032   8.983   5.040   4.663 -0.2500  0.0253 -0.0001
 2644SOL    HW1 9033   9.066   5.083   4.644 -0.0903 -0.0270  0.5710
 2644SOL    HW2 9034   9.004   4.947   4.666 -0.3221  0.0162  0.2026
 2645SOL     OW 9035   0.522   1.569   7.937 -0.2373  0.2476 -0.3551
 2645SOL    HW1 9036   0.430   1.542   7.949 -0.3679  1.4884  1.9941
 2645SOL    HW2 9037   0.517   1.646   7.880 -0.6584  0.3095 -0.2385
 2646SOL     OW 9038   8.444   3.736   0.745  0.0551 -0.6877  0.3100
 2646SOL    HW1 9039   8.525   3.783   0.764  0.0201 -0.8472  0.8699
 2646SOL    HW2 9040   8.375   3.800   0.762  0.0545 -0.6135  0.0286
 2647SOL     OW 9041   0.847   4.318   5.312 -0.2394  0.3340 -0.4402
 2647SOL    HW1 9042   0.940   4.332   5.328 -0.2016 -0.4551  0.0940
 2647SOL    HW2 9043   0.819   4.261   5.384 -1.0745  0.3567 -0.7390
 2648SOL     OW 9044   8.423   3.780   4.978  0.3731 -0.6902  0.9028
 2648SOL    HW1 9045   8.331   3.792   4.954  0.1156 -1.4480  1.4767
 2648SOL    HW2 9046   8.456   3.869   4.991  0.3286 -0.2844 -1.4260
 2649SOL     OW 9047   6.129   6.008   8.456  0.5772 -0.3245  0.0931
 2649SOL    HW1 9048   6.167   6.088   8.419  0.3725  0.3894  1.3755
 2649SOL    HW2 9049   6.204   5.963   8.496  0.8032 -1.1100 -1.1526
 2650SOL     OW 9050   0.696   7.821   6.170  0.1632 -0.0758 -0.2534
 2650SOL    HW1 9051   0.607   7.788   6.180  0.3198 -0.0884  1.4480
 2650SOL    HW2 9052   0.738   7.760   6.110 -1.2020  0.4354 -1.7970
 2651SOL     OW 9053   1.884   3.846   7.317 -0.4471 -0.4360 -0.2265
 2651SOL    HW1 9054   1.937   3.833   7.238 -0.2208 -1.9995  0.1424
 2651SOL    HW2 9055   1.826   3.770   7.320 -0.1223 -0.6655  1.3447
 2652SOL     OW 9056   5.236   5.693   3.181 -0.7072 -0.5470 -0.1658
 2652SOL    HW1 9057   5.328   5.675   3.198 -0.6008 -0.0514 -0.2061
 2652SOL    HW2 9058   5.197   5.703   3.268 -0.6168 -0.2410 -0.1600
 2653SOL     OW 9059   6.432   4.759   4.809 -0.8565  0.4209 -0.4224
 2653SOL    HW1 9060   6.480   4.818   4.867 -0.3739  0.9005 -1.3021
 2653SOL    HW2 9061   6.454   4.672   4.841 -0.6228  0.6758  0.1348
 2654SOL     OW 9062   0.988   9.008   0.679 -0.3955 -0.0390  0.7131
 2654SOL    HW1 9063   0.929   9.044   0.613 -0.5046  0.4154  1.0528
 2654SOL    HW2 9064   0.938   8.938   0.720 -0.0710 -0.7995 -0.1615
 2655SOL     OW 9065   1.837   4.492   0.909  0.7241  0.0777 -0.3210
 2655SOL    HW1 9066   1.874   4.415   0.867  2.0161  0.7504 -0.4622
 2655SOL    HW2 9067   1.760   4.514   0.857  0.9102 -0.5331 -0.8570
 2656SOL     OW 9068   8.539   3.020   2.129  0.3167  0.6673  0.2406
 2656SOL    HW1 9069   8.608   2.962   2.096  0.0122  1.1406 -1.2990
 2656SOL    HW2 9070   8.566   3.108   2.101 -0.2597  1.0247  0.7704
 2657SOL     OW 9071   1.890   1.595   1.319  0.0754 -0.5214 -0.3302
 2657SOL    HW1 9072   1.942   1.592   1.239  1.1418 -0.6074  0.3528
 2657SOL    HW2 9073   1.821   1.658   1.300  1.9608  1.6458 -0.3913
 2658SOL     OW 9074   7.172   8.675   1.232  0.0162  0.2252  0.1684
 2658SOL    HW1 9075   7.162   8.669   1.137 -2.2981 -1.5032  0.4186
 2658SOL    HW2 9076   7.147   8.765   1.253  0.6359  0.6535 -0.8386
 2659SOL     OW 9077   2.321   5.381   2.006  0.8432 -0.3234 -0.2656
 2659SOL    HW1 9078   2.349   5.302   2.052 -0.6310 -0.5374  0.3062
 2659SOL    HW2 9079   2.400   5.437   2.005  1.8283 -1.6760 -0.4604
 2660SOL     OW 9080   3.122   0.265   1.384 -0.2385  0.0673  0.0262
 2660SOL    HW1 9081   3.111   0.326   1.310 -0.2711  1.1365  0.8862
 2660SOL    HW2 9082   3.086   0.182   1.352 -0.5726  0.5978 -1.0409
 2661SOL     OW 9083   1.076   6.670   4.691 -0.6242  0.4091  0.0813
 2661SOL    HW1 9084   1.064   6.607   4.761 -0.6934 -0.6141 -0.8184
 2661SOL    HW2 9085   1.046   6.624   4.612  0.3506  1.1671 -0.7648
 2662SOL     OW 9086   3.695   2.206   2.378  0.1368 -0.2031  0.1623
 2662SOL    HW1 9087   3.638   2.179   2.450 -2.3495  2.0880 -0.7766
 2662SOL    HW2 9088   3.724   2.293   2.402  0.8480 -0.1789 -0.7432
 2663SOL     OW 9089   1.658   8.082   2.287  0.6388  0.0945 -0.8146
 2663SOL    HW1 9090   1.627   8.023   2.218 -0.6285  0.5422 -0.6553
 2663SOL    HW2 9091   1.591   8.151   2.291  0.5155 -0.0931  1.0769
 2664SOL     OW 9092   5.923   8.745   6.189 -0.0479  0.0756  0.1064
 2664SOL    HW1 9093   5.970   8.674   6.145 -0.6654  0.0048 -0.4628
 2664SOL    HW2 9094   5.989   8.814   6.200  0.7977 -0.8842  1.4633
 2665SOL     OW 9095   5.416   1.858   0.755 -0.2357 -0.0172  0.3000
 2665SOL    HW1 9096   5.382   1.945   0.773 -1.7001 -0.8066  1.5514
 2665SOL    HW2 9097   5.466   1.835   0.834  0.4297 -0.1946 -0.1615
 2666SOL     OW 9098   4.262   3.880   3.070  0.1077  0.4051  0.4768
 2666SOL    HW1 9099   4.217   3.955   3.108  2.1515  1.1997  1.4243
 2666SOL    HW2 9100   4.331   3.917   3.016 -1.7507 -0.7358 -2.9738
 2667SOL     OW 9101   1.145   7.165   8.558 -0.4407 -0.9623  0.2426
 2667SOL    HW1 9102   1.207   7.205   8.618  0.2295  0.5891 -1.3760
 2667SOL    HW2 9103   1.166   7.072   8.560  0.3268 -0.7791  1.5159
 2668SOL     OW 9104   3.593   9.103   3.248  0.2029  0.5121 -0.0858
 2668SOL    HW1 9105   3.642   9.183   3.225  1.7712 -0.4060 -0.1217
 2668SOL    HW2 9106   3.652   9.032   3.223 -1.0894 -0.6696  0.1173
 2669SOL     OW 9107   2.793   6.085   6.771  0.2727 -0.4250 -0.3470
 2669SOL    HW1 9108   2.825   6.126   6.690  0.3668  0.1162 -0.0420
 2669SOL    HW2 9109   2.796   6.155   6.836  0.9890 -1.0759  0.3401
 2670SOL     OW 9110   4.554   0.965   7.334  0.6736  0.0017  0.1806
 2670SOL    HW1 9111   4.540   0.873   7.310  1.0895 -0.4622  1.6296
 2670SOL    HW2 9112   4.647   0.980   7.319  1.0260 -0.4090  1.7545
 2671SOL     OW 9113   4.004   0.661   4.114 -0.3961 -0.0927 -0.0767
 2671SOL    HW1 9114   4.077   0.661   4.052 -0.3389  3.0657 -0.1585
 2671SOL    HW2 9115   3.930   0.695   4.064 -1.5039 -1.5434  0.5069
 2672SOL     OW 9116   1.617   2.928   7.508  0.0235  0.4788  0.3708
 2672SOL    HW1 9117   1.630   2.839   7.541  0.6066  0.6375  0.5785
 2672SOL    HW2 9118   1.696   2.946   7.457 -0.6581  0.3990 -0.7549
 2673SOL     OW 9119   1.748   3.523   3.509 -0.2055 -0.0834 -0.7242
 2673SOL    HW1 9120   1.664   3.487   3.480 -2.8913  2.5499  2.9703
 2673SOL    HW2 9121   1.772   3.585   3.440  0.1823 -2.5901 -3.0284
 2674SOL     OW 9122   4.932   0.015   2.411 -0.4694 -0.1672  0.2673
 2674SOL    HW1 9123   4.891  -0.017   2.331 -0.3782 -1.2422  0.6396
 2674SOL    HW2 9124   4.983   0.092   2.383 -0.4093 -0.5466 -0.7028
 2675SOL     OW 9125   6.062   6.598   1.821 -0.3305 -0.0103  0.6824
 2675SOL    HW1 9126   6.058   6.504   1.838 -0.1698  0.2907  2.5417
 2675SOL    HW2 9127   6.125   6.632   1.884 -2.7385  1.7820  2.3334
 2676SOL     OW 9128   7.127   8.599   7.809 -0.0054  0.2238  0.3958
 2676SOL    HW1 9129   7.136   8.614   7.715  1.1265 -1.3551  0.2079
 2676SOL    HW2 9130   7.152   8.683   7.848  1.1600  0.4147 -0.6744
 2677SOL     OW 9131   5.839   6.001   8.193 -0.1962  0.0244 -0.5347
 2677SOL    HW1 9132   5.810   5.965   8.109  1.3654 -0.2729 -0.9823
 2677SOL    HW2 9133   5.791   5.951   8.258 -0.3102 -0.7943 -1.2260
 2678SOL     OW 9134   6.163   5.287   1.842 -0.6478  0.3123  0.3754
 2678SOL    HW1 9135   6.172   5.217   1.777 -0.1297  0.0328  0.7400
 2678SOL    HW2 9136   6.125   5.244   1.918  0.0712  0.3245  0.7538
 2679SOL     OW 9137   7.420   2.342   1.773 -0.1715 -0.1179 -0.2200
 2679SOL    HW1 9138   7.421   2.307   1.684 -2.0708 -1.1276  0.0996
 2679SOL    HW2 9139   7.367   2.279   1.823  3.3994 -1.4128  2.4383
 2680SOL     OW 9140   1.450   1.833   2.729  0.7124  0.3866  0.3337
 2680SOL    HW1 9141   1.383   1.787   2.780  1.8255 -1.1737  0.4185
 2680SOL    HW2 9142   1.402   1.865   2.652 -0.2312 -0.3189  0.5994
 2681SOL     OW 9143   3.327   2.096   6.575 -0.4315 -0.4229 -0.5195
 2681SOL    HW1 9144   3.407   2.148   6.579 -0.7715  0.2127 -1.5890
 2681SOL    HW2 9145   3.257   2.161   6.569 -1.1367 -0.9264  1.4454
 2682SOL     OW 9146   6.584   8.927   8.585  0.2008  0.0114  0.4099
 2682SOL    HW1 9147   6.505   8.874   8.582 -0.7105  1.3338  0.1124
 2682SOL    HW2 9148   6.557   9.008   8.629  0.9912  1.0851 -1.0011
 2683SOL     OW 9149   4.520   4.245   3.156  0.4258  0.0819 -0.7386
 2683SOL    HW1 9150   4.552   4.159   3.185  0.3394  0.9599  2.3860
 2683SOL    HW2 9151   4.599   4.292   3.131  0.8834  0.0261  0.4865
 2684SOL     OW 9152   6.801   0.893   0.728  0.6536 -0.3020  0.9690
 2684SOL    HW1 9153   6.723   0.937   0.763  0.3608 -0.2365  0.2509
 2684SOL    HW2 9154   6.837   0.955   0.665 -0.1894 -1.3658 -0.6092
 2685SOL     OW 9155   4.428   8.620   1.727  0.5981 -0.0582 -0.0075
 2685SOL    HW1 9156   4.374   8.698   1.718  0.5898 -0.1183 -0.4962
 2685SOL    HW2 9157   4.426   8.600   1.821 -0.4893 -0.2497 -0.0590
 2686SOL     OW 9158   2.836   4.477   7.183  0.5648  0.0248  0.4481
 2686SOL    HW1 9159   2.851   4.440   7.270  1.0515 -0.5312  0.1292
 2686SOL    HW2 9160   2.913   4.452   7.132  0.3160  0.4108 -0.1247
 2687SOL     OW 9161   8.453   6.395   5.703 -0.5982 -1.0761  0.1204
 2687SOL    HW1 9162   8.479   6.308   5.735  0.3343 -0.4052  1.2519
 2687SOL    HW2 9163   8.499   6.456   5.760 -1.7780  0.1761 -0.2179
 2688SOL     OW 9164   0.633   3.361   7.564  0.7739  0.3688  0.0464
 2688SOL    HW1 9165   0.628   3.396   7.653 -2.1335  0.5042 -0.1018
 2688SOL    HW2 9166   0.686   3.425   7.516 -1.5385  2.8859  0.6101
 2689SOL     OW 9167   4.328   7.267   3.160 -0.1178  0.3687  0.6761
 2689SOL    HW1 9168   4.278   7.191   3.132  1.2385 -0.3961  0.2651
 2689SOL    HW2 9169   4.316   7.269   3.255  0.3695 -0.7670  0.7785
 2690SOL     OW 9170   5.827   3.339   5.544 -0.0605  0.7598  0.4036
 2690SOL    HW1 9171   5.846   3.432   5.530  0.7630  0.3138 -1.8924
 2690SOL    HW2 9172   5.885   3.293   5.484 -0.1755 -1.2923  1.7624
 2691SOL     OW 9173   2.663   3.330   1.799 -1.1018  0.1759  0.3789
 2691SOL    HW1 9174   2.599   3.272   1.758 -0.1244 -1.2522  0.7964
 2691SOL    HW2 9175   2.626   3.349   1.886 -1.3803  0.1074  0.2763
 2692SOL     OW 9176   3.520   0.534   4.957 -0.3611  0.2206 -0.1981
 2692SOL    HW1 9177   3.564   0.619   4.958  0.1987 -0.0646  0.4981
 2692SOL    HW2 9178   3.438   0.550   5.004 -0.0419  0.2797  0.3564
 2693SOL     OW 9179   0.125   2.384   3.252  0.4722 -0.0795 -0.3172
 2693SOL    HW1 9180   0.174   2.435   3.188 -1.1979  0.0792 -1.5268
 2693SOL    HW2 9181   0.142   2.293   3.227 -0.1629 -0.0178 -0.9883
 2694SOL     OW 9182   7.484   2.889   4.619  0.6846  0.6936 -0.2832
 2694SOL    HW1 9183   7.458   2.901   4.527 -2.2991  0.4880  0.4146
 2694SOL    HW2 9184   7.539   2.811   4.617  1.6942  1.3835 -2.0182
 2695SOL     OW 9185   2.953   5.285   5.596  0.3042  0.1926 -0.2314
 2695SOL    HW1 9186   3.006   5.213   5.632 -0.3862 -0.5816 -0.7203
 2695SOL    HW2 9187   2.961   5.275   5.501 -0.0227  0.6000 -0.3022
 2696SOL     OW 9188   6.132   0.004   7.369  0.5627  0.0174 -0.0347
 2696SOL    HW1 9189   6.158   0.001   7.461  2.0048  0.9898 -0.3863
 2696SOL    HW2 9190   6.139   0.096   7.345 -0.2157 -0.1616 -1.0213
 2697SOL     OW 9191   7.644   3.160   5.923 -0.4514 -0.4686 -0.0594
 2697SOL    HW1 9192   7.645   3.105   6.002 -0.1507 -0.4796 -0.0677
 2697SOL    HW2 9193   7.597   3.239   5.950 -1.3939 -0.9612 -0.2127
 2698SOL     OW 9194   6.438   7.970   5.804 -0.0582  0.2135  0.0339
 2698SOL    HW1 9195   6.413   7.897   5.860  0.0527 -0.6704 -1.0403
 2698SOL    HW2 9196   6.438   8.046   5.862 -1.8597 -0.3241  0.7987
 2699SOL     OW 9197   6.570   2.422   0.005  0.3624  0.5838  0.3780
 2699SOL    HW1 9198   6.661   2.429   0.035  0.2454 -0.7259  1.1371
 2699SOL    HW2 9199   6.575   2.430  -0.090  1.0560  2.2454  0.5227
 2700SOL     OW 9200   1.637   4.344   2.660  0.6314 -0.0561 -0.2823
 2700SOL    HW1 9201   1.550   4.321   2.691  1.4769 -0.4102  1.9665
 2700SOL    HW2 9202   1.653   4.284   2.587 -0.6356 -0.5825 -0.1541
 2701SOL     OW 9203   1.312   5.428   0.322 -0.1952 -0.2051  0.0153
 2701SOL    HW1 9204   1.226   5.469   0.337  0.1949  0.0218  1.8163
 2701SOL    HW2 9205   1.298   5.373   0.245 -1.8273  0.1940 -0.0267
 2702SOL     OW 9206   3.721   7.930   5.334  0.1629  0.1675  0.4422
 2702SOL    HW1 9207   3.740   7.836   5.343  1.5007  0.3478 -0.2873
 2702SOL    HW2 9208   3.632   7.940   5.370 -1.5931 -2.0077 -2.8432
 2703SOL     OW 9209   0.008   1.498   7.347  0.1474 -0.4303  0.2964
 2703SOL    HW1 9210  -0.019   1.499   7.439  0.5344 -1.7950  0.4345
 2703SOL    HW2 9211   0.088   1.447   7.345  1.3210  1.3167 -0.5243
 2704SOL     OW 9212   2.486   4.818   1.198  0.4598  0.1446 -0.6500
 2704SOL    HW1 9213   2.446   4.900   1.225  1.4643  0.3088  0.3816
 2704SOL    HW2 9214   2.505   4.830   1.105  3.1440  2.1817  0.0694
 2705SOL     OW 9215   0.422   1.719   0.595 -0.0482 -0.5191  0.6800
 2705SOL    HW1 9216   0.488   1.775   0.635 -0.2627 -0.1931  0.5815
 2705SOL    HW2 9217   0.343   1.733   0.648 -0.3094 -0.1517  0.1942
 2706SOL     OW 9218   6.075   6.426   4.107  0.0584 -0.1356  0.1373
 2706SOL    HW1 9219   6.094   6.512   4.071 -1.4224  0.0901 -0.1681
 2706SOL    HW2 9220   6.156   6.376   4.095  0.4009  0.6973 -1.2108
 2707SOL     OW 9221   1.336   7.730   5.888  0.0625  0.0142 -0.0721
 2707SOL    HW1 9222   1.411   7.676   5.913 -0.6242 -0.2142  1.6531
 2707SOL    HW2 9223   1.315   7.701   5.799  1.9179  0.0128 -0.5563
 2708SOL     OW 9224   3.885   0.401   8.677 -0.1948 -0.7751  0.2242
 2708SOL    HW1 9225   3.877   0.387   8.772 -0.7985 -0.2854  0.2486
 2708SOL    HW2 9226   3.868   0.494   8.665  1.9555 -0.3893 -0.1481
 2709SOL     OW 9227   1.164   1.950   3.577  0.2451 -0.4572  0.0878
 2709SOL    HW1 9228   1.145   2.028   3.525 -0.0269  1.3587  2.7596
 2709SOL    HW2 9229   1.079   1.916   3.603  0.4009 -0.1171  1.0661
 2710SOL     OW 9230   1.197   1.428   4.847 -0.0312 -0.2492  0.3798
 2710SOL    HW1 9231   1.214   1.412   4.940  1.5819 -1.2164 -0.0327
 2710SOL    HW2 9232   1.282   1.453   4.811 -1.1522  2.9390 -0.3497
 2711SOL     OW 9233   2.977   1.544   7.202 -0.0617 -0.0520 -0.0620
 2711SOL    HW1 9234   2.957   1.621   7.148 -0.2405 -1.1470 -1.6123
 2711SOL    HW2 9235   3.033   1.489   7.147  0.1298 -1.0120  1.0417
 2712SOL     OW 9236   3.711   4.078   1.181  0.7187 -0.0320  0.6088
 2712SOL    HW1 9237   3.729   3.984   1.182 -2.0318 -0.6884 -1.1045
 2712SOL    HW2 9238   3.754   4.110   1.101  0.0544 -0.2426  0.1595
 2713SOL     OW 9239   0.960   7.552   1.230 -0.4416 -0.7447  0.0887
 2713SOL    HW1 9240   0.898   7.493   1.274  0.1960 -0.8887  0.7960
 2713SOL    HW2 9241   1.033   7.560   1.290  1.8978 -3.3736 -2.0851
 2714SOL     OW 9242   7.266   7.611   4.186  0.0386  0.1320 -0.1798
 2714SOL    HW1 9243   7.244   7.694   4.145  1.5500  0.2157 -0.9212
 2714SOL    HW2 9244   7.358   7.621   4.212  0.4679 -1.5161 -0.8944
 2715SOL     OW 9245   4.774   2.817   0.776 -0.5447  0.4174 -0.0451
 2715SOL    HW1 9246   4.733   2.802   0.691 -0.9500 -0.1817  0.2499
 2715SOL    HW2 9247   4.838   2.886   0.760  1.1500 -1.3643 -1.4002
 2716SOL     OW 9248   8.415   2.745   4.778 -0.1135  0.5238 -0.8719
 2716SOL    HW1 9249   8.382   2.825   4.738  0.3564  0.4616 -1.3830
 2716SOL    HW2 9250   8.359   2.733   4.856 -2.0140 -0.1243 -2.2625
 2717SOL     OW 9251   5.149   3.956   8.554 -0.4684  0.1598 -0.1321
 2717SOL    HW1 9252   5.227   3.999   8.521  0.3321 -1.3462 -0.3191
 2717SOL    HW2 9253   5.168   3.940   8.647 -1.1697  1.0573  0.1833
 2718SOL     OW 9254   3.513   1.030   4.271 -0.1529 -0.5253  0.3206
 2718SOL    HW1 9255   3.516   1.034   4.366  0.3667  1.8150  0.2642
 2718SOL    HW2 9256   3.459   0.954   4.252  0.0657 -1.2838  2.4637
 2719SOL     OW 9257   7.871   6.198   2.019 -0.3993 -0.1218  0.3997
 2719SOL    HW1 9258   7.963   6.214   2.041 -0.5706  0.0554  0.9881
 2719SOL    HW2 9259   7.873   6.170   1.928  0.1455  0.9068  0.0776
 2720SOL     OW 9260   1.781   3.456   0.009  0.4964 -0.0749  0.3957
 2720SOL    HW1 9261   1.800   3.366   0.036  0.6279 -0.2482 -0.2652
 2720SOL    HW2 9262   1.750   3.448  -0.081 -2.6452  0.2030  1.3542
 2721SOL     OW 9263   0.133   4.590   8.106 -0.1315 -0.0679 -0.1481
 2721SOL    HW1 9264   0.112   4.499   8.122 -0.4692  0.1468  0.6837
 2721SOL    HW2 9265   0.102   4.607   8.016 -0.5067 -0.6328 -0.1288
 2722SOL     OW 9266   1.365   2.645   3.542 -1.0188  0.4458  0.4189
 2722SOL    HW1 9267   1.389   2.679   3.455 -2.0788 -0.2997 -0.1945
 2722SOL    HW2 9268   1.269   2.645   3.541 -1.0335 -0.0787  1.3990
 2723SOL     OW 9269   0.788   6.789   8.570  0.5096  0.2316  0.2010
 2723SOL    HW1 9270   0.804   6.810   8.662 -1.4505  0.7555  0.4652
 2723SOL    HW2 9271   0.870   6.751   8.540  1.4490  0.7456  1.9553
 2724SOL     OW 9272   0.966   6.149   4.946 -0.4735  0.1079  0.0241
 2724SOL    HW1 9273   1.050   6.191   4.961 -1.2868  1.3646  1.1884
 2724SOL    HW2 9274   0.937   6.120   5.033 -1.9343  1.0509 -0.1200
 2725SOL     OW 9275   4.054   3.076   0.446 -0.2163 -0.7455  0.2953
 2725SOL    HW1 9276   4.101   3.153   0.477  2.0144 -0.8166 -2.5648
 2725SOL    HW2 9277   4.117   3.004   0.456 -0.7317 -1.4003 -0.9999
 2726SOL     OW 9278   0.786   7.804   0.140  0.3626 -0.3850  0.3422
 2726SOL    HW1 9279   0.790   7.882   0.196  0.1339 -0.3642  0.3297
 2726SOL    HW2 9280   0.827   7.735   0.192 -1.4026 -0.7984  1.2568
 2727SOL     OW 9281   1.771   5.529   4.143  0.2193 -0.3138 -0.4894
 2727SOL    HW1 9282   1.820   5.489   4.071  2.0823  0.0991  0.5154
 2727SOL    HW2 9283   1.769   5.622   4.121 -1.0093 -0.4337 -1.0033
 2728SOL     OW 9284   7.414   7.913   6.356 -0.6190  0.4011 -0.2380
 2728SOL    HW1 9285   7.469   7.978   6.312 -2.8398  3.9923  1.7371
 2728SOL    HW2 9286   7.326   7.931   6.323 -1.3148 -1.8910  0.2118
 2729SOL     OW 9287   2.182   8.085   7.824  0.5027  0.9005  0.0605
 2729SOL    HW1 9288   2.132   8.166   7.833 -2.2093 -0.5446 -0.9870
 2729SOL    HW2 9289   2.158   8.051   7.738  0.1034 -1.9001  1.1618
 2730SOL     OW 9290   7.749   3.758   8.579  0.0649  0.0844  0.5936
 2730SOL    HW1 9291   7.666   3.729   8.542 -0.0581 -0.1737  1.0613
 2730SOL    HW2 9292   7.741   3.741   8.673  0.6592  0.0215  0.6386
 2731SOL     OW 9293   0.415   3.806   1.275 -0.0520  0.0657 -0.0017
 2731SOL    HW1 9294   0.366   3.725   1.290 -0.2981  0.4232  1.2490
 2731SOL    HW2 9295   0.440   3.836   1.362 -0.6924  1.7783 -0.3566
 2732SOL     OW 9296   5.564   5.017   5.976  0.0499 -0.0619  0.3044
 2732SOL    HW1 9297   5.585   4.973   6.058 -1.1049 -0.0807  0.6028
 2732SOL    HW2 9298   5.469   5.013   5.970  0.1285 -0.3493 -1.1920
 2733SOL     OW 9299   3.565   3.588   2.270  0.1008  0.0094 -0.2798
 2733SOL    HW1 9300   3.660   3.600   2.269  0.1083 -0.0533 -0.3089
 2733SOL    HW2 9301   3.532   3.660   2.215  0.1010  0.3025  0.1027
 2734SOL     OW 9302   0.632   6.762   3.311 -0.4174  0.0904  0.4454
 2734SOL    HW1 9303   0.702   6.708   3.347 -0.2610  0.3255  0.4942
 2734SOL    HW2 9304   0.614   6.723   3.225  0.3038  0.4986  0.1024
 2735SOL     OW 9305   2.475   8.064   6.024  0.2292 -0.3968  0.3802
 2735SOL    HW1 9306   2.400   8.036   6.076 -1.0026 -2.5135 -2.3037
 2735SOL    HW2 9307   2.465   8.159   6.017 -0.9867 -0.3819  1.8304
 2736SOL     OW 9308   0.046   7.110   3.009 -0.6650  0.1760  0.3175
 2736SOL    HW1 9309   0.088   7.076   3.089 -0.4692 -0.4550 -0.0390
 2736SOL    HW2 9310   0.084   7.057   2.939 -2.9854 -1.3110  0.0829
 2737SOL     OW 9311   5.744   0.270   7.627  0.2821  0.0811  0.0200
 2737SOL    HW1 9312   5.715   0.274   7.718  2.1911 -1.6897  0.7816
 2737SOL    HW2 9313   5.799   0.347   7.616  1.3056 -0.5029  0.8813
 2738SOL     OW 9314   8.861   2.007   4.676  0.1114 -0.0302 -0.5477
 2738SOL    HW1 9315   8.945   2.021   4.718 -0.9815 -0.0594  1.8323
 2738SOL    HW2 9316   8.839   2.092   4.636 -0.7917  1.5459  2.9459
 2739SOL     OW 9317   2.642   8.524   5.378 -0.5470 -0.3311  0.1392
 2739SOL    HW1 9318   2.726   8.569   5.387  0.2357 -0.7337 -3.7073
 2739SOL    HW2 9319   2.666   8.431   5.376 -0.6885 -0.4029 -2.9251
 2740SOL     OW 9320   2.084   5.390   1.654 -0.2957 -0.1468 -0.1417
 2740SOL    HW1 9321   2.075   5.295   1.663 -0.6742 -0.1504 -0.5268
 2740SOL    HW2 9322   2.176   5.403   1.630 -0.5795 -0.5467 -1.5847
 2741SOL     OW 9323   7.445   1.711   3.099  0.0087 -0.1478  0.9811
 2741SOL    HW1 9324   7.489   1.735   3.017 -1.4507 -0.0309  0.2139
 2741SOL    HW2 9325   7.490   1.631   3.127  1.3443  0.4813  0.7486
 2742SOL     OW 9326   8.586   0.259   1.517 -0.1556  0.5843  0.0863
 2742SOL    HW1 9327   8.518   0.323   1.496 -1.8745 -0.8737  0.9088
 2742SOL    HW2 9328   8.537   0.179   1.538  1.8107 -0.3735  1.2467
 2743SOL     OW 9329   5.138   7.616   2.994 -0.4192 -0.0215 -0.2180
 2743SOL    HW1 9330   5.134   7.541   3.054 -0.2441 -0.7602 -1.1168
 2743SOL    HW2 9331   5.200   7.589   2.927 -0.8470  0.6810 -0.8995
 2744SOL     OW 9332   5.071   6.221   3.312 -0.6503  0.0796  0.1270
 2744SOL    HW1 9333   5.074   6.222   3.408  1.2226  1.3237  0.0930
 2744SOL    HW2 9334   5.145   6.165   3.286 -0.2758  0.8973 -0.5990
 2745SOL     OW 9335   0.950   4.862   4.102 -0.1938  0.4397  0.3260
 2745SOL    HW1 9336   0.913   4.858   4.014  0.5570  2.3174 -0.1150
 2745SOL    HW2 9337   0.988   4.950   4.109  0.4546  0.0656  2.2503
 2746SOL     OW 9338   3.742   7.422   5.218  0.4606 -0.7073 -0.2740
 2746SOL    HW1 9339   3.754   7.414   5.124  2.3799 -1.1261 -0.0392
 2746SOL    HW2 9340   3.694   7.343   5.243 -1.4699  0.1441 -1.0525
 2747SOL     OW 9341   6.431   6.368   4.789  0.9086 -0.0999  0.2884
 2747SOL    HW1 9342   6.384   6.449   4.808 -0.5531 -0.8629  0.0489
 2747SOL    HW2 9343   6.407   6.308   4.859  1.7937 -0.4179  0.3389
 2748SOL     OW 9344   3.439   3.733   9.026  0.5405  0.2516  0.1605
 2748SOL    HW1 9345   3.404   3.650   8.993  2.0710 -1.4417  2.5125
 2748SOL    HW2 9346   3.371   3.765   9.085  0.7179 -0.3077  0.6772
 2749SOL     OW 9347   6.376   2.602   3.404 -0.6165 -0.6348 -0.3721
 2749SOL    HW1 9348   6.435   2.534   3.371 -0.7801 -1.5703  1.1434
 2749SOL    HW2 9349   6.350   2.652   3.327  0.3539 -1.6406 -1.3750
 2750SOL     OW 9350   1.156   5.694   8.864  0.0998  0.4802 -0.1367
 2750SOL    HW1 9351   1.154   5.642   8.783  0.5143  0.1407  0.0675
 2750SOL    HW2 9352   1.217   5.765   8.845 -0.3798  0.8350 -0.3766
 2751SOL     OW 9353   5.853   2.535   1.565 -0.0720  0.1437 -0.3056
 2751SOL    HW1 9354   5.923   2.570   1.620  0.3318 -0.6598 -0.3072
 2751SOL    HW2 9355   5.897   2.499   1.488 -0.2788 -1.9431  0.4807
 2752SOL     OW 9356   1.674   0.483   8.063 -0.1064 -0.2397  0.0695
 2752SOL    HW1 9357   1.707   0.400   8.031 -0.1642 -0.2743  0.1006
 2752SOL    HW2 9358   1.599   0.503   8.008  1.4449  1.0830 -1.7026
 2753SOL     OW 9359   7.058   1.835   5.718 -0.4804  0.0737 -0.3758
 2753SOL    HW1 9360   7.024   1.815   5.805 -1.8053 -0.1907 -0.9330
 2753SOL    HW2 9361   6.981   1.836   5.661  0.5292 -1.5183 -1.8774
 2754SOL     OW 9362   1.621   8.036   8.141  0.4014  0.1482 -0.4996
 2754SOL    HW1 9363   1.640   7.966   8.203 -0.9413  0.5542  0.4264
 2754SOL    HW2 9364   1.527   8.027   8.124  0.3067  1.4195 -0.7175
 2755SOL     OW 9365   0.660   9.122   1.671  0.3889 -0.9063 -0.0285
 2755SOL    HW1 9366   0.614   9.206   1.679  2.4724  0.2326  0.5973
 2755SOL    HW2 9367   0.611   9.075   1.604 -0.6737  0.9325 -0.6312
 2756SOL     OW 9368   6.628   3.661   7.018  0.3681  0.6847 -0.3486
 2756SOL    HW1 9369   6.648   3.658   7.111  2.2420  0.0941 -0.7294
 2756SOL    HW2 9370   6.711   3.638   6.974 -0.3786  1.2381 -2.1613
 2757SOL     OW 9371   7.519   8.647   6.528 -0.5377 -0.2729  0.2007
 2757SOL    HW1 9372   7.522   8.739   6.501  1.4930 -0.1847  0.6087
 2757SOL    HW2 9373   7.446   8.643   6.590 -1.4513  0.7814 -0.7585
 2758SOL     OW 9374   6.149   0.348   0.222 -0.1169  0.0326  0.4239
 2758SOL    HW1 9375   6.210   0.389   0.161 -0.6359  1.2387  0.6776
 2758SOL    HW2 9376   6.063   0.363   0.182 -0.4252  0.4640  1.2342
 2759SOL     OW 9377   4.208   0.856   0.771 -0.1511  0.3224  0.5083
 2759SOL    HW1 9378   4.213   0.825   0.681  1.1488 -0.0543  0.6799
 2759SOL    HW2 9379   4.280   0.920   0.778 -0.9186  1.1612  0.9824
 2760SOL     OW 9380   4.994   5.740   2.316 -0.4458  0.3499  0.3751
 2760SOL    HW1 9381   5.020   5.832   2.317  2.0704 -0.2789  0.2717
 2760SOL    HW2 9382   5.070   5.694   2.281 -2.1792 -1.6539 -1.0106
 2761SOL     OW 9383   4.885   9.102   8.376  0.9485  0.1370 -0.4370
 2761SOL    HW1 9384   4.794   9.114   8.350  0.5537 -3.0756 -0.8838
 2761SOL    HW2 9385   4.885   9.026   8.434  3.4994 -1.0789 -1.8228
 2762SOL     OW 9386   6.875   1.448   0.991  0.3769 -0.1045  0.3472
 2762SOL    HW1 9387   6.865   1.522   1.051 -0.1887 -0.3060  0.5119
 2762SOL    HW2 9388   6.859   1.485   0.904  1.6562  0.2851  0.2579
 2763SOL     OW 9389   3.908   1.960   3.397 -0.2273 -0.7876  0.1802
 2763SOL    HW1 9390   3.961   1.982   3.321  0.5882  0.8078  1.1408
 2763SOL    HW2 9391   3.878   2.045   3.431 -0.0610 -1.3917  1.9765
 2764SOL     OW 9392   2.487   4.839   0.476 -0.7879  0.2959  0.4712
 2764SOL    HW1 9393   2.571   4.835   0.522 -1.1725 -0.7081  1.1345
 2764SOL    HW2 9394   2.488   4.923   0.431  0.8973 -0.0038 -0.1559
 2765SOL     OW 9395   6.858   4.308   5.329 -0.3849 -0.1722  0.3878
 2765SOL    HW1 9396   6.840   4.220   5.361 -1.1493 -0.2552 -0.2535
 2765SOL    HW2 9397   6.953   4.310   5.318 -0.5066 -1.6065 -1.5041
 2766SOL     OW 9398   9.031   2.219   8.319 -0.3311 -0.4368 -0.2483
 2766SOL    HW1 9399   9.073   2.135   8.300 -0.4766 -0.5841  0.0786
 2766SOL    HW2 9400   9.020   2.220   8.415  0.2377  0.2167 -0.1738
 2767SOL     OW 9401   1.729   7.878   3.166 -0.1300  0.1113  0.0976
 2767SOL    HW1 9402   1.799   7.925   3.120  1.0763 -0.5078  1.2244
 2767SOL    HW2 9403   1.737   7.788   3.136 -0.3577  0.0108  0.3336
 2768SOL     OW 9404   4.583   9.095   1.708 -0.1132  0.0671 -0.1745
 2768SOL    HW1 9405   4.488   9.097   1.698 -0.0820  1.1651 -0.3190
 2768SOL    HW2 9406   4.616   9.089   1.618 -0.0404 -0.9688 -0.0971
 2769SOL     OW 9407   6.792   8.516   5.525 -0.1202 -0.0144 -0.0449
 2769SOL    HW1 9408   6.805   8.556   5.440  0.3566  2.0331  0.9327
 2769SOL    HW2 9409   6.815   8.584   5.588 -1.4651 -1.1079  1.7385
 2770SOL     OW 9410   7.166   7.269   0.919  1.2258 -0.2800 -0.0054
 2770SOL    HW1 9411   7.249   7.316   0.909  0.5971  0.8209 -0.1977
 2770SOL    HW2 9412   7.114   7.297   0.844  1.5462 -2.8919 -1.3051
 2771SOL     OW 9413   7.353   5.282   4.395 -0.1264  0.9123  0.2725
 2771SOL    HW1 9414   7.424   5.344   4.410 -0.2233  1.3970 -1.1140
 2771SOL    HW2 9415   7.298   5.288   4.474 -0.0674  2.5058  0.2165
 2772SOL     OW 9416   6.468   2.525   2.538  0.1207  0.2873 -0.1273
 2772SOL    HW1 9417   6.429   2.511   2.451  0.3613  2.3637 -0.6373
 2772SOL    HW2 9418   6.398   2.503   2.599  0.2470 -2.1770 -0.7464
 2773SOL     OW 9419   4.397   5.158   4.169  0.5902 -0.1612 -0.0446
 2773SOL    HW1 9420   4.394   5.062   4.161 -0.9013 -0.0645 -1.2196
 2773SOL    HW2 9421   4.352   5.189   4.090  1.2583  1.5238  0.2076
 2774SOL     OW 9422   2.094   5.717   1.919  0.7721  0.3005  0.4406
 2774SOL    HW1 9423   2.096   5.622   1.906  0.0214  0.3604 -0.1640
 2774SOL    HW2 9424   2.148   5.752   1.848 -0.0576  0.3946 -0.1591
 2775SOL     OW 9425   3.019   1.642   7.469  0.2139  0.2257 -0.2202
 2775SOL    HW1 9426   3.108   1.615   7.493  0.0975 -0.6404 -0.7110
 2775SOL    HW2 9427   3.015   1.631   7.374 -0.0913  1.2814 -0.3398
 2776SOL     OW 9428   6.857   2.749   8.663 -0.0020  0.1306 -0.2952
 2776SOL    HW1 9429   6.899   2.744   8.577  0.5315 -1.2945  0.0099
 2776SOL    HW2 9430   6.929   2.749   8.725 -0.3746  1.5329  0.1666
 2777SOL     OW 9431   7.527   3.657   5.948 -0.5450 -0.2633  0.1214
 2777SOL    HW1 9432   7.572   3.675   5.865 -3.6953 -1.2625 -1.9758
 2777SOL    HW2 9433   7.573   3.711   6.012  2.7084 -0.2149 -2.0071
 2778SOL     OW 9434   6.323   7.603   5.614  0.2148  0.1161  0.2093
 2778SOL    HW1 9435   6.255   7.586   5.679  0.2979 -1.2882 -0.0525
 2778SOL    HW2 9436   6.305   7.692   5.584 -0.9628  0.0941  0.7886
 2779SOL     OW 9437   4.921   2.402   3.143  0.2430 -0.7656 -0.0330
 2779SOL    HW1 9438   4.853   2.467   3.159  2.9703  1.8732  1.8087
 2779SOL    HW2 9439   4.873   2.325   3.111 -3.3601  1.4438 -0.5320
 2780SOL     OW 9440   2.119   0.256   0.595 -0.0347  0.3417  0.1122
 2780SOL    HW1 9441   2.035   0.277   0.553 -1.3100  1.2132  2.8853
 2780SOL    HW2 9442   2.098   0.185   0.656  1.5581 -0.2986 -0.0515
 2781SOL     OW 9443   8.535   0.130   5.692 -0.2741 -0.4693  0.1825
 2781SOL    HW1 9444   8.456   0.183   5.704 -0.8793 -1.2480 -0.1978
 2781SOL    HW2 9445   8.589   0.148   5.768 -0.8536  0.0311  0.4780
 2782SOL     OW 9446   7.367   3.551   1.947  0.0006 -0.6061 -0.2875
 2782SOL    HW1 9447   7.325   3.552   2.033  0.2354  0.1471 -0.1701
 2782SOL    HW2 9448   7.458   3.531   1.965  0.6152  1.9973 -0.0474
 2783SOL     OW 9449   8.142   8.939   0.224  0.3082  0.3634  0.1098
 2783SOL    HW1 9450   8.178   8.947   0.312  1.6667 -0.9490 -0.2785
 2783SOL    HW2 9451   8.154   9.025   0.184 -0.3682  0.9796  1.2092
 2784SOL     OW 9452   4.538   3.070   4.649  0.4867 -0.1423 -0.1510
 2784SOL    HW1 9453   4.510   2.984   4.679 -0.1752  0.4162  0.8520
 2784SOL    HW2 9454   4.464   3.127   4.667  0.8018  0.5925 -1.0973
 2785SOL     OW 9455   2.746   0.804   1.968  0.9038 -0.0125 -0.4448
 2785SOL    HW1 9456   2.823   0.855   1.993  0.4788  0.7757 -0.7245
 2785SOL    HW2 9457   2.688   0.811   2.044  0.9983 -0.4096 -0.3305
 2786SOL     OW 9458   7.509   7.268   6.559  0.0165 -0.0633  0.1130
 2786SOL    HW1 9459   7.533   7.270   6.652  0.1067  2.4610  0.1198
 2786SOL    HW2 9460   7.580   7.220   6.517 -0.1510 -1.4711  1.3597
 2787SOL     OW 9461   2.011   2.315   8.984 -0.2338 -0.0529  0.1635
 2787SOL    HW1 9462   1.930   2.297   8.935 -0.2134 -1.2668  0.5365
 2787SOL    HW2 9463   2.051   2.229   8.997  0.8544  0.4786  0.4567
 2788SOL     OW 9464   0.839   3.473   6.846 -0.4669  0.1072  0.0859
 2788SOL    HW1 9465   0.782   3.397   6.861 -0.8420  0.0644 -1.4026
 2788SOL    HW2 9466   0.788   3.547   6.877 -0.7394 -0.0864  0.1096
 2789SOL     OW 9467   8.923   4.645   7.191 -0.0092  0.1192  0.4144
 2789SOL    HW1 9468   8.948   4.613   7.104  0.1217 -0.5201  0.6777
 2789SOL    HW2 9469   8.993   4.616   7.249 -0.2422  0.2790  0.7840
 2790SOL     OW 9470   1.444   2.388   7.362 -0.1782 -0.2818 -0.8137
 2790SOL    HW1 9471   1.432   2.308   7.414 -1.1442 -0.3940 -1.1982
 2790SOL    HW2 9472   1.382   2.451   7.399 -0.1313 -0.0283 -1.1629
 2791SOL     OW 9473   4.783   3.692   0.467 -0.2759 -0.1756 -0.2289
 2791SOL    HW1 9474   4.845   3.645   0.523 -1.5267 -0.3033  1.1068
 2791SOL    HW2 9475   4.712   3.630   0.453 -1.4708  0.9247  0.7081
 2792SOL     OW 9476   5.998   8.208   4.745 -0.5936  0.2419  0.9170
 2792SOL    HW1 9477   6.034   8.270   4.808 -0.1165 -0.3779  1.2622
 2792SOL    HW2 9478   5.905   8.201   4.768 -0.7842  1.2549  0.5105
 2793SOL     OW 9479   6.638   7.593   3.826 -0.2531 -0.0302  0.3966
 2793SOL    HW1 9480   6.564   7.619   3.880 -1.4524 -0.8610 -0.7858
 2793SOL    HW2 9481   6.649   7.665   3.763 -0.3620 -0.1309  0.2637
 2794SOL     OW 9482   0.566   4.145   0.455 -0.1523  0.3702  0.6378
 2794SOL    HW1 9483   0.580   4.169   0.546 -1.0737 -0.6303  1.0568
 2794SOL    HW2 9484   0.540   4.053   0.457 -0.1936  0.3268 -0.6366
 2795SOL     OW 9485   5.618   3.651   4.274  0.3985 -0.1221 -0.1913
 2795SOL    HW1 9486   5.556   3.716   4.308  1.3706  1.1147 -0.7252
 2795SOL    HW2 9487   5.569   3.605   4.205 -0.2209  0.1887  0.0293
 2796SOL     OW 9488   0.410   6.762   2.144  0.7900 -0.4648  0.7638
 2796SOL    HW1 9489   0.496   6.794   2.173  1.3200 -1.7210  0.6648
 2796SOL    HW2 9490   0.430   6.689   2.086 -0.3341  0.2177 -0.5296
 2797SOL     OW 9491   6.956   4.012   8.496 -0.4539  0.0982  0.1359
 2797SOL    HW1 9492   6.907   3.939   8.532  1.6342 -1.4122  0.0736
 2797SOL    HW2 9493   6.950   4.001   8.401  0.1946 -0.2229  0.1320
 2798SOL     OW 9494   2.191   7.278   1.364  0.2284 -0.6295 -0.5987
 2798SOL    HW1 9495   2.187   7.218   1.438 -1.7374 -0.4506 -0.4971
 2798SOL    HW2 9496   2.221   7.361   1.401  0.0019 -0.7486 -0.1378
 2799SOL     OW 9497   4.125   3.034   1.193 -0.3023  0.5329  0.1810
 2799SOL    HW1 9498   4.113   2.944   1.165  1.3919 -0.5052  2.4992
 2799SOL    HW2 9499   4.212   3.059   1.159 -0.8105  1.3686 -0.5556
 2800SOL     OW 9500   5.503   1.442   4.002 -0.1272  0.1801  0.2927
 2800SOL    HW1 9501   5.519   1.348   4.012 -2.1650 -0.1197  1.5080
 2800SOL    HW2 9502   5.421   1.447   3.953 -0.1335  1.3310  0.3915
 2801SOL     OW 9503   8.801   5.329   4.266  0.0764  0.6129 -0.1243
 2801SOL    HW1 9504   8.769   5.269   4.334 -0.6377  2.2054  1.0090
 2801SOL    HW2 9505   8.886   5.293   4.242 -0.5444 -1.1465  0.1161
 2802SOL     OW 9506   5.511   7.286   6.907 -0.1980  0.5565  0.2784
 2802SOL    HW1 9507   5.504   7.304   6.813 -0.8136 -0.1111  0.1852
 2802SOL    HW2 9508   5.437   7.332   6.946 -0.1170  0.5865  0.3980
 2803SOL     OW 9509   7.846   7.906   2.497 -0.0478  0.1626 -0.1226
 2803SOL    HW1 9510   7.902   7.880   2.570  0.5139  2.6310  0.4125
 2803SOL    HW2 9511   7.904   7.910   2.422 -0.4175 -1.3333 -0.5354
 2804SOL     OW 9512   2.946   2.923   1.569  0.0421 -0.1530  0.0402
 2804SOL    HW1 9513   2.884   2.888   1.633  0.2936  2.5702  1.9130
 2804SOL    HW2 9514   2.956   3.015   1.592  3.0271  0.0833 -1.6480
 2805SOL     OW 9515   5.932   1.467   5.862  0.2886  0.3946 -0.4897
 2805SOL    HW1 9516   6.017   1.510   5.850  0.6590 -0.1249  0.2163
 2805SOL    HW2 9517   5.875   1.510   5.799  1.0270  0.8866 -0.8431
 2806SOL     OW 9518   3.244   8.596   5.810 -0.0217 -0.4049  0.3875
 2806SOL    HW1 9519   3.232   8.651   5.733  0.0140  0.3449  0.8995
 2806SOL    HW2 9520   3.286   8.654   5.874  0.5615 -1.2004  0.7411
 2807SOL     OW 9521   5.912   4.163   0.084 -0.1888  0.5216 -0.3999
 2807SOL    HW1 9522   5.989   4.161   0.141 -0.5778  0.0688  0.1166
 2807SOL    HW2 9523   5.934   4.228   0.017  1.2013 -0.5702 -1.0528
 2808SOL     OW 9524   4.932   0.547   8.520 -0.3518  0.6471 -0.0211
 2808SOL    HW1 9525   4.875   0.595   8.460 -1.8013  0.1471  0.9005
 2808SOL    HW2 9526   4.994   0.501   8.463 -0.9947  1.0462 -1.0764
 2809SOL     OW 9527   5.900   8.470   7.795  0.2903  0.2466 -0.0904
 2809SOL    HW1 9528   5.923   8.414   7.870 -1.1637  1.1347  1.0957
 2809SOL    HW2 9529   5.890   8.410   7.722  0.9490 -0.7617  0.6279
 2810SOL     OW 9530   1.905   1.216   4.374  0.7914  0.1873  0.0472
 2810SOL    HW1 9531   1.953   1.231   4.456 -0.0512  0.9144  0.4274
 2810SOL    HW2 9532   1.815   1.239   4.395  0.1200 -1.7642 -0.4658
 2811SOL     OW 9533   2.451   1.511   7.211 -0.3521 -0.7632  0.1679
 2811SOL    HW1 9534   2.430   1.458   7.134 -1.6203 -0.8626  0.5556
 2811SOL    HW2 9535   2.542   1.489   7.232 -0.3338 -1.5259 -0.6616
 2812SOL     OW 9536   8.077   8.096   7.540 -0.6847  0.5878  0.7258
 2812SOL    HW1 9537   8.027   8.173   7.567 -1.5990  0.5211 -0.6547
 2812SOL    HW2 9538   8.013   8.040   7.497 -0.0460 -1.0063  1.7941
 2813SOL     OW 9539   2.741   2.985   0.491 -0.0764 -0.3391  0.0926
 2813SOL    HW1 9540   2.651   2.952   0.500  0.1291 -0.9144  0.0986
 2813SOL    HW2 9541   2.782   2.925   0.429 -0.3410  1.2331 -1.7028
 2814SOL     OW 9542   0.026   8.603   5.189 -0.3887  0.4216 -0.3219
 2814SOL    HW1 9543  -0.063   8.583   5.216 -0.5237  0.2424 -0.8871
 2814SOL    HW2 9544   0.079   8.592   5.268 -1.1472  2.5167  0.5589
 2815SOL     OW 9545   5.914   0.505   7.275  0.5197 -0.3921  0.6062
 2815SOL    HW1 9546   5.877   0.516   7.363 -1.0861 -1.7716  0.1375
 2815SOL    HW2 9547   5.863   0.564   7.220  0.4023 -0.7732  0.3063
 2816SOL     OW 9548   1.173   5.182   7.854  0.3703  0.0479 -0.2719
 2816SOL    HW1 9549   1.169   5.276   7.870  1.2954 -0.0578  0.7187
 2816SOL    HW2 9550   1.084   5.151   7.869  0.4827  0.4732  1.5502
 2817SOL     OW 9551   4.483   3.985   3.577  0.0409 -0.1810 -0.3787
 2817SOL    HW1 9552   4.499   4.080   3.580 -0.2755 -0.1548  1.4052
 2817SOL    HW2 9553   4.425   3.973   3.502 -1.7399  1.3542  0.6585
 2818SOL     OW 9554   5.233   8.572   7.822  0.5840 -0.4850 -0.6024
 2818SOL    HW1 9555   5.171   8.571   7.749 -0.2310  1.1509  0.0315
 2818SOL    HW2 9556   5.303   8.630   7.793 -1.0388  2.4015  0.8523
 2819SOL     OW 9557   8.053   8.687   1.746  0.1665  0.5828  0.0533
 2819SOL    HW1 9558   8.046   8.700   1.651 -1.5663 -0.5634 -0.0189
 2819SOL    HW2 9559   8.098   8.603   1.756 -0.7337  0.1069  0.1987
 2820SOL     OW 9560   8.518   4.742   3.971  0.0511 -0.4449  0.0055
 2820SOL    HW1 9561   8.445   4.787   3.928  0.9968  2.5528  1.3243
 2820SOL    HW2 9562   8.592   4.754   3.911  0.8661  1.9290  1.3819
 2821SOL     OW 9563   5.266   7.876   7.765  0.4621 -0.2072 -0.1741
 2821SOL    HW1 9564   5.361   7.888   7.771  0.3149  0.2791  1.7656
 2821SOL    HW2 9565   5.233   7.903   7.851 -1.3923 -0.7995 -0.6643
 2822SOL     OW 9566   2.245   3.140   8.533  0.4857 -0.8037 -0.6303
 2822SOL    HW1 9567   2.240   3.169   8.624  1.0832 -0.4795 -0.6957
 2822SOL    HW2 9568   2.189   3.062   8.530 -0.0570 -0.4473 -0.1401
 2823SOL     OW 9569   1.708   7.925   0.931  0.1121  0.1872 -0.4532
 2823SOL    HW1 9570   1.745   7.990   0.871  2.8506 -0.7533  0.0655
 2823SOL    HW2 9571   1.739   7.951   1.017 -2.0245  0.3272  0.3423
 2824SOL     OW 9572   1.982   6.270   4.190  0.0910 -0.0038  0.3855
 2824SOL    HW1 9573   1.908   6.212   4.208 -1.7333  2.0612  0.0787
 2824SOL    HW2 9574   1.960   6.311   4.106  1.6014  0.6718  0.2963
 2825SOL     OW 9575   3.685   1.227   5.097  0.1914 -0.0535 -0.3230
 2825SOL    HW1 9576   3.720   1.193   5.179  1.2260  1.0811 -0.2740
 2825SOL    HW2 9577   3.751   1.204   5.032  0.9459  1.8245 -0.2850
 2826SOL     OW 9578   6.658   8.290   7.224  0.3236  0.1192 -0.4382
 2826SOL    HW1 9579   6.723   8.355   7.248  3.0094 -0.9631 -3.8988
 2826SOL    HW2 9580   6.602   8.335   7.160  0.2775 -0.0814 -0.5406
 2827SOL     OW 9581   0.379   2.498   8.523 -0.3732 -0.6056  0.0860
 2827SOL    HW1 9582   0.454   2.439   8.513 -1.1272 -1.6067  0.2147
 2827SOL    HW2 9583   0.390   2.536   8.611  0.3437 -0.1964 -0.1652
 2828SOL     OW 9584   7.348   4.721   2.526  0.4305  0.0636  0.2160
 2828SOL    HW1 9585   7.436   4.682   2.523 -0.3183 -1.7052  0.4082
 2828SOL    HW2 9586   7.344   4.774   2.446  1.8975  0.7234  0.5386
 2829SOL     OW 9587   6.475   4.798   5.194  0.1575 -0.0058 -0.5079
 2829SOL    HW1 9588   6.420   4.871   5.165 -0.2454 -0.3064 -0.5062
 2829SOL    HW2 9589   6.556   4.807   5.142 -0.3893 -0.3004 -1.4453
 2830SOL     OW 9590   6.010   3.170   1.196  0.5320 -0.2182  0.1329
 2830SOL    HW1 9591   6.020   3.137   1.285  0.7953  1.1950  0.6537
 2830SOL    HW2 9592   5.931   3.128   1.163 -0.0690 -0.0801  1.3591
 2831SOL     OW 9593   3.325   6.337   1.361 -0.0272  0.4541  0.7384
 2831SOL    HW1 9594   3.308   6.412   1.419 -2.7512  0.3328  0.2432
 2831SOL    HW2 9595   3.239   6.295   1.350  0.9306 -1.2147 -1.1097
 2832SOL     OW 9596   2.748   5.718   6.470 -0.4823  0.1333 -0.0826
 2832SOL    HW1 9597   2.768   5.661   6.544  1.1013 -0.2903 -0.8015
 2832SOL    HW2 9598   2.706   5.795   6.509 -1.0982 -0.7595  1.0700
 2833SOL     OW 9599   4.360   4.897   6.552 -0.0630  0.4436 -0.3766
 2833SOL    HW1 9600   4.443   4.863   6.586 -0.1650  2.2008  1.9277
 2833SOL    HW2 9601   4.326   4.951   6.623 -3.2417 -0.2388 -1.2187
 2834SOL     OW 9602   5.021   7.125   1.144  0.1451 -0.4895 -0.3957
 2834SOL    HW1 9603   5.049   7.165   1.063  1.7838  1.5146  1.0653
 2834SOL    HW2 9604   5.093   7.066   1.168  0.5384  0.3446  0.5166
 2835SOL     OW 9605   2.820   4.126   1.080 -0.0321  0.0947  0.0764
 2835SOL    HW1 9606   2.762   4.202   1.091 -2.6986 -2.0052  2.4577
 2835SOL    HW2 9607   2.905   4.156   1.113 -0.6867  2.3172 -0.0665
 2836SOL     OW 9608   2.943   8.692   1.689 -0.6327 -0.0575  0.2685
 2836SOL    HW1 9609   2.985   8.757   1.745  0.0723 -1.2061  1.1362
 2836SOL    HW2 9610   2.994   8.694   1.608 -0.7851  0.6376  0.1834
 2837SOL     OW 9611   8.511   8.041   5.710  0.0577 -0.1233  0.1113
 2837SOL    HW1 9612   8.433   7.990   5.689 -0.7159  0.2519  1.8353
 2837SOL    HW2 9613   8.479   8.109   5.770  1.5848  0.4926  0.2761
 2838SOL     OW 9614   8.917   4.796   3.317  0.2627 -0.6214  0.0425
 2838SOL    HW1 9615   8.950   4.751   3.239  1.8344  0.2462  0.1694
 2838SOL    HW2 9616   8.995   4.829   3.360 -0.7472  1.2598  0.5534
 2839SOL     OW 9617   7.120   4.392   5.288 -0.1757 -0.2298  0.0368
 2839SOL    HW1 9618   7.200   4.340   5.296 -0.4984 -0.7473 -0.0525
 2839SOL    HW2 9619   7.117   4.443   5.369  0.1749 -0.3088  0.1014
 2840SOL     OW 9620   2.316   4.472   4.561 -0.0534 -0.2901  0.0987
 2840SOL    HW1 9621   2.384   4.535   4.538  1.4994 -0.7432  3.0125
 2840SOL    HW2 9622   2.358   4.387   4.552 -1.0564 -0.7537 -0.4258
 2841SOL     OW 9623   6.982   2.040   1.373  0.3389 -0.4292 -0.0601
 2841SOL    HW1 9624   6.921   2.092   1.321  1.0232  0.3891 -0.0640
 2841SOL    HW2 9625   6.933   1.962   1.396 -0.9584  0.5080  0.5011
 2842SOL     OW 9626   1.186   6.467   6.762 -0.4815  0.0056  0.1812
 2842SOL    HW1 9627   1.276   6.500   6.769  0.4118 -2.2124  0.1013
 2842SOL    HW2 9628   1.136   6.520   6.823  1.0552  0.7564  0.8507
 2843SOL     OW 9629   7.416   7.800   3.569  0.0288  0.0731  0.5163
 2843SOL    HW1 9630   7.466   7.817   3.649  0.3464  0.2025  0.2927
 2843SOL    HW2 9631   7.439   7.710   3.546  1.3468  0.6215 -0.4166
 2844SOL     OW 9632   0.730   3.190   5.789 -0.0812 -0.4478 -0.1692
 2844SOL    HW1 9633   0.700   3.136   5.862 -1.9728  0.9927  0.2146
 2844SOL    HW2 9634   0.757   3.273   5.830 -0.2232  0.0225 -1.0007
 2845SOL     OW 9635   1.680   4.054   6.446 -0.2683  0.3582 -0.1919
 2845SOL    HW1 9636   1.633   4.131   6.415  1.1777  1.3509  0.0054
 2845SOL    HW2 9637   1.640   3.981   6.398 -2.3853  1.0549  0.4018
 2846SOL     OW 9638   7.555   4.151   4.994 -0.3145  0.3734  0.1437
 2846SOL    HW1 9639   7.464   4.133   4.970 -0.4908  0.4949  0.7000
 2846SOL    HW2 9640   7.560   4.246   5.005  0.0903  0.4557 -0.6972
 2847SOL     OW 9641   3.653   8.347   8.329 -0.6658  0.4216 -0.3909
 2847SOL    HW1 9642   3.711   8.296   8.271 -1.4199 -0.7757 -0.1277
 2847SOL    HW2 9643   3.638   8.289   8.404  0.3229  1.9529  1.0605
 2848SOL     OW 9644   5.193   2.307   2.413  0.1584  0.4617 -0.1753
 2848SOL    HW1 9645   5.205   2.326   2.320 -0.1468 -0.5500 -0.4330
 2848SOL    HW2 9646   5.100   2.289   2.422  0.2054  0.4501  0.3051
 2849SOL     OW 9647   2.005   5.044   2.702 -0.0716 -0.3487 -0.1541
 2849SOL    HW1 9648   2.069   5.091   2.649 -0.3381  2.2851  1.6599
 2849SOL    HW2 9649   2.056   4.981   2.753  0.5048 -1.0333 -1.5361
 2850SOL     OW 9650   1.702   3.274   6.189 -0.2426 -0.2217 -0.7238
 2850SOL    HW1 9651   1.772   3.339   6.185  0.5626 -0.7415  2.3195
 2850SOL    HW2 9652   1.747   3.190   6.198 -1.2634 -0.8392 -1.2220
 2851SOL     OW 9653   5.305   8.811   1.023  0.4583 -0.3938  0.2621
 2851SOL    HW1 9654   5.400   8.799   1.027  0.3796 -1.0290  0.1968
 2851SOL    HW2 9655   5.269   8.732   1.062 -0.0527 -0.2228  0.1425
 2852SOL     OW 9656   6.457   6.464   4.519  0.1595  0.1473 -0.6299
 2852SOL    HW1 9657   6.452   6.443   4.612 -0.4273  0.0506 -0.6795
 2852SOL    HW2 9658   6.459   6.559   4.515 -0.2560  0.1653 -0.5291
 2853SOL     OW 9659   3.313   5.654   1.715 -0.0623  0.4797  0.4919
 2853SOL    HW1 9660   3.305   5.659   1.810  3.0199 -2.1480  1.0810
 2853SOL    HW2 9661   3.394   5.702   1.696  1.4436 -2.1667 -0.1930
 2854SOL     OW 9662   5.809   9.115   1.654 -0.3856  0.1919  0.0453
 2854SOL    HW1 9663   5.793   9.040   1.598  1.0897 -0.5194  0.5285
 2854SOL    HW2 9664   5.754   9.184   1.618 -0.5561 -0.6550 -1.3906
 2855SOL     OW 9665   9.104   8.001   6.356  0.1059  0.9966 -0.4456
 2855SOL    HW1 9666   9.112   7.929   6.294 -0.0802 -0.1297  0.7846
 2855SOL    HW2 9667   9.194   8.025   6.378  0.1766  0.0370  0.3496
 2856SOL     OW 9668   4.553   0.302   6.885  0.2358  0.2728 -0.0511
 2856SOL    HW1 9669   4.515   0.353   6.813  0.3849  1.3181  0.5959
 2856SOL    HW2 9670   4.565   0.365   6.956 -1.0339 -0.9679  1.3441
 2857SOL     OW 9671   6.426   0.458   8.809  0.0259 -0.1854 -0.6539
 2857SOL    HW1 9672   6.448   0.391   8.745 -1.0463 -0.4751 -0.7391
 2857SOL    HW2 9673   6.371   0.520   8.761 -0.4499 -0.1880 -0.1210
 2858SOL     OW 9674   6.289   2.190   1.968 -0.2702 -0.1106 -0.1935
 2858SOL    HW1 9675   6.205   2.228   1.941 -0.5401 -0.7226 -0.2169
 2858SOL    HW2 9676   6.289   2.196   2.063  0.0106  0.6264 -0.2348
 2859SOL     OW 9677   2.303   0.488   2.367 -0.0965  0.3626  0.0949
 2859SOL    HW1 9678   2.356   0.408   2.371 -0.1293  0.3721  0.9149
 2859SOL    HW2 9679   2.213   0.458   2.378 -0.0883  0.5300  0.6498
 2860SOL     OW 9680   0.991   4.885   1.124  0.3133  0.0634 -0.0739
 2860SOL    HW1 9681   1.071   4.848   1.159 -0.2634 -1.0277  0.1288
 2860SOL    HW2 9682   0.968   4.829   1.050 -0.3191  0.2796 -0.0538
 2861SOL     OW 9683   4.973   8.151   0.123  0.5666  0.1860  0.1807
 2861SOL    HW1 9684   4.947   8.188   0.208 -0.4892  2.2391 -0.9557
 2861SOL    HW2 9685   5.067   8.138   0.131  0.7536  1.8157  1.1664
 2862SOL     OW 9686   0.787   0.604   3.720 -0.4308  0.6776  0.5342
 2862SOL    HW1 9687   0.714   0.662   3.699 -1.8169 -0.1066  2.7990
 2862SOL    HW2 9688   0.855   0.662   3.755 -0.8348  1.1846  0.4763
 2863SOL     OW 9689   1.683   6.898   3.955  0.5819 -0.0498  0.1372
 2863SOL    HW1 9690   1.705   6.861   3.870  0.6096  1.3997 -0.5049
 2863SOL    HW2 9691   1.632   6.976   3.935  1.9540  1.2339  1.3728
 2864SOL     OW 9692   1.113   6.865   6.254 -0.0637 -0.0618 -0.0074
 2864SOL    HW1 9693   1.061   6.932   6.298 -1.0440 -1.6507  1.3482
 2864SOL    HW2 9694   1.095   6.879   6.161  0.1798  1.8549  0.1903
 2865SOL     OW 9695   7.617   7.451   6.952 -0.1257 -0.0054  0.0869
 2865SOL    HW1 9696   7.607   7.509   6.876 -2.0548  0.2256  0.4779
 2865SOL    HW2 9697   7.691   7.488   7.001  0.9949 -0.0169 -1.5087
 2866SOL     OW 9698   5.599   2.956   0.766  0.6396  0.7804 -0.2519
 2866SOL    HW1 9699   5.579   3.048   0.751  1.4100  0.9963  0.0294
 2866SOL    HW2 9700   5.518   2.921   0.804  0.3397  1.3322 -0.3645
 2867SOL     OW 9701   7.421   0.428   8.063  0.2552  0.2425  0.1263
 2867SOL    HW1 9702   7.501   0.385   8.033  0.6919 -0.7559  2.4706
 2867SOL    HW2 9703   7.435   0.440   8.157 -1.6221  1.7153  0.2633
 2868SOL     OW 9704   1.188   7.467   7.521 -0.1328 -0.2779 -0.6561
 2868SOL    HW1 9705   1.230   7.392   7.479  0.1612  0.2006 -1.2320
 2868SOL    HW2 9706   1.108   7.481   7.469 -1.2178 -1.3869  0.6256
 2869SOL     OW 9707   2.632   8.414   7.862  0.4716 -0.1852 -0.1397
 2869SOL    HW1 9708   2.590   8.437   7.779  0.3029  1.1347  0.2945
 2869SOL    HW2 9709   2.641   8.318   7.859 -1.7896 -0.4309 -0.6009
 2870SOL     OW 9710   2.726   3.309   5.193 -0.2748  0.5781  0.0415
 2870SOL    HW1 9711   2.815   3.320   5.160 -0.4020  0.2852 -0.3990
 2870SOL    HW2 9712   2.717   3.375   5.261 -0.2578  1.6612 -0.9917
 2871SOL     OW 9713   7.434   6.499   8.983 -0.5662 -0.2838 -0.1536
 2871SOL    HW1 9714   7.372   6.446   8.933 -1.8911  2.2251 -1.3880
 2871SOL    HW2 9715   7.416   6.589   8.955  1.5438  0.8480  1.7990
 2872SOL     OW 9716   6.539   8.087   5.585  0.4375 -0.3623  0.0976
 2872SOL    HW1 9717   6.503   8.050   5.665  0.5071 -0.5277  0.0524
 2872SOL    HW2 9718   6.463   8.124   5.540  0.3894 -0.3253  0.2083
 2873SOL     OW 9719   6.254   6.208   2.348 -0.2402 -0.5324 -0.0274
 2873SOL    HW1 9720   6.253   6.126   2.398 -0.9698 -0.4399  0.1175
 2873SOL    HW2 9721   6.178   6.257   2.380 -0.3419 -0.1934 -0.7670
 2874SOL     OW 9722   1.292   7.660   3.631  0.7210 -0.6636  0.2296
 2874SOL    HW1 9723   1.330   7.602   3.565  0.4280 -0.5407 -0.0499
 2874SOL    HW2 9724   1.243   7.725   3.581  0.4702 -0.5868  0.5707
 2875SOL     OW 9725   5.943   3.120   2.739 -0.1713 -0.7948 -0.2969
 2875SOL    HW1 9726   5.913   3.030   2.739  1.0562 -1.2228  0.7531
 2875SOL    HW2 9727   5.911   3.157   2.821  0.6718 -0.7563  0.0239
 2876SOL     OW 9728   7.211   7.011   0.876  0.0925  0.2102 -0.1879
 2876SOL    HW1 9729   7.306   7.019   0.866  0.1067  1.3237  0.6032
 2876SOL    HW2 9730   7.181   7.101   0.890 -1.4263  0.2484 -2.9465
 2877SOL     OW 9731   3.876   8.208   2.330 -0.5147  0.0165  0.0187
 2877SOL    HW1 9732   3.909   8.286   2.286 -1.6859  0.6785  0.2485
 2877SOL    HW2 9733   3.854   8.147   2.259  0.5782 -0.1944 -0.1530
 2878SOL     OW 9734   5.106   8.108   1.375 -0.7079  0.5224  0.4788
 2878SOL    HW1 9735   5.095   8.202   1.382 -2.3252  0.4757 -0.8679
 2878SOL    HW2 9736   5.191   8.096   1.334  0.7879  1.2422  3.1205
 2879SOL     OW 9737   8.429   0.193   7.770  0.4814 -0.1935  0.8888
 2879SOL    HW1 9738   8.425   0.142   7.688  2.4504 -0.8141  1.1241
 2879SOL    HW2 9739   8.445   0.283   7.741 -3.1841  0.4905  0.4598
 2880SOL     OW 9740   8.866   2.037   6.684 -0.2136 -0.4537 -0.5603
 2880SOL    HW1 9741   8.815   1.984   6.745  0.2186 -0.8974 -0.5725
 2880SOL    HW2 9742   8.880   2.120   6.729  0.5636 -0.9727  0.1792
 2881SOL     OW 9743   1.857   9.015   2.159 -0.0134 -0.5396 -0.1779
 2881SOL    HW1 9744   1.791   8.950   2.132  1.5939 -2.5281  0.4108
 2881SOL    HW2 9745   1.896   8.978   2.238  1.5825  0.7230 -0.3243
 2882SOL     OW 9746   8.111   0.985   5.323 -0.3362  0.6364  0.0136
 2882SOL    HW1 9747   8.133   0.915   5.261  0.7809  0.5756  0.4534
 2882SOL    HW2 9748   8.031   0.955   5.366 -1.5509  1.0055 -1.8798
 2883SOL     OW 9749   2.082   5.292   0.333 -0.0135  0.0249 -0.5832
 2883SOL    HW1 9750   2.165   5.339   0.336 -0.7714  1.5509 -1.7487
 2883SOL    HW2 9751   2.098   5.218   0.274  0.6585 -0.0013 -0.3713
 2884SOL     OW 9752   3.292   0.555   5.101  0.4435 -0.2350 -0.0756
 2884SOL    HW1 9753   3.233   0.628   5.122  1.7288  1.1416 -1.1168
 2884SOL    HW2 9754   3.343   0.543   5.181  0.1802 -0.0561  0.1235
 2885SOL     OW 9755   3.298   8.190   4.532 -0.2196  0.2031 -0.1254
 2885SOL    HW1 9756   3.233   8.260   4.535 -1.3230 -0.8149  1.5207
 2885SOL    HW2 9757   3.303   8.166   4.439 -2.7606 -0.1334 -0.2552
 2886SOL     OW 9758   3.895   5.900   3.462 -0.5804 -0.4386  0.4749
 2886SOL    HW1 9759   3.881   5.831   3.527  2.1459 -0.6574  0.9325
 2886SOL    HW2 9760   3.930   5.854   3.385 -1.3216  0.1351 -0.2249
 2887SOL     OW 9761   1.691   5.459   3.023  0.0405 -0.3694 -0.5648
 2887SOL    HW1 9762   1.713   5.445   2.931  1.2009 -0.6374 -0.2672
 2887SOL    HW2 9763   1.615   5.403   3.039  0.0738 -0.6165 -1.2540
 2888SOL     OW 9764   4.378   2.155   0.390  0.3825  0.0232  0.3307
 2888SOL    HW1 9765   4.333   2.232   0.356 -2.2424 -1.4425  0.1816
 2888SOL    HW2 9766   4.409   2.109   0.312  2.3624  1.0846  0.4378
 2889SOL     OW 9767   9.084   8.077   7.706 -0.2626  0.1612 -0.1682
 2889SOL    HW1 9768   9.162   8.109   7.660  0.8185  1.9402  2.6363
 2889SOL    HW2 9769   9.115   8.001   7.755 -1.1938 -1.1984 -1.5968
 2890SOL     OW 9770   1.329   5.230   6.093 -0.5052  0.6921 -0.0417
 2890SOL    HW1 9771   1.255   5.222   6.154 -0.2290 -0.1772  0.1802
 2890SOL    HW2 9772   1.314   5.161   6.028 -0.7449  1.5468 -0.9247
 2891SOL     OW 9773   0.750   2.479   4.818 -0.7558 -0.4128 -0.1885
 2891SOL    HW1 9774   0.742   2.459   4.911  2.6875  0.4835  0.4070
 2891SOL    HW2 9775   0.809   2.412   4.784 -1.0879 -0.0698 -1.5113
 2892SOL     OW 9776   6.190   6.105   0.254  0.1177 -0.0585 -0.1448
 2892SOL    HW1 9777   6.115   6.116   0.195  0.9355 -1.0614 -1.4130
 2892SOL    HW2 9778   6.210   6.194   0.283 -2.4345  0.1123  1.3976
 2893SOL     OW 9779   3.413   6.920   4.153 -0.0293 -0.3877  0.3434
 2893SOL    HW1 9780   3.447   6.999   4.109  0.1990 -1.4813 -1.5632
 2893SOL    HW2 9781   3.450   6.924   4.241  1.3615  0.7857 -0.2408
 2894SOL     OW 9782   2.106   0.774   4.297  0.0264 -0.2639  0.4280
 2894SOL    HW1 9783   2.136   0.812   4.379  0.3672  0.2175  0.0814
 2894SOL    HW2 9784   2.163   0.812   4.230  1.1535 -2.2463  0.1828
 2895SOL     OW 9785   8.845   8.051   3.619  0.5992  0.1416 -0.1324
 2895SOL    HW1 9786   8.770   8.108   3.604  1.8577  2.1976  0.8972
 2895SOL    HW2 9787   8.816   7.990   3.686  0.0070  1.3154  0.7052
 2896SOL     OW 9788   5.225   0.377   6.874 -0.9420 -0.7672 -0.7091
 2896SOL    HW1 9789   5.238   0.451   6.933 -1.1718  0.2590 -1.9001
 2896SOL    HW2 9790   5.172   0.315   6.925 -0.3885 -0.3194  0.4583
 2897SOL     OW 9791   0.835   0.509   7.364 -0.1419  0.7107 -0.9633
 2897SOL    HW1 9792   0.781   0.441   7.325 -1.4436  0.4860  1.1117
 2897SOL    HW2 9793   0.922   0.469   7.371 -0.3627  0.0640 -1.7355
 2898SOL     OW 9794   5.400   2.767   3.793  0.5331 -0.1219  0.0383
 2898SOL    HW1 9795   5.412   2.848   3.843  2.1012 -1.2155  1.5433
 2898SOL    HW2 9796   5.477   2.763   3.736 -0.3310  0.1816 -1.2127
 2899SOL     OW 9797   8.743   1.639   8.063 -0.0661  0.4222  0.2108
 2899SOL    HW1 9798   8.803   1.639   8.137 -0.1642 -0.2512  0.2941
 2899SOL    HW2 9799   8.727   1.731   8.045 -0.3067  0.5836  1.2357
 2900SOL     OW 9800   4.660   3.260   9.049  0.1415 -0.3446  0.2647
 2900SOL    HW1 9801   4.740   3.214   9.023 -0.2920 -2.7475  2.6599
 2900SOL    HW2 9802   4.592   3.222   8.995  0.3354  0.4157 -0.5322
 2901SOL     OW 9803   1.204   1.014   7.405 -0.2549  0.3273  0.0280
 2901SOL    HW1 9804   1.283   1.051   7.445  0.2826 -2.6193  2.0150
 2901SOL    HW2 9805   1.235   0.973   7.325  0.1783 -0.4736  0.5980
 2902SOL     OW 9806   4.821   9.010   2.209  0.1626 -0.4013 -0.1033
 2902SOL    HW1 9807   4.809   8.922   2.244 -1.4751  0.0289  0.5042
 2902SOL    HW2 9808   4.738   9.031   2.165  0.4073  0.9420  0.0180
 2903SOL     OW 9809   1.966   4.089   0.793  0.2939  0.4882  0.0953
 2903SOL    HW1 9810   1.929   4.162   0.743 -1.7404  0.5242  1.5454
 2903SOL    HW2 9811   1.890   4.036   0.817  1.2679  0.0364  2.4240
 2904SOL     OW 9812   7.926   5.881   1.199  0.4078 -0.3704  0.2401
 2904SOL    HW1 9813   7.965   5.922   1.276  0.9354  1.0411 -0.7455
 2904SOL    HW2 9814   7.948   5.788   1.208  0.3620 -0.2615  1.8234
 2905SOL     OW 9815   4.003   0.920   3.723 -0.1120 -0.0836  0.3632
 2905SOL    HW1 9816   3.990   1.011   3.694  0.3616  0.3368  1.4237
 2905SOL    HW2 9817   3.969   0.867   3.650 -0.4928  0.9364 -0.2304
 2906SOL     OW 9818   2.147   6.678   5.717  0.3212 -0.6321  0.1931
 2906SOL    HW1 9819   2.059   6.674   5.679 -0.4228  0.2715  1.7546
 2906SOL    HW2 9820   2.144   6.618   5.791  1.1452 -0.8617  0.0469
 2907SOL     OW 9821   6.034   8.440   3.793  0.2285 -0.0176  0.3662
 2907SOL    HW1 9822   6.022   8.377   3.722 -0.9018  1.0689 -0.4632
 2907SOL    HW2 9823   6.129   8.451   3.799  0.4041 -1.1000 -0.0805
 2908SOL     OW 9824   8.675   3.557   3.409  0.5342 -0.3413  0.2995
 2908SOL    HW1 9825   8.690   3.646   3.379 -0.1069 -0.2650  0.2045
 2908SOL    HW2 9826   8.735   3.546   3.483 -1.2470  1.0723  2.0502
 2909SOL     OW 9827   5.970   1.662   7.232 -0.3481  0.0813 -0.4706
 2909SOL    HW1 9828   5.942   1.677   7.322 -0.5815 -0.9671 -0.3553
 2909SOL    HW2 9829   5.989   1.568   7.228  0.7716  0.3136 -1.2118
 2910SOL     OW 9830   2.603   7.916   3.017 -0.4448  0.4956  0.0127
 2910SOL    HW1 9831   2.623   8.005   3.045 -2.6520  0.8914  0.5444
 2910SOL    HW2 9832   2.541   7.884   3.083 -1.1269 -0.7523 -1.1884
 2911SOL     OW 9833   4.650   5.746   5.536  0.0455 -0.3159 -0.5289
 2911SOL    HW1 9834   4.572   5.755   5.590  0.1064  0.0264 -0.4980
 2911SOL    HW2 9835   4.703   5.679   5.581  0.1046 -0.0187 -0.1542
 2912SOL     OW 9836   6.595   2.009   5.725 -0.4825 -0.0627  0.1352
 2912SOL    HW1 9837   6.504   1.981   5.738 -0.1983 -0.6253  1.0384
 2912SOL    HW2 9838   6.627   2.026   5.814  0.4841 -0.4780 -0.1258
 2913SOL     OW 9839   3.256   7.582   2.913 -0.0831 -0.5462  0.5813
 2913SOL    HW1 9840   3.192   7.653   2.905  0.9550  0.5356  1.3667
 2913SOL    HW2 9841   3.340   7.628   2.925  1.3188 -1.8020 -2.9662
 2914SOL     OW 9842   0.405   8.678   0.099  0.0987  0.1801  0.0245
 2914SOL    HW1 9843   0.448   8.595   0.120  0.8554  0.7052  0.6319
 2914SOL    HW2 9844   0.401   8.724   0.183 -0.6462  0.6127 -0.2369
 2915SOL     OW 9845   4.208   6.571   8.260  0.3002 -0.2284  0.7575
 2915SOL    HW1 9846   4.209   6.561   8.356  1.8313 -0.1065  0.7832
 2915SOL    HW2 9847   4.295   6.542   8.233 -0.1574 -0.3519 -0.6228
 2916SOL     OW 9848   1.202   3.524   4.757  0.1990 -0.4140  0.1046
 2916SOL    HW1 9849   1.140   3.561   4.820  2.2088  1.9996  0.8279
 2916SOL    HW2 9850   1.288   3.535   4.798  1.8690  3.0962 -3.6570
 2917SOL     OW 9851   2.867   0.121   0.945  0.8967  0.1106  0.2242
 2917SOL    HW1 9852   2.852   0.133   1.039 -0.7381  1.5158 -0.1615
 2917SOL    HW2 9853   2.788   0.077   0.914 -0.6505  3.4270 -1.1031
 2918SOL     OW 9854   3.275   1.631   6.861 -0.0425  0.1684  0.7203
 2918SOL    HW1 9855   3.260   1.700   6.797  2.0398 -0.7587 -0.8924
 2918SOL    HW2 9856   3.239   1.665   6.943  0.0606  2.7463 -0.2296
 2919SOL     OW 9857   6.376   2.709   7.538 -0.1415 -0.2843  0.7247
 2919SOL    HW1 9858   6.298   2.683   7.587 -0.2516 -0.5681  0.4007
 2919SOL    HW2 9859   6.345   2.772   7.474 -0.2984 -1.1663 -0.0995
 2920SOL     OW 9860   0.956   5.863   4.043  0.1331 -0.0840  0.1454
 2920SOL    HW1 9861   1.031   5.807   4.023  0.0663  0.1736 -0.8716
 2920SOL    HW2 9862   0.885   5.827   3.990 -0.4749 -0.3222  1.0934
 2921SOL     OW 9863   7.772   0.341   0.248 -0.0128 -0.0549 -0.1050
 2921SOL    HW1 9864   7.683   0.374   0.240  0.9888  2.8663 -0.2065
 2921SOL    HW2 9865   7.793   0.309   0.160  0.2578  2.8522 -1.2120
 2922SOL     OW 9866   3.293   7.886   8.022 -0.4481 -0.0623 -0.8032
 2922SOL    HW1 9867   3.286   7.963   7.965  0.4476 -0.9882 -2.1989
 2922SOL    HW2 9868   3.357   7.829   7.979  1.6806 -0.0266  2.0226
 2923SOL     OW 9869   8.863   4.932   2.630 -0.0029  0.7257 -0.3053
 2923SOL    HW1 9870   8.787   4.883   2.598 -0.3909  1.4698 -0.5736
 2923SOL    HW2 9871   8.930   4.920   2.563 -1.0965  2.9902 -1.9488
 2924SOL     OW 9872   0.884   0.086   1.459  0.0029  0.5472 -0.7015
 2924SOL    HW1 9873   0.819   0.018   1.481 -0.7614  1.3313 -0.4715
 2924SOL    HW2 9874   0.907   0.125   1.543  1.2324 -0.1068 -0.7138
 2925SOL     OW 9875   5.735   1.227   6.423 -0.2344  0.4981 -0.4846
 2925SOL    HW1 9876   5.686   1.158   6.466  1.2391  0.4799  1.2673
 2925SOL    HW2 9877   5.689   1.241   6.340 -3.5075  0.8764  1.2479
 2926SOL     OW 9878   8.953   7.051   4.344 -0.7673  0.5353 -0.3445
 2926SOL    HW1 9879   9.027   7.111   4.334 -1.2363  1.0615 -0.8045
 2926SOL    HW2 9880   8.943   7.011   4.258  0.1493 -0.9700  0.2105
 2927SOL     OW 9881   4.502   7.639   4.385 -0.0093 -0.4850 -0.5292
 2927SOL    HW1 9882   4.453   7.710   4.427  0.3316 -1.1548  1.1086
 2927SOL    HW2 9883   4.438   7.568   4.376  0.3443 -0.9718  0.5856
 2928SOL     OW 9884   1.480   6.332   5.908  0.4435 -0.1890 -0.1093
 2928SOL    HW1 9885   1.487   6.359   5.817  0.0113 -0.0241 -0.0977
 2928SOL    HW2 9886   1.475   6.414   5.957  0.4007 -0.2775  0.0360
 2929SOL     OW 9887   4.699   8.447   5.755 -0.0861  0.3009  0.0630
 2929SOL    HW1 9888   4.780   8.453   5.706 -0.2562  1.7686 -0.0984
 2929SOL    HW2 9889   4.639   8.399   5.697  0.2392  0.4621 -0.4117
 2930SOL     OW 9890   8.750   7.035   8.805  0.0233  0.3027 -0.4405
 2930SOL    HW1 9891   8.723   7.127   8.805  1.2588  0.6946 -1.5363
 2930SOL    HW2 9892   8.802   7.025   8.885  0.0741  0.6231 -0.4322
 2931SOL     OW 9893   0.629   1.153   2.215 -0.3868  0.0704  0.3128
 2931SOL    HW1 9894   0.696   1.156   2.147 -0.3871 -0.1771  0.3024
 2931SOL    HW2 9895   0.625   1.062   2.242 -0.2165  0.2067  0.8140
 2932SOL     OW 9896   6.490   4.453   2.077  0.2045  0.1442 -0.2511
 2932SOL    HW1 9897   6.475   4.362   2.052 -0.5979  0.5339 -1.2511
 2932SOL    HW2 9898   6.424   4.503   2.028  1.3386  1.3817 -0.5710
 2933SOL     OW 9899   9.079   3.341   1.070 -0.6289 -0.3586  0.6096
 2933SOL    HW1 9900   9.073   3.373   1.160 -1.3793  0.2065  0.3666
 2933SOL    HW2 9901   9.100   3.419   1.018 -0.0112 -0.7151  0.3126
 2934SOL     OW 9902   1.318   1.753   4.025 -0.2501 -0.1163 -0.0000
 2934SOL    HW1 9903   1.284   1.726   4.110  2.3720 -2.3547  0.4794
 2934SOL    HW2 9904   1.264   1.705   3.962 -0.0631 -1.1377  0.5871
 2935SOL     OW 9905   6.843   6.843   3.381  0.0035 -0.5327 -0.3906
 2935SOL    HW1 9906   6.835   6.834   3.286 -0.5889  0.4746 -0.4436
 2935SOL    HW2 9907   6.753   6.847   3.413  0.1689 -2.1619  0.3653
 2936SOL     OW 9908   3.354   0.438   8.936 -0.2707  0.0730  0.6459
 2936SOL    HW1 9909   3.281   0.417   8.878  1.1797 -2.3648 -0.4549
 2936SOL    HW2 9910   3.359   0.363   8.996  0.7669  0.6410  1.2993
 2937SOL     OW 9911   0.933   1.933   2.728 -0.0994 -0.0477  0.6583
 2937SOL    HW1 9912   0.886   1.910   2.648  0.0870  0.7211  0.3206
 2937SOL    HW2 9913   0.874   1.908   2.799 -0.2203 -0.8403  0.2960
 2938SOL     OW 9914   6.691   4.192   7.774  0.1910  0.0669 -0.5063
 2938SOL    HW1 9915   6.675   4.239   7.692  0.4696  0.9779 -0.0561
 2938SOL    HW2 9916   6.603   4.165   7.803 -0.3361  2.4844  0.4535
 2939SOL     OW 9917   6.709   5.950   3.600  0.0443  0.1983  0.0599
 2939SOL    HW1 9918   6.713   5.907   3.514  1.2850 -0.0712  0.2415
 2939SOL    HW2 9919   6.616   5.974   3.610 -0.3197 -0.7357 -0.8759
 2940SOL     OW 9920   6.139   8.731   3.436  0.3476  0.1719 -0.4922
 2940SOL    HW1 9921   6.127   8.792   3.508 -0.0971  0.6466 -0.9584
 2940SOL    HW2 9922   6.070   8.666   3.448  0.0954  0.4112 -0.6536
 2941SOL     OW 9923   8.431   4.912   2.842 -0.8665 -0.4001  0.0074
 2941SOL    HW1 9924   8.416   4.825   2.879 -1.9981 -0.5552 -0.7458
 2941SOL    HW2 9925   8.344   4.953   2.842 -0.7445 -0.0588 -1.5341
 2942SOL     OW 9926   2.850   3.207   2.058 -0.4850  0.3015 -0.3573
 2942SOL    HW1 9927   2.758   3.226   2.079 -0.5195 -1.2370  1.1697
 2942SOL    HW2 9928   2.877   3.279   2.002 -1.8211  2.3310  1.4069
 2943SOL     OW 9929   8.267   4.319   2.217  0.3092 -0.6976  0.0125
 2943SOL    HW1 9930   8.356   4.290   2.196  1.6302  1.6396  1.8155
 2943SOL    HW2 9931   8.238   4.258   2.284  1.4558 -0.2544  0.9529
 2944SOL     OW 9932   3.397   8.385   3.161 -0.5313  0.3857  0.0033
 2944SOL    HW1 9933   3.448   8.328   3.104 -0.3338 -0.3209  0.8516
 2944SOL    HW2 9934   3.432   8.368   3.249 -2.9845 -1.0650  0.8163
 2945SOL     OW 9935   2.948   5.163   7.000 -0.3958 -0.0133  0.0095
 2945SOL    HW1 9936   2.960   5.143   6.907 -2.1025  1.3323 -0.5647
 2945SOL    HW2 9937   3.034   5.148   7.039 -0.1501 -2.6990 -1.3443
 2946SOL     OW 9938   1.176   0.066   3.481  0.3075 -0.2216 -0.4692
 2946SOL    HW1 9939   1.181  -0.010   3.539  0.9436  1.1512  1.3383
 2946SOL    HW2 9940   1.084   0.070   3.454  0.2862 -1.6787 -0.7080
 2947SOL     OW 9941   6.005   7.006   0.188  0.4044 -0.0733 -0.2668
 2947SOL    HW1 9942   6.027   6.934   0.248  0.4945  1.1656  1.2394
 2947SOL    HW2 9943   5.913   6.990   0.165 -0.6296  1.0057  2.6367
 2948SOL     OW 9944   8.688   8.548   6.314  0.1615  0.6376 -0.0352
 2948SOL    HW1 9945   8.628   8.496   6.259  1.0443 -1.3189  0.7375
 2948SOL    HW2 9946   8.631   8.591   6.377 -0.5417 -0.2530 -0.0378
 2949SOL     OW 9947   3.549   1.452   0.800 -0.1671  0.6160 -0.1073
 2949SOL    HW1 9948   3.515   1.378   0.851  0.8918 -1.0948 -1.7443
 2949SOL    HW2 9949   3.476   1.479   0.745 -0.5343  0.7278  0.4312
 2950SOL     OW 9950   6.988   5.087   3.273 -0.0103 -0.3352 -0.0384
 2950SOL    HW1 9951   6.949   5.041   3.347 -1.8119  0.4965 -0.4071
 2950SOL    HW2 9952   7.027   5.018   3.220 -0.5422 -1.1701  0.6351
 2951SOL     OW 9953   0.900   0.823   5.490  0.2000  0.3483  0.5002
 2951SOL    HW1 9954   0.880   0.753   5.553 -1.7655  1.1142  0.7867
 2951SOL    HW2 9955   0.901   0.903   5.542 -1.5683  1.0103 -0.4118
 2952SOL     OW 9956   3.578   3.191   8.886 -0.0452 -0.3754  0.2741
 2952SOL    HW1 9957   3.606   3.259   8.947 -0.4511  0.4699 -0.4627
 2952SOL    HW2 9958   3.653   3.178   8.828 -0.7638  1.1910 -1.0869
 2953SOL     OW 9959   1.346   3.622   4.217 -0.3199  0.1984 -0.0930
 2953SOL    HW1 9960   1.268   3.677   4.216 -1.1633 -0.9219  1.3557
 2953SOL    HW2 9961   1.390   3.641   4.134 -1.7087  1.4267 -0.5771
 2954SOL     OW 9962   1.620   1.894   6.862 -0.0875 -0.1231  0.2629
 2954SOL    HW1 9963   1.677   1.850   6.798  0.2894  0.9686 -0.1711
 2954SOL    HW2 9964   1.553   1.936   6.808  1.3396  2.4669  0.3619
 2955SOL     OW 9965   6.981   7.457   8.073 -0.0916  0.1078 -0.5529
 2955SOL    HW1 9966   6.912   7.421   8.017 -2.5306 -0.2783  2.4230
 2955SOL    HW2 9967   6.953   7.547   8.090  0.6611  0.2548 -0.0644
 2956SOL     OW 9968   8.068   7.706   1.840  0.0471 -0.0609 -0.5156
 2956SOL    HW1 9969   8.119   7.632   1.806  0.5017  0.3863 -0.8237
 2956SOL    HW2 9970   7.991   7.709   1.784  0.5723  0.3875 -1.2280
 2957SOL     OW 9971   7.538   2.274   7.997  0.0044  0.1854  0.5138
 2957SOL    HW1 9972   7.542   2.180   8.015  1.0942 -0.1192 -1.1128
 2957SOL    HW2 9973   7.570   2.283   7.907 -1.6295  1.9528  0.0357
 2958SOL     OW 9974   9.029   6.232   8.119  0.6810  0.1693  0.6100
 2958SOL    HW1 9975   9.106   6.190   8.156  0.8615 -1.0405 -1.0138
 2958SOL    HW2 9976   8.956   6.175   8.144  0.6470  0.0093  0.1625
 2959SOL     OW 9977   2.339   3.429   6.671 -0.1155 -0.1036 -0.0026
 2959SOL    HW1 9978   2.417   3.387   6.707  0.2180  0.1026 -0.4832
 2959SOL    HW2 9979   2.314   3.494   6.737  1.4369  1.4036 -0.8399
 2960SOL     OW 9980   8.176   3.892   8.421 -0.8438 -0.0795  0.2632
 2960SOL    HW1 9981   8.245   3.937   8.469  0.0900 -0.9244 -0.2595
 2960SOL    HW2 9982   8.212   3.876   8.334 -0.8663 -2.3527  0.5980
 2961SOL     OW 9983   2.054   4.686   0.220  0.1586 -0.1420 -0.0796
 2961SOL    HW1 9984   2.149   4.691   0.217  0.1774  2.7355  1.4756
 2961SOL    HW2 9985   2.025   4.743   0.149 -0.3296  0.8598  0.8955
 2962SOL     OW 9986   2.872   3.384   6.602  0.3041 -0.2404 -0.1010
 2962SOL    HW1 9987   2.846   3.451   6.539 -0.0077  0.4312  0.7225
 2962SOL    HW2 9988   2.843   3.418   6.687 -0.2196 -1.6025  0.2904
 2963SOL     OW 9989   9.008   3.446   4.340 -0.2919  0.3331  0.4150
 2963SOL    HW1 9990   8.978   3.468   4.428 -0.5166 -1.0327  0.7105
 2963SOL    HW2 9991   8.990   3.524   4.287  0.8284  1.5601  1.7847
 2964SOL     OW 9992   8.441   5.082   4.313  0.5588  0.4447 -0.4549
 2964SOL    HW1 9993   8.488   4.999   4.307  0.6902 -0.0375  3.9194
 2964SOL    HW2 9994   8.499   5.139   4.363 -1.1169  1.8112  0.0301
 2965SOL     OW 9995   3.535   6.304   4.059  0.0698  0.7695 -0.3364
 2965SOL    HW1 9996   3.475   6.356   4.006 -1.2470 -2.3017 -2.1281
 2965SOL    HW2 9997   3.615   6.298   4.006 -0.5483 -0.6718 -1.1781
 2966SOL     OW 9998   1.856   2.718   6.205 -0.5059  0.2805 -0.2481
 2966SOL    HW1 9999   1.855   2.665   6.285  1.7379  3.2688  1.9907
 2966SOL    HW210000   1.943   2.706   6.169 -0.5671  1.0641 -0.6799
 2967SOL     OW10001   3.633   0.806   7.988 -0.2881 -0.7030  0.0807
 2967SOL    HW110002   3.565   0.750   8.025  1.7019 -2.4712  1.2554
 2967SOL    HW210003   3.617   0.805   7.894 -1.6448 -1.3598  0.2985
 2968SOL     OW10004   2.551   8.645   4.930  0.1089  0.5989  0.3119
 2968SOL    HW110005   2.572   8.738   4.918 -0.3750  0.7719  0.7413
 2968SOL    HW210006   2.542   8.635   5.024  1.1319 -0.1137  0.3400
 2969SOL     OW10007   2.305   8.487   8.885 -0.8743 -0.5029  0.2830
 2969SOL    HW110008   2.284   8.580   8.877 -0.5485 -0.5518 -1.4676
 2969SOL    HW210009   2.391   8.478   8.844 -0.9525 -1.5976  0.3281
 2970SOL     OW10010   5.054   3.197   6.875  0.3014  0.2723  0.1230
 2970SOL    HW110011   4.998   3.270   6.847 -0.6223 -0.5626 -0.2399
 2970SOL    HW210012   5.127   3.199   6.813 -0.9076 -0.5417 -1.3925
 2971SOL     OW10013   2.097   8.998   8.163 -0.1501 -0.0118 -0.4662
 2971SOL    HW110014   2.124   9.067   8.102  0.6515 -0.0981 -0.2147
 2971SOL    HW210015   2.074   8.924   8.106  3.4174 -1.1477 -0.6860
 2972SOL     OW10016   5.072   5.944   3.578  0.0641  0.1205  0.7870
 2972SOL    HW110017   4.992   5.980   3.538  0.2856  1.4274  1.4475
 2972SOL    HW210018   5.091   5.865   3.527  0.6903  2.0110 -2.1988
 2973SOL     OW10019   5.582   3.304   8.808 -0.4854  0.4456 -0.1379
 2973SOL    HW110020   5.560   3.364   8.736 -0.1733  0.2700 -0.3844
 2973SOL    HW210021   5.498   3.278   8.844 -0.6997 -0.2807 -1.1144
 2974SOL     OW10022   4.828   5.499   1.751 -0.2554 -0.0246  0.3843
 2974SOL    HW110023   4.826   5.560   1.825 -1.2170 -0.3921  0.6882
 2974SOL    HW210024   4.812   5.413   1.791  2.2655 -0.6893  0.1189
 2975SOL     OW10025   0.180   3.685   8.926  0.1305  0.7449 -0.4640
 2975SOL    HW110026   0.265   3.673   8.884  0.5588  0.9890  0.3229
 2975SOL    HW210027   0.175   3.615   8.991  0.2728  1.4707  0.3447
 2976SOL     OW10028   3.670   0.020   2.707  0.1168  0.2447  0.0071
 2976SOL    HW110029   3.699   0.063   2.627  2.5258  0.3048  0.8354
 2976SOL    HW210030   3.670   0.089   2.774  1.3738 -0.4327  0.7479
 2977SOL     OW10031   0.301   1.037   4.953  0.5893 -0.1496 -0.2028
 2977SOL    HW110032   0.296   0.986   4.872  1.3296  0.1338 -0.4383
 2977SOL    HW210033   0.391   1.070   4.955  0.8422 -0.8489  1.1667
 2978SOL     OW10034   9.063   3.173   6.462  0.6877  0.5099 -0.3134
 2978SOL    HW110035   9.121   3.247   6.445 -0.4130  1.8999  1.6213
 2978SOL    HW210036   9.101   3.129   6.539  0.9776 -0.5820 -1.0547
 2979SOL     OW10037   5.323   7.468   3.614  0.0880  0.0925  0.3273
 2979SOL    HW110038   5.330   7.425   3.699 -1.2792  0.3576  0.5999
 2979SOL    HW210039   5.230   7.487   3.604  0.0948 -0.6788 -1.6096
 2980SOL     OW10040   0.892   3.876   8.471 -0.1420  0.6095  0.0414
 2980SOL    HW110041   0.939   3.838   8.545 -2.4731  0.2140  1.4246
 2980SOL    HW210042   0.907   3.971   8.479  0.7913  0.4611  0.1445
 2981SOL     OW10043   7.792   5.976   6.618  0.0794 -0.1697 -0.2767
 2981SOL    HW110044   7.710   6.019   6.596 -0.2696 -1.7445 -2.3782
 2981SOL    HW210045   7.774   5.882   6.611  1.1762 -0.7322  2.7564
 2982SOL     OW10046   2.931   8.707   8.669  0.6383 -0.3399  0.2781
 2982SOL    HW110047   2.928   8.628   8.722  0.8585 -0.7452 -0.2954
 2982SOL    HW210048   2.840   8.731   8.655  0.5828 -0.1620  0.9313
 2983SOL     OW10049   0.462   5.450   8.163 -0.1442  0.1093  0.3827
 2983SOL    HW110050   0.376   5.409   8.160 -0.3928  0.5274  1.2781
 2983SOL    HW210051   0.488   5.459   8.071 -1.7960  1.4651 -0.0113
 2984SOL     OW10052   8.854   6.881   4.117  0.3357  0.0271  0.3891
 2984SOL    HW110053   8.899   6.797   4.124 -0.4466 -0.3891  0.6185
 2984SOL    HW210054   8.766   6.858   4.086 -0.1893  0.6571  1.3507
 2985SOL     OW10055   3.479   5.989   0.534 -0.4225  0.1385 -0.0166
 2985SOL    HW110056   3.525   5.933   0.471  0.1341  0.3531  0.1927
 2985SOL    HW210057   3.387   5.966   0.524 -0.1642 -1.2001  0.4321
 2986SOL     OW10058   4.602   5.235   2.850 -0.5119  0.0924 -0.0813
 2986SOL    HW110059   4.692   5.241   2.880 -0.2236 -0.2031 -0.8566
 2986SOL    HW210060   4.565   5.322   2.865 -0.1636  0.1549  0.4278
 2987SOL     OW10061   2.230   5.555   6.739  0.3385  0.2282 -0.0497
 2987SOL    HW110062   2.290   5.545   6.665  2.2624  2.7583  1.0032
 2987SOL    HW210063   2.284   5.595   6.807 -1.5712 -1.1757  2.4672
 2988SOL     OW10064   3.929   2.415   3.037 -0.0817  0.2357  0.4873
 2988SOL    HW110065   3.862   2.374   3.092 -0.8915  1.1090  0.1781
 2988SOL    HW210066   3.980   2.469   3.096  1.5956 -1.8285  1.0858
 2989SOL     OW10067   0.251   3.962   2.231 -0.2171  0.5286 -0.1179
 2989SOL    HW110068   0.175   4.016   2.249 -1.1626 -0.8082  0.0665
 2989SOL    HW210069   0.231   3.920   2.148  0.3741  0.2506 -0.1258
 2990SOL     OW10070   4.650   7.830   6.666 -0.2111 -0.3006  0.0725
 2990SOL    HW110071   4.694   7.912   6.689  0.2034 -0.3350 -0.5724
 2990SOL    HW210072   4.715   7.780   6.618 -0.9296 -0.3829 -0.8410
 2991SOL     OW10073   5.667   3.640   5.854  0.1536  0.2610 -0.2215
 2991SOL    HW110074   5.721   3.561   5.846 -1.0298 -0.5196 -0.9547
 2991SOL    HW210075   5.620   3.628   5.937  0.2198  0.3418 -0.1733
 2992SOL     OW10076   3.634   9.029   4.986 -0.1574  0.0546 -0.2455
 2992SOL    HW110077   3.717   9.029   4.939 -0.6024 -0.4675 -1.0643
 2992SOL    HW210078   3.650   9.082   5.064  0.8792  0.1266 -0.4949
 2993SOL     OW10079   4.598   2.063   3.991 -0.4976 -0.1337 -0.4313
 2993SOL    HW110080   4.653   2.132   4.029 -0.6687 -0.6287  0.7482
 2993SOL    HW210081   4.590   1.998   4.060 -0.6799 -1.1573 -1.3891
 2994SOL     OW10082   2.824   3.199   8.551  0.2964 -0.1452 -0.6040
 2994SOL    HW110083   2.776   3.277   8.522 -0.0327  0.0079  0.3227
 2994SOL    HW210084   2.870   3.169   8.473 -0.9066  0.0037 -1.4065
 2995SOL     OW10085   0.866   0.211   2.779  0.2938  0.1406 -0.2991
 2995SOL    HW110086   0.907   0.297   2.766  1.3874 -0.2431  0.4564
 2995SOL    HW210087   0.787   0.229   2.830  0.2051  0.7569 -0.6444
 2996SOL     OW10088   7.687   2.250   7.073  0.0102 -0.0839 -0.2405
 2996SOL    HW110089   7.642   2.165   7.072 -1.7998  0.7503  2.0387
 2996SOL    HW210090   7.645   2.300   7.004 -0.4594 -0.3035 -0.1155
 2997SOL     OW10091   2.228   3.898   3.980 -0.1547  0.0270  0.0389
 2997SOL    HW110092   2.307   3.859   4.017  0.9090  1.6884 -0.3398
 2997SOL    HW210093   2.207   3.842   3.904  1.1491  0.0205 -0.3376
 2998SOL     OW10094   6.037   0.279   1.847 -0.0679 -0.5729 -0.1681
 2998SOL    HW110095   6.001   0.209   1.901 -1.5860  1.7740  2.1015
 2998SOL    HW210096   6.057   0.350   1.908 -0.1994  1.6370 -2.4761
 2999SOL     OW10097   0.190   5.844   7.514 -0.1436  0.8535  0.2578
 2999SOL    HW110098   0.278   5.876   7.533  0.5513  0.4178 -1.9515
 2999SOL    HW210099   0.183   5.762   7.562  0.7481  0.7736  0.2650
 3000SOL     OW10100   5.579   1.663   4.527 -0.8944  0.2410  0.4247
 3000SOL    HW110101   5.485   1.646   4.533 -1.2624  2.1815  0.7614
 3000SOL    HW210102   5.607   1.675   4.618 -0.4065  0.0525  0.3006
 3001SOL     OW10103   6.515   6.800   4.285  0.3481  0.0354  0.4053
 3001SOL    HW110104   6.454   6.805   4.359  1.9156  0.2180  1.7371
 3001SOL    HW210105   6.563   6.882   4.289 -1.3941  1.3732 -2.5898
 3002SOL     OW10106   3.854   0.295   1.078 -0.0151  0.4225  0.3586
 3002SOL    HW110107   3.935   0.323   1.121  2.3618 -1.0522 -2.7064
 3002SOL    HW210108   3.804   0.376   1.066  1.2091  1.4614  1.9228
 3003SOL     OW10109   3.333   4.614   6.877 -0.1184  0.3843 -0.0081
 3003SOL    HW110110   3.265   4.589   6.815 -0.3951 -0.2679  0.5557
 3003SOL    HW210111   3.314   4.564   6.956  3.0531 -2.6982 -0.9489
 3004SOL     OW10112   3.285   6.660   7.883 -0.0684 -0.1831  0.1083
 3004SOL    HW110113   3.220   6.704   7.829 -0.4712  1.6533  1.9532
 3004SOL    HW210114   3.342   6.730   7.914  0.6469 -1.2665  1.3691
 3005SOL     OW10115   6.284   2.579   5.947 -0.3382 -0.1101  0.4812
 3005SOL    HW110116   6.246   2.581   6.035 -0.0603 -0.9471  0.6319
 3005SOL    HW210117   6.228   2.518   5.898 -0.1422 -0.1048  0.2495
 3006SOL     OW10118   1.121   5.302   0.893  0.5110 -0.0171  0.0209
 3006SOL    HW110119   1.129   5.336   0.982  1.7708  1.5164 -0.6304
 3006SOL    HW210120   1.199   5.334   0.848 -0.5438  0.0311 -1.8880
 3007SOL     OW10121   4.931   4.975   5.823  0.4371  0.3294 -0.0244
 3007SOL    HW110122   5.005   5.030   5.848  0.7820 -0.1121 -0.0817
 3007SOL    HW210123   4.940   4.962   5.729 -0.4922  1.4304 -0.2916
 3008SOL     OW10124   2.067   6.254   4.918 -0.0661  0.0711  0.3710
 3008SOL    HW110125   2.144   6.265   4.973  1.0874 -0.4866 -1.0501
 3008SOL    HW210126   2.065   6.161   4.898 -1.2914  0.0370  0.6234
 3009SOL     OW10127   7.997   2.253   8.914 -0.2206  0.4918 -0.3408
 3009SOL    HW110128   7.917   2.261   8.965  0.4927  0.4739  0.8279
 3009SOL    HW210129   8.012   2.341   8.879 -0.1460  0.7853  0.4060
 3010SOL     OW10130   4.942   5.500   8.733  1.0548  0.8083  0.7292
 3010SOL    HW110131   4.970   5.445   8.806  0.1051  0.8969  1.1803
 3010SOL    HW210132   4.984   5.461   8.656 -0.1012 -0.9805  0.9310
 3011SOL     OW10133   7.731   2.970   0.555 -0.1115  0.2742  0.0483
 3011SOL    HW110134   7.684   2.921   0.622 -0.8274 -0.8533 -1.2320
 3011SOL    HW210135   7.680   3.050   0.544 -0.3364  0.1845  0.4082
 3012SOL     OW10136   1.297   4.755   8.722 -0.4228  0.0973 -0.5843
 3012SOL    HW110137   1.308   4.702   8.802  0.2557 -0.1869 -0.8597
 3012SOL    HW210138   1.262   4.694   8.658 -0.9431  0.3206 -0.5161
 3013SOL     OW10139   4.723   7.100   8.462  0.2379  0.4718 -0.1963
 3013SOL    HW110140   4.631   7.110   8.486 -0.1490  2.3348 -2.1539
 3013SOL    HW210141   4.729   7.015   8.419 -0.0480 -0.6714  1.9072
 3014SOL     OW10142   6.970   0.339   1.327  0.0191 -0.5056  0.4316
 3014SOL    HW110143   6.906   0.397   1.285 -0.3558 -1.7612 -0.7906
 3014SOL    HW210144   6.992   0.275   1.260  1.6156 -0.8590  1.2558
 3015SOL     OW10145   2.708   3.874   1.883 -0.0226 -0.4257 -0.0605
 3015SOL    HW110146   2.696   3.889   1.789  0.9808 -0.0026 -0.1292
 3015SOL    HW210147   2.654   3.941   1.925 -0.9807 -1.0116 -0.3131
 3016SOL     OW10148   4.525   7.073   1.154 -0.2212  0.0016 -0.1020
 3016SOL    HW110149   4.615   7.105   1.145 -0.5093  0.4570 -1.7878
 3016SOL    HW210150   4.523   6.992   1.103 -0.2945 -1.0810  1.5605
 3017SOL     OW10151   7.851   1.739   6.686  0.3094 -0.0454 -0.4832
 3017SOL    HW110152   7.768   1.786   6.685  0.4295  0.1645 -1.1783
 3017SOL    HW210153   7.891   1.762   6.770 -0.7817 -0.9605  0.3050
 3018SOL     OW10154   4.288   0.148   7.433 -0.0996 -0.9659 -0.9281
 3018SOL    HW110155   4.300   0.180   7.522 -0.4888  1.2790 -1.6348
 3018SOL    HW210156   4.264   0.056   7.444 -2.2207 -0.2391  1.3891
 3019SOL     OW10157   3.080   6.745   0.558 -0.3712 -0.3789 -0.1108
 3019SOL    HW110158   3.068   6.679   0.627  0.3909  0.5837  0.9835
 3019SOL    HW210159   3.118   6.820   0.603  2.7857 -0.6534 -2.0678
 3020SOL     OW10160   8.763   2.215   0.055  0.4407 -0.3613 -0.1512
 3020SOL    HW110161   8.856   2.234   0.042  0.4168  0.7019  1.0337
 3020SOL    HW210162   8.758   2.120   0.065  1.3946 -0.4201 -0.1930
 3021SOL     OW10163   8.879   2.659   7.304  0.7259 -0.5694  0.2886
 3021SOL    HW110164   8.837   2.573   7.297 -1.3054  0.5077 -2.3339
 3021SOL    HW210165   8.911   2.678   7.216  0.3353  1.6952  0.5726
 3022SOL     OW10166   8.156   0.565   0.123 -0.2395  0.2064  0.3208
 3022SOL    HW110167   8.115   0.503   0.063 -0.4226 -0.2952  0.9581
 3022SOL    HW210168   8.189   0.512   0.195 -0.8637  0.8826  1.1384
 3023SOL     OW10169   7.128   8.833   6.251  0.0057  0.3675 -0.2886
 3023SOL    HW110170   7.162   8.772   6.316 -1.2920 -0.3774 -0.2766
 3023SOL    HW210171   7.113   8.779   6.173  0.2212  0.9649 -0.7495
 3024SOL     OW10172   1.374   1.326   4.106 -0.8883 -0.1835 -0.6382
 3024SOL    HW110173   1.390   1.236   4.079 -2.6280 -1.3738  1.8826
 3024SOL    HW210174   1.279   1.337   4.096 -0.7551  1.2455 -0.5236
 3025SOL     OW10175   6.998   3.904   8.789  0.8380 -0.2493  0.2764
 3025SOL    HW110176   7.005   3.900   8.884 -3.5618 -0.9113  0.8260
 3025SOL    HW210177   6.964   3.992   8.771  2.1792  0.0843 -0.8166
 3026SOL     OW10178   3.255   4.806   7.507  0.4311 -0.4208  0.1808
 3026SOL    HW110179   3.199   4.870   7.551 -0.3018 -0.4936 -0.6359
 3026SOL    HW210180   3.322   4.859   7.464 -0.2264 -0.1905 -0.5672
 3027SOL     OW10181   8.302   2.232   0.729  0.3245  0.2783 -0.2464
 3027SOL    HW110182   8.369   2.165   0.744 -1.2017 -1.1117  0.6749
 3027SOL    HW210183   8.296   2.279   0.813 -0.2906 -0.0286 -0.1146
 3028SOL     OW10184   1.533   5.029   6.573 -1.0287 -0.5307 -0.0536
 3028SOL    HW110185   1.558   5.059   6.485 -1.1604 -1.4812 -0.4336
 3028SOL    HW210186   1.615   5.022   6.621 -1.0528  1.1512  0.3086
 3029SOL     OW10187   5.412   0.548   6.510 -0.2842  0.3087 -0.0176
 3029SOL    HW110188   5.317   0.542   6.506 -0.2716  0.1003  0.0244
 3029SOL    HW210189   5.442   0.522   6.423 -0.3415  1.8093 -0.5099
 3030SOL     OW10190   3.243   3.242   3.443  0.3150 -0.6082 -0.1397
 3030SOL    HW110191   3.337   3.245   3.430  0.5897 -1.9883  1.3310
 3030SOL    HW210192   3.231   3.199   3.527 -1.6237  0.0236 -0.0340
 3031SOL     OW10193   5.183   5.538   2.194 -0.0677  0.3660 -0.0196
 3031SOL    HW110194   5.243   5.544   2.120  0.5500  0.2525  0.4650
 3031SOL    HW210195   5.133   5.458   2.179  2.6565 -1.7949  1.5708
 3032SOL     OW10196   8.810   8.525   6.584 -0.3257  0.1808  0.0070
 3032SOL    HW110197   8.764   8.524   6.500 -0.7350  1.5334  0.1968
 3032SOL    HW210198   8.823   8.432   6.604 -0.0702 -0.1704 -1.6177
 3033SOL     OW10199   7.078   1.903   4.108  0.2279  0.1852 -0.3404
 3033SOL    HW110200   7.141   1.838   4.078  1.3523  0.5663  1.0658
 3033SOL    HW210201   7.020   1.856   4.168  0.9712  0.4304  0.5887
 3034SOL     OW10202   9.112   2.456   2.545  0.1190  0.1076 -0.1972
 3034SOL    HW110203   9.194   2.464   2.594 -0.6138 -0.1871  1.1303
 3034SOL    HW210204   9.071   2.542   2.554 -1.0265 -0.5765  1.6338
 3035SOL     OW10205   6.276   4.701   3.675  0.0732  0.6125 -0.1381
 3035SOL    HW110206   6.270   4.658   3.760 -0.3200  1.1221  0.0966
 3035SOL    HW210207   6.339   4.771   3.688  0.2100  0.5302 -0.3429
 3036SOL     OW10208   3.913   6.049   5.227 -0.0498  0.2899 -0.4240
 3036SOL    HW110209   3.883   6.004   5.147  1.1166 -1.3243 -0.0061
 3036SOL    HW210210   3.938   6.137   5.197 -0.7832  0.1198 -1.5980
 3037SOL     OW10211   3.889   8.861   5.316  0.3653 -0.1353 -0.1774
 3037SOL    HW110212   3.886   8.766   5.328  2.0254  0.0016  2.0577
 3037SOL    HW210213   3.960   8.876   5.254 -0.3343 -0.3705 -1.0408
 3038SOL     OW10214   8.996   5.664   6.726  0.0771 -0.2098  0.1821
 3038SOL    HW110215   9.052   5.608   6.780  0.0789  0.1419  0.5443
 3038SOL    HW210216   8.991   5.618   6.642 -0.5413 -1.1623  0.7092
 3039SOL     OW10217   4.375   7.125   6.460 -0.0815 -0.2574  0.5405
 3039SOL    HW110218   4.442   7.065   6.428 -0.7731  1.2507 -4.5529
 3039SOL    HW210219   4.411   7.212   6.444 -1.5377  0.6562  1.9021
 3040SOL     OW10220   6.352   2.828   1.300 -0.2385 -0.4422 -0.0268
 3040SOL    HW110221   6.420   2.838   1.233 -3.2877 -0.9432 -3.5539
 3040SOL    HW210222   6.333   2.734   1.300 -1.6626 -0.1741 -0.0324
 3041SOL     OW10223   7.755   0.670   2.620 -0.1582  0.0526 -0.4127
 3041SOL    HW110224   7.809   0.748   2.630 -0.2755  0.1552 -0.5699
 3041SOL    HW210225   7.816   0.597   2.625 -0.1604  0.1128  0.6631
 3042SOL     OW10226   6.985   1.661   1.845  0.5353  0.0733  0.1010
 3042SOL    HW110227   7.077   1.638   1.835  0.2109 -0.6734 -1.2831
 3042SOL    HW210228   6.974   1.739   1.790  0.7571  1.3493  1.7905
 3043SOL     OW10229   5.145   1.882   1.768  0.5198  0.3019  0.1787
 3043SOL    HW110230   5.215   1.947   1.770  1.0448 -0.2123 -0.9591
 3043SOL    HW210231   5.190   1.798   1.760 -0.2297  0.0365 -1.6944
 3044SOL     OW10232   2.714   0.704   3.702 -0.1899 -0.6752  0.1478
 3044SOL    HW110233   2.794   0.663   3.670  0.5538  0.6213  0.2797
 3044SOL    HW210234   2.710   0.680   3.795  0.9992  0.6442  0.5804
 3045SOL     OW10235   1.048   8.039   5.857 -0.1123  0.3180 -0.0231
 3045SOL    HW110236   1.133   8.008   5.889 -0.5008 -0.3634  0.3678
 3045SOL    HW210237   1.028   8.115   5.912  0.6509  1.0280 -0.7091
 3046SOL     OW10238   6.876   8.757   3.903 -0.3584 -0.7418  0.0417
 3046SOL    HW110239   6.924   8.751   3.820 -0.4325 -0.0297 -0.0581
 3046SOL    HW210240   6.800   8.812   3.883  1.6584  2.8981  1.4666
 3047SOL     OW10241   4.944   7.186   3.052  0.1483 -0.6808  0.3755
 3047SOL    HW110242   4.999   7.130   3.107  2.5978  0.5594 -0.6959
 3047SOL    HW210243   4.941   7.270   3.099  2.0258  0.2988 -1.1375
 3048SOL     OW10244   0.361   2.119   6.683  0.4171  0.3649  0.1473
 3048SOL    HW110245   0.332   2.146   6.597  3.2213 -0.3042 -1.1263
 3048SOL    HW210246   0.282   2.120   6.737 -1.0430  2.8799 -1.8454
 3049SOL     OW10247   8.487   9.091   5.292  0.2224  0.7263  0.3307
 3049SOL    HW110248   8.476   9.006   5.251  0.3885  0.1155  1.5247
 3049SOL    HW210249   8.570   9.085   5.340 -0.8054  0.8200  2.1720
 3050SOL     OW10250   4.347   7.798   3.724 -0.0715  0.6259 -0.4195
 3050SOL    HW110251   4.282   7.735   3.691  0.5024  0.1974 -0.7523
 3050SOL    HW210252   4.294   7.868   3.763 -0.7106 -0.3000  0.4135
 3051SOL     OW10253   1.286   1.583   0.800 -0.0437 -0.4646  0.5168
 3051SOL    HW110254   1.197   1.587   0.766  0.2761 -0.4980 -0.3510
 3051SOL    HW210255   1.342   1.594   0.723  0.7017 -0.1499  1.0846
 3052SOL     OW10256   0.220   4.448   8.854  0.0230 -0.3135  0.3250
 3052SOL    HW110257   0.160   4.510   8.897 -0.3508  0.7511 -1.6223
 3052SOL    HW210258   0.170   4.411   8.782  0.8961 -1.4144  0.2467
 3053SOL     OW10259   5.109   1.337   8.885  0.0072 -0.1419 -0.5446
 3053SOL    HW110260   5.072   1.348   8.973  2.3566  0.4122  0.4454
 3053SOL    HW210261   5.203   1.345   8.898  0.5626 -1.9805 -2.8451
 3054SOL     OW10262   5.524   8.153   2.391  0.0255 -0.4044  0.0451
 3054SOL    HW110263   5.469   8.075   2.404 -0.1501 -0.0472  1.7288
 3054SOL    HW210264   5.600   8.137   2.448 -0.5867  1.1560  1.3662
 3055SOL     OW10265   0.591   8.010   2.190  0.4455 -0.0601 -0.0779
 3055SOL    HW110266   0.562   8.083   2.134  0.6035  1.1661  1.3825
 3055SOL    HW210267   0.640   7.953   2.130  1.7706  1.8794 -0.9756
 3056SOL     OW10268   0.525   7.457   4.885  0.0614  0.6074 -0.3261
 3056SOL    HW110269   0.515   7.367   4.855 -2.4394  0.7906 -0.3010
 3056SOL    HW210270   0.436   7.494   4.880  0.7404  2.6290  1.0383
 3057SOL     OW10271   1.268   8.905   5.339 -0.4415  0.0544 -0.7228
 3057SOL    HW110272   1.332   8.976   5.340 -1.9286  1.4787 -1.5149
 3057SOL    HW210273   1.201   8.932   5.403 -0.5557 -1.1104 -0.3344
 3058SOL     OW10274   5.072   4.418   2.613  0.3296  0.5291 -0.0644
 3058SOL    HW110275   5.049   4.355   2.544  0.9776 -0.9124  0.9976
 3058SOL    HW210276   5.165   4.403   2.629  0.4966  1.7653  0.2343
 3059SOL     OW10277   5.087   9.015   0.845  0.1196  0.4990 -0.9395
 3059SOL    HW110278   5.003   9.051   0.875  0.1072  1.1228 -1.6814
 3059SOL    HW210279   5.094   8.930   0.888 -0.7410  0.5833 -0.6147
 3060SOL     OW10280   4.404   4.125   2.895  0.6469 -0.7783 -0.4723
 3060SOL    HW110281   4.440   4.166   2.817  1.1363  2.0556  1.1084
 3060SOL    HW210282   4.473   4.066   2.925  1.1839 -0.5282 -1.1866
 3061SOL     OW10283   2.095   8.239   3.071  0.2623 -0.6802  0.0178
 3061SOL    HW110284   2.130   8.317   3.029  0.6345 -0.6582  0.3616
 3061SOL    HW210285   2.020   8.270   3.122 -0.4348 -0.7658 -0.9169
 3062SOL     OW10286   0.064   5.219   5.592 -0.1464  0.1948  0.5924
 3062SOL    HW110287  -0.012   5.274   5.613  0.8318  1.7774  0.2272
 3062SOL    HW210288   0.088   5.178   5.674  0.0003  1.5585  1.2658
 3063SOL     OW10289   8.999   3.477   7.802  0.6965  0.1807 -0.0997
 3063SOL    HW110290   9.038   3.414   7.742 -1.8633 -2.5128  0.8234
 3063SOL    HW210291   8.918   3.504   7.759  0.9006  1.5211  0.3219
 3064SOL     OW10292   8.664   5.710   7.076 -0.0604 -0.0029  0.0484
 3064SOL    HW110293   8.665   5.759   6.993 -1.2605 -1.2486 -0.7335
 3064SOL    HW210294   8.630   5.624   7.052  1.1755 -0.9489  1.5498
 3065SOL     OW10295   4.224   8.823   2.979  0.6811  0.9194 -0.3158
 3065SOL    HW110296   4.241   8.772   3.058 -0.9024  0.6002 -0.1458
 3065SOL    HW210297   4.275   8.780   2.911  0.4228 -0.0946  0.1084
 3066SOL     OW10298   7.258   1.101   1.139  0.5703 -0.7062 -0.1106
 3066SOL    HW110299   7.326   1.079   1.202  0.3243  0.4382  0.5795
 3066SOL    HW210300   7.180   1.056   1.172  0.1970  0.6901  0.9992
 3067SOL     OW10301   2.747   8.116   7.463  0.4957  0.5650  0.1717
 3067SOL    HW110302   2.692   8.194   7.471 -0.4646 -0.2000  1.5785
 3067SOL    HW210303   2.688   8.043   7.485  0.8097 -0.8272 -3.0613
 3068SOL     OW10304   9.017   5.408   7.226 -0.3489 -0.1744 -0.6330
 3068SOL    HW110305   8.967   5.489   7.237 -1.1567 -0.6617 -0.6263
 3068SOL    HW210306   9.047   5.387   7.314 -1.3654 -0.6395 -0.3788
 3069SOL     OW10307   7.948   5.937   7.583 -0.5040  0.0062  0.0403
 3069SOL    HW110308   7.856   5.937   7.608 -0.7599 -1.8279 -0.7699
 3069SOL    HW210309   7.993   5.977   7.658 -2.0981  3.0490 -0.4273
 3070SOL     OW10310   9.017   7.504   6.995 -0.2868  0.0679 -0.1140
 3070SOL    HW110311   8.974   7.541   7.072  0.2285 -0.3108  0.3687
 3070SOL    HW210312   9.095   7.558   6.984  1.3568 -1.7778  1.5820
 3071SOL     OW10313   7.560   1.609   5.929 -0.4664  0.1288 -0.4860
 3071SOL    HW110314   7.645   1.578   5.898 -0.7051 -0.3574 -0.6628
 3071SOL    HW210315   7.565   1.602   6.024  0.3508  1.8372 -0.3724
 3072SOL     OW10316   2.285   2.671   4.515 -0.2297  0.1722  0.4268
 3072SOL    HW110317   2.359   2.621   4.482 -0.7104 -0.2380 -0.0392
 3072SOL    HW210318   2.220   2.605   4.539 -1.5378  0.5676 -1.7599
 3073SOL     OW10319   4.125   5.249   7.917 -0.0535  0.6528 -0.5017
 3073SOL    HW110320   4.089   5.334   7.889 -2.2652 -0.5196 -1.5270
 3073SOL    HW210321   4.165   5.213   7.838 -0.6543  0.0315 -0.5335
 3074SOL     OW10322   4.594   5.554   3.784 -0.6250 -0.2179 -0.4579
 3074SOL    HW110323   4.529   5.494   3.823 -1.6757  1.1016 -0.0966
 3074SOL    HW210324   4.568   5.561   3.692  0.1397 -1.1162 -0.7566
 3075SOL     OW10325   4.605   7.519   8.927  0.1217 -0.1450 -0.6243
 3075SOL    HW110326   4.679   7.459   8.923 -0.2163 -0.6123 -0.1594
 3075SOL    HW210327   4.610   7.556   9.015 -0.9098 -1.1409 -0.1148
 3076SOL     OW10328   2.415   4.377   6.356  0.3795 -0.4310  0.0409
 3076SOL    HW110329   2.341   4.322   6.383 -0.3831 -0.6294 -2.2092
 3076SOL    HW210330   2.374   4.453   6.315  1.3830 -0.6292 -1.4054
 3077SOL     OW10331   8.949   8.720   7.052 -0.1826 -0.1735  0.0941
 3077SOL    HW110332   9.028   8.749   7.097 -0.6812  0.0033  0.8787
 3077SOL    HW210333   8.961   8.749   6.962 -1.0349  3.4262  0.9687
 3078SOL     OW10334   6.428   5.961   1.196 -0.4351  0.0336 -0.3745
 3078SOL    HW110335   6.489   6.033   1.179 -0.3788  0.9873  3.0595
 3078SOL    HW210336   6.481   5.881   1.184  0.3564  0.6681 -1.2552
 3079SOL     OW10337   3.773   2.526   1.332 -0.1598 -0.0927  0.0338
 3079SOL    HW110338   3.682   2.553   1.345 -0.5291 -1.0622 -0.4698
 3079SOL    HW210339   3.779   2.441   1.376  0.1853 -0.5702 -0.9135
 3080SOL     OW10340   0.960   0.031   3.260  0.1368 -0.0836  0.4773
 3080SOL    HW110341   0.898   0.104   3.255 -0.3546 -0.5664 -0.9099
 3080SOL    HW210342   1.032   0.057   3.203 -0.4960 -1.0681 -0.8252
 3081SOL     OW10343   6.416   4.410   3.770  0.1027 -0.0718 -0.3283
 3081SOL    HW110344   6.339   4.465   3.754  1.0199  0.9935 -1.2883
 3081SOL    HW210345   6.469   4.421   3.691  1.7254  0.0528  0.7391
 3082SOL     OW10346   6.622   0.512   5.350 -0.5205  0.1138 -0.3216
 3082SOL    HW110347   6.533   0.532   5.320  0.0846  2.0208 -0.9783
 3082SOL    HW210348   6.664   0.597   5.362  1.1700 -0.7324  0.2012
 3083SOL     OW10349   2.577   4.371   8.288  0.5716 -0.6983  0.1046
 3083SOL    HW110350   2.493   4.363   8.243  0.3434 -1.7038  0.6950
 3083SOL    HW210351   2.561   4.435   8.358  0.5898 -0.0933 -0.4374
 3084SOL     OW10352   9.100   4.797   5.765  0.1368  0.0199  0.0869
 3084SOL    HW110353   9.069   4.722   5.817  2.0905 -0.2457  0.9757
 3084SOL    HW210354   9.082   4.771   5.674  1.1544 -1.7605  0.3380
 3085SOL     OW10355   5.060   7.226   0.287 -0.7759  0.3628 -0.2312
 3085SOL    HW110356   5.100   7.297   0.237  2.6216 -1.4328 -0.3823
 3085SOL    HW210357   4.994   7.189   0.229 -0.2475  1.2981 -1.4682
 3086SOL     OW10358   6.665   3.986   6.589 -0.1585 -0.4438  0.1793
 3086SOL    HW110359   6.597   4.011   6.652 -0.4611  1.2114 -0.7452
 3086SOL    HW210360   6.729   3.938   6.641 -1.5709 -1.2397  1.2644
 3087SOL     OW10361   9.029   8.626   2.737 -0.4393 -0.4309  0.0930
 3087SOL    HW110362   9.006   8.566   2.808 -0.8668  1.7529  1.9220
 3087SOL    HW210363   9.101   8.678   2.772  0.0481  0.0163 -1.4978
 3088SOL     OW10364   6.700   1.345   2.313  0.4954 -0.3399 -0.2840
 3088SOL    HW110365   6.738   1.330   2.400 -1.3669 -0.9282  0.4865
 3088SOL    HW210366   6.676   1.257   2.283 -1.0992  0.0700 -0.2940
 3089SOL     OW10367   6.015   1.644   6.468 -0.4378  0.3536 -0.2580
 3089SOL    HW110368   6.051   1.708   6.406 -0.7252 -0.0406 -0.8456
 3089SOL    HW210369   5.971   1.580   6.412  0.2953 -0.6496  0.2940
 3090SOL     OW10370   5.853   4.896   5.721  0.5818 -0.7008 -0.0744
 3090SOL    HW110371   5.771   4.929   5.686  0.4899 -1.4368 -0.5793
 3090SOL    HW210372   5.858   4.806   5.690  0.8609 -1.1470  1.1991
 3091SOL     OW10373   3.616   6.870   5.587 -0.1911 -0.3392  0.0079
 3091SOL    HW110374   3.539   6.911   5.549  0.0675 -0.3856 -0.5871
 3091SOL    HW210375   3.678   6.942   5.601 -0.9046 -0.0496  1.9812
 3092SOL     OW10376   1.557   2.199   0.634  0.3553 -0.1140  0.0360
 3092SOL    HW110377   1.647   2.180   0.608 -0.4776 -2.2413 -1.5541
 3092SOL    HW210378   1.522   2.115   0.664 -0.6584  0.9975  2.2190
 3093SOL     OW10379   8.694   7.338   4.130 -0.4485 -0.3124  0.5606
 3093SOL    HW110380   8.673   7.250   4.099 -2.1682  0.5032 -0.7312
 3093SOL    HW210381   8.637   7.351   4.206 -1.1063  0.1159  0.0057
 3094SOL     OW10382   6.193   6.789   2.957 -0.1484 -0.3110 -0.2165
 3094SOL    HW110383   6.191   6.883   2.974 -0.7098 -0.4471  0.5276
 3094SOL    HW210384   6.255   6.754   3.021  1.9413 -0.1736 -2.0643
 3095SOL     OW10385   7.868   6.500   8.437  0.3893 -0.1388  0.5014
 3095SOL    HW110386   7.834   6.480   8.524  0.9019  0.7355  0.9176
 3095SOL    HW210387   7.963   6.493   8.446  0.4614  0.2399  0.0802
 3096SOL     OW10388   0.161   0.055   0.390 -0.2130 -0.1936  0.4409
 3096SOL    HW110389   0.179   0.016   0.304 -1.3730 -1.8477  0.8868
 3096SOL    HW210390   0.167   0.149   0.376 -0.3350 -0.4339 -1.4426
 3097SOL     OW10391   6.150   8.548   2.458  0.2624 -0.3858 -0.1228
 3097SOL    HW110392   6.153   8.569   2.365  1.3613 -0.2301 -0.0756
 3097SOL    HW210393   6.233   8.503   2.475 -0.0332 -0.6359  0.7235
 3098SOL     OW10394   9.092   6.089   5.843 -0.7206  0.3409  0.4472
 3098SOL    HW110395   9.030   6.141   5.893 -1.0042  0.4295  0.0112
 3098SOL    HW210396   9.058   6.091   5.753  1.3356  2.7292 -0.4004
 3099SOL     OW10397   5.122   4.630   6.133 -0.3638  0.8138  0.4326
 3099SOL    HW110398   5.180   4.669   6.067 -0.9628 -0.0401 -0.6338
 3099SOL    HW210399   5.034   4.653   6.104 -0.6552 -0.0027  0.6490
 3100SOL     OW10400   9.049   0.581   6.846 -0.7058  0.9437  0.4252
 3100SOL    HW110401   9.140   0.608   6.857 -1.1547  1.9677  1.9971
 3100SOL    HW210402   9.053   0.486   6.840  0.3811  0.8399  2.0405
 3101SOL     OW10403   1.263   6.454   2.051  0.0462  0.1438  0.2640
 3101SOL    HW110404   1.332   6.495   1.999 -0.0793 -2.6380 -2.3890
 3101SOL    HW210405   1.309   6.396   2.111  0.0881  0.4738  0.5516
 3102SOL     OW10406   1.396   7.648   3.174  0.7467  0.0201  1.1335
 3102SOL    HW110407   1.477   7.619   3.131  0.0186 -1.4550  0.6722
 3102SOL    HW210408   1.355   7.707   3.112  0.7560 -0.4092  0.7093
 3103SOL     OW10409   6.043   1.998   0.072 -0.5819 -0.4794 -0.5701
 3103SOL    HW110410   6.073   1.944   0.145 -1.4004  0.2154  0.3095
 3103SOL    HW210411   5.953   1.969   0.056 -1.2021  0.9382  0.2436
 3104SOL     OW10412   4.639   3.273   8.605  0.1836 -0.0658  0.0280
 3104SOL    HW110413   4.678   3.348   8.649 -1.5226  0.0552  1.4539
 3104SOL    HW210414   4.552   3.303   8.578  0.3652 -0.8299 -1.4915
 3105SOL     OW10415   1.559   8.230   3.663 -0.0164  0.4645 -0.1508
 3105SOL    HW110416   1.474   8.206   3.701  0.2611 -1.1250 -0.4569
 3105SOL    HW210417   1.601   8.282   3.731 -0.7422  0.2090  0.5120
 3106SOL     OW10418   0.723   3.205   2.733  0.5370 -0.3642  0.0615
 3106SOL    HW110419   0.706   3.274   2.797  0.3437 -0.7751  0.4619
 3106SOL    HW210420   0.661   3.222   2.662  2.7723  1.9011 -1.5027
 3107SOL     OW10421   1.959   0.148   6.852  0.5493 -0.5454 -0.1356
 3107SOL    HW110422   2.005   0.185   6.776 -1.4650  0.2631 -1.0367
 3107SOL    HW210423   1.866   0.156   6.830 -0.0566 -2.4940  1.4161
 3108SOL     OW10424   5.694   4.851   6.192 -0.3067  0.2387  0.1646
 3108SOL    HW110425   5.749   4.823   6.264 -0.6310  1.6895  1.0271
 3108SOL    HW210426   5.637   4.776   6.174  1.0407 -0.8071  0.1265
 3109SOL     OW10427   5.383   5.653   4.322  0.4940 -0.0737 -0.2333
 3109SOL    HW110428   5.307   5.647   4.381  1.1939  0.8487  0.7847
 3109SOL    HW210429   5.457   5.668   4.380  1.1714  1.1380 -1.3733
 3110SOL     OW10430   6.806   6.145   4.418  0.1593 -0.5035  0.0966
 3110SOL    HW110431   6.848   6.200   4.485 -1.1014 -0.3389  0.7816
 3110SOL    HW210432   6.733   6.198   4.386  1.0002 -0.3888 -1.7832
 3111SOL     OW10433   3.152   0.385   3.707 -0.2134 -0.2439 -0.3282
 3111SOL    HW110434   3.169   0.397   3.800 -0.0594 -2.4689 -0.0061
 3111SOL    HW210435   3.227   0.426   3.663 -0.7689  1.6714  0.4478
 3112SOL     OW10436   4.281   7.494   4.345  0.2384 -0.0125 -0.0962
 3112SOL    HW110437   4.209   7.453   4.394 -0.4236  0.3527 -0.7387
 3112SOL    HW210438   4.247   7.503   4.256  0.9699  0.4560 -0.3361
 3113SOL     OW10439   8.968   2.952   4.996 -0.1135  0.2560 -0.2067
 3113SOL    HW110440   8.872   2.954   4.991 -0.1007 -0.2585 -0.7991
 3113SOL    HW210441   8.991   2.861   4.979  0.5692  0.7037 -1.8820
 3114SOL     OW10442   5.086   4.187   0.254 -0.3263 -0.1290 -0.1514
 3114SOL    HW110443   5.169   4.230   0.276  0.3945 -0.3050 -2.2824
 3114SOL    HW210444   5.019   4.242   0.292  0.7114  1.1251 -0.0778
 3115SOL     OW10445   4.198   0.185   4.499  0.5341  0.1193  0.3334
 3115SOL    HW110446   4.156   0.125   4.438 -0.7864  0.7518  0.5832
 3115SOL    HW210447   4.234   0.129   4.568 -0.5494 -0.4072  0.4897
 3116SOL     OW10448   8.321   1.951   0.077  0.1266 -0.8171 -0.2872
 3116SOL    HW110449   8.235   1.978   0.046  0.3117 -0.1689 -0.2426
 3116SOL    HW210450   8.321   1.856   0.068 -0.8061 -0.8769  0.2467
 3117SOL     OW10451   7.656   5.201   7.193 -0.0479  0.4533  0.1882
 3117SOL    HW110452   7.680   5.226   7.104 -0.4031  1.0838  0.2575
 3117SOL    HW210453   7.723   5.139   7.221  0.2407  0.5000 -0.4049
 3118SOL     OW10454   9.125   3.353   7.587 -0.5932 -0.0226  0.1214
 3118SOL    HW110455   9.158   3.264   7.596  1.9069  0.7154 -0.8219
 3118SOL    HW210456   9.061   3.348   7.516 -1.9924 -1.3596  1.3987
 3119SOL     OW10457   8.905   6.359   3.062 -0.0920  0.2921  0.3769
 3119SOL    HW110458   8.820   6.387   3.097 -0.5994 -0.2156 -0.4051
 3119SOL    HW210459   8.967   6.375   3.133 -0.8607  0.5780  0.9980
 3120SOL     OW10460   7.908   1.549   0.259 -0.1097 -0.2894 -0.6132
 3120SOL    HW110461   7.820   1.521   0.286 -0.5652  0.9718 -0.7131
 3120SOL    HW210462   7.905   1.547   0.164 -0.9407  2.2326 -0.7212
 3121SOL     OW10463   7.028   4.962   8.371 -0.1919 -0.1559  0.1665
 3121SOL    HW110464   7.039   4.869   8.390 -0.3093 -0.3173 -0.5204
 3121SOL    HW210465   7.081   5.007   8.437 -0.3048 -0.7019  0.6317
 3122SOL     OW10466   5.184   4.030   6.622  0.0315 -0.3858  0.0946
 3122SOL    HW110467   5.178   3.993   6.534  3.5661 -0.1321 -0.3634
 3122SOL    HW210468   5.143   4.116   6.614 -0.4419 -0.6950 -1.0718
 3123SOL     OW10469   4.424   3.438   0.685 -0.1697  0.2283  0.1812
 3123SOL    HW110470   4.357   3.505   0.701  0.3243  0.8281 -0.1910
 3123SOL    HW210471   4.499   3.488   0.654  0.4866 -0.4278  0.6953
 3124SOL     OW10472   7.648   6.772   0.545 -0.1638 -0.4468  0.0983
 3124SOL    HW110473   7.734   6.741   0.517 -0.3061  0.3134 -1.2742
 3124SOL    HW210474   7.621   6.710   0.614  0.4347 -2.1429 -1.1133
 3125SOL     OW10475   3.579   3.881   2.085  0.6045 -0.0896 -0.6597
 3125SOL    HW110476   3.658   3.827   2.074  1.3899  0.9148 -0.1275
 3125SOL    HW210477   3.606   3.951   2.144 -0.7575  0.1664 -0.3170
 3126SOL     OW10478   8.421   9.082   6.721 -0.6395 -0.7811  0.0111
 3126SOL    HW110479   8.368   9.101   6.799  0.7492 -0.6766  0.9761
 3126SOL    HW210480   8.510   9.074   6.755 -0.1365 -1.6960 -1.4547
 3127SOL     OW10481   8.248   8.174   1.231 -0.4647 -0.5352 -0.5761
 3127SOL    HW110482   8.299   8.235   1.177 -1.9982  0.8935 -0.4724
 3127SOL    HW210483   8.282   8.186   1.320 -1.9069  1.5273 -0.2435
 3128SOL     OW10484   3.807   8.440   8.041  0.1144  0.0046 -0.4705
 3128SOL    HW110485   3.857   8.514   8.075 -2.3535  1.6536 -0.1818
 3128SOL    HW210486   3.822   8.369   8.104  1.8495  0.4819 -0.2981
 3129SOL     OW10487   4.454   6.730   4.237 -0.1406 -0.4580  0.4647
 3129SOL    HW110488   4.517   6.674   4.191  0.8795 -0.2056  1.5172
 3129SOL    HW210489   4.370   6.687   4.223  0.0823 -0.3332 -1.7414
 3130SOL     OW10490   8.905   0.885   6.431  0.5218 -0.0614 -0.1730
 3130SOL    HW110491   8.945   0.879   6.518 -4.0310 -0.0343  2.2395
 3130SOL    HW210492   8.875   0.796   6.412 -0.2639  0.3104 -0.7399
 3131SOL     OW10493   1.115   1.064   6.839 -0.1175 -0.5149 -0.0888
 3131SOL    HW110494   1.056   1.136   6.858 -0.0939 -0.9249  1.6460
 3131SOL    HW210495   1.201   1.104   6.831 -0.4895  0.0012 -2.0237
 3132SOL     OW10496   2.076   5.647   4.182 -0.1071  0.5404  0.3139
 3132SOL    HW110497   2.073   5.736   4.216  3.0913  1.0414 -0.4213
 3132SOL    HW210498   2.091   5.592   4.259 -0.4601  0.8092  0.5755
 3133SOL     OW10499   7.193   3.477   1.433 -0.2606 -0.4312  0.1705
 3133SOL    HW110500   7.260   3.447   1.495  1.2962  1.0985 -0.6978
 3133SOL    HW210501   7.194   3.410   1.364  2.1958  0.7148 -1.0524
 3134SOL     OW10502   1.375   7.565   4.217  1.1097 -0.3696  0.1988
 3134SOL    HW110503   1.461   7.589   4.251 -0.0225  0.3617  2.7961
 3134SOL    HW210504   1.341   7.646   4.178  0.5146  0.1466  1.7217
 3135SOL     OW10505   9.053   0.217   3.690  0.3119  0.3295  0.5376
 3135SOL    HW110506   8.971   0.238   3.645  0.0056  1.0987  1.3970
 3135SOL    HW210507   9.028   0.157   3.760  0.1890  1.7062  1.7365
 3136SOL     OW10508   1.261   5.254   2.884 -0.2669 -0.0683  0.6299
 3136SOL    HW110509   1.213   5.187   2.836  0.0603 -0.4289  0.8060
 3136SOL    HW210510   1.242   5.236   2.976 -1.2499  0.8871  0.6386
 3137SOL     OW10511   6.682   4.328   7.521  0.7264 -0.3255 -0.6659
 3137SOL    HW110512   6.697   4.238   7.493 -0.7794 -0.4510 -1.1378
 3137SOL    HW210513   6.668   4.377   7.440  0.2703  0.0832 -0.3493
 3138SOL     OW10514   0.166   5.067   1.942  0.5261  0.2094  0.3277
 3138SOL    HW110515   0.174   4.998   1.876 -0.2761  1.7174 -1.4292
 3138SOL    HW210516   0.152   5.020   2.024 -0.0643 -1.7086 -0.8151
 3139SOL     OW10517   2.550   8.221   3.600  0.0907  0.5013  0.4408
 3139SOL    HW110518   2.513   8.157   3.540  1.7072  2.4054 -2.8336
 3139SOL    HW210519   2.637   8.186   3.620 -0.0566  0.3843  0.8983
 3140SOL     OW10520   0.140   7.889   6.020  0.2497 -0.3399  0.1845
 3140SOL    HW110521   0.061   7.862   6.067 -0.6381  1.2577 -0.3160
 3140SOL    HW210522   0.149   7.827   5.948 -0.2453 -0.8434  0.5513
 3141SOL     OW10523   1.157   8.355   2.787 -0.2958  0.4104 -0.1548
 3141SOL    HW110524   1.106   8.431   2.815  0.7567  1.2895 -0.5301
 3141SOL    HW210525   1.109   8.319   2.713 -0.4432  1.1648 -0.4430
 3142SOL     OW10526   7.356   6.085   4.480 -0.0567 -0.5918 -0.6011
 3142SOL    HW110527   7.273   6.120   4.447  0.8188  0.7693 -1.5118
 3142SOL    HW210528   7.392   6.156   4.533  0.6897 -1.0285 -0.5113
 3143SOL     OW10529   6.375   0.647   2.947 -0.3717  0.1683  0.0592
 3143SOL    HW110530   6.332   0.694   3.019  0.6946 -1.1806  1.6453
 3143SOL    HW210531   6.308   0.643   2.878 -1.4590  1.4218  0.9827
 3144SOL     OW10532   8.943   3.794   6.736 -0.7951  0.1699  0.4295
 3144SOL    HW110533   8.917   3.813   6.646 -0.0818 -1.1167 -0.0735
 3144SOL    HW210534   9.015   3.855   6.753 -0.1254 -0.4019 -0.3121
 3145SOL     OW10535   4.401   3.606   7.704  0.2093  0.0604  0.2370
 3145SOL    HW110536   4.332   3.618   7.769  1.1811  0.9923  1.1601
 3145SOL    HW210537   4.410   3.692   7.663  1.6503  0.3261  1.0360
 3146SOL     OW10538   1.917   6.036   6.186  0.5401  0.1045  0.2690
 3146SOL    HW110539   1.889   6.009   6.099  0.7172 -0.3544  0.3504
 3146SOL    HW210540   1.836   6.061   6.231  0.3020 -0.8191  0.3667
 3147SOL     OW10541   4.086   8.610   1.352 -0.2076 -0.2103 -0.2719
 3147SOL    HW110542   4.030   8.681   1.321  0.0805 -0.5159 -1.5903
 3147SOL    HW210543   4.027   8.538   1.369 -0.3966  0.0302  0.1059
 3148SOL     OW10544   5.507   0.281   4.627  0.8221  0.7550  0.5905
 3148SOL    HW110545   5.429   0.337   4.622 -1.1360 -1.7971  0.1330
 3148SOL    HW210546   5.574   0.330   4.579 -0.8542  2.5119 -0.1460
 3149SOL     OW10547   5.695   2.597   7.441 -0.1843 -0.1975 -0.2686
 3149SOL    HW110548   5.697   2.670   7.503 -0.4935 -2.1054  2.1516
 3149SOL    HW210549   5.739   2.630   7.364  1.3741  1.9444  1.4076
 3150SOL     OW10550   3.893   1.415   1.305 -0.4679 -0.1031  0.4959
 3150SOL    HW110551   3.909   1.456   1.220 -1.1160  1.7656  1.2436
 3150SOL    HW210552   3.980   1.401   1.342 -0.0326 -2.7813 -1.2244
 3151SOL     OW10553   6.298   4.888   7.963 -0.0281 -0.1553 -0.0192
 3151SOL    HW110554   6.242   4.868   7.888  1.9749 -1.2875 -1.3183
 3151SOL    HW210555   6.378   4.837   7.947  1.2314  1.1010  1.8937
 3152SOL     OW10556   7.501   1.071   1.292 -0.0534  0.9986  0.4087
 3152SOL    HW110557   7.554   1.012   1.346  0.0334  1.0824  0.4143
 3152SOL    HW210558   7.525   1.050   1.202 -0.1832  0.8729  0.4026
 3153SOL     OW10559   5.858   7.156   4.864  0.1876  0.1792 -0.2098
 3153SOL    HW110560   5.798   7.207   4.919 -1.0111 -0.2081 -1.1208
 3153SOL    HW210561   5.844   7.066   4.890  0.9282  0.1398  0.0793
 3154SOL     OW10562   8.355   8.186   6.392 -0.1668  0.0276  0.0655
 3154SOL    HW110563   8.289   8.255   6.381 -0.0748  0.1143  0.0646
 3154SOL    HW210564   8.320   8.112   6.343  0.5001  0.5793 -1.2968
 3155SOL     OW10565   8.942   1.945   4.293 -0.5721  0.4346 -0.0369
 3155SOL    HW110566   8.867   1.897   4.327 -0.5317  0.5746  0.2507
 3155SOL    HW210567   8.952   1.914   4.203 -1.9185  1.5349 -0.5970
 3156SOL     OW10568   0.819   6.919   7.157  0.3728  0.3024  0.3982
 3156SOL    HW110569   0.733   6.927   7.114  0.2584 -0.1524  0.5350
 3156SOL    HW210570   0.816   6.984   7.228  1.3012  2.4722 -1.4324
 3157SOL     OW10571   6.697   8.525   0.347 -0.4115 -0.1283 -0.3954
 3157SOL    HW110572   6.682   8.586   0.276 -0.6931  0.2903  0.0193
 3157SOL    HW210573   6.639   8.554   0.417 -1.1742 -1.3577 -0.4853
 3158SOL     OW10574   6.111   4.558   8.110 -0.4594  0.0845  0.1257
 3158SOL    HW110575   6.152   4.541   8.025  0.3835 -0.0481  0.5583
 3158SOL    HW210576   6.182   4.552   8.173 -1.1830 -0.3525  0.9132
 3159SOL     OW10577   5.976   6.443   1.071  0.1914  0.0041  0.0423
 3159SOL    HW110578   5.911   6.453   1.141  1.0140  0.2457  0.8013
 3159SOL    HW210579   6.028   6.524   1.075  1.5139 -0.8329  0.5145
 3160SOL     OW10580   2.890   6.641   9.058  0.6543 -0.4312  0.0191
 3160SOL    HW110581   2.967   6.642   9.115  0.1791  2.3394  0.7554
 3160SOL    HW210582   2.896   6.722   9.008 -1.1700 -0.7479 -0.8050
 3161SOL     OW10583   3.074   4.758   1.930  0.0751  0.2432 -0.5127
 3161SOL    HW110584   3.125   4.799   1.860  1.4347 -0.1266  0.2300
 3161SOL    HW210585   3.121   4.677   1.950 -0.7900 -0.1000  0.2272
 3162SOL     OW10586   6.494   8.397   5.121  0.1113  0.4666 -0.2388
 3162SOL    HW110587   6.504   8.483   5.162  0.1985 -0.5086  1.8921
 3162SOL    HW210588   6.406   8.369   5.145 -0.4219  0.4626 -2.0260
 3163SOL     OW10589   0.000   1.248   4.374  0.2936 -0.3684  0.2204
 3163SOL    HW110590  -0.070   1.191   4.405  1.5690 -2.1567 -0.0326
 3163SOL    HW210591   0.012   1.312   4.445 -1.0383 -0.5066  0.5976
 3164SOL     OW10592   3.109   7.257   4.144  0.3783 -0.8840 -0.2536
 3164SOL    HW110593   3.044   7.239   4.076  0.7996 -0.8453 -0.6640
 3164SOL    HW210594   3.112   7.176   4.196  1.6197 -1.7332 -1.5666
 3165SOL     OW10595   7.179   5.099   8.545 -0.3366 -0.3326  0.3172
 3165SOL    HW110596   7.239   5.110   8.619 -0.1455 -0.0534  0.1216
 3165SOL    HW210597   7.178   5.184   8.502 -0.6319 -0.4267  0.1353
 3166SOL     OW10598   1.692   2.025   8.355  0.5093 -0.2274 -0.4967
 3166SOL    HW110599   1.704   2.097   8.417 -0.2877 -0.1224 -0.4477
 3166SOL    HW210600   1.674   1.949   8.410  0.0409 -0.1837 -0.5829
 3167SOL     OW10601   4.416   0.850   5.233  0.8058 -0.1728 -0.4961
 3167SOL    HW110602   4.452   0.819   5.316 -1.0552 -1.6131 -0.1686
 3167SOL    HW210603   4.441   0.783   5.170  1.1343  0.2767 -0.8466
 3168SOL     OW10604   8.153   5.122   0.409  0.4608 -0.1549 -0.1642
 3168SOL    HW110605   8.248   5.118   0.392  0.8103 -1.0304  1.7921
 3168SOL    HW210606   8.138   5.056   0.477 -1.1779  1.5910  1.2442
 3169SOL     OW10607   5.334   3.276   8.944  0.2109 -0.3452  0.3663
 3169SOL    HW110608   5.255   3.240   8.904 -0.8089  1.2735  0.8347
 3169SOL    HW210609   5.350   3.219   9.019 -1.0562 -0.1833  0.7865
 3170SOL     OW10610   7.486   2.221   4.242  0.0919  0.1031 -0.2982
 3170SOL    HW110611   7.400   2.230   4.200 -0.1667  0.0859  0.2263
 3170SOL    HW210612   7.546   2.267   4.183 -0.3247  0.3933 -0.5036
 3171SOL     OW10613   0.807   4.338   0.062  0.1869  0.1074 -0.0177
 3171SOL    HW110614   0.867   4.401   0.102  0.5230 -0.4495  0.3675
 3171SOL    HW210615   0.723   4.384   0.057  0.3502  0.4742  0.5553
 3172SOL     OW10616   5.981   7.695   4.621  0.0999 -0.0143 -0.1813
 3172SOL    HW110617   6.069   7.719   4.650  0.2636 -0.6836 -0.0995
 3172SOL    HW210618   5.962   7.755   4.550  1.1739 -0.7358 -1.1105
 3173SOL     OW10619   0.793   2.109   8.451  0.8412 -0.1614  0.4208
 3173SOL    HW110620   0.795   2.176   8.382 -1.7754 -1.5561 -1.1575
 3173SOL    HW210621   0.705   2.072   8.447  0.8525 -0.9884  3.9546
 3174SOL     OW10622   1.599   0.888   7.409  0.2099 -0.3499  1.0146
 3174SOL    HW110623   1.512   0.906   7.372  0.4158 -0.9368  0.2124
 3174SOL    HW210624   1.659   0.930   7.348  0.4875  0.1659  1.6415
 3175SOL     OW10625   6.524   7.439   6.521 -0.1084  0.1012  0.0359
 3175SOL    HW110626   6.572   7.398   6.593  2.6092  2.0004 -0.5066
 3175SOL    HW210627   6.463   7.499   6.564 -0.4848 -0.7789  0.7581
 3176SOL     OW10628   3.904   3.871   1.285  0.0014 -0.6281 -0.2672
 3176SOL    HW110629   3.964   3.881   1.211  2.9175 -1.3622  1.8366
 3176SOL    HW210630   3.899   3.777   1.299 -1.2638 -0.5459 -0.0355
 3177SOL     OW10631   4.452   3.874   7.621  0.9716 -0.0069  0.0897
 3177SOL    HW110632   4.363   3.901   7.641  1.2674  0.7791  0.3864
 3177SOL    HW210633   4.501   3.956   7.611  1.6501 -0.4222 -0.1091
 3178SOL     OW10634   6.116   6.845   1.595 -0.2466  0.4189  0.4538
 3178SOL    HW110635   6.194   6.846   1.650 -0.5899  1.7167  0.9591
 3178SOL    HW210636   6.044   6.859   1.657 -1.0495 -2.0742  0.1954
 3179SOL     OW10637   6.453   1.973   2.624  0.2709  0.0893 -0.3773
 3179SOL    HW110638   6.438   1.922   2.544  1.9218  0.4728 -0.9684
 3179SOL    HW210639   6.389   1.938   2.687  0.6780 -2.0184 -1.0561
 3180SOL     OW10640   7.362   6.129   1.117 -0.3404  0.4725 -0.3594
 3180SOL    HW110641   7.457   6.124   1.112 -0.2958  0.4381  0.3528
 3180SOL    HW210642   7.344   6.219   1.144 -0.2288 -0.5979  4.1194
 3181SOL     OW10643   6.204   0.947   1.653  0.5858 -0.0374  0.0346
 3181SOL    HW110644   6.257   0.904   1.719  0.8731  1.2685  0.6681
 3181SOL    HW210645   6.263   1.008   1.610  0.1260 -0.1060 -0.7171
 3182SOL     OW10646   6.135   0.102   5.300 -0.1750  0.3931  0.1562
 3182SOL    HW110647   6.050   0.090   5.342 -0.0950 -1.9781 -0.2347
 3182SOL    HW210648   6.118   0.089   5.207  0.2890  1.9761 -0.1754
 3183SOL     OW10649   3.453   8.144   6.642 -0.4192  0.2829 -0.0735
 3183SOL    HW110650   3.366   8.154   6.681  0.2300  2.6118  0.9355
 3183SOL    HW210651   3.446   8.186   6.556 -0.2865  0.5167  0.0289
 3184SOL     OW10652   4.075   3.554   3.991 -0.4896  0.4303 -0.4029
 3184SOL    HW110653   4.092   3.601   4.073 -1.1706  2.0008 -1.1392
 3184SOL    HW210654   4.128   3.598   3.926 -0.2333 -0.5878 -0.9076
 3185SOL     OW10655   5.340   2.782   9.038  0.0460 -0.5694  0.4097
 3185SOL    HW110656   5.309   2.766   8.948  2.9153  1.7510 -1.1660
 3185SOL    HW210657   5.431   2.752   9.037  1.1562  2.4189  1.4636
 3186SOL     OW10658   8.844   4.413   6.210  0.2396  0.8335 -0.0461
 3186SOL    HW110659   8.813   4.325   6.229 -0.9056  0.4463 -3.1475
 3186SOL    HW210660   8.766   4.469   6.221  0.4816  1.1645  0.0044
 3187SOL     OW10661   1.461   5.099   7.816 -0.2955 -0.5883 -0.1002
 3187SOL    HW110662   1.366   5.090   7.817 -0.3349 -0.2234 -0.4312
 3187SOL    HW210663   1.481   5.132   7.728  0.0800 -0.0377  0.1884
 3188SOL     OW10664   2.715   7.159   1.170 -0.3404  0.5275 -0.2683
 3188SOL    HW110665   2.736   7.215   1.096  0.8199  1.1570  0.5043
 3188SOL    HW210666   2.707   7.071   1.133  3.8983  0.1426 -0.6986
 3189SOL     OW10667   7.238   0.453   0.740 -0.5663 -0.3301 -0.0500
 3189SOL    HW110668   7.209   0.442   0.830 -2.1700 -0.8095 -0.5860
 3189SOL    HW210669   7.215   0.543   0.718  0.2239 -0.0762  0.1471
 3190SOL     OW10670   7.375   1.404   4.231 -0.4506  0.7425  0.4723
 3190SOL    HW110671   7.312   1.374   4.165  0.4646  1.0135 -0.5450
 3190SOL    HW210672   7.362   1.499   4.235 -2.5665  0.4523  2.8815
 3191SOL     OW10673   6.841   1.781   1.001 -0.5709  0.2766  0.6500
 3191SOL    HW110674   6.794   1.830   1.068 -1.8253 -1.5065  1.1657
 3191SOL    HW210675   6.902   1.726   1.050  1.3219  1.7321  0.0453
 3192SOL     OW10676   6.246   7.720   1.630 -0.6229 -0.2559  0.2332
 3192SOL    HW110677   6.215   7.644   1.679  0.0303 -2.8121 -2.9038
 3192SOL    HW210678   6.339   7.728   1.654 -0.7341 -0.3394  0.6981
 3193SOL     OW10679   5.552   3.747   0.472 -0.6161 -0.2698  0.2827
 3193SOL    HW110680   5.584   3.685   0.537  0.2616 -0.9518 -0.7822
 3193SOL    HW210681   5.616   3.818   0.473  1.3902 -1.8644 -2.2038
 3194SOL     OW10682   6.365   8.269   1.852 -0.1496 -0.2623  0.1933
 3194SOL    HW110683   6.349   8.194   1.910  1.3314  0.3742  1.4989
 3194SOL    HW210684   6.459   8.265   1.833 -0.5574 -0.3439 -2.0817
 3195SOL     OW10685   5.884   1.913   7.177 -0.0129  0.4735 -0.0611
 3195SOL    HW110686   5.789   1.909   7.167 -0.2148  0.9407  1.3696
 3195SOL    HW210687   5.911   1.822   7.183 -0.7953  0.3404  2.5722
 3196SOL     OW10688   0.468   7.069   4.152  0.3044 -0.7429 -0.2879
 3196SOL    HW110689   0.471   6.977   4.177  1.1281 -0.9871 -1.2381
 3196SOL    HW210690   0.374   7.088   4.142  0.0902 -1.2642  0.6385
 3197SOL     OW10691   1.266   6.978   1.099 -0.7182  0.1859 -0.2368
 3197SOL    HW110692   1.268   6.892   1.057  0.7667 -0.7351  1.5713
 3197SOL    HW210693   1.349   7.018   1.074 -1.2739  1.0074 -0.8255
 3198SOL     OW10694   8.910   8.058   4.693  0.5382 -0.0521 -0.2620
 3198SOL    HW110695   8.819   8.084   4.685  0.2442 -0.0467  2.4485
 3198SOL    HW210696   8.907   7.963   4.708  0.9109  0.0785  0.6749
 3199SOL     OW10697   8.372   1.871   4.182 -0.4323 -0.3283 -0.6505
 3199SOL    HW110698   8.282   1.899   4.196 -0.3476 -0.2201 -0.3216
 3199SOL    HW210699   8.394   1.819   4.259  0.6274  1.7760  0.5413
 3200SOL     OW10700   2.917   8.566   2.731  0.2039 -0.6327  0.4867
 3200SOL    HW110701   2.867   8.484   2.732  1.6478 -1.5450 -0.0200
 3200SOL    HW210702   2.942   8.580   2.823  0.9248 -1.3771  0.4072
 3201SOL     OW10703   5.678   8.553   3.877  0.0825 -0.2492 -0.3155
 3201SOL    HW110704   5.606   8.544   3.939  1.6230 -1.7363  1.3785
 3201SOL    HW210705   5.654   8.497   3.803 -0.8619 -0.0639 -0.1551
 3202SOL     OW10706   7.317   5.746   6.095  0.2286  0.0995  0.9699
 3202SOL    HW110707   7.330   5.691   6.018 -0.5253  2.1060 -0.6962
 3202SOL    HW210708   7.405   5.775   6.120  0.3900  0.2699  0.2072
 3203SOL     OW10709   2.502   1.380   8.252  0.0095  0.4943 -0.1732
 3203SOL    HW110710   2.474   1.398   8.163  1.6991 -1.7370 -1.2450
 3203SOL    HW210711   2.481   1.288   8.267 -0.0094  0.7534  1.6638
 3204SOL     OW10712   4.673   0.759   6.228 -0.3275  0.4255  0.2206
 3204SOL    HW110713   4.667   0.798   6.140  0.1393 -1.4306 -0.6882
 3204SOL    HW210714   4.606   0.691   6.228  0.8157 -0.7266  0.6733
 3205SOL     OW10715   6.122   7.555   3.322 -0.1807  0.0093  0.4437
 3205SOL    HW110716   6.027   7.563   3.319 -0.1994  0.4417 -4.0206
 3205SOL    HW210717   6.147   7.601   3.402 -3.5870  1.8536  0.6291
 3206SOL     OW10718   4.404   6.323   5.003  0.5496 -0.2331  0.0045
 3206SOL    HW110719   4.340   6.252   5.002 -1.4573  1.4734  0.6609
 3206SOL    HW210720   4.434   6.330   4.912 -0.2765 -1.0067 -0.3388
 3207SOL     OW10721   9.052   4.490   3.405 -0.5463 -0.6964 -0.3208
 3207SOL    HW110722   9.134   4.496   3.355 -0.5198  1.2485 -0.1288
 3207SOL    HW210723   8.984   4.499   3.339 -0.5215  0.9263 -0.1751
 3208SOL     OW10724   2.369   2.884   7.012 -0.3045  0.3517 -0.1084
 3208SOL    HW110725   2.301   2.897   6.946 -1.8135  2.8342  1.7419
 3208SOL    HW210726   2.322   2.860   7.091  1.4206 -2.1875  0.2568
 3209SOL     OW10727   1.012   3.236   0.886  0.2611  0.2108 -0.3525
 3209SOL    HW110728   1.051   3.282   0.960  2.2158 -1.1325 -0.4925
 3209SOL    HW210729   1.052   3.276   0.808 -1.5238  1.3811 -0.7276
 3210SOL     OW10730   2.107   5.950   2.322  0.0542 -0.1878 -0.1625
 3210SOL    HW110731   2.168   6.012   2.362 -0.5876  0.1191  0.3736
 3210SOL    HW210732   2.127   5.866   2.362  0.2598 -0.1248 -0.1344
 3211SOL     OW10733   0.059   5.701   6.171 -0.4984  0.4053  0.3581
 3211SOL    HW110734  -0.000   5.758   6.122 -0.6650 -1.3979 -1.7242
 3211SOL    HW210735   0.032   5.613   6.146 -0.0151 -0.6157  3.1547
 3212SOL     OW10736   1.824   6.643   8.549 -0.4279 -0.4673 -0.2146
 3212SOL    HW110737   1.843   6.736   8.554 -0.1172 -0.4396 -1.5659
 3212SOL    HW210738   1.746   6.631   8.604 -1.3590  0.8411 -1.1851
 3213SOL     OW10739   8.837   4.873   8.293  0.3525 -0.9079 -0.5838
 3213SOL    HW110740   8.923   4.832   8.304  0.6086 -0.5312 -1.1346
 3213SOL    HW210741   8.775   4.799   8.294  0.6676 -1.1705 -0.0720
 3214SOL     OW10742   1.211   6.185   5.106 -0.1590 -0.3323 -0.1724
 3214SOL    HW110743   1.233   6.241   5.032  0.4447  0.3156  0.4792
 3214SOL    HW210744   1.220   6.242   5.183 -0.8918 -0.9533  0.3951
 3215SOL     OW10745   5.075   1.355   8.508 -0.0900 -0.0800 -0.0775
 3215SOL    HW110746   5.147   1.301   8.476  0.6403  0.1483  1.1272
 3215SOL    HW210747   5.116   1.439   8.531 -1.1734  0.9806 -1.7741
 3216SOL     OW10748   5.570   8.210   1.594  0.1116 -0.2236 -0.6950
 3216SOL    HW110749   5.662   8.219   1.569  0.9209  1.1163  2.3172
 3216SOL    HW210750   5.558   8.117   1.612  2.2343  0.0515  3.0408
 3217SOL     OW10751   8.785   2.218   6.311  0.0334 -0.4994 -0.1058
 3217SOL    HW110752   8.721   2.172   6.258  0.8545  0.5945 -2.2029
 3217SOL    HW210753   8.765   2.311   6.297  1.0964 -0.1684  0.4332
 3218SOL     OW10754   8.605   6.646   0.645  0.2963  0.2852 -0.5542
 3218SOL    HW110755   8.582   6.739   0.634 -0.6050  0.1706  0.2251
 3218SOL    HW210756   8.695   6.647   0.676 -0.3945  1.0377  1.6103
 3219SOL     OW10757   6.563   0.424   7.095 -0.3733 -0.7280  0.4132
 3219SOL    HW110758   6.605   0.377   7.023 -0.4042 -0.6376  0.3365
 3219SOL    HW210759   6.633   0.476   7.134 -0.7553  0.7474 -0.7813
 3220SOL     OW10760   0.431   0.201   2.648 -0.3876  0.1216 -0.9616
 3220SOL    HW110761   0.477   0.264   2.592 -0.6371  0.5161 -0.7274
 3220SOL    HW210762   0.377   0.255   2.706 -0.3916 -0.2962 -0.5683
 3221SOL     OW10763   6.074   3.180   6.999  0.3081  0.6677 -0.6324
 3221SOL    HW110764   5.982   3.184   7.024  0.5669  1.2448  0.2566
 3221SOL    HW210765   6.122   3.210   7.076  1.2950 -0.3829 -0.7956
 3222SOL     OW10766   0.018   0.333   6.951  0.4460 -0.1104  0.1259
 3222SOL    HW110767   0.089   0.398   6.954  0.5726 -0.0631 -2.1363
 3222SOL    HW210768   0.061   0.253   6.919 -0.6406  0.2092 -2.3370
 3223SOL     OW10769   1.611   6.604   0.564 -0.1258 -0.2082 -0.1468
 3223SOL    HW110770   1.664   6.674   0.527 -0.5817 -0.3720 -1.1478
 3223SOL    HW210771   1.633   6.527   0.512  0.5032 -0.8579  1.0643
 3224SOL     OW10772   4.398   9.050   3.246  0.0878 -0.1618 -0.1808
 3224SOL    HW110773   4.393   8.960   3.279 -0.2984  0.0211  0.2720
 3224SOL    HW210774   4.441   9.042   3.161  2.7177 -0.4892  1.0687
 3225SOL     OW10775   1.494   1.754   2.164 -0.2319  0.5154  0.0300
 3225SOL    HW110776   1.493   1.825   2.100 -0.2738  0.3169 -0.1905
 3225SOL    HW210777   1.426   1.693   2.134 -0.1337  0.3359  0.1657
 3226SOL     OW10778   0.011   7.473   7.318 -0.0976  0.5507 -0.1174
 3226SOL    HW110779  -0.037   7.397   7.284 -1.1820  0.5694  1.2887
 3226SOL    HW210780  -0.015   7.478   7.410  1.1741  1.7067  0.1955
 3227SOL     OW10781   1.115   5.740   0.878  0.4139  0.1137  0.1875
 3227SOL    HW110782   1.156   5.820   0.845  0.1765 -0.0517 -0.5337
 3227SOL    HW210783   1.055   5.713   0.808 -1.0766  0.4507  1.2792
 3228SOL     OW10784   2.685   5.612   8.395  0.0846  0.5160  0.0468
 3228SOL    HW110785   2.692   5.697   8.353 -0.5880  0.4617 -0.1802
 3228SOL    HW210786   2.599   5.611   8.435 -0.1113 -0.2354 -0.3602
 3229SOL     OW10787   4.199   6.667   6.297  0.3235 -0.0008 -0.3636
 3229SOL    HW110788   4.195   6.707   6.384  0.0900  0.4061 -0.5588
 3229SOL    HW210789   4.281   6.699   6.259  1.9590 -2.4904  0.8074
 3230SOL     OW10790   3.224   4.707   7.885 -0.1653 -0.6035 -0.3493
 3230SOL    HW110791   3.156   4.756   7.839 -0.5836 -1.1594 -0.3215
 3230SOL    HW210792   3.298   4.708   7.824 -1.4288 -3.2898 -2.1062
 3231SOL     OW10793   4.056   3.390   5.335  0.1485 -0.3277 -0.1758
 3231SOL    HW110794   3.966   3.384   5.305 -0.1928 -0.7941  0.9082
 3231SOL    HW210795   4.082   3.300   5.353 -0.1656  0.0069  2.3187
 3232SOL     OW10796   3.229   6.226   0.357  0.1022 -0.3985 -0.2609
 3232SOL    HW110797   3.177   6.199   0.282 -2.7580 -0.4325  1.5991
 3232SOL    HW210798   3.208   6.319   0.369  1.6392 -0.0088 -0.2906
 3233SOL     OW10799   2.256   2.196   5.137 -0.3837  0.1502  0.5678
 3233SOL    HW110800   2.222   2.241   5.214  0.9787  2.9566 -0.3537
 3233SOL    HW210801   2.349   2.218   5.135  0.2726 -2.3571 -0.2726
 3234SOL     OW10802   6.098   7.065   2.309 -0.0471  0.3648 -0.1421
 3234SOL    HW110803   6.055   7.075   2.395  0.6011  1.7417  0.0435
 3234SOL    HW210804   6.099   7.153   2.272  2.2996  0.3381 -0.2855
 3235SOL     OW10805   2.724   4.295   7.805 -0.1190  0.6147  0.3953
 3235SOL    HW110806   2.787   4.364   7.826  0.6451 -0.1438  0.6580
 3235SOL    HW210807   2.761   4.252   7.728 -1.1769  1.2081 -0.4709
 3236SOL     OW10808   4.480   6.603   0.893 -0.2861 -0.1235  0.5223
 3236SOL    HW110809   4.490   6.675   0.830  1.2940 -0.1377  0.7302
 3236SOL    HW210810   4.552   6.544   0.873 -1.0493 -1.2128  0.9486
 3237SOL     OW10811   8.219   2.726   3.269 -0.3514 -0.6179  0.2059
 3237SOL    HW110812   8.290   2.725   3.332  0.8134  0.4520 -1.0341
 3237SOL    HW210813   8.258   2.761   3.189 -2.0033 -1.0490 -0.8423
 3238SOL     OW10814   4.437   0.008   4.570  0.1929  0.1445  0.8643
 3238SOL    HW110815   4.395  -0.068   4.610 -0.7401  0.2711  0.1640
 3238SOL    HW210816   4.470   0.059   4.645  0.5231 -0.7615  1.3521
 3239SOL     OW10817   2.078   7.723   5.214  0.1932  0.5641  0.5481
 3239SOL    HW110818   2.095   7.757   5.126 -1.7072  0.8590  0.2484
 3239SOL    HW210819   2.160   7.681   5.240  1.3084  1.8599 -0.7064
 3240SOL     OW10820   2.179   4.829   3.424 -0.3529 -0.1463 -0.7319
 3240SOL    HW110821   2.167   4.805   3.516 -0.4732  0.1775 -0.6630
 3240SOL    HW210822   2.138   4.915   3.416 -0.4375 -0.2220 -1.1143
 3241SOL     OW10823   5.781   5.921   2.349  0.0639 -0.0409 -0.4491
 3241SOL    HW110824   5.837   5.998   2.346  1.2348 -0.8626 -0.0554
 3241SOL    HW210825   5.694   5.956   2.370 -0.0907  1.4911 -3.1859
 3242SOL     OW10826   8.629   6.017   6.815 -0.2638 -0.3221  0.2477
 3242SOL    HW110827   8.585   6.008   6.730 -0.4221  0.2251  0.2700
 3242SOL    HW210828   8.686   5.941   6.820 -1.0309 -0.9215  0.1165
 3243SOL     OW10829   5.264   4.138   5.464  0.2146 -0.4715  0.1151
 3243SOL    HW110830   5.307   4.063   5.423  0.6801 -0.5019  0.6429
 3243SOL    HW210831   5.336   4.195   5.491  0.0051 -0.9652  1.8484
 3244SOL     OW10832   3.449   8.796   0.840 -0.4109 -0.6001  0.1182
 3244SOL    HW110833   3.375   8.766   0.892 -0.7958  0.5968  0.2923
 3244SOL    HW210834   3.449   8.891   0.850 -0.7676 -0.2579 -2.4240
 3245SOL     OW10835   3.765   5.302   2.667 -0.4747  0.2336 -0.1076
 3245SOL    HW110836   3.784   5.390   2.634  0.3978  0.1805  0.2276
 3245SOL    HW210837   3.789   5.244   2.594 -0.0543  0.2142  0.0428
 3246SOL     OW10838   7.629   3.787   1.849 -0.0631 -0.1135 -0.4041
 3246SOL    HW110839   7.663   3.785   1.938 -0.2731 -0.4337 -0.3295
 3246SOL    HW210840   7.567   3.714   1.845 -0.9014  0.5791 -0.4744
 3247SOL     OW10841   1.973   1.732   6.098 -0.0766  0.2540  0.2940
 3247SOL    HW110842   1.891   1.774   6.122 -0.1702  0.3884 -0.2652
 3247SOL    HW210843   2.027   1.740   6.176 -1.5257 -2.2607  1.7025
 3248SOL     OW10844   2.677   9.088   8.054  0.4022  0.3112  0.0927
 3248SOL    HW110845   2.661   9.177   8.085  2.2777  0.2397  1.3644
 3248SOL    HW210846   2.711   9.041   8.130  0.8895 -1.0947 -0.9500
 3249SOL     OW10847   6.273   1.494   0.225  0.1362  0.2310 -0.2425
 3249SOL    HW110848   6.362   1.491   0.190  0.4118  1.1741  0.3336
 3249SOL    HW210849   6.230   1.417   0.189  1.7445 -1.3210  0.9766
 3250SOL     OW10850   6.564   7.129   7.944 -0.1130  0.4053 -0.0799
 3250SOL    HW110851   6.558   7.149   8.038  0.3142  1.3167 -0.2444
 3250SOL    HW210852   6.632   7.187   7.911 -1.2581  1.1319 -1.2462
 3251SOL     OW10853   1.670   5.993   3.740 -0.3297  0.0528 -0.1956
 3251SOL    HW110854   1.658   5.944   3.659 -0.7323  1.0329 -0.7484
 3251SOL    HW210855   1.761   6.023   3.737 -0.8434  1.6462 -1.2142
 3252SOL     OW10856   5.905   3.304   4.319 -0.4379 -0.2311 -0.2435
 3252SOL    HW110857   5.876   3.386   4.278  0.3323  0.4283  0.5073
 3252SOL    HW210858   5.940   3.330   4.404  3.0924 -0.8312 -1.3642
 3253SOL     OW10859   0.953   7.080   0.093 -0.4235 -0.6028  0.8545
 3253SOL    HW110860   0.991   7.101   0.008 -1.5940 -0.0285  0.4610
 3253SOL    HW210861   0.858   7.085   0.080 -0.6283 -0.6738  2.1464
 3254SOL     OW10862   7.043   8.597   6.061  0.4405 -0.3489  0.1726
 3254SOL    HW110863   6.957   8.556   6.052  0.9577 -0.9548 -3.5090
 3254SOL    HW210864   7.095   8.533   6.110 -1.0624 -0.0812  2.2226
 3255SOL     OW10865   7.534   1.476   1.003  0.3104  0.0727  0.0936
 3255SOL    HW110866   7.469   1.439   1.063 -1.5204  1.2042 -1.0991
 3255SOL    HW210867   7.582   1.539   1.057  0.0511 -0.3441  0.8413
 3256SOL     OW10868   0.266   6.861   3.624 -0.6170  0.2285 -0.4425
 3256SOL    HW110869   0.222   6.946   3.620 -0.6437  0.2765  0.5036
 3256SOL    HW210870   0.359   6.882   3.616 -0.6679  0.2788 -0.9040
 3257SOL     OW10871   5.892   1.322   8.920 -0.1200  0.6012  0.3191
 3257SOL    HW110872   5.957   1.254   8.906 -2.3666 -1.5335 -0.5504
 3257SOL    HW210873   5.904   1.383   8.847  0.8973  0.2718  0.2059
 3258SOL     OW10874   8.292   5.571   4.468 -0.1432 -0.3690  0.0972
 3258SOL    HW110875   8.353   5.497   4.466  0.2538 -0.1058  1.3346
 3258SOL    HW210876   8.348   5.648   4.455 -0.5616 -0.2585 -1.2455
 3259SOL     OW10877   1.613   4.966   7.523  0.0556 -0.2254  0.8688
 3259SOL    HW110878   1.682   4.946   7.460 -0.6855 -1.7575  0.5135
 3259SOL    HW210879   1.566   4.884   7.535 -1.8608  0.8237  0.9514
 3260SOL     OW10880   3.315   3.792   6.828 -0.3408 -0.4532 -0.0448
 3260SOL    HW110881   3.324   3.698   6.846 -2.5846 -0.7828 -0.4333
 3260SOL    HW210882   3.295   3.797   6.735  1.6165  0.5958 -0.4606
 3261SOL     OW10883   0.507   8.868   0.530 -0.1705  0.4776  0.6744
 3261SOL    HW110884   0.490   8.810   0.604 -1.3819 -1.1552 -0.8009
 3261SOL    HW210885   0.441   8.937   0.538 -2.0231 -1.0966 -0.2331
 3262SOL     OW10886   7.395   4.867   5.449  0.5846  0.1192  0.1189
 3262SOL    HW110887   7.321   4.846   5.506 -0.4627  1.7115 -0.5705
 3262SOL    HW210888   7.378   4.956   5.420  1.8016 -0.1616 -1.6080
 3263SOL     OW10889   0.958   3.014   7.390  0.4158 -0.1544  0.0527
 3263SOL    HW110890   0.949   2.928   7.431  0.0790  0.3264  1.0135
 3263SOL    HW210891   0.946   2.997   7.296  2.9017 -1.5383 -0.0907
 3264SOL     OW10892   4.921   4.278   2.433 -0.6848  0.2474 -0.0195
 3264SOL    HW110893   4.883   4.239   2.354  2.0499  0.9554 -1.8302
 3264SOL    HW210894   4.932   4.204   2.493 -1.4108 -0.6006 -0.9017
 3265SOL     OW10895   3.360   0.773   1.222 -0.7382 -0.5576 -0.6338
 3265SOL    HW110896   3.338   0.814   1.305 -0.8603 -0.8237 -0.5320
 3265SOL    HW210897   3.454   0.786   1.212 -0.7336 -0.4758 -0.4796
 3266SOL     OW10898   7.733   5.710   0.687 -0.5343  0.1226 -0.0384
 3266SOL    HW110899   7.713   5.804   0.689 -0.2476  0.1751  0.7362
 3266SOL    HW210900   7.755   5.688   0.778 -1.5744 -0.9070 -0.0099
 3267SOL     OW10901   5.013   0.775   7.579 -0.3704 -0.1733  0.4025
 3267SOL    HW110902   5.041   0.747   7.666  2.6074  2.4697  0.4898
 3267SOL    HW210903   5.095   0.785   7.529 -1.9487 -1.4500 -2.7326
 3268SOL     OW10904   4.950   7.183   6.096  0.0626  0.5948  1.3118
 3268SOL    HW110905   4.967   7.100   6.141  1.0869 -0.5090 -0.9605
 3268SOL    HW210906   4.855   7.192   6.097 -0.1236 -1.0594  0.8586
 3269SOL     OW10907   7.230   9.121   5.667 -0.0217  0.8585  0.3296
 3269SOL    HW110908   7.156   9.111   5.727 -1.1285 -0.4676 -1.1740
 3269SOL    HW210909   7.226   9.212   5.638 -2.8228  0.1568 -1.8331
 3270SOL     OW10910   5.143   7.671   4.130  0.4004  0.0233 -0.3455
 3270SOL    HW110911   5.124   7.667   4.037  0.9778 -1.7117 -0.4319
 3270SOL    HW210912   5.224   7.621   4.140 -0.5920 -1.3877  1.2925
 3271SOL     OW10913   1.132   7.005   6.624  0.1674 -0.4066  0.1224
 3271SOL    HW110914   1.155   6.924   6.577 -0.3412 -0.1067 -0.6695
 3271SOL    HW210915   1.136   6.981   6.716 -0.5496 -1.5066 -0.1077
 3272SOL     OW10916   4.865   8.820   5.877  0.6576  0.3970 -0.2782
 3272SOL    HW110917   4.788   8.871   5.851  0.0458 -1.1825 -1.7322
 3272SOL    HW210918   4.929   8.835   5.808  0.8725  0.0918 -0.1496
 3273SOL     OW10919   4.190   1.362   2.680 -0.1846  0.2369  0.1242
 3273SOL    HW110920   4.196   1.280   2.632 -1.9661 -0.2313  0.6698
 3273SOL    HW210921   4.185   1.429   2.611  0.6856 -0.1176 -0.3132
 3274SOL     OW10922   0.553   4.559   3.588  0.3169 -0.5540  0.3684
 3274SOL    HW110923   0.601   4.525   3.512  0.0716  0.5549 -0.3149
 3274SOL    HW210924   0.597   4.641   3.609 -1.3706  0.6297 -0.4355
 3275SOL     OW10925   3.462   2.447   2.051 -0.1273 -0.0691 -0.2521
 3275SOL    HW110926   3.394   2.438   2.119  0.1366  1.0271  0.1793
 3275SOL    HW210927   3.437   2.384   1.984 -0.1140 -1.5690  1.0849
 3276SOL     OW10928   2.383   9.059   1.437 -0.1222 -0.6827  0.5095
 3276SOL    HW110929   2.382   9.060   1.532 -0.2516 -0.6742  0.5088
 3276SOL    HW210930   2.311   9.117   1.412  0.4809  0.0290  0.4030
 3277SOL     OW10931   8.540   3.534   2.221 -0.6599 -0.4945 -0.4005
 3277SOL    HW110932   8.603   3.548   2.292 -0.2844 -1.6621 -0.4769
 3277SOL    HW210933   8.582   3.570   2.143 -0.9276  0.4836 -0.1081
 3278SOL     OW10934   5.157   7.503   7.766 -0.1201 -0.1515  0.0073
 3278SOL    HW110935   5.203   7.562   7.826  0.8551 -1.1196  0.2353
 3278SOL    HW210936   5.192   7.526   7.679  2.0509 -1.9132  0.3224
 3279SOL     OW10937   4.226   3.598   2.155 -0.2069 -0.1649 -0.4596
 3279SOL    HW110938   4.316   3.600   2.187 -0.6590  0.7374  0.8337
 3279SOL    HW210939   4.234   3.586   2.060  1.2337 -1.0480 -0.2628
 3280SOL     OW10940   5.785   0.214   0.238  0.4563 -0.0015  0.5193
 3280SOL    HW110941   5.833   0.188   0.317  0.1066  0.4780  0.8922
 3280SOL    HW210942   5.826   0.296   0.212 -1.0689  1.1829  1.6671
 3281SOL     OW10943   3.333   0.247   8.408  0.2326  0.0659  0.1835
 3281SOL    HW110944   3.283   0.316   8.451  0.2625  0.6728 -0.7265
 3281SOL    HW210945   3.424   0.269   8.427  0.2992  0.9668 -1.0870
 3282SOL     OW10946   2.811   7.335   7.946 -0.3514 -0.2740 -0.2257
 3282SOL    HW110947   2.815   7.288   7.862 -1.9439 -1.4554  0.3151
 3282SOL    HW210948   2.888   7.392   7.945 -0.2263 -0.3990 -2.4053
 3283SOL     OW10949   0.515   2.980   2.499 -0.2028  0.1482  0.2984
 3283SOL    HW110950   0.446   3.032   2.541 -0.8203  0.1937 -0.7534
 3283SOL    HW210951   0.596   3.016   2.534 -0.6783  0.6168  0.9530
 3284SOL     OW10952   7.167   1.321   1.918  0.2122 -0.0676 -0.0399
 3284SOL    HW110953   7.254   1.345   1.948  1.0228 -0.9516 -1.5366
 3284SOL    HW210954   7.149   1.237   1.960 -0.7886  1.0185  1.8044
 3285SOL     OW10955   3.225   5.047   5.963 -0.2452 -0.0572  0.3776
 3285SOL    HW110956   3.237   5.127   6.014 -1.7976 -0.7945  1.9958
 3285SOL    HW210957   3.165   5.072   5.893  0.6657  0.5830 -0.2024
 3286SOL     OW10958   8.468   8.997   4.930 -0.5098  0.3258  0.4257
 3286SOL    HW110959   8.450   8.962   5.018 -0.9908  0.1781  0.2714
 3286SOL    HW210960   8.545   9.052   4.941  0.8990 -1.5439  0.5182
 3287SOL     OW10961   1.584   2.178   1.589  0.0529 -0.0814 -0.1861
 3287SOL    HW110962   1.603   2.095   1.633 -0.3186  0.8227  1.8339
 3287SOL    HW210963   1.515   2.217   1.643  2.4777  3.0018  0.9316
 3288SOL     OW10964   8.212   1.762   6.564  0.2842 -0.0343 -0.0372
 3288SOL    HW110965   8.253   1.825   6.505 -1.6032  1.5522  0.2696
 3288SOL    HW210966   8.129   1.740   6.522  0.1618 -1.0266  0.6861
 3289SOL     OW10967   3.099   4.404   5.889  0.9912  0.0199 -0.0731
 3289SOL    HW110968   3.194   4.412   5.876  1.0793  0.3159  0.7488
 3289SOL    HW210969   3.062   4.442   5.809  1.5405  1.7123  0.4363
 3290SOL     OW10970   2.900   5.101   3.686 -0.2593  0.3390 -0.9406
 3290SOL    HW110971   2.830   5.043   3.655  1.0411 -2.5279  1.0695
 3290SOL    HW210972   2.981   5.058   3.658  0.7864  1.2239  0.5706
 3291SOL     OW10973   1.064   8.727   7.115  0.3909  0.3334 -0.3514
 3291SOL    HW110974   1.157   8.716   7.095  0.4986  1.9142 -0.8940
 3291SOL    HW210975   1.027   8.763   7.034 -0.7691 -0.5422 -0.2376
 3292SOL     OW10976   0.952   3.364   7.165  0.3058  0.4845  0.4278
 3292SOL    HW110977   0.949   3.411   7.081  2.8618 -2.3053 -1.4155
 3292SOL    HW210978   0.860   3.344   7.183 -0.3614  1.3676 -1.6027
 3293SOL     OW10979   6.936   2.144   0.271  0.4915  0.1592  0.1814
 3293SOL    HW110980   6.910   2.196   0.195  2.3044  0.0597 -0.5564
 3293SOL    HW210981   7.028   2.166   0.284  0.5966 -0.9373  1.4628
 3294SOL     OW10982   4.623   4.892   3.320 -0.4874 -0.2275  0.0748
 3294SOL    HW110983   4.548   4.948   3.298  0.1675 -0.0415 -1.9188
 3294SOL    HW210984   4.611   4.814   3.265  0.3543 -0.5488  0.3380
 3295SOL     OW10985   5.343   8.425   0.526 -0.2120  0.1641 -0.3147
 3295SOL    HW110986   5.410   8.383   0.472 -0.5649  0.0514 -0.6714
 3295SOL    HW210987   5.276   8.358   0.538 -1.3146  0.9225 -1.8268
 3296SOL     OW10988   1.727   0.463   3.769  0.3104  0.5073  0.2352
 3296SOL    HW110989   1.659   0.434   3.829 -0.3428 -3.0419 -1.9229
 3296SOL    HW210990   1.808   0.425   3.803  0.8561  2.5125  1.3462
 3297SOL     OW10991   1.476   8.366   0.441 -0.0727  0.2025 -0.4747
 3297SOL    HW110992   1.411   8.322   0.495  1.7852  0.0683  1.8325
 3297SOL    HW210993   1.484   8.311   0.363 -1.4529 -0.7163 -0.0040
 3298SOL     OW10994   4.399   4.399   0.465  0.0637  0.3652  0.4173
 3298SOL    HW110995   4.483   4.400   0.509 -0.2821  2.3457  1.1465
 3298SOL    HW210996   4.416   4.356   0.381  1.5456 -0.1784  0.9655
 3299SOL     OW10997   1.863   6.607   4.892 -0.2298 -0.0649 -0.2087
 3299SOL    HW110998   1.939   6.606   4.949 -1.4650  0.1311  1.5086
 3299SOL    HW210999   1.886   6.669   4.823  0.9249  0.4439  0.6029
 3300SOL     OW11000   8.501   0.924   7.113 -0.1433  0.2677 -0.0806
 3300SOL    HW111001   8.569   0.950   7.051 -0.5697  0.6593 -0.3808
 3300SOL    HW211002   8.421   0.917   7.061 -0.1771 -1.0666  0.0922
 3301SOL     OW11003   5.855   4.407   4.352  0.2887 -0.1451  0.6391
 3301SOL    HW111004   5.849   4.475   4.285 -1.9463 -0.2955  0.6212
 3301SOL    HW211005   5.803   4.440   4.425 -1.2338 -1.9865  0.4584
 3302SOL     OW11006   6.001   2.717   4.692 -0.1160  0.2712  0.0976
 3302SOL    HW111007   5.937   2.787   4.683 -0.8104 -0.5752 -2.2442
 3302SOL    HW211008   6.063   2.731   4.621 -0.1611 -1.3700 -0.3119
 3303SOL     OW11009   4.899   4.076   5.583 -0.3465 -0.0183 -0.1559
 3303SOL    HW111010   4.918   4.099   5.492  0.5717 -1.0785 -0.2526
 3303SOL    HW211011   4.979   4.101   5.630 -0.4921 -0.2575  0.2165
 3304SOL     OW11012   8.903   5.691   1.822 -0.0073  0.2007  0.3887
 3304SOL    HW111013   8.893   5.638   1.742  2.4764 -1.1304  0.8418
 3304SOL    HW211014   8.921   5.627   1.891 -0.5167  1.4358  1.7057
 3305SOL     OW11015   0.880   6.272   5.195  0.1871 -0.5889  0.7641
 3305SOL    HW111016   0.927   6.309   5.270 -0.7105 -0.4008  1.2375
 3305SOL    HW211017   0.875   6.178   5.215 -0.1008 -0.5303  0.9636
 3306SOL     OW11018   8.620   6.272   1.681 -0.0032  0.4561  0.2011
 3306SOL    HW111019   8.645   6.190   1.724  0.7995  0.8526  0.5078
 3306SOL    HW211020   8.681   6.280   1.608 -0.4594  0.4976 -0.1844
 3307SOL     OW11021   1.812   4.199   3.020  0.1286 -0.2875  0.1966
 3307SOL    HW111022   1.863   4.236   2.949  2.0258 -1.1470  1.0419
 3307SOL    HW211023   1.722   4.229   3.004  0.8742  1.2573 -1.3514
 3308SOL     OW11024   6.853   2.055   7.566 -0.6867  0.4639 -0.1075
 3308SOL    HW111025   6.878   1.978   7.515 -0.8120 -0.5859  1.3653
 3308SOL    HW211026   6.917   2.059   7.637 -1.9481  0.4226  1.0814
 3309SOL     OW11027   8.222   0.200   1.171  0.3797 -0.5552  0.7138
 3309SOL    HW111028   8.197   0.160   1.088 -0.7503 -0.7583  1.1353
 3309SOL    HW211029   8.311   0.169   1.186  1.2183  0.7636 -1.1817
 3310SOL     OW11030   4.204   1.139   0.996  0.1751  0.2428 -0.2240
 3310SOL    HW111031   4.174   1.129   0.906 -1.8918  0.1394  0.4385
 3310SOL    HW211032   4.186   1.231   1.018 -2.3227 -0.4436  1.0270
 3311SOL     OW11033   7.948   1.426   2.100 -0.0080  0.5335 -0.6470
 3311SOL    HW111034   7.984   1.360   2.041  0.7050  0.8858 -0.6143
 3311SOL    HW211035   8.024   1.475   2.130 -0.4245  0.7078  0.1394
 3312SOL     OW11036   3.773   2.055   2.870  0.4547  0.1446 -0.3239
 3312SOL    HW111037   3.820   2.130   2.832 -0.8255  0.4640 -1.3396
 3312SOL    HW211038   3.715   2.094   2.935  0.8066 -0.1300  0.1573
 3313SOL     OW11039   6.659   1.881   4.349  0.3000  0.5633  0.1409
 3313SOL    HW111040   6.620   1.962   4.380 -0.9469  0.9237 -2.1808
 3313SOL    HW211041   6.751   1.887   4.376  0.0484  2.3590  0.7110
 3314SOL     OW11042   8.052   8.159   5.104  0.4237 -0.1344  0.1631
 3314SOL    HW111043   8.082   8.110   5.028 -2.5496  1.2907 -2.1585
 3314SOL    HW211044   8.034   8.093   5.171  0.9119 -1.6786 -1.1956
 3315SOL     OW11045   4.975   8.221   3.359 -0.8941 -0.3533 -0.2446
 3315SOL    HW111046   4.981   8.172   3.277 -2.3378  0.2299 -0.7316
 3315SOL    HW211047   4.906   8.286   3.344  0.0091  0.9367  0.8466
 3316SOL     OW11048   7.146   7.970   8.822 -1.1315  0.4521  0.4687
 3316SOL    HW111049   7.169   7.887   8.779 -1.1109  0.7588 -0.1155
 3316SOL    HW211050   7.122   8.028   8.750 -0.4643  1.1750  0.8217
 3317SOL     OW11051   4.651   7.822   5.893 -0.5134 -0.3819 -0.1530
 3317SOL    HW111052   4.582   7.804   5.957  0.6359  0.8967  1.5326
 3317SOL    HW211053   4.730   7.785   5.932  0.0003 -0.8037 -1.5121
 3318SOL     OW11054   3.543   3.772   1.313  0.0482  0.5742 -0.4521
 3318SOL    HW111055   3.614   3.814   1.361 -0.6231  0.4815  0.6564
 3318SOL    HW211056   3.579   3.757   1.226  1.5198  0.1711  0.1962
 3319SOL     OW11057   2.020   7.185   2.815  0.3302 -0.6296 -0.1416
 3319SOL    HW111058   2.115   7.177   2.803  0.2617 -2.9097  0.2632
 3319SOL    HW211059   1.983   7.116   2.760 -1.0767 -0.0405  0.0263
 3320SOL     OW11060   0.375   0.889   5.665 -0.1741 -0.3313  0.3563
 3320SOL    HW111061   0.350   0.959   5.604 -1.0897  0.6774  1.8493
 3320SOL    HW211062   0.294   0.842   5.683  0.0720 -0.5700  0.8634
 3321SOL     OW11063   1.696   0.015   9.074 -0.0644 -0.3012  0.1761
 3321SOL    HW111064   1.605   0.005   9.048  0.4515 -0.5177 -1.7909
 3321SOL    HW211065   1.697   0.092   9.131 -1.3151  0.4274 -0.7365
 3322SOL     OW11066   3.577   3.779   8.764 -0.0100  0.7647  0.2492
 3322SOL    HW111067   3.650   3.727   8.731  0.7765  2.6758 -1.2542
 3322SOL    HW211068   3.567   3.752   8.855  2.1406 -0.0447  0.3099
 3323SOL     OW11069   6.925   2.699   7.555 -0.2508  0.0530 -0.0821
 3323SOL    HW111070   6.829   2.707   7.552 -0.3599 -0.2084  1.6527
 3323SOL    HW211071   6.953   2.772   7.610  0.3453 -1.0002  1.0585
 3324SOL     OW11072   3.094   4.426   2.626  0.3448 -0.0628  0.2623
 3324SOL    HW111073   3.098   4.510   2.671 -0.0934 -0.4707  1.0878
 3324SOL    HW211074   3.051   4.367   2.689 -1.1035 -0.4379 -1.0244
 3325SOL     OW11075   1.151   6.839   5.441  0.0476  0.1237 -0.4827
 3325SOL    HW111076   1.240   6.825   5.410  0.1441 -0.1785 -0.0771
 3325SOL    HW211077   1.147   6.932   5.462 -0.2708  0.5187 -2.1892
 3326SOL     OW11078   8.049   2.053   4.730  0.3185  0.3644 -0.3855
 3326SOL    HW111079   8.045   2.011   4.644 -2.0150 -1.0358  0.3203
 3326SOL    HW211080   8.055   1.981   4.793 -0.5077  1.2213  0.7221
 3327SOL     OW11081   3.497   3.218   4.957 -0.2262  0.1303  0.1780
 3327SOL    HW111082   3.570   3.156   4.951 -0.5521 -0.2782  0.4289
 3327SOL    HW211083   3.420   3.167   4.934 -0.0851  1.3249 -3.5440
 3328SOL     OW11084   2.875   2.469   1.588 -0.6998 -0.4375  0.2051
 3328SOL    HW111085   2.801   2.530   1.592 -0.3891  0.0266 -0.7973
 3328SOL    HW211086   2.879   2.442   1.497  0.0858 -0.8104  0.3428
 3329SOL     OW11087   4.462   1.524   2.804  0.4361  0.8215 -0.4887
 3329SOL    HW111088   4.417   1.443   2.777  0.8632  0.3993  0.0348
 3329SOL    HW211089   4.468   1.517   2.899 -1.0972  2.3131 -0.2548
 3330SOL     OW11090   2.884   8.954   4.405 -0.2544  0.0582 -0.0168
 3330SOL    HW111091   2.954   8.962   4.340 -2.2498  0.8475 -2.2057
 3330SOL    HW211092   2.920   8.896   4.472  2.1587 -0.2441 -1.4565
 3331SOL     OW11093   6.889   0.404   0.659  0.3702  0.2007 -0.3230
 3331SOL    HW111094   6.957   0.337   0.665 -1.4716 -1.7624  0.4372
 3331SOL    HW211095   6.828   0.382   0.730 -1.2789  1.5545 -1.2315
 3332SOL     OW11096   5.434   0.760   9.091 -0.3816 -0.0914 -0.1768
 3332SOL    HW111097   5.501   0.757   9.159 -1.0989  0.3286  0.5740
 3332SOL    HW211098   5.475   0.722   9.013  1.0123  0.9956  0.0036
 3333SOL     OW11099   7.342   2.847   3.292  0.0097  0.4676 -0.6419
 3333SOL    HW111100   7.411   2.834   3.226  0.2462  1.1730 -0.5370
 3333SOL    HW211101   7.389   2.870   3.372 -0.3627  1.3489 -0.6691
 3334SOL     OW11102   7.705   1.910   0.538 -0.3686 -0.7278  0.3443
 3334SOL    HW111103   7.784   1.890   0.587 -0.1972  0.4964  0.5854
 3334SOL    HW211104   7.636   1.918   0.605 -0.0238  1.5158  0.5105
 3335SOL     OW11105   7.783   7.989   1.805 -0.1513 -0.3748 -0.2468
 3335SOL    HW111106   7.745   7.987   1.892  0.6240  2.8908  0.2837
 3335SOL    HW211107   7.877   8.002   1.820 -0.1284  1.1903 -1.5245
 3336SOL     OW11108   3.849   4.194   5.370  0.5202 -0.3793  0.8587
 3336SOL    HW111109   3.795   4.138   5.314  1.1814  0.8787 -1.1525
 3336SOL    HW211110   3.805   4.192   5.456 -0.5532 -2.3534  0.3164
 3337SOL     OW11111   2.969   6.935   7.311  1.0506  0.2666  0.2829
 3337SOL    HW111112   2.942   7.021   7.343 -1.0196  0.6549 -2.1658
 3337SOL    HW211113   2.906   6.874   7.351  1.4313  0.1205  0.6614
 3338SOL     OW11114   8.228   1.416   0.647 -0.3668 -0.2031  0.0711
 3338SOL    HW111115   8.189   1.346   0.700  0.1675 -0.7881 -0.2914
 3338SOL    HW211116   8.197   1.497   0.688 -1.7682 -0.6420 -0.0695
 3339SOL     OW11117   3.809   6.165   7.499 -0.8178  0.0789 -0.1027
 3339SOL    HW111118   3.796   6.188   7.590 -2.1576 -1.5564  0.1718
 3339SOL    HW211119   3.868   6.089   7.502  1.2234  1.5494 -0.7947
 3340SOL     OW11120   2.057   5.488   3.001  0.6498 -0.3020 -0.2020
 3340SOL    HW111121   2.000   5.417   3.032  2.5363 -1.5317  0.6458
 3340SOL    HW211122   2.004   5.533   2.935 -2.7998  1.1305  3.1677
 3341SOL     OW11123   4.372   8.651   2.186 -0.1881  0.0336 -0.5117
 3341SOL    HW111124   4.400   8.597   2.261  0.5509  0.5208 -0.4222
 3341SOL    HW211125   4.277   8.652   2.191 -0.1637 -0.3586  0.1279
 3342SOL     OW11126   2.283   2.970   5.906  0.3696  0.2685 -0.2126
 3342SOL    HW111127   2.299   3.064   5.909  0.6196  0.3164 -1.8229
 3342SOL    HW211128   2.318   2.936   5.988 -0.6842  1.6932  0.8749
 3343SOL     OW11129   6.909   1.919   1.713  0.5584  0.1442 -0.2311
 3343SOL    HW111130   6.943   2.008   1.724 -0.2966  0.7792 -2.1757
 3343SOL    HW211131   6.829   1.917   1.765  0.3166  0.7113 -0.5607
 3344SOL     OW11132   3.888   0.672   1.288  0.1992 -0.3503  0.0889
 3344SOL    HW111133   3.917   0.763   1.278 -3.2012  0.7870 -0.4995
 3344SOL    HW211134   3.853   0.668   1.377  1.6860 -1.6088  0.6707
 3345SOL     OW11135   2.892   8.964   5.640  0.5397  0.6820 -0.4180
 3345SOL    HW111136   2.845   8.884   5.617 -1.4816  0.9984  2.0537
 3345SOL    HW211137   2.856   9.031   5.582 -0.6469  0.5207  0.1114
 3346SOL     OW11138   8.524   2.765   7.529  0.0725  0.3145 -0.2185
 3346SOL    HW111139   8.609   2.773   7.572 -0.5128  1.2194  0.8186
 3346SOL    HW211140   8.491   2.680   7.557  2.0690 -1.7096 -3.3921
 3347SOL     OW11141   4.122   8.050   5.322  0.2286 -0.1003 -0.3101
 3347SOL    HW111142   4.080   7.968   5.294  0.8516 -0.8563  0.8630
 3347SOL    HW211143   4.213   8.024   5.339  0.3080  0.7198  0.5734
 3348SOL     OW11144   8.238   2.706   2.196  0.0933  0.0318  0.4228
 3348SOL    HW111145   8.318   2.677   2.241 -0.6194 -0.7244  1.2629
 3348SOL    HW211146   8.261   2.791   2.158  1.5516 -0.5602 -0.1049
 3349SOL     OW11147   7.103   4.651   1.696  0.0361  0.4450 -0.1592
 3349SOL    HW111148   7.175   4.594   1.668  0.5818  0.2038  1.6480
 3349SOL    HW211149   7.038   4.592   1.733  0.1820  0.8902  0.8376
 3350SOL     OW11150   4.260   7.531   5.580 -0.0385 -0.4634  0.5360
 3350SOL    HW111151   4.258   7.614   5.629  1.8984  0.1582 -0.3457
 3350SOL    HW211152   4.347   7.529   5.539 -1.7847 -0.4692 -3.6568
 3351SOL     OW11153   3.437   5.077   6.610  0.4073  0.0911 -0.0328
 3351SOL    HW111154   3.406   5.136   6.679  2.4787  0.2760  0.8382
 3351SOL    HW211155   3.448   5.134   6.533  2.2655  0.9162  0.7648
 3352SOL     OW11156   4.530   8.732   7.434  0.1820 -0.6161 -0.1283
 3352SOL    HW111157   4.551   8.803   7.373  0.5409 -2.3200 -2.1232
 3352SOL    HW211158   4.501   8.660   7.377  1.0079 -2.4854  1.6859
 3353SOL     OW11159   2.540   6.506   7.393 -0.2294  0.1792  0.1165
 3353SOL    HW111160   2.636   6.503   7.386  0.0287 -2.4865  2.7452
 3353SOL    HW211161   2.522   6.594   7.428  1.3666  0.3977  0.5090
 3354SOL     OW11162   3.266   1.190   6.970 -0.1855  0.0455  0.0224
 3354SOL    HW111163   3.247   1.270   6.922  0.2805  0.5653  0.6853
 3354SOL    HW211164   3.357   1.169   6.947 -0.0489  0.1476  0.4606
 3355SOL     OW11165   2.617   3.301   2.116 -0.1078  0.0286  0.2652
 3355SOL    HW111166   2.568   3.227   2.152 -1.8666  1.9208  2.0637
 3355SOL    HW211167   2.611   3.369   2.183  1.3432  1.8478 -1.3279
 3356SOL     OW11168   0.794   2.528   6.817  0.0443 -0.2631 -0.1526
 3356SOL    HW111169   0.742   2.475   6.757 -2.6887  0.3890  1.4511
 3356SOL    HW211170   0.836   2.463   6.875 -0.4871 -0.7812 -0.3334
 3357SOL     OW11171   8.144   1.586   3.210  0.2645 -0.9951  0.2629
 3357SOL    HW111172   8.122   1.534   3.287  0.2901 -0.2216  0.7941
 3357SOL    HW211173   8.232   1.619   3.227  0.1296 -0.5253  0.0616
 3358SOL     OW11174   0.055   5.737   8.236 -0.2033 -0.0106  0.0333
 3358SOL    HW111175   0.003   5.660   8.215 -0.3930 -0.3603  1.6566
 3358SOL    HW211176  -0.003   5.791   8.290  1.3467 -0.8227  2.6380
 3359SOL     OW11177   0.404   4.178   3.346  0.1622 -0.8699 -0.8426
 3359SOL    HW111178   0.342   4.233   3.297  0.6463 -0.1796 -0.7021
 3359SOL    HW211179   0.368   4.175   3.434  1.0084  0.6573 -0.4158
 3360SOL     OW11180   8.066   2.128   5.715 -0.1408  0.4026 -0.0041
 3360SOL    HW111181   8.100   2.039   5.702 -0.3415  0.4555 -0.9723
 3360SOL    HW211182   7.996   2.117   5.779  0.3388 -0.0176  0.4572
 3361SOL     OW11183   7.130   8.386   2.024 -0.2849 -0.0728  0.3386
 3361SOL    HW111184   7.132   8.341   1.939 -1.2091  0.6805 -0.1028
 3361SOL    HW211185   7.123   8.315   2.088 -0.5703 -0.6139 -0.2750
 3362SOL     OW11186   5.880   6.143   1.244  0.0671 -0.3367  0.2014
 3362SOL    HW111187   5.885   6.217   1.305 -1.3228 -0.2377  0.2269
 3362SOL    HW211188   5.786   6.128   1.232  0.3304 -2.2205  0.3133
 3363SOL     OW11189   8.045   8.506   7.004  0.2419 -0.2759 -0.3879
 3363SOL    HW111190   8.110   8.540   7.066 -0.0684 -0.4368  0.0352
 3363SOL    HW211191   7.961   8.533   7.042  0.0628 -0.0110 -0.9623
 3364SOL     OW11192   0.542   0.461   3.776  0.2304 -0.4890  0.2608
 3364SOL    HW111193   0.612   0.514   3.815  0.6045 -1.7092  1.3009
 3364SOL    HW211194   0.548   0.479   3.682 -1.5873  3.6560  0.6979
 3365SOL     OW11195   8.299   1.725   5.029  0.3009  0.0943  0.5374
 3365SOL    HW111196   8.299   1.652   5.091  0.7895  0.2254  0.6952
 3365SOL    HW211197   8.370   1.705   4.968 -0.5955 -0.3616 -0.3784
 3366SOL     OW11198   7.061   0.736   5.753 -0.7558  0.0446 -0.2189
 3366SOL    HW111199   7.011   0.785   5.818 -0.9818  0.8782 -1.0102
 3366SOL    HW211200   7.116   0.801   5.711  1.5579 -0.9317  1.0875
 3367SOL     OW11201   6.520   6.040   3.274 -0.9792 -0.4923  0.5822
 3367SOL    HW111202   6.461   6.111   3.299 -0.1593 -0.1353  1.5912
 3367SOL    HW211203   6.586   6.083   3.219 -2.4336 -1.1612 -1.8322
 3368SOL     OW11204   3.856   4.295   4.712 -0.4365 -0.0267 -0.8516
 3368SOL    HW111205   3.775   4.254   4.682  0.3881 -2.7486  0.3581
 3368SOL    HW211206   3.920   4.272   4.645  0.1550 -1.2490  0.1076
 3369SOL     OW11207   4.953   0.768   9.115 -0.3162  0.4995  0.4644
 3369SOL    HW111208   4.909   0.736   9.193  0.4828 -1.9957  0.0000
 3369SOL    HW211209   5.047   0.763   9.136 -0.0863 -0.2472 -0.6169
 3370SOL     OW11210   1.312   7.041   3.131  0.2966  1.1328  0.1233
 3370SOL    HW111211   1.330   7.134   3.147  0.8189  0.9383  0.6826
 3370SOL    HW211212   1.217   7.033   3.143  0.4586  1.2778  1.7923
 3371SOL     OW11213   9.005   7.272   5.031 -0.4298  0.2913  0.0457
 3371SOL    HW111214   8.999   7.326   4.951  1.7473  0.2773 -0.2057
 3371SOL    HW211215   9.095   7.238   5.029 -1.2795 -2.2051  0.9550
 3372SOL     OW11216   1.329   0.427   7.686 -0.0823  0.3347 -0.2113
 3372SOL    HW111217   1.350   0.376   7.764 -1.5709 -1.4559 -0.8896
 3372SOL    HW211218   1.376   0.382   7.615 -1.2134  0.0063 -0.7819
 3373SOL     OW11219   1.476   4.918   1.411 -0.3280  0.6006  0.0203
 3373SOL    HW111220   1.535   4.922   1.487 -0.1423  1.5517 -0.1515
 3373SOL    HW211221   1.520   4.972   1.345 -1.3515  1.2445 -0.1457
 3374SOL     OW11222   0.363   7.106   0.071 -0.0119 -0.0682  0.5390
 3374SOL    HW111223   0.274   7.104   0.106 -0.4375  4.2870  0.3593
 3374SOL    HW211224   0.416   7.141   0.142  0.4117  2.3489 -0.8311
 3375SOL     OW11225   2.748   6.220   0.686  0.0167 -0.0287 -0.1484
 3375SOL    HW111226   2.681   6.153   0.671  0.1768 -0.4491  0.9329
 3375SOL    HW211227   2.700   6.303   0.682 -0.0539 -0.1352 -2.2360
 3376SOL     OW11228   2.731   5.258   0.024  0.2374 -0.6761  0.0099
 3376SOL    HW111229   2.823   5.270   0.001  0.0762 -1.3356 -1.0295
 3376SOL    HW211230   2.716   5.164   0.017 -0.5087 -0.5771  0.1699
 3377SOL     OW11231   7.858   1.868   0.102  0.5047 -0.0357  0.5478
 3377SOL    HW111232   7.938   1.921   0.104  1.1333 -0.9547  3.0693
 3377SOL    HW211233   7.886   1.786   0.061  0.2320  0.4578 -0.6897
 3378SOL     OW11234   7.780   4.313   3.918  0.1458 -0.2932 -0.7674
 3378SOL    HW111235   7.690   4.282   3.904 -0.3191  0.5628  0.1917
 3378SOL    HW211236   7.770   4.394   3.968  1.4799 -0.3639 -0.3481
 3379SOL     OW11237   0.723   1.247   4.691 -0.0481  0.1394 -0.0220
 3379SOL    HW111238   0.648   1.295   4.726 -0.1548 -1.8282  2.7836
 3379SOL    HW211239   0.799   1.301   4.713 -0.4615  1.5321 -1.7642
 3380SOL     OW11240   7.093   6.902   4.915 -0.5414 -0.1360 -0.0770
 3380SOL    HW111241   7.148   6.852   4.975 -0.0095 -1.2137 -1.4213
 3380SOL    HW211242   7.008   6.908   4.960  0.3003  0.5595  1.5110
 3381SOL     OW11243   2.172   3.704   2.339  0.1066  0.2294  0.1808
 3381SOL    HW111244   2.159   3.647   2.263 -0.1533  2.6984 -1.7461
 3381SOL    HW211245   2.131   3.657   2.411 -1.7019 -1.2016 -1.6640
 3382SOL     OW11246   2.571   8.687   1.718 -0.4110  0.2148 -0.2703
 3382SOL    HW111247   2.606   8.773   1.741 -1.2215  1.1160 -2.2128
 3382SOL    HW211248   2.616   8.664   1.637 -0.9249 -0.7561 -0.2937
 3383SOL     OW11249   3.037   4.793   6.041  0.2198  0.4891 -0.2995
 3383SOL    HW111250   3.118   4.814   5.995 -0.0965 -1.3199 -1.8076
 3383SOL    HW211251   3.051   4.704   6.074 -0.8271  0.5019  0.2321
 3384SOL     OW11252   6.227   1.927   1.580  0.3344  0.1914  0.4473
 3384SOL    HW111253   6.218   1.991   1.509 -3.8018  0.1249  0.6654
 3384SOL    HW211254   6.262   1.849   1.538  0.4980  0.9594 -0.9127
 3385SOL     OW11255   6.332   4.996   7.270  0.6228 -0.3952  0.7337
 3385SOL    HW111256   6.386   5.040   7.204 -0.5272 -0.8950 -0.5791
 3385SOL    HW211257   6.318   5.062   7.337  0.2927  0.7449 -0.4107
 3386SOL     OW11258   6.757   2.367   6.674  0.5956 -0.1605 -0.0836
 3386SOL    HW111259   6.728   2.377   6.583 -0.8449 -0.1212  0.3530
 3386SOL    HW211260   6.782   2.275   6.681  0.1013 -0.3209 -0.3639
 3387SOL     OW11261   1.261   8.506   5.544  0.1424 -0.4499 -0.5557
 3387SOL    HW111262   1.261   8.433   5.606  0.0483 -0.5077 -0.6237
 3387SOL    HW211263   1.170   8.513   5.516  0.0850 -0.0859 -0.2890
 3388SOL     OW11264   2.899   1.466   8.440  0.0716  0.0725  0.7998
 3388SOL    HW111265   2.962   1.452   8.511  0.2545  1.0017  0.8333
 3388SOL    HW211266   2.863   1.553   8.456 -0.7734 -0.1977  0.4252
 3389SOL     OW11267   7.800   5.785   5.297 -1.2895  0.1548  0.5893
 3389SOL    HW111268   7.851   5.774   5.217 -0.7701  2.2065  0.5688
 3389SOL    HW211269   7.709   5.781   5.269 -1.1208 -0.4043  0.1135
 3390SOL     OW11270   0.493   4.711   1.070  0.2309 -0.1272 -0.0153
 3390SOL    HW111271   0.470   4.777   1.005  0.0909  1.1387  1.2803
 3390SOL    HW211272   0.553   4.756   1.130  1.1128 -1.5436  0.2158
 3391SOL     OW11273   9.071   3.017   2.573  0.3164 -0.4566  0.2976
 3391SOL    HW111274   9.052   2.923   2.571 -1.0546 -0.1843 -1.3479
 3391SOL    HW211275   8.994   3.056   2.614  0.8983 -0.0267  1.0175
 3392SOL     OW11276   2.944   5.880   1.179  0.6215 -0.2259 -0.1367
 3392SOL    HW111277   2.938   5.872   1.084  0.0864  2.2209 -0.3843
 3392SOL    HW211278   3.008   5.950   1.193  1.2071 -1.0044  1.3672
 3393SOL     OW11279   4.411   5.202   0.363  0.3926 -0.1085 -0.3183
 3393SOL    HW111280   4.471   5.223   0.435  0.6858 -0.7096 -0.3866
 3393SOL    HW211281   4.383   5.112   0.380 -0.3827  0.1087 -0.3727
 3394SOL     OW11282   0.156   1.409   6.552  0.0058 -0.6416  0.3920
 3394SOL    HW111283   0.069   1.372   6.562  1.0048 -3.0911  0.8054
 3394SOL    HW211284   0.214   1.333   6.551  2.2954  0.9534  1.7988
 3395SOL     OW11285   7.983   7.158   2.177  0.2891  0.0709  0.1143
 3395SOL    HW111286   7.956   7.077   2.134 -0.0069  0.7599 -1.0399
 3395SOL    HW211287   8.058   7.133   2.230 -0.2116 -1.0879  0.2964
 3396SOL     OW11288   3.239   7.060   0.375  0.1974  0.3637 -0.4315
 3396SOL    HW111289   3.280   7.098   0.453  1.1953 -1.5019  0.0116
 3396SOL    HW211290   3.234   6.966   0.395 -0.4627 -0.0083 -2.2185
 3397SOL     OW11291   5.590   5.080   7.886  0.4550 -0.0094 -0.2425
 3397SOL    HW111292   5.497   5.058   7.878  0.5981 -0.8120  0.1764
 3397SOL    HW211293   5.595   5.172   7.860 -0.3598 -0.1319 -0.9015
 3398SOL     OW11294   6.931   2.568   5.355  0.4505  0.5096  0.1078
 3398SOL    HW111295   6.916   2.488   5.406  0.0670 -0.4860 -1.4925
 3398SOL    HW211296   6.855   2.623   5.373 -0.4995 -0.5310 -0.6597
 3399SOL     OW11297   4.314   9.070   1.679 -0.1518 -0.6377  0.1957
 3399SOL    HW111298   4.246   9.120   1.724  1.1376  1.5675 -0.1425
 3399SOL    HW211299   4.272   9.037   1.600 -1.1686 -0.4737  0.6551
 3400SOL     OW11300   7.853   7.821   8.128 -0.3335  0.1965 -0.4582
 3400SOL    HW111301   7.777   7.873   8.155  0.7939  0.3628  2.8802
 3400SOL    HW211302   7.912   7.885   8.087  0.1530  1.2771  1.7358
 3401SOL     OW11303   0.670   1.566   6.258 -0.3494  0.2952 -0.0938
 3401SOL    HW111304   0.589   1.604   6.224 -1.7007 -1.6752  0.7281
 3401SOL    HW211305   0.646   1.528   6.342  0.8988 -2.1389 -0.7371
 3402SOL     OW11306   8.134   5.617   8.403 -0.0513 -0.3484  0.1264
 3402SOL    HW111307   8.064   5.637   8.465 -0.0722 -0.3741  0.1113
 3402SOL    HW211308   8.207   5.672   8.430  0.4040 -1.3754  1.0074
 3403SOL     OW11309   8.515   6.236   4.815 -0.0263 -0.2177  0.2267
 3403SOL    HW111310   8.605   6.268   4.811 -0.2026  0.1798 -1.7880
 3403SOL    HW211311   8.472   6.292   4.880  0.7882  0.7056 -0.0063
 3404SOL     OW11312   2.257   8.235   0.401  0.4270 -0.1419  0.0156
 3404SOL    HW111313   2.178   8.283   0.426  1.4743  1.2187  0.7839
 3404SOL    HW211314   2.272   8.174   0.473  0.1504 -0.3215 -0.0766
 3405SOL     OW11315   7.965   4.574   7.522  0.3315  0.2296 -0.0964
 3405SOL    HW111316   7.967   4.479   7.513  3.2434 -0.0195  1.7460
 3405SOL    HW211317   7.993   4.590   7.613 -0.4040  2.8488 -0.2448
 3406SOL     OW11318   0.728   1.025   0.582 -0.3139  0.3497 -0.1696
 3406SOL    HW111319   0.710   1.092   0.647  1.2823 -0.2157  0.9320
 3406SOL    HW211320   0.823   1.018   0.581 -0.2466  0.5913 -2.8760
 3407SOL     OW11321   3.872   1.137   1.585 -0.4198 -0.7195 -0.3677
 3407SOL    HW111322   3.808   1.195   1.626  1.6191  0.7311  0.9496
 3407SOL    HW211323   3.858   1.052   1.627 -0.6438 -0.0940  0.8714
 3408SOL     OW11324   5.847   4.367   6.804  0.3006  0.3018  0.1770
 3408SOL    HW111325   5.915   4.304   6.780  1.6601  1.0547  1.8201
 3408SOL    HW211326   5.776   4.352   6.741  2.6540  0.6588 -2.7833
 3409SOL     OW11327   6.187   5.668   1.435  0.5574 -0.3609  0.3394
 3409SOL    HW111328   6.216   5.584   1.400 -0.4516 -1.2712  1.6103
 3409SOL    HW211329   6.258   5.696   1.493  0.7257 -0.5170  0.2096
 3410SOL     OW11330   3.708   6.957   2.874  0.2381 -0.1462  0.0420
 3410SOL    HW111331   3.659   6.890   2.826  1.4322 -1.1076  0.1068
 3410SOL    HW211332   3.730   7.023   2.808  0.4711 -0.6450 -0.3873
 3411SOL     OW11333   7.688   4.519   9.110  0.0003 -0.0379  0.1021
 3411SOL    HW111334   7.598   4.490   9.120 -0.8988  2.3907 -0.2845
 3411SOL    HW211335   7.691   4.605   9.153  2.3357 -0.3807  0.7638
 3412SOL     OW11336   0.156   7.716   5.190  0.1414 -0.7416  0.1493
 3412SOL    HW111337   0.105   7.723   5.109 -0.0562 -1.2519  0.2213
 3412SOL    HW211338   0.137   7.796   5.238  0.0107 -0.5788 -0.1728
 3413SOL     OW11339   2.537   8.926   8.318 -0.1963 -0.1916 -0.0945
 3413SOL    HW111340   2.587   8.866   8.263  0.8656 -1.3565  2.0226
 3413SOL    HW211341   2.566   8.907   8.408  0.1517  3.3962  0.7184
 3414SOL     OW11342   5.551   1.209   8.241  0.6435 -0.3050 -0.2867
 3414SOL    HW111343   5.490   1.272   8.279 -0.6370 -2.1347  0.8582
 3414SOL    HW211344   5.632   1.220   8.291 -0.1715 -0.8203  1.2241
 3415SOL     OW11345   7.501   7.009   3.591 -0.0429 -0.6048  0.4579
 3415SOL    HW111346   7.541   6.948   3.529  0.1345 -0.5240  0.4938
 3415SOL    HW211347   7.426   6.960   3.627 -0.1987 -0.6198  0.1182
 3416SOL     OW11348   0.273   8.630   0.372 -0.0582 -0.1842 -0.2574
 3416SOL    HW111349   0.350   8.585   0.405 -0.9381 -0.8045  1.0262
 3416SOL    HW211350   0.251   8.695   0.439 -0.8884 -0.3043 -0.3919
 3417SOL     OW11351   2.238   4.360   2.226 -0.5391 -0.0785 -0.1695
 3417SOL    HW111352   2.296   4.434   2.243 -0.8338 -0.0865  0.9891
 3417SOL    HW211353   2.153   4.389   2.259 -0.8036 -0.6998 -0.2866
 3418SOL     OW11354   2.069   7.385   5.326  0.0665  0.1213 -0.4381
 3418SOL    HW111355   2.122   7.349   5.255  0.0688  1.1114 -0.9568
 3418SOL    HW211356   2.130   7.390   5.400 -0.0098 -1.1666 -0.2690
 3419SOL     OW11357   1.008   9.110   4.580 -0.8143  0.2368 -0.1074
 3419SOL    HW111358   1.093   9.112   4.625 -1.0108  0.4749  0.2476
 3419SOL    HW211359   0.952   9.056   4.636 -1.5579  1.8953  0.8222
 3420SOL     OW11360   2.391   1.064   3.219  0.4089  0.2151  0.2776
 3420SOL    HW111361   2.379   0.971   3.235  1.8866 -0.0050  0.2711
 3420SOL    HW211362   2.426   1.068   3.129 -1.0756  0.9017 -0.3018
 3421SOL     OW11363   7.144   7.416   8.634  0.0630  0.7608  0.1460
 3421SOL    HW111364   7.131   7.389   8.543  2.7182 -1.0182  0.1803
 3421SOL    HW211365   7.228   7.461   8.634 -0.0879  1.0848  1.6525
 3422SOL     OW11366   8.242   3.315   1.618  0.0913  0.0382 -0.3398
 3422SOL    HW111367   8.238   3.222   1.596  2.6515  0.5875 -4.1668
 3422SOL    HW211368   8.153   3.337   1.645 -1.2479 -2.9848 -1.7922
 3423SOL     OW11369   7.203   1.455   6.563  0.5361  0.4961  0.0073
 3423SOL    HW111370   7.140   1.466   6.492  0.3405  0.6514  0.2048
 3423SOL    HW211371   7.183   1.368   6.598  1.1250  0.0986 -0.6074
 3424SOL     OW11372   7.748   0.501   9.026  0.0619  0.2838 -0.0447
 3424SOL    HW111373   7.712   0.556   8.956 -0.7835  0.4622  0.5227
 3424SOL    HW211374   7.785   0.563   9.089  3.3478  0.0893 -1.5888
 3425SOL     OW11375   3.246   8.045   8.616  0.1558  0.6131  0.0343
 3425SOL    HW111376   3.334   8.038   8.652  0.7271 -0.3352 -1.4627
 3425SOL    HW211377   3.259   8.058   8.522 -1.2675 -1.4997 -0.5437
 3426SOL     OW11378   3.043   5.644   8.238 -0.0429 -0.0365 -0.4001
 3426SOL    HW111379   3.119   5.637   8.179  0.7041  1.4203  0.3224
 3426SOL    HW211380   3.029   5.555   8.271  1.5858 -0.2782 -0.2891
 3427SOL     OW11381   8.339   2.483   1.969  0.2241  0.6440  0.1236
 3427SOL    HW111382   8.316   2.575   1.960  1.8341  0.9251 -1.7814
 3427SOL    HW211383   8.435   2.482   1.964  0.2855 -1.0587  0.9935
 3428SOL     OW11384   4.272   3.740   1.326  0.6536  0.3482  0.2714
 3428SOL    HW111385   4.224   3.770   1.403  0.9961  2.1221 -0.1598
 3428SOL    HW211386   4.330   3.813   1.305  2.8748 -1.3408  0.2153
 3429SOL     OW11387   8.483   6.619   8.676 -0.3433  0.0404 -0.2158
 3429SOL    HW111388   8.416   6.608   8.608 -0.5827 -0.0299  0.0302
 3429SOL    HW211389   8.528   6.700   8.652  0.5140 -0.7256 -1.2601
 3430SOL     OW11390   0.989   5.711   6.581  0.3819  0.7441  0.2314
 3430SOL    HW111391   0.997   5.800   6.547 -0.4945  0.5461 -0.5371
 3430SOL    HW211392   0.922   5.671   6.526  0.6630 -0.3468  0.6672
 3431SOL     OW11393   0.471   0.164   1.611  0.1484  0.4298  0.0593
 3431SOL    HW111394   0.386   0.205   1.598  0.0665 -0.3271 -2.2476
 3431SOL    HW211395   0.535   0.229   1.581  0.1978  0.0743 -0.6428
 3432SOL     OW11396   8.016   7.797   0.274  0.2361  0.0815  0.0269
 3432SOL    HW111397   8.075   7.853   0.223  0.3702  0.0060  0.0983
 3432SOL    HW211398   8.067   7.718   0.292 -0.7357 -1.1243 -2.1014
 3433SOL     OW11399   7.256   0.338   8.986  0.4970 -0.1796 -0.2903
 3433SOL    HW111400   7.260   0.327   9.080 -1.6363 -1.8151 -0.3232
 3433SOL    HW211401   7.234   0.431   8.974  0.6236  0.0059  0.8093
 3434SOL     OW11402   2.863   1.317   4.099 -0.5990  0.1943  0.1241
 3434SOL    HW111403   2.795   1.311   4.033 -0.2361 -1.4871 -0.1256
 3434SOL    HW211404   2.908   1.400   4.079 -2.3432  1.1918  0.1304
 3435SOL     OW11405   1.715   4.173   2.472  0.1887 -0.3726  0.3180
 3435SOL    HW111406   1.650   4.105   2.456  1.3373 -1.0375 -1.9567
 3435SOL    HW211407   1.798   4.126   2.480  0.8203  0.6437  0.0031
 3436SOL     OW11408   4.638   3.130   1.070 -0.2955  0.0847  0.7866
 3436SOL    HW111409   4.553   3.140   1.028  0.0359  0.1387  0.1085
 3436SOL    HW211410   4.625   3.060   1.134 -0.9420  0.3496  0.9542
 3437SOL     OW11411   0.391   5.943   8.044  0.6695 -0.1368 -0.0067
 3437SOL    HW111412   0.308   5.969   8.004  0.5188  0.1278  0.4813
 3437SOL    HW211413   0.368   5.867   8.098  0.6197  0.3162  0.6238
 3438SOL     OW11414   6.250   6.368   8.799 -0.1863  0.4976 -0.5123
 3438SOL    HW111415   6.171   6.356   8.746  0.8647 -0.4149 -1.9333
 3438SOL    HW211416   6.292   6.282   8.801 -0.7238  0.1618  2.8405
 3439SOL     OW11417   0.539   1.849   4.926  0.0550  0.0770 -0.3497
 3439SOL    HW111418   0.461   1.848   4.980 -0.8161  0.0189 -1.5679
 3439SOL    HW211419   0.600   1.790   4.971  0.0258  1.3428  1.4646
 3440SOL     OW11420   8.187   6.781   5.766  0.1235 -0.1188  0.5862
 3440SOL    HW111421   8.196   6.806   5.674  0.8541 -0.3568  0.5838
 3440SOL    HW211422   8.114   6.719   5.767 -1.2806  1.4663  0.4960
 3441SOL     OW11423   1.637   5.669   3.300 -0.7822 -0.2727  0.6832
 3441SOL    HW111424   1.673   5.671   3.211 -2.4832 -1.6354 -0.0856
 3441SOL    HW211425   1.663   5.754   3.337  2.4893 -0.8065 -0.0213
 3442SOL     OW11426   8.187   5.278   6.572 -0.0230 -0.1822  0.0435
 3442SOL    HW111427   8.091   5.278   6.573 -0.0362 -1.3406 -0.4417
 3442SOL    HW211428   8.211   5.190   6.543  1.1444  0.9876 -2.9383
 3443SOL     OW11429   7.258   1.653   2.724  0.0466  0.1143 -0.1887
 3443SOL    HW111430   7.200   1.729   2.728  0.6458  0.5532  2.9366
 3443SOL    HW211431   7.234   1.600   2.800  1.2817 -1.6113 -0.9172
 3444SOL     OW11432   6.891   0.039   5.580  0.2544  0.0337  0.0256
 3444SOL    HW111433   6.918  -0.017   5.507  1.5632 -0.2594  0.7111
 3444SOL    HW211434   6.861  -0.022   5.647  0.4555  0.2163  0.2858
 3445SOL     OW11435   7.811   7.569   7.079 -0.0507  0.2717  0.3293
 3445SOL    HW111436   7.858   7.588   6.998  1.5054 -0.1323  1.0828
 3445SOL    HW211437   7.865   7.607   7.148 -1.8749  1.5176  1.1351
 3446SOL     OW11438   7.323   6.625   3.126 -0.4761  0.5357 -0.0045
 3446SOL    HW111439   7.394   6.585   3.076 -1.0833 -0.5479 -0.0237
 3446SOL    HW211440   7.244   6.580   3.096 -1.0664  1.1210  0.6402
 3447SOL     OW11441   8.448   3.125   0.326 -0.7482 -0.4198  1.0909
 3447SOL    HW111442   8.405   3.050   0.367  1.2611 -1.0316  2.2654
 3447SOL    HW211443   8.427   3.199   0.384 -0.1258 -0.7486  1.7594
 3448SOL     OW11444   4.881   3.577   5.258  0.0431 -0.9222  0.2342
 3448SOL    HW111445   4.887   3.501   5.315  0.1250 -1.7753 -0.8651
 3448SOL    HW211446   4.888   3.652   5.316 -3.5084 -1.6385  1.8179
 3449SOL     OW11447   7.227   0.568   5.260 -0.3949 -0.1559  0.1395
 3449SOL    HW111448   7.212   0.531   5.347 -0.9178 -0.2516  0.0145
 3449SOL    HW211449   7.189   0.504   5.199  1.8982 -1.1700 -0.3203
 3450SOL     OW11450   5.453   9.058   4.500  0.0929 -0.2570 -0.2060
 3450SOL    HW111451   5.406   9.100   4.573  0.2169 -3.1564  1.6844
 3450SOL    HW211452   5.393   9.068   4.425  1.1450  5.3497 -0.7655
 3451SOL     OW11453   3.987   0.818   6.256  0.3404  0.1674  0.6297
 3451SOL    HW111454   3.988   0.805   6.161 -2.8742  0.6683  0.4034
 3451SOL    HW211455   4.032   0.902   6.269  1.6411 -0.3592 -0.3163
 3452SOL     OW11456   5.338   7.889   6.316  0.6969 -0.0794  0.2675
 3452SOL    HW111457   5.414   7.850   6.273 -0.7438 -1.4401 -1.1449
 3452SOL    HW211458   5.265   7.834   6.290 -0.8516  1.4233  1.2764
 3453SOL     OW11459   0.185   3.159   7.365 -0.5409 -0.6774 -0.2433
 3453SOL    HW111460   0.100   3.199   7.382  0.7613  2.2376  0.1151
 3453SOL    HW211461   0.206   3.113   7.447 -0.3214  1.6035  1.0854
 3454SOL     OW11462   3.991   0.958   6.676 -0.1716 -0.6832 -0.6910
 3454SOL    HW111463   4.062   0.908   6.637  1.1272  1.7211 -1.5998
 3454SOL    HW211464   3.953   1.007   6.603 -0.0421  1.1706  0.4111
 3455SOL     OW11465   4.412   6.209   8.076 -0.1320 -0.0348  0.2294
 3455SOL    HW111466   4.370   6.294   8.064 -0.9523 -0.5768 -0.8744
 3455SOL    HW211467   4.349   6.159   8.130  0.5551  0.1940  1.2705
 3456SOL     OW11468   3.477   6.970   6.837 -0.1228  0.4235 -0.0146
 3456SOL    HW111469   3.438   6.911   6.773 -0.0751  1.1387 -0.7164
 3456SOL    HW211470   3.567   6.983   6.807  1.3934 -2.7226  2.6149
 3457SOL     OW11471   3.860   4.270   8.776  0.1922 -0.3738 -0.1230
 3457SOL    HW111472   3.845   4.192   8.831 -0.1991 -1.1741 -1.3320
 3457SOL    HW211473   3.780   4.321   8.786  1.3434  1.1442  2.5689
 3458SOL     OW11474   5.450   5.318   7.528  0.1126  0.1935  0.6532
 3458SOL    HW111475   5.454   5.229   7.492 -1.6111 -0.1803  1.2938
 3458SOL    HW211476   5.388   5.311   7.601  1.3341  1.5399  1.8686
 3459SOL     OW11477   8.156   6.605   6.185  0.4371 -0.5385  0.4581
 3459SOL    HW111478   8.132   6.518   6.156 -0.4728 -0.7494  1.7528
 3459SOL    HW211479   8.250   6.600   6.202  0.1737 -1.6546  1.7226
 3460SOL     OW11480   7.517   3.345   4.272 -0.0757  0.2751 -0.2884
 3460SOL    HW111481   7.514   3.440   4.276  0.4982  0.4821 -2.7695
 3460SOL    HW211482   7.427   3.319   4.251  0.0515  0.4117 -1.0380
 3461SOL     OW11483   0.626   2.120   7.727 -0.0203 -0.0932 -0.1750
 3461SOL    HW111484   0.653   2.090   7.640 -1.4496 -2.6387  0.1630
 3461SOL    HW211485   0.541   2.163   7.712  0.6206  1.2187 -0.2363
 3462SOL     OW11486   5.600   7.520   2.966  0.1678 -0.1902 -0.4328
 3462SOL    HW111487   5.606   7.446   2.906  0.5357 -1.9614  1.6741
 3462SOL    HW211488   5.508   7.545   2.964 -0.1119 -1.1993 -0.6011
 3463SOL     OW11489   0.815   3.098   1.043 -0.0325 -0.1032 -0.2063
 3463SOL    HW111490   0.875   3.141   0.983  2.2662 -1.6981  0.7771
 3463SOL    HW211491   0.749   3.057   0.987  0.6348  0.4905 -1.4486
 3464SOL     OW11492   6.528   2.102   0.265  0.2807 -0.1950  0.1510
 3464SOL    HW111493   6.475   2.130   0.191 -0.5791 -1.3359  0.2997
 3464SOL    HW211494   6.533   2.007   0.257  0.2897 -0.3321  1.4724
 3465SOL     OW11495   0.159   9.058   2.670  0.1552 -0.0341 -0.0171
 3465SOL    HW111496   0.169   9.128   2.604  0.9450 -0.0001  0.1280
 3465SOL    HW211497   0.188   8.979   2.625  0.8352  0.0135  0.3303
 3466SOL     OW11498   0.914   6.752   7.392 -0.4348  0.2498 -0.1294
 3466SOL    HW111499   0.840   6.811   7.401 -0.2984  0.8855 -2.5462
 3466SOL    HW211500   0.974   6.777   7.463 -0.0459  3.5910 -1.4574
 3467SOL     OW11501   0.466   0.563   3.069 -0.4308 -0.3789  0.2200
 3467SOL    HW111502   0.533   0.599   3.127 -0.7318 -0.2878  0.5137
 3467SOL    HW211503   0.385   0.565   3.121 -1.0581  1.2044 -0.7267
 3468SOL     OW11504   6.863   6.437   2.608  0.8437 -0.1657  0.3890
 3468SOL    HW111505   6.841   6.527   2.632  0.0681 -0.2942  0.1786
 3468SOL    HW211506   6.958   6.438   2.595  0.6908  0.9059 -0.8061
 3469SOL     OW11507   5.630   3.135   7.734 -0.0132  0.0642  0.5678
 3469SOL    HW111508   5.706   3.079   7.716 -0.5911 -0.1778 -1.4374
 3469SOL    HW211509   5.561   3.099   7.678 -0.3835  2.8521 -0.9540
 3470SOL     OW11510   1.379   5.888   8.769 -0.0621 -0.8210 -0.6438
 3470SOL    HW111511   1.440   5.874   8.840 -0.8138 -4.1798 -0.4801
 3470SOL    HW211512   1.420   5.846   8.693 -1.6850 -2.3559 -0.7355
 3471SOL     OW11513   6.820   5.461   6.530 -0.1947  0.0824 -0.6759
 3471SOL    HW111514   6.901   5.486   6.574 -0.2836  1.5263 -1.2859
 3471SOL    HW211515   6.802   5.533   6.469 -2.1314 -0.0233 -0.3017
 3472SOL     OW11516   0.458   4.577   0.455 -0.3437  0.1252 -0.4345
 3472SOL    HW111517   0.455   4.507   0.390  1.2799  0.1289 -0.5512
 3472SOL    HW211518   0.436   4.533   0.538 -3.2673  0.2761 -1.0070
 3473SOL     OW11519   0.069   1.489   3.521  0.0463  0.3005 -0.6427
 3473SOL    HW111520   0.047   1.474   3.613 -0.5999  0.0916 -0.8249
 3473SOL    HW211521   0.065   1.584   3.510 -0.3617  0.2923 -0.5697
 3474SOL     OW11522   6.706   4.410   5.599  0.0762  0.2294 -0.3006
 3474SOL    HW111523   6.735   4.380   5.512  2.0945 -0.1611  0.4367
 3474SOL    HW211524   6.612   4.421   5.591  0.0699 -0.7934 -2.2569
 3475SOL     OW11525   8.533   7.305   4.356 -0.3235  0.4928 -0.2497
 3475SOL    HW111526   8.529   7.369   4.426 -0.3534  0.8441 -0.5672
 3475SOL    HW211527   8.515   7.221   4.398  0.2255  0.6244  0.2558
 3476SOL     OW11528   2.136   5.228   4.636  0.1341  0.4062 -0.0537
 3476SOL    HW111529   2.145   5.318   4.668 -2.0759  0.5883  0.2620
 3476SOL    HW211530   2.108   5.178   4.713 -1.5640  0.0882 -0.8312
 3477SOL     OW11531   8.054   4.429   6.368  0.0434  0.1838  0.3912
 3477SOL    HW111532   7.986   4.406   6.431 -0.5108  1.0871  0.1375
 3477SOL    HW211533   8.059   4.524   6.371 -0.0790  0.2550 -0.9943
 3478SOL     OW11534   2.907   0.286   7.653  0.2885  0.1193 -0.0661
 3478SOL    HW111535   2.995   0.323   7.659  0.0036  0.7416  0.3502
 3478SOL    HW211536   2.904   0.221   7.723  0.0325  0.9382  0.7099
 3479SOL     OW11537   8.195   7.106   2.322 -0.0314 -0.0992  0.2630
 3479SOL    HW111538   8.176   7.083   2.413  0.1532 -1.8249 -0.1019
 3479SOL    HW211539   8.266   7.048   2.297  2.9118  3.1545  0.2385
 3480SOL     OW11540   1.774   6.183   8.913 -0.1881  0.4184 -0.4624
 3480SOL    HW111541   1.825   6.200   8.833  0.5505 -1.6079 -0.4652
 3480SOL    HW211542   1.803   6.097   8.942 -0.4879  1.0846  1.9903
 3481SOL     OW11543   2.391   2.815   1.139  0.0239  0.1242 -0.5007
 3481SOL    HW111544   2.416   2.900   1.102 -1.7791 -0.1348 -2.5207
 3481SOL    HW211545   2.474   2.773   1.160  1.0173  1.6757 -1.1064
 3482SOL     OW11546   6.683   2.357   2.020  0.3221  0.3005  0.6997
 3482SOL    HW111547   6.652   2.268   2.000 -1.4817  0.8543  0.8004
 3482SOL    HW211548   6.670   2.366   2.114 -1.4749  1.3077  0.4094
 3483SOL     OW11549   2.097   0.952   5.184 -0.3026  0.3789  0.3172
 3483SOL    HW111550   2.132   0.887   5.123  1.7934  1.2651  0.4888
 3483SOL    HW211551   2.048   1.012   5.129  0.9583  0.7623 -0.4409
 3484SOL     OW11552   8.983   6.437   0.129 -0.6402  0.0819 -0.3249
 3484SOL    HW111553   9.033   6.518   0.115  0.6602 -0.7864 -0.8588
 3484SOL    HW211554   8.911   6.464   0.186 -0.2674  1.6287 -0.5266
 3485SOL     OW11555   3.099   7.863   7.732 -0.1501  0.1510 -0.1419
 3485SOL    HW111556   3.037   7.851   7.660 -0.4357  2.2435 -0.3026
 3485SOL    HW211557   3.044   7.860   7.811 -0.1603  0.0386 -0.1531
 3486SOL     OW11558   0.789   7.323   2.841  0.0570  0.2066  0.2268
 3486SOL    HW111559   0.813   7.237   2.805  0.4081  0.1883  0.5013
 3486SOL    HW211560   0.869   7.355   2.881 -0.0007  0.7901 -0.1203
 3487SOL     OW11561   1.812   5.453   3.728 -0.3778  0.1719  0.1297
 3487SOL    HW111562   1.759   5.531   3.744 -1.3050 -0.2510 -0.7407
 3487SOL    HW211563   1.891   5.466   3.780 -0.9001  1.2857  0.6727
 3488SOL     OW11564   8.710   6.475   7.617  0.4961 -0.4714 -0.1849
 3488SOL    HW111565   8.645   6.443   7.678 -2.6799  2.2497 -1.7976
 3488SOL    HW211566   8.709   6.412   7.545 -2.2011  0.5726 -1.2055
 3489SOL     OW11567   2.912   2.518   7.590  0.1493  0.0456  0.2445
 3489SOL    HW111568   2.869   2.436   7.614 -0.4486 -0.5604 -2.5133
 3489SOL    HW211569   2.847   2.566   7.539  0.9344  1.6660  0.6858
 3490SOL     OW11570   8.767   7.959   6.916 -0.2408  0.2845 -0.5103
 3490SOL    HW111571   8.810   7.886   6.873 -1.6990 -0.7420 -0.3142
 3490SOL    HW211572   8.829   7.988   6.983  0.0532 -1.3348 -0.0355
 3491SOL     OW11573   0.232   4.886   5.021 -0.1231  0.1360  0.2764
 3491SOL    HW111574   0.159   4.938   4.986 -0.2683 -0.4483 -0.2985
 3491SOL    HW211575   0.235   4.910   5.114 -0.6385  0.6416  0.1748
 3492SOL     OW11576   0.385   8.366   7.040 -0.0407  0.2140 -0.1262
 3492SOL    HW111577   0.387   8.334   7.130  1.0662 -0.0218 -0.2124
 3492SOL    HW211578   0.449   8.312   6.994  0.4970  1.2892 -0.7046
 3493SOL     OW11579   8.989   5.545   8.214  0.2207 -0.6894  0.0172
 3493SOL    HW111580   9.001   5.456   8.180  1.7400 -0.9929  1.2819
 3493SOL    HW211581   8.904   5.542   8.257  0.0270 -1.3807 -0.3868
 3494SOL     OW11582   1.345   1.351   5.796  0.1261 -0.2494 -0.5683
 3494SOL    HW111583   1.439   1.333   5.787  0.6467  0.2916  2.5475
 3494SOL    HW211584   1.305   1.302   5.724  2.7178 -1.1016 -1.5772
 3495SOL     OW11585   3.321   3.613   3.503  0.2921 -0.2962 -0.1560
 3495SOL    HW111586   3.350   3.685   3.448  0.2961 -0.1817 -0.0033
 3495SOL    HW211587   3.245   3.576   3.457 -0.7548  0.8549  0.5942
 3496SOL     OW11588   3.703   0.260   7.671  0.0236 -0.5248 -0.2338
 3496SOL    HW111589   3.631   0.210   7.709  0.1442 -0.0139  0.6929
 3496SOL    HW211590   3.764   0.193   7.639  0.0876 -0.9847  0.8059
 3497SOL     OW11591   5.478   3.970   7.674 -0.2356 -0.1557  0.2643
 3497SOL    HW111592   5.512   3.888   7.639 -1.8367 -0.7496  0.0138
 3497SOL    HW211593   5.446   4.017   7.597 -1.8845 -0.5583  0.6666
 3498SOL     OW11594   8.522   4.556   6.055  0.1339 -0.1869  0.4131
 3498SOL    HW111595   8.512   4.630   6.114 -0.3774 -0.8649  1.2005
 3498SOL    HW211596   8.473   4.581   5.976 -2.1209 -0.6502  1.5880
 3499SOL     OW11597   5.030   0.399   1.996  0.2439 -0.2020 -0.5910
 3499SOL    HW111598   4.987   0.483   1.977  0.9463  0.6536  1.3507
 3499SOL    HW211599   4.964   0.333   1.975 -1.3912  0.9898  0.5185
 3500SOL     OW11600   7.922   1.804   2.941  0.1429 -0.2524 -0.5319
 3500SOL    HW111601   8.011   1.836   2.927  0.2309 -0.5034 -0.5456
 3500SOL    HW211602   7.919   1.720   2.895 -0.5070  0.3861 -1.7209
 3501SOL     OW11603   7.836   7.318   4.399  0.0516  0.1189  0.7106
 3501SOL    HW111604   7.862   7.410   4.402 -0.4372  0.2946 -0.0758
 3501SOL    HW211605   7.742   7.321   4.384  0.2158 -0.5010 -0.5944
 3502SOL     OW11606   5.771   5.356   7.269 -0.0749  0.3811  0.3405
 3502SOL    HW111607   5.844   5.337   7.211 -0.4828 -0.4433  0.0730
 3502SOL    HW211608   5.810   5.366   7.355  0.4659  1.0077  0.0313
 3503SOL     OW11609   3.887   1.815   1.431  0.3187 -0.5234 -0.1442
 3503SOL    HW111610   3.929   1.762   1.500 -0.8674 -0.2979  0.7835
 3503SOL    HW211611   3.842   1.884   1.479 -0.1366 -0.0781 -1.2021
 3504SOL     OW11612   3.793   0.798   2.628 -0.0174 -0.1573  0.1890
 3504SOL    HW111613   3.755   0.767   2.546  0.6765  0.7236 -0.4873
 3504SOL    HW211614   3.718   0.806   2.687 -0.5232 -0.8566 -0.3402
 3505SOL     OW11615   8.332   5.173   7.460  0.2759  0.0832 -0.0937
 3505SOL    HW111616   8.413   5.180   7.510 -0.4285 -0.9243  1.2548
 3505SOL    HW211617   8.332   5.083   7.427  0.4353  0.5515 -1.4317
 3506SOL     OW11618   8.238   4.214   3.395  0.6479 -0.0429 -0.2976
 3506SOL    HW111619   8.210   4.271   3.467  0.5394 -0.0686 -0.3204
 3506SOL    HW211620   8.218   4.264   3.316  0.1193 -0.3048 -0.3351
 3507SOL     OW11621   3.867   2.020   1.018  0.6647  0.4934 -0.1962
 3507SOL    HW111622   3.865   2.104   0.973  0.0498  1.2085  1.1145
 3507SOL    HW211623   3.931   2.031   1.088  1.1200 -0.3777 -0.4655
 3508SOL     OW11624   4.105   8.426   4.817 -0.3173  0.1805 -0.2796
 3508SOL    HW111625   4.122   8.371   4.894  2.4834 -0.9969 -1.6182
 3508SOL    HW211626   4.037   8.378   4.769 -0.1601 -0.4659  0.1291
 3509SOL     OW11627   4.344   6.993   4.159  0.4348  0.0796  0.1138
 3509SOL    HW111628   4.364   6.899   4.158  0.4780  0.0888 -0.1663
 3509SOL    HW211629   4.412   7.032   4.214 -0.3570 -0.2159  1.3347
 3510SOL     OW11630   4.693   3.524   9.085 -0.2581 -0.7984 -0.5372
 3510SOL    HW111631   4.667   3.434   9.066 -0.0311 -0.6967 -1.3969
 3510SOL    HW211632   4.635   3.552   9.156 -0.6874 -1.4459 -0.6263
 3511SOL     OW11633   2.420   7.214   0.388 -0.3057 -0.0442  0.4033
 3511SOL    HW111634   2.376   7.231   0.305 -1.1810 -2.2152  0.3454
 3511SOL    HW211635   2.511   7.199   0.365 -0.4424 -0.1141 -0.0957
 3512SOL     OW11636   5.263   8.385   5.416  0.3268 -0.2476 -0.0842
 3512SOL    HW111637   5.293   8.325   5.347  0.1267 -1.2778  0.6955
 3512SOL    HW211638   5.260   8.471   5.373 -1.6818 -1.1397 -1.9056
 3513SOL     OW11639   1.846   3.484   2.018  0.0255  1.2473 -0.3742
 3513SOL    HW111640   1.755   3.473   1.989  0.1799  1.5072 -0.9611
 3513SOL    HW211641   1.846   3.449   2.107 -0.6420  1.2044 -0.3804
 3514SOL     OW11642   2.463   6.454   7.141  0.2020 -0.7822 -0.4463
 3514SOL    HW111643   2.474   6.481   7.232  0.4998 -0.8370 -0.4657
 3514SOL    HW211644   2.521   6.512   7.091 -1.9546  1.0870 -0.9165
 3515SOL     OW11645   5.644   0.500   6.920 -0.7161 -0.2456  0.0157
 3515SOL    HW111646   5.561   0.530   6.882  0.1665  0.3851 -1.5541
 3515SOL    HW211647   5.632   0.506   7.014 -2.4836 -0.2845 -0.1810
 3516SOL     OW11648   7.565   2.165   2.486  0.4275  0.3808  0.8493
 3516SOL    HW111649   7.556   2.195   2.577  2.0296 -1.0163  1.5208
 3516SOL    HW211650   7.516   2.083   2.483  1.1844 -0.0702  0.7254
 3517SOL     OW11651   6.734   2.988   0.291 -0.2061  0.2934  0.1846
 3517SOL    HW111652   6.757   3.033   0.372  0.2544 -0.2592  0.3685
 3517SOL    HW211653   6.687   2.910   0.319  1.5483 -0.8668  0.0467
 3518SOL     OW11654   4.889   5.871   4.014 -0.2596  0.3909 -0.1081
 3518SOL    HW111655   4.977   5.840   4.037  0.9869  3.4747 -0.3456
 3518SOL    HW211656   4.844   5.792   3.983  1.9337 -1.5570  1.2848
 3519SOL     OW11657   7.328   5.358   6.108  0.1685 -0.2540 -0.4553
 3519SOL    HW111658   7.295   5.432   6.057 -1.4829 -0.3587  0.3958
 3519SOL    HW211659   7.338   5.287   6.044  1.6543  0.6331 -1.2535
 3520SOL     OW11660   8.095   4.815   7.719  0.5943  0.4317 -0.3629
 3520SOL    HW111661   8.070   4.886   7.660 -0.5379 -1.3482 -2.1701
 3520SOL    HW211662   8.172   4.775   7.677  0.4884 -0.1441 -0.0194
 3521SOL     OW11663   6.869   7.413   1.638  0.1589 -0.8222  0.1961
 3521SOL    HW111664   6.892   7.502   1.665 -2.1486 -0.7518  2.2355
 3521SOL    HW211665   6.774   7.408   1.649  0.0958 -3.2653 -0.8101
 3522SOL     OW11666   1.815   6.956   0.869 -0.8441 -0.5323 -0.4225
 3522SOL    HW111667   1.816   7.051   0.880  1.2938 -0.5410 -0.1196
 3522SOL    HW211668   1.818   6.922   0.959  1.7512 -0.7806 -0.5197
 3523SOL     OW11669   5.190   1.681   7.029 -0.0635  0.1159  0.0802
 3523SOL    HW111670   5.160   1.601   7.072 -0.8274  0.3829  0.0595
 3523SOL    HW211671   5.199   1.744   7.100 -0.6853  0.3661 -0.0524
 3524SOL     OW11672   7.620   1.275   5.834  0.1682  0.4172 -0.1764
 3524SOL    HW111673   7.653   1.363   5.851 -0.1678  0.4379  0.3846
 3524SOL    HW211674   7.584   1.279   5.746 -2.2306  1.5817  0.7846
 3525SOL     OW11675   3.951   6.906   3.275  0.5398  0.1484  0.0363
 3525SOL    HW111676   3.939   6.814   3.297 -2.2243  0.6469  1.0955
 3525SOL    HW211677   3.887   6.923   3.206  1.2580  1.2184 -0.4001
 3526SOL     OW11678   8.022   8.924   1.065 -0.1743 -0.5037 -0.0662
 3526SOL    HW111679   8.089   8.941   1.132  0.6077  2.8057 -1.5281
 3526SOL    HW211680   8.066   8.868   1.001  1.2913  1.5533 -0.9606
 3527SOL     OW11681   1.758   6.903   2.246 -0.3188  0.0250 -0.0555
 3527SOL    HW111682   1.772   6.810   2.263 -0.6152 -0.0954 -0.4671
 3527SOL    HW211683   1.841   6.944   2.271  0.4885 -0.5626 -1.5858
 3528SOL     OW11684   4.781   5.576   8.189  0.2870 -0.6187  0.2619
 3528SOL    HW111685   4.864   5.618   8.212  0.0040  0.8438 -1.1683
 3528SOL    HW211686   4.720   5.648   8.178 -1.6786 -1.7488  2.8886
 3529SOL     OW11687   3.317   6.051   7.883 -0.4415  0.3157  0.2187
 3529SOL    HW111688   3.362   5.990   7.825 -1.3333  0.7627 -0.9854
 3529SOL    HW211689   3.385   6.083   7.943  0.7801  0.7552 -1.3613
 3530SOL     OW11690   3.249   4.343   2.993  0.3395  0.2392 -0.0287
 3530SOL    HW111691   3.318   4.400   2.959  0.5142 -0.6725 -1.2690
 3530SOL    HW211692   3.296   4.272   3.036  0.1340  0.4619  0.5762
 3531SOL     OW11693   6.222   2.105   0.329 -0.1150 -0.2391 -0.7074
 3531SOL    HW111694   6.294   2.110   0.266  0.4458 -2.0711 -0.2571
 3531SOL    HW211695   6.194   2.013   0.327 -1.0505 -0.0170  0.6576
 3532SOL     OW11696   6.191   5.695   6.144 -0.9566  0.5991  0.6801
 3532SOL    HW111697   6.190   5.681   6.050  1.7374 -1.0852  0.8026
 3532SOL    HW211698   6.178   5.789   6.155  1.3925  1.2585 -1.5592
 3533SOL     OW11699   6.811   8.375   6.698  0.4082  0.1400 -0.7662
 3533SOL    HW111700   6.811   8.387   6.793  0.6133 -0.4886 -0.6887
 3533SOL    HW211701   6.889   8.324   6.679  0.7830  0.9119 -1.3610
 3534SOL     OW11702   6.360   7.482   6.783  0.0443 -0.5297 -0.7882
 3534SOL    HW111703   6.358   7.449   6.873 -1.0795  1.6361  0.0529
 3534SOL    HW211704   6.378   7.576   6.792 -0.4652 -0.1976 -2.7935
 3535SOL     OW11705   8.735   1.032   8.332  0.0429 -0.3567 -0.4370
 3535SOL    HW111706   8.796   1.072   8.270 -1.2978  1.9479 -0.3924
 3535SOL    HW211707   8.791   0.985   8.395  1.8435  2.0718 -0.0984
 3536SOL     OW11708   6.046   0.128   0.994  0.3809  0.0500 -0.6921
 3536SOL    HW111709   6.139   0.150   0.985  1.1242 -1.2794  2.5375
 3536SOL    HW211710   6.045   0.033   1.008 -1.4558  0.0804 -0.4094
 3537SOL     OW11711   0.095   4.826   6.946  0.6962  0.2997  0.0767
 3537SOL    HW111712   0.119   4.899   7.002  0.5891  0.1021  0.3862
 3537SOL    HW211713   0.078   4.865   6.860  0.6616  0.6323  0.2356
 3538SOL     OW11714   1.748   1.516   7.169 -0.1240 -0.1991 -0.2067
 3538SOL    HW111715   1.761   1.503   7.263  2.7469  2.3131 -0.0698
 3538SOL    HW211716   1.701   1.599   7.162  0.3279  0.0120 -0.9410
 3539SOL     OW11717   6.501   3.163   6.966  0.3375  0.0680  0.6456
 3539SOL    HW111718   6.564   3.235   6.971 -0.7874  2.1318 -5.6459
 3539SOL    HW211719   6.542   3.100   6.906 -1.7944 -0.6598 -0.1498
 3540SOL     OW11720   1.356   5.215   8.088 -0.6693  0.4537 -0.3481
 3540SOL    HW111721   1.385   5.306   8.086  0.3917  0.1322 -0.8507
 3540SOL    HW211722   1.331   5.196   7.997 -0.6958  0.1874 -0.2849
 3541SOL     OW11723   2.516   7.126   8.329  0.0468 -0.0460 -0.2850
 3541SOL    HW111724   2.450   7.071   8.286  1.4431 -2.6527  0.6892
 3541SOL    HW211725   2.575   7.152   8.259  0.9042 -2.1597 -0.4063
 3542SOL     OW11726   9.106   4.934   4.408  0.3975  0.4420  0.4581
 3542SOL    HW111727   9.184   4.978   4.375 -0.1507  0.4685 -0.8378
 3542SOL    HW211728   9.108   4.847   4.369 -0.9988  0.9522 -0.8800
 3543SOL     OW11729   2.869   7.561   4.673 -0.1751 -0.1996  0.2954
 3543SOL    HW111730   2.933   7.524   4.613  0.1992  0.8255  0.0291
 3543SOL    HW211731   2.878   7.509   4.753  1.0496 -0.0440  0.2849
 3544SOL     OW11732   3.656   7.145   1.664 -0.0829 -0.2671 -0.0388
 3544SOL    HW111733   3.652   7.198   1.584  0.7664  1.6383  1.1343
 3544SOL    HW211734   3.725   7.081   1.646 -0.0033  0.0377 -0.8752
 3545SOL     OW11735   8.641   3.932   7.927  0.0248 -0.2908  0.1610
 3545SOL    HW111736   8.606   3.881   7.854  1.2729 -1.3731  0.2821
 3545SOL    HW211737   8.659   3.867   7.995 -2.0110  0.7933  1.8693
 3546SOL     OW11738   1.628   7.805   4.028 -0.1738  0.6720  0.0738
 3546SOL    HW111739   1.692   7.738   4.049 -0.0755  0.4858 -0.7918
 3546SOL    HW211740   1.543   7.765   4.047 -0.1207  0.2642 -0.5582
 3547SOL     OW11741   8.086   7.944   1.988  0.0821 -0.0740  0.7447
 3547SOL    HW111742   8.089   7.863   1.937 -1.6008 -0.4963  1.2357
 3547SOL    HW211743   8.124   8.010   1.930 -1.6654 -0.5592 -1.0827
 3548SOL     OW11744   4.612   4.354   8.417  0.3967 -0.2677  0.0834
 3548SOL    HW111745   4.617   4.381   8.509  0.3222  0.3725 -0.0958
 3548SOL    HW211746   4.532   4.302   8.412 -0.3755  0.8714  0.1025
 3549SOL     OW11747   4.053   7.079   4.423 -0.5058 -0.5775 -0.3837
 3549SOL    HW111748   4.108   7.001   4.425  1.6059  0.8517  0.6265
 3549SOL    HW211749   4.020   7.087   4.513 -0.0922  0.0834 -0.2832
 3550SOL     OW11750   5.598   3.156   0.329 -0.6483  0.3693  0.3720
 3550SOL    HW111751   5.575   3.211   0.254  0.1194  1.3994  0.8788
 3550SOL    HW211752   5.539   3.185   0.399 -0.2488  0.5470  0.6370
 3551SOL     OW11753   6.897   3.048   8.529 -0.0261 -0.3910  0.5181
 3551SOL    HW111754   6.934   2.987   8.466  0.5405  0.7086 -0.2440
 3551SOL    HW211755   6.958   3.047   8.602  2.2118  2.1471 -1.1313
 3552SOL     OW11756   8.734   1.546   0.880 -0.2006 -0.4686  0.0573
 3552SOL    HW111757   8.786   1.473   0.913 -0.6887 -1.0920 -0.5318
 3552SOL    HW211758   8.655   1.505   0.845  0.6511  0.0257 -2.7267
 3553SOL     OW11759   3.855   2.262   8.883 -0.2893  0.5071 -0.4576
 3553SOL    HW111760   3.876   2.349   8.848  0.0485  0.2750 -0.8303
 3553SOL    HW211761   3.763   2.269   8.909 -0.0468  1.2149  0.2528
 3554SOL     OW11762   5.761   8.754   5.511  0.2292  0.6692 -0.0780
 3554SOL    HW111763   5.856   8.757   5.522  0.0116  1.6777  2.2914
 3554SOL    HW211764   5.731   8.689   5.575 -0.6703  0.1395 -1.0087
 3555SOL     OW11765   0.116   3.585   8.387 -0.1472 -0.3788 -0.2918
 3555SOL    HW111766   0.130   3.525   8.315  0.9127 -0.7614  0.2110
 3555SOL    HW211767   0.020   3.593   8.394 -0.2855 -1.3661 -0.8739
 3556SOL     OW11768   5.058   3.134   1.209  0.1781  0.3800 -0.8881
 3556SOL    HW111769   5.009   3.172   1.136  0.1677  1.9332 -0.1119
 3556SOL    HW211770   5.076   3.208   1.267  0.7976 -0.6980  0.3464
 3557SOL     OW11771   5.388   8.476   0.132 -0.1593 -0.3973  0.0046
 3557SOL    HW111772   5.371   8.422   0.054  0.3508 -0.0181 -0.3809
 3557SOL    HW211773   5.361   8.565   0.105  2.4206  0.2699 -0.6886
 3558SOL     OW11774   6.706   5.293   6.256  0.0139  0.1928 -0.1480
 3558SOL    HW111775   6.715   5.318   6.348 -2.8211  1.3474 -0.0666
 3558SOL    HW211776   6.658   5.210   6.259 -0.1405  0.2655 -0.5744
 3559SOL     OW11777   1.230   9.079   2.349 -0.1336 -0.7279 -0.3292
 3559SOL    HW111778   1.292   9.104   2.418 -1.0564  1.5373 -0.2138
 3559SOL    HW211779   1.147   9.068   2.394 -1.3124  3.0800 -1.1433
 3560SOL     OW11780   4.166   3.936   0.830  0.1291 -0.0282  0.1891
 3560SOL    HW111781   4.175   3.856   0.779  2.1525 -0.4838  1.1374
 3560SOL    HW211782   4.218   4.001   0.783 -1.8345  0.9090 -0.7982
 3561SOL     OW11783   8.054   7.985   9.004 -0.8880  1.0294 -0.0348
 3561SOL    HW111784   8.074   7.956   8.915 -0.8416  1.7827 -0.2747
 3561SOL    HW211785   8.089   8.074   9.009  0.7164  0.3975  1.2881
 3562SOL     OW11786   6.031   1.986   0.542  0.0918  0.0216 -0.3370
 3562SOL    HW111787   5.982   1.909   0.515 -0.6513  0.6754 -0.8813
 3562SOL    HW211788   5.968   2.058   0.537  1.2770  1.0100 -1.7295
 3563SOL     OW11789   8.558   7.017   6.796  0.0986 -0.3128 -0.1864
 3563SOL    HW111790   8.603   7.040   6.877  1.0555 -3.2582  0.2446
 3563SOL    HW211791   8.623   7.033   6.727  0.1722 -0.1627 -0.0814
 3564SOL     OW11792   1.999   4.607   7.943  0.4157  0.0037 -0.3878
 3564SOL    HW111793   2.055   4.670   7.988 -0.1531  0.3421 -0.1540
 3564SOL    HW211794   1.936   4.660   7.895 -0.0177 -0.3836 -0.2535
 3565SOL     OW11795   4.256   5.469   3.964 -0.1392  0.3587  0.2953
 3565SOL    HW111796   4.324   5.487   4.029 -0.5220  1.5890  0.3692
 3565SOL    HW211797   4.270   5.377   3.940  0.6106  0.1620  1.4032
 3566SOL     OW11798   9.124   7.558   0.794  0.1291 -0.5011 -0.7640
 3566SOL    HW111799   9.134   7.630   0.731  2.2517 -0.6514 -0.6915
 3566SOL    HW211800   9.084   7.598   0.871 -0.7078  0.1085 -1.4922
 3567SOL     OW11801   3.433   0.027   4.849 -0.5635 -0.0240 -0.0578
 3567SOL    HW111802   3.460   0.096   4.788 -2.6862  0.7928 -0.1714
 3567SOL    HW211803   3.510   0.010   4.902  0.6835  0.8303 -1.5247
 3568SOL     OW11804   0.544   9.091   2.488 -0.0312 -0.5597 -0.3080
 3568SOL    HW111805   0.572   9.052   2.571  2.1666  1.1785 -0.1374
 3568SOL    HW211806   0.515   9.179   2.512 -1.9786 -0.9352 -1.0852
 3569SOL     OW11807   5.313   8.288   8.858  0.0404 -0.5631  0.0193
 3569SOL    HW111808   5.233   8.242   8.884 -0.3042 -0.5457 -0.9633
 3569SOL    HW211809   5.302   8.376   8.895 -0.1350 -0.7298  0.3670
 3570SOL     OW11810   9.057   3.944   0.404 -0.1242 -0.1904 -0.2439
 3570SOL    HW111811   9.152   3.948   0.416 -0.0705 -0.8002 -0.4168
 3570SOL    HW211812   9.045   3.885   0.329 -0.5201  2.0255 -2.0383
 3571SOL     OW11813   1.650   1.715   1.247 -0.1832 -0.3224  0.0280
 3571SOL    HW111814   1.562   1.691   1.277 -0.3196 -0.5730 -0.5704
 3571SOL    HW211815   1.647   1.810   1.234  0.5291  0.2197  3.0011
 3572SOL     OW11816   1.262   7.819   4.751 -0.0101 -0.5203 -0.6119
 3572SOL    HW111817   1.235   7.731   4.727  0.7780 -0.7805 -0.5690
 3572SOL    HW211818   1.348   7.830   4.709 -0.0770  0.2035 -0.5720
 3573SOL     OW11819   6.391   0.516   7.263 -0.4776  0.2061  0.0488
 3573SOL    HW111820   6.302   0.526   7.228  0.0740 -1.9636 -2.2705
 3573SOL    HW211821   6.440   0.474   7.193  1.6692 -1.3288  2.2968
 3574SOL     OW11822   6.348   1.459   2.172  0.3255 -0.1002  0.4088
 3574SOL    HW111823   6.338   1.452   2.267  0.6469 -0.0204  0.4496
 3574SOL    HW211824   6.371   1.371   2.143  1.3676  0.1175  0.5492
 3575SOL     OW11825   1.540   2.126   2.792 -0.2357  0.1021  0.6635
 3575SOL    HW111826   1.492   2.051   2.757  2.4140 -0.5072 -2.1243
 3575SOL    HW211827   1.570   2.098   2.878 -0.8473 -1.3137  0.4493
 3576SOL     OW11828   2.264   3.038   3.364  0.6631 -0.0496  0.0424
 3576SOL    HW111829   2.308   2.958   3.393  1.0328  0.9267  2.4365
 3576SOL    HW211830   2.279   3.041   3.270  0.0587 -3.1117 -0.2722
 3577SOL     OW11831   4.753   3.300   6.615 -0.7010  0.7257 -0.0480
 3577SOL    HW111832   4.845   3.323   6.632 -0.7386  0.2767  0.8017
 3577SOL    HW211833   4.707   3.384   6.619 -0.3381  0.9524 -0.4575
 3578SOL     OW11834   8.165   8.575   5.595  0.3710 -0.7484 -0.4948
 3578SOL    HW111835   8.084   8.525   5.582 -0.5092  0.7505 -0.9595
 3578SOL    HW211836   8.235   8.513   5.571 -0.4907 -2.5759  1.3514
 3579SOL     OW11837   5.795   0.259   6.844 -0.1176  0.0431 -0.0730
 3579SOL    HW111838   5.708   0.291   6.867  0.0829  1.0618 -0.6875
 3579SOL    HW211839   5.832   0.328   6.790  0.6339 -0.8972 -0.7759
 3580SOL     OW11840   3.243   7.775   6.161  0.0120 -0.4135  0.3775
 3580SOL    HW111841   3.307   7.784   6.231 -1.2603 -0.2717  1.5413
 3580SOL    HW211842   3.254   7.684   6.131  0.8941 -0.3266  0.3932
 3581SOL     OW11843   6.401   6.234   3.920 -0.3249  0.1087 -0.1519
 3581SOL    HW111844   6.334   6.195   3.865 -0.4142  0.0099  0.0286
 3581SOL    HW211845   6.394   6.328   3.903  0.0615  0.0344 -0.7792
 3582SOL     OW11846   8.435   8.623   2.441 -0.1013  0.0647 -0.2027
 3582SOL    HW111847   8.499   8.582   2.499  0.2174  2.2708  1.1295
 3582SOL    HW211848   8.480   8.628   2.356  0.1826 -1.4205 -0.1620
 3583SOL     OW11849   4.799   5.074   6.826 -0.1814 -0.0506  0.2322
 3583SOL    HW111850   4.749   4.992   6.831 -0.8033  0.2696 -0.4721
 3583SOL    HW211851   4.753   5.125   6.760  1.4092  0.0432 -0.8472
 3584SOL     OW11852   0.192   6.587   2.403  0.0447 -0.1369 -0.6669
 3584SOL    HW111853   0.281   6.554   2.410  0.0947  0.2625  1.4360
 3584SOL    HW211854   0.202   6.682   2.407 -0.4692 -0.0978 -0.1584
 3585SOL     OW11855   8.309   5.345   6.064 -0.2781 -0.1809  0.5642
 3585SOL    HW111856   8.396   5.331   6.102 -0.8407 -2.1238  1.2468
 3585SOL    HW211857   8.324   5.346   5.970  0.3980 -1.3835  0.6366
 3586SOL     OW11858   6.054   5.097   5.712  0.0642 -0.2708 -0.1630
 3586SOL    HW111859   6.125   5.033   5.711 -0.2360 -0.6028 -0.7412
 3586SOL    HW211860   5.975   5.045   5.698 -0.1726  0.2398 -0.7432
 3587SOL     OW11861   1.686   4.795   2.835 -0.1780  0.2935 -0.6928
 3587SOL    HW111862   1.660   4.784   2.926 -0.7068  1.5762 -0.6709
 3587SOL    HW211863   1.613   4.760   2.784 -0.4108  0.6718 -0.6213
 3588SOL     OW11864   1.676   7.298   1.714 -0.2029  0.2468 -0.1407
 3588SOL    HW111865   1.749   7.326   1.769 -0.9994 -0.6507  1.4252
 3588SOL    HW211866   1.716   7.239   1.650  0.1961 -2.0385  2.0695
 3589SOL     OW11867   6.165   8.209   6.593  0.5258  0.0992  0.2988
 3589SOL    HW111868   6.081   8.167   6.577  1.3071 -1.2790 -0.4051
 3589SOL    HW211869   6.160   8.241   6.683 -0.3188 -1.0420  0.6825
 3590SOL     OW11870   6.402   1.189   6.715 -0.0346 -0.1815  0.2902
 3590SOL    HW111871   6.345   1.224   6.647  1.7924  0.2073 -1.1363
 3590SOL    HW211872   6.437   1.267   6.759  0.6989 -0.3362 -0.0013
 3591SOL     OW11873   6.890   5.919   7.370  0.8795  0.0126 -1.0358
 3591SOL    HW111874   6.861   5.918   7.278  0.2441  1.6679 -0.8840
 3591SOL    HW211875   6.809   5.928   7.420  1.1369 -1.6685 -0.2170
 3592SOL     OW11876   4.559   6.469   0.353  0.4395  0.1418 -0.3536
 3592SOL    HW111877   4.613   6.391   0.341 -1.1522 -1.1290  0.4204
 3592SOL    HW211878   4.525   6.489   0.265 -0.8563 -1.3628 -0.2309
 3593SOL     OW11879   0.938   0.449   2.173  0.1886  0.0086  0.3282
 3593SOL    HW111880   1.008   0.456   2.109 -0.9768  0.2277 -0.9821
 3593SOL    HW211881   0.925   0.538   2.205 -0.0333  0.1041 -0.0291
 3594SOL     OW11882   1.186   7.435   6.039 -0.5157 -0.1752  0.1767
 3594SOL    HW111883   1.247   7.370   6.074  1.0432 -0.7447 -3.1276
 3594SOL    HW211884   1.104   7.388   6.028  0.5859 -1.7900 -2.1665
 3595SOL     OW11885   3.787   2.849   3.385  0.0571 -1.0400  0.1503
 3595SOL    HW111886   3.814   2.768   3.342  2.0147 -0.4774  0.2320
 3595SOL    HW211887   3.839   2.853   3.465 -1.1276 -0.4311  0.9374
 3596SOL     OW11888   6.283   2.590   1.402 -0.4861 -0.2523  0.0849
 3596SOL    HW111889   6.301   2.629   1.487 -1.2586 -0.8705  0.5493
 3596SOL    HW211890   6.302   2.497   1.414  1.0965 -0.1108 -0.9346
 3597SOL     OW11891   4.410   4.931   0.351  0.1946  0.5133  0.1457
 3597SOL    HW111892   4.322   4.942   0.389  0.8527  0.1378  1.9037
 3597SOL    HW211893   4.416   4.838   0.331  0.4005  0.4230  0.6135
 3598SOL     OW11894   8.886   8.890   8.586 -0.0508 -0.1280  0.0869
 3598SOL    HW111895   8.916   8.881   8.496  1.8906  2.5922  0.3384
 3598SOL    HW211896   8.863   8.801   8.613  0.2653 -1.1563 -2.7370
 3599SOL     OW11897   6.548   8.875   5.845  0.0707  0.7357 -0.0591
 3599SOL    HW111898   6.626   8.850   5.894  0.4099 -2.5420 -1.9752
 3599SOL    HW211899   6.480   8.817   5.876 -0.7589  1.3485 -0.6684
 3600SOL     OW11900   1.689   0.156   6.759 -0.2689 -0.0399  0.8301
 3600SOL    HW111901   1.648   0.092   6.701 -0.9624 -0.2863  1.5727
 3600SOL    HW211902   1.629   0.231   6.759 -1.2505 -0.7692  2.6490
 3601SOL     OW11903   5.943   4.210   2.461 -0.4287 -0.4191 -0.6797
 3601SOL    HW111904   5.925   4.299   2.430  0.2446 -0.7430 -2.0888
 3601SOL    HW211905   6.035   4.213   2.488 -0.6899 -0.4434  0.2636
 3602SOL     OW11906   2.569   2.677   2.172  0.4250 -0.0087 -0.0898
 3602SOL    HW111907   2.556   2.703   2.081  0.7356  1.0170  0.1459
 3602SOL    HW211908   2.529   2.748   2.223 -0.9986 -1.2442  0.5909
 3603SOL     OW11909   5.803   7.700   2.309  0.2585  0.2908 -0.2029
 3603SOL    HW111910   5.890   7.735   2.329  1.3049 -1.3353 -1.5738
 3603SOL    HW211911   5.806   7.679   2.216 -1.4421 -0.2471 -0.1774
 3604SOL     OW11912   1.231   2.051   3.190 -0.8208 -0.8244 -0.1780
 3604SOL    HW111913   1.284   2.107   3.133  0.9679 -0.4666  1.7081
 3604SOL    HW211914   1.282   1.970   3.197 -1.3558 -1.1191  0.3825
 3605SOL     OW11915   5.946   2.737   5.775  0.2811 -0.0148 -0.1299
 3605SOL    HW111916   5.855   2.765   5.769  0.4671  0.6285 -0.0291
 3605SOL    HW211917   5.966   2.696   5.691 -0.5100 -1.4384  0.3338
 3606SOL     OW11918   3.407   3.758   7.983 -0.3500 -0.2163  0.0366
 3606SOL    HW111919   3.346   3.687   8.001  0.4008 -0.9903 -0.3627
 3606SOL    HW211920   3.352   3.835   7.970 -1.0717 -0.2577  2.5259
 3607SOL     OW11921   0.310   0.721   7.322 -0.3416 -0.2892 -0.1063
 3607SOL    HW111922   0.277   0.750   7.237 -0.2595 -0.2149 -0.1127
 3607SOL    HW211923   0.405   0.731   7.316 -0.3963  0.5456  0.3009
 3608SOL     OW11924   7.938   4.707   6.369 -0.3660 -0.0456 -0.4901
 3608SOL    HW111925   8.013   4.763   6.387 -0.5497  0.6100 -1.6520
 3608SOL    HW211926   7.862   4.760   6.395 -0.4816 -0.2335 -0.4407
 3609SOL     OW11927   5.211   1.580   1.160 -0.5670  0.4164 -0.0949
 3609SOL    HW111928   5.273   1.535   1.103 -1.6835 -0.1286 -0.9210
 3609SOL    HW211929   5.149   1.512   1.187 -1.7840  1.2640 -0.6677
 3610SOL     OW11930   3.680   3.492   8.902  0.4422 -0.2638 -0.0312
 3610SOL    HW111931   3.626   3.543   8.963  0.3372 -1.4183  0.8758
 3610SOL    HW211932   3.732   3.435   8.958 -0.3353 -2.0373 -1.0373
 3611SOL     OW11933   4.221   7.487   7.271  0.0574  0.0178 -0.8666
 3611SOL    HW111934   4.174   7.547   7.213 -0.6183 -0.0835 -0.4268
 3611SOL    HW211935   4.156   7.424   7.299  0.6323 -0.5792 -0.8508
 3612SOL     OW11936   1.906   8.450   6.863 -0.3897  0.4549  0.9285
 3612SOL    HW111937   1.863   8.370   6.894 -0.1583 -0.1206 -0.2020
 3612SOL    HW211938   1.834   8.509   6.841 -0.5814  0.0699  0.5123
 3613SOL     OW11939   2.065   6.403   2.059 -0.3247  0.0025  0.4310
 3613SOL    HW111940   1.975   6.428   2.077 -0.7085  0.7371 -2.1299
 3613SOL    HW211941   2.062   6.308   2.047 -0.4036 -0.2167  1.9709
 3614SOL     OW11942   6.586   1.817   6.596  0.4271  0.2494 -0.0589
 3614SOL    HW111943   6.591   1.906   6.560 -1.9808  0.5781  0.2453
 3614SOL    HW211944   6.543   1.829   6.681 -1.6556 -1.3353 -0.7987
 3615SOL     OW11945   5.307   8.600   8.604 -0.2677 -0.0659 -0.2582
 3615SOL    HW111946   5.234   8.540   8.585 -1.1005  0.7639  0.2411
 3615SOL    HW211947   5.289   8.632   8.692  0.8961 -0.0988  0.0031
 3616SOL     OW11948   8.195   7.420   4.524  0.4320 -0.1718 -0.3998
 3616SOL    HW111949   8.254   7.494   4.534 -0.8728  0.7889  0.6212
 3616SOL    HW211950   8.232   7.352   4.579 -0.5500  1.2006  2.1372
 3617SOL     OW11951   6.273   1.949   4.977 -0.2319 -0.2287  0.2444
 3617SOL    HW111952   6.196   2.005   4.965 -0.0214 -0.0128 -0.1215
 3617SOL    HW211953   6.250   1.891   5.049 -0.9772 -0.5657 -0.2469
 3618SOL     OW11954   3.730   0.724   4.281 -0.2907  0.4901 -0.6518
 3618SOL    HW111955   3.792   0.719   4.354 -0.1069 -0.6446 -0.8799
 3618SOL    HW211956   3.762   0.797   4.228  1.2146 -0.4401 -1.0843
 3619SOL     OW11957   5.037   0.237   7.900 -0.1961 -1.2543  0.6670
 3619SOL    HW111958   5.129   0.213   7.888 -0.2024 -0.9078 -0.1294
 3619SOL    HW211959   4.990   0.184   7.836 -0.4883 -0.9782  0.6536
 3620SOL     OW11960   2.491   6.307   2.591 -0.0474 -0.0989 -0.4215
 3620SOL    HW111961   2.556   6.304   2.521  1.7897  1.7001  1.0738
 3620SOL    HW211962   2.429   6.375   2.564 -0.0566 -0.2790 -0.8543
 3621SOL     OW11963   1.821   6.488   6.712 -0.0773 -0.5103  0.7458
 3621SOL    HW111964   1.742   6.542   6.698 -1.5415 -2.6291  0.4079
 3621SOL    HW211965   1.829   6.481   6.807 -0.1455 -0.1032  0.7860
 3622SOL     OW11966   3.890   8.366   6.864 -0.4985  0.1096  0.7027
 3622SOL    HW111967   3.802   8.371   6.827  0.0724  0.5489 -0.6523
 3622SOL    HW211968   3.905   8.452   6.901 -0.6280  0.0382  0.9227
 3623SOL     OW11969   5.217   7.039   7.064 -0.2288  0.2737 -0.0139
 3623SOL    HW111970   5.267   7.007   6.988  1.0516 -0.0335  0.9203
 3623SOL    HW211971   5.202   6.962   7.118 -0.8929  0.5338  0.1782
 3624SOL     OW11972   5.251   4.796   5.961  0.0908 -0.2452 -0.2802
 3624SOL    HW111973   5.307   4.873   5.971 -1.7523  1.0245  0.7113
 3624SOL    HW211974   5.233   4.792   5.867  0.1471  0.5685 -0.3312
 3625SOL     OW11975   8.575   6.608   2.328  1.1222  0.3101  0.0507
 3625SOL    HW111976   8.601   6.646   2.412 -1.9574 -0.2148  1.3497
 3625SOL    HW211977   8.566   6.684   2.270  0.1013  1.0536  1.1393
 3626SOL     OW11978   1.548   8.937   4.857  0.2685 -0.1251 -0.1965
 3626SOL    HW111979   1.579   9.024   4.880  3.3282 -0.8066 -1.2266
 3626SOL    HW211980   1.570   8.883   4.933 -1.8677 -0.0422  0.5535
 3627SOL     OW11981   5.424   0.887   8.131 -0.3584 -0.1609 -1.0121
 3627SOL    HW111982   5.470   0.869   8.213  0.9562 -2.4371 -2.1740
 3627SOL    HW211983   5.442   0.980   8.113 -0.1716  0.2158  0.9219
 3628SOL     OW11984   8.434   4.480   8.988 -0.1364  0.0020 -0.3616
 3628SOL    HW111985   8.519   4.458   8.951 -0.9288 -0.0966 -2.2368
 3628SOL    HW211986   8.443   4.461   9.082  2.1186  0.7394 -0.3657
 3629SOL     OW11987   6.483   7.878   2.591 -0.0630 -0.7422  0.3430
 3629SOL    HW111988   6.484   7.824   2.512  0.3948 -0.2167 -0.0206
 3629SOL    HW211989   6.436   7.957   2.566  0.3525 -0.4399  0.5013
 3630SOL     OW11990   5.667   1.950   7.500 -0.1565 -0.4943  0.2628
 3630SOL    HW111991   5.621   1.870   7.475  0.0292 -0.9736  1.3697
 3630SOL    HW211992   5.598   2.011   7.525 -0.3732  0.1631 -1.7837
 3631SOL     OW11993   7.783   2.022   2.789  0.2015  0.1186 -0.7743
 3631SOL    HW111994   7.820   1.997   2.704  0.9136 -1.9453  0.0852
 3631SOL    HW211995   7.827   1.965   2.852 -0.4745  1.4524  0.9740
 3632SOL     OW11996   8.199   3.030   6.235  0.2458  0.6393 -0.6157
 3632SOL    HW111997   8.107   3.032   6.262 -0.6173 -0.8220 -3.0460
 3632SOL    HW211998   8.247   3.012   6.315 -1.8546 -1.0381  0.3911
 3633SOL     OW11999   5.200   0.838   4.131  0.0625  0.1976  0.0019
 3633SOL    HW112000   5.273   0.836   4.069 -0.4740 -1.7213 -0.6478
 3633SOL    HW212001   5.146   0.762   4.107 -1.9682  1.3368  0.6893
 3634SOL     OW12002   2.753   6.350   8.167  0.0918 -0.3154 -0.2438
 3634SOL    HW112003   2.787   6.266   8.135 -1.3753 -0.3269 -1.9521
 3634SOL    HW212004   2.827   6.390   8.212  1.0519 -2.1809 -0.0625
 3635SOL     OW12005   0.491   2.956   3.695 -0.5112 -0.4191 -0.2082
 3635SOL    HW112006   0.431   2.914   3.633 -1.1852 -0.6810  0.6124
 3635SOL    HW212007   0.530   2.883   3.744  0.6230 -0.2671 -0.8397
 3636SOL     OW12008   6.811   3.142   4.934 -0.2856 -0.7703 -0.1348
 3636SOL    HW112009   6.748   3.137   4.862 -0.4986 -0.5044  0.0310
 3636SOL    HW212010   6.897   3.146   4.891 -0.4759  0.8016 -0.4262
 3637SOL     OW12011   5.426   2.331   2.024 -0.1539 -0.2138  0.1674
 3637SOL    HW112012   5.444   2.340   1.931 -2.0191  2.9491 -0.0422
 3637SOL    HW212013   5.376   2.249   2.031  0.6051 -0.8637 -1.4530
 3638SOL     OW12014   4.826   3.141   4.116  0.4407 -0.4685  0.0608
 3638SOL    HW112015   4.762   3.083   4.075 -1.3211  0.2311  1.6470
 3638SOL    HW212016   4.841   3.102   4.202  1.9333 -0.4249 -0.1614
 3639SOL     OW12017   1.379   6.391   1.465  0.6017  0.4272 -0.5789
 3639SOL    HW112018   1.400   6.466   1.409  0.0176  1.3982  0.4710
 3639SOL    HW212019   1.286   6.401   1.485  0.5764 -0.4434 -0.2095
 3640SOL     OW12020   2.124   4.564   1.823  0.4257 -0.1231 -0.3729
 3640SOL    HW112021   2.076   4.568   1.741 -0.8560 -0.6174  0.3203
 3640SOL    HW212022   2.066   4.604   1.887  0.6490 -1.2986  0.6148
 3641SOL     OW12023   3.070   4.298   8.783  0.5820 -0.2696  0.2568
 3641SOL    HW112024   3.085   4.378   8.733 -0.5056  0.1242  0.5161
 3641SOL    HW212025   2.983   4.310   8.822  0.2541 -1.6969  0.0575
 3642SOL     OW12026   4.725   3.273   8.289  0.3963 -0.5186  0.4686
 3642SOL    HW112027   4.721   3.281   8.384  0.6388 -0.4897  0.4780
 3642SOL    HW212028   4.742   3.181   8.273  0.2012 -0.5510  0.4473
 3643SOL     OW12029   5.643   5.628   6.783  0.6096 -0.3472  0.0165
 3643SOL    HW112030   5.635   5.599   6.692 -1.0156 -0.1848  0.0838
 3643SOL    HW212031   5.663   5.548   6.832  2.6346 -0.2733 -0.5733
 3644SOL     OW12032   8.733   6.734   7.692 -0.1868  0.1275  0.3929
 3644SOL    HW112033   8.672   6.748   7.620  1.5754  1.0366 -1.0313
 3644SOL    HW212034   8.754   6.641   7.688 -0.7544  0.0037  0.2810
 3645SOL     OW12035   5.423   3.517   7.814 -1.0392 -0.3842  0.4679
 3645SOL    HW112036   5.361   3.541   7.746  0.3008  1.7821 -0.0868
 3645SOL    HW212037   5.484   3.457   7.771 -1.5489 -0.8862  0.4395
 3646SOL     OW12038   4.507   0.588   3.680 -0.1657 -0.5169 -0.2471
 3646SOL    HW112039   4.537   0.518   3.623 -0.0901  0.3585 -1.3114
 3646SOL    HW212040   4.456   0.646   3.624 -1.9415 -0.7577  1.0421
 3647SOL     OW12041   4.632   7.291   4.746  0.4772  0.5017 -0.1212
 3647SOL    HW112042   4.652   7.205   4.782 -2.9169 -0.9120 -1.1265
 3647SOL    HW212043   4.664   7.287   4.656  1.1712  0.6716  0.1149
 3648SOL     OW12044   3.793   7.026   8.943  0.2684  0.3295  0.0231
 3648SOL    HW112045   3.711   7.014   8.990 -1.2754  0.2116 -2.5456
 3648SOL    HW212046   3.826   7.112   8.973 -0.9366  0.5232  0.8423
 3649SOL     OW12047   6.731   1.734   7.642  0.1363  0.1281  0.3000
 3649SOL    HW112048   6.789   1.783   7.701 -1.2661  1.5105  0.5800
 3649SOL    HW212049   6.743   1.776   7.557  1.2497 -1.0907 -0.1804
 3650SOL     OW12050   3.080   5.658   7.830  0.3543  0.4987  0.5545
 3650SOL    HW112051   3.149   5.663   7.763  1.1893 -0.4393  1.3209
 3650SOL    HW212052   3.028   5.582   7.804 -1.7278  2.3938 -1.2098
 3651SOL     OW12053   5.104   3.370   3.283 -0.0100  0.0635  0.2821
 3651SOL    HW112054   5.017   3.373   3.323 -0.3231  0.0975 -0.3774
 3651SOL    HW212055   5.124   3.277   3.275 -0.5370  0.0128 -0.6889
 3652SOL     OW12056   5.810   1.356   1.305 -0.5206 -0.1271  0.2440
 3652SOL    HW112057   5.816   1.344   1.210 -1.3764 -0.4549  0.2222
 3652SOL    HW212058   5.829   1.449   1.318  1.4703 -0.4581 -0.0501
 3653SOL     OW12059   6.020   4.887   5.982  0.2302  0.7358  0.2029
 3653SOL    HW112060   5.978   4.831   6.047 -0.4070  1.2216  0.2233
 3653SOL    HW212061   5.978   4.863   5.899 -1.2515  2.2727  0.4333
 3654SOL     OW12062   0.964   7.796   0.694 -0.0628 -0.4032  0.3938
 3654SOL    HW112063   0.919   7.863   0.746 -0.1466 -1.4066  1.6787
 3654SOL    HW212064   0.894   7.744   0.654 -0.0347 -0.7194  0.7441
 3655SOL     OW12065   5.778   0.905   3.994 -0.0097 -0.4368  0.5287
 3655SOL    HW112066   5.787   0.847   3.919 -0.5770  0.7028 -0.4453
 3655SOL    HW212067   5.686   0.900   4.018  0.0957 -0.5206  0.9327
 3656SOL     OW12068   1.464   0.838   6.689  0.6323 -0.3905 -0.5738
 3656SOL    HW112069   1.551   0.846   6.651  0.7804 -2.8372 -0.8827
 3656SOL    HW212070   1.404   0.869   6.620  1.1486 -0.2325 -0.9553
 3657SOL     OW12071   2.528   6.343   5.876 -0.1295  0.2423  0.2779
 3657SOL    HW112072   2.599   6.334   5.941 -0.3684 -1.2020  0.3783
 3657SOL    HW212073   2.559   6.410   5.816  1.5423 -0.6656  0.0687
 3658SOL     OW12074   1.379   5.108   1.165  0.4600 -0.6010 -0.3852
 3658SOL    HW112075   1.333   5.145   1.240 -0.2572  0.9443 -1.5086
 3658SOL    HW212076   1.472   5.116   1.186  0.2622 -1.1432  0.7406
 3659SOL     OW12077   2.160   2.148   2.963 -0.1824  0.3667 -0.1502
 3659SOL    HW112078   2.215   2.094   2.906 -1.2268 -2.1803  1.1087
 3659SOL    HW212079   2.217   2.171   3.037 -0.0199  0.0817 -0.1853
 3660SOL     OW12080   5.251   0.214   5.127 -0.4912 -0.5866  0.0550
 3660SOL    HW112081   5.296   0.286   5.085 -0.5936  0.3431  1.4704
 3660SOL    HW212082   5.306   0.137   5.109 -0.4595 -0.2150 -1.5793
 3661SOL     OW12083   8.487   2.545   6.786  0.5131 -0.1184 -0.4938
 3661SOL    HW112084   8.554   2.477   6.780 -0.6178 -1.2476 -0.6213
 3661SOL    HW212085   8.415   2.505   6.834 -0.4009  0.7927 -1.0490
 3662SOL     OW12086   5.358   8.386   4.295  0.4585  0.0902 -0.4157
 3662SOL    HW112087   5.405   8.439   4.359  0.3859 -0.0759 -0.2204
 3662SOL    HW212088   5.274   8.430   4.285  0.5280  0.2009 -0.5109
 3663SOL     OW12089   4.232   0.279   0.756 -0.1677  0.2641 -0.0456
 3663SOL    HW112090   4.153   0.299   0.806  0.2837  0.1676  0.7175
 3663SOL    HW212091   4.215   0.194   0.717 -0.3177  0.0988  0.3796
 3664SOL     OW12092   5.179   4.877   1.171  0.0220 -0.3177  0.3548
 3664SOL    HW112093   5.218   4.834   1.247  1.0249  1.6835  1.0528
 3664SOL    HW212094   5.106   4.927   1.207 -1.0207 -1.2553 -0.4074
 3665SOL     OW12095   2.560   4.081   8.370  0.0636 -0.1502  0.4995
 3665SOL    HW112096   2.593   4.171   8.369  1.9870 -0.7572 -2.1245
 3665SOL    HW212097   2.621   4.033   8.425  0.0266 -0.1502  0.5402
 3666SOL     OW12098   6.437   6.336   7.879 -0.1105 -0.2612 -0.3156
 3666SOL    HW112099   6.397   6.357   7.795 -1.4204 -0.8523  0.1478
 3666SOL    HW212100   6.441   6.420   7.925 -2.9837 -0.4925  0.5268
 3667SOL     OW12101   2.759   4.844   1.022 -0.0763 -0.3700 -0.8075
 3667SOL    HW112102   2.752   4.931   0.982 -1.6148 -0.6902 -1.2717
 3667SOL    HW212103   2.780   4.862   1.114  0.6502  0.4407 -1.1143
 3668SOL     OW12104   6.939   2.158   2.767  0.2637 -0.3954  0.1273
 3668SOL    HW112105   6.847   2.140   2.786  0.9124 -1.2254  2.9048
 3668SOL    HW212106   6.940   2.249   2.737 -1.5199 -0.6410 -0.8018
 3669SOL     OW12107   8.560   5.678   5.162 -0.1625  0.1198  0.2608
 3669SOL    HW112108   8.623   5.733   5.117  1.8026 -0.1693  2.4460
 3669SOL    HW212109   8.496   5.654   5.095  1.8904  0.6593 -2.0244
 3670SOL     OW12110   0.923   2.178   0.007 -0.0492 -0.3683  0.6519
 3670SOL    HW112111   0.868   2.256   0.014  1.3205  0.8678 -1.2418
 3670SOL    HW212112   0.862   2.107  -0.012 -1.4102  0.0143  3.0519
 3671SOL     OW12113   3.252   4.120   5.799 -0.5310  0.1531 -0.4860
 3671SOL    HW112114   3.167   4.164   5.786 -1.1055 -1.0923 -1.1550
 3671SOL    HW212115   3.234   4.028   5.780  0.7213 -0.3267  0.5299
 3672SOL     OW12116   8.074   7.361   6.390 -0.0124 -0.2002 -0.5225
 3672SOL    HW112117   8.088   7.309   6.311 -1.1753  1.5729 -1.9892
 3672SOL    HW212118   8.074   7.452   6.359 -1.0927  0.5271  1.4384
 3673SOL     OW12119   6.499   4.050   5.404  0.4797  0.1087 -0.1157
 3673SOL    HW112120   6.432   4.093   5.456 -0.2096  0.4053 -1.2135
 3673SOL    HW212121   6.456   3.974   5.366  1.6402 -1.5007  1.6499
 3674SOL     OW12122   2.417   0.500   7.830 -0.7754 -0.6963  0.1645
 3674SOL    HW112123   2.358   0.564   7.790  0.5754  0.0232 -0.7401
 3674SOL    HW212124   2.483   0.553   7.875  2.5332 -1.1359 -3.6035
 3675SOL     OW12125   8.274   0.237   4.736 -0.9912 -0.1339 -0.3274
 3675SOL    HW112126   8.244   0.328   4.728 -1.3605 -0.2525 -0.3302
 3675SOL    HW212127   8.327   0.236   4.815 -0.8640  0.1168 -0.4084
 3676SOL     OW12128   7.776   1.153   0.053  0.1888 -0.1411 -0.3934
 3676SOL    HW112129   7.691   1.192   0.072  0.7864  0.2509  1.6235
 3676SOL    HW212130   7.756   1.062   0.029 -0.7929  0.0068 -0.1760
 3677SOL     OW12131   0.231   5.568   2.098  0.5949  0.0154 -0.0692
 3677SOL    HW112132   0.250   5.496   2.038  0.7503  0.0808 -0.0985
 3677SOL    HW212133   0.158   5.536   2.151  1.1246 -0.4392  0.4007
 3678SOL     OW12134   7.576   2.818   6.287  0.2244  0.0104 -0.2565
 3678SOL    HW112135   7.663   2.783   6.302 -0.1223 -1.7861 -2.0678
 3678SOL    HW212136   7.526   2.745   6.250 -1.9871  1.0616  0.4686
 3679SOL     OW12137   7.881   2.820   4.875  0.2708 -0.2721 -0.3081
 3679SOL    HW112138   7.871   2.905   4.918  1.0031  0.3446 -1.3239
 3679SOL    HW212139   7.855   2.836   4.784 -0.2109 -1.2942 -0.3636
 3680SOL     OW12140   2.217   4.602   6.440 -0.8767  0.3529  0.0462
 3680SOL    HW112141   2.160   4.528   6.458 -0.7466  0.6252  1.7132
 3680SOL    HW212142   2.176   4.647   6.366 -1.6673 -0.6314 -0.1218
 3681SOL     OW12143   8.848   6.570   7.407  0.1183 -0.5249 -0.0540
 3681SOL    HW112144   8.828   6.626   7.332  0.3545 -0.7181 -0.2634
 3681SOL    HW212145   8.772   6.512   7.414 -1.0036  1.0079  1.3079
 3682SOL     OW12146   2.642   2.125   0.635  0.4303 -0.0461 -0.1192
 3682SOL    HW112147   2.673   2.146   0.547 -1.4775 -1.3151 -1.1679
 3682SOL    HW212148   2.659   2.031   0.644  0.3841  0.0295  0.7716
 3683SOL     OW12149   5.764   8.853   1.771 -0.4757 -0.2859 -0.4462
 3683SOL    HW112150   5.802   8.885   1.689 -0.3925  1.9178  0.3870
 3683SOL    HW212151   5.670   8.868   1.763 -0.4928 -0.2675 -0.2359
 3684SOL     OW12152   8.008   8.203   0.553  0.2871 -0.0449 -0.1226
 3684SOL    HW112153   7.970   8.281   0.513  0.1865  0.4507  0.8989
 3684SOL    HW212154   7.955   8.130   0.520 -0.2631  0.4246 -0.2835
 3685SOL     OW12155   2.448   5.896   2.617  0.5428  0.1082  0.0778
 3685SOL    HW112156   2.416   5.837   2.684 -0.3771 -1.2428 -1.4841
 3685SOL    HW212157   2.543   5.881   2.616  0.2285 -2.2652 -1.0447
 3686SOL     OW12158   0.539   8.801   8.277 -0.2820  0.6155 -0.0530
 3686SOL    HW112159   0.634   8.813   8.278 -0.1389 -0.4000 -0.4430
 3686SOL    HW212160   0.514   8.815   8.186 -0.1418 -1.5292 -0.4798
 3687SOL     OW12161   0.560   4.402   5.900  0.2817 -0.2214 -0.3199
 3687SOL    HW112162   0.570   4.372   5.809  0.4634 -0.1346 -0.3274
 3687SOL    HW212163   0.553   4.497   5.893  1.1606 -0.1383 -0.1701
 3688SOL     OW12164   4.843   4.401   1.504  0.1328 -0.2080 -0.3471
 3688SOL    HW112165   4.871   4.489   1.480 -1.5698  0.1482 -1.1470
 3688SOL    HW212166   4.872   4.346   1.432 -1.9477  0.3175 -1.6764
 3689SOL     OW12167   5.174   2.259   0.529  0.0429 -0.0231 -0.2447
 3689SOL    HW112168   5.120   2.329   0.565 -1.8030 -1.5043  0.0756
 3689SOL    HW212169   5.239   2.303   0.475 -0.8855  1.9279  0.1438
 3690SOL     OW12170   3.334   3.264   7.533  0.5577  0.9947  0.0189
 3690SOL    HW112171   3.425   3.248   7.509  0.3280  2.7673 -2.3194
 3690SOL    HW212172   3.338   3.341   7.590  0.4742  1.7062 -0.9154
 3691SOL     OW12173   7.400   2.483   6.495  0.0809 -0.0237  0.0725
 3691SOL    HW112174   7.348   2.484   6.576 -0.2287  0.7156 -0.1313
 3691SOL    HW212175   7.338   2.459   6.427  0.3823 -0.8294  0.0720
 3692SOL     OW12176   8.089   3.138   7.853 -0.4051  0.9074 -0.5457
 3692SOL    HW112177   8.110   3.107   7.941 -1.4906 -2.8450 -1.4563
 3692SOL    HW212178   7.993   3.149   7.854 -0.5425 -0.1092 -1.5025
 3693SOL     OW12179   7.710   1.435   4.478 -0.2403 -0.0214  0.1384
 3693SOL    HW112180   7.715   1.386   4.396  1.2871 -0.5963  0.5495
 3693SOL    HW212181   7.683   1.370   4.543  0.7089 -0.0842  0.4820
 3694SOL     OW12182   7.915   3.265   8.743  0.4600 -0.1114  0.2568
 3694SOL    HW112183   7.919   3.361   8.737  0.4564 -0.2182 -2.6728
 3694SOL    HW212184   7.828   3.242   8.712  0.7525 -1.0994  0.1247
 3695SOL     OW12185   4.918   8.567   6.969  0.0115 -0.6308  0.7379
 3695SOL    HW112186   4.950   8.646   7.012  0.6484 -0.3421 -0.2371
 3695SOL    HW212187   4.990   8.504   6.979  1.1128  0.1289 -1.7628
 3696SOL     OW12188   5.905   6.844   1.822 -0.2319  0.6067 -0.2786
 3696SOL    HW112189   5.948   6.763   1.849 -0.6277  1.0251  1.7531
 3696SOL    HW212190   5.951   6.913   1.869 -1.1631  1.3656 -0.4458
 3697SOL     OW12191   2.028   7.918   4.203 -0.1253  0.4021 -0.2290
 3697SOL    HW112192   2.020   7.825   4.184  0.3311  0.7548 -2.5103
 3697SOL    HW212193   2.107   7.926   4.257 -0.1374 -0.5130 -0.0752
 3698SOL     OW12194   0.614   3.721   1.936  0.1512 -0.6331 -0.1649
 3698SOL    HW112195   0.646   3.632   1.922  2.1148  0.1733 -1.3622
 3698SOL    HW212196   0.525   3.710   1.968  0.8967 -3.0448  1.3481
 3699SOL     OW12197   1.847   0.578   4.999 -0.1655  0.5019  0.0179
 3699SOL    HW112198   1.755   0.552   4.992  0.0855 -1.1231  1.7116
 3699SOL    HW212199   1.858   0.603   5.091  1.6056 -1.9018  0.5855
 3700SOL     OW12200   0.641   2.709   2.028  0.6080  0.5356  0.6773
 3700SOL    HW112201   0.680   2.730   2.112  1.6179  3.2858 -0.3639
 3700SOL    HW212202   0.554   2.749   2.031  0.6945  0.7533  0.4000
 3701SOL     OW12203   1.181   7.551   0.771  0.5672  0.7888  0.0348
 3701SOL    HW112204   1.200   7.467   0.727 -2.6696  0.5059 -1.0771
 3701SOL    HW212205   1.108   7.532   0.829  0.2222  2.6929  0.2874
 3702SOL     OW12206   5.007   6.110   1.025 -0.4179 -0.2468  0.1623
 3702SOL    HW112207   4.956   6.034   0.999 -0.2949 -0.5370  0.7541
 3702SOL    HW212208   5.002   6.169   0.950 -1.8644 -0.1419  0.3171
 3703SOL     OW12209   5.309   7.163   7.673  0.2828 -0.1245 -0.0061
 3703SOL    HW112210   5.403   7.163   7.656  0.2982  1.7052 -0.1768
 3703SOL    HW212211   5.281   7.252   7.650 -1.3966 -0.4782  0.5349
 3704SOL     OW12212   1.761   6.722   1.404 -0.1385  0.1132  0.5278
 3704SOL    HW112213   1.828   6.782   1.372  0.1613 -0.6075 -0.2426
 3704SOL    HW212214   1.809   6.660   1.459 -0.2569 -0.1038  0.3871
 3705SOL     OW12215   7.669   2.556   7.641  0.4252  0.2064 -0.5540
 3705SOL    HW112216   7.580   2.535   7.615  0.3150 -0.7498  0.5046
 3705SOL    HW212217   7.659   2.626   7.706  0.4847  0.4901 -0.8505
 3706SOL     OW12218   0.291   1.708   6.886  0.3353 -0.2439 -0.2291
 3706SOL    HW112219   0.262   1.730   6.797  0.3393 -1.4496 -0.5448
 3706SOL    HW212220   0.217   1.729   6.942 -0.2124 -0.8642 -0.7081
 3707SOL     OW12221   5.932   1.210   3.974  0.2477 -0.3252 -0.4005
 3707SOL    HW112222   5.881   1.267   4.031  1.7048 -0.9333  1.6206
 3707SOL    HW212223   5.991   1.269   3.927 -0.5141  0.1235 -0.8126
 3708SOL     OW12224   3.269   8.477   6.128 -0.0858  0.2893  0.0050
 3708SOL    HW112225   3.294   8.405   6.069 -0.9297  1.4957 -1.8967
 3708SOL    HW212226   3.185   8.450   6.164 -0.9309  0.7571 -1.5453
 3709SOL     OW12227   0.241   2.858   6.093  0.2785 -0.3123  0.0117
 3709SOL    HW112228   0.195   2.941   6.099  0.3686 -0.1999 -0.6898
 3709SOL    HW212229   0.220   2.812   6.174  1.6733  1.1283  1.2756
 3710SOL     OW12230   5.221   7.696   3.369 -0.0570 -0.0925 -0.0493
 3710SOL    HW112231   5.146   7.708   3.311 -1.6414  0.3436  1.9707
 3710SOL    HW212232   5.237   7.783   3.405  0.6011 -0.4457  0.5290
 3711SOL     OW12233   7.296   2.774   0.786 -0.5675 -0.5916 -0.0833
 3711SOL    HW112234   7.348   2.831   0.729 -0.6401  1.5566  1.8618
 3711SOL    HW212235   7.241   2.724   0.726  0.4093  0.4456 -1.9508
 3712SOL     OW12236   1.245   1.861   1.956 -0.0554  0.0797 -0.1171
 3712SOL    HW112237   1.208   1.927   1.897 -0.7587  1.2214  1.5102
 3712SOL    HW212238   1.252   1.907   2.040 -0.1173 -1.7995  0.9537
 3713SOL     OW12239   7.878   8.708   2.655  0.0860 -0.1719  1.0353
 3713SOL    HW112240   7.953   8.704   2.714 -0.0624 -0.7534  1.1868
 3713SOL    HW212241   7.810   8.753   2.706 -0.4795 -1.8282  1.8106
 3714SOL     OW12242   3.122   9.070   6.857  0.0501  0.0168 -0.5566
 3714SOL    HW112243   3.088   9.071   6.946  0.1561  0.0466 -0.5171
 3714SOL    HW212244   3.151   9.160   6.841  0.2496 -0.0452 -0.5384
 3715SOL     OW12245   7.016   7.337   6.357  0.2891  0.7454 -0.4563
 3715SOL    HW112246   6.938   7.342   6.301 -0.0021  0.9775 -0.0352
 3715SOL    HW212247   7.038   7.244   6.358 -0.1992  0.6297 -0.2889
 3716SOL     OW12248   6.856   0.352   3.729  0.3954  0.0777  0.4662
 3716SOL    HW112249   6.905   0.395   3.658  0.0169  1.0481  0.7819
 3716SOL    HW212250   6.917   0.287   3.764  0.4585 -0.6956 -0.9900
 3717SOL     OW12251   2.269   6.785   1.383  0.1569 -0.3423  0.3372
 3717SOL    HW112252   2.230   6.776   1.296 -0.8198 -0.3623  0.7757
 3717SOL    HW212253   2.232   6.713   1.433  0.2339  0.0481  0.9589
 3718SOL     OW12254   2.043   0.689   3.352  0.0654  0.2496 -0.2644
 3718SOL    HW112255   2.089   0.754   3.404  0.3099  0.2836 -0.5168
 3718SOL    HW212256   2.067   0.605   3.392 -0.1668  0.3064 -0.0029
 3719SOL     OW12257   4.273   5.055   7.741 -0.2588 -0.0674  0.4492
 3719SOL    HW112258   4.364   5.055   7.712  0.2562  1.1256  1.9507
 3719SOL    HW212259   4.226   5.101   7.671  0.4270  0.0168  0.0331
 3720SOL     OW12260   5.163   4.146   2.339  0.2798 -0.6674  0.0740
 3720SOL    HW112261   5.136   4.140   2.247  1.1529 -1.9033 -0.1273
 3720SOL    HW212262   5.169   4.240   2.355 -2.4331 -0.3222 -0.3308
 3721SOL     OW12263   4.721   5.271   5.504  0.1128 -0.2408  0.1178
 3721SOL    HW112264   4.757   5.194   5.461 -0.5195 -1.1476  1.1377
 3721SOL    HW212265   4.738   5.343   5.444 -0.4348 -1.3822 -1.4625
 3722SOL     OW12266   7.518   6.415   5.979 -0.1604 -0.3997  0.2809
 3722SOL    HW112267   7.603   6.458   5.975 -1.4602  2.4229  0.4716
 3722SOL    HW212268   7.485   6.419   5.890 -0.4488 -0.7004  0.3734
 3723SOL     OW12269   0.152   4.687   6.592 -0.1235 -0.5209 -0.4423
 3723SOL    HW112270   0.165   4.600   6.556 -0.4342 -1.2185  1.0382
 3723SOL    HW212271   0.080   4.724   6.542 -0.3931 -1.3548 -0.6742
 3724SOL     OW12272   0.731   3.472   4.981 -0.1611  0.0839 -0.0342
 3724SOL    HW112273   0.651   3.519   4.956 -0.7445 -1.2663 -0.7892
 3724SOL    HW212274   0.705   3.380   4.988  0.6466 -0.0564  2.6920
 3725SOL     OW12275   4.390   7.066   2.291  0.3370 -0.3443 -0.2460
 3725SOL    HW112276   4.475   7.102   2.265  0.3735  1.9924  2.6350
 3725SOL    HW212277   4.411   6.997   2.354  0.1552  1.3801  1.7758
 3726SOL     OW12278   4.309   2.398   7.785 -0.2032  0.1959 -0.3925
 3726SOL    HW112279   4.323   2.336   7.713  0.9111 -0.2576  0.1923
 3726SOL    HW212280   4.258   2.348   7.849  0.7618 -0.1487  0.1130
 3727SOL     OW12281   5.751   7.768   7.380 -0.1779 -0.1262 -0.0761
 3727SOL    HW112282   5.656   7.755   7.389 -0.2700  0.2989 -0.3644
 3727SOL    HW212283   5.790   7.693   7.424 -0.6738 -1.0317 -1.1240
 3728SOL     OW12284   1.565   3.220   3.039 -0.3375 -0.0178 -0.0819
 3728SOL    HW112285   1.654   3.209   3.072  0.5084  1.4371 -1.7225
 3728SOL    HW212286   1.568   3.301   2.989 -3.0380  1.0110  1.2303
 3729SOL     OW12287   3.266   1.394   4.250  0.5272  0.7476 -0.0646
 3729SOL    HW112288   3.191   1.426   4.300 -0.3142 -0.7562 -0.3282
 3729SOL    HW212289   3.259   1.439   4.166 -1.3235 -0.9022 -0.8671
 3730SOL     OW12290   8.811   7.798   5.983  0.4340  0.3309  0.2575
 3730SOL    HW112291   8.744   7.786   5.917  0.2584  0.0099  0.4919
 3730SOL    HW212292   8.772   7.860   6.046  0.8905  1.2365 -0.3301
 3731SOL     OW12293   7.258   1.603   1.317  0.3113  0.7392  0.2725
 3731SOL    HW112294   7.261   1.556   1.400 -0.5604  0.7476  0.3197
 3731SOL    HW212295   7.343   1.647   1.311 -0.1292  1.9171  1.8524
 3732SOL     OW12296   5.543   4.996   8.166 -0.1619  0.3818 -0.0620
 3732SOL    HW112297   5.599   5.006   8.088 -0.4606  1.6147 -0.1331
 3732SOL    HW212298   5.590   4.933   8.221  1.4799  1.6071  0.0220
 3733SOL     OW12299   5.331   8.947   8.874  0.6482 -0.2346 -0.9237
 3733SOL    HW112300   5.314   8.974   8.783  0.1186  3.3708  0.0542
 3733SOL    HW212301   5.248   8.909   8.903  0.4808 -0.4467 -1.6678
 3734SOL     OW12302   4.151   5.318   5.534 -0.0713 -0.3068  0.0587
 3734SOL    HW112303   4.245   5.309   5.552 -0.2670 -2.1929  0.4183
 3734SOL    HW212304   4.109   5.293   5.617 -0.8910 -1.4143 -0.6659
 3735SOL     OW12305   9.117   2.505   0.094  0.0336  0.0039 -0.5747
 3735SOL    HW112306   9.063   2.583   0.083  1.6764  1.1448 -0.8487
 3735SOL    HW212307   9.078   2.441   0.034 -1.4815  0.4863 -0.1665
 3736SOL     OW12308   5.934   4.969   1.045  0.4200 -0.1507 -0.3679
 3736SOL    HW112309   5.980   4.981   0.962  1.5643  0.3033  0.3069
 3736SOL    HW212310   6.004   4.965   1.111 -0.5151  0.8546  0.7313
 3737SOL     OW12311   2.206   8.105   4.081 -0.2859  0.1761  0.1463
 3737SOL    HW112312   2.117   8.075   4.097 -0.0555 -0.2855  0.5692
 3737SOL    HW212313   2.262   8.039   4.121  0.2365  1.0900  0.9761
 3738SOL     OW12314   2.342   6.103   0.758  0.5367  0.3371 -0.5184
 3738SOL    HW112315   2.333   6.018   0.800  1.3861  0.1521 -0.6992
 3738SOL    HW212316   2.409   6.090   0.692  3.2782  1.9691  1.7224
 3739SOL     OW12317   5.231   4.042   0.503  0.2393  0.3293 -0.2687
 3739SOL    HW112318   5.154   3.996   0.536  0.6084 -0.5623 -0.6040
 3739SOL    HW212319   5.198   4.126   0.471 -1.0763 -1.0290 -2.8026
 3740SOL     OW12320   9.072   6.934   1.948 -0.5489 -0.0366  0.0936
 3740SOL    HW112321   9.070   6.939   1.853 -2.7046 -1.5582 -0.0087
 3740SOL    HW212322   9.164   6.950   1.971  0.6344 -2.5064 -2.4236
 3741SOL     OW12323   2.059   4.964   0.411  0.2126 -0.2384  0.1769
 3741SOL    HW112324   2.043   5.013   0.330  1.6795 -0.4971 -0.3042
 3741SOL    HW212325   1.972   4.940   0.442 -0.5625  2.4104  0.2718
 3742SOL     OW12326   4.272   7.591   8.880  0.1248 -0.0789 -0.1996
 3742SOL    HW112327   4.301   7.572   8.969  1.3865  1.6306 -0.1875
 3742SOL    HW212328   4.193   7.538   8.868  0.8944 -1.6492  1.3033
 3743SOL     OW12329   8.938   8.335   1.428  0.1004  0.3224  0.3713
 3743SOL    HW112330   8.892   8.348   1.345  0.7164  0.4335  0.0373
 3743SOL    HW212331   9.031   8.349   1.406  0.3095 -0.0647  0.9863
 3744SOL     OW12332   1.667   4.452   2.366 -0.1597 -0.5239  0.0381
 3744SOL    HW112333   1.724   4.487   2.435  2.0059 -0.5134 -1.6439
 3744SOL    HW212334   1.668   4.357   2.380 -0.0558 -0.4925  0.2457
 3745SOL     OW12335   4.572   7.199   3.553  0.2010  0.1748  0.3155
 3745SOL    HW112336   4.515   7.126   3.579  0.7876 -0.0879  0.9045
 3745SOL    HW212337   4.586   7.248   3.634  0.2118  0.6648  0.0224
 3746SOL     OW12338   0.548   6.875   5.245 -0.2097  0.8656  0.3123
 3746SOL    HW112339   0.582   6.788   5.225  0.8008  1.0174  1.2621
 3746SOL    HW212340   0.466   6.859   5.291  0.5588  0.3566  1.5557
 3747SOL     OW12341   2.096   1.111   4.196  0.6380 -0.0763 -0.2637
 3747SOL    HW112342   2.044   1.130   4.274 -1.1771 -1.9342 -0.9013
 3747SOL    HW212343   2.031   1.096   4.128  2.1727  2.6045 -2.5053
 3748SOL     OW12344   7.859   6.330   7.249  0.2058 -0.1148  0.6419
 3748SOL    HW112345   7.787   6.313   7.188  0.0724  0.1479  0.7245
 3748SOL    HW212346   7.835   6.284   7.329 -0.2850  0.6522  0.9571
 3749SOL     OW12347   0.779   1.003   0.899  0.0198 -0.4624 -0.6107
 3749SOL    HW112348   0.822   0.941   0.840 -3.1008 -1.7905 -1.6687
 3749SOL    HW212349   0.811   0.980   0.986  2.3503 -0.5042 -1.4067
 3750SOL     OW12350   7.987   5.721   2.246  0.8894 -0.0399 -0.2582
 3750SOL    HW112351   8.064   5.719   2.190  0.1053  0.5466 -1.3750
 3750SOL    HW212352   7.987   5.808   2.285  0.1689  0.3900 -1.1787
 3751SOL     OW12353   6.876   7.862   0.023 -0.6564 -0.1216  0.1440
 3751SOL    HW112354   6.811   7.901  -0.035 -0.4506 -0.8739 -0.6132
 3751SOL    HW212355   6.959   7.900  -0.005 -0.7327  0.7280  1.0145
 3752SOL     OW12356   4.889   5.232   6.471 -0.2703 -0.1755  0.1027
 3752SOL    HW112357   4.913   5.140   6.463  1.2070  0.1690  0.2876
 3752SOL    HW212358   4.911   5.270   6.386  1.9058  0.5748  0.9442
 3753SOL     OW12359   4.426   8.724   7.690 -0.2197 -0.9651  0.8837
 3753SOL    HW112360   4.458   8.717   7.600 -0.0148 -0.0752  0.8732
 3753SOL    HW212361   4.461   8.647   7.734  1.6131 -0.2655  0.7618
 3754SOL     OW12362   3.863   0.114   4.598 -0.2970  0.4039 -0.0748
 3754SOL    HW112363   3.881   0.083   4.687 -0.9894  0.5337  0.1190
 3754SOL    HW212364   3.877   0.038   4.542 -0.5182  0.1379  0.2295
 3755SOL     OW12365   6.232   3.588   6.191  0.4276 -0.7902  0.2560
 3755SOL    HW112366   6.288   3.664   6.174 -0.1277  0.1126  2.1942
 3755SOL    HW212367   6.293   3.519   6.219  0.8880 -0.9569 -1.0782
 3756SOL     OW12368   2.317   8.076   2.302 -0.4934  0.4375  0.1717
 3756SOL    HW112369   2.281   8.155   2.341  0.5148  1.6356 -1.1793
 3756SOL    HW212370   2.404   8.067   2.342 -0.8270 -0.3256  0.7394
 3757SOL     OW12371   5.212   7.931   8.420  0.3700 -0.4672  0.2954
 3757SOL    HW112372   5.181   7.841   8.411  0.0498 -0.1698 -2.6223
 3757SOL    HW212373   5.290   7.936   8.365 -0.2742  1.2820 -0.5563
 3758SOL     OW12374   8.316   3.376   0.756 -0.0356  0.2238  0.1250
 3758SOL    HW112375   8.303   3.282   0.770  0.7250  0.4007  2.6191
 3758SOL    HW212376   8.383   3.381   0.688 -0.7755 -1.0083 -0.7193
 3759SOL     OW12377   4.644   1.078   1.221 -0.2863 -0.0506 -0.6302
 3759SOL    HW112378   4.629   1.120   1.136 -1.0952 -0.0851 -0.5143
 3759SOL    HW212379   4.588   1.125   1.282 -1.5191 -1.5100 -0.5757
 3760SOL     OW12380   8.240   6.051   2.602 -0.4074 -0.3081  0.0152
 3760SOL    HW112381   8.272   5.961   2.596  1.3196  0.1608  1.3427
 3760SOL    HW212382   8.295   6.092   2.669 -1.0212  1.7934 -0.6769
 3761SOL     OW12383   1.967   0.156   6.163  1.0004  0.8824 -0.8932
 3761SOL    HW112384   1.903   0.190   6.099 -0.1810 -1.9329 -1.3368
 3761SOL    HW212385   2.016   0.089   6.115  0.7082 -0.6594  0.8679
 3762SOL     OW12386   0.766   8.956   4.956  0.0335  0.0175 -0.3101
 3762SOL    HW112387   0.744   9.011   5.031 -1.1659 -1.6237  0.6081
 3762SOL    HW212388   0.814   8.882   4.993  1.5393  0.3431 -1.5034
 3763SOL     OW12389   4.379   2.625   2.989 -0.0548 -0.2892 -0.4264
 3763SOL    HW112390   4.439   2.555   2.965 -0.3524 -0.5633 -0.3881
 3763SOL    HW212391   4.416   2.661   3.070  0.6615  0.2906 -1.0035
 3764SOL     OW12392   0.299   5.865   4.182  0.1334  0.5167  0.3647
 3764SOL    HW112393   0.261   5.854   4.270  0.3402 -0.2454  0.3651
 3764SOL    HW212394   0.223   5.881   4.125 -0.4518 -2.5323  0.0940
 3765SOL     OW12395   4.256   9.131   8.207 -0.2741 -0.3946  0.4820
 3765SOL    HW112396   4.214   9.216   8.193 -0.9533 -0.5051  1.7208
 3765SOL    HW212397   4.215   9.097   8.286  1.4315 -0.9874  1.1527
 3766SOL     OW12398   8.967   2.617   2.298  0.3052 -0.5196 -0.1144
 3766SOL    HW112399   8.941   2.639   2.387  1.2547  0.5704 -0.0860
 3766SOL    HW212400   8.897   2.652   2.243 -1.1195 -2.5939  0.2289
 3767SOL     OW12401   3.762   1.940   8.389 -0.4860 -0.1664 -0.6503
 3767SOL    HW112402   3.797   1.853   8.372  0.6084 -0.1045  1.0663
 3767SOL    HW212403   3.815   1.999   8.335  1.2016 -0.2299  0.8510
 3768SOL     OW12404   5.838   3.987   6.920  0.4429  0.3354 -0.3402
 3768SOL    HW112405   5.902   4.004   6.851  1.2212  0.3301  0.3602
 3768SOL    HW212406   5.866   3.905   6.959 -0.6471 -0.2339 -0.7373
 3769SOL     OW12407   2.988   7.538   6.066 -0.0183 -0.1844  0.1088
 3769SOL    HW112408   2.917   7.597   6.090  0.7391  1.3744 -1.2386
 3769SOL    HW212409   2.962   7.502   5.981  0.0794 -0.8770  0.3643
 3770SOL     OW12410   0.235   0.524   8.762  0.0137  0.3281  0.1699
 3770SOL    HW112411   0.320   0.504   8.724  0.2187  0.6830  0.4252
 3770SOL    HW212412   0.209   0.607   8.723 -1.0340 -0.6070 -1.2193
 3771SOL     OW12413   0.993   1.652   6.998  0.2302  0.1366 -0.2660
 3771SOL    HW112414   1.034   1.697   6.925  2.1335 -1.2689 -0.1434
 3771SOL    HW212415   1.000   1.712   7.072  1.6569  0.1329 -0.3807
 3772SOL     OW12416   5.208   7.459   0.194 -0.1164  0.1480  0.1388
 3772SOL    HW112417   5.276   7.457   0.262  0.8627  0.9905 -0.7761
 3772SOL    HW212418   5.139   7.514   0.231  0.2336  0.2891  0.6013
 3773SOL     OW12419   8.340   8.556   6.790  0.0955 -0.6873  0.1188
 3773SOL    HW112420   8.257   8.508   6.788  0.3532 -1.1182 -0.8650
 3773SOL    HW212421   8.314   8.647   6.804 -0.6070 -0.7076 -0.9297
 3774SOL     OW12422   2.344   1.268   7.797 -0.3163  0.3266 -0.4835
 3774SOL    HW112423   2.339   1.292   7.704 -0.4579  0.9708 -0.3146
 3774SOL    HW212424   2.257   1.234   7.817 -0.5982  1.0841 -0.3579
 3775SOL     OW12425   8.218   6.844   6.688  0.5922 -0.0271 -0.1762
 3775SOL    HW112426   8.242   6.764   6.641  1.6320 -0.5662  1.2063
 3775SOL    HW212427   8.176   6.814   6.768 -1.4414  0.8839 -0.8476
 3776SOL     OW12428   4.367   3.221   7.958  0.1381 -0.0300  0.6477
 3776SOL    HW112429   4.389   3.286   8.025  0.2154  0.9120 -0.2519
 3776SOL    HW212430   4.280   3.247   7.927  0.8987  0.7699 -0.9581
 3777SOL     OW12431   6.389   3.590   7.056  0.2850  0.1370  0.1045
 3777SOL    HW112432   6.477   3.629   7.054 -0.5211  2.0798 -1.9175
 3777SOL    HW212433   6.393   3.519   6.993 -0.2160  1.9840 -2.1648
 3778SOL     OW12434   3.104   0.617   7.885 -0.2198 -0.0518 -0.1402
 3778SOL    HW112435   3.174   0.561   7.852  0.8803  0.4925  1.2034
 3778SOL    HW212436   3.043   0.624   7.812  1.0324 -0.6697 -1.2870
 3779SOL     OW12437   4.809   3.028   3.485  0.3352  0.1018 -0.3812
 3779SOL    HW112438   4.795   2.948   3.536  1.7256  0.4237  0.5824
 3779SOL    HW212439   4.824   3.096   3.552 -4.4905  2.0721 -0.9463
 3780SOL     OW12440   0.221   8.176   5.195  0.0501 -0.0555  0.2053
 3780SOL    HW112441   0.289   8.145   5.255  1.6470 -0.4476 -1.7367
 3780SOL    HW212442   0.230   8.272   5.198  0.4200 -0.0878  0.2659
 3781SOL     OW12443   8.462   5.519   0.867 -0.0679 -0.1533  0.2643
 3781SOL    HW112444   8.418   5.522   0.951 -0.0096  2.3674  0.2767
 3781SOL    HW212445   8.541   5.572   0.879  0.5062 -0.6604 -1.0707
 3782SOL     OW12446   1.414   1.769   1.582 -0.5330 -0.1595  0.1240
 3782SOL    HW112447   1.403   1.722   1.500  1.0319  0.8419 -0.7143
 3782SOL    HW212448   1.326   1.796   1.607 -1.0222 -0.4111 -1.2668
 3783SOL     OW12449   7.226   8.415   8.860  0.4179 -0.2874 -0.2620
 3783SOL    HW112450   7.200   8.365   8.937 -0.1503  0.2565 -0.0940
 3783SOL    HW212451   7.145   8.454   8.828  0.9859  1.3132  0.1692
 3784SOL     OW12452   6.402   7.657   2.722  0.2862  0.2569  0.4589
 3784SOL    HW112453   6.384   7.723   2.789  0.9022  1.0592 -0.1438
 3784SOL    HW212454   6.444   7.706   2.651 -1.4106 -0.3399 -1.0408
 3785SOL     OW12455   3.427   5.054   7.282 -0.2435 -0.1700  0.0487
 3785SOL    HW112456   3.452   5.128   7.227 -2.5170  0.8896  0.3269
 3785SOL    HW212457   3.502   5.040   7.339  0.5963  1.3042 -0.6438
 3786SOL     OW12458   5.830   0.508   6.329  0.0988 -0.2892 -0.5034
 3786SOL    HW112459   5.774   0.452   6.274 -0.8158  0.0549  0.0451
 3786SOL    HW212460   5.796   0.495   6.418  1.1429 -0.3483 -0.1040
 3787SOL     OW12461   5.511   7.215   2.181 -0.0702 -0.1322  0.0478
 3787SOL    HW112462   5.584   7.246   2.127 -0.4978 -0.0693 -0.4903
 3787SOL    HW212463   5.435   7.265   2.152 -0.2184  0.2533  1.0391
 3788SOL     OW12464   0.667   0.165   6.866  0.1461 -0.1483  0.2266
 3788SOL    HW112465   0.759   0.160   6.841 -0.3337 -1.2324 -1.4531
 3788SOL    HW212466   0.655   0.092   6.927  0.1555 -0.7499 -0.4712
 3789SOL     OW12467   7.314   7.940   4.771 -0.0652  0.0474 -0.1135
 3789SOL    HW112468   7.351   7.859   4.807  0.8964 -0.6423 -2.4450
 3789SOL    HW212469   7.373   8.009   4.802 -0.0547 -0.3273  0.7158
 3790SOL     OW12470   5.918   6.859   0.772  0.0641 -0.1416  0.3627
 3790SOL    HW112471   5.876   6.906   0.844  0.4499  0.6675  0.0777
 3790SOL    HW212472   6.003   6.903   0.761  0.4657 -0.9505  0.1222
 3791SOL     OW12473   2.549   3.403   5.736 -0.4611  0.0235 -0.4184
 3791SOL    HW112474   2.491   3.452   5.678 -0.4130 -1.0885 -1.4358
 3791SOL    HW212475   2.550   3.454   5.817 -0.9176  1.3485 -1.2143
 3792SOL     OW12476   0.067   5.585   3.273 -0.3994 -0.3595  0.1999
 3792SOL    HW112477  -0.018   5.546   3.293  1.1224 -3.2001  1.6719
 3792SOL    HW212478   0.084   5.559   3.182 -1.1278  0.4257 -0.1856
 3793SOL     OW12479   2.848   7.367   8.271 -0.6839 -0.1046  0.0664
 3793SOL    HW112480   2.792   7.304   8.227  0.7068 -0.5854 -1.1093
 3793SOL    HW212481   2.937   7.344   8.243 -0.0477  1.7890  0.3381
 3794SOL     OW12482   5.965   1.181   7.299 -0.8003 -0.0077  0.5528
 3794SOL    HW112483   5.883   1.143   7.265  0.5927 -1.9484 -0.8919
 3794SOL    HW212484   6.016   1.105   7.327  0.6683  1.1382  1.0887
 3795SOL     OW12485   7.407   1.126   0.872 -0.5670 -0.0472  0.1767
 3795SOL    HW112486   7.347   1.120   0.945  1.0432  1.9098  1.7881
 3795SOL    HW212487   7.488   1.084   0.903 -0.2086 -0.2261 -0.9241
 3796SOL     OW12488   0.296   0.635   1.460  0.1527 -0.2062 -0.6171
 3796SOL    HW112489   0.386   0.641   1.429  0.9824  0.6133  1.7211
 3796SOL    HW212490   0.273   0.725   1.483 -0.7916 -0.6129  0.0924
 3797SOL     OW12491   8.943   7.207   2.975  0.1241  0.0384 -0.6060
 3797SOL    HW112492   8.906   7.127   2.939  2.2871 -1.4719  0.3374
 3797SOL    HW212493   9.036   7.188   2.985  0.4489  2.1616  1.0326
 3798SOL     OW12494   1.187   2.386   7.811  0.1265 -0.2143 -0.2167
 3798SOL    HW112495   1.207   2.342   7.893 -0.8623 -2.5727 -1.1468
 3798SOL    HW212496   1.107   2.436   7.829 -0.3087 -1.0313  0.1742
 3799SOL     OW12497   8.031   6.942   8.231 -0.0363 -0.1630 -0.5742
 3799SOL    HW112498   7.964   6.890   8.187  1.1768 -2.8097  0.4988
 3799SOL    HW212499   8.098   6.957   8.164  0.1844 -1.1019 -0.5691
 3800SOL     OW12500   4.777   5.287   5.804  0.1608 -0.1691  0.2400
 3800SOL    HW112501   4.715   5.217   5.824  0.1106 -0.0685  0.4346
 3800SOL    HW212502   4.784   5.286   5.708 -0.0415 -0.2662  0.2259
 3801SOL     OW12503   8.507   8.650   6.485  0.1708  0.3053 -0.7940
 3801SOL    HW112504   8.528   8.656   6.578  0.7759 -0.7463 -0.8468
 3801SOL    HW212505   8.413   8.669   6.481  0.5372  2.5339 -0.2512
 3802SOL     OW12506   7.472   4.450   4.595 -0.2198  0.0052 -0.4420
 3802SOL    HW112507   7.454   4.356   4.605 -1.7947  0.2744 -0.3977
 3802SOL    HW212508   7.399   4.482   4.542 -0.5136  1.4411  0.7560
 3803SOL     OW12509   8.318   1.155   3.647 -0.6878  0.6230 -0.0103
 3803SOL    HW112510   8.378   1.134   3.718 -0.7786  1.5608  0.3562
 3803SOL    HW212511   8.374   1.181   3.574 -0.4292 -2.9942 -1.2900
 3804SOL     OW12512   3.934   0.862   0.855  0.0283 -0.3933 -0.0583
 3804SOL    HW112513   3.949   0.888   0.946 -1.6759  2.0935 -0.3806
 3804SOL    HW212514   4.012   0.889   0.808 -0.9497  2.8692 -0.0515
 3805SOL     OW12515   7.987   3.944   3.600 -0.0298  0.3395  0.0199
 3805SOL    HW112516   7.992   4.026   3.649  2.1914 -0.1291  0.7181
 3805SOL    HW212517   8.013   3.877   3.664 -1.0771 -0.8148 -0.7354
 3806SOL     OW12518   6.654   8.595   4.792 -0.2122  0.1500 -0.2077
 3806SOL    HW112519   6.635   8.670   4.735 -1.0628 -0.2432 -0.4568
 3806SOL    HW212520   6.625   8.623   4.879  0.4208  0.4840 -0.1013
 3807SOL     OW12521   8.768   7.972   8.454  0.0544 -0.1935  0.4465
 3807SOL    HW112522   8.723   8.018   8.382  0.6269  0.1834  0.3215
 3807SOL    HW212523   8.738   8.017   8.533  0.6363  0.4342  0.3225
 3808SOL     OW12524   3.606   3.578   3.960  0.7212 -0.2050 -0.3631
 3808SOL    HW112525   3.553   3.547   3.887  0.1606 -0.0195 -0.0422
 3808SOL    HW212526   3.551   3.643   4.004  1.3277  0.1996 -0.1912
 3809SOL     OW12527   0.853   1.366   5.604 -0.2552 -0.2499  0.7283
 3809SOL    HW112528   0.887   1.306   5.537  1.8008 -0.3865  1.8098
 3809SOL    HW212529   0.800   1.310   5.661 -0.7685 -0.4315  0.0908
 3810SOL     OW12530   0.286   2.384   4.074 -0.5045  0.2694 -0.0001
 3810SOL    HW112531   0.352   2.407   4.008 -0.6769  0.4831 -0.0992
 3810SOL    HW212532   0.242   2.466   4.093 -0.1921  0.2886  0.6779
 3811SOL     OW12533   8.582   1.123   8.549 -0.0135 -0.7489 -0.5098
 3811SOL    HW112534   8.640   1.097   8.477  0.3758  0.7049 -0.7540
 3811SOL    HW212535   8.510   1.170   8.507 -1.4061 -2.5119 -0.2028
 3812SOL     OW12536   1.608   0.412   1.563 -0.0326 -0.1421 -0.1178
 3812SOL    HW112537   1.611   0.355   1.640  0.4158  0.1879  0.1133
 3812SOL    HW212538   1.700   0.428   1.542 -0.1175  2.2333  1.1012
 3813SOL     OW12539   7.045   0.630   3.153  0.0655 -0.0994  0.3044
 3813SOL    HW112540   7.016   0.693   3.219 -0.7701  1.0527 -1.1021
 3813SOL    HW212541   7.113   0.676   3.104  0.8643 -1.0381  0.5023
 3814SOL     OW12542   7.289   4.810   4.617  0.2833 -0.4982 -0.3595
 3814SOL    HW112543   7.362   4.860   4.654 -0.9062 -0.1668  1.7817
 3814SOL    HW212544   7.295   4.724   4.660 -0.0093 -0.8010 -0.9223
 3815SOL     OW12545   5.343   3.226   8.625  0.1777  0.2999  0.0911
 3815SOL    HW112546   5.383   3.306   8.591  1.4494 -0.4414 -0.2142
 3815SOL    HW212547   5.385   3.155   8.575 -1.8387 -0.5064 -0.5650
 3816SOL     OW12548   8.286   7.166   0.486  0.2399 -0.7295  0.1323
 3816SOL    HW112549   8.337   7.239   0.450  1.8432 -0.9549  1.8081
 3816SOL    HW212550   8.292   7.097   0.420 -0.1561  0.1605 -0.8611
 3817SOL     OW12551   2.123   7.761   0.235 -0.5315  0.1804  0.3705
 3817SOL    HW112552   2.193   7.807   0.281  0.4704 -0.5913 -0.3260
 3817SOL    HW212553   2.049   7.822   0.235 -0.3602  0.4375  2.4012
 3818SOL     OW12554   5.228   4.306   7.918  0.6732  0.1629 -0.1617
 3818SOL    HW112555   5.220   4.371   7.988  1.6463  0.7126 -0.5470
 3818SOL    HW212556   5.201   4.223   7.959 -1.6403  0.9583  0.0407
 3819SOL     OW12557   6.515   5.204   5.158  0.2675 -0.2821  0.2217
 3819SOL    HW112558   6.531   5.294   5.186  0.5205 -0.5008  0.7900
 3819SOL    HW212559   6.572   5.151   5.213  0.2179 -0.7820 -0.2031
 3820SOL     OW12560   3.713   2.314   4.419 -0.4296 -0.4205 -0.1433
 3820SOL    HW112561   3.802   2.325   4.386  0.0096 -1.3862  0.6787
 3820SOL    HW212562   3.659   2.309   4.340  0.4392 -1.3745 -0.7062
 3821SOL     OW12563   4.018   5.042   0.194 -0.0152  0.2597  0.3048
 3821SOL    HW112564   3.932   5.011   0.223 -0.1368  0.4360  0.1335
 3821SOL    HW212565   4.024   5.013   0.103  0.3468 -0.2548  0.4880
 3822SOL     OW12566   1.939   0.878   2.811  0.0006 -0.2850 -0.4151
 3822SOL    HW112567   1.994   0.921   2.876 -0.7110  1.0701 -0.6760
 3822SOL    HW212568   1.972   0.788   2.807  2.1358  0.4415 -0.4963
 3823SOL     OW12569   6.969   0.176   4.721  0.2307 -0.3248 -0.0960
 3823SOL    HW112570   6.930   0.105   4.772  1.4929 -0.4669  0.7308
 3823SOL    HW212571   6.933   0.165   4.633 -0.3364 -1.4007  0.2508
 3824SOL     OW12572   7.130   7.506   5.789  0.4928 -0.4349 -0.0257
 3824SOL    HW112573   7.081   7.528   5.710  0.6369 -0.9957 -0.2800
 3824SOL    HW212574   7.222   7.519   5.765  0.4540  1.9135  0.8610
 3825SOL     OW12575   5.006   2.213   7.209 -0.2123 -0.0651  0.1203
 3825SOL    HW112576   5.039   2.124   7.202  1.7665  0.7631 -2.7362
 3825SOL    HW212577   5.064   2.256   7.272  1.2858  0.1465 -1.3574
 3826SOL     OW12578   3.915   5.587   8.701 -0.2830 -1.1122  0.0257
 3826SOL    HW112579   3.956   5.524   8.641 -0.2303 -0.0922 -1.0323
 3826SOL    HW212580   3.967   5.666   8.692 -2.2623  0.1383 -1.1456
 3827SOL     OW12581   2.405   0.083   0.789  0.6159  0.6428 -0.1573
 3827SOL    HW112582   2.365   0.016   0.734 -0.2353  0.1354  1.0484
 3827SOL    HW212583   2.382   0.166   0.745  2.0944  0.1941 -1.9213
 3828SOL     OW12584   0.529   0.310   8.258 -0.2545  0.0015 -0.2214
 3828SOL    HW112585   0.438   0.278   8.263 -0.0631 -0.4285  1.1282
 3828SOL    HW212586   0.581   0.236   8.288  0.2650  1.2651  2.2974
 3829SOL     OW12587   8.626   0.722   3.919 -0.5502 -0.0054 -0.0632
 3829SOL    HW112588   8.621   0.788   3.989  0.6452  0.3448 -0.2818
 3829SOL    HW212589   8.540   0.726   3.877 -0.5710  1.2962  0.0450
 3830SOL     OW12590   2.629   4.991   2.626  0.0600  0.4267  0.2518
 3830SOL    HW112591   2.544   5.012   2.664 -0.0397  1.2354 -0.3954
 3830SOL    HW212592   2.611   4.975   2.533  0.6884  1.1665 -0.0073
 3831SOL     OW12593   0.774   6.365   4.173 -0.4359  0.0620  0.2704
 3831SOL    HW112594   0.808   6.281   4.141 -0.6285  0.3201 -0.6231
 3831SOL    HW212595   0.708   6.340   4.239 -1.4954 -0.5466 -0.9687
 3832SOL     OW12596   2.066   5.876   2.685  0.1655  0.1709  0.3576
 3832SOL    HW112597   2.009   5.913   2.617  0.3375  0.1198  0.1857
 3832SOL    HW212598   2.110   5.951   2.723  2.0631  0.0118 -1.3688
 3833SOL     OW12599   7.261   6.305   6.929 -0.6958 -0.3219  1.1520
 3833SOL    HW112600   7.206   6.301   7.007  0.6873  0.4901  2.2300
 3833SOL    HW212601   7.349   6.325   6.963 -0.3585  1.7389 -0.7243
 3834SOL     OW12602   7.226   3.934   3.531  0.7778  0.2818 -0.3995
 3834SOL    HW112603   7.238   3.878   3.455 -0.3654 -0.0351 -0.3568
 3834SOL    HW212604   7.208   3.873   3.603 -0.4589  0.6912 -0.3480
 3835SOL     OW12605   6.503   2.228   8.755  0.0562 -0.0164 -0.3487
 3835SOL    HW112606   6.420   2.226   8.801 -1.3013  0.6414 -2.6284
 3835SOL    HW212607   6.488   2.285   8.680  2.0061 -1.3994 -1.8973
 3836SOL     OW12608   8.447   8.292   1.691 -0.5042 -0.0909 -0.2554
 3836SOL    HW112609   8.365   8.339   1.706  0.2707  1.0116  0.6492
 3836SOL    HW212610   8.511   8.359   1.669  0.0746 -0.9857 -1.4433
 3837SOL     OW12611   2.813   6.344   5.332  0.0104  0.0283 -0.1627
 3837SOL    HW112612   2.893   6.295   5.312 -0.3098  0.3485 -2.3919
 3837SOL    HW212613   2.743   6.298   5.286 -0.4356  2.0148 -1.5999
 3838SOL     OW12614   4.292   1.840   1.223  0.1726 -0.1843 -0.4934
 3838SOL    HW112615   4.294   1.789   1.304  3.0268  0.6101  0.0453
 3838SOL    HW212616   4.234   1.914   1.243  1.2812  0.3165  1.0564
 3839SOL     OW12617   4.789   2.143   3.353 -0.3191  0.4849 -0.2476
 3839SOL    HW112618   4.703   2.104   3.335  0.4420 -0.3407 -2.4451
 3839SOL    HW212619   4.769   2.222   3.403 -2.5295  1.1581 -2.0014
 3840SOL     OW12620   4.890   0.947   2.854 -0.0740  0.0241  0.0223
 3840SOL    HW112621   4.800   0.925   2.831 -0.6705  2.1077  0.1722
 3840SOL    HW212622   4.931   0.968   2.770  0.3844 -1.1353 -0.0731
 3841SOL     OW12623   3.939   3.772   3.184  0.2448  0.4859 -0.1055
 3841SOL    HW112624   3.860   3.820   3.210  0.2460 -0.1141  1.0805
 3841SOL    HW212625   4.009   3.838   3.185 -0.2212  1.0346 -1.2272
 3842SOL     OW12626   2.179   0.025   4.838 -0.0559  0.0461 -0.6588
 3842SOL    HW112627   2.274   0.009   4.832 -0.0557  0.3144 -1.6119
 3842SOL    HW212628   2.143  -0.018   4.761 -0.6316  0.4815 -0.6381
 3843SOL     OW12629   9.128   5.460   1.658 -0.3299  0.3270  0.2479
 3843SOL    HW112630   9.102   5.419   1.740  0.7512 -0.8569  0.0304
 3843SOL    HW212631   9.046   5.471   1.610 -0.7025 -1.5055  0.3741
 3844SOL     OW12632   0.772   1.748   6.479 -0.6194  0.1462 -0.3607
 3844SOL    HW112633   0.783   1.840   6.501  0.4768 -0.0793  0.1448
 3844SOL    HW212634   0.678   1.733   6.479 -0.9010  1.6081 -1.9740
 3845SOL     OW12635   5.355   3.858   7.931 -0.6639  0.0044  0.4834
 3845SOL    HW112636   5.338   3.917   8.005  0.9009  0.5099  0.4571
 3845SOL    HW212637   5.399   3.912   7.866 -0.9880 -0.7236 -0.3621
 3846SOL     OW12638   1.448   5.977   5.126 -0.3086 -0.0927  0.3083
 3846SOL    HW112639   1.407   5.928   5.056  0.3717 -1.3997  0.7954
 3846SOL    HW212640   1.470   6.062   5.086 -3.0377  0.5386 -0.0745
 3847SOL     OW12641   6.270   8.847   4.051  0.5239 -0.1511  0.0855
 3847SOL    HW112642   6.229   8.819   4.133 -0.4220 -0.2043 -0.3966
 3847SOL    HW212643   6.204   8.902   4.009  1.4557  0.8776 -0.0852
 3848SOL     OW12644   1.487   3.873   0.133 -0.3076  0.1462  0.2483
 3848SOL    HW112645   1.434   3.896   0.209 -0.0192 -0.1524  0.5413
 3848SOL    HW212646   1.433   3.812   0.083 -1.0341  1.3273 -0.4732
 3849SOL     OW12647   8.191   7.061   1.935  0.4174  0.6150  0.4364
 3849SOL    HW112648   8.244   6.982   1.928 -0.1098  0.1328  1.5847
 3849SOL    HW212649   8.167   7.083   1.845 -1.5175 -1.9948  0.2142
 3850SOL     OW12650   4.148   1.303   8.906 -0.1516 -0.3582  0.4023
 3850SOL    HW112651   4.083   1.318   8.974  0.8844 -0.1850  1.3744
 3850SOL    HW212652   4.142   1.209   8.886 -1.1545 -0.2157 -0.0116
 3851SOL     OW12653   5.895   5.730   6.214 -0.1193 -0.1045 -0.3835
 3851SOL    HW112654   5.965   5.770   6.265 -0.4411  0.9596 -0.7462
 3851SOL    HW212655   5.893   5.780   6.132  0.0174 -1.4216 -1.2174
 3852SOL     OW12656   5.785   6.230   6.001 -0.0059 -0.0679  0.2196
 3852SOL    HW112657   5.740   6.314   6.000 -0.5770 -0.3728 -0.4010
 3852SOL    HW212658   5.855   6.239   5.937  1.0275  0.4941  1.3686
 3853SOL     OW12659   2.039   8.024   0.222  0.1403  0.1924  0.5553
 3853SOL    HW112660   2.031   8.065   0.308  0.0247 -0.3415  0.8019
 3853SOL    HW212661   1.960   7.970   0.214 -1.3098  2.3504 -1.0474
 3854SOL     OW12662   2.855   1.345   0.962  0.1004 -0.4341 -0.0093
 3854SOL    HW112663   2.764   1.316   0.959  0.2101 -0.8202  0.2721
 3854SOL    HW212664   2.886   1.338   0.872  0.0588 -0.9866  0.0148
 3855SOL     OW12665   2.546   4.276   0.094  0.5901 -0.0666 -0.0561
 3855SOL    HW112666   2.575   4.304   0.007  0.4005 -0.1974 -0.1647
 3855SOL    HW212667   2.450   4.282   0.089  0.6024  0.8316  0.4510
 3856SOL     OW12668   5.309   5.710   1.026  0.0534  0.1463 -1.0139
 3856SOL    HW112669   5.273   5.767   0.958 -0.9703  0.8099  0.0424
 3856SOL    HW212670   5.249   5.721   1.101  0.1476 -1.8666 -0.5744
 3857SOL     OW12671   3.028   3.628   5.089  0.1634 -0.2880  0.2282
 3857SOL    HW112672   2.953   3.599   5.038  0.4513  0.0176 -0.3747
 3857SOL    HW212673   3.097   3.642   5.025 -0.4121  3.3040  0.2051
 3858SOL     OW12674   8.079   1.713   8.945 -0.5543 -0.7713 -0.4810
 3858SOL    HW112675   8.070   1.801   8.907  1.3539  0.1998  1.1191
 3858SOL    HW212676   7.989   1.682   8.955 -1.4138  1.8194  0.6779
 3859SOL     OW12677   0.057   2.857   7.273 -0.4162  0.8016 -0.4141
 3859SOL    HW112678   0.140   2.897   7.301  0.7237  0.1714 -2.6644
 3859SOL    HW212679   0.034   2.797   7.344  2.3434 -0.7814 -0.7358
 3860SOL     OW12680   4.776   4.329   7.744  0.1287 -0.4100  0.1759
 3860SOL    HW112681   4.795   4.310   7.652  0.4591  0.5008  0.0416
 3860SOL    HW212682   4.862   4.332   7.786  0.2898  2.2868 -0.1428
 3861SOL     OW12683   6.280   8.700   5.623 -0.1152  0.6020  0.4238
 3861SOL    HW112684   6.331   8.664   5.551  0.2032 -0.1513  1.0088
 3861SOL    HW212685   6.248   8.623   5.671  0.2763  1.0912  1.5027
 3862SOL     OW12686   1.851   3.595   8.532 -0.1564  0.0559  0.2401
 3862SOL    HW112687   1.806   3.548   8.462  0.0382 -0.2805  0.3390
 3862SOL    HW212688   1.828   3.687   8.518 -1.7378 -0.2030  0.9105
 3863SOL     OW12689   3.142   7.221   5.022  0.0872 -0.7455  0.4876
 3863SOL    HW112690   3.237   7.234   5.022  0.2222 -1.7237  0.1473
 3863SOL    HW212691   3.130   7.131   5.051 -0.7721 -0.4618  1.0610
 3864SOL     OW12692   2.423   6.615   1.694 -0.4712  0.2747  0.0007
 3864SOL    HW112693   2.362   6.571   1.635  1.0607 -0.8957 -0.8032
 3864SOL    HW212694   2.464   6.683   1.640 -0.6200  0.6574  0.3611
 3865SOL     OW12695   0.705   8.496   8.923  0.2544 -0.5210 -0.1262
 3865SOL    HW112696   0.761   8.559   8.969  1.1809 -0.6982 -0.9936
 3865SOL    HW212697   0.764   8.426   8.895 -0.6266 -1.3733  0.0856
 3866SOL     OW12698   5.642   5.596   5.856 -0.1242 -0.2642  0.0205
 3866SOL    HW112699   5.558   5.606   5.811 -0.1410 -0.8000 -0.0754
 3866SOL    HW212700   5.671   5.686   5.874  1.0062  0.1085 -3.0757
 3867SOL     OW12701   4.712   6.500   8.887  0.6824 -0.7976  0.2507
 3867SOL    HW112702   4.735   6.408   8.900 -1.3835 -1.2907  0.8232
 3867SOL    HW212703   4.625   6.497   8.848 -0.6321  0.8858  2.7921
 3868SOL     OW12704   3.828   0.117   1.811 -0.0892  0.2240  0.1351
 3868SOL    HW112705   3.862   0.202   1.839 -0.3049  0.2600  0.2863
 3868SOL    HW212706   3.736   0.118   1.835 -0.1993  0.1213 -0.2748
 3869SOL     OW12707   3.951   7.749   2.379 -0.6263 -0.0572 -0.4668
 3869SOL    HW112708   4.035   7.713   2.407 -0.3311 -0.2507 -1.5655
 3869SOL    HW212709   3.900   7.673   2.352 -0.5222  0.2020 -1.4357
 3870SOL     OW12710   0.454   3.907   7.731 -0.0683  0.6067  0.4580
 3870SOL    HW112711   0.375   3.876   7.775  0.8644 -0.9399  1.1168
 3870SOL    HW212712   0.465   3.846   7.658  0.7821  0.5011  0.6696
 3871SOL     OW12713   7.104   7.013   0.259  0.3330 -0.3215  0.5033
 3871SOL    HW112714   7.172   7.076   0.285  0.7649 -0.1628 -0.9221
 3871SOL    HW212715   7.022   7.057   0.282  0.6470 -0.8519  3.0097
 3872SOL     OW12716   1.373   6.309   2.356 -0.2009  0.3701  0.7875
 3872SOL    HW112717   1.407   6.339   2.441  0.1834 -0.3206  0.8881
 3872SOL    HW212718   1.283   6.341   2.353 -0.3816 -0.0368  1.6854
 3873SOL     OW12719   0.839   8.961   3.749 -0.2238  0.4593  0.0157
 3873SOL    HW112720   0.751   8.984   3.778 -0.7670 -3.1598  1.8889
 3873SOL    HW212721   0.893   8.968   3.828  0.5168 -0.1217 -0.4194
 3874SOL     OW12722   2.106   0.009   1.398  0.6028  0.1564 -0.2213
 3874SOL    HW112723   2.040  -0.001   1.467  0.2389  1.1758 -0.3994
 3874SOL    HW212724   2.056   0.040   1.322  1.3108  1.1594 -0.2909
 3875SOL     OW12725   0.081   5.669   5.200 -0.4367  0.3095 -0.5873
 3875SOL    HW112726   0.084   5.620   5.118 -0.2355 -0.4880 -0.1130
 3875SOL    HW212727   0.155   5.636   5.251  0.1625  1.6383 -0.5439
 3876SOL     OW12728   0.047   5.687   2.939 -0.1622  0.2025  0.6807
 3876SOL    HW112729   0.127   5.640   2.916 -0.7659  0.1774 -1.6204
 3876SOL    HW212730   0.048   5.765   2.883 -1.9847 -0.0687  0.2315
 3877SOL     OW12731   1.427   3.547   1.192  0.1996 -0.1052  0.4776
 3877SOL    HW112732   1.444   3.487   1.119  1.5366 -0.2232  0.8608
 3877SOL    HW212733   1.381   3.494   1.257  0.0861 -0.3251  0.2184
 3878SOL     OW12734   5.357   8.628   0.774 -0.1715  0.3919 -0.2403
 3878SOL    HW112735   5.391   8.712   0.744 -2.2093  0.7775 -1.7475
 3878SOL    HW212736   5.381   8.566   0.705 -1.8955  0.5593 -1.0438
 3879SOL     OW12737   6.551   7.758   5.599  0.5678 -0.1501 -0.0560
 3879SOL    HW112738   6.485   7.689   5.598  0.1311  0.2492 -1.7641
 3879SOL    HW212739   6.517   7.823   5.661  0.1589 -0.6820  0.2842
 3880SOL     OW12740   1.597   3.134   4.518  0.3897  0.1029 -0.0256
 3880SOL    HW112741   1.688   3.149   4.491  0.8605  1.2344  2.0211
 3880SOL    HW212742   1.546   3.151   4.439  1.8238  1.3356 -0.7372
 3881SOL     OW12743   6.604   4.971   4.981 -0.3458 -0.7757 -0.1074
 3881SOL    HW112744   6.692   5.001   5.000 -0.4052 -1.3651  1.1915
 3881SOL    HW212745   6.548   5.046   5.002 -0.4387 -1.4931  2.5023
 3882SOL     OW12746   1.661   3.885   4.205 -0.5954  0.1517 -0.0296
 3882SOL    HW112747   1.644   3.871   4.298 -1.4745 -0.2130 -0.2417
 3882SOL    HW212748   1.663   3.796   4.168  1.2932  0.1828 -0.1139
 3883SOL     OW12749   1.118   0.046   1.867  0.3091 -0.0150 -0.6909
 3883SOL    HW112750   1.136   0.065   1.959 -1.3067 -0.8359 -0.1744
 3883SOL    HW212751   1.181  -0.021   1.843 -0.4451 -1.1604  0.3946
 3884SOL     OW12752   5.107   5.771   4.161 -0.1500 -0.4813 -0.0885
 3884SOL    HW112753   5.073   5.753   4.248  1.2367 -2.8931  0.0508
 3884SOL    HW212754   5.127   5.685   4.125  1.0234  0.5414 -2.0874
 3885SOL     OW12755   4.866   3.937   3.774 -0.0509 -0.1175 -0.4786
 3885SOL    HW112756   4.865   3.929   3.870  0.5644  0.4603 -0.4123
 3885SOL    HW212757   4.821   3.858   3.743 -0.6671 -0.0899  0.2952
 3886SOL     OW12758   2.583   0.748   7.921  0.8048 -0.7650  0.1828
 3886SOL    HW112759   2.648   0.817   7.933 -1.4627  1.5284  0.0493
 3886SOL    HW212760   2.573   0.741   7.826  1.0730 -1.3289  0.1946
 3887SOL     OW12761   4.329   7.348   1.418 -0.0267 -0.3149 -0.8190
 3887SOL    HW112762   4.256   7.411   1.424 -0.0387 -0.4347  0.8145
 3887SOL    HW212763   4.360   7.356   1.328 -1.0169  0.9210 -1.0870
 3888SOL     OW12764   6.574   4.637   1.574  0.3047  0.2050 -0.3703
 3888SOL    HW112765   6.514   4.600   1.509 -0.3359  1.6138 -0.6107
 3888SOL    HW212766   6.565   4.580   1.650  0.2416 -0.8269 -1.1214
 3889SOL     OW12767   2.710   1.060   5.715  0.2749 -0.3304  0.3754
 3889SOL    HW112768   2.774   1.044   5.646  0.0784 -0.8324  0.3068
 3889SOL    HW212769   2.671   1.144   5.691 -0.8012 -1.1624 -0.9230
 3890SOL     OW12770   0.967   6.893   5.940  0.6435  0.7319  0.0003
 3890SOL    HW112771   0.925   6.813   5.972  1.4265  1.3266  2.8485
 3890SOL    HW212772   0.894   6.948   5.912 -0.0971 -0.0678  0.2787
 3891SOL     OW12773   0.958   3.875   5.908  0.0394  0.2692 -0.1750
 3891SOL    HW112774   0.902   3.948   5.934 -0.4522 -0.5715  1.2380
 3891SOL    HW212775   1.045   3.898   5.942 -0.0227  0.3916 -0.1005
 3892SOL     OW12776   7.817   0.132   6.363  0.5987  0.0543  0.0451
 3892SOL    HW112777   7.887   0.102   6.421 -1.2463 -2.1791  1.2821
 3892SOL    HW212778   7.754   0.174   6.421 -0.1547 -0.0162 -0.6976
 3893SOL     OW12779   3.153   0.841   6.575 -0.0017  0.2484 -0.1218
 3893SOL    HW112780   3.175   0.751   6.552 -2.1891 -0.3445 -0.1872
 3893SOL    HW212781   3.061   0.850   6.550 -0.2509  2.0500  1.2024
 3894SOL     OW12782   1.565   6.696   7.150  0.1294  0.4656 -0.1749
 3894SOL    HW112783   1.598   6.765   7.093 -0.0070  0.0097 -0.8165
 3894SOL    HW212784   1.582   6.615   7.103 -1.5916  0.1903 -0.3879
 3895SOL     OW12785   0.378   8.447   0.619 -0.2020  0.1096  0.0280
 3895SOL    HW112786   0.343   8.465   0.706 -1.1731  0.6273 -0.4520
 3895SOL    HW212787   0.473   8.443   0.631 -0.2612  1.1352  0.9302
 3896SOL     OW12788   0.142   7.877   3.550 -0.0861 -0.3481  0.2317
 3896SOL    HW112789   0.222   7.928   3.561  0.3599 -1.1323  0.6216
 3896SOL    HW212790   0.169   7.786   3.557 -0.9645 -0.6328  0.0662
 3897SOL     OW12791   7.844   2.277   1.217 -0.1249 -0.4225 -0.1813
 3897SOL    HW112792   7.908   2.312   1.279 -0.2363 -0.2850 -0.1434
 3897SOL    HW212793   7.846   2.183   1.232  0.5015 -0.4749 -0.6002
 3898SOL     OW12794   2.334   6.171   8.982 -0.2390  0.1912 -0.4159
 3898SOL    HW112795   2.381   6.148   9.062 -1.7318 -1.6233  0.0342
 3898SOL    HW212796   2.388   6.134   8.911  1.9749  3.2550 -0.5418
 3899SOL     OW12797   0.861   5.885   6.366 -0.4727 -0.2798  0.3690
 3899SOL    HW112798   0.772   5.899   6.333 -0.4241  0.0273  0.3650
 3899SOL    HW212799   0.906   5.840   6.294 -0.4060  0.2648  0.0601
 3900SOL     OW12800   9.085   3.756   1.428 -0.0727  0.0394 -0.0044
 3900SOL    HW112801   9.061   3.848   1.430  0.1516  0.1087 -0.4020
 3900SOL    HW212802   9.169   3.752   1.473 -1.0549 -0.2916  1.9538
 3901SOL     OW12803   7.325   4.336   1.700  0.4552 -0.2216 -0.4094
 3901SOL    HW112804   7.293   4.366   1.785 -3.7202  0.2720 -1.8920
 3901SOL    HW212805   7.346   4.417   1.653  2.1197 -0.4628 -0.1411
 3902SOL     OW12806   0.721   4.110   0.234 -0.4207 -0.2453  0.3904
 3902SOL    HW112807   0.764   4.185   0.192  1.0488 -0.7538  0.8993
 3902SOL    HW212808   0.678   4.147   0.311 -0.2490  0.1834  0.2827
 3903SOL     OW12809   5.125   3.893   7.335 -0.1016  0.8632 -0.2962
 3903SOL    HW112810   5.055   3.874   7.397  0.0794 -0.1157 -0.3702
 3903SOL    HW212811   5.146   3.986   7.350 -0.8950  0.9682  0.2399
 3904SOL     OW12812   8.084   2.616   0.769 -0.4433 -0.0574  0.9385
 3904SOL    HW112813   8.068   2.651   0.681  0.5627  1.1879  1.2161
 3904SOL    HW212814   8.164   2.565   0.760 -0.1186  0.3992  1.2074
 3905SOL     OW12815   0.597   5.992   7.873 -0.2021 -0.0831  0.3241
 3905SOL    HW112816   0.659   5.992   7.945 -0.8151  2.8040  0.9866
 3905SOL    HW212817   0.512   5.978   7.914 -0.6358  2.2697  0.3518
 3906SOL     OW12818   4.539   0.663   4.135  0.6598  0.1294 -0.2420
 3906SOL    HW112819   4.444   0.651   4.132  0.5304  0.9318  0.4678
 3906SOL    HW212820   4.574   0.592   4.080 -0.2898 -0.8398  0.3680
 3907SOL     OW12821   7.164   8.076   0.239 -0.4836 -0.2315  0.1046
 3907SOL    HW112822   7.230   8.129   0.194 -0.9085  1.2960  1.1772
 3907SOL    HW212823   7.183   8.090   0.332 -1.9478 -0.2393  0.4226
 3908SOL     OW12824   8.323   4.789   1.033  0.1054 -0.4915 -0.1581
 3908SOL    HW112825   8.367   4.873   1.046 -1.4958  0.3049  0.3272
 3908SOL    HW212826   8.230   4.809   1.037 -0.3266 -2.2958 -0.0576
 3909SOL     OW12827   5.633   8.616   8.349 -0.0342 -0.0431 -0.4630
 3909SOL    HW112828   5.549   8.662   8.342  0.2831  0.4644 -1.0738
 3909SOL    HW212829   5.693   8.682   8.382  0.5497  0.1672 -1.8625
 3910SOL     OW12830   3.753   6.628   5.083  0.5375 -0.6513 -0.7124
 3910SOL    HW112831   3.694   6.589   5.018  1.8261 -1.2852 -1.5613
 3910SOL    HW212832   3.838   6.589   5.062  1.3509  0.6359  0.1378
 3911SOL     OW12833   2.086   8.930   4.173 -0.4866  0.6588  0.1416
 3911SOL    HW112834   2.050   9.009   4.213  0.5257  0.7119  0.9603
 3911SOL    HW212835   2.013   8.867   4.175 -1.1827  1.4364 -0.1881
 3912SOL     OW12836   6.575   8.780   4.613 -0.0964  0.8154  0.2241
 3912SOL    HW112837   6.618   8.805   4.531  0.6125 -1.7245 -0.2563
 3912SOL    HW212838   6.486   8.757   4.587  0.6621 -1.8772 -0.2694
 3913SOL     OW12839   1.513   8.184   5.726  0.0106  0.4227 -0.2177
 3913SOL    HW112840   1.560   8.251   5.775  1.5456  0.1099 -1.1832
 3913SOL    HW212841   1.537   8.102   5.770 -1.2465  0.4022  0.4866
 3914SOL     OW12842   0.564   8.733   1.464 -0.0224 -0.0238 -0.1138
 3914SOL    HW112843   0.643   8.688   1.436  0.3485 -0.8581  2.0960
 3914SOL    HW212844   0.550   8.705   1.555  1.0811  5.3007  2.1144
 3915SOL     OW12845   3.090   8.040   8.336  0.1112  0.0522 -0.6288
 3915SOL    HW112846   3.045   7.981   8.397 -0.3787  1.9425  0.9172
 3915SOL    HW212847   3.048   8.023   8.251 -3.1130  1.2022  0.5871
 3916SOL     OW12848   5.613   6.338   4.557  0.1685  0.2273 -0.6212
 3916SOL    HW112849   5.534   6.381   4.526 -0.4180 -1.4301 -1.5111
 3916SOL    HW212850   5.594   6.316   4.649  0.0873  0.9048 -0.4678
 3917SOL     OW12851   1.581   1.033   5.420 -0.2839  0.2630 -0.4788
 3917SOL    HW112852   1.646   1.012   5.487 -1.1577 -0.1203  0.2763
 3917SOL    HW212853   1.599   1.123   5.396 -0.0808  0.4818  0.4411
 3918SOL     OW12854   1.336   1.615   2.539 -0.3273  1.1969 -0.3532
 3918SOL    HW112855   1.407   1.678   2.525  0.5748  0.4768  0.7291
 3918SOL    HW212856   1.381   1.531   2.549 -1.4594  0.4791 -1.0986
 3919SOL     OW12857   6.825   7.159   7.192 -0.7733 -0.5615 -0.0073
 3919SOL    HW112858   6.904   7.206   7.218  1.1585 -3.2062 -0.6156
 3919SOL    HW212859   6.753   7.216   7.217  1.2358  1.0969  2.4646
 3920SOL     OW12860   8.629   5.567   4.714  0.4640  0.2873  0.2865
 3920SOL    HW112861   8.560   5.634   4.717  1.0872  0.8987  1.5785
 3920SOL    HW212862   8.593   5.499   4.657 -0.3560  1.5226 -0.7395
 3921SOL     OW12863   4.726   6.512   6.062  0.7153 -0.1143  0.3028
 3921SOL    HW112864   4.742   6.599   6.099 -0.8206  0.4499 -0.2791
 3921SOL    HW212865   4.760   6.452   6.128 -1.2677  0.8764  2.3895
 3922SOL     OW12866   5.419   6.669   7.502  0.1975  0.2723 -0.3516
 3922SOL    HW112867   5.431   6.711   7.417  2.4066  1.7004  0.5855
 3922SOL    HW212868   5.456   6.730   7.565  2.3318 -2.4159  1.2422
 3923SOL     OW12869   4.056   2.792   0.232  0.0234 -0.2197  0.3942
 3923SOL    HW112870   4.026   2.712   0.188 -0.6028  0.4531 -0.4548
 3923SOL    HW212871   4.063   2.767   0.324 -1.6156 -0.8753  0.3844
 3924SOL     OW12872   5.243   2.971   0.603 -0.1352  0.6331 -0.0024
 3924SOL    HW112873   5.158   2.986   0.561  0.3342 -0.4221 -1.3973
 3924SOL    HW212874   5.290   3.053   0.594 -1.9646  2.2588  3.3390
 3925SOL     OW12875   2.515   8.165   4.210  0.2645 -0.0872  0.5491
 3925SOL    HW112876   2.561   8.206   4.284  1.2059 -2.3304  1.2836
 3925SOL    HW212877   2.438   8.124   4.249 -0.6712  0.9236 -0.1758
 3926SOL     OW12878   6.451   6.485   5.806 -0.0207  0.0376 -0.4545
 3926SOL    HW112879   6.480   6.570   5.840  2.4943 -0.8021 -0.3107
 3926SOL    HW212880   6.444   6.430   5.884 -1.5545  0.0540 -0.5589
 3927SOL     OW12881   8.539   0.489   2.793 -0.0083  0.1587  0.0158
 3927SOL    HW112882   8.450   0.509   2.762 -0.4098 -1.0856  0.3293
 3927SOL    HW212883   8.575   0.430   2.727  0.4192  0.2747  0.1404
 3928SOL     OW12884   5.532   3.769   7.485 -0.1022 -0.3001  0.0375
 3928SOL    HW112885   5.494   3.826   7.419  0.4322 -0.7022 -0.6348
 3928SOL    HW212886   5.465   3.702   7.501 -0.5354  0.2308  0.4746
 3929SOL     OW12887   2.316   6.402   6.414 -0.0439 -0.2016 -0.0765
 3929SOL    HW112888   2.286   6.355   6.336 -1.0926 -0.9143  0.7259
 3929SOL    HW212889   2.361   6.479   6.380  2.0421 -1.9094 -1.4436
 3930SOL     OW12890   8.409   2.098   4.029  0.1218  0.2650  0.0967
 3930SOL    HW112891   8.358   2.034   4.078  0.7114 -1.5793 -1.5987
 3930SOL    HW212892   8.489   2.109   4.082 -0.4793  0.5147  0.9812
 3931SOL     OW12893   3.961   2.041   2.001 -0.4694 -0.1966 -0.3176
 3931SOL    HW112894   3.871   2.011   2.016 -0.9707  1.4300  0.1737
 3931SOL    HW212895   3.952   2.110   1.935  0.6131 -1.0169 -1.3616
 3932SOL     OW12896   0.466   9.090   4.142  0.4759 -0.3885 -0.4214
 3932SOL    HW112897   0.451   9.050   4.228  1.3851  0.0751 -0.0336
 3932SOL    HW212898   0.382   9.080   4.096  0.3692 -1.8210  0.0213
 3933SOL     OW12899   7.565   0.004   7.341 -0.2088 -0.1183  0.7796
 3933SOL    HW112900   7.567   0.012   7.246 -0.7789  1.0527  0.8615
 3933SOL    HW212901   7.654  -0.024   7.364 -0.3104 -1.3123 -0.1514
 3934SOL     OW12902   3.979   0.141   0.501  0.2341 -0.2889  0.0324
 3934SOL    HW112903   4.017   0.133   0.413  1.4916 -1.5327  0.6505
 3934SOL    HW212904   3.898   0.191   0.487  0.1842 -0.8022 -1.8899
 3935SOL     OW12905   4.452   7.337   6.814 -0.0974  0.2869  0.2692
 3935SOL    HW112906   4.383   7.397   6.784 -1.1822 -1.0799 -0.0751
 3935SOL    HW212907   4.463   7.360   6.907 -1.8200 -0.1700  0.6287
 3936SOL     OW12908   7.921   8.062   4.043  0.3285  0.3175  0.1694
 3936SOL    HW112909   7.943   8.113   3.965  1.3972  0.9453  0.8659
 3936SOL    HW212910   7.826   8.054   4.040  0.0709  2.7008  0.2421
 3937SOL     OW12911   6.254   4.130   8.598 -0.0063 -0.1892  0.2339
 3937SOL    HW112912   6.224   4.050   8.555  1.1062  0.2896 -1.5252
 3937SOL    HW212913   6.247   4.197   8.531  1.0933  0.7635  1.0367
 3938SOL     OW12914   8.256   4.630   0.736 -0.6945 -0.4497 -0.1338
 3938SOL    HW112915   8.281   4.538   0.724 -0.9167 -0.2929 -2.2626
 3938SOL    HW212916   8.334   4.672   0.771 -0.0127 -1.1389 -0.7895
 3939SOL     OW12917   1.624   7.040   7.255 -0.4933  0.6102  0.4978
 3939SOL    HW112918   1.689   7.108   7.240  0.2077 -0.2535 -0.5194
 3939SOL    HW212919   1.673   6.958   7.254 -1.5117 -0.0210  0.2917
 3940SOL     OW12920   8.017   4.753   1.582  0.1663  0.2868 -0.8108
 3940SOL    HW112921   7.942   4.708   1.544 -0.7329  0.8888  0.1654
 3940SOL    HW212922   8.023   4.835   1.534  0.2894  0.1737 -0.9880
 3941SOL     OW12923   0.610   0.617   8.472 -0.1073  0.1041  0.2096
 3941SOL    HW112924   0.545   0.550   8.493  0.1546 -0.5122 -0.8751
 3941SOL    HW212925   0.561   0.684   8.424 -0.1056  0.0580  0.1440
 3942SOL     OW12926   3.190   3.931   0.716  0.3577 -0.1366 -0.0919
 3942SOL    HW112927   3.119   3.994   0.730 -0.5057 -1.0097 -0.4173
 3942SOL    HW212928   3.261   3.963   0.771 -0.8306 -0.1141  1.4915
 3943SOL     OW12929   2.313   1.136   2.344 -0.1799  0.5181  0.0756
 3943SOL    HW112930   2.243   1.125   2.408 -0.0083  0.5205  0.2650
 3943SOL    HW212931   2.385   1.084   2.380 -0.6390 -0.8919 -0.9563
 3944SOL     OW12932   7.972   5.204   4.173 -0.6650 -0.3541  0.4969
 3944SOL    HW112933   7.945   5.286   4.214 -2.1506  0.4908 -1.9950
 3944SOL    HW212934   8.064   5.218   4.149 -0.6869  0.2646  0.7647
 3945SOL     OW12935   6.085   8.081   5.051  0.0049  0.0147  0.2668
 3945SOL    HW112936   6.128   8.165   5.064 -2.2650  1.1946  0.6820
 3945SOL    HW212937   6.155   8.017   5.060  1.8272  1.8294 -0.1349
 3946SOL     OW12938   3.013   1.001   2.805 -0.1964 -0.9965 -0.0595
 3946SOL    HW112939   3.088   0.942   2.802  1.0919  0.4631  1.3927
 3946SOL    HW212940   3.037   1.074   2.747  0.1569  0.1333  1.4468
 3947SOL     OW12941   0.181   8.614   0.814 -0.0902 -0.0572  0.1306
 3947SOL    HW112942   0.240   8.643   0.883  0.3036 -0.6383  0.0456
 3947SOL    HW212943   0.191   8.679   0.744 -0.6348  0.6381  0.6870
 3948SOL     OW12944   2.800   1.659   5.731  0.2835 -0.2016 -0.2602
 3948SOL    HW112945   2.742   1.586   5.750  1.9996 -1.4312  0.4683
 3948SOL    HW212946   2.791   1.718   5.806 -1.4843  0.6533 -1.0822
 3949SOL     OW12947   0.778   6.050   5.508 -0.1094  0.7853 -0.0933
 3949SOL    HW112948   0.838   6.074   5.578  0.4648 -1.4085  0.2645
 3949SOL    HW212949   0.713   5.993   5.551  0.9056 -1.5611 -1.4523
 3950SOL     OW12950   0.188   7.486   6.899  0.3908  0.1311 -0.0691
 3950SOL    HW112951   0.172   7.511   6.808 -0.6075  3.5746  0.9386
 3950SOL    HW212952   0.159   7.394   6.903 -2.4396  0.7406 -2.5365
 3951SOL     OW12953   4.058   5.687   1.497  0.1017 -0.2914  0.1279
 3951SOL    HW112954   4.120   5.736   1.551  0.5190  0.8831 -1.3720
 3951SOL    HW212955   4.106   5.609   1.468  1.7464  1.6438 -2.8010
 3952SOL     OW12956   8.437   4.661   1.747  0.1513 -0.3744  0.0874
 3952SOL    HW112957   8.355   4.613   1.760  0.2983 -0.4771  0.6829
 3952SOL    HW212958   8.452   4.659   1.652  0.0143 -1.2854  0.0740
 3953SOL     OW12959   8.357   8.004   2.346  0.5774 -0.6621  0.0644
 3953SOL    HW112960   8.276   7.983   2.393 -0.5091  1.2354 -0.8485
 3953SOL    HW212961   8.417   8.035   2.414 -0.7289  1.3750  0.3574
 3954SOL     OW12962   7.301   3.571   2.225 -0.5773  0.2294  0.3872
 3954SOL    HW112963   7.338   3.517   2.294 -1.1119 -0.9064 -0.1818
 3954SOL    HW212964   7.216   3.531   2.207  1.1533 -2.2815 -3.8153
 3955SOL     OW12965   5.073   0.093   4.498 -0.0496 -0.0096 -0.6890
 3955SOL    HW112966   5.087   0.147   4.576 -1.6469 -2.2716  1.3373
 3955SOL    HW212967   5.118   0.140   4.428  1.2307  2.3195  1.5004
 3956SOL     OW12968   3.034   3.797   6.440 -0.0352 -0.2250  0.4547
 3956SOL    HW112969   2.990   3.717   6.410  1.0247 -0.5659 -0.2653
 3956SOL    HW212970   3.040   3.852   6.362 -0.6438  0.5168  0.9171
 3957SOL     OW12971   3.947   5.462   3.604  0.2322 -0.0202  0.2589
 3957SOL    HW112972   3.970   5.439   3.693  1.5694 -0.8412 -0.2735
 3957SOL    HW212973   3.856   5.434   3.595 -0.5130  1.6866  1.8713
 3958SOL     OW12974   4.874   0.055   0.006 -0.5381 -0.5712  0.2446
 3958SOL    HW112975   4.791   0.061   0.055 -0.1196 -0.2016  0.9310
 3958SOL    HW212976   4.885   0.142  -0.032 -0.8226 -0.8353 -0.4705
 3959SOL     OW12977   0.310   5.613   2.854 -0.4995 -0.0114  0.0459
 3959SOL    HW112978   0.401   5.620   2.823 -0.2398 -0.1235  0.7612
 3959SOL    HW212979   0.301   5.522   2.880 -0.6262  0.1486  0.5593
 3960SOL     OW12980   4.543   7.912   1.855  0.5501  0.4917 -0.2231
 3960SOL    HW112981   4.585   7.864   1.926  0.0113 -1.2255 -0.9937
 3960SOL    HW212982   4.598   7.990   1.842  0.9675  0.5597  1.6629
 3961SOL     OW12983   3.414   2.338   3.432 -0.7215 -0.2992  0.6381
 3961SOL    HW112984   3.327   2.378   3.425 -0.5874 -0.2739 -2.2981
 3961SOL    HW212985   3.474   2.412   3.425 -0.4640 -0.4806  0.9390
 3962SOL     OW12986   8.384   9.107   2.948  0.7183 -0.4311 -0.0516
 3962SOL    HW112987   8.377   9.080   2.856 -2.0768  0.2410 -0.1357
 3962SOL    HW212988   8.385   9.202   2.945 -0.6351 -0.3791  0.6253
 3963SOL     OW12989   6.266   1.539   7.764 -0.2189 -0.2581  0.3773
 3963SOL    HW112990   6.271   1.620   7.713  1.9037  0.4635  1.5889
 3963SOL    HW212991   6.353   1.500   7.753  0.0750 -0.4363  2.7971
 3964SOL     OW12992   1.121   6.077   6.832 -0.1984  0.2868  0.1288
 3964SOL    HW112993   1.073   6.133   6.893  0.0682  0.9560 -0.2642
 3964SOL    HW212994   1.077   6.089   6.748  0.6027  0.8418 -0.2161
 3965SOL     OW12995   5.664   5.086   2.907 -0.3277  0.1655 -0.2228
 3965SOL    HW112996   5.749   5.118   2.877 -0.7609  0.2382 -1.4160
 3965SOL    HW212997   5.641   5.144   2.979  0.7749 -0.0538  0.3288
 3966SOL     OW12998   3.186   3.835   4.759  0.0372  0.2126 -0.0179
 3966SOL    HW112999   3.125   3.842   4.833  0.2586  2.5051  0.0176
 3966SOL    HW213000   3.137   3.789   4.692 -1.8987  2.2002 -0.0810
 3967SOL     OW13001   1.753   8.089   2.704  0.3006 -0.0502 -0.3173
 3967SOL    HW113002   1.678   8.146   2.688  1.0758  0.8490 -0.8716
 3967SOL    HW213003   1.745   8.063   2.796  0.7322  2.1563  0.3797
 3968SOL     OW13004   6.259   6.394   6.897 -0.1835 -0.1013  0.1376
 3968SOL    HW113005   6.170   6.361   6.882  0.4823 -2.6140  1.1864
 3968SOL    HW213006   6.311   6.355   6.826  0.5263 -0.9432  1.0850
 3969SOL     OW13007   5.507   7.034   4.312 -0.8891 -0.0666 -0.5017
 3969SOL    HW113008   5.594   7.065   4.286 -0.0226 -2.1218 -0.2262
 3969SOL    HW213009   5.523   6.982   4.390 -2.3625 -0.6264 -0.5506
 3970SOL     OW13010   7.587   7.587   6.724  0.3703 -0.5566 -0.5273
 3970SOL    HW113011   7.502   7.611   6.686 -0.2369 -1.8678 -0.0794
 3970SOL    HW213012   7.637   7.551   6.650  0.1272 -0.7679 -0.5916
 3971SOL     OW13013   0.068   4.400   8.640  0.3058  0.3067  1.0006
 3971SOL    HW113014  -0.002   4.342   8.611  0.1003  1.3570 -0.7610
 3971SOL    HW213015   0.032   4.488   8.633  1.0621  0.7564  2.3022
 3972SOL     OW13016   8.594   7.691   0.856  0.3359  0.0543  0.4401
 3972SOL    HW113017   8.545   7.771   0.835 -0.0836 -0.3000  0.0709
 3972SOL    HW213018   8.678   7.702   0.812 -1.0027 -1.2857 -2.6695
 3973SOL     OW13019   4.653   8.467   6.035 -0.9330  0.1124  0.0931
 3973SOL    HW113020   4.577   8.410   6.041 -1.3343  0.6074 -0.2405
 3973SOL    HW213021   4.670   8.475   5.941  0.9591 -1.8506  0.1616
 3974SOL     OW13022   0.748   2.824   3.963 -0.3893  0.1900  0.0626
 3974SOL    HW113023   0.843   2.821   3.962 -0.4027 -1.2428  0.6851
 3974SOL    HW213024   0.721   2.756   3.901 -0.9780 -0.9696  1.5393
 3975SOL     OW13025   8.953   7.324   4.496  0.3342  0.1557 -0.7607
 3975SOL    HW113026   8.930   7.280   4.414 -0.7899 -0.0330 -0.3570
 3975SOL    HW213027   8.889   7.394   4.505 -0.5268 -0.7481  0.6752
 3976SOL     OW13028   3.611   3.873   6.844 -0.7796  0.0597 -0.8686
 3976SOL    HW113029   3.526   3.839   6.872 -1.7656  1.2702 -2.2321
 3976SOL    HW213030   3.619   3.847   6.753  0.2567  0.0941 -0.8010
 3977SOL     OW13031   3.071   0.496   0.391  0.2837  0.2793  0.1356
 3977SOL    HW113032   3.028   0.484   0.475 -0.1439 -0.3187 -0.1613
 3977SOL    HW213033   3.090   0.590   0.386  0.5507  0.2757  1.0039
 3978SOL     OW13034   1.927   6.988   7.396  0.0308 -0.0260 -0.0636
 3978SOL    HW113035   1.954   7.073   7.361  2.0856 -1.0496 -1.1268
 3978SOL    HW213036   1.967   6.983   7.483 -0.3526  0.2153  0.1279
 3979SOL     OW13037   0.580   3.721   6.672 -0.3461  0.3536  0.0907
 3979SOL    HW113038   0.523   3.644   6.671 -2.3244  1.5357  3.5432
 3979SOL    HW213039   0.519   3.795   6.676  1.5021  2.0589 -1.4771
 3980SOL     OW13040   1.600   5.976   2.257 -0.8982 -0.0846  0.1389
 3980SOL    HW113041   1.663   5.979   2.184  1.0194  1.3446  1.7348
 3980SOL    HW213042   1.525   6.026   2.226 -0.1136  0.5029 -0.8656
 3981SOL     OW13043   4.588   3.233   6.392 -0.4225  0.1648 -0.1315
 3981SOL    HW113044   4.616   3.231   6.483  0.4936  0.4015 -0.3942
 3981SOL    HW213045   4.582   3.141   6.367  1.7454  0.0749 -0.5186
 3982SOL     OW13046   0.681   5.349   6.501 -0.2332  0.1155  0.2972
 3982SOL    HW113047   0.752   5.294   6.533  0.7570  0.6333 -0.9059
 3982SOL    HW213048   0.636   5.380   6.579  1.0561  0.0077  1.1019
 3983SOL     OW13049   0.921   0.586   9.107 -0.2534  0.5198 -0.4470
 3983SOL    HW113050   0.883   0.668   9.140 -1.7530  0.6401 -2.2892
 3983SOL    HW213051   0.853   0.521   9.119  2.0825 -1.4957  4.2408
 3984SOL     OW13052   5.270   8.665   6.821  0.0860 -0.0442 -0.3100
 3984SOL    HW113053   5.272   8.760   6.813  0.0560 -0.0807 -0.7352
 3984SOL    HW213054   5.353   8.635   6.784  0.5659 -0.1178  0.7707
 3985SOL     OW13055   0.496   4.301   6.988 -0.8249 -0.3986  0.1688
 3985SOL    HW113056   0.553   4.334   7.058  0.8375 -0.8916 -0.9076
 3985SOL    HW213057   0.416   4.353   6.996  0.7197  2.1063  0.1499
 3986SOL     OW13058   2.774   3.934   0.467  0.4220 -0.1897 -0.3500
 3986SOL    HW113059   2.812   3.847   0.481 -0.0557 -0.2104  0.9633
 3986SOL    HW213060   2.692   3.932   0.516  1.5760  1.8414  1.8243
 3987SOL     OW13061   2.217   1.297   1.830 -0.1310 -0.2580 -0.5717
 3987SOL    HW113062   2.302   1.266   1.798 -0.7571 -1.8123 -0.8492
 3987SOL    HW213063   2.163   1.218   1.834 -1.2876  0.5399  0.5163
 3988SOL     OW13064   9.126   6.051   4.134  0.1635 -0.5132 -0.4872
 3988SOL    HW113065   9.055   5.987   4.125 -0.3656 -0.1856  0.9491
 3988SOL    HW213066   9.108   6.094   4.218  0.0137  2.1118 -1.7675
 3989SOL     OW13067   6.554   4.912   0.726 -0.0181 -0.0501  0.0403
 3989SOL    HW113068   6.593   4.863   0.798 -0.9911 -0.2606  0.4507
 3989SOL    HW213069   6.472   4.866   0.708 -1.0084  1.4587  0.4989
 3990SOL     OW13070   6.836   5.703   0.376  0.0087  0.5418  0.4021
 3990SOL    HW113071   6.855   5.794   0.401  2.3978  0.5758 -1.1766
 3990SOL    HW213072   6.900   5.651   0.424  1.5399  0.1830 -1.8498
 3991SOL     OW13073   8.956   8.141   9.035  0.8535  0.4307  0.1382
 3991SOL    HW113074   8.976   8.129   8.942  1.6010 -0.7370  0.4298
 3991SOL    HW213075   8.952   8.052   9.071  1.9358  0.8895  1.4945
 3992SOL     OW13076   5.913   2.695   4.264  0.6885  0.4941 -0.1958
 3992SOL    HW113077   5.926   2.774   4.210  0.2360  0.7990  0.1375
 3992SOL    HW213078   5.923   2.622   4.202 -0.5132  0.8610 -0.8451
 3993SOL     OW13079   4.899   2.352   1.594  0.3640  0.1939 -0.5069
 3993SOL    HW113080   4.904   2.446   1.611 -0.4990  0.0700  0.5700
 3993SOL    HW213081   4.964   2.313   1.652  2.5183  0.2647 -2.7259
 3994SOL     OW13082   7.986   9.033   7.012  0.1261  0.0240  0.1279
 3994SOL    HW113083   7.973   9.022   7.106  2.1301 -1.5739  0.3000
 3994SOL    HW213084   7.934   8.963   6.972 -0.9682  0.8930  0.0135
 3995SOL     OW13085   7.347   7.014   6.555  0.4267  0.3325 -0.7533
 3995SOL    HW113086   7.415   6.950   6.534  0.9030  0.6239 -0.1160
 3995SOL    HW213087   7.392   7.098   6.554  0.1026  0.5140 -0.1749
 3996SOL     OW13088   2.249   3.697   7.290 -0.1578 -0.4463  0.0135
 3996SOL    HW113089   2.299   3.763   7.338 -1.4313 -0.1068  0.9227
 3996SOL    HW213090   2.190   3.659   7.355 -0.3518 -1.5810 -0.7857
 3997SOL     OW13091   6.188   1.349   4.126  0.1456 -0.2257  0.1800
 3997SOL    HW113092   6.271   1.394   4.110  0.7896 -0.5325  2.3396
 3997SOL    HW213093   6.153   1.391   4.205  0.0731 -2.4978  1.4408
 3998SOL     OW13094   5.357   3.744   8.182 -0.2917  0.1731  0.1312
 3998SOL    HW113095   5.410   3.668   8.205  0.2649  0.9195  1.4889
 3998SOL    HW213096   5.350   3.741   8.087  1.0239 -0.7228  0.0284
 3999SOL     OW13097   0.895   7.738   2.992 -0.0861  0.4996  0.1390
 3999SOL    HW113098   0.856   7.733   3.080  0.5123 -2.5588  0.3166
 3999SOL    HW213099   0.823   7.765   2.935 -0.3608  3.1161  1.5323
 4000SOL     OW13100   3.464   3.793   8.272  0.2382  0.5239  0.2819
 4000SOL    HW113101   3.371   3.785   8.290  0.3447  0.7110  0.9144
 4000SOL    HW213102   3.469   3.803   8.177 -0.4367  1.2950  0.3223
 4001SOL     OW13103   0.799   8.914   4.144 -0.2330 -0.7761 -0.1868
 4001SOL    HW113104   0.752   8.996   4.128  1.3496  0.1940 -0.0533
 4001SOL    HW213105   0.734   8.846   4.127 -1.7311  0.4993  0.1703
 4002SOL     OW13106   0.976   7.279   4.560  0.5794 -0.6986 -0.1236
 4002SOL    HW113107   0.909   7.249   4.622  0.7294 -1.8842 -0.5027
 4002SOL    HW213108   0.960   7.226   4.481  0.9549  0.1505 -0.7807
 4003SOL     OW13109   1.015   1.440   3.669 -0.1725  0.3655  0.1320
 4003SOL    HW113110   0.928   1.479   3.674 -0.3364 -0.0066  0.2104
 4003SOL    HW213111   1.066   1.486   3.736 -0.5802 -0.1040  0.7667
 4004SOL     OW13112   6.432   0.704   7.715  0.0142  0.1543  0.7515
 4004SOL    HW113113   6.476   0.709   7.800 -0.1316 -0.5753  0.8745
 4004SOL    HW213114   6.450   0.616   7.683  0.8150  0.7070 -0.3959
 4005SOL     OW13115   5.719   4.181   4.205 -0.4491  0.6323 -0.0439
 4005SOL    HW113116   5.691   4.090   4.192  1.6589  0.0431 -0.8596
 4005SOL    HW213117   5.732   4.189   4.299  1.1764 -0.5453 -0.1219
 4006SOL     OW13118   0.787   1.576   3.938 -0.0257 -0.1974 -0.4863
 4006SOL    HW113119   0.723   1.509   3.963 -0.8520  0.6858 -0.1279
 4006SOL    HW213120   0.787   1.575   3.843 -0.9789  0.1205 -0.5081
 4007SOL     OW13121   6.340   7.310   7.013  0.3278 -0.4648  0.4928
 4007SOL    HW113122   6.353   7.233   7.068  0.7551  0.1090  1.2132
 4007SOL    HW213123   6.355   7.384   7.072 -0.1188  0.1691 -0.1772
 4008SOL     OW13124   8.911   6.426   6.602  0.3147  0.5402  0.2681
 4008SOL    HW113125   8.998   6.401   6.571  1.6205  2.5608  2.0201
 4008SOL    HW213126   8.887   6.356   6.663  1.8552  1.1353  1.6293
 4009SOL     OW13127   8.890   6.082   4.779 -0.4288  0.1678  0.0343
 4009SOL    HW113128   8.842   6.031   4.714 -0.3021 -2.2913  1.7068
 4009SOL    HW213129   8.842   6.068   4.861  0.3447  1.7642  0.8083
 4010SOL     OW13130   8.243   2.525   7.355 -0.1155  0.2301 -0.0934
 4010SOL    HW113131   8.297   2.474   7.415 -2.4859 -1.2926  0.9089
 4010SOL    HW213132   8.210   2.461   7.292  0.7677  1.4731 -1.9002
 4011SOL     OW13133   8.783   9.060   6.359 -0.0186 -0.6353  0.9962
 4011SOL    HW113134   8.854   9.037   6.299  1.4227  0.3316  2.2556
 4011SOL    HW213135   8.733   9.127   6.313  1.0236  0.0397  0.8264
 4012SOL     OW13136   1.886   2.681   8.454  0.1283  0.1862 -0.0357
 4012SOL    HW113137   1.968   2.636   8.474  1.3076  1.3674 -1.9404
 4012SOL    HW213138   1.847   2.700   8.539  0.6778 -2.3597  0.8780
 4013SOL     OW13139   5.075   1.151   5.651 -0.1885 -0.1031  0.0726
 4013SOL    HW113140   4.992   1.109   5.671 -0.4815 -0.8358 -2.3350
 4013SOL    HW213141   5.122   1.087   5.596  1.7229  0.5299  0.8793
 4014SOL     OW13142   0.271   6.145   4.958  0.8660  0.0770 -0.4664
 4014SOL    HW113143   0.303   6.214   5.016 -0.2420  0.0400  0.2282
 4014SOL    HW213144   0.341   6.132   4.894  3.0358 -1.2903  2.0136
 4015SOL     OW13145   8.655   6.839   2.842 -0.0699  0.2016  0.2990
 4015SOL    HW113146   8.624   6.752   2.868 -0.9285  0.1338 -0.8840
 4015SOL    HW213147   8.575   6.890   2.827  0.4011  1.5322  1.9602
 4016SOL     OW13148   5.498   7.926   9.085 -0.5225 -0.0239  0.5516
 4016SOL    HW113149   5.588   7.901   9.103 -0.6076  0.0008  1.0189
 4016SOL    HW213150   5.505   8.012   9.043 -0.3079 -0.2197  0.1783
 4017SOL     OW13151   7.275   7.000   4.312 -0.2423 -0.1410 -0.0008
 4017SOL    HW113152   7.273   6.918   4.362  0.1794  0.0754  0.3757
 4017SOL    HW213153   7.361   7.037   4.329 -0.7049  0.7647  0.4554
 4018SOL     OW13154   5.884   0.647   3.322 -0.2460  0.2527  0.4186
 4018SOL    HW113155   5.900   0.590   3.398  2.1653  0.8626  0.4375
 4018SOL    HW213156   5.921   0.599   3.248 -0.1667  0.8431  0.0721
 4019SOL     OW13157   5.599   0.047   5.268  0.1524  0.1119 -0.6532
 4019SOL    HW113158   5.556   0.008   5.191 -1.0103 -0.0490  0.0468
 4019SOL    HW213159   5.670  -0.013   5.289 -0.7747 -0.9363 -0.4125
 4020SOL     OW13160   7.690   9.019   4.924 -0.2128  0.1193  0.2724
 4020SOL    HW113161   7.605   9.023   4.879 -0.2481 -0.4388  0.2810
 4020SOL    HW213162   7.750   8.985   4.857  0.1313  1.0780  0.0876
 4021SOL     OW13163   0.374   5.670   6.840 -0.0304  0.2917  0.7394
 4021SOL    HW113164   0.344   5.644   6.752 -1.3708 -0.0704  1.2761
 4021SOL    HW213165   0.469   5.657   6.837 -0.1541 -0.5748 -0.3767
 4022SOL     OW13166   5.755   4.880   7.781  0.7826 -0.3968 -1.0758
 4022SOL    HW113167   5.766   4.899   7.688  1.1912  1.2229 -0.7129
 4022SOL    HW213168   5.686   4.939   7.810  1.9401  0.4588  0.0446
 4023SOL     OW13169   1.805   5.525   0.894  0.2019  0.1664 -0.2447
 4023SOL    HW113170   1.876   5.490   0.947  0.0595  0.8649  0.4140
 4023SOL    HW213171   1.847   5.585   0.833  0.3280 -0.4161 -0.7477
 4024SOL     OW13172   2.086   3.404   1.527 -0.4229  0.5492  0.8536
 4024SOL    HW113173   2.014   3.429   1.585  0.4605 -2.1707  3.4093
 4024SOL    HW213174   2.057   3.321   1.488  0.7164  0.1914  0.7325
 4025SOL     OW13175   5.522   6.984   0.474  0.7828  0.0443  0.8342
 4025SOL    HW113176   5.471   7.066   0.476  1.5929  0.5738  0.2035
 4025SOL    HW213177   5.458   6.916   0.496 -0.1306  0.7355  0.3705
 4026SOL     OW13178   0.191   2.580   0.967 -0.6001  0.2238 -0.4683
 4026SOL    HW113179   0.179   2.493   1.005 -0.7682  0.4101 -0.0905
 4026SOL    HW213180   0.202   2.637   1.042 -0.7642  0.5722 -0.7080
 4027SOL     OW13181   6.245   0.303   2.501  0.5924 -0.7351 -0.1030
 4027SOL    HW113182   6.245   0.207   2.494  2.6092 -0.6583 -2.9918
 4027SOL    HW213183   6.332   0.324   2.536  0.2517  0.0765  0.2812
 4028SOL     OW13184   0.509   5.635   5.265 -0.2298  0.5313 -0.3078
 4028SOL    HW113185   0.550   5.695   5.202 -1.4461  0.2896 -1.3530
 4028SOL    HW213186   0.474   5.564   5.212  1.0071 -1.0515  0.8870
 4029SOL     OW13187   4.105   7.120   8.904 -0.3700 -0.5963 -0.9555
 4029SOL    HW113188   4.198   7.140   8.915 -0.8908  1.6680 -0.0947
 4029SOL    HW213189   4.096   7.098   8.812  0.7232  1.2870 -1.5750
 4030SOL     OW13190   1.873   1.649   6.525 -0.0254 -0.2322 -0.3038
 4030SOL    HW113191   1.797   1.631   6.469 -0.6870  2.1061 -0.2434
 4030SOL    HW213192   1.932   1.699   6.469  0.8247 -0.7269  0.1228
 4031SOL     OW13193   5.708   2.693   3.896  0.3198 -0.0867  0.3609
 4031SOL    HW113194   5.640   2.760   3.897 -0.1423 -0.4736 -1.3256
 4031SOL    HW213195   5.664   2.612   3.920  0.6583  0.0253  1.3867
 4032SOL     OW13196   7.502   0.321   6.780  0.2390 -0.4951  0.2610
 4032SOL    HW113197   7.467   0.248   6.832 -0.6590  0.3757  0.9261
 4032SOL    HW213198   7.440   0.392   6.794  1.6279  0.7318  0.4713
 4033SOL     OW13199   6.270   0.958   6.532 -0.4589 -0.1128 -0.3396
 4033SOL    HW113200   6.335   0.888   6.540  0.7538  0.9983 -0.0951
 4033SOL    HW213201   6.321   1.038   6.541 -1.4138  0.9144 -3.0224
 4034SOL     OW13202   6.082   7.320   6.880 -0.7321  0.6415  0.1054
 4034SOL    HW113203   6.032   7.383   6.932 -1.1921  0.6413 -0.3293
 4034SOL    HW213204   6.168   7.316   6.923  0.2087  3.4797 -1.2752
 4035SOL     OW13205   0.208   1.066   0.951 -0.1012  0.4563 -0.9950
 4035SOL    HW113206   0.165   1.014   1.019 -0.3028  0.1844 -1.3290
 4035SOL    HW213207   0.286   1.016   0.928 -0.0531  0.5297 -0.9927
 4036SOL     OW13208   2.639   0.348   2.715  0.1877  0.2927 -0.4115
 4036SOL    HW113209   2.667   0.265   2.754  0.3088  0.5012 -0.0464
 4036SOL    HW213210   2.562   0.373   2.766 -0.6313 -0.2349 -1.3548
 4037SOL     OW13211   0.445   5.044   1.242  0.2309  0.2578 -0.0238
 4037SOL    HW113212   0.487   4.958   1.242 -0.2065  0.0286  1.0808
 4037SOL    HW213213   0.492   5.094   1.176  0.3997 -0.8743 -0.7789
 4038SOL     OW13214   4.412   8.902   8.876  0.2042 -0.2709 -0.5525
 4038SOL    HW113215   4.503   8.931   8.882 -0.3596  1.9909 -1.7912
 4038SOL    HW213216   4.409   8.849   8.797  1.1041 -3.4566  1.3787
 4039SOL     OW13217   2.124   0.946   2.159  1.0805 -0.2523 -0.1406
 4039SOL    HW113218   2.090   0.857   2.152  0.8748 -0.1513 -0.4350
 4039SOL    HW213219   2.191   0.941   2.227 -0.3199 -0.2173  1.3038
 4040SOL     OW13220   7.574   0.999   2.279 -0.1741  0.1198  0.2912
 4040SOL    HW113221   7.532   1.059   2.217  1.4499  3.2456  1.9910
 4040SOL    HW213222   7.595   0.921   2.226 -1.5920  1.3335 -2.2750
 4041SOL     OW13223   6.701   7.980   4.315 -0.3820  0.2026 -0.6908
 4041SOL    HW113224   6.703   8.044   4.385 -0.9973 -0.4759 -0.0364
 4041SOL    HW213225   6.789   7.942   4.314 -0.1615  0.7117 -0.7629
 4042SOL     OW13226   1.717   4.650   6.789  0.3981  0.5911  0.7849
 4042SOL    HW113227   1.640   4.619   6.741  2.0112 -3.7984  0.6072
 4042SOL    HW213228   1.780   4.672   6.721  0.8334 -0.3869  0.8511
 4043SOL     OW13229   7.579   6.324   3.299 -0.9990  0.3229 -0.3941
 4043SOL    HW113230   7.656   6.301   3.246 -0.6457  0.8447 -0.1223
 4043SOL    HW213231   7.557   6.413   3.271 -0.9728  0.5011  0.1400
 4044SOL     OW13232   7.510   5.082   4.267 -0.0671 -0.1005 -0.1429
 4044SOL    HW113233   7.536   5.109   4.179 -1.4997 -0.1927 -0.6246
 4044SOL    HW213234   7.463   5.158   4.302 -1.5713 -0.8715 -0.3890
 4045SOL     OW13235   5.824   0.834   4.539  0.2644 -0.1317 -0.2171
 4045SOL    HW113236   5.798   0.772   4.471 -0.2330 -1.6632  1.2911
 4045SOL    HW213237   5.744   0.881   4.561 -0.1346 -1.2573  0.8628
 4046SOL     OW13238   3.101   0.119   8.727  0.1391  0.3433  0.0067
 4046SOL    HW113239   3.099   0.067   8.646 -2.2827  0.4546 -0.0798
 4046SOL    HW213240   3.061   0.062   8.793  2.9651 -0.1326  1.4753
 4047SOL     OW13241   1.423   3.105   1.011 -1.1481  0.2766  0.1979
 4047SOL    HW113242   1.350   3.096   1.073 -0.6304 -0.8551  0.6628
 4047SOL    HW213243   1.472   3.181   1.042 -1.9372  0.8626  0.0613
 4048SOL     OW13244   4.449   5.314   5.592 -0.5342  0.1768  0.0290
 4048SOL    HW113245   4.455   5.344   5.683 -1.4076  0.0945  0.1191
 4048SOL    HW213246   4.538   5.289   5.569 -0.1553  0.9402  0.6097
 4049SOL     OW13247   2.591   6.702   2.129 -0.1426 -0.4585 -0.3178
 4049SOL    HW113248   2.529   6.654   2.073 -2.3885 -0.0856  1.6706
 4049SOL    HW213249   2.573   6.794   2.112  1.4982 -0.2834 -1.3318
 4050SOL     OW13250   4.542   2.005   7.901 -0.2805  0.0093 -0.3330
 4050SOL    HW113251   4.585   2.039   7.822  3.4200  1.0185  1.8438
 4050SOL    HW213252   4.449   2.001   7.879  0.1335  3.4548 -3.6011
 4051SOL     OW13253   6.817   3.147   1.846 -0.9944  0.1478  0.6370
 4051SOL    HW113254   6.745   3.187   1.797 -0.1222  1.7467  0.6142
 4051SOL    HW213255   6.896   3.170   1.797 -0.4163 -1.5055  0.7096
 4052SOL     OW13256   0.414   6.990   0.818 -0.4046 -0.3300  0.3294
 4052SOL    HW113257   0.374   6.992   0.904  0.6723 -1.7645  0.8951
 4052SOL    HW213258   0.341   6.999   0.757 -1.7910 -3.6321  1.2889
 4053SOL     OW13259   2.063   6.363   2.847 -0.0748 -0.0503  0.1345
 4053SOL    HW113260   2.074   6.356   2.942  1.0734 -3.2977 -0.1105
 4053SOL    HW213261   1.994   6.300   2.826  0.5699 -0.3306 -1.2784
 4054SOL     OW13262   4.483   2.877   0.941 -0.1190  0.1301  0.0645
 4054SOL    HW113263   4.493   2.782   0.948  0.9199  0.2565  0.4439
 4054SOL    HW213264   4.553   2.904   0.881 -0.7619  0.5934 -0.4851
 4055SOL     OW13265   5.688   6.866   3.102  0.1590 -0.5392 -0.1762
 4055SOL    HW113266   5.745   6.789   3.109  0.4219 -0.4012 -0.7258
 4055SOL    HW213267   5.708   6.917   3.181  0.4610 -0.7185 -0.1343
 4056SOL     OW13268   0.794   8.441   4.282 -0.1400  0.3920 -0.1400
 4056SOL    HW113269   0.864   8.456   4.218  0.5378 -1.8061  0.0146
 4056SOL    HW213270   0.778   8.527   4.320  1.4344  1.2292 -1.2539
 4057SOL     OW13271   8.253   5.143   8.556  0.4412 -0.0640  0.0949
 4057SOL    HW113272   8.329   5.102   8.514  1.0625  0.1489  0.9624
 4057SOL    HW213273   8.241   5.225   8.508  1.4564  0.4172  0.6101
 4058SOL     OW13274   7.220   0.741   0.713 -0.2237 -0.0989  0.1506
 4058SOL    HW113275   7.232   0.793   0.792  1.0643 -0.9333  0.5330
 4058SOL    HW213276   7.166   0.796   0.656 -1.3630  0.4265  1.6683
 4059SOL     OW13277   4.274   8.320   3.618  0.2089  1.0951  0.4909
 4059SOL    HW113278   4.354   8.337   3.567 -0.7874  1.2341 -1.0919
 4059SOL    HW213279   4.280   8.380   3.692  1.9449  0.5342  0.8497
 4060SOL     OW13280   1.565   3.884   8.981 -0.4306  0.4809 -0.3875
 4060SOL    HW113281   1.558   3.894   9.076  1.0855  2.4787 -0.4120
 4060SOL    HW213282   1.539   3.793   8.965 -0.8356  0.1131  1.9139
 4061SOL     OW13283   8.348   6.348   7.308 -0.7739 -0.1026  0.4673
 4061SOL    HW113284   8.402   6.270   7.317 -1.0261 -0.3759 -0.3326
 4061SOL    HW213285   8.264   6.315   7.277 -0.3874  0.6257 -1.4909
 4062SOL     OW13286   8.742   8.742   3.601  0.2070  0.0456  0.0869
 4062SOL    HW113287   8.755   8.698   3.684  2.0968 -2.5941 -1.4509
 4062SOL    HW213288   8.647   8.735   3.584  0.2831 -2.7794  0.3630
 4063SOL     OW13289   5.306   8.713   4.296  0.1758  0.0537 -0.4191
 4063SOL    HW113290   5.337   8.745   4.211 -0.1502  0.0119 -0.5564
 4063SOL    HW213291   5.274   8.791   4.341 -0.1155  0.0024 -0.5361
 4064SOL     OW13292   9.015   0.497   7.538 -0.0620  0.3617  0.1205
 4064SOL    HW113293   8.987   0.480   7.628  1.2935  0.5362  0.5864
 4064SOL    HW213294   8.952   0.562   7.506 -1.0217 -0.2639  0.6694
 4065SOL     OW13295   5.188   2.925   6.532 -0.3189  0.2388 -0.3785
 4065SOL    HW113296   5.281   2.947   6.531 -0.4330  0.9005  1.4161
 4065SOL    HW213297   5.158   2.947   6.444  1.1453  0.2882 -0.8956
 4066SOL     OW13298   3.315   7.218   8.642 -0.1765 -0.5445 -0.3690
 4066SOL    HW113299   3.388   7.179   8.690 -0.9001 -3.0638 -1.1640
 4066SOL    HW213300   3.333   7.312   8.644  2.5489 -0.9841  0.3061
 4067SOL     OW13301   7.654   6.832   0.960 -0.4766 -0.4041  0.1915
 4067SOL    HW113302   7.631   6.739   0.965 -0.8912 -0.2947  0.3429
 4067SOL    HW213303   7.731   6.834   0.904 -0.7673 -0.7912 -0.2372
 4068SOL     OW13304   1.022   0.789   0.495  0.1099  0.6076  0.0207
 4068SOL    HW113305   1.024   0.878   0.532 -1.4386  1.1267 -1.0048
 4068SOL    HW213306   1.007   0.803   0.402  0.8615 -0.7365 -0.3227
 4069SOL     OW13307   8.126   2.460   3.221  0.0595  0.2925 -0.2047
 4069SOL    HW113308   8.113   2.397   3.292  3.7396  0.0566  0.4570
 4069SOL    HW213309   8.135   2.544   3.266  1.5725  0.2687 -0.4407
 4070SOL     OW13310   8.181   7.774   8.558  0.5554  0.1963 -0.0843
 4070SOL    HW113311   8.087   7.778   8.540  0.4360  1.0898  0.6778
 4070SOL    HW213312   8.222   7.811   8.480  0.3041 -0.4624 -0.5404
 4071SOL     OW13313   5.763   3.796   8.021  0.3589  0.7473 -0.0998
 4071SOL    HW113314   5.840   3.839   8.057  1.4635 -0.0278 -1.4796
 4071SOL    HW213315   5.765   3.707   8.057  0.6996  0.4057 -0.9318
 4072SOL     OW13316   5.542   4.606   2.990  0.1665 -0.2373 -0.3761
 4072SOL    HW113317   5.551   4.664   2.914 -0.3393 -0.1424 -0.3730
 4072SOL    HW213318   5.447   4.604   3.007 -0.1265 -2.9404 -1.8204
 4073SOL     OW13319   3.056   2.727   6.483  0.5210  0.2747  0.3155
 4073SOL    HW113320   2.976   2.678   6.500  0.3259  0.0107 -1.2102
 4073SOL    HW213321   3.113   2.665   6.437  1.2064  0.7641  0.4779
 4074SOL     OW13322   5.062   3.721   8.047 -0.1361 -0.5022  0.3421
 4074SOL    HW113323   5.087   3.635   8.082  0.8172 -1.0340 -1.5229
 4074SOL    HW213324   5.074   3.781   8.121 -3.2203 -2.2251  2.5186
 4075SOL     OW13325   4.288   4.213   1.864 -0.5155 -0.0898 -0.0714
 4075SOL    HW113326   4.311   4.213   1.957  1.8371 -1.8678 -0.5623
 4075SOL    HW213327   4.301   4.304   1.837  1.8369 -0.1206  0.7149
 4076SOL     OW13328   1.753   3.598   7.344 -0.0293  0.3528  0.2113
 4076SOL    HW113329   1.766   3.504   7.334 -0.8700  0.1165  1.1055
 4076SOL    HW213330   1.660   3.607   7.363 -0.9957  1.7613 -4.0921
 4077SOL     OW13331   1.336   4.155   1.979 -0.3478 -0.6916 -0.3284
 4077SOL    HW113332   1.369   4.148   2.069 -1.8945 -0.0645  0.3253
 4077SOL    HW213333   1.392   4.222   1.939 -1.1694  0.8644  0.9614
 4078SOL     OW13334   2.815   0.767   5.683 -0.0594 -0.0164 -0.2402
 4078SOL    HW113335   2.877   0.822   5.634  0.4455 -1.5314 -1.3858
 4078SOL    HW213336   2.746   0.827   5.710  0.5723  1.2283 -1.2784
 4079SOL     OW13337   8.290   3.423   8.554 -0.1287 -0.8014 -0.2703
 4079SOL    HW113338   8.320   3.511   8.576  0.4419 -1.0236 -0.1325
 4079SOL    HW213339   8.265   3.385   8.638  0.8839 -1.2212 -0.1369
 4080SOL     OW13340   6.272   2.399   3.123  0.0973  0.0478  0.3694
 4080SOL    HW113341   6.297   2.417   3.033  1.9078  1.2216  1.0414
 4080SOL    HW213342   6.284   2.304   3.133  0.2488 -0.0284 -0.5209
 4081SOL     OW13343   4.037   6.495   2.256  0.0205  0.4481 -1.4039
 4081SOL    HW113344   3.974   6.542   2.312  0.8938  1.0927 -0.9417
 4081SOL    HW213345   4.101   6.459   2.316 -0.0374 -0.4291 -1.8547
 4082SOL     OW13346   1.005   2.615   8.530  0.2008 -0.1273 -0.8701
 4082SOL    HW113347   1.051   2.555   8.471  0.3485 -0.1673 -0.7176
 4082SOL    HW213348   1.064   2.622   8.606  0.6945  1.0403 -1.3353
 4083SOL     OW13349   7.413   0.593   5.608 -0.0466 -0.0347  0.1034
 4083SOL    HW113350   7.425   0.610   5.515  0.9700 -2.6200 -0.3074
 4083SOL    HW213351   7.365   0.670   5.640 -0.2602  1.0103 -2.4763
 4084SOL     OW13352   3.680   7.106   5.333  0.3052  0.1788 -0.5544
 4084SOL    HW113353   3.720   7.029   5.293  0.5641  0.0774 -0.1114
 4084SOL    HW213354   3.708   7.102   5.424 -0.6729  0.1520 -0.2548
 4085SOL     OW13355   2.733   4.998   3.142 -0.1159  0.4378  0.1135
 4085SOL    HW113356   2.808   5.054   3.124 -0.9722  1.6640  0.3011
 4085SOL    HW213357   2.772   4.914   3.166  1.1865  0.9433 -0.1545
 4086SOL     OW13358   6.455   3.207   8.874 -0.0603 -0.1013 -0.7386
 4086SOL    HW113359   6.480   3.164   8.956  0.3886  1.5629  0.0526
 4086SOL    HW213360   6.399   3.144   8.830  0.2187 -1.3076  0.5527
 4087SOL     OW13361   3.594   6.960   1.394  0.8062 -0.2529  0.1063
 4087SOL    HW113362   3.532   6.959   1.467  0.9628  0.0771  0.2472
 4087SOL    HW213363   3.678   6.980   1.434  0.7796  0.5882 -0.2384
 4088SOL     OW13364   5.704   0.998   2.365  0.0592 -0.6972  0.6929
 4088SOL    HW113365   5.621   0.988   2.412  0.5668 -0.7559  1.5983
 4088SOL    HW213366   5.761   1.044   2.426  0.2469  0.6812 -0.4779
 4089SOL     OW13367   7.005   4.954   7.093  0.6125 -0.1349 -0.2995
 4089SOL    HW113368   6.945   4.969   7.166  0.1228  2.9107 -1.2190
 4089SOL    HW213369   6.968   4.878   7.047  0.1536 -1.2255  1.7493
 4090SOL     OW13370   7.855   8.933   3.280  0.0949 -0.2934  0.1810
 4090SOL    HW113371   7.855   8.991   3.356 -1.0130  0.5775 -0.4523
 4090SOL    HW213372   7.927   8.965   3.225 -0.3231  0.3069 -0.0263
 4091SOL     OW13373   6.514   2.612   8.830 -0.0944  0.3488 -0.1245
 4091SOL    HW113374   6.583   2.633   8.892 -0.9829  2.0786  0.3308
 4091SOL    HW213375   6.541   2.654   8.749 -0.8729  1.5679  0.2229
 4092SOL     OW13376   1.588   3.018   5.839 -0.2641 -0.1138  0.0996
 4092SOL    HW113377   1.654   2.987   5.900  1.5534  1.3517 -1.0237
 4092SOL    HW213378   1.545   3.090   5.884  0.3214  0.2529  0.0811
 4093SOL     OW13379   2.308   6.259   5.039 -0.4763 -0.4162  0.1794
 4093SOL    HW113380   2.349   6.303   4.964 -2.0338  2.2467  0.7159
 4093SOL    HW213381   2.348   6.173   5.042  2.1011  0.5917 -1.6480
 4094SOL     OW13382   2.981   1.210   6.665  0.6195 -0.1194  0.1483
 4094SOL    HW113383   2.938   1.189   6.582  1.7408  0.4952 -0.6032
 4094SOL    HW213384   3.061   1.158   6.665  0.9780  0.4202  0.5187
 4095SOL     OW13385   5.117   0.135   1.017  0.5037  0.3093 -0.1064
 4095SOL    HW113386   5.196   0.096   1.055  0.0413 -1.1366 -0.5784
 4095SOL    HW213387   5.049   0.119   1.081  0.1469 -0.3501 -0.6423
 4096SOL     OW13388   6.861   4.006   2.124  0.2840  0.4944 -0.6300
 4096SOL    HW113389   6.796   3.969   2.064  1.1238 -0.4398 -0.9976
 4096SOL    HW213390   6.906   4.072   2.073 -1.2122  2.0943  0.0243
 4097SOL     OW13391   5.118   8.462   6.496 -0.1099  0.3431 -0.0988
 4097SOL    HW113392   5.141   8.538   6.551 -0.7633 -0.3141  1.1441
 4097SOL    HW213393   5.200   8.415   6.485  0.1229  0.7358 -0.0773
 4098SOL     OW13394   4.972   6.860   1.014  0.0513  0.0590  0.0985
 4098SOL    HW113395   5.011   6.894   0.933 -0.5597 -2.3222 -1.2942
 4098SOL    HW213396   4.885   6.830   0.988 -0.6320  0.3394  1.9404
 4099SOL     OW13397   5.391   5.561   5.515  0.1396 -0.4992 -1.0324
 4099SOL    HW113398   5.449   5.512   5.457  0.1174 -0.2108 -1.3050
 4099SOL    HW213399   5.361   5.635   5.461 -0.9715 -0.9808 -1.0934
 4100SOL     OW13400   7.112   8.283   7.529 -0.2687  0.2881  0.1447
 4100SOL    HW113401   7.059   8.291   7.450 -0.6933  0.1994  0.4220
 4100SOL    HW213402   7.049   8.270   7.600  0.1484 -0.8358  0.3411
 4101SOL     OW13403   0.670   2.909   7.222  0.3240 -0.2385  0.3092
 4101SOL    HW113404   0.765   2.906   7.217  0.2195 -1.2763 -2.3897
 4101SOL    HW213405   0.641   2.823   7.194 -1.4501  0.1475  0.7895
 4102SOL     OW13406   0.358   6.992   1.400 -0.2858  0.0835 -0.7553
 4102SOL    HW113407   0.425   6.984   1.468 -0.4726  0.9759 -0.4499
 4102SOL    HW213408   0.283   6.942   1.433  0.5450 -1.8010 -1.5631
 4103SOL     OW13409   7.390   7.911   9.124 -0.3989 -0.1667 -0.0917
 4103SOL    HW113410   7.408   7.849   9.194 -0.5577 -0.3499 -0.2122
 4103SOL    HW213411   7.469   7.964   9.118 -0.3341 -0.2373  0.1353
 4104SOL     OW13412   3.546   5.779   0.809  0.0643 -0.0901  0.1761
 4104SOL    HW113413   3.531   5.697   0.857  1.6802 -0.1679  0.6376
 4104SOL    HW213414   3.640   5.777   0.789  0.0712  1.5156 -0.0558
 4105SOL     OW13415   5.314   4.971   5.294 -0.3033 -0.1864 -0.1336
 4105SOL    HW113416   5.244   4.908   5.276  0.3333 -1.5418  1.7984
 4105SOL    HW213417   5.386   4.943   5.238  0.6012 -2.4237  1.9804
 4106SOL     OW13418   7.359   5.458   1.275 -0.1314  0.4978  0.3824
 4106SOL    HW113419   7.280   5.407   1.293  0.5582 -0.8671 -0.3392
 4106SOL    HW213420   7.424   5.426   1.338  0.3093  0.4872 -0.0682
 4107SOL     OW13421   0.247   3.669   5.358 -0.2525  0.1548 -0.0443
 4107SOL    HW113422   0.299   3.673   5.438  0.5849  3.5671 -0.5829
 4107SOL    HW213423   0.232   3.761   5.335 -2.0837 -0.7080 -2.7919
 4108SOL     OW13424   1.106   6.467   6.273  0.2099 -0.2272  0.0213
 4108SOL    HW113425   1.132   6.376   6.260 -1.0637 -1.0364  2.4667
 4108SOL    HW213426   1.034   6.481   6.212  0.6467 -0.7360 -0.6188
 4109SOL     OW13427   7.792   1.432   0.663  0.3651 -0.0944  1.0635
 4109SOL    HW113428   7.711   1.382   0.675  0.2771 -0.0476  0.6904
 4109SOL    HW213429   7.853   1.370   0.623  0.2382  0.1109  0.5470
 4110SOL     OW13430   8.009   2.321   1.460 -0.0431  0.3533  0.7076
 4110SOL    HW113431   8.003   2.407   1.500 -0.8198  0.5798  0.1382
 4110SOL    HW213432   7.982   2.260   1.528 -1.2815  0.7252  0.5652
 4111SOL     OW13433   3.581   2.362   7.145 -0.1288  0.3179  0.8243
 4111SOL    HW113434   3.663   2.383   7.188 -0.3346  0.9322  0.9246
 4111SOL    HW213435   3.526   2.325   7.214  0.5239 -1.4308  0.4755
 4112SOL     OW13436   5.525   2.151   1.548  0.5166  0.0811 -0.2267
 4112SOL    HW113437   5.576   2.202   1.485  0.1616  0.4256 -0.2383
 4112SOL    HW213438   5.454   2.113   1.496 -0.5829  1.4629  0.1737
 4113SOL     OW13439   3.959   4.253   7.042  0.3402  0.2661  0.0589
 4113SOL    HW113440   3.948   4.171   6.994  1.7592 -0.2878  0.6060
 4113SOL    HW213441   3.913   4.238   7.125 -1.5797  0.9972 -0.8197
 4114SOL     OW13442   9.080   1.819   0.433  0.5023 -0.0769  0.1772
 4114SOL    HW113443   9.135   1.890   0.465 -0.2798  0.3675  0.5518
 4114SOL    HW213444   9.071   1.760   0.507 -1.2690  0.9286  0.8219
 4115SOL     OW13445   7.954   5.313   1.013 -0.3271  0.4869 -0.1163
 4115SOL    HW113446   7.900   5.267   0.949 -0.5066  0.9297 -0.2923
 4115SOL    HW213447   7.892   5.370   1.059 -0.0954  0.6153  0.0375
 4116SOL     OW13448   0.546   1.781   0.064  0.0961  0.5441  0.3752
 4116SOL    HW113449   0.572   1.689   0.058  0.3641  0.6062  0.6040
 4116SOL    HW213450   0.450   1.778   0.064  0.0603  0.4027 -1.8214
 4117SOL     OW13451   7.834   3.807   5.903 -0.3781  0.2681  0.4487
 4117SOL    HW113452   7.792   3.889   5.931  0.3624  0.8217 -0.0129
 4117SOL    HW213453   7.862   3.824   5.812 -0.8717 -0.7577  0.0932
 4118SOL     OW13454   4.283   3.393   1.358  0.6735 -0.2655 -0.2274
 4118SOL    HW113455   4.340   3.466   1.381 -0.2921  0.3750  0.1825
 4118SOL    HW213456   4.338   3.315   1.368  1.3954  0.3165  0.4052
 4119SOL     OW13457   1.808   4.190   3.288  0.3656 -0.2013  0.5089
 4119SOL    HW113458   1.805   4.168   3.195  0.4917 -2.4799  0.9953
 4119SOL    HW213459   1.724   4.161   3.323  0.2053  0.8966  1.0718
 4120SOL     OW13460   6.910   5.414   5.500 -0.1925  0.3800  0.1901
 4120SOL    HW113461   6.839   5.364   5.542 -1.2294  1.7214  0.1297
 4120SOL    HW213462   6.916   5.494   5.552  0.1572  1.0057 -0.7917
 4121SOL     OW13463   1.384   8.303   0.112  0.8201  0.0935 -0.2004
 4121SOL    HW113464   1.460   8.268   0.159  0.4493  0.4241  0.6632
 4121SOL    HW213465   1.413   8.309   0.021  1.7653  0.0256  0.0841
 4122SOL     OW13466   0.415   4.644   2.449  0.4826  0.3222  0.4016
 4122SOL    HW113467   0.406   4.557   2.410  0.7661  0.0555  0.9323
 4122SOL    HW213468   0.487   4.636   2.511  0.4925  0.9297  0.4747
 4123SOL     OW13469   7.235   0.226   7.094 -0.2451 -0.2874 -0.0596
 4123SOL    HW113470   7.233   0.300   7.154  0.0692 -0.8679  0.6840
 4123SOL    HW213471   7.148   0.186   7.101 -0.9871  0.9417 -1.6868
 4124SOL     OW13472   8.476   7.561   2.263 -0.5646 -0.2162  0.0914
 4124SOL    HW113473   8.410   7.598   2.321 -1.8708 -2.0959 -0.0893
 4124SOL    HW213474   8.546   7.532   2.322 -1.0922 -0.5461  0.5734
 4125SOL     OW13475   3.019   7.388   1.572  0.1384  0.2786  0.0760
 4125SOL    HW113476   3.003   7.434   1.654 -0.5733  0.6603 -0.2675
 4125SOL    HW213477   2.948   7.325   1.565  0.7414 -0.4246  0.2206
 4126SOL     OW13478   3.622   7.147   7.288  0.1110  0.1975  0.4671
 4126SOL    HW113479   3.609   7.163   7.195 -1.7825 -0.8427  0.5111
 4126SOL    HW213480   3.716   7.130   7.297  0.5603  1.6141 -1.0059
 4127SOL     OW13481   2.541   0.850   7.086  0.5424 -0.6090 -0.3659
 4127SOL    HW113482   2.542   0.941   7.117 -0.3605 -0.5649 -0.4379
 4127SOL    HW213483   2.511   0.800   7.162 -4.0886 -0.2421 -1.6186
 4128SOL     OW13484   4.132   6.528   1.998  0.8921 -0.6021 -0.3398
 4128SOL    HW113485   4.105   6.549   2.087 -1.3862 -0.8693 -0.9238
 4128SOL    HW213486   4.169   6.610   1.964  0.5804 -0.1453  0.4083
 4129SOL     OW13487   0.619   2.150   7.023 -0.9728 -0.0663 -0.3390
 4129SOL    HW113488   0.582   2.234   7.050  0.1021  0.4596 -0.4364
 4129SOL    HW213489   0.639   2.105   7.105  0.1703  0.5728 -0.2389
 4130SOL     OW13490   0.205   2.151   2.880  0.4619  0.4081  0.2154
 4130SOL    HW113491   0.198   2.062   2.844 -1.9243  0.7310 -0.2593
 4130SOL    HW213492   0.238   2.204   2.807  0.7857  0.1387  0.1595
 4131SOL     OW13493   0.410   6.455   2.517 -0.2547 -0.3849  0.4900
 4131SOL    HW113494   0.439   6.529   2.571  0.0655  1.0960 -1.5935
 4131SOL    HW213495   0.476   6.449   2.448 -1.0893 -1.6541 -0.2265
 4132SOL     OW13496   4.056   8.159   7.898  0.2630  0.3929  0.5902
 4132SOL    HW113497   4.015   8.245   7.906  0.0496  0.4393 -0.8332
 4132SOL    HW213498   4.005   8.114   7.831 -0.5952 -1.4423  2.3421
 4133SOL     OW13499   0.944   4.172   0.552 -0.0139 -0.1377 -0.0237
 4133SOL    HW113500   0.945   4.181   0.647  1.9290 -0.9521  0.0648
 4133SOL    HW213501   0.878   4.104   0.535 -0.4379  0.0780  0.7225
 4134SOL     OW13502   1.520   7.566   0.424  0.2472  0.4756 -0.3782
 4134SOL    HW113503   1.557   7.654   0.413 -0.2849  0.6107 -1.2362
 4134SOL    HW213504   1.596   7.507   0.420  0.5541  0.8658 -0.3201
 4135SOL     OW13505   2.334   1.948   2.865 -0.0534  0.2961  0.2882
 4135SOL    HW113506   2.382   1.886   2.810 -1.5376 -0.6337 -0.0196
 4135SOL    HW213507   2.387   1.955   2.945  0.6329 -0.6267 -0.0635
 4136SOL     OW13508   7.330   5.063   6.866 -0.3382 -0.3250  0.0103
 4136SOL    HW113509   7.323   4.974   6.899  2.2028  0.3861  2.9482
 4136SOL    HW213510   7.284   5.117   6.930  1.2602  0.7418  0.3443
 4137SOL     OW13511   8.435   8.218   6.699  0.1140  0.0094  0.5340
 4137SOL    HW113512   8.352   8.264   6.714 -1.3259 -2.2940  0.1411
 4137SOL    HW213513   8.451   8.229   6.605 -0.0236  0.0225  0.5106
 4138SOL     OW13514   1.089   0.811   1.965  0.5782  0.2217 -0.5925
 4138SOL    HW113515   1.113   0.876   2.032  0.8021  0.2746 -0.7225
 4138SOL    HW213516   0.995   0.798   1.977  0.7089 -0.1636  0.0818
 4139SOL     OW13517   1.925   2.534   8.224  0.0887 -0.4150  0.0613
 4139SOL    HW113518   1.835   2.505   8.207  0.6901 -1.1048 -2.4875
 4139SOL    HW213519   1.916   2.618   8.268 -1.8740  0.4363 -1.7981
 4140SOL     OW13520   0.511   1.058   9.109 -0.2271 -0.3106  0.5001
 4140SOL    HW113521   0.502   1.005   9.030  1.7433 -1.1795  0.8019
 4140SOL    HW213522   0.599   1.039   9.141  0.6120  3.1264  0.6590
 4141SOL     OW13523   6.729   6.048   4.735  0.5113  0.1767  0.0287
 4141SOL    HW113524   6.719   6.143   4.732  0.8863  0.1905 -1.6266
 4141SOL    HW213525   6.808   6.031   4.684 -0.0821 -1.0945 -0.4994
 4142SOL     OW13526   3.720   7.035   2.341  0.4153 -0.0020  0.7675
 4142SOL    HW113527   3.802   7.063   2.381  1.2830 -0.0681 -0.8828
 4142SOL    HW213528   3.668   7.115   2.333  0.8586  0.2723  0.6210
 4143SOL     OW13529   1.214   4.596   2.712  0.0971 -0.0595 -0.4471
 4143SOL    HW113530   1.200   4.553   2.796 -1.5043  1.9619  0.4147
 4143SOL    HW213531   1.281   4.662   2.729 -0.3430  0.4621 -0.6893
 4144SOL     OW13532   8.984   4.590   6.672  0.4486 -0.0994  0.1471
 4144SOL    HW113533   8.996   4.672   6.625  2.3217 -0.1773  0.4015
 4144SOL    HW213534   8.929   4.537   6.615 -1.0573  1.4060  0.1169
 4145SOL     OW13535   2.342   3.922   4.766 -0.4192 -0.1938 -0.1613
 4145SOL    HW113536   2.311   3.982   4.833 -0.8487 -1.4780  0.8234
 4145SOL    HW213537   2.317   3.963   4.683 -3.2256 -0.3186  0.5374
 4146SOL     OW13538   5.596   8.875   8.927  0.2158  0.2772  0.1664
 4146SOL    HW113539   5.525   8.881   8.863  1.0986  0.1285 -0.8550
 4146SOL    HW213540   5.662   8.820   8.885  0.4699 -0.5250  1.5483
 4147SOL     OW13541   8.786   7.455   0.642  0.0552 -0.2426 -0.2133
 4147SOL    HW113542   8.811   7.428   0.730  1.7195 -0.1706 -0.6399
 4147SOL    HW213543   8.768   7.549   0.650 -1.8700 -0.6148  0.4431
 4148SOL     OW13544   7.659   8.285   1.073  0.0589  0.1374  0.5270
 4148SOL    HW113545   7.589   8.337   1.034 -2.0093 -0.9953  2.5022
 4148SOL    HW213546   7.691   8.338   1.146  1.4307  0.7174 -0.4580
 4149SOL     OW13547   0.093   5.632   7.927 -0.4928  0.0504 -0.3257
 4149SOL    HW113548   0.003   5.644   7.895  0.4108  2.1479 -2.3938
 4149SOL    HW213549   0.101   5.695   7.999 -0.8537 -0.5754  0.2647
 4150SOL     OW13550   4.398   0.556   8.617 -0.3340  0.0086  0.3967
 4150SOL    HW113551   4.354   0.609   8.683 -1.8556  0.2539 -0.7690
 4150SOL    HW213552   4.338   0.483   8.600 -1.4135  1.4543 -2.7310
 4151SOL     OW13553   8.903   2.732   3.346 -0.1048  0.0096 -0.3250
 4151SOL    HW113554   8.941   2.668   3.286 -0.8371 -0.5693 -0.1856
 4151SOL    HW213555   8.813   2.743   3.315 -0.4452 -0.1808  0.5654
 4152SOL     OW13556   4.322   0.555   2.942 -0.0643  0.0675 -1.3814
 4152SOL    HW113557   4.400   0.507   2.969 -0.5215 -0.8618 -1.6766
 4152SOL    HW213558   4.272   0.493   2.888 -1.0939  0.5786 -1.0524
 4153SOL     OW13559   8.625   6.476   6.836 -0.0234 -0.2522  0.2059
 4153SOL    HW113560   8.581   6.476   6.920  0.5226 -0.4464  0.4988
 4153SOL    HW213561   8.556   6.460   6.772 -0.2995 -1.0093  0.6881
 4154SOL     OW13562   1.266   8.336   4.420 -0.1975  0.0206  0.3326
 4154SOL    HW113563   1.262   8.241   4.421  0.4565 -0.0070  0.3816
 4154SOL    HW213564   1.355   8.358   4.448 -0.3473  0.6451  0.3492
 4155SOL     OW13565   3.602   2.715   1.493 -0.8043  0.0664  0.4130
 4155SOL    HW113566   3.540   2.772   1.537  1.2414  1.7724  1.2602
 4155SOL    HW213567   3.661   2.685   1.563  0.3922 -0.0375 -0.5939
 4156SOL     OW13568   2.450   6.671   2.989  0.4552 -0.1803  0.4400
 4156SOL    HW113569   2.435   6.636   2.901 -0.4602 -0.4646  0.7023
 4156SOL    HW213570   2.518   6.737   2.977  0.4846 -0.3636 -0.4484
 4157SOL     OW13571   8.087   1.470   2.443 -0.2222  0.1264  0.4678
 4157SOL    HW113572   8.093   1.564   2.425  0.0328  0.5859  2.6733
 4157SOL    HW213573   8.055   1.465   2.533 -0.8216 -1.9301  0.1951
 4158SOL     OW13574   6.859   0.714   1.499 -0.0914 -0.0323  0.1608
 4158SOL    HW113575   6.767   0.718   1.525 -0.6872  1.1006 -1.8544
 4158SOL    HW213576   6.886   0.806   1.491  0.4960 -0.3017 -1.4571
 4159SOL     OW13577   8.449   8.981   2.184 -0.3999 -0.5300 -0.2478
 4159SOL    HW113578   8.446   8.919   2.111  1.0779 -0.4142 -0.4456
 4159SOL    HW213579   8.390   9.051   2.158  0.3731 -0.3115 -1.5359
 4160SOL     OW13580   3.716   3.365   2.987  0.0282 -0.2255 -0.4987
 4160SOL    HW113581   3.713   3.453   2.951 -3.0571 -0.0611 -0.0971
 4160SOL    HW213582   3.702   3.307   2.912  0.4813 -0.2935 -0.5334
 4161SOL     OW13583   8.487   0.021   1.565  0.0342  0.3009  0.1197
 4161SOL    HW113584   8.479  -0.050   1.500  0.2870  1.0552 -0.7600
 4161SOL    HW213585   8.534  -0.019   1.638 -0.2434 -0.5664 -0.1518
 4162SOL     OW13586   8.761   6.019   4.466  0.5563  0.1209  0.2995
 4162SOL    HW113587   8.702   6.094   4.468  0.3036 -0.0712  0.0612
 4162SOL    HW213588   8.732   5.964   4.539 -0.1350 -0.4041 -0.3484
 4163SOL     OW13589   6.224   1.963   7.838  0.0501  0.7406 -0.1367
 4163SOL    HW113590   6.161   1.891   7.831 -0.0493  0.6745  1.2380
 4163SOL    HW213591   6.280   1.953   7.761 -0.2376 -0.5418 -0.2064
 4164SOL     OW13592   0.969   4.332   2.763  0.3547  0.0986  0.0544
 4164SOL    HW113593   1.039   4.301   2.820  0.0797  0.1505  0.4298
 4164SOL    HW213594   1.005   4.327   2.675  0.5765 -0.5877  0.1748
 4165SOL     OW13595   6.955   2.594   8.974 -0.2848  0.0681 -0.4230
 4165SOL    HW113596   6.981   2.524   8.913  0.5210  0.9938 -1.1896
 4165SOL    HW213597   7.029   2.603   9.033 -1.1074 -0.8952  0.8069
 4166SOL     OW13598   3.570   6.130   7.431  0.2072 -0.4146 -0.3991
 4166SOL    HW113599   3.659   6.153   7.457 -0.3161 -1.3874  2.6440
 4166SOL    HW213600   3.581   6.072   7.355  2.3222 -1.9192  0.9374
 4167SOL     OW13601   6.771   0.631   4.592  0.7085  0.0129 -0.8493
 4167SOL    HW113602   6.750   0.542   4.566 -3.1773  0.4649  0.2254
 4167SOL    HW213603   6.744   0.685   4.518  1.3540  0.4483 -0.7776
 4168SOL     OW13604   1.601   7.218   5.063 -0.0064 -0.2732  0.5861
 4168SOL    HW113605   1.694   7.238   5.056  0.4731 -2.1356  0.9160
 4168SOL    HW213606   1.591   7.134   5.016 -1.7630  0.4841 -0.5141
 4169SOL     OW13607   7.210   0.449   3.979  0.2726 -0.6145 -0.7036
 4169SOL    HW113608   7.126   0.492   3.963 -0.9621 -2.1180  1.1991
 4169SOL    HW213609   7.253   0.503   4.046  0.2517 -0.5029 -0.7814
 4170SOL     OW13610   8.079   1.652   1.415  0.2813  0.7368  0.4935
 4170SOL    HW113611   8.165   1.659   1.457  0.1241  1.3981  0.7205
 4170SOL    HW213612   8.056   1.743   1.393 -0.3996  0.5756  0.5201
 4171SOL     OW13613   7.481   6.700   2.058 -0.0483  0.0901  0.6464
 4171SOL    HW113614   7.421   6.685   1.985 -1.6680  2.7063  1.2769
 4171SOL    HW213615   7.535   6.773   2.030  1.2633 -0.7050  1.0236
 4172SOL     OW13616   3.498   0.959   1.425  0.8105  0.4042  0.3174
 4172SOL    HW113617   3.486   1.034   1.367  1.7086  0.9507  0.8186
 4172SOL    HW213618   3.567   0.907   1.383  0.5454  0.1087  0.2355
 4173SOL     OW13619   8.708   1.735   1.068 -0.5001  0.2069  0.3587
 4173SOL    HW113620   8.704   1.658   1.011 -0.5065 -0.1484  0.8424
 4173SOL    HW213621   8.626   1.782   1.050 -1.1288 -0.5940  1.0529
 4174SOL     OW13622   3.841   5.838   4.565  0.2859 -0.0507  0.1078
 4174SOL    HW113623   3.891   5.772   4.613 -1.9258 -1.2826  0.8636
 4174SOL    HW213624   3.829   5.800   4.478 -1.2090 -0.8550  0.6204
 4175SOL     OW13625   6.863   5.300   8.556  0.4611 -0.8385 -0.1284
 4175SOL    HW113626   6.868   5.374   8.496 -0.4144 -0.1181  0.6656
 4175SOL    HW213627   6.837   5.226   8.500  1.6738 -0.6558 -0.9829
 4176SOL     OW13628   1.352   1.576   0.496  0.2370 -1.0405 -0.4592
 4176SOL    HW113629   1.261   1.606   0.496  0.2414 -1.0289 -0.2380
 4176SOL    HW213630   1.390   1.614   0.416 -0.0295 -1.2808 -0.7016
 4177SOL     OW13631   5.592   0.656   7.681  0.0554 -0.2815  0.0952
 4177SOL    HW113632   5.533   0.605   7.736  0.4092 -0.2309  0.5273
 4177SOL    HW213633   5.650   0.700   7.743 -0.5658  1.0565 -0.2396
 4178SOL     OW13634   7.909   8.612   5.348  0.2423 -0.3087  0.6354
 4178SOL    HW113635   7.816   8.632   5.337  0.8028  2.9296  0.8141
 4178SOL    HW213636   7.921   8.531   5.298 -2.6571 -0.9573  0.7624
 4179SOL     OW13637   2.342   0.123   2.239  0.2864 -0.2264 -0.3395
 4179SOL    HW113638   2.384   0.178   2.173 -0.1743 -0.3685 -0.7561
 4179SOL    HW213639   2.248   0.132   2.223  0.2081 -1.8812 -1.0695
 4180SOL     OW13640   3.218   5.934   1.555  0.6500  0.6338  0.7826
 4180SOL    HW113641   3.260   5.970   1.633  0.8563  2.7238 -0.2280
 4180SOL    HW213642   3.126   5.958   1.564  0.8802  2.0158 -0.1555
 4181SOL     OW13643   7.710   8.036   7.555 -0.1667 -0.2078 -0.1515
 4181SOL    HW113644   7.751   8.112   7.597  1.2741 -0.8824 -0.2921
 4181SOL    HW213645   7.781   7.993   7.507 -0.4954 -2.7456  1.4755
 4182SOL     OW13646   0.080   7.663   8.127 -0.5543 -0.2857  0.0794
 4182SOL    HW113647   0.065   7.568   8.124  0.0637 -0.3835  0.0235
 4182SOL    HW213648   0.171   7.674   8.100 -0.7938  0.3719 -0.4774
 4183SOL     OW13649   4.468   0.700   2.689  0.4296  0.3704 -0.1318
 4183SOL    HW113650   4.407   0.643   2.642 -0.5199  1.2866 -0.0461
 4183SOL    HW213651   4.555   0.672   2.658  0.0934 -1.7804  0.6626
 4184SOL     OW13652   0.309   2.376   2.086 -0.4197 -0.2731  0.1122
 4184SOL    HW113653   0.234   2.342   2.037 -1.1293  0.1314  0.9107
 4184SOL    HW213654   0.275   2.452   2.133  0.8226  0.7613 -0.5937
 4185SOL     OW13655   6.562   3.621   5.800  0.1949  0.2940  0.0359
 4185SOL    HW113656   6.488   3.562   5.812 -1.2078  1.7909 -0.8718
 4185SOL    HW213657   6.573   3.663   5.886  0.9811 -0.9890  0.5885
 4186SOL     OW13658   2.667   0.557   2.541  0.0797  0.3540 -0.0882
 4186SOL    HW113659   2.659   0.525   2.451  0.0724  2.7716 -1.0220
 4186SOL    HW213660   2.645   0.481   2.595 -0.4232 -1.0372 -2.1137
 4187SOL     OW13661   2.708   6.403   1.173 -0.4932 -0.4411 -0.2833
 4187SOL    HW113662   2.692   6.311   1.152  0.5889 -1.0083  1.1976
 4187SOL    HW213663   2.680   6.411   1.265 -1.5136  0.9701 -0.6981
 4188SOL     OW13664   4.341   1.483   3.464  0.5065 -0.3442  0.2662
 4188SOL    HW113665   4.415   1.536   3.493  1.7748 -0.8209 -1.8205
 4188SOL    HW213666   4.297   1.537   3.399 -0.7423 -0.2435  1.1729
 4189SOL     OW13667   6.001   0.137   8.910 -0.2658 -0.4942 -0.2147
 4189SOL    HW113668   6.087   0.146   8.952 -1.2896  1.7156  1.6141
 4189SOL    HW213669   6.020   0.132   8.816  1.8417  0.7769  0.0902
 4190SOL     OW13670   4.566   5.227   4.355  0.6023 -0.3425  0.2713
 4190SOL    HW113671   4.486   5.202   4.308 -0.8820  1.5806  1.6169
 4190SOL    HW213672   4.601   5.300   4.305  0.0400  0.5030  1.0766
 4191SOL     OW13673   7.317   3.828   5.140 -0.2182 -0.1295  0.4812
 4191SOL    HW113674   7.368   3.747   5.138 -0.5614 -0.4242  2.1680
 4191SOL    HW213675   7.363   3.882   5.205 -0.5768  0.6329  0.1075
 4192SOL     OW13676   7.263   3.759   6.563 -0.5252  0.6104  0.0383
 4192SOL    HW113677   7.332   3.746   6.629 -0.0023  1.2177 -0.3791
 4192SOL    HW213678   7.230   3.671   6.546 -0.1838  0.3658  0.5933
 4193SOL     OW13679   8.143   8.888   4.425 -0.7467  0.1192 -0.1047
 4193SOL    HW113680   8.183   8.973   4.444 -1.6762  0.1311  2.1635
 4193SOL    HW213681   8.217   8.829   4.411 -0.0194  0.8964  0.3641
 4194SOL     OW13682   2.134   8.941   7.311  0.5934  0.1361 -0.0993
 4194SOL    HW113683   2.096   8.875   7.370  2.5574 -2.0799 -1.1198
 4194SOL    HW213684   2.176   8.889   7.242  0.9981  2.5536 -1.7891
 4195SOL     OW13685   2.278   8.200   1.898  0.0130  0.1488 -0.2635
 4195SOL    HW113686   2.198   8.151   1.880 -0.5734  0.8500  0.4017
 4195SOL    HW213687   2.290   8.257   1.822  1.2698 -1.6846 -1.5560
 4196SOL     OW13688   8.577   1.241   1.009 -0.0627 -0.4282  0.3465
 4196SOL    HW113689   8.561   1.147   1.002 -0.3609 -0.3196 -0.4310
 4196SOL    HW213690   8.671   1.251   0.991  0.1605 -0.6554  1.2799
 4197SOL     OW13691   7.986   7.562   1.190 -0.3641 -0.0258 -0.1291
 4197SOL    HW113692   8.064   7.531   1.236 -0.0470  0.5201 -0.2940
 4197SOL    HW213693   7.943   7.620   1.253 -0.9101 -0.7239  0.1481
 4198SOL     OW13694   5.623   7.548   0.993  0.0813 -0.2575 -0.0862
 4198SOL    HW113695   5.548   7.493   1.017  0.1055 -1.1273 -1.7949
 4198SOL    HW213696   5.589   7.605   0.924  0.3551  1.1558  0.9185
 4199SOL     OW13697   4.369   6.971   1.351 -0.8202  0.3310  0.2245
 4199SOL    HW113698   4.419   6.998   1.274 -0.3965 -3.0093 -0.8138
 4199SOL    HW213699   4.426   6.992   1.425 -0.4788  1.9629 -0.4530
 4200SOL     OW13700   0.658   8.922   5.440  0.2866 -0.0086 -0.0416
 4200SOL    HW113701   0.667   8.960   5.528  0.7514 -0.5313  0.1390
 4200SOL    HW213702   0.569   8.943   5.414  0.4387  0.9511  0.1810
 4201SOL     OW13703   3.597   2.394   0.178  0.5656 -0.5262 -0.0277
 4201SOL    HW113704   3.649   2.441   0.113  0.7191 -1.9383 -0.9791
 4201SOL    HW213705   3.525   2.453   0.199  2.3094  1.3676  1.0973
 4202SOL     OW13706   3.365   5.568   2.369  0.3158 -0.2146 -0.0829
 4202SOL    HW113707   3.335   5.654   2.338  0.4063 -1.0360 -2.7658
 4202SOL    HW213708   3.291   5.534   2.420  0.2353  1.3654  0.9222
 4203SOL     OW13709   5.906   1.816   6.120 -0.5098  0.6031  0.5959
 4203SOL    HW113710   5.902   1.808   6.025 -0.8289 -0.7347  0.6996
 4203SOL    HW213711   5.935   1.906   6.135 -0.5497  0.8704 -0.7569
 4204SOL     OW13712   4.193   0.856   4.505  0.5189  0.3889 -0.1787
 4204SOL    HW113713   4.240   0.846   4.588  0.7979  1.2370 -0.2269
 4204SOL    HW213714   4.122   0.917   4.524  1.5584  1.8978 -0.9178
 4205SOL     OW13715   6.790   7.056   8.815  0.5572  0.3275  0.1260
 4205SOL    HW113716   6.775   7.104   8.733  1.2586 -1.1926 -0.9694
 4205SOL    HW213717   6.834   7.119   8.872 -0.7259  1.6897 -0.3275
 4206SOL     OW13718   1.917   5.632   2.105  0.0633  0.1744 -0.0206
 4206SOL    HW113719   1.972   5.685   2.047  1.4412  0.1451  1.2109
 4206SOL    HW213720   1.898   5.553   2.055 -1.5492  1.5104 -1.6722
 4207SOL     OW13721   0.502   7.798   0.816 -0.1176  0.2105  0.3898
 4207SOL    HW113722   0.468   7.738   0.883  0.6445  0.3727  0.9382
 4207SOL    HW213723   0.424   7.841   0.781 -0.4965  0.6583  1.7005
 4208SOL     OW13724   5.037   5.789   5.334 -0.1807  0.3841  0.4819
 4208SOL    HW113725   5.040   5.802   5.429 -1.1740  0.0798  0.5617
 4208SOL    HW213726   5.096   5.856   5.300 -0.2049  0.8343  1.2826
 4209SOL     OW13727   0.326   6.671   2.845 -0.1995  0.2586 -0.4042
 4209SOL    HW113728   0.335   6.667   2.940  1.1934 -1.7233 -0.5400
 4209SOL    HW213729   0.232   6.673   2.830 -0.4662 -0.1482  1.0082
 4210SOL     OW13730   4.033   6.046   5.519  0.5220  0.9629 -0.4158
 4210SOL    HW113731   4.090   6.111   5.477  0.5780  0.7187 -0.7150
 4210SOL    HW213732   4.080   6.022   5.599  1.9661 -0.9047 -1.7268
 4211SOL     OW13733   1.481   9.097   8.222  0.0725 -0.5521 -0.2743
 4211SOL    HW113734   1.508   9.123   8.310 -1.8447  0.3892  0.0975
 4211SOL    HW213735   1.497   9.174   8.168  1.0528 -1.0602 -0.7367
 4212SOL     OW13736   7.623   8.043   3.960 -0.0645  0.5329 -0.2981
 4212SOL    HW113737   7.603   8.005   4.045 -0.9244 -0.2584 -0.8367
 4212SOL    HW213738   7.628   7.969   3.901 -0.9733  1.1694 -1.2196
 4213SOL     OW13739   4.652   4.118   5.340  0.0903  0.2539  0.1831
 4213SOL    HW113740   4.659   4.201   5.294 -0.5273  0.4199  0.3837
 4213SOL    HW213741   4.717   4.062   5.298 -1.0238  0.1392 -1.4504
 4214SOL     OW13742   8.742   1.461   1.277  0.1409  0.1284 -0.4417
 4214SOL    HW113743   8.821   1.474   1.225  0.8884  3.2603  1.1977
 4214SOL    HW213744   8.671   1.492   1.221  0.2237 -1.3055 -1.3820
 4215SOL     OW13745   0.305   8.774   7.383 -0.1295 -0.1655 -0.3213
 4215SOL    HW113746   0.233   8.821   7.425  0.0395  0.7260 -1.0052
 4215SOL    HW213747   0.276   8.759   7.293 -0.1358 -1.3039 -0.1504
 4216SOL     OW13748   4.670   6.231   1.181  0.1482 -0.2506 -0.2924
 4216SOL    HW113749   4.721   6.309   1.158 -1.4494  0.6675 -0.8630
 4216SOL    HW213750   4.663   6.182   1.099  0.6632 -0.7320 -0.0601
 4217SOL     OW13751   6.228   5.361   8.067  0.0576  0.0378 -0.7492
 4217SOL    HW113752   6.151   5.315   8.034  0.4532  0.4355 -2.2941
 4217SOL    HW213753   6.194   5.442   8.105 -0.3540 -0.1327 -0.7514
 4218SOL     OW13754   8.305   5.478   5.399  0.0957  0.5353 -0.4106
 4218SOL    HW113755   8.400   5.482   5.415 -0.0412 -0.9737  1.0874
 4218SOL    HW213756   8.292   5.397   5.351 -0.6112 -0.3641  1.2273
 4219SOL     OW13757   5.500   8.421   8.491  0.4010  0.4732 -0.6215
 4219SOL    HW113758   5.429   8.473   8.528  0.4638  0.3257 -0.2835
 4219SOL    HW213759   5.550   8.482   8.437  1.6369  1.2643  1.3302
 4220SOL     OW13760   5.975   3.414   3.040  0.2636 -0.0405 -0.0819
 4220SOL    HW113761   5.960   3.360   3.118  0.6745  0.2898  0.2312
 4220SOL    HW213762   5.908   3.387   2.978  0.0545 -0.4427  0.3214
 4221SOL     OW13763   1.221   0.282   4.448  0.6166  0.0903 -0.0584
 4221SOL    HW113764   1.158   0.292   4.519  1.4925  1.0768  0.6124
 4221SOL    HW213765   1.174   0.314   4.370 -0.0563 -0.1774  0.2324
 4222SOL     OW13766   7.027   7.137   2.234 -0.1639 -0.2550  0.2650
 4222SOL    HW113767   7.009   7.074   2.304 -0.0114  0.1577  0.6779
 4222SOL    HW213768   7.011   7.088   2.153 -1.6547 -0.3585  0.5918
 4223SOL     OW13769   0.316   6.696   5.956  0.1414  0.3285 -0.4443
 4223SOL    HW113770   0.307   6.764   6.023  2.7769  0.9479 -0.6405
 4223SOL    HW213771   0.353   6.621   6.003 -2.0307 -0.8032 -0.3904
 4224SOL     OW13772   0.784   3.626   7.480  0.7079 -0.0930  0.2469
 4224SOL    HW113773   0.809   3.675   7.559  0.4918  1.6247 -0.6954
 4224SOL    HW213774   0.833   3.668   7.410 -0.7523 -0.1479 -0.8528
 4225SOL     OW13775   6.628   1.012   1.283  0.1230 -0.2180 -0.2685
 4225SOL    HW113776   6.667   1.042   1.365 -1.5289 -0.9607  0.8448
 4225SOL    HW213777   6.537   1.043   1.286  0.0746 -0.0982 -1.9238
 4226SOL     OW13778   4.595   7.771   3.877  0.1116 -0.3855  0.2823
 4226SOL    HW113779   4.530   7.780   3.807 -1.0323 -1.1081  1.2217
 4226SOL    HW213780   4.547   7.789   3.957  0.9972 -1.2358  1.0324
 4227SOL     OW13781   7.470   7.135   0.342  0.3983 -0.5906 -0.1788
 4227SOL    HW113782   7.464   7.108   0.251  3.3742 -0.6395 -0.4430
 4227SOL    HW213783   7.420   7.217   0.346  0.7299 -0.2601 -1.9816
 4228SOL     OW13784   5.548   4.118   8.631  0.5905 -0.6490 -0.0110
 4228SOL    HW113785   5.561   4.051   8.564  0.0270  0.0313 -0.8167
 4228SOL    HW213786   5.484   4.080   8.691 -0.2287 -0.5759 -0.8280
 4229SOL     OW13787   9.073   3.173   2.254 -0.1701  0.2963 -0.4423
 4229SOL    HW113788   9.118   3.109   2.309 -0.5133  0.5710  0.1566
 4229SOL    HW213789   9.062   3.250   2.310  2.1034  1.6880 -1.7390
 4230SOL     OW13790   0.033   6.283   3.996 -0.0488 -0.1193 -0.7384
 4230SOL    HW113791   0.030   6.205   4.051  1.5057  0.8058  0.7380
 4230SOL    HW213792   0.116   6.275   3.949  0.3466  0.8529 -0.2221
 4231SOL     OW13793   5.394   1.049   9.118 -0.2773 -0.6641  0.6471
 4231SOL    HW113794   5.451   1.038   9.194  0.5604 -0.6419  0.0351
 4231SOL    HW213795   5.390   0.962   9.078  0.8677 -0.2705 -0.3728
 4232SOL     OW13796   2.944   2.449   8.546 -0.6889  0.0939 -0.0629
 4232SOL    HW113797   2.907   2.464   8.459 -1.0016  2.7639  0.4420
 4232SOL    HW213798   3.038   2.458   8.533 -0.7441  0.6427 -0.1303
 4233SOL     OW13799   7.295   0.833   1.282  0.2293  0.1143 -0.2885
 4233SOL    HW113800   7.210   0.793   1.266 -0.8470  1.8685  0.6929
 4233SOL    HW213801   7.359   0.764   1.263 -1.4803 -2.0093  1.2732
 4234SOL     OW13802   8.949   3.503   8.350  0.2119  0.0784  0.5319
 4234SOL    HW113803   8.960   3.546   8.265  0.7737  1.3905  1.2365
 4234SOL    HW213804   8.990   3.417   8.340 -0.0866  0.0582 -0.6307
 4235SOL     OW13805   3.315   0.201   9.072 -0.3317  0.1370  0.3196
 4235SOL    HW113806   3.376   0.177   9.002 -2.0969 -0.3783 -1.1217
 4235SOL    HW213807   3.291   0.119   9.113  0.7885  0.4517  1.6530
 4236SOL     OW13808   3.170   5.986   7.150 -0.2749  0.5685  0.1673
 4236SOL    HW113809   3.146   5.967   7.059  2.6434 -0.8705 -0.4482
 4236SOL    HW213810   3.172   5.900   7.192  1.6615  0.7749  0.6187
 4237SOL     OW13811   1.679   4.954   3.798 -0.4463  0.7282 -0.1893
 4237SOL    HW113812   1.632   4.974   3.717 -0.9728  1.2484  0.2335
 4237SOL    HW213813   1.732   4.877   3.777 -2.1118 -0.3925 -0.4689
 4238SOL     OW13814   2.053   1.999   4.029  0.0697  0.3126  0.1876
 4238SOL    HW113815   2.011   2.075   3.990 -1.3001 -0.9287 -0.8923
 4238SOL    HW213816   2.016   1.995   4.118 -2.4082 -0.8524 -0.7894
 4239SOL     OW13817   8.519   8.679   5.009 -0.0196 -0.2670 -0.5338
 4239SOL    HW113818   8.592   8.724   4.965 -2.2208  1.5200 -2.6921
 4239SOL    HW213819   8.527   8.588   4.981  1.8572 -0.3311  0.0485
 4240SOL     OW13820   7.537   5.095   8.373  0.6616 -0.4118 -0.6181
 4240SOL    HW113821   7.592   5.080   8.449 -0.8971 -0.5678  0.5445
 4240SOL    HW213822   7.485   5.015   8.365 -0.0529  0.0858 -1.0939
 4241SOL     OW13823   8.409   1.574   1.400 -0.2676 -0.7683 -0.0387
 4241SOL    HW113824   8.414   1.499   1.341  1.0453  0.1555 -1.1598
 4241SOL    HW213825   8.493   1.574   1.446 -0.2655 -0.0171 -0.0249
 4242SOL     OW13826   0.769   6.944   0.915  1.0326 -0.1580  0.0772
 4242SOL    HW113827   0.721   7.026   0.907  0.0651 -0.6478  0.7507
 4242SOL    HW213828   0.843   6.965   0.972  0.0481 -0.0499  1.3553
 4243SOL     OW13829   8.256   3.516   8.164 -0.4435 -0.3985 -0.0792
 4243SOL    HW113830   8.184   3.470   8.121 -1.0802 -0.3576  0.8908
 4243SOL    HW213831   8.322   3.449   8.179 -0.1549 -0.3793 -1.2304
 4244SOL     OW13832   0.916   6.593   6.041 -0.4894 -0.3030 -0.4519
 4244SOL    HW113833   0.899   6.603   5.948 -1.5103  0.0380 -0.2404
 4244SOL    HW213834   0.830   6.600   6.082 -0.0044  0.0015  0.5496
 4245SOL     OW13835   2.639   8.936   6.054 -0.3937 -0.5806  0.2311
 4245SOL    HW113836   2.639   8.983   5.971 -2.7872 -1.1380 -0.1546
 4245SOL    HW213837   2.691   8.992   6.113 -1.2722  1.4381 -0.7973
 4246SOL     OW13838   1.661   1.993   1.208 -0.6185  0.1921 -0.1024
 4246SOL    HW113839   1.650   2.025   1.119  0.5998  0.4079 -0.2023
 4246SOL    HW213840   1.728   2.050   1.245  0.3442 -1.1405  0.2764
 4247SOL     OW13841   3.109   7.719   2.071 -0.0734 -0.1638  0.1682
 4247SOL    HW113842   3.191   7.720   2.120  0.1666  1.3519 -0.2272
 4247SOL    HW213843   3.059   7.648   2.111  1.8690 -1.9335 -0.3786
 4248SOL     OW13844   3.156   5.720   0.019 -0.1955  0.1871 -0.3540
 4248SOL    HW113845   3.221   5.739   0.087 -0.0766 -0.6906 -0.2115
 4248SOL    HW213846   3.136   5.627   0.030 -2.0383  0.5910  0.0961
 4249SOL     OW13847   7.669   4.740   8.893 -0.1949  0.0734  0.2743
 4249SOL    HW113848   7.750   4.727   8.943  0.2566 -2.1625 -0.8707
 4249SOL    HW213849   7.609   4.783   8.954  1.3723  0.4492  1.6235
 4250SOL     OW13850   1.961   3.844   2.033  0.6995 -0.2511  0.2318
 4250SOL    HW113851   1.892   3.797   2.080 -0.7975  1.3004 -0.2799
 4250SOL    HW213852   2.025   3.777   2.009 -0.7940 -1.8243  0.4540
 4251SOL     OW13853   2.889   0.650   4.195  0.0993  0.0247  0.1416
 4251SOL    HW113854   2.963   0.671   4.137 -0.0854 -0.8594 -0.4426
 4251SOL    HW213855   2.857   0.566   4.162 -1.1170  0.3617  0.4396
 4252SOL     OW13856   1.448   1.262   3.534  0.3715  0.2587  0.4032
 4252SOL    HW113857   1.398   1.194   3.489 -0.8744  1.1739  0.3626
 4252SOL    HW213858   1.411   1.264   3.622  0.5190  0.7648  0.4571
 4253SOL     OW13859   6.635   0.564   2.347  0.3649 -0.3393 -0.0686
 4253SOL    HW113860   6.678   0.558   2.432  0.7923  2.4386 -0.0014
 4253SOL    HW213861   6.707   0.579   2.285 -0.0292 -1.4229 -0.8152
 4254SOL     OW13862   3.105   6.507   0.757  0.0064  0.3904 -0.5265
 4254SOL    HW113863   3.046   6.435   0.739  1.5041 -1.0260 -0.0742
 4254SOL    HW213864   3.077   6.541   0.842  1.1321 -1.7355  0.7818
 4255SOL     OW13865   3.921   0.043   4.148  0.0311 -0.3525  0.1890
 4255SOL    HW113866   3.855   0.100   4.188  0.6921  0.1427  0.5832
 4255SOL    HW213867   3.981   0.021   4.219  2.0855  1.7685 -0.7676
 4256SOL     OW13868   4.343   7.995   4.761  0.2459 -0.2939 -0.1085
 4256SOL    HW113869   4.355   8.010   4.667  1.1065 -0.3723 -0.0140
 4256SOL    HW213870   4.428   8.015   4.800 -0.1159 -0.2197  0.6660
 4257SOL     OW13871   7.530   7.659   4.156  0.3152 -0.0142 -0.2375
 4257SOL    HW113872   7.600   7.720   4.181 -0.9211  1.3690 -0.0216
 4257SOL    HW213873   7.542   7.645   4.062  0.6957  0.4415 -0.2592
 4258SOL     OW13874   0.376   8.029   3.559 -0.0520  0.0555  0.1142
 4258SOL    HW113875   0.448   7.976   3.594  0.1534 -0.7607 -1.4712
 4258SOL    HW213876   0.405   8.055   3.471 -0.9436  1.2463  0.1367
 4259SOL     OW13877   5.552   7.649   8.351 -0.2114  0.1126  0.0372
 4259SOL    HW113878   5.557   7.744   8.360  0.4825 -0.0061  1.1203
 4259SOL    HW213879   5.545   7.617   8.441 -0.5912 -0.8520 -0.3255
 4260SOL     OW13880   6.216   6.240   6.239  0.2261 -0.4737  0.3775
 4260SOL    HW113881   6.308   6.215   6.230  0.3718 -0.1231  0.8664
 4260SOL    HW213882   6.196   6.288   6.159  0.3738 -0.8395  0.1209
 4261SOL     OW13883   1.589   6.225   5.111  0.5840  0.0562  0.4180
 4261SOL    HW113884   1.584   6.278   5.190  3.4423  0.2085  0.6106
 4261SOL    HW213885   1.665   6.170   5.124  0.9345 -0.1690 -2.0720
 4262SOL     OW13886   2.151   5.185   7.043  0.2684 -0.2901 -0.2144
 4262SOL    HW113887   2.118   5.105   7.002  0.7052 -0.4084 -0.3466
 4262SOL    HW213888   2.214   5.154   7.108 -0.2596 -0.0929  0.3960
 4263SOL     OW13889   1.368   6.809   4.916 -0.3715 -0.3432  0.2276
 4263SOL    HW113890   1.354   6.754   4.839  0.7643  0.6070 -0.6933
 4263SOL    HW213891   1.368   6.747   4.989 -0.7425 -1.3603 -0.6009
 4264SOL     OW13892   1.569   6.620   1.038 -0.2408 -0.3109  0.5167
 4264SOL    HW113893   1.510   6.695   1.029  0.1067 -0.0996 -0.0124
 4264SOL    HW213894   1.566   6.599   1.132 -0.5220  0.2110  0.6292
 4265SOL     OW13895   2.967   0.370   2.532  0.2085 -0.4835 -0.1596
 4265SOL    HW113896   3.023   0.397   2.459 -2.1447 -2.3174 -2.8871
 4265SOL    HW213897   2.888   0.422   2.522 -0.1073 -0.6752  1.2013
 4266SOL     OW13898   7.933   6.554   2.726 -0.0645  0.0673  0.2662
 4266SOL    HW113899   8.015   6.539   2.773  0.7345 -0.9250 -1.3388
 4266SOL    HW213900   7.919   6.473   2.677  0.0596  1.5931 -2.4702
 4267SOL     OW13901   3.479   6.008   2.130  0.0462  0.1564  0.2139
 4267SOL    HW113902   3.497   6.079   2.192 -2.2771  0.3366  0.7977
 4267SOL    HW213903   3.389   6.025   2.100 -1.1080 -3.1640  1.3182
 4268SOL     OW13904   8.489   8.228   2.261 -0.4602  0.0426  0.9609
 4268SOL    HW113905   8.427   8.156   2.277  0.3070 -0.7687  0.3879
 4268SOL    HW213906   8.441   8.289   2.205 -0.3385 -1.2320 -0.6112
 4269SOL     OW13907   6.458   4.208   6.183 -0.4260 -0.0832  0.2938
 4269SOL    HW113908   6.428   4.219   6.093 -1.0167 -1.8886  0.2177
 4269SOL    HW213909   6.432   4.118   6.206  0.4951  0.0291  1.9587
 4270SOL     OW13910   3.600   1.058   3.865  0.4748  0.0965  0.2180
 4270SOL    HW113911   3.532   1.125   3.871  1.0380  0.7144 -0.2467
 4270SOL    HW213912   3.675   1.096   3.910  0.5107 -0.6007  0.7684
 4271SOL     OW13913   3.641   7.534   8.626 -0.5100  0.2166 -0.1998
 4271SOL    HW113914   3.552   7.526   8.660 -0.1205 -0.3896  0.7105
 4271SOL    HW213915   3.686   7.590   8.689 -0.6364  1.8188 -1.4766
 4272SOL     OW13916   8.421   6.669   3.504  0.1492 -0.1115  0.3896
 4272SOL    HW113917   8.490   6.614   3.539  0.5587  0.5943  0.6992
 4272SOL    HW213918   8.417   6.646   3.411  0.0851 -0.8973  0.5792
 4273SOL     OW13919   8.187   0.354   7.506  0.2512  0.4969 -0.1924
 4273SOL    HW113920   8.145   0.366   7.421  0.7834  0.1797 -0.5030
 4273SOL    HW213921   8.259   0.417   7.506 -0.4600  1.3223  0.5012
 4274SOL     OW13922   7.383   7.237   3.439  0.1141 -0.6232 -0.4600
 4274SOL    HW113923   7.453   7.176   3.462  0.9942 -0.5379 -2.6641
 4274SOL    HW213924   7.316   7.223   3.505  1.1292 -2.5760  0.2219
 4275SOL     OW13925   2.383   3.579   2.840 -0.8346 -0.3292 -0.1890
 4275SOL    HW113926   2.464   3.618   2.806 -2.1675  1.3402 -1.6267
 4275SOL    HW213927   2.406   3.552   2.929  1.6660 -1.1785 -0.9976
 4276SOL     OW13928   0.570   0.760   7.358 -0.8987  0.2661 -0.1767
 4276SOL    HW113929   0.578   0.726   7.447 -0.8295  0.0953 -0.2486
 4276SOL    HW213930   0.659   0.783   7.333 -1.0800  1.6181  0.3099
 4277SOL     OW13931   2.265   1.717   3.238  0.1085 -0.2612 -0.0004
 4277SOL    HW113932   2.357   1.700   3.257 -0.0307  0.0634  1.0086
 4277SOL    HW213933   2.218   1.646   3.282 -0.3339  1.4268  2.5032
 4278SOL     OW13934   0.448   1.558   4.320  0.3836  0.1349 -0.1649
 4278SOL    HW113935   0.526   1.605   4.351  0.7387 -0.7366  0.3112
 4278SOL    HW213936   0.454   1.472   4.362  0.3843 -0.7737 -1.9186
 4279SOL     OW13937   7.013   5.801   4.312  0.1434  0.0103 -0.4907
 4279SOL    HW113938   6.955   5.781   4.385 -2.1363  1.4413 -1.7927
 4279SOL    HW213939   7.094   5.832   4.353 -0.9925  0.5552  1.4428
 4280SOL     OW13940   1.955   6.195   1.833  0.4113  0.8106 -0.0808
 4280SOL    HW113941   1.974   6.136   1.906 -1.1574  1.1572  0.6421
 4280SOL    HW213942   2.008   6.160   1.760  0.9037 -0.3943  0.8115
 4281SOL     OW13943   1.967   2.455   2.877  0.3064  0.1981  0.1600
 4281SOL    HW113944   1.889   2.445   2.821  0.6919 -2.4454 -0.0533
 4281SOL    HW213945   1.961   2.382   2.939  1.1254  1.6914  2.0749
 4282SOL     OW13946   7.436   5.974   3.447 -0.1715  0.0164  0.1671
 4282SOL    HW113947   7.520   5.933   3.425  0.3221 -0.3185  2.5101
 4282SOL    HW213948   7.459   6.050   3.501 -1.3543  0.3035  0.3017
 4283SOL     OW13949   8.418   3.861   5.644 -0.0965  0.4637 -0.4979
 4283SOL    HW113950   8.371   3.935   5.606  0.1191  1.2285  0.6597
 4283SOL    HW213951   8.504   3.897   5.666  0.0140 -0.1343  0.0614
 4284SOL     OW13952   1.350   3.650   4.553 -0.5029 -0.2354 -0.1288
 4284SOL    HW113953   1.285   3.610   4.611  0.6939 -2.2097 -0.0367
 4284SOL    HW213954   1.351   3.592   4.476 -0.2540  0.8959 -1.0013
 4285SOL     OW13955   4.488   5.958   5.905  0.1314  0.8660  0.5711
 4285SOL    HW113956   4.489   5.948   5.809  0.8905 -1.1804  0.7438
 4285SOL    HW213957   4.548   6.029   5.922 -0.8292  1.9959 -0.5227
 4286SOL     OW13958   8.268   7.169   4.017 -0.1060  0.2093  0.0575
 4286SOL    HW113959   8.322   7.237   3.977 -1.1783  0.9787 -0.1412
 4286SOL    HW213960   8.271   7.188   4.111  0.5674 -0.2131  0.1282
 4287SOL     OW13961   0.914   1.189   6.080 -0.1247  0.4307  0.0768
 4287SOL    HW113962   0.824   1.165   6.103  0.2697 -2.0858 -0.7097
 4287SOL    HW213963   0.961   1.185   6.163 -0.3132 -0.4726  0.1518
 4288SOL     OW13964   8.875   4.764   4.447  0.1538  0.2871  0.0475
 4288SOL    HW113965   8.795   4.818   4.444 -0.5050 -0.5317  1.6470
 4288SOL    HW213966   8.946   4.828   4.450 -0.4179  1.0355 -1.4047
 4289SOL     OW13967   6.140   3.091   8.211  0.2317  0.4973  0.1960
 4289SOL    HW113968   6.225   3.128   8.186  0.0678  0.1180 -0.9417
 4289SOL    HW213969   6.078   3.124   8.146 -0.7993  1.9007  1.8040
 4290SOL     OW13970   8.657   8.331   5.343 -0.4241  0.0787  0.5142
 4290SOL    HW113971   8.667   8.253   5.396 -1.2485 -0.5873 -0.2766
 4290SOL    HW213972   8.734   8.331   5.286 -1.2519 -1.1634 -0.6959
 4291SOL     OW13973   3.257   3.651   0.663  0.1018  0.6393 -0.8274
 4291SOL    HW113974   3.347   3.652   0.630  0.1292 -0.2036 -0.8144
 4291SOL    HW213975   3.248   3.731   0.713  1.0911  0.3636 -0.1879
 4292SOL     OW13976   5.235   8.987   1.216  0.4574  0.5952 -0.3782
 4292SOL    HW113977   5.169   9.025   1.159 -2.8332 -2.2507  1.2077
 4292SOL    HW213978   5.276   8.919   1.164  1.0755  1.3206 -0.8631
 4293SOL     OW13979   2.776   3.292   3.589  0.1167 -0.3351 -1.0955
 4293SOL    HW113980   2.689   3.260   3.610  0.0949 -0.3077 -1.1435
 4293SOL    HW213981   2.817   3.220   3.541  0.4488 -0.7052 -0.2733
 4294SOL     OW13982   6.706   5.225   6.603 -0.3409  0.2236  0.1521
 4294SOL    HW113983   6.750   5.308   6.585 -1.1248  1.0275  1.7544
 4294SOL    HW213984   6.614   5.248   6.614 -0.9651 -1.2096 -1.5977
 4295SOL     OW13985   2.630   1.255   8.724  0.0696  0.2211 -0.0819
 4295SOL    HW113986   2.718   1.235   8.755  0.4214 -1.3610 -1.9092
 4295SOL    HW213987   2.643   1.306   8.644 -0.6877  0.2671 -0.1872
 4296SOL     OW13988   6.894   4.309   3.977  0.1828 -0.2892 -0.1529
 4296SOL    HW113989   6.883   4.335   3.885  2.0366 -1.3308 -0.7076
 4296SOL    HW213990   6.954   4.375   4.013 -2.8453  1.9459  1.2515
 4297SOL     OW13991   2.924   0.647   2.229 -0.2735 -0.2777 -0.3764
 4297SOL    HW113992   2.892   0.709   2.294 -0.3757 -0.4456 -0.2663
 4297SOL    HW213993   2.967   0.702   2.163  0.8713 -0.1875  0.4180
 4298SOL     OW13994   3.784   6.625   2.135 -0.2593  0.0277 -0.0288
 4298SOL    HW113995   3.830   6.683   2.075 -2.4745  2.5671  0.5448
 4298SOL    HW213996   3.850   6.602   2.201  1.0831  0.6193 -1.1047
 4299SOL     OW13997   4.527   0.230   3.315  0.1869  0.0361 -0.1680
 4299SOL    HW113998   4.448   0.211   3.264 -0.1217 -3.9839  1.3865
 4299SOL    HW213999   4.598   0.195   3.262  0.4589  0.2940  0.0274
 4300SOL     OW14000   5.668   6.112   8.910 -0.2950  0.2875  0.0974
 4300SOL    HW114001   5.728   6.038   8.914 -0.5601 -0.2026 -2.6936
 4300SOL    HW214002   5.686   6.162   8.989  3.1904 -0.2840 -0.1764
 4301SOL     OW14003   1.756   7.280   6.758  0.7390 -0.1373  0.2908
 4301SOL    HW114004   1.841   7.321   6.777  1.9230 -2.4683  0.4541
 4301SOL    HW214005   1.772   7.230   6.678 -0.9732  0.6042 -0.5533
 4302SOL     OW14006   3.386   4.793   6.416 -0.6135 -0.1069 -0.8984
 4302SOL    HW114007   3.481   4.799   6.403 -0.6613 -0.2268 -1.3045
 4302SOL    HW214008   3.364   4.870   6.468  0.0950 -1.3794  1.4407
 4303SOL     OW14009   3.600   3.992   7.926  0.1362  0.5461  0.5667
 4303SOL    HW114010   3.508   4.003   7.902 -0.1780  0.2973  1.6026
 4303SOL    HW214011   3.644   4.068   7.887 -1.0738  2.5865  2.8764
 4304SOL     OW14012   8.392   4.381   0.685  0.2941  0.4830  0.0988
 4304SOL    HW114013   8.447   4.304   0.682  3.1065  2.3074  0.8700
 4304SOL    HW214014   8.356   4.389   0.596  1.0896 -0.8929 -0.3682
 4305SOL     OW14015   2.111   6.089   2.070 -0.2760 -0.1153 -0.2320
 4305SOL    HW114016   2.117   6.085   2.165 -1.3798  0.4005 -0.1199
 4305SOL    HW214017   2.164   6.016   2.039 -0.0937 -0.4269  0.7815
 4306SOL     OW14018   7.725   8.938   6.677  0.4750  0.4026 -0.7650
 4306SOL    HW114019   7.792   9.005   6.685 -0.2795  1.1185 -0.3338
 4306SOL    HW214020   7.663   8.973   6.613 -0.1784  0.3402 -0.1755
 4307SOL     OW14021   0.106   8.454   8.435 -0.2679  0.5564 -0.1861
 4307SOL    HW114022   0.104   8.440   8.530 -0.3947  1.2549 -0.0817
 4307SOL    HW214023   0.198   8.467   8.415 -0.1416 -0.3934 -0.2894
 4308SOL     OW14024   6.119   4.781   5.075 -0.0467 -0.0351 -0.1336
 4308SOL    HW114025   6.144   4.835   4.999  0.1688  0.5259  0.3266
 4308SOL    HW214026   6.182   4.805   5.143  0.9031 -1.8614 -0.3187
 4309SOL     OW14027   6.763   4.305   4.506 -0.8088 -0.2938 -0.2573
 4309SOL    HW114028   6.844   4.332   4.550 -0.8283  0.0578 -0.4315
 4309SOL    HW214029   6.703   4.378   4.520 -0.6696  0.0323 -1.2493
 4310SOL     OW14030   0.898   6.339   3.639 -0.1717 -0.1320  0.0615
 4310SOL    HW114031   0.860   6.393   3.571 -0.4080 -1.0662 -0.5726
 4310SOL    HW214032   0.857   6.369   3.720 -2.5981 -1.3427 -0.6283
 4311SOL     OW14033   6.171   4.134   4.190  0.6185 -0.1730 -0.2996
 4311SOL    HW114034   6.227   4.198   4.147  0.7301 -0.4048 -0.4988
 4311SOL    HW214035   6.173   4.058   4.133 -0.2509 -0.0288 -0.5427
 4312SOL     OW14036   1.574   3.823   8.400 -0.0881 -0.0758  0.2081
 4312SOL    HW114037   1.640   3.834   8.332  0.6270 -1.6270  0.5936
 4312SOL    HW214038   1.511   3.762   8.361  0.2307 -0.8288  0.8414
 4313SOL     OW14039   3.101   4.054   6.696  0.0360  0.1481  0.2175
 4313SOL    HW114040   3.130   3.981   6.643 -0.9117  0.5196 -0.8498
 4313SOL    HW214041   3.122   4.132   6.644 -0.5528  0.5385  0.5485
 4314SOL     OW14042   1.893   2.222   7.499  0.4323 -1.1435  0.0421
 4314SOL    HW114043   1.979   2.187   7.476  1.6121  1.0519  0.7696
 4314SOL    HW214044   1.894   2.228   7.594  0.0578  0.1683 -0.0143
 4315SOL     OW14045   2.631   0.259   6.901  0.3976 -0.0767  0.1549
 4315SOL    HW114046   2.639   0.187   6.838 -0.0837 -0.5441  0.6068
 4315SOL    HW214047   2.561   0.230   6.960  0.1242  0.8189  0.2827
 4316SOL     OW14048   4.548   7.840   3.529 -0.0772  0.5803 -0.0705
 4316SOL    HW114049   4.469   7.839   3.582 -0.1954 -0.4170 -0.2366
 4316SOL    HW214050   4.524   7.891   3.451  0.1725  2.2479  0.9031
 4317SOL     OW14051   7.719   0.517   0.964  0.0146 -0.0950  0.0764
 4317SOL    HW114052   7.638   0.499   0.916  0.2886 -1.7934  0.1861
 4317SOL    HW214053   7.700   0.597   1.014 -0.8329  0.7890 -1.5470
 4318SOL     OW14054   6.736   2.830   2.442  0.5876  0.0828  0.1052
 4318SOL    HW114055   6.640   2.832   2.444  0.5863 -0.0385  0.1985
 4318SOL    HW214056   6.757   2.784   2.360  0.5585 -0.3075  0.3108
 4319SOL     OW14057   8.177   8.113   8.452 -0.5323  0.1041  0.1602
 4319SOL    HW114058   8.256   8.157   8.484 -0.6398  0.3414  0.1010
 4319SOL    HW214059   8.204   8.075   8.368 -0.3224 -0.3005  0.4073
 4320SOL     OW14060   8.707   1.213   1.433  0.0856  0.5774  0.5792
 4320SOL    HW114061   8.714   1.246   1.522  0.8471  0.4215  0.5814
 4320SOL    HW214062   8.719   1.291   1.378 -1.5247  0.8773  0.6069
 4321SOL     OW14063   8.542   8.303   0.428  0.4308 -0.2463  0.1615
 4321SOL    HW114064   8.501   8.332   0.347 -0.0686  0.1100  0.5354
 4321SOL    HW214065   8.582   8.383   0.464  0.0750 -0.2556  0.5943
 4322SOL     OW14066   1.161   4.843   7.642  0.3362 -0.2738  0.0242
 4322SOL    HW114067   1.080   4.817   7.599 -0.2179 -0.9708  1.4612
 4322SOL    HW214068   1.224   4.852   7.570 -0.6893 -0.9109 -0.9795
 4323SOL     OW14069   0.253   6.954   4.941 -0.0060 -0.1533  0.6017
 4323SOL    HW114070   0.218   7.017   4.878 -2.8705 -0.3316  1.8225
 4323SOL    HW214071   0.320   7.003   4.989 -0.0471  1.0036 -0.4603
 4324SOL     OW14072   6.970   7.800   7.666 -0.7976  0.0042  0.4259
 4324SOL    HW114073   7.025   7.771   7.739 -0.1915 -1.4043 -0.5418
 4324SOL    HW214074   7.028   7.856   7.615 -0.9804  0.3662  0.6158
 4325SOL     OW14075   6.459   8.998   5.382  0.3159  0.2411  0.0953
 4325SOL    HW114076   6.462   9.093   5.392 -0.3238  0.4187 -1.1357
 4325SOL    HW214077   6.465   8.984   5.287 -1.1116 -0.8472  0.1272
 4326SOL     OW14078   6.481   4.904   2.743  0.5020  0.3123 -0.1442
 4326SOL    HW114079   6.395   4.867   2.727  0.4935  0.7549 -1.1780
 4326SOL    HW214080   6.494   4.967   2.672 -0.0376  3.3204  2.2443
 4327SOL     OW14081   4.267   8.829   5.127 -0.0398  0.6447  0.3552
 4327SOL    HW114082   4.248   8.886   5.201  1.0811  1.1049  0.3094
 4327SOL    HW214083   4.291   8.745   5.166  0.4731  0.8632  0.5160
 4328SOL     OW14084   1.706   2.028   4.998  0.5150 -0.3460 -0.8064
 4328SOL    HW114085   1.630   1.979   4.969  0.4776  0.1483 -1.5624
 4328SOL    HW214086   1.762   1.963   5.041 -1.5326 -0.2821  2.2841
 4329SOL     OW14087   1.298   1.900   5.597 -0.2865  0.5726 -0.4286
 4329SOL    HW114088   1.333   1.818   5.563  2.5366  1.8586 -0.9557
 4329SOL    HW214089   1.284   1.884   5.690  1.1043 -0.2683 -0.3400
 4330SOL     OW14090   1.931   3.945   3.013  0.0872 -0.2921  0.0090
 4330SOL    HW114091   1.937   4.004   3.088 -0.3619  0.2875 -0.4022
 4330SOL    HW214092   1.861   3.982   2.959  0.2412 -0.8413 -0.5770
 4331SOL     OW14093   6.457   1.383   1.523 -0.7765 -0.7651  0.3399
 4331SOL    HW114094   6.405   1.449   1.477 -0.4020 -1.1948 -0.7547
 4331SOL    HW214095   6.471   1.419   1.610  2.5179  2.4403 -1.2507
 4332SOL     OW14096   4.066   3.636   4.582  0.2382  0.9433 -0.0902
 4332SOL    HW114097   4.153   3.603   4.561  0.3548  1.3091 -0.1929
 4332SOL    HW214098   4.062   3.722   4.541  0.1832  1.3446  0.7297
 4333SOL     OW14099   1.198   0.323   0.559 -0.0173 -0.8891  0.4444
 4333SOL    HW114100   1.286   0.319   0.598 -0.2074 -0.6673  0.8999
 4333SOL    HW214101   1.189   0.240   0.512  0.8637 -0.4615 -0.5388
 4334SOL     OW14102   1.446   4.748   5.213  0.1093 -0.0669 -0.6618
 4334SOL    HW114103   1.522   4.795   5.246  0.3152 -1.7293  1.4609
 4334SOL    HW214104   1.378   4.763   5.279 -0.3972 -1.1556 -0.9115
 4335SOL     OW14105   5.821   7.949   6.099 -0.4173 -0.4213 -0.0728
 4335SOL    HW114106   5.757   7.887   6.135 -0.3913  0.2069  1.0909
 4335SOL    HW214107   5.774   7.995   6.030 -1.0649 -0.3423  0.4156
 4336SOL     OW14108   7.267   6.602   7.617  0.1977 -0.1291 -0.1489
 4336SOL    HW114109   7.320   6.625   7.541 -0.3389 -1.1241 -0.8453
 4336SOL    HW214110   7.180   6.584   7.581 -0.2669  0.1400  0.8033
 4337SOL     OW14111   0.986   3.224   5.573  0.0460 -0.0694  0.1473
 4337SOL    HW114112   0.930   3.274   5.631  0.2446 -0.2260  0.4747
 4337SOL    HW214113   0.925   3.179   5.513 -0.2346 -0.9746  1.0864
 4338SOL     OW14114   6.910   3.568   7.695 -0.3218 -0.0321 -0.5396
 4338SOL    HW114115   6.995   3.559   7.653  0.1366  0.5714  0.2285
 4338SOL    HW214116   6.915   3.511   7.772 -0.2276  0.7674  0.0660
 4339SOL     OW14117   2.907   5.753   5.953  0.8655 -0.3190 -0.1611
 4339SOL    HW114118   2.815   5.780   5.956  0.6492 -1.0150  3.1200
 4339SOL    HW214119   2.904   5.658   5.939  0.9898 -0.4818  0.8125
 4340SOL     OW14120   5.907   8.186   6.726  0.0306  0.0724 -0.5606
 4340SOL    HW114121   5.848   8.165   6.654  0.3581 -0.0402 -0.7948
 4340SOL    HW214122   5.856   8.246   6.781 -0.7918 -1.0629 -0.0469
 4341SOL     OW14123   8.382   0.654   2.228  0.1577  0.3271  0.4614
 4341SOL    HW114124   8.340   0.629   2.146  0.0368  0.2952  0.5331
 4341SOL    HW214125   8.382   0.749   2.227  0.1282  0.3267  0.4393
 4342SOL     OW14126   4.760   2.252   7.986  0.2288  0.1111 -0.3897
 4342SOL    HW114127   4.843   2.252   7.938  1.0383 -2.7678  0.7770
 4342SOL    HW214128   4.785   2.266   8.077 -0.8504  1.4048 -0.2628
 4343SOL     OW14129   4.270   8.820   7.111  0.0539  1.0586  0.0448
 4343SOL    HW114130   4.336   8.830   7.042  0.9733  0.0606  0.7553
 4343SOL    HW214131   4.241   8.729   7.103  1.0822  0.5575  1.7673
 4344SOL     OW14132   7.165   3.977   4.254  0.2103  0.2015  0.3771
 4344SOL    HW114133   7.123   3.936   4.330 -0.4178 -0.1289 -0.1393
 4344SOL    HW214134   7.107   4.050   4.231 -0.6206 -0.8038 -0.9002
 4345SOL     OW14135   6.456   3.419   6.239 -0.4104  0.1766 -0.2617
 4345SOL    HW114136   6.435   3.347   6.180 -1.4714  0.7846 -0.6582
 4345SOL    HW214137   6.460   3.378   6.326 -0.5173 -0.4372 -0.5423
 4346SOL     OW14138   5.480   2.166   7.884 -0.3283 -0.5807 -0.6138
 4346SOL    HW114139   5.450   2.076   7.896  0.2346 -0.7863 -0.7343
 4346SOL    HW214140   5.563   2.170   7.931 -2.3966  1.1219  3.4851
 4347SOL     OW14141   4.827   0.945   8.942 -0.0326 -0.6641 -0.3147
 4347SOL    HW114142   4.871   0.901   9.015  0.1535  0.0025 -0.0136
 4347SOL    HW214143   4.766   0.880   8.907  0.9554 -1.4917 -0.5292
 4348SOL     OW14144   0.313   8.751   4.851 -0.4721 -0.2747  0.3165
 4348SOL    HW114145   0.345   8.837   4.875 -0.7875  0.2455 -1.0467
 4348SOL    HW214146   0.221   8.751   4.876 -0.9469  0.4702 -1.3054
 4349SOL     OW14147   5.732   3.104   3.702 -0.2241 -0.2211  0.2104
 4349SOL    HW114148   5.807   3.148   3.663  0.6485 -0.0876  1.9390
 4349SOL    HW214149   5.660   3.166   3.692  0.0306 -0.0824 -0.8938
 4350SOL     OW14150   9.039   3.249   5.380  0.4297 -0.1461 -0.0098
 4350SOL    HW114151   9.037   3.238   5.285 -0.7994 -0.9528  0.0785
 4350SOL    HW214152   9.072   3.166   5.414 -1.2154 -0.7009  0.3356
 4351SOL     OW14153   7.583   4.769   2.759 -0.2190  0.2315 -0.0128
 4351SOL    HW114154   7.673   4.762   2.791 -0.3038  0.9953  0.4242
 4351SOL    HW214155   7.578   4.707   2.686  0.6368  0.1265  0.0111
 4352SOL     OW14156   3.181   1.264   7.609 -0.7448 -0.1870  0.3751
 4352SOL    HW114157   3.231   1.340   7.577 -0.7533 -0.2771  0.1467
 4352SOL    HW214158   3.207   1.256   7.701 -1.3701  0.5981  0.6288
 4353SOL     OW14159   5.771   7.352   2.570 -0.9939  0.1588 -0.0360
 4353SOL    HW114160   5.856   7.339   2.529 -0.9364  0.5318 -0.0373
 4353SOL    HW214161   5.713   7.292   2.523 -0.4827 -1.0528  0.8229
 4354SOL     OW14162   2.478   4.698   6.411 -0.2420 -0.0870  0.2486
 4354SOL    HW114163   2.396   4.659   6.439  0.2199 -1.0122  0.3603
 4354SOL    HW214164   2.461   4.728   6.321 -0.6284 -0.5159  0.1712
 4355SOL     OW14165   4.693   5.314   8.965 -0.2584 -0.2385  0.0904
 4355SOL    HW114166   4.783   5.299   8.992 -0.7865 -1.2222  1.4295
 4355SOL    HW214167   4.668   5.233   8.920 -0.2419  0.3436 -1.0119
 4356SOL     OW14168   4.655   3.093   2.070  0.5269  0.3010 -0.3841
 4356SOL    HW114169   4.590   3.131   2.010 -1.0171 -1.2852  0.2168
 4356SOL    HW214170   4.647   2.999   2.059  1.8739  0.0309  0.6270
 4357SOL     OW14171   0.270   1.924   0.380 -0.4253  0.0440  0.3872
 4357SOL    HW114172   0.269   1.875   0.297  0.4003  1.1723 -0.3195
 4357SOL    HW214173   0.301   1.862   0.445 -2.2816 -1.2407  0.1292
 4358SOL     OW14174   4.114   6.233   2.066 -0.2389  0.0913 -0.5689
 4358SOL    HW114175   4.024   6.229   2.034 -0.2221  0.0989 -0.6156
 4358SOL    HW214176   4.144   6.322   2.044 -0.8520  0.7569  1.0963
 4359SOL     OW14177   4.992   8.668   6.698 -0.4788  0.4868  0.1009
 4359SOL    HW114178   5.035   8.636   6.777  1.9280 -1.6808 -1.8883
 4359SOL    HW214179   4.899   8.651   6.712  0.0132 -1.0009  1.9587
 4360SOL     OW14180   5.746   8.305   0.577 -0.0792 -0.0118  0.0762
 4360SOL    HW114181   5.811   8.283   0.644  0.1556 -0.5961 -0.3345
 4360SOL    HW214182   5.664   8.314   0.624 -0.0841 -1.2783  0.3315
 4361SOL     OW14183   5.767   6.371   6.874 -0.7234  0.3135 -0.2207
 4361SOL    HW114184   5.679   6.403   6.894 -1.8059 -2.0985 -0.7186
 4361SOL    HW214185   5.757   6.321   6.793  0.9838 -0.5073  0.0251
 4362SOL     OW14186   7.330   0.809   4.881 -0.6572  0.2060  0.0818
 4362SOL    HW114187   7.277   0.746   4.929 -0.0525 -0.6767 -0.3787
 4362SOL    HW214188   7.313   0.788   4.789 -0.4029  0.6773 -0.0741
 4363SOL     OW14189   4.284   7.118   8.017 -0.3286  0.0351 -0.0531
 4363SOL    HW114190   4.334   7.079   7.945  1.8534  1.2563  0.7167
 4363SOL    HW214191   4.202   7.147   7.976  1.0506  1.1344 -2.1970
 4364SOL     OW14192   4.153   6.184   2.835  0.7571 -0.9068  0.1411
 4364SOL    HW114193   4.192   6.097   2.837 -0.1494 -1.4121 -1.5359
 4364SOL    HW214194   4.092   6.181   2.761  1.0928  1.3273 -0.3003
 4365SOL     OW14195   4.413   1.734   7.843  0.3562 -0.9241 -0.6213
 4365SOL    HW114196   4.344   1.711   7.905  1.3124 -1.1993  0.3869
 4365SOL    HW214197   4.492   1.740   7.897  1.2046 -1.0666 -1.8057
 4366SOL     OW14198   1.041   4.351   7.197 -0.2067  0.7373  0.2391
 4366SOL    HW114199   1.133   4.337   7.219 -0.3050 -2.8970 -1.0770
 4366SOL    HW214200   0.994   4.334   7.278  0.1684  0.4080  0.3923
 4367SOL     OW14201   9.058   3.837   7.424  0.1011 -0.1167  0.1733
 4367SOL    HW114202   9.024   3.919   7.460  1.7659 -0.1091  1.9077
 4367SOL    HW214203   9.067   3.779   7.500  1.2914 -1.0361 -0.6243
 4368SOL     OW14204   0.959   3.850   7.353  0.6634  0.3053  0.3760
 4368SOL    HW114205   1.019   3.878   7.285 -0.6418 -1.6156 -1.6857
 4368SOL    HW214206   1.014   3.804   7.416  2.3025  4.1811  2.1386
 4369SOL     OW14207   8.073   0.656   3.205  0.9131  0.4074  0.0377
 4369SOL    HW114208   8.100   0.565   3.219  0.5937 -0.0011 -1.7748
 4369SOL    HW214209   8.146   0.696   3.157 -0.1520  0.2534 -1.7928
 4370SOL     OW14210   2.551   7.596   1.020 -0.0304 -0.7334  0.2635
 4370SOL    HW114211   2.499   7.635   0.950 -2.0391 -2.3145  0.7685
 4370SOL    HW214212   2.614   7.664   1.044 -3.1429  2.1794  0.9689
 4371SOL     OW14213   1.738   4.241   1.993  0.3703 -0.2838 -0.5219
 4371SOL    HW114214   1.678   4.258   1.921 -0.0729  0.9562  0.1153
 4371SOL    HW214215   1.825   4.256   1.957  0.1495  0.3414 -0.8053
 4372SOL     OW14216   4.120   5.798   6.707 -0.0389 -0.7024  0.5795
 4372SOL    HW114217   4.031   5.765   6.715  0.5504 -2.5375  0.1692
 4372SOL    HW214218   4.118   5.883   6.749 -1.8882 -0.8699  0.9265
 4373SOL     OW14219   3.517   2.265   6.621 -0.2877  0.1700 -0.0525
 4373SOL    HW114220   3.489   2.299   6.706 -0.2724  0.5530 -0.1979
 4373SOL    HW214221   3.603   2.227   6.638 -0.8448 -0.9425  0.3794
 4374SOL     OW14222   0.420   7.400   0.274 -0.1304 -0.1833  0.5718
 4374SOL    HW114223   0.325   7.400   0.289 -0.1036 -1.8000  0.9317
 4374SOL    HW214224   0.430   7.441   0.188 -1.2135 -0.5366  0.2593
 4375SOL     OW14225   5.062   0.925   1.425  0.5564  0.4751  0.1953
 4375SOL    HW114226   5.082   0.971   1.343  0.9402 -1.1596 -0.6631
 4375SOL    HW214227   4.968   0.910   1.421  0.5982  0.2594 -0.0280
 4376SOL     OW14228   4.739   7.730   0.877 -0.5399 -0.1080  0.1947
 4376SOL    HW114229   4.737   7.812   0.828 -0.4612 -0.0920  0.2180
 4376SOL    HW214230   4.763   7.756   0.966  1.3361 -0.3443 -0.1978
 4377SOL     OW14231   5.895   3.122   8.314  0.2936  0.1199 -0.0834
 4377SOL    HW114232   5.878   3.086   8.226  2.1520  0.1719 -0.4973
 4377SOL    HW214233   5.903   3.045   8.370 -1.4642  0.0969  0.1993
 4378SOL     OW14234   0.666   8.625   7.233  0.1518  0.1123 -0.2789
 4378SOL    HW114235   0.601   8.595   7.169 -0.4504  0.5859  0.0980
 4378SOL    HW214236   0.614   8.666   7.302  0.7966 -0.4288  0.5374
 4379SOL     OW14237   6.606   2.052   7.420 -0.4945  0.1709  0.1156
 4379SOL    HW114238   6.654   1.972   7.401  1.2134  1.2470 -0.3150
 4379SOL    HW214239   6.649   2.088   7.498 -1.1107  0.7719  0.1886
 4380SOL     OW14240   1.443   5.865   7.943 -0.1166  0.5982  0.8884
 4380SOL    HW114241   1.473   5.942   7.895 -1.8376  0.8143  0.0865
 4380SOL    HW214242   1.422   5.898   8.030  1.3889  0.5376  1.3107
 4381SOL     OW14243   0.449   0.712   8.020 -0.3681  0.4058 -0.9086
 4381SOL    HW114244   0.427   0.747   8.106 -0.4246 -0.1988 -0.6727
 4381SOL    HW214245   0.489   0.786   7.973  0.6431  0.4533 -0.0032
 4382SOL     OW14246   6.765   8.783   1.275 -0.3154 -0.0616 -0.4807
 4382SOL    HW114247   6.809   8.700   1.290 -0.2133  0.1997  0.8201
 4382SOL    HW214248   6.771   8.829   1.359 -1.8187  0.5774 -0.6904
 4383SOL     OW14249   3.519   8.476   8.122 -0.3635 -0.2000  0.1107
 4383SOL    HW114250   3.563   8.446   8.201  1.3452 -0.9639 -1.0647
 4383SOL    HW214251   3.544   8.568   8.113 -0.3975 -0.1677  0.3322
 4384SOL     OW14252   0.675   7.173   1.677  0.1995 -0.3008  0.5940
 4384SOL    HW114253   0.733   7.158   1.603  1.9530  0.2267  1.8000
 4384SOL    HW214254   0.640   7.086   1.698  0.4254 -0.6058 -0.2614
 4385SOL     OW14255   7.924   6.532   9.122  0.1647 -0.2316  0.1893
 4385SOL    HW114256   7.850   6.499   9.071  0.6850 -0.3364 -0.5119
 4385SOL    HW214257   7.987   6.564   9.056 -0.4064  2.4232  0.8059
 4386SOL     OW14258   1.375   2.908   4.909  0.0696 -0.5103 -0.0300
 4386SOL    HW114259   1.469   2.920   4.921  0.0717 -0.4520 -0.1056
 4386SOL    HW214260   1.363   2.904   4.814  0.1666 -1.8419 -0.0077
 4387SOL     OW14261   4.934   5.844   2.680  0.5518 -0.0641  0.6205
 4387SOL    HW114262   5.023   5.821   2.653  0.5340 -0.6934  1.0593
 4387SOL    HW214263   4.912   5.921   2.628  0.3919 -1.3790 -1.3692
 4388SOL     OW14264   5.346   7.954   8.078  0.0128  0.2572  0.3813
 4388SOL    HW114265   5.428   7.908   8.094  0.5732  1.3269  0.7160
 4388SOL    HW214266   5.372   8.035   8.035 -0.6894  1.3336  1.8853
 4389SOL     OW14267   1.398   0.885   1.546 -0.2365  0.1608 -0.3661
 4389SOL    HW114268   1.393   0.815   1.611  1.0660 -0.3469 -0.7915
 4389SOL    HW214269   1.335   0.950   1.577 -0.0100 -0.2929  1.1304
 4390SOL     OW14270   2.496   3.822   7.364  0.4250 -0.0852  0.1372
 4390SOL    HW114271   2.549   3.745   7.345  2.5999  1.2555  0.4927
 4390SOL    HW214272   2.530   3.856   7.447 -1.3341  0.5624  0.6383
 4391SOL     OW14273   9.019   1.665   0.044 -0.7323  0.5445  0.6821
 4391SOL    HW114274   9.064   1.739   0.086 -2.1499  2.0168 -0.2807
 4391SOL    HW214275   8.958   1.633   0.111 -1.0237  1.1100  0.6981
 4392SOL     OW14276   7.524   2.901   3.493 -0.2088 -0.0553  0.1802
 4392SOL    HW114277   7.580   2.966   3.537  0.7844 -0.4936 -0.4170
 4392SOL    HW214278   7.522   2.827   3.554  0.1502 -0.1724  0.0548
 4393SOL     OW14279   8.461   8.756   8.687 -0.4069  0.0681 -0.2296
 4393SOL    HW114280   8.467   8.847   8.713 -0.6810  0.2659 -0.8402
 4393SOL    HW214281   8.458   8.707   8.769 -0.5242  0.6283  0.0986
 4394SOL     OW14282   7.167   2.393   2.679  0.2214  0.1858  0.1515
 4394SOL    HW114283   7.076   2.411   2.701  0.2418  0.0070  0.3795
 4394SOL    HW214284   7.212   2.389   2.763  0.4826  0.4988  0.0282
 4395SOL     OW14285   8.724   1.611   2.836 -0.4015  0.0096  0.5242
 4395SOL    HW114286   8.714   1.567   2.920  0.0225  0.9169  1.0606
 4395SOL    HW214287   8.694   1.546   2.771  2.2244 -1.8981  1.0884
 4396SOL     OW14288   0.529   8.225   2.016  0.0216 -0.5889  0.4047
 4396SOL    HW114289   0.448   8.263   1.981  0.1238  0.3039  1.1004
 4396SOL    HW214290   0.566   8.295   2.070  1.4507 -0.8586 -0.1909
 4397SOL     OW14291   6.253   5.007   3.759  0.0042 -0.0344  0.1612
 4397SOL    HW114292   6.159   5.021   3.768  0.3010  0.7440  3.0677
 4397SOL    HW214293   6.270   5.014   3.665 -2.8215 -0.3018 -0.4474
 4398SOL     OW14294   2.776   3.900   8.177  0.3317  0.0987 -0.1623
 4398SOL    HW114295   2.752   3.991   8.159  0.2084  0.1109  0.0662
 4398SOL    HW214296   2.841   3.879   8.110  0.2040  0.2877 -0.3475
 4399SOL     OW14297   4.634   2.433   2.893  0.2433  0.4615 -1.0776
 4399SOL    HW114298   4.653   2.382   2.815  1.9751  0.4526 -0.6934
 4399SOL    HW214299   4.682   2.388   2.963  0.6235  1.7842 -0.4618
 4400SOL     OW14300   8.224   5.704   1.249 -0.7349  0.5305  0.3484
 4400SOL    HW114301   8.133   5.686   1.226 -0.3223 -1.7862  0.2894
 4400SOL    HW214302   8.253   5.768   1.183 -1.3940 -1.2311 -1.7981
 4401SOL     OW14303   2.167   8.875   7.771 -0.3135  0.2305 -0.0668
 4401SOL    HW114304   2.166   8.826   7.689 -1.4695  0.9069 -0.4872
 4401SOL    HW214305   2.259   8.877   7.797  0.0515 -0.1137 -1.2753
 4402SOL     OW14306   5.217   0.297   1.307  0.0896  0.1257 -0.1357
 4402SOL    HW114307   5.271   0.249   1.244  1.4342  0.8797  0.4037
 4402SOL    HW214308   5.149   0.339   1.253 -0.3457 -1.3186 -0.7567
 4403SOL     OW14309   5.676   4.467   0.429 -0.5825  0.0682 -0.1072
 4403SOL    HW114310   5.656   4.530   0.498  0.9338 -0.7888  1.1845
 4403SOL    HW214311   5.624   4.390   0.451 -1.0818  0.2349 -0.6751
 4404SOL     OW14312   4.798   5.870   1.176  0.0245  0.3000  0.3616
 4404SOL    HW114313   4.839   5.859   1.090  1.3065 -0.6439  1.0610
 4404SOL    HW214314   4.844   5.945   1.214 -0.6279  0.7947  0.1989
 4405SOL     OW14315   6.402   4.733   7.274 -0.3768  0.4945 -0.3521
 4405SOL    HW114316   6.357   4.813   7.248  0.0795 -0.1227 -3.3763
 4405SOL    HW214317   6.489   4.740   7.235 -0.1404 -1.2209 -0.1991
 4406SOL     OW14318   3.790   9.009   6.639  0.2349 -0.4508  0.1026
 4406SOL    HW114319   3.825   8.983   6.554  2.1077 -0.1967  0.7663
 4406SOL    HW214320   3.744   9.091   6.622  0.7453 -0.3109 -0.6255
 4407SOL     OW14321   1.097   8.810   3.376  0.2408  0.1785 -0.0485
 4407SOL    HW114322   1.138   8.725   3.392  0.3953 -0.0263 -1.4584
 4407SOL    HW214323   1.132   8.840   3.292 -0.2468  1.3753  0.1407
 4408SOL     OW14324   4.476   0.707   2.012 -0.1104  0.1987  0.6143
 4408SOL    HW114325   4.401   0.698   1.953  1.6745 -1.2622 -1.6362
 4408SOL    HW214326   4.528   0.778   1.974  1.5643 -1.4197 -0.2820
 4409SOL     OW14327   5.597   2.809   2.394 -0.2016 -0.0621  0.1822
 4409SOL    HW114328   5.639   2.846   2.472 -0.5398 -0.3694  0.5162
 4409SOL    HW214329   5.659   2.742   2.363  0.9687  1.5497 -1.1133
 4410SOL     OW14330   1.022   6.506   4.386 -0.6771 -0.2110  0.3810
 4410SOL    HW114331   1.017   6.472   4.297 -2.0354  3.3622 -1.1115
 4410SOL    HW214332   0.950   6.462   4.432 -0.6916 -1.2679 -0.6098
 4411SOL     OW14333   1.074   1.271   0.691 -0.0394 -0.2685 -0.2007
 4411SOL    HW114334   1.032   1.337   0.637  1.1190  1.7760  1.2679
 4411SOL    HW214335   1.016   1.262   0.767  0.8492  0.6907  0.6208
 4412SOL     OW14336   7.008   4.171   1.940  0.0081 -0.3720  0.4690
 4412SOL    HW114337   7.045   4.259   1.936  0.1174 -0.3995  0.8819
 4412SOL    HW214338   7.067   4.117   1.887 -0.4453 -0.0674 -0.3793
 4413SOL     OW14339   4.330   8.491   6.351 -0.2162 -0.5342 -0.4425
 4413SOL    HW114340   4.240   8.462   6.337 -0.2584 -1.2651  1.1144
 4413SOL    HW214341   4.332   8.581   6.319 -2.7392  1.1227  3.4196
 4414SOL     OW14342   1.367   0.476   4.181 -0.3652 -0.2391  0.0184
 4414SOL    HW114343   1.282   0.432   4.183 -0.9637  0.8314 -0.9682
 4414SOL    HW214344   1.431   0.405   4.178 -1.1787 -1.0696  1.2538
 4415SOL     OW14345   4.920   6.719   0.310  0.6755  0.6965 -0.5564
 4415SOL    HW114346   4.983   6.756   0.248  0.4539 -0.6245 -1.6102
 4415SOL    HW214347   4.973   6.666   0.369  0.4892 -1.8081 -2.4665
 4416SOL     OW14348   2.228   8.617   6.556  0.1092 -0.4293 -0.0920
 4416SOL    HW114349   2.228   8.547   6.491 -0.8786  0.9871 -1.7374
 4416SOL    HW214350   2.316   8.654   6.551  0.6885 -1.6041  0.9045
 4417SOL     OW14351   3.421   7.136   5.238  0.2674  0.0450  0.5087
 4417SOL    HW114352   3.515   7.129   5.251  0.9347  2.2333 -2.1847
 4417SOL    HW214353   3.410   7.134   5.143 -2.2476  1.3987  0.6964
 4418SOL     OW14354   7.187   8.411   5.812 -0.1320  0.1866 -0.3085
 4418SOL    HW114355   7.141   8.329   5.795  0.5852 -0.5011  0.9427
 4418SOL    HW214356   7.129   8.479   5.777 -1.0375 -0.8104 -0.7755
 4419SOL     OW14357   0.474   1.791   7.120 -0.3761  0.9728 -0.0740
 4419SOL    HW114358   0.408   1.735   7.079  1.1083  0.6396 -2.1663
 4419SOL    HW214359   0.443   1.880   7.104 -0.5982  0.8202 -0.5081
 4420SOL     OW14360   0.264   1.023   7.940 -0.2233 -0.3708 -0.7122
 4420SOL    HW114361   0.324   1.009   7.867  0.4524  1.0922 -0.4542
 4420SOL    HW214362   0.320   1.047   8.013 -0.8705 -2.0303  0.3899
 4421SOL     OW14363   0.541   6.278   3.778 -0.1484  0.1692 -0.5092
 4421SOL    HW114364   0.615   6.257   3.835 -0.9332  1.1482  0.9482
 4421SOL    HW214365   0.582   6.305   3.696  1.0463 -0.7744 -0.2548
 4422SOL     OW14366   2.918   7.232   7.465  0.0578 -0.0646 -0.5619
 4422SOL    HW114367   2.940   7.247   7.557  1.8749 -2.7312 -0.4244
 4422SOL    HW214368   2.988   7.276   7.416 -0.4345  0.6285 -0.6589
 4423SOL     OW14369   6.808   3.165   7.717  0.1994 -0.7904  1.0376
 4423SOL    HW114370   6.872   3.224   7.756 -0.2545  0.6083 -0.2644
 4423SOL    HW214371   6.783   3.207   7.635 -0.8586 -2.3302  0.5242
 4424SOL     OW14372   7.868   7.157   8.566  0.4406  0.0026 -0.3455
 4424SOL    HW114373   7.774   7.143   8.576  0.0465  2.2575 -0.4298
 4424SOL    HW214374   7.896   7.193   8.650  0.9242  0.7823 -0.8343
 4425SOL     OW14375   2.441   3.394   4.446 -0.1266  0.5023 -0.1486
 4425SOL    HW114376   2.402   3.357   4.525  0.0254  0.2697 -0.1798
 4425SOL    HW214377   2.507   3.455   4.477 -1.1365  1.5968 -0.0856
 4426SOL     OW14378   2.613   3.136   3.171 -0.3603 -0.2840  0.3469
 4426SOL    HW114379   2.636   3.044   3.183  1.0458  0.1964  1.5708
 4426SOL    HW214380   2.637   3.155   3.080 -1.7436 -1.3895 -0.2882
 4427SOL     OW14381   6.258   6.432   0.050 -0.5014 -0.4669  0.2499
 4427SOL    HW114382   6.175   6.424   0.004 -1.3301  0.7114  1.4404
 4427SOL    HW214383   6.272   6.527   0.057  1.7810 -0.6096 -1.3294
 4428SOL     OW14384   6.576   0.478   6.663 -0.3771 -0.4899 -0.6303
 4428SOL    HW114385   6.629   0.519   6.595 -1.2148  2.3987  0.3333
 4428SOL    HW214386   6.490   0.469   6.624 -0.9662  1.5445  0.0595
 4429SOL     OW14387   8.051   0.366   5.441  0.1649 -0.0421 -0.2467
 4429SOL    HW114388   8.024   0.357   5.350 -0.3762 -0.1694 -0.0798
 4429SOL    HW214389   8.029   0.282   5.481  0.9038 -0.1780 -0.1221
 4430SOL     OW14390   5.502   7.673   0.176 -0.6865  0.1809  0.1010
 4430SOL    HW114391   5.548   7.620   0.241 -1.7287  0.6432  1.2660
 4430SOL    HW214392   5.542   7.759   0.182  2.7689 -0.8629 -3.5639
 4431SOL     OW14393   5.763   2.863   0.370  0.7462  0.8637  0.1132
 4431SOL    HW114394   5.835   2.879   0.310  1.7391  0.7324  1.2339
 4431SOL    HW214395   5.709   2.942   0.365  0.4684  0.6019 -1.3844
 4432SOL     OW14396   8.588   7.466   2.496 -0.2944 -0.2352  0.3549
 4432SOL    HW114397   8.499   7.462   2.531  0.1194  2.4461  2.0219
 4432SOL    HW214398   8.638   7.405   2.551 -1.2543 -2.7995 -1.4669
 4433SOL     OW14399   4.384   7.815   0.063 -0.1652  0.0196 -0.2029
 4433SOL    HW114400   4.467   7.860   0.054  1.0910 -0.8591  4.2559
 4433SOL    HW214401   4.319   7.885   0.070  1.0820  1.0576  1.8570
 4434SOL     OW14402   1.408   1.592   8.082  0.3100 -0.1300 -0.6450
 4434SOL    HW114403   1.504   1.587   8.081  0.4516  1.7242 -0.4766
 4434SOL    HW214404   1.387   1.656   8.015 -0.9179 -1.3576 -1.4875
 4435SOL     OW14405   3.793   3.709   3.668  0.3723  0.4951 -0.3628
 4435SOL    HW114406   3.810   3.769   3.741  0.2406  0.2447 -0.1235
 4435SOL    HW214407   3.790   3.623   3.709 -0.1101  0.3952 -0.6050
 4436SOL     OW14408   3.656   7.991   1.301  0.6752  0.0549  0.1739
 4436SOL    HW114409   3.742   7.959   1.274  0.6793  1.3073 -1.4198
 4436SOL    HW214410   3.597   7.917   1.286  1.2314 -0.3477 -0.0823
 4437SOL     OW14411   4.310   5.227   6.614 -0.5772 -0.4255  0.8361
 4437SOL    HW114412   4.356   5.173   6.679 -0.0873  0.3529  1.1519
 4437SOL    HW214413   4.237   5.265   6.662  0.1167  0.6085  1.1028
 4438SOL     OW14414   4.555   7.776   3.185  0.4222  0.5496 -0.4775
 4438SOL    HW114415   4.629   7.734   3.141  1.5796  0.2668  1.6459
 4438SOL    HW214416   4.519   7.708   3.242  0.0114  1.3831  0.2840
 4439SOL     OW14417   0.577   3.793   1.032 -0.0961 -0.6673 -0.0188
 4439SOL    HW114418   0.552   3.701   1.045  1.2772 -0.8798  1.6235
 4439SOL    HW214419   0.530   3.840   1.101 -0.4133 -0.2147 -0.5453
 4440SOL     OW14420   5.978   1.554   2.031 -0.0263  0.0238 -0.0836
 4440SOL    HW114421   6.006   1.557   2.123  0.6030  1.0931 -0.2966
 4440SOL    HW214422   5.883   1.543   2.036  0.1549 -1.6027  0.6707
 4441SOL     OW14423   5.529   2.838   6.818 -0.2647  0.2946 -0.0620
 4441SOL    HW114424   5.562   2.846   6.728 -0.4694  0.8630 -0.0951
 4441SOL    HW214425   5.490   2.751   6.821 -0.0880  0.1972 -0.4712
 4442SOL     OW14426   2.613   7.614   8.917 -0.2895  0.2350  0.8681
 4442SOL    HW114427   2.554   7.540   8.932 -2.1068  2.0006  3.1681
 4442SOL    HW214428   2.665   7.620   8.997  0.4492  0.9301  0.3544
 4443SOL     OW14429   3.913   2.890   6.632  0.1208  0.2025 -0.1778
 4443SOL    HW114430   3.836   2.872   6.578 -0.2000  2.8341 -0.7220
 4443SOL    HW214431   3.987   2.868   6.576 -0.2204 -0.8446 -0.2294
 4444SOL     OW14432   2.243   2.869   5.015  0.4148  0.1623 -0.4677
 4444SOL    HW114433   2.260   2.785   4.972 -0.6078  0.5565 -1.7175
 4444SOL    HW214434   2.153   2.862   5.048  0.7531  0.3299  0.5285
 4445SOL     OW14435   6.013   2.082   8.930 -0.2761  0.6105 -0.2663
 4445SOL    HW114436   6.019   2.069   9.025 -0.9030  1.9565 -0.0322
 4445SOL    HW214437   5.955   2.012   8.900 -0.2039  0.2729  0.3648
 4446SOL     OW14438   8.793   8.338   4.817  0.0064  0.3243 -0.0692
 4446SOL    HW114439   8.881   8.313   4.788 -0.5566 -0.4109 -1.2151
 4446SOL    HW214440   8.770   8.411   4.760 -0.5976 -0.2758 -0.6009
 4447SOL     OW14441   1.811   7.186   5.316 -0.3214  0.5631 -0.6505
 4447SOL    HW114442   1.828   7.218   5.228  1.2328  0.9124 -0.2539
 4447SOL    HW214443   1.883   7.126   5.334 -0.5574  0.5865  0.4301
 4448SOL     OW14444   1.269   3.062   3.664 -0.4168 -0.3211 -0.3254
 4448SOL    HW114445   1.268   3.152   3.632  1.0271 -0.2908 -0.3575
 4448SOL    HW214446   1.255   3.008   3.586  0.2318 -0.1602 -0.5583
 4449SOL     OW14447   5.526   2.893   7.941 -0.0968 -0.0633  0.6555
 4449SOL    HW114448   5.442   2.920   7.978 -0.5095  0.7920 -0.8055
 4449SOL    HW214449   5.546   2.960   7.876  1.1827 -0.8370  0.2103
 4450SOL     OW14450   7.925   2.918   2.441  0.0015 -0.5798  0.2196
 4450SOL    HW114451   7.947   2.928   2.349 -0.0203 -1.2794  0.1360
 4450SOL    HW214452   7.895   2.827   2.450 -1.4382 -0.1090  0.6122
 4451SOL     OW14453   2.995   5.212   5.328  0.2231  0.1092  0.2317
 4451SOL    HW114454   2.934   5.144   5.302 -1.0845  0.6763  1.6757
 4451SOL    HW214455   3.030   5.246   5.245 -3.0244  1.2246 -0.8267
 4452SOL     OW14456   3.289   4.235   2.656 -0.0860 -1.0969 -0.2619
 4452SOL    HW114457   3.240   4.196   2.729  0.5951  0.0762  0.8632
 4452SOL    HW214458   3.227   4.295   2.616 -0.8935 -2.6954 -1.5295
 4453SOL     OW14459   8.353   8.753   7.634  0.4417 -0.0752  0.0335
 4453SOL    HW114460   8.307   8.821   7.585 -0.9855 -0.5727  0.6287
 4453SOL    HW214461   8.298   8.738   7.711  2.8949  1.1229  2.1835
 4454SOL     OW14462   7.508   2.482   0.140  0.5005  0.0230 -0.0856
 4454SOL    HW114463   7.450   2.555   0.118 -0.7342 -0.7296  0.5517
 4454SOL    HW214464   7.589   2.502   0.094  0.0742  1.6003 -0.2443
 4455SOL     OW14465   4.655   5.460   7.066 -0.6999 -0.4684 -0.3344
 4455SOL    HW114466   4.623   5.544   7.035  1.2439 -0.0191 -1.3295
 4455SOL    HW214467   4.623   5.397   7.002 -1.8958 -0.4688  0.2388
 4456SOL     OW14468   5.163   2.695   4.402 -0.4949  0.4421 -0.3681
 4456SOL    HW114469   5.117   2.777   4.418 -0.9549  0.2420 -0.6278
 4456SOL    HW214470   5.213   2.679   4.482  1.8248  2.3706 -1.3039
 4457SOL     OW14471   8.932   8.788   4.342 -0.1208 -0.1920 -0.0326
 4457SOL    HW114472   8.870   8.799   4.414  1.0432  0.8062  0.8539
 4457SOL    HW214473   8.900   8.846   4.273  0.0604  0.6665  0.5940
 4458SOL     OW14474   0.374   4.749   2.843  0.2994  0.9552 -0.6225
 4458SOL    HW114475   0.449   4.804   2.823  1.1888 -0.8190 -2.5171
 4458SOL    HW214476   0.394   4.665   2.804 -1.2715 -0.5956  1.6344
 4459SOL     OW14477   7.639   3.669   7.468 -0.3032 -0.5464 -0.6438
 4459SOL    HW114478   7.573   3.713   7.521 -0.8772  3.2634 -4.0346
 4459SOL    HW214479   7.596   3.590   7.436 -2.1909  0.3166 -0.3517
 4460SOL     OW14480   5.640   1.099   2.126 -0.2763  0.7918 -0.9353
 4460SOL    HW114481   5.663   1.046   2.202  1.2861  0.5337 -1.5406
 4460SOL    HW214482   5.698   1.067   2.056  0.4533  2.9880 -1.4204
 4461SOL     OW14483   1.971   1.183   7.853 -0.1778 -0.0976  0.3410
 4461SOL    HW114484   1.937   1.154   7.938 -0.5019  2.1488  1.0446
 4461SOL    HW214485   1.903   1.157   7.791  0.6697 -2.9855  0.4797
 4462SOL     OW14486   8.767   4.729   2.432 -0.1247 -0.3191 -0.0946
 4462SOL    HW114487   8.824   4.677   2.488  1.5328  1.6063  0.1327
 4462SOL    HW214488   8.812   4.731   2.347 -0.0269  0.8899 -0.0292
 4463SOL     OW14489   3.371   0.169   1.833  0.1962  0.5596  0.1368
 4463SOL    HW114490   3.410   0.246   1.791 -0.2450  1.3027  1.0481
 4463SOL    HW214491   3.444   0.108   1.844  0.4067  0.5228 -1.2825
 4464SOL     OW14492   8.441   0.903   3.264 -0.1205  0.1661  0.3373
 4464SOL    HW114493   8.358   0.939   3.295 -0.0883  0.0518  0.5557
 4464SOL    HW214494   8.419   0.860   3.181 -0.8375 -2.3057  1.7234
 4465SOL     OW14495   0.117   7.578   7.771  0.0267 -0.1872  0.1926
 4465SOL    HW114496   0.106   7.486   7.795 -1.1198 -0.5657 -1.5606
 4465SOL    HW214497   0.030   7.605   7.741  0.7494  0.9538 -0.9859
 4466SOL     OW14498   3.485   6.790   7.306  0.0656  0.4091 -0.5378
 4466SOL    HW114499   3.546   6.816   7.237  0.2074  0.8616 -0.2512
 4466SOL    HW214500   3.400   6.820   7.275  0.3084  1.8366  0.0612
 4467SOL     OW14501   0.877   0.614   6.612 -0.4108 -0.1159  0.0966
 4467SOL    HW114502   0.945   0.599   6.678 -0.9167 -2.3608  0.1845
 4467SOL    HW214503   0.924   0.621   6.530 -0.0491 -2.1518  0.0908
 4468SOL     OW14504   5.741   5.289   0.985  0.0750  0.0382 -0.1217
 4468SOL    HW114505   5.671   5.354   0.993 -0.5927 -0.6963  0.2113
 4468SOL    HW214506   5.798   5.305   1.060 -0.3754 -0.0860  0.2553
 4469SOL     OW14507   1.079   8.901   6.178 -0.0773 -0.3236  0.6316
 4469SOL    HW114508   1.015   8.840   6.214 -0.8568 -0.7219 -1.3182
 4469SOL    HW214509   1.163   8.857   6.189 -0.5290 -1.3380  0.0923
 4470SOL     OW14510   6.664   0.749   1.173 -0.0360 -0.1987 -0.1712
 4470SOL    HW114511   6.652   0.841   1.197  1.0139 -0.1791  0.3556
 4470SOL    HW214512   6.576   0.712   1.176 -0.4380  0.7354 -0.1413
 4471SOL     OW14513   2.755   8.218   0.181  0.1768 -0.0761  0.2114
 4471SOL    HW114514   2.705   8.274   0.241  2.5613  1.2457  1.0925
 4471SOL    HW214515   2.739   8.256   0.094 -0.4879  0.1973  0.4414
 4472SOL     OW14516   5.775   0.875   8.721  0.3237 -0.0191 -0.7586
 4472SOL    HW114517   5.804   0.789   8.693 -0.1803 -0.3324 -0.3275
 4472SOL    HW214518   5.826   0.936   8.668  1.6516 -0.5472 -0.1129
 4473SOL     OW14519   7.887   0.892   6.678 -0.5165  0.7868  0.4675
 4473SOL    HW114520   7.919   0.969   6.724  0.3498  0.3755  0.5797
 4473SOL    HW214521   7.917   0.818   6.731 -0.7291  0.3479 -0.0122
 4474SOL     OW14522   4.765   3.526   7.875  0.2524 -0.2048  0.0998
 4474SOL    HW114523   4.689   3.486   7.832  0.3676  0.2301 -0.5149
 4474SOL    HW214524   4.821   3.452   7.899  0.0015 -0.4724 -0.1402
 4475SOL     OW14525   0.962   3.885   4.029  0.0381 -0.9151 -0.6394
 4475SOL    HW114526   1.026   3.895   3.958 -0.5786 -0.8734 -1.1942
 4475SOL    HW214527   0.881   3.920   3.994 -0.8304 -2.8348 -0.6865
 4476SOL     OW14528   1.944   1.892   7.270 -0.0813  0.0946 -0.3101
 4476SOL    HW114529   1.862   1.906   7.222 -0.1804  0.7535  0.0441
 4476SOL    HW214530   1.920   1.830   7.339 -0.7246  1.6388  0.9036
 4477SOL     OW14531   7.099   0.319   6.544 -0.1525 -0.0016 -0.2202
 4477SOL    HW114532   7.025   0.376   6.520  0.0497  0.1238 -0.5603
 4477SOL    HW214533   7.148   0.369   6.609  0.5037  0.5963 -1.1425
 4478SOL     OW14534   1.549   8.588   1.713 -0.1729 -0.3920 -0.6902
 4478SOL    HW114535   1.506   8.568   1.797  1.4164 -1.0205  0.0192
 4478SOL    HW214536   1.477   8.600   1.652 -1.5333  2.5919  1.2527
 4479SOL     OW14537   0.761   6.668   4.203  0.0131  0.3302  0.4545
 4479SOL    HW114538   0.730   6.577   4.207  0.8551  0.0877  2.5260
 4479SOL    HW214539   0.725   6.709   4.282  0.1690  1.6415 -0.1286
 4480SOL     OW14540   3.746   8.995   2.353 -0.4979  0.5923 -0.3655
 4480SOL    HW114541   3.734   9.083   2.318 -1.2369 -0.0441 -1.7902
 4480SOL    HW214542   3.717   8.936   2.282 -0.5650 -0.7842  0.7537
 4481SOL     OW14543   7.614   2.906   6.606 -0.8531  0.2251  0.9180
 4481SOL    HW114544   7.583   2.908   6.516 -2.3028  0.9253  1.3965
 4481SOL    HW214545   7.612   2.997   6.635 -2.9733 -0.2125  2.4256
 4482SOL     OW14546   8.740   7.031   1.028  0.2329  0.6901 -0.3291
 4482SOL    HW114547   8.779   7.035   1.115 -1.3738 -0.7147  0.5270
 4482SOL    HW214548   8.709   6.941   1.020  0.5848  0.7036 -2.4913
 4483SOL     OW14549   4.343   6.060   2.507  0.5214  0.6333  0.1791
 4483SOL    HW114550   4.430   6.050   2.468  0.2115  0.1765 -0.4156
 4483SOL    HW214551   4.283   6.057   2.432  0.1076  3.0291  0.3523
 4484SOL     OW14552   7.523   0.029   8.516 -0.4758 -0.6348  0.3210
 4484SOL    HW114553   7.479  -0.022   8.448  0.4387 -0.6443 -0.2749
 4484SOL    HW214554   7.613  -0.003   8.516 -0.3699 -0.3640  1.2745
 4485SOL     OW14555   6.051   5.473   3.157  0.6785  0.0510  0.3454
 4485SOL    HW114556   6.079   5.555   3.199  0.1418  1.2761 -1.5534
 4485SOL    HW214557   5.965   5.493   3.120  0.0075 -1.7580  0.8428
 4486SOL     OW14558   4.414   6.246   6.995  0.6330  0.2780  0.1967
 4486SOL    HW114559   4.470   6.314   7.032  0.9210  0.1567 -0.0205
 4486SOL    HW214560   4.353   6.225   7.066  1.8706 -0.7419  1.0094
 4487SOL     OW14561   2.437   4.810   4.248 -0.6547 -0.5480  0.3613
 4487SOL    HW114562   2.481   4.768   4.323 -2.8644 -2.2583  0.7933
 4487SOL    HW214563   2.460   4.754   4.173  0.8152  0.6503 -0.1264
 4488SOL     OW14564   5.281   5.007   6.342 -0.1560 -0.5564 -0.1413
 4488SOL    HW114565   5.303   5.088   6.388  0.5424 -0.7346 -0.1482
 4488SOL    HW214566   5.197   4.980   6.380 -1.7506  1.5089 -1.9464
 4489SOL     OW14567   7.511   0.928   5.239  0.5891 -0.6103  0.4588
 4489SOL    HW114568   7.459   0.989   5.188  1.2702  0.1054  0.5924
 4489SOL    HW214569   7.537   0.978   5.317  1.1553 -1.0701  0.5716
 4490SOL     OW14570   6.338   8.021   5.134  0.0756 -0.2280 -0.0748
 4490SOL    HW114571   6.295   8.053   5.213  0.9673  0.6691  0.0741
 4490SOL    HW214572   6.377   7.938   5.159  0.0206 -0.1371  0.3202
 4491SOL     OW14573   0.715   2.538   7.229  0.2036 -0.1139 -0.7479
 4491SOL    HW114574   0.698   2.447   7.204 -3.0884  0.5320 -1.2297
 4491SOL    HW214575   0.767   2.573   7.157 -0.3169 -1.0636 -1.6137
 4492SOL     OW14576   0.064   2.422   6.044  0.5516 -0.2640 -0.0777
 4492SOL    HW114577   0.155   2.409   6.016  0.0548 -1.4021 -1.2533
 4492SOL    HW214578   0.028   2.334   6.048 -1.0019  0.2670 -1.3861
 4493SOL     OW14579   6.015   7.465   8.990  1.0099  0.4157  0.0122
 4493SOL    HW114580   5.946   7.517   9.032  1.4663  1.1788 -0.1630
 4493SOL    HW214581   5.969   7.410   8.928  0.7178  2.7475 -2.0103
 4494SOL     OW14582   4.229   8.181   1.254 -0.0109  0.3574 -0.2933
 4494SOL    HW114583   4.200   8.186   1.345  1.1622  1.5398  0.0458
 4494SOL    HW214584   4.149   8.165   1.204 -0.5250 -1.6185  1.0238
 4495SOL     OW14585   4.144   7.900   6.633 -0.2675 -0.0716  0.2370
 4495SOL    HW114586   4.231   7.874   6.664  0.0545 -0.0799 -0.6282
 4495SOL    HW214587   4.162   7.946   6.550 -1.0693  0.1355  0.1761
 4496SOL     OW14588   6.577   5.004   1.796 -0.0450  0.1355 -0.2827
 4496SOL    HW114589   6.542   5.064   1.861  1.0829  0.5847 -0.0687
 4496SOL    HW214590   6.637   5.057   1.743  1.1398 -0.8093  0.0450
 4497SOL     OW14591   1.625   5.686   4.556 -0.1351  0.5286  0.6437
 4497SOL    HW114592   1.702   5.631   4.557  0.7676  1.5939 -1.9169
 4497SOL    HW214593   1.553   5.628   4.532  0.2401 -0.0700  0.9679
 4498SOL     OW14594   5.838   4.811   9.108  0.4321 -0.7470  0.0269
 4498SOL    HW114595   5.929   4.781   9.106  1.3448  1.7688 -0.2333
 4498SOL    HW214596   5.828   4.859   9.025 -1.3362 -1.4746 -0.2061
 4499SOL     OW14597   7.459   1.767   0.394  0.2602  0.1034  0.1784
 4499SOL    HW114598   7.542   1.799   0.361  0.0081 -0.2588 -0.8367
 4499SOL    HW214599   7.480   1.683   0.435  0.8796  1.3538  2.6189
 4500SOL     OW14600   1.576   7.588   7.048  0.1053 -0.3823  0.0787
 4500SOL    HW114601   1.611   7.590   6.959 -1.0116  0.6818 -0.3724
 4500SOL    HW214602   1.573   7.680   7.074 -1.8920 -0.4549  0.2540
 4501SOL     OW14603   6.905   5.508   8.372  0.3837 -0.5037 -0.3021
 4501SOL    HW114604   6.948   5.520   8.287 -1.2196  0.9264 -0.9736
 4501SOL    HW214605   6.896   5.597   8.406 -1.5281 -0.8043  0.0534
 4502SOL     OW14606   3.699   8.856   3.125  0.0924  0.0789  0.0229
 4502SOL    HW114607   3.791   8.830   3.137  0.4023  1.1643  0.0850
 4502SOL    HW214608   3.659   8.780   3.082  1.3453  0.1214 -1.3233
 4503SOL     OW14609   3.689   7.588   4.383 -0.7032 -0.2122 -0.2708
 4503SOL    HW114610   3.732   7.502   4.380 -1.2864 -0.5285  0.2277
 4503SOL    HW214611   3.685   7.610   4.476 -0.2275  0.5324 -0.4168
 4504SOL     OW14612   7.738   6.966   9.031  0.9379 -0.0399  0.2741
 4504SOL    HW114613   7.827   6.934   9.048  1.4993  1.1883 -0.2076
 4504SOL    HW214614   7.745   7.011   8.947  0.0036  0.6192  0.5416
 4505SOL     OW14615   8.007   4.984   2.867  0.2666 -0.1748 -0.6977
 4505SOL    HW114616   7.915   4.977   2.893  0.6679  0.8777  1.1795
 4505SOL    HW214617   8.030   4.896   2.839 -1.0728 -0.6799 -0.3151
 4506SOL     OW14618   0.250   4.601   8.487 -0.2223  0.0910 -0.5605
 4506SOL    HW114619   0.309   4.576   8.559 -0.7833 -1.2547 -0.5470
 4506SOL    HW214620   0.162   4.589   8.523 -0.5084 -0.3271 -1.3814
 4507SOL     OW14621   7.912   3.534   0.647 -0.1691  0.2975 -0.2337
 4507SOL    HW114622   7.933   3.553   0.556 -0.5785  1.5703 -0.0993
 4507SOL    HW214623   7.982   3.576   0.697 -0.3376  0.2490  0.0458
 4508SOL     OW14624   3.544   4.056   1.648 -0.4472  0.0475 -0.1968
 4508SOL    HW114625   3.466   4.051   1.593 -0.5140 -1.7133  0.0009
 4508SOL    HW214626   3.594   3.977   1.625  0.6834  0.5212  0.5559
 4509SOL     OW14627   1.014   4.446   4.690  0.0257 -0.6189 -0.1404
 4509SOL    HW114628   0.923   4.457   4.720  0.1686  0.7355 -0.1584
 4509SOL    HW214629   1.022   4.352   4.673 -1.5450 -0.6908 -0.6757
 4510SOL     OW14630   2.525   3.102   4.593 -0.0077 -0.1490  0.4615
 4510SOL    HW114631   2.489   3.075   4.677 -0.9274 -0.8389 -0.1350
 4510SOL    HW214632   2.481   3.046   4.529  1.6597 -0.6085 -0.3638
 4511SOL     OW14633   5.834   7.881   3.585 -0.2152  0.4794 -0.9548
 4511SOL    HW114634   5.886   7.916   3.513 -0.5947 -0.6488 -1.8036
 4511SOL    HW214635   5.816   7.957   3.641  2.9375  0.8010 -0.2031
 4512SOL     OW14636   4.809   5.587   6.094  0.1357 -0.5460  0.1784
 4512SOL    HW114637   4.877   5.613   6.032  1.3273 -2.4633  0.5978
 4512SOL    HW214638   4.758   5.667   6.108  2.7543  1.2020  0.4426
 4513SOL     OW14639   7.163   5.676   0.077 -0.3046  0.8874  0.1149
 4513SOL    HW114640   7.163   5.627  -0.006  0.4074  1.6577 -0.3545
 4513SOL    HW214641   7.071   5.678   0.103 -0.5323  0.6041 -0.6408
 4514SOL     OW14642   3.370   3.475   7.711 -0.4374 -0.1696  0.6664
 4514SOL    HW114643   3.425   3.447   7.785  0.9940 -0.9905 -0.6474
 4514SOL    HW214644   3.399   3.565   7.693 -0.2151 -0.2547  0.5968
 4515SOL     OW14645   1.303   0.221   1.348 -0.8021  0.3131  0.2821
 4515SOL    HW114646   1.330   0.194   1.260 -1.3270 -2.1662  0.8176
 4515SOL    HW214647   1.294   0.316   1.342  0.6266  0.3826 -1.9249
 4516SOL     OW14648   3.895   0.598   5.887  0.2046 -0.0991  0.2640
 4516SOL    HW114649   3.892   0.693   5.900  0.5183 -0.2466  1.5631
 4516SOL    HW214650   3.891   0.562   5.976 -1.5416 -1.3576 -0.2904
 4517SOL     OW14651   5.606   6.580   7.028 -0.3914 -0.1766  0.0565
 4517SOL    HW114652   5.552   6.510   6.993 -0.5065  0.3694 -0.8870
 4517SOL    HW214653   5.643   6.623   6.951 -0.4706  0.9172  0.6042
 4518SOL     OW14654   3.901   1.514   3.359 -0.2333  0.2288 -0.1827
 4518SOL    HW114655   3.977   1.565   3.333 -0.0329 -0.0342 -0.1261
 4518SOL    HW214656   3.898   1.522   3.455  1.4470 -2.0775  0.1544
 4519SOL     OW14657   4.358   4.447   8.850  0.1559 -0.2777  0.6105
 4519SOL    HW114658   4.269   4.416   8.864 -0.4015  2.1109  3.0279
 4519SOL    HW214659   4.349   4.540   8.830  2.0612 -0.2412 -0.3930
 4520SOL     OW14660   0.284   0.212   2.353 -0.1418  0.3199  0.0513
 4520SOL    HW114661   0.372   0.178   2.367 -0.6809 -0.3052  2.3812
 4520SOL    HW214662   0.280   0.232   2.259  1.9322 -1.1015 -0.4030
 4521SOL     OW14663   3.318   0.877   3.703  0.4874 -0.2783 -0.4858
 4521SOL    HW114664   3.228   0.877   3.670  0.1213  1.0234  0.4565
 4521SOL    HW214665   3.323   0.954   3.759  2.1705 -0.3950 -0.4414
 4522SOL     OW14666   5.301   2.798   0.792  0.0957  0.4898 -0.0403
 4522SOL    HW114667   5.290   2.859   0.719  1.6959  1.1849  0.2766
 4522SOL    HW214668   5.232   2.823   0.854 -0.3504  0.8352 -0.6583
 4523SOL     OW14669   4.623   3.141   2.495 -0.2195 -0.3000  0.1225
 4523SOL    HW114670   4.556   3.208   2.477  0.1585  0.1232  0.2618
 4523SOL    HW214671   4.630   3.140   2.590 -2.1273 -2.4424  0.3091
 4524SOL     OW14672   7.612   5.135   6.871 -0.1154 -0.5573  0.2959
 4524SOL    HW114673   7.523   5.113   6.844 -0.4973 -0.2970  1.2940
 4524SOL    HW214674   7.620   5.229   6.852 -0.1700 -0.5103  0.4989
 4525SOL     OW14675   4.018   8.943   8.831 -0.0117  0.0123 -0.1123
 4525SOL    HW114676   4.020   8.919   8.923 -1.1569  0.1208 -0.0495
 4525SOL    HW214677   3.959   9.018   8.826  0.0369  0.0146 -0.9297
 4526SOL     OW14678   2.325   1.931   1.388  0.4672 -0.1099  0.0160
 4526SOL    HW114679   2.244   1.942   1.338  0.4814 -2.0863 -0.5049
 4526SOL    HW214680   2.303   1.961   1.477 -0.7383 -0.3591 -0.1883
 4527SOL     OW14681   6.851   0.577   2.177  0.5131 -0.1666 -0.3756
 4527SOL    HW114682   6.885   0.663   2.154 -0.5316  0.4764  0.3884
 4527SOL    HW214683   6.828   0.537   2.094 -1.2893  1.2960 -0.6390
 4528SOL     OW14684   6.987   6.787   3.607  0.9072  0.5727  0.6884
 4528SOL    HW114685   6.959   6.792   3.516  0.0720 -3.1633  0.6188
 4528SOL    HW214686   6.912   6.818   3.657 -0.4737 -1.7333  0.1836
 4529SOL     OW14687   0.152   7.646   5.865  0.0751 -0.5741 -0.1799
 4529SOL    HW114688   0.183   7.563   5.900 -2.2712 -1.5427 -0.2201
 4529SOL    HW214689   0.118   7.625   5.778  1.2111  0.8245 -0.9971
 4530SOL     OW14690   6.556   2.580   4.502 -0.4631  0.2105 -0.0777
 4530SOL    HW114691   6.523   2.669   4.501 -0.7297  0.1350  0.7798
 4530SOL    HW214692   6.500   2.534   4.564 -1.1193 -0.8738 -1.4126
 4531SOL     OW14693   4.927   8.744   1.325  0.6722 -0.0500 -0.3283
 4531SOL    HW114694   4.839   8.740   1.364  0.7870 -0.2805 -0.0926
 4531SOL    HW214695   4.982   8.697   1.387  0.8134 -0.6271 -0.8900
 4532SOL     OW14696   3.294   7.668   7.496 -0.3530  0.3005 -0.1351
 4532SOL    HW114697   3.291   7.573   7.494  1.6215  0.1832 -2.2032
 4532SOL    HW214698   3.216   7.696   7.449 -0.1366 -0.3647 -0.9109
 4533SOL     OW14699   6.540   5.076   6.130  0.4272 -0.3296  0.2551
 4533SOL    HW114700   6.480   5.102   6.199  0.8480  1.2775  0.0487
 4533SOL    HW214701   6.556   5.156   6.081 -0.4560 -1.5761 -2.2067
 4534SOL     OW14702   0.492   7.164   0.549  0.1451  0.2010  0.4708
 4534SOL    HW114703   0.516   7.203   0.633 -0.0593  2.6246 -0.5187
 4534SOL    HW214704   0.397   7.154   0.553  0.3018 -1.4135  1.1574
 4535SOL     OW14705   5.977   3.059   5.702  0.1707  0.4329 -0.2833
 4535SOL    HW114706   5.911   3.049   5.633  0.0673 -2.1859  0.0944
 4535SOL    HW214707   6.061   3.046   5.657  0.1975  0.1703 -0.1569
 4536SOL     OW14708   0.443   2.572   1.372 -0.4308  0.2768  0.0136
 4536SOL    HW114709   0.369   2.516   1.395 -0.1788 -1.1756 -2.4044
 4536SOL    HW214710   0.408   2.633   1.307  0.6071 -0.9299 -1.7485
 4537SOL     OW14711   1.080   2.629   7.303  0.3799  0.1026  0.1332
 4537SOL    HW114712   1.104   2.614   7.394 -2.7460  0.9537  1.2354
 4537SOL    HW214713   1.058   2.542   7.269  0.4086 -0.0716  0.5622
 4538SOL     OW14714   0.017   0.734   0.195 -0.1266  0.4117 -0.1120
 4538SOL    HW114715  -0.041   0.715   0.122 -1.1286  1.9226  0.2508
 4538SOL    HW214716  -0.035   0.714   0.273 -0.2967  2.0376  0.2227
 4539SOL     OW14717   8.550   1.998   2.180  0.5401 -0.1385  0.0953
 4539SOL    HW114718   8.528   2.091   2.189 -0.0873 -0.3742  1.2112
 4539SOL    HW214719   8.644   1.997   2.165  0.3618  0.7361 -1.2377
 4540SOL     OW14720   5.816   0.919   0.278 -0.1024  0.6948 -0.1868
 4540SOL    HW114721   5.742   0.862   0.255 -1.4081  1.9813  0.6034
 4540SOL    HW214722   5.855   0.877   0.355  1.2666 -1.0307 -1.7409
 4541SOL     OW14723   0.858   7.222   2.268 -0.1538 -0.3533 -0.5240
 4541SOL    HW114724   0.850   7.156   2.199 -0.1115 -0.2697 -0.6101
 4541SOL    HW214725   0.930   7.190   2.322 -0.6518 -0.7871 -0.1041
 4542SOL     OW14726   4.346   5.901   0.239  0.1773  0.0939 -0.5162
 4542SOL    HW114727   4.416   5.896   0.174 -0.1470 -0.9627 -0.8069
 4542SOL    HW214728   4.372   5.839   0.307  1.3477  2.3963  1.2369
 4543SOL     OW14729   3.996   3.511   7.476 -0.0366 -0.4549  0.0135
 4543SOL    HW114730   3.984   3.505   7.571  1.7040  1.4217  0.4203
 4543SOL    HW214731   3.909   3.530   7.441 -0.5720 -0.4623  1.3009
 4544SOL     OW14732   7.980   8.438   0.415  0.2823  0.2268 -0.2049
 4544SOL    HW114733   7.960   8.525   0.449  0.0849  0.3531 -0.6330
 4544SOL    HW214734   7.935   8.435   0.330  2.4467  0.6847 -1.4423
 4545SOL     OW14735   2.746   9.062   4.805 -0.2172 -0.2883  0.1300
 4545SOL    HW114736   2.796   8.983   4.784 -0.0533  0.0846 -0.9185
 4545SOL    HW214737   2.802   9.134   4.777 -1.8718  0.1375 -2.4787
 4546SOL     OW14738   3.297   1.838   2.798 -0.4532 -0.1479 -0.1386
 4546SOL    HW114739   3.283   1.932   2.785  0.4462  0.0911  0.5064
 4546SOL    HW214740   3.209   1.802   2.804 -0.8455  0.9842  1.7939
 4547SOL     OW14741   0.735   5.031   7.706 -0.2704 -0.3206  0.1625
 4547SOL    HW114742   0.644   5.061   7.713  0.0786  0.5068  1.6117
 4547SOL    HW214743   0.742   4.995   7.618 -1.5933  0.9776 -0.5151
 4548SOL     OW14744   6.281   8.733   5.929  0.4109  0.0688  0.3064
 4548SOL    HW114745   6.280   8.731   5.834  0.7327 -0.5382  0.3080
 4548SOL    HW214746   6.189   8.737   5.954  0.1980 -1.8588 -0.0158
 4549SOL     OW14747   8.889   7.174   3.862  0.3525 -0.6270  0.2500
 4549SOL    HW114748   8.815   7.134   3.907 -0.3005 -0.1511 -0.3936
 4549SOL    HW214749   8.850   7.235   3.799  1.1867 -2.3860 -2.0966
 4550SOL     OW14750   2.807   7.190   5.194  0.3991  0.2854 -0.3625
 4550SOL    HW114751   2.814   7.151   5.107  0.0011  1.3128 -0.8617
 4550SOL    HW214752   2.859   7.270   5.190  0.0691  0.5399  0.2314
 4551SOL     OW14753   0.815   3.916   0.922  0.4381 -0.0626  1.0484
 4551SOL    HW114754   0.877   3.927   0.995 -1.7833 -0.0695  3.0363
 4551SOL    HW214755   0.738   3.876   0.962 -0.2262 -1.7352 -1.6931
 4552SOL     OW14756   5.447   7.339   5.128  0.6626 -0.5636  0.6450
 4552SOL    HW114757   5.399   7.419   5.105  0.7282 -0.7926 -0.3231
 4552SOL    HW214758   5.379   7.272   5.138  0.7422 -0.8535 -0.5806
 4553SOL     OW14759   5.110   3.467   7.758 -0.3355 -0.3543 -0.4345
 4553SOL    HW114760   5.112   3.563   7.757 -1.2380 -0.2807  1.6658
 4553SOL    HW214761   5.164   3.443   7.833 -0.6131 -1.4802 -0.5888
 4554SOL     OW14762   1.125   4.825   7.922  0.1463  0.2853 -0.2908
 4554SOL    HW114763   1.070   4.902   7.937  2.1776  1.9145 -0.7931
 4554SOL    HW214764   1.141   4.825   7.828 -0.1451 -1.0038 -0.3543
 4555SOL     OW14765   2.429   5.290   8.909  0.5882  0.0305 -0.1989
 4555SOL    HW114766   2.519   5.319   8.924  0.9203 -0.5642 -0.9492
 4555SOL    HW214767   2.399   5.344   8.836  0.3012  0.2835  0.1026
 4556SOL     OW14768   2.426   3.278   0.365 -0.0588 -0.5669 -0.4680
 4556SOL    HW114769   2.421   3.330   0.285 -2.1429 -0.7073 -0.4666
 4556SOL    HW214770   2.375   3.327   0.429 -0.4049 -1.6393  0.0978
 4557SOL     OW14771   6.592   0.967   3.654 -0.0202 -0.3828  0.1444
 4557SOL    HW114772   6.633   1.024   3.719 -0.3236  0.7592 -0.6390
 4557SOL    HW214773   6.582   1.022   3.576  0.5968 -1.8002 -0.9776
 4558SOL     OW14774   6.051   4.037   7.934  0.3113 -0.1910  0.4581
 4558SOL    HW114775   6.040   4.033   7.839 -2.2731  0.0981  0.6928
 4558SOL    HW214776   6.105   3.961   7.954 -1.1906 -1.7353 -1.0063
 4559SOL     OW14777   5.454   1.339   7.049  0.0736  0.4949 -0.0846
 4559SOL    HW114778   5.482   1.278   6.980  0.7912  0.3292  0.3372
 4559SOL    HW214779   5.396   1.400   7.004  0.6468  0.4841 -0.8737
 4560SOL     OW14780   0.150   8.422   8.715 -0.8299 -0.7193 -0.1885
 4560SOL    HW114781   0.068   8.462   8.741  0.1611  0.6906  0.9195
 4560SOL    HW214782   0.218   8.482   8.746  0.6754 -2.4572  0.1126
 4561SOL     OW14783   4.792   0.290   1.457  0.3930 -0.0895 -0.2281
 4561SOL    HW114784   4.809   0.199   1.435  2.2664  0.0408  0.5149
 4561SOL    HW214785   4.818   0.339   1.379  0.0622 -0.1322 -0.3671
 4562SOL     OW14786   3.958   8.397   2.575 -0.3552  0.0112 -0.2844
 4562SOL    HW114787   3.888   8.355   2.524  0.3533 -0.3766 -0.9669
 4562SOL    HW214788   4.035   8.393   2.517  0.1232  0.8150  0.2809
 4563SOL     OW14789   2.517   0.192   4.137  0.6916 -0.0890  0.0879
 4563SOL    HW114790   2.527   0.136   4.214 -0.4412 -0.3222  0.0832
 4563SOL    HW214791   2.535   0.134   4.063 -0.3164 -0.4220  0.0908
 4564SOL     OW14792   9.133   7.798   0.671 -0.2575  0.5580  0.1148
 4564SOL    HW114793   9.205   7.854   0.641  0.2991 -0.0122  0.3562
 4564SOL    HW214794   9.057   7.827   0.621  0.1849  1.0376 -0.2903
 4565SOL     OW14795   6.552   6.975   8.457  0.2069  0.1926  0.3253
 4565SOL    HW114796   6.543   7.042   8.524  1.0779 -0.1798  0.8394
 4565SOL    HW214797   6.497   6.903   8.487 -2.3506  1.3612 -1.2264
 4566SOL     OW14798   7.065   3.511   3.304  0.0590 -1.0747 -0.0746
 4566SOL    HW114799   7.003   3.452   3.347  0.0293  1.0350  3.0797
 4566SOL    HW214800   7.151   3.470   3.316  0.1988 -0.0696  3.2003
 4567SOL     OW14801   8.865   5.886   5.791 -0.2288 -0.5073  0.3256
 4567SOL    HW114802   8.805   5.950   5.751 -2.0324 -1.9031  0.6627
 4567SOL    HW214803   8.933   5.873   5.725  1.1936  2.9555  0.8969
 4568SOL     OW14804   7.970   7.421   6.635  0.1234 -0.1461  0.0948
 4568SOL    HW114805   8.001   7.399   6.548 -1.0874 -0.2731 -0.3254
 4568SOL    HW214806   8.049   7.439   6.686  0.8470 -0.3206 -0.9571
 4569SOL     OW14807   7.718   8.804   7.765 -0.8036 -0.0814  0.0102
 4569SOL    HW114808   7.696   8.759   7.683 -1.5735  1.2834 -0.5716
 4569SOL    HW214809   7.809   8.831   7.754 -1.0386  0.4880 -0.5976
 4570SOL     OW14810   7.853   2.974   5.787  0.2566  0.1258 -0.3440
 4570SOL    HW114811   7.885   2.981   5.877 -0.2538 -0.4486 -0.1082
 4570SOL    HW214812   7.931   2.950   5.736  0.0294 -2.7423  0.4507
 4571SOL     OW14813   4.510   3.274   2.822 -0.0825 -0.3612  0.0682
 4571SOL    HW114814   4.514   3.355   2.873  0.7296  1.9200 -3.2704
 4571SOL    HW214815   4.416   3.256   2.814 -0.2701  0.0932  1.0578
 4572SOL     OW14816   7.206   3.007   3.879 -0.3034 -0.1348 -0.3269
 4572SOL    HW114817   7.123   2.962   3.897  1.0556 -2.2248  1.3305
 4572SOL    HW214818   7.245   2.957   3.806 -0.0637  0.1606 -0.4026
 4573SOL     OW14819   7.141   6.281   6.429  0.0858  0.0021 -0.0763
 4573SOL    HW114820   7.166   6.307   6.518  1.2312  0.0505 -0.3959
 4573SOL    HW214821   7.162   6.357   6.375 -1.2612  0.2363 -0.3155
 4574SOL     OW14822   0.303   1.065   5.479 -0.0770  0.5386  0.6685
 4574SOL    HW114823   0.226   1.116   5.453 -0.0086  0.6049  0.5973
 4574SOL    HW214824   0.329   1.018   5.400  1.3591  2.2899  0.0352
 4575SOL     OW14825   0.649   1.446   6.604  0.0342 -0.4150 -0.2218
 4575SOL    HW114826   0.673   1.471   6.693 -2.5814 -2.3968  1.1850
 4575SOL    HW214827   0.567   1.491   6.587 -0.2501 -1.2004 -1.0555
 4576SOL     OW14828   1.511   1.508   1.404 -0.3006  0.1500  0.0121
 4576SOL    HW114829   1.559   1.428   1.383 -0.7142  0.3364 -1.8383
 4576SOL    HW214830   1.517   1.516   1.499  0.5096 -1.5848  0.1363
 4577SOL     OW14831   0.295   2.682   3.582  0.2013 -0.4677  0.1618
 4577SOL    HW114832   0.225   2.741   3.553 -0.2048  0.0893  2.1488
 4577SOL    HW214833   0.376   2.727   3.559 -0.0936 -0.1165 -0.2067
 4578SOL     OW14834   6.488   3.299   1.954  0.2231  0.4739  0.5457
 4578SOL    HW114835   6.465   3.385   1.990  1.5959 -0.0120  2.7484
 4578SOL    HW214836   6.543   3.319   1.878 -1.8560  1.5186 -0.7802
 4579SOL     OW14837   5.834   9.087   7.704  0.3357  0.7143  0.7636
 4579SOL    HW114838   5.785   9.168   7.693  1.8489  1.4614 -0.9655
 4579SOL    HW214839   5.910   9.112   7.757  0.7364  0.3864  0.3406
 4580SOL     OW14840   8.412   6.947   0.363  0.2151  0.0011  0.2385
 4580SOL    HW114841   8.439   6.856   0.378  0.0172  0.1037  1.3237
 4580SOL    HW214842   8.481   6.999   0.404 -0.1306  0.3133  0.4353
 4581SOL     OW14843   2.319   2.729   6.377 -0.0239 -1.0680 -0.3995
 4581SOL    HW114844   2.326   2.687   6.462 -1.5678 -1.2593 -0.3384
 4581SOL    HW214845   2.328   2.822   6.395 -2.3547 -0.9324  0.2843
 4582SOL     OW14846   7.481   7.360   0.060  0.2111  0.1969 -0.2449
 4582SOL    HW114847   7.389   7.384   0.071  0.1444  0.1899 -0.7656
 4582SOL    HW214848   7.507   7.400  -0.023  0.5612 -0.1497 -0.3070
 4583SOL     OW14849   5.507   0.198   5.487 -0.0757  0.3106  0.2553
 4583SOL    HW114850   5.539   0.141   5.417 -0.6823  0.0785  0.1583
 4583SOL    HW214851   5.531   0.154   5.568  0.5785  0.5505  0.1936
 4584SOL     OW14852   3.139   8.397   7.375 -0.1256 -0.4340  0.3948
 4584SOL    HW114853   3.162   8.484   7.342 -2.2185 -0.1036 -0.3129
 4584SOL    HW214854   3.154   8.402   7.469  1.5068  0.0909  0.1355
 4585SOL     OW14855   6.982   1.417   8.399 -0.4489 -0.5924  0.2488
 4585SOL    HW114856   7.008   1.491   8.454  3.4585 -0.8338 -0.9682
 4585SOL    HW214857   6.900   1.445   8.359 -0.7036  1.7467  2.1251
 4586SOL     OW14858   1.140   3.827   4.250 -0.2090  0.5875  0.1143
 4586SOL    HW114859   1.103   3.861   4.169 -0.4189 -0.5049 -0.2663
 4586SOL    HW214860   1.194   3.899   4.284 -0.8088  1.3662 -0.5304
 4587SOL     OW14861   3.892   4.260   6.256 -0.4499 -0.1584  0.1904
 4587SOL    HW114862   3.948   4.316   6.311 -0.3932  0.3688 -0.3975
 4587SOL    HW214863   3.829   4.320   6.217 -0.6132 -0.5586 -0.1688
 4588SOL     OW14864   1.444   5.054   3.978 -0.1265  0.8278  0.4856
 4588SOL    HW114865   1.532   5.063   3.943  1.0433 -2.6702  2.0253
 4588SOL    HW214866   1.444   5.104   4.059  0.0525  1.6718 -0.0231
 4589SOL     OW14867   8.850   8.948   4.139  0.2756 -0.0213 -0.2807
 4589SOL    HW114868   8.805   9.001   4.205  0.5897 -0.3533  0.2009
 4589SOL    HW214869   8.935   8.991   4.128  0.4850 -0.3571  0.0244
 4590SOL     OW14870   2.679   7.946   8.915  0.4658  0.4598 -0.3118
 4590SOL    HW114871   2.650   7.904   8.834 -0.4724  2.5285 -1.1276
 4590SOL    HW214872   2.598   7.978   8.955  1.0401  0.5273  0.8216
 4591SOL     OW14873   8.016   0.698   8.235 -0.2241  0.0322  0.3023
 4591SOL    HW114874   7.969   0.759   8.292 -0.3297  0.2382  0.0009
 4591SOL    HW214875   7.979   0.715   8.148 -1.6374 -1.7829  0.4913
 4592SOL     OW14876   2.324   4.898   3.740 -0.2510  0.0217 -0.0503
 4592SOL    HW114877   2.347   4.989   3.720  0.5393  0.3286  2.0084
 4592SOL    HW214878   2.407   4.851   3.732 -0.6165 -0.5151 -0.8903
 4593SOL     OW14879   1.378   2.826   1.785  0.0174 -0.7172 -0.4720
 4593SOL    HW114880   1.460   2.815   1.833  0.3000 -1.7305 -1.1686
 4593SOL    HW214881   1.393   2.784   1.701 -0.7835  0.2273 -1.1144
 4594SOL     OW14882   3.443   5.289   6.435  0.3435  0.4147  0.3103
 4594SOL    HW114883   3.409   5.233   6.364 -0.5473 -0.2807  1.2480
 4594SOL    HW214884   3.490   5.358   6.390  0.1611 -0.2463 -0.9554
 4595SOL     OW14885   8.085   9.074   3.178  0.4182  0.1432 -0.3205
 4595SOL    HW114886   8.163   9.127   3.164 -0.9381  2.6174  0.9744
 4595SOL    HW214887   8.015   9.123   3.137 -0.8161 -0.9689  0.3835
 4596SOL     OW14888   4.279   7.537   6.753  0.4141  0.2480  0.3447
 4596SOL    HW114889   4.223   7.591   6.696  0.3360  1.2474  1.3283
 4596SOL    HW214890   4.241   7.548   6.840  0.1557 -1.7645  0.5195
 4597SOL     OW14891   3.481   3.316   4.671 -0.1598  0.1217 -0.3680
 4597SOL    HW114892   3.483   3.229   4.631  2.0902  0.1882 -0.4857
 4597SOL    HW214893   3.514   3.302   4.760 -1.8916  0.5459  0.3900
 4598SOL     OW14894   6.891   2.998   8.910  0.1915  0.9538  0.0804
 4598SOL    HW114895   6.823   2.933   8.894  0.2933  0.6460  0.8598
 4598SOL    HW214896   6.872   3.032   8.997  2.1871 -0.5895  1.2087
 4599SOL     OW14897   6.122   0.611   6.305 -0.1356 -0.0496 -0.0126
 4599SOL    HW114898   6.048   0.646   6.255  0.7482  0.9530 -0.6803
 4599SOL    HW214899   6.194   0.607   6.241  0.6223 -0.1629  0.8258
 4600SOL     OW14900   7.086   5.891   8.101 -0.0371 -0.0768  0.3650
 4600SOL    HW114901   7.109   5.823   8.037  1.0274 -0.2865  0.9541
 4600SOL    HW214902   7.170   5.924   8.132 -0.5275 -0.1173  1.8041
 4601SOL     OW14903   6.913   6.582   0.593  0.2619 -0.4802 -0.4106
 4601SOL    HW114904   6.893   6.580   0.500  0.6930  0.8352 -0.5420
 4601SOL    HW214905   7.002   6.546   0.600  0.7015  0.5222 -0.6576
 4602SOL     OW14906   2.514   2.663   7.956  0.2598 -0.0253 -0.1344
 4602SOL    HW114907   2.438   2.605   7.958 -0.9355  1.4927  0.1748
 4602SOL    HW214908   2.560   2.640   7.876 -0.3603 -1.1551 -0.1871
 4603SOL     OW14909   0.321   5.475   8.722 -0.2388  0.0239  0.6971
 4603SOL    HW114910   0.273   5.410   8.773  0.7092 -0.0741  1.4967
 4603SOL    HW214911   0.402   5.489   8.772 -0.6503  2.2092  0.8510
 4604SOL     OW14912   7.096   0.223   5.631 -0.9505 -0.3596 -0.1824
 4604SOL    HW114913   7.068   0.197   5.544 -0.0134 -0.2341 -0.5340
 4604SOL    HW214914   7.039   0.174   5.691 -2.6604  0.7473 -0.8468
 4605SOL     OW14915   1.658   6.210   1.916 -0.2554 -0.0166  0.2805
 4605SOL    HW114916   1.632   6.294   1.880 -1.7128 -0.0230  1.2395
 4605SOL    HW214917   1.750   6.200   1.890 -0.4855  1.1659 -1.1007
 4606SOL     OW14918   8.821   1.473   9.120 -0.6211  0.1834 -0.6079
 4606SOL    HW114919   8.913   1.496   9.108 -0.0928 -1.5971 -0.2864
 4606SOL    HW214920   8.776   1.557   9.131  1.0669  1.0479  0.0335
 4607SOL     OW14921   6.999   8.010   3.980  0.0075  0.4517 -0.4699
 4607SOL    HW114922   6.904   8.022   3.974 -0.0066  0.0673 -1.0693
 4607SOL    HW214923   7.036   8.071   3.917  0.2521  1.6855  0.8179
 4608SOL     OW14924   6.911   7.038   1.984 -0.3517  0.3293  0.5233
 4608SOL    HW114925   6.997   7.071   1.959 -0.1048 -0.1717  0.7078
 4608SOL    HW214926   6.877   6.998   1.904 -0.0390 -0.2580  0.6769
 4609SOL     OW14927   2.396   2.408   1.788 -0.3661 -0.5283 -0.2985
 4609SOL    HW114928   2.437   2.435   1.706  1.6058 -2.5388 -0.0890
 4609SOL    HW214929   2.430   2.469   1.854 -0.4359 -0.0786 -0.6791
 4610SOL     OW14930   4.704   1.545   2.249  0.5473 -0.1873 -0.0182
 4610SOL    HW114931   4.637   1.598   2.292 -0.7952 -1.3075 -0.6671
 4610SOL    HW214932   4.724   1.475   2.311 -1.1769 -1.6338 -1.0043
 4611SOL     OW14933   3.486   3.777   4.128  0.1508  0.6127 -0.2105
 4611SOL    HW114934   3.513   3.741   4.213 -0.4976  0.7353  0.0532
 4611SOL    HW214935   3.546   3.850   4.113  1.0498 -0.1503 -0.4394
 4612SOL     OW14936   4.976   5.367   6.248  0.6200 -0.3401  0.2928
 4612SOL    HW114937   5.012   5.354   6.160 -0.8036 -0.4434 -0.3059
 4612SOL    HW214938   4.963   5.462   6.254 -1.4461 -0.5189 -0.5517
 4613SOL     OW14939   7.388   8.970   6.274  0.3652  0.6958  0.1066
 4613SOL    HW114940   7.396   9.006   6.186  1.0347  0.2930 -0.0009
 4613SOL    HW214941   7.299   8.935   6.278 -0.3084  2.3180  0.2066
 4614SOL     OW14942   1.530   2.582   5.009 -0.1998 -0.4144  0.2017
 4614SOL    HW114943   1.618   2.554   4.985  1.5227  3.5493  0.9693
 4614SOL    HW214944   1.489   2.605   4.926  0.2279 -0.4596 -0.0260
 4615SOL     OW14945   0.678   1.840   5.558  0.0808 -0.3358  0.1495
 4615SOL    HW114946   0.693   1.808   5.469 -0.9888 -1.5543  0.3744
 4615SOL    HW214947   0.729   1.781   5.613 -0.5058 -0.5667  0.4495
 4616SOL     OW14948   1.081   0.002   7.928  0.4531 -0.4426 -0.2969
 4616SOL    HW114949   1.126  -0.018   8.011  0.2122  0.2622  0.0070
 4616SOL    HW214950   1.069   0.096   7.929 -0.9507 -0.5993 -0.4191
 4617SOL     OW14951   7.840   7.807   5.985  0.0206  0.1394  0.6108
 4617SOL    HW114952   7.766   7.787   6.042  1.4340 -0.8670  2.1600
 4617SOL    HW214953   7.891   7.872   6.033  0.3638  0.5593 -0.2842
 4618SOL     OW14954   2.230   0.704   6.020 -0.0850 -0.2430 -0.3060
 4618SOL    HW114955   2.158   0.760   5.991  0.3046 -0.1826 -1.1940
 4618SOL    HW214956   2.309   0.747   5.986  0.2233 -1.3269 -0.9997
 4619SOL     OW14957   1.159   3.541   7.868 -0.7139  0.3403 -0.3945
 4619SOL    HW114958   1.101   3.465   7.870 -0.4635  0.1644  0.5895
 4619SOL    HW214959   1.170   3.560   7.775  1.1347 -2.2640 -0.7961
 4620SOL     OW14960   7.217   3.489   6.503  0.1449  0.3288  0.5206
 4620SOL    HW114961   7.162   3.422   6.461 -0.5161  1.7113 -0.9455
 4620SOL    HW214962   7.298   3.489   6.453  0.2389  0.4393  0.6715
 4621SOL     OW14963   1.813   5.979   1.061  0.4214 -0.0137  0.7476
 4621SOL    HW114964   1.794   5.887   1.079  1.9598 -0.0383  2.5805
 4621SOL    HW214965   1.728   6.022   1.061 -0.2789 -1.3575  0.2527
 4622SOL     OW14966   3.000   4.979   0.691 -0.2001 -0.2138 -0.5346
 4622SOL    HW114967   3.092   4.952   0.682  0.5204  2.3661 -1.9413
 4622SOL    HW214968   2.994   5.060   0.641 -2.7914  0.7640  1.1476
 4623SOL     OW14969   3.999   6.112   1.235 -0.2504  0.2696  0.3497
 4623SOL    HW114970   4.071   6.062   1.197 -0.4823 -0.2200  0.5481
 4623SOL    HW214971   4.039   6.195   1.262  0.5762 -0.5622  1.8060
 4624SOL     OW14972   3.437   8.094   3.192  0.2875 -0.2597  0.7539
 4624SOL    HW114973   3.388   8.031   3.246  0.2653 -0.4848  0.4721
 4624SOL    HW214974   3.486   8.039   3.131 -0.6333  0.0189 -0.2785
 4625SOL     OW14975   7.121   0.983   7.930 -0.7615  0.1571  0.1502
 4625SOL    HW114976   7.085   1.070   7.912  2.3532  1.2046 -2.0968
 4625SOL    HW214977   7.130   0.943   7.843  2.4178 -0.3040  0.5669
 4626SOL     OW14978   7.367   2.824   5.904  0.5766 -0.0156 -0.5858
 4626SOL    HW114979   7.316   2.818   5.823 -2.1583  2.2873  0.7776
 4626SOL    HW214980   7.445   2.874   5.880 -1.2144  2.5621 -1.5248
 4627SOL     OW14981   2.128   3.372   8.693  0.3475 -0.1316  0.1172
 4627SOL    HW114982   2.175   3.454   8.707 -0.9086  0.7614 -0.5920
 4627SOL    HW214983   2.126   3.362   8.597 -0.3586 -0.4496  0.1566
 4628SOL     OW14984   8.718   0.551   1.496 -0.2837  0.1270 -0.3588
 4628SOL    HW114985   8.725   0.587   1.408 -1.0088 -0.9238 -0.8718
 4628SOL    HW214986   8.633   0.583   1.528 -0.4134 -0.1951 -0.3776
 4629SOL     OW14987   7.105   4.052   5.431  0.1407 -0.3302 -0.5923
 4629SOL    HW114988   7.133   4.115   5.498  4.0756 -0.0601 -2.2168
 4629SOL    HW214989   7.081   3.974   5.481 -0.1231  0.8285  1.2153
 4630SOL     OW14990   0.538   0.978   7.898  0.2885 -0.3134 -0.0066
 4630SOL    HW114991   0.526   0.962   7.805  0.6076  1.2500 -0.3431
 4630SOL    HW214992   0.614   1.036   7.903  0.8133 -1.0629  1.2957
 4631SOL     OW14993   7.492   7.544   5.356  0.1035 -0.5289 -0.0101
 4631SOL    HW114994   7.539   7.580   5.280  0.3416  0.3716  0.5431
 4631SOL    HW214995   7.557   7.546   5.426 -0.5203 -0.0220  0.5612
 4632SOL     OW14996   8.877   6.858   5.886  0.0486  0.3867  0.2079
 4632SOL    HW114997   8.938   6.804   5.835 -0.2659 -1.7616  1.8997
 4632SOL    HW214998   8.928   6.935   5.910  2.7824 -1.9042  2.6708
 4633SOL     OW14999   0.477   1.839   2.137  0.0439 -0.5321 -0.2886
 4633SOL    HW115000   0.512   1.929   2.138  0.6650 -0.7306 -1.6000
 4633SOL    HW215001   0.551   1.785   2.163 -0.0708 -0.7291 -0.3730
 4634SOL     OW15002   5.559   2.458   6.547  0.1481  0.3677 -0.6208
 4634SOL    HW115003   5.579   2.400   6.620 -0.4957 -0.2677 -0.9413
 4634SOL    HW215004   5.642   2.467   6.500  0.2247 -0.3889 -0.6402
 4635SOL     OW15005   4.388   1.916   1.810 -0.2476  0.4778 -0.0561
 4635SOL    HW115006   4.396   1.995   1.863 -2.1247 -0.6878  2.1333
 4635SOL    HW215007   4.467   1.915   1.756  0.3934  3.2059  0.6935
 4636SOL     OW15008   5.325   5.715   6.418  0.0794  0.4262  0.1860
 4636SOL    HW115009   5.302   5.738   6.329 -0.7689  0.9236  0.5229
 4636SOL    HW215010   5.290   5.627   6.431 -0.2908  0.5737  0.1997
 4637SOL     OW15011   4.185   6.203   5.808  0.2029  0.4289  0.0699
 4637SOL    HW115012   4.106   6.242   5.769 -0.8220 -0.7932  0.8613
 4637SOL    HW215013   4.175   6.109   5.794  1.9012  0.2972 -0.4677
 4638SOL     OW15014   1.597   1.537   0.704 -0.2154 -0.0373 -0.5836
 4638SOL    HW115015   1.539   1.461   0.701 -1.3029  0.7917 -2.2876
 4638SOL    HW215016   1.647   1.532   0.622 -1.0769  1.6055 -1.2681
 4639SOL     OW15017   2.270   5.574   7.979  0.4579  0.0710 -0.3528
 4639SOL    HW115018   2.341   5.538   7.926  1.7075 -0.1638  1.3793
 4639SOL    HW215019   2.197   5.513   7.967  0.7004  0.0368 -1.7705
 4640SOL     OW15020   7.814   1.818   7.961  0.2158  0.0091 -0.4853
 4640SOL    HW115021   7.762   1.740   7.980  0.4932  0.0911  0.6709
 4640SOL    HW215022   7.794   1.879   8.032  1.6107  0.1630 -0.1810
 4641SOL     OW15023   1.108   0.852   0.015  0.2867 -0.0035 -0.3374
 4641SOL    HW115024   1.039   0.820  -0.043  0.4400  0.0273 -0.5363
 4641SOL    HW215025   1.071   0.844   0.103  0.5979 -1.4347 -0.3103
 4642SOL     OW15026   7.572   0.850   0.708  0.1161 -0.3814 -0.1998
 4642SOL    HW115027   7.648   0.908   0.714  1.0728 -1.4904 -1.3535
 4642SOL    HW215028   7.501   0.907   0.677  0.2796  0.7817  1.4016
 4643SOL     OW15029   0.640   5.913   6.185 -0.0520  0.2211 -0.0768
 4643SOL    HW115030   0.685   5.990   6.149 -0.3697  0.0208 -0.9141
 4643SOL    HW215031   0.551   5.944   6.202 -0.5778 -0.3041 -1.7027
 4644SOL     OW15032   7.215   5.715   7.430 -0.0040  0.1927  0.2678
 4644SOL    HW115033   7.254   5.803   7.431 -0.9146  0.6169 -0.2320
 4644SOL    HW215034   7.139   5.722   7.488 -0.5927 -0.0107 -0.4604
 4645SOL     OW15035   1.492   8.940   7.927  0.1291 -0.0505 -0.0788
 4645SOL    HW115036   1.431   9.007   7.898 -0.7143 -0.1280  1.4152
 4645SOL    HW215037   1.557   8.987   7.978  0.1675 -0.2330  0.0418
 4646SOL     OW15038   8.036   1.726   8.362 -0.4544 -0.6477  0.8181
 4646SOL    HW115039   7.961   1.772   8.325 -0.1875 -0.7413  0.1425
 4646SOL    HW215040   8.005   1.636   8.373 -0.5164 -0.6339  0.7566
 4647SOL     OW15041   4.454   4.333   2.215  0.0466  0.1246 -0.0100
 4647SOL    HW115042   4.394   4.258   2.214  1.6436 -1.2437  1.2532
 4647SOL    HW215043   4.532   4.300   2.260  2.0076  1.6452 -2.1100
 4648SOL     OW15044   4.147   0.274   3.886  0.5790 -0.3718  0.2639
 4648SOL    HW115045   4.216   0.237   3.831  0.6215 -1.4863  1.0403
 4648SOL    HW215046   4.076   0.294   3.825  0.8182 -1.1115 -0.2764
 4649SOL     OW15047   1.617   7.513   5.131  0.4087 -0.0221 -0.6510
 4649SOL    HW115048   1.619   7.417   5.134  1.2428 -0.0052  2.5742
 4649SOL    HW215049   1.699   7.540   5.172 -0.1621  2.0942 -0.8068
 4650SOL     OW15050   8.189   9.043   2.538  0.8213  0.2543 -0.0955
 4650SOL    HW115051   8.098   9.040   2.508  0.0598  1.8657  1.8521
 4650SOL    HW215052   8.206   8.955   2.572 -1.1903  0.7535  2.5515
 4651SOL     OW15053   0.509   1.815   6.345  0.1396  0.0996  0.2752
 4651SOL    HW115054   0.493   1.815   6.250 -2.4805  0.2293  0.6419
 4651SOL    HW215055   0.546   1.902   6.362  1.3368 -0.1845 -0.6816
 4652SOL     OW15056   8.229   4.573   3.805  0.0200  0.0723 -0.1699
 4652SOL    HW115057   8.162   4.528   3.856  0.3440  2.0418  2.2097
 4652SOL    HW215058   8.257   4.645   3.862  2.5165  0.6891 -2.0281
 4653SOL     OW15059   5.378   3.227   0.994 -0.2082 -0.0461 -0.2547
 4653SOL    HW115060   5.353   3.315   1.022 -1.2380  0.1441 -1.6435
 4653SOL    HW215061   5.457   3.240   0.941  2.7775 -0.5846  3.6579
 4654SOL     OW15062   2.184   0.010   0.221  0.3880 -0.3386  0.0827
 4654SOL    HW115063   2.241  -0.059   0.184  0.3348 -0.8497  0.9352
 4654SOL    HW215064   2.095  -0.023   0.207  0.2061  0.8069 -1.9537
 4655SOL     OW15065   1.109   7.922   1.489  0.2294  0.4130 -0.2752
 4655SOL    HW115066   1.153   7.852   1.538  0.9107  1.4204  0.6145
 4655SOL    HW215067   1.151   7.922   1.403 -0.8600 -1.2713 -0.8492
 4656SOL     OW15068   4.086   4.416   2.590 -0.0865  0.0466  0.3751
 4656SOL    HW115069   3.992   4.399   2.578 -0.0284 -0.8172  1.0147
 4656SOL    HW215070   4.129   4.349   2.537  0.1762  0.7838 -0.3507
 4657SOL     OW15071   5.229   6.951   1.854  0.3622  0.0476  0.0601
 4657SOL    HW115072   5.311   6.919   1.817  1.4918  2.1345  0.5751
 4657SOL    HW215073   5.230   7.045   1.837 -0.3189  0.7015  2.9462
 4658SOL     OW15074   1.258   3.270   2.023  0.1906 -0.5123 -0.1920
 4658SOL    HW115075   1.169   3.298   2.046  0.4487 -0.6598  1.0301
 4658SOL    HW215076   1.270   3.188   2.070  1.0532 -0.3749 -0.1616
 4659SOL     OW15077   6.628   0.378   1.253  0.1059 -0.4161 -0.0143
 4659SOL    HW115078   6.546   0.424   1.272  0.1828  0.0427 -0.7733
 4659SOL    HW215079   6.661   0.352   1.340  0.4632  1.6653  0.5265
 4660SOL     OW15080   1.344   0.504   8.465 -0.1377  0.2462 -0.0664
 4660SOL    HW115081   1.436   0.497   8.488 -0.2916  1.1002  0.9327
 4660SOL    HW215082   1.343   0.524   8.372  0.5598 -2.4907 -0.7510
 4661SOL     OW15083   5.330   4.624   0.922  0.1984 -0.3288 -0.1706
 4661SOL    HW115084   5.286   4.554   0.971  1.2651  0.1366  1.5391
 4661SOL    HW215085   5.362   4.684   0.989 -1.3260  2.2542 -1.5972
 4662SOL     OW15086   8.588   0.114   3.275 -0.5135  0.0166 -0.1165
 4662SOL    HW115087   8.620   0.085   3.190 -2.2614  2.1630 -1.6152
 4662SOL    HW215088   8.613   0.206   3.280 -0.4985 -0.0488  1.7037
 4663SOL     OW15089   8.520   5.952   6.391 -0.4550  0.2562 -0.2024
 4663SOL    HW115090   8.460   5.878   6.397  0.5330 -0.4989  0.5295
 4663SOL    HW215091   8.605   5.917   6.416  0.1174  1.5390 -0.2722
 4664SOL     OW15092   4.558   3.355   2.204  0.5609 -0.5520 -0.1026
 4664SOL    HW115093   4.586   3.433   2.157  3.0558  0.2126  2.3396
 4664SOL    HW215094   4.619   3.287   2.174  1.4825 -0.3119  1.1313
 4665SOL     OW15095   8.376   6.951   2.863  0.1824 -0.0168 -0.2913
 4665SOL    HW115096   8.313   6.933   2.933  0.0027 -0.4904 -0.5661
 4665SOL    HW215097   8.325   6.996   2.796  0.5493  1.2264  0.2364
 4666SOL     OW15098   3.988   7.127   4.167  0.1599  0.0142 -0.4085
 4666SOL    HW115099   3.999   7.098   4.258 -0.9786  1.2194  0.1461
 4666SOL    HW215100   4.058   7.191   4.154 -0.9072  1.3958  0.3441
 4667SOL     OW15101   0.283   0.843   6.547  0.1921  0.1077  0.2978
 4667SOL    HW115102   0.238   0.838   6.462  0.4012  1.3830  0.0912
 4667SOL    HW215103   0.353   0.778   6.540 -0.5754 -0.7309  0.0037
 4668SOL     OW15104   0.547   6.991   2.890 -0.9070  0.1404  0.1386
 4668SOL    HW115105   0.529   7.083   2.907 -0.8829 -0.0354  1.1737
 4668SOL    HW215106   0.482   6.965   2.825 -1.1587  0.7845  0.1271
 4669SOL     OW15107   2.638   1.849   0.692  0.1977 -0.0176 -0.5335
 4669SOL    HW115108   2.616   1.782   0.627 -1.4845  0.2220 -0.2527
 4669SOL    HW215109   2.628   1.805   0.776 -3.0765  1.0451 -0.2293
 4670SOL     OW15110   8.176   1.498   6.236  0.5500  0.6128  0.6177
 4670SOL    HW115111   8.171   1.453   6.320  0.8724 -0.6891 -0.0341
 4670SOL    HW215112   8.107   1.564   6.240  1.5801  1.6824  2.5095
 4671SOL     OW15113   2.693   7.535   4.972 -0.1444 -0.0253 -0.3620
 4671SOL    HW115114   2.774   7.485   4.984  0.0723  0.3643 -0.1838
 4671SOL    HW215115   2.645   7.488   4.904 -0.3072 -0.9334  0.3542
 4672SOL     OW15116   6.619   7.378   0.407 -0.3561  0.1598  0.6374
 4672SOL    HW115117   6.696   7.422   0.444 -1.0052 -0.6079  3.0418
 4672SOL    HW215118   6.633   7.285   0.427 -0.8341 -0.2965 -0.9888
 4673SOL     OW15119   4.838   6.880   1.563 -0.2095 -0.4276  0.3182
 4673SOL    HW115120   4.849   6.901   1.470 -0.6354 -0.4734  0.2571
 4673SOL    HW215121   4.925   6.849   1.591 -0.2379 -1.0237 -0.2241
 4674SOL     OW15122   8.273   1.615   5.652 -0.7323 -0.1532 -0.1128
 4674SOL    HW115123   8.227   1.532   5.666  1.6149 -1.2638  2.0618
 4674SOL    HW215124   8.366   1.590   5.648  0.0035  2.3028 -0.2433
 4675SOL     OW15125   3.159   8.359   1.898 -0.2711 -0.3500 -0.4789
 4675SOL    HW115126   3.169   8.271   1.935  0.3957 -0.4491 -0.8692
 4675SOL    HW215127   3.247   8.383   1.870 -0.4590  0.4271 -0.4245
 4676SOL     OW15128   8.190   8.666   6.428  0.4497  0.7904 -0.6309
 4676SOL    HW115129   8.190   8.593   6.490 -1.4490  0.3702 -1.0334
 4676SOL    HW215130   8.114   8.648   6.372 -0.7126  3.5956 -0.1037
 4677SOL     OW15131   7.222   6.687   7.235  0.1890 -0.2065 -1.0067
 4677SOL    HW115132   7.170   6.739   7.296  0.1484 -1.9122  0.5054
 4677SOL    HW215133   7.166   6.612   7.214  2.5591 -3.3154  2.4200
 4678SOL     OW15134   3.835   0.749   3.041  0.0094 -0.6824  0.0836
 4678SOL    HW115135   3.859   0.820   3.101 -1.3617  1.4587 -1.7346
 4678SOL    HW215136   3.899   0.757   2.969 -0.4345 -0.9674 -0.3454
 4679SOL     OW15137   1.258   0.649   0.426 -0.1438 -0.1147 -0.2389
 4679SOL    HW115138   1.206   0.722   0.462  2.2668  1.0190  1.2432
 4679SOL    HW215139   1.320   0.628   0.496  1.4856 -1.2916 -1.9562
 4680SOL     OW15140   2.668   3.227   5.573 -0.0923  0.3383  0.5057
 4680SOL    HW115141   2.640   3.197   5.660  0.2794 -0.3303  0.4009
 4680SOL    HW215142   2.637   3.317   5.568 -0.2615  0.3320  1.2710
 4681SOL     OW15143   4.183   6.369   2.444 -0.5956  0.3223 -0.0532
 4681SOL    HW115144   4.130   6.294   2.474 -0.4554 -0.6162 -2.0101
 4681SOL    HW215145   4.263   6.329   2.410 -0.0836  1.4608 -0.2131
 4682SOL     OW15146   7.881   3.646   7.678 -0.5675  0.2372  0.0562
 4682SOL    HW115147   7.932   3.699   7.618 -0.2510 -1.3061 -1.1141
 4682SOL    HW215148   7.807   3.615   7.626 -0.8036 -0.3650  0.7225
 4683SOL     OW15149   3.883   5.498   4.388  0.6293 -0.2127 -0.1401
 4683SOL    HW115150   3.875   5.586   4.352  0.5602 -0.0566  0.2502
 4683SOL    HW215151   3.821   5.445   4.338 -0.0609  0.1703  0.2919
 4684SOL     OW15152   2.253   8.451   5.666  0.2886  0.3249 -0.6727
 4684SOL    HW115153   2.301   8.514   5.612  0.0426 -1.0382 -2.5848
 4684SOL    HW215154   2.281   8.366   5.634  1.4791 -0.6626  2.6013
 4685SOL     OW15155   3.366   4.062   4.046  0.0259  0.2857 -0.4210
 4685SOL    HW115156   3.337   3.974   4.073  0.8374  0.3629  0.8113
 4685SOL    HW215157   3.288   4.102   4.008  0.0770 -1.5697 -2.6761
 4686SOL     OW15158   7.359   3.341   2.804  0.0936  0.1854 -0.1849
 4686SOL    HW115159   7.445   3.333   2.846  0.1536 -0.2387 -0.3795
 4686SOL    HW215160   7.378   3.364   2.713  0.0875 -1.5797 -0.6655
 4687SOL     OW15161   7.649   0.753   1.670 -0.0948 -0.0665  0.4636
 4687SOL    HW115162   7.728   0.701   1.655 -0.5337 -0.4117 -0.6735
 4687SOL    HW215163   7.683   0.840   1.692  0.6129 -0.4456  0.9391
 4688SOL     OW15164   3.942   2.831   6.887 -0.0259  0.2911 -0.6598
 4688SOL    HW115165   3.911   2.899   6.946 -0.4916 -0.2591 -0.2537
 4688SOL    HW215166   3.933   2.868   6.799 -0.6206  0.6147 -0.4664
 4689SOL     OW15167   0.313   1.089   8.238 -0.0805 -0.2589 -0.0533
 4689SOL    HW115168   0.332   1.003   8.275  1.4325  0.1982  0.2857
 4689SOL    HW215169   0.224   1.081   8.204 -0.7804 -1.3213  1.8638
 4690SOL     OW15170   5.379   1.012   5.573 -0.1555 -0.5368 -0.2475
 4690SOL    HW115171   5.324   0.934   5.574  1.3318 -1.6101  1.0433
 4690SOL    HW215172   5.359   1.054   5.489 -1.0148 -2.2693 -0.9578
 4691SOL     OW15173   1.289   1.130   3.202 -0.4431  0.2773 -0.7793
 4691SOL    HW115174   1.195   1.122   3.188 -0.5398 -0.1162  0.0766
 4691SOL    HW215175   1.304   1.094   3.289  0.6908 -1.0153 -1.4747
 4692SOL     OW15176   7.623   5.206   6.354 -0.4229  0.0033  0.1384
 4692SOL    HW115177   7.538   5.231   6.389  0.0472 -0.5632  1.7913
 4692SOL    HW215178   7.658   5.286   6.315 -1.7056  0.2275 -0.5971
 4693SOL     OW15179   6.293   7.269   6.119  0.2157 -0.4108 -0.0831
 4693SOL    HW115180   6.239   7.345   6.099 -1.0984 -1.2585  0.1137
 4693SOL    HW215181   6.378   7.305   6.145  0.0041  0.9249 -1.1417
 4694SOL     OW15182   3.030   2.526   6.756 -0.1095  0.1310 -0.0463
 4694SOL    HW115183   2.965   2.527   6.826 -1.1344  1.0825 -0.9775
 4694SOL    HW215184   2.979   2.520   6.675  0.9728  0.4505 -0.7881
 4695SOL     OW15185   2.223   4.144   1.797 -0.0586  0.4471 -0.1927
 4695SOL    HW115186   2.244   4.237   1.800  0.5368  0.2917  1.1231
 4695SOL    HW215187   2.144   4.135   1.850  1.0672 -0.0592  1.4679
 4696SOL     OW15188   0.116   1.370   3.885 -0.0202 -0.4571  0.6179
 4696SOL    HW115189   0.038   1.413   3.850  2.1369  2.4053 -1.1631
 4696SOL    HW215190   0.084   1.319   3.960 -3.4437  1.1151  0.4279
 4697SOL     OW15191   4.741   5.504   1.493 -0.6760  0.0732  0.8154
 4697SOL    HW115192   4.775   5.530   1.579  0.0655  0.8071  0.3187
 4697SOL    HW215193   4.712   5.586   1.454 -1.4579 -0.3233  0.5489
 4698SOL     OW15194   6.665   2.259   1.648  0.0165 -0.4133 -0.9243
 4698SOL    HW115195   6.657   2.170   1.682  1.5500  0.0009  0.7109
 4698SOL    HW215196   6.602   2.310   1.699 -0.0659 -0.3725 -1.0671
 4699SOL     OW15197   2.555   8.580   3.391 -0.1848  0.6249 -0.0443
 4699SOL    HW115198   2.538   8.609   3.480 -1.2103  1.2546 -0.4345
 4699SOL    HW215199   2.544   8.658   3.337 -0.3287  0.0936 -0.8035
 4700SOL     OW15200   4.868   4.265   5.088 -0.2394 -0.1808  0.2952
 4700SOL    HW115201   4.792   4.321   5.108  0.6281  1.0473  0.2318
 4700SOL    HW215202   4.903   4.240   5.174 -0.8827 -1.0250  0.3311
 4701SOL     OW15203   6.964   4.093   4.502 -0.3642 -0.1757  0.5086
 4701SOL    HW115204   6.898   4.159   4.480  0.0977 -0.6736 -2.9382
 4701SOL    HW215205   7.048   4.136   4.483  0.0076 -1.2034 -0.2927
 4702SOL     OW15206   1.268   4.159   8.088  0.0680 -0.0593  0.3909
 4702SOL    HW115207   1.194   4.130   8.142  0.5278 -0.8979  0.6060
 4702SOL    HW215208   1.344   4.144   8.144  0.6207 -1.5691 -0.6998
 4703SOL     OW15209   8.520   1.464   3.866  0.2885  0.2997  0.2404
 4703SOL    HW115210   8.595   1.504   3.821 -1.5211  0.5866 -2.8407
 4703SOL    HW215211   8.488   1.533   3.924  0.0448  1.7373 -1.4776
 4704SOL     OW15212   0.962   4.393   6.189 -0.4907 -0.3333 -0.4170
 4704SOL    HW115213   0.876   4.430   6.208 -0.8687 -0.9518 -0.9022
 4704SOL    HW215214   0.980   4.337   6.265 -0.7871 -0.6785 -0.5993
 4705SOL     OW15215   2.930   8.832   0.250  0.4825  0.1829  0.2748
 4705SOL    HW115216   2.956   8.839   0.342  2.5393  0.5870 -0.2752
 4705SOL    HW215217   3.013   8.827   0.203 -0.3660  3.4630 -1.8548
 4706SOL     OW15218   7.115   6.088   3.204 -0.3681  0.1110 -0.1115
 4706SOL    HW115219   7.209   6.073   3.214 -0.4919  0.1679  1.3149
 4706SOL    HW215220   7.078   6.000   3.198  0.0774 -0.0363 -4.9775
 4707SOL     OW15221   7.236   6.186   9.080 -0.1470 -0.0343 -0.0407
 4707SOL    HW115222   7.253   6.242   9.005  0.4275 -0.2105 -0.0442
 4707SOL    HW215223   7.246   6.097   9.047  1.0694 -0.0944  0.4637
 4708SOL     OW15224   2.174   1.128   0.093 -0.1768  0.3638 -0.3129
 4708SOL    HW115225   2.130   1.044   0.100 -1.3665  0.9914  0.0139
 4708SOL    HW215226   2.267   1.108   0.104 -0.5269 -0.7842  0.6730
 4709SOL     OW15227   0.372   4.316   8.576 -0.5222 -0.5210 -0.8383
 4709SOL    HW115228   0.414   4.395   8.544  0.0166 -0.8525 -0.9570
 4709SOL    HW215229   0.278   4.330   8.559 -0.5648  0.5967  0.2587
 4710SOL     OW15230   0.273   6.527   7.893  0.2276  0.0547  0.3227
 4710SOL    HW115231   0.301   6.584   7.965  1.4468  0.7797 -0.6805
 4710SOL    HW215232   0.204   6.576   7.849 -0.1634 -0.1672  0.6767
 4711SOL     OW15233   3.703   8.238   7.802  0.1353 -0.5103 -0.3579
 4711SOL    HW115234   3.618   8.196   7.783 -0.4097  0.6738 -0.6392
 4711SOL    HW215235   3.748   8.238   7.718  0.5497 -1.3881 -0.1511
 4712SOL     OW15236   4.532   9.101   7.476 -0.0237  0.3647  0.1482
 4712SOL    HW115237   4.471   9.040   7.434  0.8183 -2.3708  2.5151
 4712SOL    HW215238   4.617   9.082   7.436  0.3849 -0.7119  1.4299
 4713SOL     OW15239   7.458   3.383   8.225  0.0380  0.0484  0.2906
 4713SOL    HW115240   7.380   3.425   8.260 -0.3472 -0.3879 -0.0202
 4713SOL    HW215241   7.467   3.418   8.136 -0.5570 -0.8423 -0.1440
 4714SOL     OW15242   7.078   1.311   0.881 -0.1657 -0.3479 -0.1500
 4714SOL    HW115243   7.107   1.361   0.805  0.7849  0.2339  0.5814
 4714SOL    HW215244   7.005   1.362   0.916 -1.1943 -1.0684 -1.1478
 4715SOL     OW15245   4.083   0.920   5.337 -0.2550  0.4840 -0.1473
 4715SOL    HW115246   4.117   0.882   5.418  0.9557 -1.1927 -1.4003
 4715SOL    HW215247   4.154   0.975   5.304 -0.5477  0.7387 -0.3705
 4716SOL     OW15248   3.661   7.512   5.716 -0.2937 -0.0914 -0.1729
 4716SOL    HW115249   3.716   7.488   5.642 -0.9808  1.0585 -1.1010
 4716SOL    HW215250   3.597   7.441   5.723 -1.8533  0.9509 -2.4170
 4717SOL     OW15251   6.435   0.138   1.628 -0.1138  0.3916 -0.2891
 4717SOL    HW115252   6.431   0.230   1.602  1.2748  0.5334 -0.0741
 4717SOL    HW215253   6.424   0.089   1.547  1.1828  0.7966 -0.7336
 4718SOL     OW15254   2.882   1.626   0.572 -0.3094  0.2649 -0.0240
 4718SOL    HW115255   2.965   1.589   0.542 -0.3750 -0.1707  0.3220
 4718SOL    HW215256   2.885   1.619   0.668 -0.3928  1.0104  0.0364
 4719SOL     OW15257   8.211   4.777   2.686 -0.1980 -0.4142  0.9856
 4719SOL    HW115258   8.201   4.682   2.691  0.0698 -0.4451  0.9840
 4719SOL    HW215259   8.300   4.789   2.654 -0.1116 -0.1553  1.3197
 4720SOL     OW15260   1.606   8.627   7.104 -0.2161 -0.1331  0.0633
 4720SOL    HW115261   1.619   8.579   7.187  1.7037  1.3879  0.7062
 4720SOL    HW215262   1.574   8.713   7.131 -1.7919 -0.3546 -0.9687
 4721SOL     OW15263   5.142   7.310   9.084 -0.2905 -0.0235  0.3489
 4721SOL    HW115264   5.225   7.332   9.042 -1.1501  1.9627 -0.4249
 4721SOL    HW215265   5.146   7.351   9.170 -1.3069  2.1057 -0.5421
 4722SOL     OW15266   9.079   9.018   5.580 -0.0949 -0.2437  0.1998
 4722SOL    HW115267   9.047   9.092   5.529  2.9189  0.6569 -0.6008
 4722SOL    HW215268   9.166   9.045   5.610  0.6104 -2.9738  0.9559
 4723SOL     OW15269   2.281   0.906   7.005 -0.3488 -0.3275 -0.1871
 4723SOL    HW115270   2.247   0.886   6.918 -0.1333  3.1785 -1.2473
 4723SOL    HW215271   2.376   0.901   6.996 -0.1836  2.4357 -1.0137
 4724SOL     OW15272   0.294   5.910   2.585  0.5104 -0.3036 -0.4396
 4724SOL    HW115273   0.312   5.956   2.502  0.1580  0.9520  0.1532
 4724SOL    HW215274   0.253   5.828   2.558  2.2247 -0.8366 -1.5868
 4725SOL     OW15275   7.250   0.431   3.199 -0.0047  0.2205 -0.4528
 4725SOL    HW115276   7.306   0.508   3.191 -0.5461  1.0057  2.1763
 4725SOL    HW215277   7.310   0.359   3.217  0.3090  0.9762  1.8857
 4726SOL     OW15278   8.418   5.466   7.258  0.1728  0.5073 -0.0921
 4726SOL    HW115279   8.495   5.512   7.291  0.9461 -1.1218  0.4452
 4726SOL    HW215280   8.447   5.424   7.177 -0.1579 -0.0501  0.0697
 4727SOL     OW15281   4.613   3.752   3.244  0.2203  0.0990  0.2281
 4727SOL    HW115282   4.542   3.698   3.278 -1.5886  1.4058 -1.3236
 4727SOL    HW215283   4.646   3.703   3.169 -1.5630  1.1548 -1.3116
 4728SOL     OW15284   6.926   7.809   4.622 -0.2613 -0.2171 -0.0362
 4728SOL    HW115285   6.942   7.722   4.586 -0.1123  0.5105 -1.8219
 4728SOL    HW215286   6.915   7.865   4.546 -1.4416  1.1543  1.0700
 4729SOL     OW15287   7.460   5.742   2.338 -0.0835 -0.4672  0.0654
 4729SOL    HW115288   7.452   5.837   2.335  0.4557 -0.4211 -0.1005
 4729SOL    HW215289   7.438   5.712   2.250 -1.2841 -0.5914  0.3951
 4730SOL     OW15290   1.243   2.808   8.404 -0.6084 -0.3305 -0.2377
 4730SOL    HW115291   1.184   2.738   8.432 -1.1263  0.2198  0.0641
 4730SOL    HW215292   1.188   2.887   8.403  0.3276  0.3655  0.9338
 4731SOL     OW15293   7.104   5.519   8.971 -0.4884  0.5197 -0.6439
 4731SOL    HW115294   7.035   5.456   8.948 -0.9057  0.9044 -0.4641
 4731SOL    HW215295   7.167   5.512   8.900  0.6855 -1.8070  0.4997
 4732SOL     OW15296   0.953   0.167   1.697  0.3053 -0.1967  0.1166
 4732SOL    HW115297   0.901   0.230   1.746  0.2208 -0.6836  0.6585
 4732SOL    HW215298   1.020   0.138   1.758 -0.3659 -1.5104  0.2772
 4733SOL     OW15299   5.346   6.827   0.280 -0.5178 -0.4579 -0.1782
 4733SOL    HW115300   5.402   6.795   0.209 -0.9437 -0.5235 -0.4846
 4733SOL    HW215301   5.267   6.859   0.236 -0.7614 -0.4500  0.2632
 4734SOL     OW15302   1.082   3.392   6.784  0.3747 -0.3693  0.1482
 4734SOL    HW115303   1.116   3.466   6.734  1.7131 -2.5632 -2.4733
 4734SOL    HW215304   0.992   3.416   6.805  0.3231  1.4591 -1.8294
 4735SOL     OW15305   8.517   8.676   0.639  0.0417  0.1538  0.4510
 4735SOL    HW115306   8.499   8.765   0.670  0.1941  1.0283 -1.7507
 4735SOL    HW215307   8.536   8.687   0.546 -0.8850 -2.3145 -0.1021
 4736SOL     OW15308   7.882   6.324   0.173 -0.7144 -0.3915  0.0494
 4736SOL    HW115309   7.870   6.385   0.101 -1.5273 -0.4110  0.1587
 4736SOL    HW215310   7.817   6.351   0.238 -0.8623 -1.1628  0.2338
 4737SOL     OW15311   4.640   0.735   7.759  0.1740 -0.5060 -0.1272
 4737SOL    HW115312   4.616   0.704   7.846 -2.3347 -0.6167 -0.7766
 4737SOL    HW215313   4.611   0.826   7.758 -1.0977 -0.9010 -1.2713
 4738SOL     OW15314   6.566   0.827   8.186 -0.3082 -0.0974  0.7133
 4738SOL    HW115315   6.612   0.756   8.141  0.2009  0.9666 -0.4775
 4738SOL    HW215316   6.629   0.859   8.251  0.0747  0.3490  0.1255
 4739SOL     OW15317   4.158   4.939   4.655 -0.0691 -0.2761  0.4315
 4739SOL    HW115318   4.103   4.976   4.586  0.7225 -0.1376 -0.1380
 4739SOL    HW215319   4.246   4.970   4.635  0.3131 -0.9622  0.9971
 4740SOL     OW15320   5.683   6.272   4.822 -0.3359 -0.0741 -0.3944
 4740SOL    HW115321   5.692   6.248   4.915 -0.3336  2.0401  0.1992
 4740SOL    HW215322   5.729   6.355   4.815  0.0894 -0.4501 -2.4329
 4741SOL     OW15323   0.385   9.106   2.861  0.1792  0.0557 -0.6367
 4741SOL    HW115324   0.314   9.051   2.828 -0.8497 -0.2390  1.8374
 4741SOL    HW215325   0.395   9.175   2.795 -1.5458 -0.6235 -1.6670
 4742SOL     OW15326   3.049   2.548   8.052 -0.2775 -0.2207  0.3448
 4742SOL    HW115327   3.130   2.594   8.076 -0.1435 -1.1049  1.6310
 4742SOL    HW215328   3.003   2.610   7.994  1.7092 -0.0630 -1.1624
 4743SOL     OW15329   0.705   1.852   7.551 -0.1814 -0.2187 -0.1577
 4743SOL    HW115330   0.730   1.894   7.469 -1.4389 -2.2291 -1.6878
 4743SOL    HW215331   0.762   1.776   7.558 -1.3107 -1.1108 -0.2057
 4744SOL     OW15332   7.006   6.597   6.596 -0.1521 -0.4293  0.4884
 4744SOL    HW115333   7.057   6.535   6.649  0.4849  0.0801  0.4777
 4744SOL    HW215334   7.039   6.585   6.507  0.5637  0.5053  0.6134
 4745SOL     OW15335   6.158   5.476   7.513  0.4261 -0.1526  0.7288
 4745SOL    HW115336   6.117   5.522   7.440  0.6858 -0.4430  0.3944
 4745SOL    HW215337   6.239   5.441   7.476 -1.1371 -3.5268  0.0354
 4746SOL     OW15338   4.046   7.722   4.533 -0.0752  0.3333  0.6992
 4746SOL    HW115339   3.983   7.772   4.482  0.9365  1.4685  0.5292
 4746SOL    HW215340   4.126   7.722   4.480 -0.1395 -1.8521  0.4831
 4747SOL     OW15341   8.386   3.081   4.146  0.0570  0.8179  0.1386
 4747SOL    HW115342   8.401   3.090   4.240 -0.0120 -0.1099  0.2485
 4747SOL    HW215343   8.356   3.167   4.118  2.9189  2.0421  0.4159
 4748SOL     OW15344   0.576   4.301   0.707 -0.1795 -0.6941  0.5570
 4748SOL    HW115345   0.613   4.231   0.761 -1.0213 -1.2441  0.4287
 4748SOL    HW215346   0.482   4.297   0.723 -0.1618  1.0231  1.2689
 4749SOL     OW15347   1.948   5.704   5.988  0.3123  0.1782  0.2715
 4749SOL    HW115348   1.874   5.657   5.949 -0.5539  0.9871  0.8775
 4749SOL    HW215349   1.939   5.794   5.956  0.7608  0.3876  0.7112
 4750SOL     OW15350   5.761   0.947   1.928  0.1717  0.2047 -0.3005
 4750SOL    HW115351   5.780   0.858   1.958 -1.0219  0.2453  0.6481
 4750SOL    HW215352   5.841   0.975   1.883  1.5147 -0.3835  1.6206
 4751SOL     OW15353   3.533   0.318   2.297 -0.2993 -0.5222 -0.0164
 4751SOL    HW115354   3.466   0.331   2.230 -0.9615 -2.1753  0.2811
 4751SOL    HW215355   3.494   0.353   2.377 -0.8808 -1.5954  0.1831
 4752SOL     OW15356   6.915   1.159   6.380 -0.1165  0.2768  0.4446
 4752SOL    HW115357   6.940   1.107   6.457  2.1028  0.3739 -0.1457
 4752SOL    HW215358   6.997   1.196   6.348 -0.9461  0.1623 -2.0390
 4753SOL     OW15359   4.875   0.150   5.320  0.3766 -0.2484  0.4755
 4753SOL    HW115360   4.807   0.114   5.263  1.1815 -0.4152 -0.4065
 4753SOL    HW215361   4.846   0.239   5.339  0.3971  0.0295 -0.7272
 4754SOL     OW15362   2.008   5.295   4.098  0.2701 -0.2017  0.2381
 4754SOL    HW115363   2.026   5.202   4.108  1.7201 -0.0074 -0.2955
 4754SOL    HW215364   1.969   5.302   4.011 -0.8767 -0.4268  0.7205
 4755SOL     OW15365   4.219   3.586   5.165 -0.5980  0.3930 -0.0357
 4755SOL    HW115366   4.157   3.527   5.208  0.2017  0.6386  1.5129
 4755SOL    HW215367   4.264   3.631   5.236  0.5224  1.1088 -1.1421
 4756SOL     OW15368   7.899   4.522   0.565 -0.0723  0.3816 -0.0614
 4756SOL    HW115369   7.842   4.448   0.586 -0.2325  0.9304  1.5961
 4756SOL    HW215370   7.933   4.502   0.478 -1.1140 -1.0022 -0.1886
 4757SOL     OW15371   7.139   3.975   3.277  0.0979 -0.1902  0.8782
 4757SOL    HW115372   7.138   4.031   3.355 -3.6371  0.5478  0.5022
 4757SOL    HW215373   7.229   3.980   3.246  1.1636  1.4374  3.7649
 4758SOL     OW15374   0.090   3.137   7.858  0.3857  0.1215 -0.1929
 4758SOL    HW115375   0.061   3.111   7.771 -0.4101 -1.3549  0.4744
 4758SOL    HW215376   0.011   3.134   7.912  1.3186 -1.7580  1.1739
 4759SOL     OW15377   5.624   1.322   5.450  0.0086 -0.0094  0.3283
 4759SOL    HW115378   5.603   1.313   5.543  1.0464 -1.7628  0.4378
 4759SOL    HW215379   5.548   1.285   5.404  0.1552 -0.5939  0.5425
 4760SOL     OW15380   8.710   8.132   5.913 -0.1080 -0.3671 -0.0575
 4760SOL    HW115381   8.713   8.103   5.822 -0.5623  0.2047 -0.2684
 4760SOL    HW215382   8.626   8.100   5.945  0.4185 -1.2907  0.4235
 4761SOL     OW15383   3.324   4.811   3.498  0.8120  0.0537  0.2598
 4761SOL    HW115384   3.255   4.835   3.435 -0.2028 -0.4802  1.1507
 4761SOL    HW215385   3.306   4.720   3.520  1.7047 -0.0369  0.6519
 4762SOL     OW15386   5.913   1.355   5.027  0.3906  0.1180  0.0339
 4762SOL    HW115387   5.830   1.398   5.044  0.1750  0.2787 -1.2830
 4762SOL    HW215388   5.926   1.296   5.101 -1.0946 -0.2020  0.0670
 4763SOL     OW15389   5.172   4.488   5.113  0.0776  0.0673  0.3879
 4763SOL    HW115390   5.187   4.569   5.064  0.7253  0.2893  0.9449
 4763SOL    HW215391   5.077   4.477   5.112  0.0730  0.0211 -0.9906
 4764SOL     OW15392   2.741   3.308   9.002  0.2500 -0.1704 -0.7550
 4764SOL    HW115393   2.787   3.391   9.016  2.1040 -1.4625  1.5253
 4764SOL    HW215394   2.801   3.257   8.947 -1.2155  0.1769 -2.7951
 4765SOL     OW15395   0.915   1.377   0.478 -0.0436  0.2096 -0.0227
 4765SOL    HW115396   0.903   1.403   0.387 -1.8205  0.1106  0.1476
 4765SOL    HW215397   0.853   1.431   0.527 -1.3806 -1.8620  0.7327
 4766SOL     OW15398   3.759   0.096   7.230  0.0353 -0.3195 -0.4780
 4766SOL    HW115399   3.682   0.125   7.279  0.2549  1.6155 -1.1967
 4766SOL    HW215400   3.826   0.080   7.297  0.3057  2.1903 -0.0643
 4767SOL     OW15401   8.529   7.006   8.310 -0.4167 -0.5640  0.4372
 4767SOL    HW115402   8.589   6.935   8.290 -0.6692 -0.8604  0.7154
 4767SOL    HW215403   8.481   6.976   8.387 -0.6011 -0.1377  0.4920
 4768SOL     OW15404   2.962   3.433   4.338 -0.1056  0.5339  0.1811
 4768SOL    HW115405   3.045   3.443   4.383 -0.7085  1.0168  1.2309
 4768SOL    HW215406   2.976   3.362   4.275  0.7246 -0.2709  1.2429
 4769SOL     OW15407   4.492   7.672   8.740  0.8631  0.1047  0.5155
 4769SOL    HW115408   4.403   7.656   8.770  0.7159  0.7917  0.4813
 4769SOL    HW215409   4.548   7.625   8.801  0.4379 -1.5161 -0.2880
 4770SOL     OW15410   0.312   7.066   7.905  0.1693  0.1937  0.1907
 4770SOL    HW115411   0.242   7.005   7.883  2.3896 -1.9066 -1.5522
 4770SOL    HW215412   0.361   7.023   7.974  1.9539 -0.2242 -1.2768
 4771SOL     OW15413   6.704   0.974   8.949  0.0931 -0.2447  0.4655
 4771SOL    HW115414   6.610   0.984   8.967 -0.1013 -2.6038  1.1281
 4771SOL    HW215415   6.709   0.960   8.854 -0.2812 -0.4386  0.4719
 4772SOL     OW15416   5.622   0.707   0.233 -0.3649 -0.3983  0.4551
 4772SOL    HW115417   5.673   0.657   0.169 -0.4146 -0.5657  0.5463
 4772SOL    HW215418   5.532   0.678   0.220 -0.0652 -2.5237  2.4692
 4773SOL     OW15419   1.079   8.264   8.598 -0.4420 -0.2464 -0.1269
 4773SOL    HW115420   1.109   8.240   8.510  0.7375 -0.5540  0.3406
 4773SOL    HW215421   1.159   8.277   8.648 -1.0824  1.5683  0.4904
 4774SOL     OW15422   4.327   5.855   2.994 -0.2750  0.1365 -0.0341
 4774SOL    HW115423   4.267   5.780   2.998  2.0136 -1.8164  0.7390
 4774SOL    HW215424   4.390   5.838   3.064  0.0275  3.1692  0.5728
 4775SOL     OW15425   5.498   8.705   1.304 -0.2883  0.2917 -0.6214
 4775SOL    HW115426   5.560   8.663   1.364  1.0483  3.2777  0.2853
 4775SOL    HW215427   5.545   8.711   1.221 -1.4831 -2.2353 -1.5838
 4776SOL     OW15428   0.993   6.202   8.379 -0.0667 -0.0618  0.1676
 4776SOL    HW115429   0.913   6.244   8.346  0.3123 -0.2113 -0.9868
 4776SOL    HW215430   0.966   6.159   8.460 -0.8389  1.0443  0.5210
 4777SOL     OW15431   4.704   4.356   4.215  0.1620 -0.0270  0.2194
 4777SOL    HW115432   4.648   4.280   4.232 -1.8335  1.3557  0.1785
 4777SOL    HW215433   4.750   4.372   4.297 -1.0390 -0.0087  0.9079
 4778SOL     OW15434   7.068   4.444   5.016  0.0803  0.2544  0.5797
 4778SOL    HW115435   7.079   4.428   5.109  0.5496  2.1405  0.8715
 4778SOL    HW215436   6.973   4.441   5.002 -0.1151  1.5885  1.4499
 4779SOL     OW15437   2.445   7.794   2.732  0.4408 -0.2441 -0.0716
 4779SOL    HW115438   2.464   7.870   2.788  0.1473 -0.7909  0.7932
 4779SOL    HW215439   2.499   7.724   2.769 -0.2159 -0.7689 -0.0920
 4780SOL     OW15440   3.453   8.132   6.349  0.2754 -0.7601  0.1391
 4780SOL    HW115441   3.421   8.135   6.259 -0.1035 -2.3202  0.1776
 4780SOL    HW215442   3.547   8.151   6.343 -0.0055  0.4929 -0.4013
 4781SOL     OW15443   0.385   3.066   1.580 -0.5625  0.2221 -0.1394
 4781SOL    HW115444   0.306   3.119   1.575 -0.3311  0.5008 -1.1947
 4781SOL    HW215445   0.356   2.977   1.557 -0.3168  0.6401 -2.3192
 4782SOL     OW15446   2.648   4.316   2.980 -0.4657 -0.3919  0.3424
 4782SOL    HW115447   2.676   4.228   3.005 -1.1910 -0.7298  0.0006
 4782SOL    HW215448   2.566   4.302   2.933  0.1275  0.3449 -0.9542
 4783SOL     OW15449   5.794   4.100   2.653 -0.1695  0.3015  0.1836
 4783SOL    HW115450   5.714   4.138   2.616  0.5039  0.3205 -1.3304
 4783SOL    HW215451   5.862   4.122   2.590  0.7560 -1.0075  0.6897
 4784SOL     OW15452   2.729   2.645   8.133 -0.3556 -0.5304  0.1773
 4784SOL    HW115453   2.790   2.646   8.059 -0.2983 -0.8552  0.2176
 4784SOL    HW215454   2.643   2.655   8.092 -0.4780 -2.3609 -0.1080
 4785SOL     OW15455   8.184   3.496   7.799 -0.2978 -0.1127 -0.0948
 4785SOL    HW115456   8.092   3.509   7.823 -0.4059 -1.0925  0.0493
 4785SOL    HW215457   8.205   3.571   7.743 -1.3840 -0.2303 -0.6836
 4786SOL     OW15458   6.992   0.972   1.100  0.0410 -0.2221  0.6928
 4786SOL    HW115459   6.918   1.021   1.136  0.2980 -0.2337  1.2662
 4786SOL    HW215460   7.007   1.010   1.014 -0.4939 -0.0732  0.6638
 4787SOL     OW15461   0.305   5.815   3.037 -0.3509  0.0558 -0.3572
 4787SOL    HW115462   0.283   5.749   2.972 -0.1741 -1.7786  1.3427
 4787SOL    HW215463   0.389   5.850   3.009 -1.0673  0.5536 -1.9980
 4788SOL     OW15464   6.913   4.568   5.708 -0.1283  0.1670 -0.5437
 4788SOL    HW115465   6.994   4.529   5.677 -0.8020 -1.5043 -0.3110
 4788SOL    HW215466   6.844   4.511   5.674 -1.1183  0.7699  0.3788
 4789SOL     OW15467   4.880   1.783   2.694  0.5832 -0.0343 -0.1218
 4789SOL    HW115468   4.887   1.748   2.783 -1.9087 -1.1435 -0.2855
 4789SOL    HW215469   4.940   1.730   2.642  0.4683 -0.8183  0.5311
 4790SOL     OW15470   0.487   7.612   1.027  0.2663  0.5702 -0.2329
 4790SOL    HW115471   0.545   7.646   1.096  1.5281 -1.2968 -0.2842
 4790SOL    HW215472   0.399   7.629   1.060  0.7974 -0.8813  2.2815
 4791SOL     OW15473   5.297   1.577   7.403  0.0647  0.1811 -0.8166
 4791SOL    HW115474   5.243   1.520   7.348 -0.7825  0.5572 -0.3801
 4791SOL    HW215475   5.334   1.518   7.469  0.3857 -0.1149 -1.2485
 4792SOL     OW15476   2.145   2.254   4.914  0.3181 -0.5372  0.5546
 4792SOL    HW115477   2.204   2.196   4.865  1.5698  1.0505  0.0667
 4792SOL    HW215478   2.171   2.242   5.005  1.5240  0.2102  0.3392
 4793SOL     OW15479   2.983   6.848   3.917 -0.4051  0.2150 -0.1856
 4793SOL    HW115480   3.077   6.866   3.919  0.2131 -2.6491  0.2369
 4793SOL    HW215481   2.967   6.816   3.828 -1.7668  3.8986 -1.4305
 4794SOL     OW15482   3.888   8.091   1.638  0.1894  0.0080  0.2197
 4794SOL    HW115483   3.796   8.111   1.619 -0.3418 -0.1080  2.4427
 4794SOL    HW215484   3.886   8.003   1.674  1.0598  0.3102  1.0396
 4795SOL     OW15485   2.406   5.757   5.403  0.5047  0.5111 -0.0279
 4795SOL    HW115486   2.355   5.699   5.347  2.2491 -0.1184 -1.0594
 4795SOL    HW215487   2.360   5.841   5.399  0.3737  0.3894 -2.1565
 4796SOL     OW15488   8.041   5.975   8.551  0.2804  0.1190  0.3481
 4796SOL    HW115489   8.008   6.038   8.615  0.6739 -0.4867  1.1604
 4796SOL    HW215490   8.005   5.891   8.578  0.8210 -0.2185  0.0506
 4797SOL     OW15491   8.027   7.975   7.943  0.3511  0.3412 -0.3417
 4797SOL    HW115492   8.074   7.953   7.863 -1.1323 -0.5037 -1.0362
 4797SOL    HW215493   7.943   8.010   7.912 -0.2488 -0.0050  0.8295
 4798SOL     OW15494   2.045   3.618   7.508 -0.0906 -0.1355  0.2127
 4798SOL    HW115495   1.951   3.627   7.495 -0.0064  0.7236  0.1422
 4798SOL    HW215496   2.055   3.600   7.601 -0.2459  1.4382  0.5682
 4799SOL     OW15497   0.619   3.521   7.788 -0.1763 -0.3455 -0.1956
 4799SOL    HW115498   0.632   3.554   7.877  1.3366  0.3195 -0.6251
 4799SOL    HW215499   0.651   3.592   7.731 -0.5995 -0.9822 -1.2603
 4800SOL     OW15500   7.387   1.633   8.395  0.1879  0.3009 -0.2713
 4800SOL    HW115501   7.416   1.672   8.478 -0.2080  1.0589 -0.4797
 4800SOL    HW215502   7.434   1.550   8.390  1.8012  1.1720 -0.2756
 4801SOL     OW15503   2.871   2.663   5.552  0.1261  0.0324 -0.4098
 4801SOL    HW115504   2.962   2.670   5.523 -0.0957 -0.1467 -1.1738
 4801SOL    HW215505   2.833   2.596   5.496  0.0850 -1.4770  1.3472
 4802SOL     OW15506   8.756   4.160   0.973 -0.0995  0.6938  0.2306
 4802SOL    HW115507   8.801   4.225   0.919  0.9934  0.0687  0.3441
 4802SOL    HW215508   8.816   4.146   1.047  0.0017 -0.9026 -0.1182
 4803SOL     OW15509   2.334   5.919   6.588  0.1931  0.1857 -0.0988
 4803SOL    HW115510   2.312   5.861   6.515  0.5683  1.2022 -1.0406
 4803SOL    HW215511   2.418   5.887   6.620 -0.4160 -0.8477  0.5197
 4804SOL     OW15512   0.916   8.257   2.687  0.3226 -0.5756 -0.1962
 4804SOL    HW115513   0.841   8.306   2.718  0.8454  0.8231 -1.0403
 4804SOL    HW215514   0.908   8.171   2.729 -1.1689 -0.1185  0.5178
 4805SOL     OW15515   4.818   5.205   4.753 -0.5967  0.0947 -0.1047
 4805SOL    HW115516   4.775   5.124   4.725 -0.7110  0.1805 -0.1814
 4805SOL    HW215517   4.863   5.182   4.834 -0.0809 -0.2113 -0.4749
 4806SOL     OW15518   0.991   1.046   0.560 -0.2466  0.1385 -0.4811
 4806SOL    HW115519   1.026   1.099   0.631  0.4531 -1.5636  0.5197
 4806SOL    HW215520   1.010   1.096   0.480  0.0082  1.5421  0.4283
 4807SOL     OW15521   7.051   1.298   1.661  0.3079  0.6231  0.1572
 4807SOL    HW115522   7.127   1.294   1.718 -0.7024  0.3093  1.5396
 4807SOL    HW215523   6.979   1.322   1.719 -0.8978 -0.4026 -0.8540
 4808SOL     OW15524   8.860   5.690   7.257  0.4534  0.8077 -0.1440
 4808SOL    HW115525   8.783   5.697   7.201  0.0680  0.5275  0.3480
 4808SOL    HW215526   8.926   5.745   7.213  0.9123 -1.1576 -2.0934
 4809SOL     OW15527   7.119   2.374   7.757 -0.0657  0.1067 -0.3259
 4809SOL    HW115528   7.126   2.419   7.841  0.2754  1.0531 -0.8406
 4809SOL    HW215529   7.165   2.431   7.696 -0.9846 -0.1712 -1.3087
 4810SOL     OW15530   0.351   8.605   2.243 -0.2780 -0.0726  0.3122
 4810SOL    HW115531   0.347   8.699   2.225  0.7138 -0.2888 -1.1182
 4810SOL    HW215532   0.302   8.564   2.172  1.6322 -0.7799 -0.6783
 4811SOL     OW15533   0.269   0.513   5.962  0.3613 -0.0744 -0.2049
 4811SOL    HW115534   0.184   0.551   5.980  0.8289  0.6712  0.4994
 4811SOL    HW215535   0.283   0.450   6.033 -0.1022 -1.0852 -0.9775
 4812SOL     OW15536   8.328   2.576   0.637 -0.5360 -0.1175  0.3996
 4812SOL    HW115537   8.401   2.619   0.682 -0.3632  0.8058 -0.7179
 4812SOL    HW215538   8.342   2.596   0.544 -0.5783 -2.4080 -0.1584
 4813SOL     OW15539   7.907   0.975   8.879 -0.1533 -0.4893 -0.7918
 4813SOL    HW115540   7.860   0.944   8.957 -1.9226  1.0843 -1.1405
 4813SOL    HW215541   7.959   1.049   8.911 -1.4377  0.6213 -1.1710
 4814SOL     OW15542   7.951   3.472   7.425  0.2378 -0.7057 -0.4414
 4814SOL    HW115543   7.872   3.431   7.390  0.3052 -0.2778 -1.1290
 4814SOL    HW215544   7.946   3.563   7.395 -0.1281 -0.0692  1.4225
 4815SOL     OW15545   3.997   6.726   3.744 -0.3098 -0.0901  0.0781
 4815SOL    HW115546   4.059   6.793   3.716 -1.2184  0.4672 -0.6822
 4815SOL    HW215547   3.927   6.776   3.787 -1.5083 -0.4015 -1.4162
 4816SOL     OW15548   2.018   4.700   0.861 -0.3022  0.4272 -0.0086
 4816SOL    HW115549   1.949   4.643   0.896 -0.0979  0.7162  0.8761
 4816SOL    HW215550   1.999   4.704   0.767 -0.9993 -0.1688  0.0926
 4817SOL     OW15551   1.041   1.336   1.164 -0.3108 -0.0753  0.1652
 4817SOL    HW115552   1.059   1.371   1.251  0.7014  0.7555 -0.3558
 4817SOL    HW215553   1.116   1.280   1.143 -0.7926 -0.6825  0.0284
 4818SOL     OW15554   4.841   2.575   4.198  0.0009  0.1452 -0.0879
 4818SOL    HW115555   4.782   2.521   4.250  1.0155 -0.7093  0.2197
 4818SOL    HW215556   4.800   2.661   4.196  0.4906  0.5717  3.1560
 4819SOL     OW15557   1.917   8.154   3.974  0.8414 -0.4920 -0.8966
 4819SOL    HW115558   1.971   8.227   4.005 -1.5689  1.1693 -0.3606
 4819SOL    HW215559   1.855   8.194   3.913  0.4821 -2.4064 -1.8806
 4820SOL     OW15560   2.350   0.943   5.275 -0.5778  0.0827 -0.2095
 4820SOL    HW115561   2.273   0.972   5.225 -2.1741  1.7728  2.9720
 4820SOL    HW215562   2.338   0.849   5.285 -3.2899  0.5330  1.6776
 4821SOL     OW15563   6.083   7.221   8.555  0.4289  0.5868 -0.0224
 4821SOL    HW115564   6.034   7.268   8.622 -2.1125 -1.9531  0.0688
 4821SOL    HW215565   6.039   7.243   8.473  0.0298 -0.5182 -0.1292
 4822SOL     OW15566   7.276   0.079   0.211  0.2311 -1.0161 -0.2257
 4822SOL    HW115567   7.221   0.021   0.157 -0.8184  1.1763 -1.6338
 4822SOL    HW215568   7.238   0.071   0.299 -0.3767 -1.8650 -0.5447
 4823SOL     OW15569   0.918   6.447   3.083  0.1942  0.2590  0.3331
 4823SOL    HW115570   0.986   6.397   3.128 -0.3158 -0.9345 -0.2044
 4823SOL    HW215571   0.960   6.480   3.004 -0.3302 -2.2176 -1.0907
 4824SOL     OW15572   2.386   4.097   3.861  0.1750 -0.1453 -0.1637
 4824SOL    HW115573   2.313   4.047   3.897 -1.5796  0.4901 -2.6447
 4824SOL    HW215574   2.420   4.043   3.791  0.6355  0.5494 -0.4903
 4825SOL     OW15575   3.345   3.814   7.159  0.4150 -0.0833 -0.0184
 4825SOL    HW115576   3.285   3.750   7.122  1.0718  0.0948 -1.4341
 4825SOL    HW215577   3.323   3.896   7.114  0.7688  0.3027  0.4985
 4826SOL     OW15578   4.545   7.756   5.435  0.5565 -0.2890  0.4717
 4826SOL    HW115579   4.615   7.696   5.410  1.7633  1.8709 -1.7787
 4826SOL    HW215580   4.585   7.815   5.498  0.3147 -0.0185  0.3757
 4827SOL     OW15581   2.493   0.835   4.365 -0.0657  0.3022 -0.1869
 4827SOL    HW115582   2.446   0.918   4.358  2.6709  1.9230 -0.5470
 4827SOL    HW215583   2.434   0.771   4.325 -2.5733  1.8779  0.7326
 4828SOL     OW15584   9.021   8.624   0.600 -0.5121  0.7312  0.0273
 4828SOL    HW115585   8.966   8.552   0.632 -0.0422 -0.0217 -0.8279
 4828SOL    HW215586   9.021   8.687   0.672  0.2906 -0.7840  1.4311
 4829SOL     OW15587   8.301   1.596   7.868 -0.0241 -0.4054 -0.0740
 4829SOL    HW115588   8.242   1.657   7.913  0.8109  0.1928  0.2327
 4829SOL    HW215589   8.329   1.643   7.789 -1.0367 -1.2320 -0.9566
 4830SOL     OW15590   3.526   2.767   3.783  0.4411 -0.0335  0.0744
 4830SOL    HW115591   3.538   2.853   3.743  1.6739  1.1412  2.7486
 4830SOL    HW215592   3.615   2.736   3.801 -0.0242 -1.2766  0.3353
 4831SOL     OW15593   0.292   3.329   2.403  0.7005  0.2383 -0.1385
 4831SOL    HW115594   0.286   3.290   2.315 -0.1855  1.1166 -0.4789
 4831SOL    HW215595   0.273   3.422   2.390 -2.7379 -0.0971  1.3818
 4832SOL     OW15596   4.450   6.788   8.272 -0.0146 -0.2765 -1.0948
 4832SOL    HW115597   4.447   6.700   8.234  0.4029 -0.3097 -1.0572
 4832SOL    HW215598   4.420   6.846   8.201  1.6590 -0.2337 -1.8187
 4833SOL     OW15599   8.193   0.056   5.914 -0.3445  0.1200  0.2694
 4833SOL    HW115600   8.107   0.029   5.945 -0.8817  0.8488 -0.5298
 4833SOL    HW215601   8.177   0.088   5.825  0.6324  0.9289  0.3682
 4834SOL     OW15602   4.354   7.011   5.039 -0.1568 -0.4002  0.2670
 4834SOL    HW115603   4.364   6.938   5.100 -0.6485 -1.3678 -0.7698
 4834SOL    HW215604   4.443   7.039   5.020  0.0026 -0.1343  1.3620
 4835SOL     OW15605   4.899   5.630   0.713 -0.6559 -0.2360 -0.2377
 4835SOL    HW115606   4.846   5.573   0.769 -1.1533  0.6860  0.2692
 4835SOL    HW215607   4.975   5.578   0.688 -1.0490 -1.0686  0.2968
 4836SOL     OW15608   1.950   5.409   0.572  0.2289  0.3836  0.2563
 4836SOL    HW115609   2.007   5.341   0.536  0.8708  0.1628  1.6389
 4836SOL    HW215610   1.862   5.382   0.545  0.6656  0.2885 -1.2045
 4837SOL     OW15611   2.423   1.339   6.565 -0.0205  0.7130  0.0631
 4837SOL    HW115612   2.474   1.349   6.646  0.5862 -1.6206  0.0238
 4837SOL    HW215613   2.352   1.280   6.589 -0.4643  0.8496 -0.8727
 4838SOL     OW15614   2.668   6.190   5.180  0.2138  0.0490  0.2759
 4838SOL    HW115615   2.727   6.137   5.125 -1.0067 -0.9369 -0.1312
 4838SOL    HW215616   2.581   6.153   5.165 -0.3030  0.4124  2.1239
 4839SOL     OW15617   3.820   5.951   0.096  0.0906  0.1997  0.7035
 4839SOL    HW115618   3.905   5.910   0.112  0.2431  0.2128 -0.0303
 4839SOL    HW215619   3.825   5.980   0.005 -1.2386 -1.0972  0.1772
 4840SOL     OW15620   6.530   8.381   8.326 -0.6001  0.4005 -0.1645
 4840SOL    HW115621   6.503   8.441   8.395 -1.6838  1.1228 -1.1902
 4840SOL    HW215622   6.584   8.433   8.267  0.5216 -0.2711  0.2369
 4841SOL     OW15623   7.740   4.040   8.653 -0.4441 -0.0311 -0.6775
 4841SOL    HW115624   7.740   3.954   8.611  0.6634 -0.6174  0.4688
 4841SOL    HW215625   7.714   4.101   8.583  1.7872 -0.8909 -2.3611
 4842SOL     OW15626   2.484   8.611   4.265 -0.2532 -0.0371  0.3699
 4842SOL    HW115627   2.392   8.584   4.254  0.1322 -1.6011  0.7147
 4842SOL    HW215628   2.479   8.703   4.290 -1.8322 -0.5205  2.0491
 4843SOL     OW15629   6.755   1.843   2.258 -0.3718  0.0401  0.5269
 4843SOL    HW115630   6.729   1.754   2.236 -1.7810  0.1349  1.5977
 4843SOL    HW215631   6.843   1.835   2.294  0.6609 -0.5108 -1.9577
 4844SOL     OW15632   5.655   3.930   4.182  0.8120 -0.1454 -0.4311
 4844SOL    HW115633   5.688   3.847   4.148  0.6328 -0.3830 -0.0302
 4844SOL    HW215634   5.561   3.927   4.167  0.5750 -0.6990  0.9769
 4845SOL     OW15635   0.853   3.890   5.322  0.4878  0.5536  0.3680
 4845SOL    HW115636   0.935   3.940   5.324 -0.2924  1.8480  2.5172
 4845SOL    HW215637   0.833   3.872   5.413 -0.0391 -2.5548 -0.2440
 4846SOL     OW15638   6.813   1.626   1.533  0.0205 -0.5033  0.2803
 4846SOL    HW115639   6.774   1.636   1.620 -1.9855  3.9277 -0.8711
 4846SOL    HW215640   6.895   1.675   1.537  0.4442 -1.1519 -0.1270
 4847SOL     OW15641   0.966   1.162   2.967  0.0847  0.1780  0.4155
 4847SOL    HW115642   0.893   1.155   2.905 -0.5860 -2.2494  1.3628
 4847SOL    HW215643   1.038   1.197   2.915 -0.8898 -0.3214 -1.3464
 4848SOL     OW15644   5.809   5.138   7.523 -0.0810 -0.1452  0.5697
 4848SOL    HW115645   5.892   5.138   7.570 -0.5772 -0.1190  1.4757
 4848SOL    HW215646   5.786   5.046   7.513 -0.5660 -0.1420  1.4923
 4849SOL     OW15647   1.276   2.922   3.420  0.1351  0.5413  0.5309
 4849SOL    HW115648   1.371   2.933   3.422  0.0995  1.0781 -0.2110
 4849SOL    HW215649   1.258   2.881   3.335 -0.2151 -0.4389  1.0671
 4850SOL     OW15650   2.343   3.621   5.083 -0.1329 -0.2582 -0.5505
 4850SOL    HW115651   2.274   3.615   5.149 -0.6618  1.1981 -0.9350
 4850SOL    HW215652   2.297   3.645   5.002  0.9062  2.0907 -0.5293
 4851SOL     OW15653   5.555   7.805   6.144 -0.5960  0.2575  0.8032
 4851SOL    HW115654   5.572   7.711   6.133 -0.6473  0.3046  0.2779
 4851SOL    HW215655   5.564   7.841   6.056  1.2087  1.0427  1.2710
 4852SOL     OW15656   8.315   3.952   0.553  0.3576 -0.4808 -0.2724
 4852SOL    HW115657   8.392   3.991   0.593  0.1911  0.4413 -0.8263
 4852SOL    HW215658   8.343   3.929   0.464  0.4607 -1.6558  0.0527
 4853SOL     OW15659   8.577   2.596   3.757  0.6274 -0.5753 -0.1231
 4853SOL    HW115660   8.535   2.590   3.671 -0.0083  0.3987  0.1135
 4853SOL    HW215661   8.637   2.670   3.749 -0.7067  0.6490  0.7849
 4854SOL     OW15662   3.771   0.516   4.569 -0.3818 -0.0997 -0.9069
 4854SOL    HW115663   3.732   0.429   4.564  0.8503 -0.7921  0.7600
 4854SOL    HW215664   3.853   0.509   4.521  1.2404 -0.8271  1.7524
 4855SOL     OW15665   8.927   1.706   7.528 -0.1185  0.2623  0.1116
 4855SOL    HW115666   9.013   1.732   7.496 -0.4869  1.1788 -0.1998
 4855SOL    HW215667   8.907   1.769   7.598 -0.2278 -0.3983  0.6840
 4856SOL     OW15668   5.472   4.169   3.414  0.2279  0.0828  0.1256
 4856SOL    HW115669   5.376   4.173   3.422  0.0494  1.3159 -1.8600
 4856SOL    HW215670   5.494   4.077   3.431 -1.0864  0.1261  2.3555
 4857SOL     OW15671   1.407   7.535   6.682 -0.3646 -0.1532 -0.4480
 4857SOL    HW115672   1.492   7.547   6.723 -1.0388  0.2455  0.8987
 4857SOL    HW215673   1.375   7.452   6.715 -1.2554  0.5443  0.4988
 4858SOL     OW15674   1.075   0.936   5.301 -0.0991  0.3780 -0.2102
 4858SOL    HW115675   1.000   0.893   5.342  1.1052 -0.3579  1.3203
 4858SOL    HW215676   1.113   0.869   5.244 -0.3253  0.6089 -0.6405
 4859SOL     OW15677   8.202   6.806   0.125 -0.1002  0.0868  0.0188
 4859SOL    HW115678   8.167   6.724   0.157  0.9669 -0.0413  0.9345
 4859SOL    HW215679   8.295   6.789   0.112  0.5794  1.6293  2.1342
 4860SOL     OW15680   7.179   6.837   6.155 -0.5869  0.0460  0.4940
 4860SOL    HW115681   7.095   6.802   6.187 -0.5906 -0.5349 -0.1264
 4860SOL    HW215682   7.154   6.909   6.097 -0.7338 -0.9094 -0.6688
 4861SOL     OW15683   1.479   3.728   7.051  0.0080  0.3293  0.3862
 4861SOL    HW115684   1.393   3.719   7.008 -0.2440  1.6142  0.5888
 4861SOL    HW215685   1.507   3.638   7.066  0.0191 -0.2179 -2.2964
 4862SOL     OW15686   8.992   3.832   0.816 -0.5453  0.5170 -0.4505
 4862SOL    HW115687   9.019   3.751   0.774  1.2763  0.7859  0.1075
 4862SOL    HW215688   8.955   3.885   0.746 -0.2568 -0.1783 -1.1335
 4863SOL     OW15689   8.283   0.655   5.886 -0.0579 -0.0394  0.1574
 4863SOL    HW115690   8.205   0.639   5.940 -0.0007 -1.1427 -0.0539
 4863SOL    HW215691   8.249   0.663   5.797  0.0572 -0.4872  0.0695
 4864SOL     OW15692   4.155   0.792   5.569 -1.4091 -0.0438 -0.1142
 4864SOL    HW115693   4.223   0.820   5.629  2.0962 -1.4803 -3.0425
 4864SOL    HW215694   4.139   0.700   5.591 -2.2791  0.2249  0.4167
 4865SOL     OW15695   2.691   8.701   8.256  0.3683 -0.3700  0.7656
 4865SOL    HW115696   2.619   8.658   8.304 -0.5172 -1.4458 -1.3914
 4865SOL    HW215697   2.742   8.629   8.220  0.8534  0.4048 -0.1230
 4866SOL     OW15698   5.259   3.175   3.915 -0.6980 -0.5262 -0.2718
 4866SOL    HW115699   5.216   3.259   3.897 -0.8732 -0.5028  0.2414
 4866SOL    HW215700   5.213   3.112   3.859  0.4104 -0.0392 -1.7920
 4867SOL     OW15701   7.866   4.240   7.605 -0.4099  1.1475  0.3128
 4867SOL    HW115702   7.908   4.271   7.524  0.4809  0.3511  0.4570
 4867SOL    HW215703   7.780   4.280   7.603 -1.4411 -0.8435 -2.3616
 4868SOL     OW15704   8.176   3.566   6.332  0.0148  0.4368  1.0755
 4868SOL    HW115705   8.205   3.482   6.296  1.0652  0.4675  1.8292
 4868SOL    HW215706   8.080   3.561   6.329  0.0529 -1.0309  1.6602
 4869SOL     OW15707   0.194   5.271   5.045 -0.3682 -0.1711 -0.4305
 4869SOL    HW115708   0.213   5.232   4.960  0.7247  1.4086 -0.9477
 4869SOL    HW215709   0.216   5.363   5.035  0.3502 -0.0523  1.7473
 4870SOL     OW15710   2.546   6.092   7.934  0.4113 -0.3042  0.6367
 4870SOL    HW115711   2.630   6.087   7.980 -0.0626  0.4193  1.6042
 4870SOL    HW215712   2.507   6.006   7.945 -0.3049  0.2457  2.7970
 4871SOL     OW15713   6.300   9.024   0.295  0.5713  0.3372  0.0122
 4871SOL    HW115714   6.327   9.037   0.386  0.2683 -1.7966  0.4545
 4871SOL    HW215715   6.213   9.064   0.290  0.2354 -0.2496  0.9020
 4872SOL     OW15716   0.174   7.381   0.360 -0.4180  0.2578  0.0314
 4872SOL    HW115717   0.161   7.394   0.454 -0.6752 -0.1041  0.0481
 4872SOL    HW215718   0.107   7.435   0.319 -1.0236 -0.4366  0.0852
 4873SOL     OW15719   2.208   0.819   6.267  0.1912  0.3900  0.6259
 4873SOL    HW115720   2.299   0.817   6.296  0.3850  2.7455  0.3404
 4873SOL    HW215721   2.211   0.786   6.177  0.9529  1.4948  0.2334
 4874SOL     OW15722   2.890   7.673   1.409 -0.0810 -0.1096 -0.1108
 4874SOL    HW115723   2.884   7.717   1.324  0.9533  0.5060  0.1203
 4874SOL    HW215724   2.929   7.588   1.389  2.3985  0.9033 -0.0405
 4875SOL     OW15725   3.995   9.083   5.408  0.0698 -0.1445 -0.4916
 4875SOL    HW115726   3.923   9.141   5.434 -0.0228  0.7091 -2.4727
 4875SOL    HW215727   3.954   8.999   5.392 -0.3488  0.1076 -0.7574
 4876SOL     OW15728   4.938   0.127   4.914 -0.0808 -0.3431  0.0442
 4876SOL    HW115729   4.888   0.168   4.985  1.3816  0.0172  0.8934
 4876SOL    HW215730   4.891   0.045   4.896 -0.2635 -0.6322  1.7007
 4877SOL     OW15731   2.660   1.923   8.480 -0.3486 -0.2713  0.0610
 4877SOL    HW115732   2.663   2.018   8.466 -0.4320 -0.4096 -1.0191
 4877SOL    HW215733   2.568   1.900   8.467 -0.3094 -0.5172  0.2111
 4878SOL     OW15734   0.761   6.210   1.444 -1.0878 -0.2003 -0.3995
 4878SOL    HW115735   0.701   6.264   1.392  0.2102 -0.0305 -1.8079
 4878SOL    HW215736   0.737   6.120   1.423 -1.5469 -0.1480 -0.1078
 4879SOL     OW15737   5.751   1.927   1.425 -0.3825  0.3109  0.1967
 4879SOL    HW115738   5.797   2.011   1.424 -0.7759  0.6142  2.4498
 4879SOL    HW215739   5.821   1.862   1.432 -0.1603  0.5909  0.6260
 4880SOL     OW15740   6.667   3.647   8.771 -0.2579  0.0837  0.1945
 4880SOL    HW115741   6.591   3.595   8.743  1.0904 -0.9442 -1.8089
 4880SOL    HW215742   6.726   3.583   8.810 -0.0186  0.7272  0.9024
 4881SOL     OW15743   4.141   0.794   2.266 -0.1375  0.3575  0.1526
 4881SOL    HW115744   4.064   0.775   2.212  0.2230  0.5804 -0.4499
 4881SOL    HW215745   4.108   0.794   2.356 -0.9280  0.9073 -0.1310
 4882SOL     OW15746   2.039   8.603   0.788 -0.2833 -0.2919 -1.1233
 4882SOL    HW115747   2.120   8.644   0.818 -0.6160 -1.1078  1.1115
 4882SOL    HW215748   1.975   8.675   0.783 -0.2013 -0.1164  0.1773
 4883SOL     OW15749   5.566   3.338   7.535 -0.5002  0.0575  0.3503
 4883SOL    HW115750   5.504   3.352   7.463  0.0687 -0.1294 -0.1834
 4883SOL    HW215751   5.526   3.268   7.587 -1.6471  1.2009  1.0778
 4884SOL     OW15752   0.285   9.048   7.120  0.6342 -0.8653  0.0284
 4884SOL    HW115753   0.229   8.970   7.122 -0.0768 -0.3801 -0.4225
 4884SOL    HW215754   0.244   9.108   7.181  0.9291 -0.6815  0.0447
 4885SOL     OW15755   8.647   0.046   1.884  0.8733  0.0350 -0.0991
 4885SOL    HW115756   8.694   0.118   1.843 -0.6756  0.7413 -0.7167
 4885SOL    HW215757   8.703  -0.031   1.870  1.1774  0.5630 -2.1256
 4886SOL     OW15758   6.736   5.006   4.676  1.0100 -0.6701 -0.4676
 4886SOL    HW115759   6.680   5.070   4.632 -0.8825 -2.8267 -1.3944
 4886SOL    HW215760   6.729   5.028   4.769  0.2540  0.3403 -0.7552
 4887SOL     OW15761   3.903   6.441   7.402 -0.2957 -0.2331 -0.0385
 4887SOL    HW115762   3.861   6.359   7.428 -0.3163 -0.5640 -1.0625
 4887SOL    HW215763   3.968   6.416   7.337  1.4468  0.2984  1.4133
 4888SOL     OW15764   3.634   8.738   8.137 -0.4875  0.5408 -0.0597
 4888SOL    HW115765   3.551   8.759   8.093 -0.4777 -1.3513 -1.0981
 4888SOL    HW215766   3.700   8.785   8.086 -0.4699 -1.6358 -2.3034
 4889SOL     OW15767   5.845   5.074   8.951 -0.4146 -0.6880  0.0457
 4889SOL    HW115768   5.887   5.150   8.992 -1.5951 -1.6626  3.3885
 4889SOL    HW215769   5.761   5.108   8.919 -0.0340 -0.1885 -0.4592
 4890SOL     OW15770   3.519   0.982   0.630  0.5293  0.1818 -0.4618
 4890SOL    HW115771   3.506   1.072   0.660 -1.8669 -0.1693 -0.2540
 4890SOL    HW215772   3.446   0.933   0.669  1.2671 -1.6797 -1.2990
 4891SOL     OW15773   8.838   1.684   6.506 -0.0374 -0.1810  0.3021
 4891SOL    HW115774   8.831   1.642   6.420  0.8139  0.9859 -0.3505
 4891SOL    HW215775   8.747   1.705   6.530 -0.2728 -0.4688 -0.3175
 4892SOL     OW15776   8.553   5.186   1.695 -0.2646  0.5879 -0.0073
 4892SOL    HW115777   8.536   5.225   1.609 -0.7291  0.6528  0.1080
 4892SOL    HW215778   8.584   5.097   1.675  1.8506  1.3403 -0.2974
 4893SOL     OW15779   3.803   7.726   6.873 -0.4353  0.8393  0.1399
 4893SOL    HW115780   3.760   7.667   6.935  1.0983 -3.3262 -2.3625
 4893SOL    HW215781   3.732   7.782   6.841 -2.0181  0.4295  2.6186
 4894SOL     OW15782   5.891   3.677   6.583  0.3389 -0.3093  0.4947
 4894SOL    HW115783   5.950   3.629   6.641  1.3831 -2.8906 -2.4266
 4894SOL    HW215784   5.948   3.736   6.534 -0.2729  0.6434  0.9118
 4895SOL     OW15785   3.141   2.470   1.554 -0.2818 -0.5506  0.0424
 4895SOL    HW115786   3.050   2.472   1.585  0.1035 -1.0648  1.2526
 4895SOL    HW215787   3.155   2.557   1.517 -1.3748 -0.5769 -0.4778
 4896SOL     OW15788   7.465   1.862   6.178  0.0553 -0.0851 -0.0758
 4896SOL    HW115789   7.447   1.955   6.189  0.2370 -0.1024  0.3597
 4896SOL    HW215790   7.420   1.820   6.251 -2.1414 -0.5979 -1.6134
 4897SOL     OW15791   4.771   7.439   2.462  0.6964  0.0765  0.1627
 4897SOL    HW115792   4.715   7.517   2.457  1.5226  0.7791  1.3996
 4897SOL    HW215793   4.853   7.467   2.422  0.8977 -0.2450  0.3510
 4898SOL     OW15794   2.083   7.395   1.814 -0.2798  0.1243 -0.1013
 4898SOL    HW115795   2.131   7.325   1.859  0.3417  0.3421 -0.4113
 4898SOL    HW215796   2.087   7.372   1.722 -0.4733  0.3272 -0.1607
 4899SOL     OW15797   5.415   8.868   0.662 -0.1876 -0.4624 -0.2472
 4899SOL    HW115798   5.380   8.827   0.583  1.2863  0.4893 -1.4826
 4899SOL    HW215799   5.509   8.876   0.644  0.1446 -0.0085  1.5248
 4900SOL     OW15800   1.436   4.470   1.521  1.3255 -0.1291 -0.1329
 4900SOL    HW115801   1.349   4.507   1.540  0.9138 -0.0162 -2.0109
 4900SOL    HW215802   1.459   4.420   1.600 -0.4467 -0.1594  0.4111
 4901SOL     OW15803   8.192   7.953   0.124 -0.0849  0.3716 -0.8472
 4901SOL    HW115804   8.134   7.935   0.049  0.9020 -1.3961 -1.2456
 4901SOL    HW215805   8.263   8.004   0.087 -0.7734  1.5317 -0.6024
 4902SOL     OW15806   5.284   4.820   0.741  0.4629  0.0204  0.1896
 4902SOL    HW115807   5.218   4.787   0.680  0.5891  0.2623 -0.0808
 4902SOL    HW215808   5.311   4.743   0.792  1.6206 -0.5686 -1.2330
 4903SOL     OW15809   7.672   7.223   1.627 -0.1267 -0.0045  0.3585
 4903SOL    HW115810   7.599   7.178   1.669  0.9729 -0.9241  1.3816
 4903SOL    HW215811   7.721   7.153   1.584  0.4540  0.5045  0.1733
 4904SOL     OW15812   6.250   4.714   6.413 -0.6757 -0.5168 -0.4137
 4904SOL    HW115813   6.324   4.773   6.430 -0.4415 -1.1705  0.9648
 4904SOL    HW215814   6.288   4.644   6.359 -0.1736 -1.0389  0.5865
 4905SOL     OW15815   1.521   4.928   0.506  0.1090 -0.2610 -0.0261
 4905SOL    HW115816   1.491   4.837   0.514  1.0498 -0.6446 -0.6767
 4905SOL    HW215817   1.474   4.961   0.429  0.5194 -0.5256 -0.3989
 4906SOL     OW15818   6.274   6.878   7.335  0.1713  0.1300  0.3695
 4906SOL    HW115819   6.201   6.838   7.288  0.4267  0.5478 -0.4052
 4906SOL    HW215820   6.254   6.864   7.428 -0.1235 -1.0898  0.1298
 4907SOL     OW15821   6.016   4.184   2.808 -0.0440 -0.1976  0.6234
 4907SOL    HW115822   5.929   4.150   2.787  0.4488 -1.5111  0.6339
 4907SOL    HW215823   6.030   4.254   2.745  0.4574 -2.5171 -2.0423
 4908SOL     OW15824   8.975   6.409   7.780 -0.1441 -0.2477 -0.3209
 4908SOL    HW115825   8.900   6.416   7.721 -0.0927 -1.7806 -0.6017
 4908SOL    HW215826   9.037   6.353   7.734 -0.1983 -1.6901  1.2830
 4909SOL     OW15827   4.460   5.591   7.278 -0.2227  0.3446 -0.0797
 4909SOL    HW115828   4.517   5.515   7.282 -0.2232  0.3623  0.3577
 4909SOL    HW215829   4.475   5.628   7.191 -0.8478 -0.6258 -0.6121
 4910SOL     OW15830   5.062   2.262   0.101  0.2394  0.3265 -0.1241
 4910SOL    HW115831   5.004   2.207   0.049  0.5590  0.4699 -0.6414
 4910SOL    HW215832   5.009   2.339   0.123  0.1705  0.3693 -0.4351
 4911SOL     OW15833   6.411   0.623   0.692 -0.1062  0.6663 -0.1788
 4911SOL    HW115834   6.400   0.579   0.776 -0.4365 -0.7206 -0.9140
 4911SOL    HW215835   6.487   0.581   0.652 -0.7842  0.3142 -1.1559
 4912SOL     OW15836   0.417   3.163   7.561  0.9174 -0.4386  0.8644
 4912SOL    HW115837   0.472   3.241   7.561  0.5411 -0.1715  0.9647
 4912SOL    HW215838   0.475   3.093   7.531  1.0974 -0.0047  0.1666
 4913SOL     OW15839   0.233   3.075   1.134 -0.0306  0.5077  0.0142
 4913SOL    HW115840   0.215   3.107   1.046 -1.2859 -0.1967 -0.0188
 4913SOL    HW215841   0.308   3.017   1.123  1.4830  2.3995 -0.1211
 4914SOL     OW15842   1.615   7.506   1.232 -0.2789 -0.2011 -0.5559
 4914SOL    HW115843   1.606   7.526   1.139 -0.7050 -1.5112 -0.8232
 4914SOL    HW215844   1.708   7.517   1.250 -0.4380  1.7376 -0.6918
 4915SOL     OW15845   0.853   1.003   5.729  0.0596 -0.1864  0.0180
 4915SOL    HW115846   0.846   0.970   5.819 -2.0002 -0.5233 -0.2341
 4915SOL    HW215847   0.784   1.069   5.722  0.1422 -0.2216 -1.3428
 4916SOL     OW15848   3.979   8.125   6.549 -0.2957  0.0227  0.3423
 4916SOL    HW115849   3.979   8.074   6.630  0.8884 -0.0519  0.3228
 4916SOL    HW215850   4.061   8.101   6.506  0.5145  2.2295  0.5251
 4917SOL     OW15851   6.431   3.610   1.711  0.0644  0.0869 -0.2052
 4917SOL    HW115852   6.431   3.548   1.638 -1.9447  0.6283 -0.7181
 4917SOL    HW215853   6.393   3.690   1.675  0.2177  0.7885  1.1140
 4918SOL     OW15854   6.268   2.538   1.132 -0.3539 -0.1062 -0.2963
 4918SOL    HW115855   6.267   2.558   1.225 -2.8541  0.0119 -0.2863
 4918SOL    HW215856   6.192   2.583   1.096  2.6182  3.1702 -3.2110
 4919SOL     OW15857   4.916   5.840   0.514  0.0261 -0.1448  0.3812
 4919SOL    HW115858   4.965   5.921   0.530  0.1585  0.2136 -1.6016
 4919SOL    HW215859   4.928   5.789   0.594 -2.3553  2.8568  2.9737
 4920SOL     OW15860   2.341   7.379   3.647 -0.6415  0.4443 -0.0502
 4920SOL    HW115861   2.413   7.404   3.589 -2.4484 -2.5937 -4.0785
 4920SOL    HW215862   2.379   7.312   3.705  0.5056  1.3275  0.2594
 4921SOL     OW15863   3.039   6.417   4.845  0.1852  0.0324  0.5439
 4921SOL    HW115864   3.051   6.457   4.758 -1.7306  0.6579  0.5172
 4921SOL    HW215865   3.004   6.330   4.827 -2.0821  0.8550  0.6426
 4922SOL     OW15866   7.785   1.674   0.831 -1.2340 -0.8658 -0.2989
 4922SOL    HW115867   7.836   1.711   0.759 -0.7047 -1.2348 -0.1299
 4922SOL    HW215868   7.789   1.579   0.817  0.4774 -1.0796  1.2140
 4923SOL     OW15869   6.790   4.799   1.663  0.4528 -0.1260  0.1948
 4923SOL    HW115870   6.814   4.746   1.739  1.0643 -1.1655 -0.6836
 4923SOL    HW215871   6.720   4.749   1.620  1.1074 -0.2971 -0.7026
 4924SOL     OW15872   0.217   5.773   0.702  0.1066  0.1629  0.2204
 4924SOL    HW115873   0.267   5.761   0.783 -1.1084 -1.7964  0.7220
 4924SOL    HW215874   0.130   5.740   0.721 -0.6451  1.0307 -1.4583
 4925SOL     OW15875   5.796   8.819   3.269  0.1236  0.2603 -0.2386
 4925SOL    HW115876   5.746   8.869   3.334 -0.3319 -0.0482 -0.3467
 4925SOL    HW215877   5.753   8.733   3.266  1.5604 -0.5263  0.7363
 4926SOL     OW15878   3.881   1.501   0.981  0.2963 -0.0187 -0.2656
 4926SOL    HW115879   3.792   1.536   0.984 -0.0062 -0.8264  1.5489
 4926SOL    HW215880   3.869   1.408   0.961  0.5781 -0.4254  1.2805
 4927SOL     OW15881   4.352   8.182   2.110 -0.0221 -0.2346  0.0234
 4927SOL    HW115882   4.368   8.234   2.031 -1.4582 -0.1546 -0.2483
 4927SOL    HW215883   4.407   8.222   2.177 -0.2278  0.9234 -0.4718
 4928SOL     OW15884   3.198   1.754   1.752  0.0229 -0.0594 -0.2462
 4928SOL    HW115885   3.254   1.687   1.714  0.6069 -0.3416  1.0618
 4928SOL    HW215886   3.158   1.712   1.828 -0.3930  0.7554 -0.0025
 4929SOL     OW15887   4.363   5.215   0.762  0.4718  0.2232 -0.1640
 4929SOL    HW115888   4.386   5.123   0.748 -0.6066  0.1099 -1.4405
 4929SOL    HW215889   4.442   5.263   0.734  0.9530 -0.2956  0.2782
 4930SOL     OW15890   1.873   6.542   7.248  0.6652  0.1974  0.1691
 4930SOL    HW115891   1.880   6.549   7.152  0.0265 -1.5086 -0.0335
 4930SOL    HW215892   1.783   6.512   7.263  0.2266  1.9984  1.4222
 4931SOL     OW15893   2.122   2.880   4.732  0.4827  0.4861 -0.7799
 4931SOL    HW115894   2.185   2.809   4.717  1.2564  1.2130 -1.0064
 4931SOL    HW215895   2.087   2.862   4.819  1.5950  0.5186 -0.3119
 4932SOL     OW15896   4.184   6.199   5.343  0.5119 -0.6046  0.3055
 4932SOL    HW115897   4.199   6.293   5.337  0.8496 -0.6231  0.7555
 4932SOL    HW215898   4.186   6.168   5.253 -0.4504 -0.0579  0.0879
 4933SOL     OW15899   0.689   6.059   3.580 -0.3405 -0.1482  0.2248
 4933SOL    HW115900   0.765   6.089   3.631 -1.5265 -0.5416  2.3391
 4933SOL    HW215901   0.727   6.026   3.499  1.6849  0.3953  0.8792
 4934SOL     OW15902   4.101   8.702   2.192  0.2234  0.1008 -0.4992
 4934SOL    HW115903   4.091   8.723   2.099 -0.2602  1.3908 -0.1752
 4934SOL    HW215904   4.092   8.786   2.236 -0.5982 -0.6493  0.8005
 4935SOL     OW15905   4.100   7.762   2.683  1.0899  0.1341  0.2242
 4935SOL    HW115906   4.180   7.714   2.659 -0.1309 -2.1653  0.5152
 4935SOL    HW215907   4.120   7.800   2.769  2.1448  0.2791 -0.0727
 4936SOL     OW15908   2.264   2.110   6.589  0.3350 -0.0678  0.1579
 4936SOL    HW115909   2.295   2.056   6.516 -1.5365 -0.9468 -0.0506
 4936SOL    HW215910   2.213   2.050   6.643 -2.1039  1.4829 -0.2545
 4937SOL     OW15911   7.387   1.034   6.633  0.0627 -0.0339  0.9016
 4937SOL    HW115912   7.350   1.002   6.551 -0.0287  0.3365  0.7943
 4937SOL    HW215913   7.420   0.956   6.677  0.9343 -0.1271  0.0973
 4938SOL     OW15914   2.047   3.258   5.894 -0.0918 -0.5730 -0.5241
 4938SOL    HW115915   2.013   3.171   5.916  0.8388 -1.0140 -0.7933
 4938SOL    HW215916   1.973   3.317   5.910 -0.2847 -1.2107  1.1061
 4939SOL     OW15917   5.961   1.305   7.981 -0.7754  0.0942  0.0594
 4939SOL    HW115918   5.892   1.369   7.998 -2.5238 -0.9746 -2.3709
 4939SOL    HW215919   5.996   1.330   7.896 -0.6831 -1.4622 -0.3982
 4940SOL     OW15920   5.680   6.015   6.378  0.2282  0.2252 -0.0688
 4940SOL    HW115921   5.634   5.995   6.459  1.3095  0.3053  0.5811
 4940SOL    HW215922   5.636   5.962   6.312 -0.6567  0.1474  0.5589
 4941SOL     OW15923   0.317   2.675   4.143 -0.6981 -0.1816 -0.2449
 4941SOL    HW115924   0.407   2.643   4.135 -1.2004 -2.4224  2.0188
 4941SOL    HW215925   0.322   2.742   4.211 -0.8153 -0.6890  0.2668
 4942SOL     OW15926   1.395   3.620   8.383  0.5773 -0.2582  0.1974
 4942SOL    HW115927   1.446   3.539   8.377  0.8322 -0.1384  0.6622
 4942SOL    HW215928   1.311   3.593   8.421  1.2832 -0.0737  2.0065
 4943SOL     OW15929   4.897   1.163   6.705  0.3156 -0.4681 -0.4166
 4943SOL    HW115930   4.882   1.072   6.681  1.1099 -1.1992  1.6229
 4943SOL    HW215931   4.953   1.197   6.635  0.8931 -1.8659 -0.6656
 4944SOL     OW15932   0.115   8.662   4.634 -0.1637  1.1042  1.3107
 4944SOL    HW115933   0.205   8.677   4.662  0.4866  0.0403 -0.0622
 4944SOL    HW215934   0.096   8.573   4.664  0.6222 -0.1511 -1.5491
 4945SOL     OW15935   3.004   3.717   2.281 -1.0587  0.3520  0.4393
 4945SOL    HW115936   3.085   3.747   2.324  0.5403 -0.5204 -1.7978
 4945SOL    HW215937   2.957   3.798   2.260  0.0775  0.9793  0.2296
 4946SOL     OW15938   6.654   2.716   7.500 -0.1947 -0.2519 -0.3461
 4946SOL    HW115939   6.691   2.804   7.507  1.6084 -0.6255 -3.2199
 4946SOL    HW215940   6.560   2.730   7.485  0.2267  1.3031 -1.8304
 4947SOL     OW15941   1.709   6.978   1.118 -0.1239  0.3718 -0.3767
 4947SOL    HW115942   1.751   7.056   1.154  0.4326 -1.0288  2.2296
 4947SOL    HW215943   1.616   7.002   1.111  0.2902  1.8149 -1.3440
 4948SOL     OW15944   5.742   6.079   1.636 -0.3415 -0.0883  0.0216
 4948SOL    HW115945   5.807   6.107   1.701  0.4178  0.0690 -0.7795
 4948SOL    HW215946   5.665   6.054   1.688  0.9050 -1.8491  1.1370
 4949SOL     OW15947   0.210   1.355   8.380  0.1476 -0.1008 -0.4194
 4949SOL    HW115948   0.185   1.309   8.459  2.1686  1.1090  1.0124
 4949SOL    HW215949   0.275   1.298   8.338 -0.6649 -0.5792 -1.0578
 4950SOL     OW15950   3.866   6.009   2.908 -0.0369 -0.2006 -0.2872
 4950SOL    HW115951   3.880   5.933   2.851 -1.2122  0.5311 -1.6028
 4950SOL    HW215952   3.778   5.996   2.943 -0.6290  0.9921 -1.2638
 4951SOL     OW15953   7.434   0.127   5.786  0.3826  0.0721  0.4969
 4951SOL    HW115954   7.376   0.202   5.779 -0.5226 -0.3837  2.4021
 4951SOL    HW215955   7.391   0.069   5.849  1.2211 -1.8896 -0.6443
 4952SOL     OW15956   0.041   1.067   4.688 -0.0960  0.6466  0.1982
 4952SOL    HW115957  -0.023   1.051   4.619  1.3428  0.7540 -1.2332
 4952SOL    HW215958  -0.005   1.122   4.752 -1.0031  2.0101 -1.5204
 4953SOL     OW15959   8.861   0.807   2.324 -0.5075 -0.1618 -0.4033
 4953SOL    HW115960   8.935   0.747   2.329 -0.4343 -0.1439 -1.1759
 4953SOL    HW215961   8.821   0.789   2.239 -0.0558  1.3831 -0.9719
 4954SOL     OW15962   0.059   6.164   8.793 -0.6371 -0.1775 -0.3653
 4954SOL    HW115963   0.085   6.157   8.885 -2.5356  1.7511  0.3950
 4954SOL    HW215964   0.084   6.253   8.768 -1.0617 -0.3420 -1.4219
 4955SOL     OW15965   2.892   0.766   6.781 -0.0364 -0.2253  0.1269
 4955SOL    HW115966   2.959   0.698   6.782 -0.9088 -1.2059 -1.7990
 4955SOL    HW215967   2.918   0.825   6.710 -0.7019 -0.0996 -0.0289
 4956SOL     OW15968   3.943   0.270   8.415  0.3259  0.1878 -0.1774
 4956SOL    HW115969   3.994   0.209   8.469 -0.4013 -1.3121 -1.1158
 4956SOL    HW215970   3.923   0.343   8.473 -2.2151 -2.2821  2.3080
 4957SOL     OW15971   0.177   8.754   2.640  0.1312 -0.0055 -0.2603
 4957SOL    HW115972   0.112   8.782   2.575 -1.8171  0.0607  1.5990
 4957SOL    HW215973   0.204   8.667   2.610 -1.2297 -0.2636 -0.8323
 4958SOL     OW15974   7.359   3.108   0.309 -0.5706  0.1169  0.5253
 4958SOL    HW115975   7.342   3.157   0.390 -0.8176  3.2183 -1.2207
 4958SOL    HW215976   7.422   3.162   0.262  0.6596 -2.3185 -0.7999
 4959SOL     OW15977   0.504   7.321   1.092  0.1467 -0.3288  0.2545
 4959SOL    HW115978   0.433   7.269   1.054 -1.5342  0.0276  2.6559
 4959SOL    HW215979   0.487   7.410   1.061  1.0599 -0.6285 -1.1741
 4960SOL     OW15980   4.082   9.132   1.846  0.1287  0.1082  0.0077
 4960SOL    HW115981   4.003   9.158   1.799  0.0739 -0.0926 -0.0121
 4960SOL    HW215982   4.072   9.170   1.933  0.7336  1.4147 -0.4657
 4961SOL     OW15983   5.656   0.437   3.292  0.2389  0.0314 -0.2742
 4961SOL    HW115984   5.706   0.441   3.373 -0.4323  0.0643  0.1451
 4961SOL    HW215985   5.626   0.526   3.278  1.3932  0.3022 -1.2446
 4962SOL     OW15986   8.918   3.263   0.161  0.2118  0.3271  0.1332
 4962SOL    HW115987   8.884   3.198   0.222  1.3551 -0.1441  0.2869
 4962SOL    HW215988   8.911   3.221   0.075  1.6928 -0.3418  0.3173
 4963SOL     OW15989   0.467   2.015   3.021 -0.1231 -0.3744 -0.3977
 4963SOL    HW115990   0.487   2.008   2.928  0.7265  1.0992 -0.3604
 4963SOL    HW215991   0.423   1.933   3.043  0.4781 -1.1305 -1.8900
 4964SOL     OW15992   8.074   6.727   1.396  0.0740  0.2721  0.2371
 4964SOL    HW115993   8.063   6.814   1.434  0.2705  0.4279 -0.0655
 4964SOL    HW215994   8.164   6.703   1.419  0.2653  0.4564 -0.3157
 4965SOL     OW15995   4.862   0.195   8.151 -0.2953  0.2397  0.4238
 4965SOL    HW115996   4.877   0.120   8.092  1.2647  1.7065 -1.1518
 4965SOL    HW215997   4.933   0.190   8.214 -1.3446 -0.6997  1.5906
 4966SOL     OW15998   5.361   3.543   4.549  0.1341  0.3924 -0.1142
 4966SOL    HW115999   5.422   3.469   4.549  1.3254  1.3151  1.5090
 4966SOL    HW216000   5.276   3.504   4.571  0.5700 -0.6077 -0.1238
 4967SOL     OW16001   8.684   8.277   3.583  0.0901 -0.2301  0.1603
 4967SOL    HW116002   8.647   8.333   3.651 -1.5030 -1.1654  0.1077
 4967SOL    HW216003   8.609   8.230   3.547  1.0429 -0.5666 -1.5074
 4968SOL     OW16004   8.512   3.893   8.683 -1.1269  0.3341 -0.1213
 4968SOL    HW116005   8.512   3.805   8.644  0.8327  0.6219 -0.9458
 4968SOL    HW216006   8.470   3.949   8.617 -1.6721  0.1492  0.0652
 4969SOL     OW16007   6.195   0.385   1.129 -0.1763  0.0030  0.1026
 4969SOL    HW116008   6.111   0.430   1.124  0.1405  0.6253  0.3588
 4969SOL    HW216009   6.178   0.310   1.187 -0.9054 -0.6921 -0.9621
 4970SOL     OW16010   2.488   3.252   8.964  0.2719 -0.1392  0.9550
 4970SOL    HW116011   2.436   3.313   9.018  0.0126  0.3370  0.1849
 4970SOL    HW216012   2.578   3.282   8.975  0.0784  0.8607  0.0204
 4971SOL     OW16013   3.862   4.524   8.370 -0.1312 -0.5459 -0.1127
 4971SOL    HW116014   3.782   4.475   8.392 -0.7321  1.0750  1.5566
 4971SOL    HW216015   3.853   4.543   8.277 -1.0904 -1.4501 -0.2234
 4972SOL     OW16016   2.963   4.990   4.039 -0.0074  0.2739 -0.1098
 4972SOL    HW116017   3.026   5.056   4.008  0.8379 -0.6181 -0.3361
 4972SOL    HW216018   2.972   4.917   3.977  0.6120 -0.9224  1.3244
 4973SOL     OW16019   2.480   7.554   8.316 -0.1002 -0.3055 -0.5048
 4973SOL    HW116020   2.413   7.500   8.274 -0.2664 -1.1775  0.8468
 4973SOL    HW216021   2.544   7.570   8.247 -1.3301 -0.0359 -1.6364
 4974SOL     OW16022   1.551   8.666   4.102  0.1584  0.4267 -0.0670
 4974SOL    HW116023   1.526   8.587   4.150 -0.5512  0.6585 -0.0372
 4974SOL    HW216024   1.469   8.696   4.063  0.9962 -0.8121 -3.0404
 4975SOL     OW16025   1.316   6.209   2.982  0.0342 -0.0610  0.3424
 4975SOL    HW116026   1.336   6.160   2.902  1.2441  0.0041  0.5778
 4975SOL    HW216027   1.395   6.200   3.036 -0.7460 -0.0845  1.5267
 4976SOL     OW16028   2.245   4.827   6.685  0.2065  0.0950  0.0445
 4976SOL    HW116029   2.313   4.888   6.713  0.9906 -0.2224 -1.1023
 4976SOL    HW216030   2.217   4.861   6.600  1.0653 -1.4378 -0.8840
 4977SOL     OW16031   5.139   0.082   5.372  0.4886 -0.2465  0.7205
 4977SOL    HW116032   5.200   0.155   5.358  0.4363 -0.2166  0.6476
 4977SOL    HW216033   5.053   0.120   5.358  0.4014 -0.1073  1.5685
 4978SOL     OW16034   0.053   1.045   5.878 -0.0383 -0.3938  0.3890
 4978SOL    HW116035   0.093   1.103   5.814 -0.3467  0.6998  1.1552
 4978SOL    HW216036  -0.029   1.016   5.837  0.8047 -1.4822 -0.5888
 4979SOL     OW16037   3.747   2.056   7.612  0.5785  0.0890  0.2642
 4979SOL    HW116038   3.776   2.116   7.680  0.8121  0.5183 -0.2032
 4979SOL    HW216039   3.815   1.988   7.610  1.1364  0.6448 -0.2563
 4980SOL     OW16040   7.262   2.808   7.209 -0.0181  0.2955 -0.7819
 4980SOL    HW116041   7.174   2.845   7.208  1.1634  3.5051  0.8463
 4980SOL    HW216042   7.309   2.856   7.141  0.7341 -0.6809 -0.9657
 4981SOL     OW16043   7.927   8.760   7.515 -0.0419 -0.0244 -0.2863
 4981SOL    HW116044   7.986   8.693   7.551 -1.8195 -1.6665 -0.2664
 4981SOL    HW216045   7.953   8.769   7.424 -0.6226 -1.7688 -0.6508
 4982SOL     OW16046   3.242   4.467   1.945  0.2336 -0.0167  0.1096
 4982SOL    HW116047   3.327   4.457   1.903  1.0855  1.5681  1.3693
 4982SOL    HW216048   3.180   4.429   1.882  1.9957 -2.9046 -0.0194
 4983SOL     OW16049   6.020   1.172   4.479 -0.3879 -0.2231  0.0141
 4983SOL    HW116050   5.969   1.232   4.424 -0.6551  0.1890  0.6895
 4983SOL    HW216051   5.960   1.100   4.499 -0.3511 -0.2817 -0.0906
 4984SOL     OW16052   5.196   0.403   8.053 -0.3848  0.6565 -0.0499
 4984SOL    HW116053   5.119   0.370   8.006 -0.2487  1.5306 -0.9350
 4984SOL    HW216054   5.266   0.342   8.029  0.0512  1.9536 -2.3117
 4985SOL     OW16055   3.385   7.213   1.089 -0.3380 -0.0725  0.1828
 4985SOL    HW116056   3.447   7.175   1.027 -0.5136  0.0361 -0.0605
 4985SOL    HW216057   3.330   7.140   1.117 -0.2367 -0.1278  0.2388
 4986SOL     OW16058   3.737   8.004   2.951  0.1593  0.0061  0.5418
 4986SOL    HW116059   3.828   8.008   2.923 -0.2440 -3.2766 -1.7336
 4986SOL    HW216060   3.686   7.995   2.870 -1.8629 -1.6216  1.8853
 4987SOL     OW16061   4.786   5.986   4.646 -0.0737 -0.2030  0.5724
 4987SOL    HW116062   4.717   6.046   4.617  0.9544  0.5955 -0.3239
 4987SOL    HW216063   4.821   6.026   4.725  0.3752  0.2149  0.1707
 4988SOL     OW16064   3.942   4.258   0.390  0.6350 -0.0518 -0.2454
 4988SOL    HW116065   4.003   4.256   0.316  0.3719  1.3620 -0.5156
 4988SOL    HW216066   3.891   4.177   0.381  1.3436 -0.4226 -0.9777
 4989SOL     OW16067   7.885   5.252   5.199  0.1918 -0.0171  0.4986
 4989SOL    HW116068   7.821   5.284   5.263  0.0710 -1.2011  0.9871
 4989SOL    HW216069   7.872   5.157   5.196  1.1037 -0.1391 -0.3006
 4990SOL     OW16070   0.738   5.936   4.826  0.1969 -0.0648  0.0383
 4990SOL    HW116071   0.711   5.870   4.762 -0.2596  0.3817 -0.2442
 4990SOL    HW216072   0.830   5.953   4.806  0.4369 -0.9100  0.3844
 4991SOL     OW16073   8.929   6.139   3.591 -0.1137  0.0671  0.0853
 4991SOL    HW116074   8.979   6.098   3.661 -0.5110  0.4473  0.6020
 4991SOL    HW216075   8.880   6.067   3.551 -0.9088  0.0457  1.0703
 4992SOL     OW16076   0.057   0.949   4.093  0.0756  0.0533 -0.0590
 4992SOL    HW116077   0.095   0.982   4.174  0.3957 -1.3186  0.3891
 4992SOL    HW216078   0.014   1.024   4.053  1.5742  1.1953  0.4118
 4993SOL     OW16079   5.729   8.455   6.845  0.3614 -0.2425 -0.5164
 4993SOL    HW116080   5.776   8.537   6.857  1.0008 -0.7299  0.5329
 4993SOL    HW216081   5.676   8.446   6.924  1.8451 -1.7831  0.3918
 4994SOL     OW16082   0.542   7.800   7.734 -0.2631  0.3223 -0.0320
 4994SOL    HW116083   0.513   7.715   7.702 -0.1672  0.4037 -0.3410
 4994SOL    HW216084   0.466   7.857   7.724 -0.8761 -0.1381  1.8062
 4995SOL     OW16085   2.495   8.949   6.719  0.3535  0.2908 -0.1375
 4995SOL    HW116086   2.496   8.859   6.687 -0.2295  0.6165 -1.1212
 4995SOL    HW216087   2.587   8.970   6.734  0.3852 -1.0684  1.9162
 4996SOL     OW16088   6.381   7.114   0.475 -0.0217  0.2254 -0.6850
 4996SOL    HW116089   6.298   7.157   0.456 -0.3055 -0.9102 -2.2936
 4996SOL    HW216090   6.434   7.181   0.517 -0.7665  1.8733 -2.2327
 4997SOL     OW16091   2.708   2.184   6.578  0.0818 -0.1880 -0.1000
 4997SOL    HW116092   2.801   2.182   6.555 -0.3405  0.7806 -2.1392
 4997SOL    HW216093   2.686   2.093   6.599  1.3795 -0.4981  0.0047
 4998SOL     OW16094   8.159   6.716   2.126  0.1203  0.2344  0.4253
 4998SOL    HW116095   8.231   6.737   2.065  0.2733 -0.4803  0.3503
 4998SOL    HW216096   8.193   6.644   2.179  0.2456  1.2802  1.8394
 4999SOL     OW16097   5.963   4.350   5.406 -0.1459 -0.2692 -0.5778
 4999SOL    HW116098   6.041   4.387   5.364 -1.9230  0.7523 -3.2297
 4999SOL    HW216099   5.945   4.269   5.358 -0.5725 -0.6405  0.1920
 5000SOL     OW16100   3.115   6.568   3.869 -0.3703  0.0418 -0.0712
 5000SOL    HW116101   3.128   6.606   3.956 -0.0503 -0.2439  0.0064
 5000SOL    HW216102   3.031   6.522   3.875  0.5098 -1.5520  0.6589
 5001SOL     OW16103   3.027   7.099   5.656 -0.2187  0.6293  0.2624
 5001SOL    HW116104   3.045   7.106   5.562 -0.7383  2.3859  0.2656
 5001SOL    HW216105   3.026   7.005   5.673 -1.1577  0.2320 -1.7042
 5002SOL     OW16106   7.909   0.158   8.578  0.0898  0.5720 -0.2999
 5002SOL    HW116107   7.896   0.067   8.604  2.1311  0.5724  0.9163
 5002SOL    HW216108   7.857   0.209   8.640 -1.2329  0.2758 -1.1179
 5003SOL     OW16109   3.876   4.695   0.895  0.6160  0.0054 -0.1677
 5003SOL    HW116110   3.954   4.645   0.872  0.6005 -0.0773 -0.0455
 5003SOL    HW216111   3.909   4.766   0.950  0.6608  0.2401 -0.5028
 5004SOL     OW16112   4.712   6.714   0.499  0.0876  0.7408 -0.2595
 5004SOL    HW116113   4.679   6.624   0.488  0.6647  0.4716  0.1432
 5004SOL    HW216114   4.768   6.728   0.422 -0.9693  1.2149 -0.9679
 5005SOL     OW16115   5.272   1.178   5.845 -0.6343 -0.3535 -0.0110
 5005SOL    HW116116   5.291   1.090   5.876  0.4743  0.1710  0.8845
 5005SOL    HW216117   5.197   1.168   5.787  0.7669 -2.1710 -1.6189
 5006SOL     OW16118   5.464   2.088   7.601 -0.4742 -0.6783 -0.4264
 5006SOL    HW116119   5.452   2.118   7.691 -0.6859  0.3714 -0.7880
 5006SOL    HW216120   5.497   2.165   7.554 -1.2385 -0.9353 -1.4407
 5007SOL     OW16121   2.906   0.284   0.729 -0.1813  0.4891  0.0196
 5007SOL    HW116122   2.848   0.233   0.672 -0.3105  0.8210 -0.1516
 5007SOL    HW216123   2.922   0.227   0.805  1.9165 -0.9621 -1.3887
 5008SOL     OW16124   1.056   1.048   8.024  0.1384  0.1097  0.2441
 5008SOL    HW116125   1.083   0.957   8.008  0.5193  0.2254  0.2224
 5008SOL    HW216126   1.120   1.081   8.087 -1.4166 -0.3893  2.2255
 5009SOL     OW16127   1.589   1.975   2.000  0.6914  0.0772  0.4882
 5009SOL    HW116128   1.582   1.986   1.906  0.6328  0.6595  0.5546
 5009SOL    HW216129   1.673   1.930   2.013 -0.0701 -1.5225  0.0647
 5010SOL     OW16130   4.979   5.048   8.630 -0.0149  0.5650 -0.3920
 5010SOL    HW116131   4.947   4.960   8.606 -2.4772  1.4148 -0.5282
 5010SOL    HW216132   4.952   5.059   8.722  1.9423  0.5087  0.2237
 5011SOL     OW16133   8.367   4.212   2.699 -0.3528  0.1447  0.3598
 5011SOL    HW116134   8.402   4.246   2.616  1.2136 -0.9248  0.5268
 5011SOL    HW216135   8.278   4.184   2.678  0.1232 -0.4219 -1.0814
 5012SOL     OW16136   4.312   4.139   6.768 -0.3139  0.0204  0.1706
 5012SOL    HW116137   4.263   4.124   6.687  0.2140 -0.5253 -0.0562
 5012SOL    HW216138   4.326   4.051   6.804 -1.9185  0.3193  1.6983
 5013SOL     OW16139   2.429   7.104   5.840  0.1816  0.4758 -0.5038
 5013SOL    HW116140   2.485   7.035   5.876 -1.1572 -0.5587 -0.3084
 5013SOL    HW216141   2.380   7.060   5.770 -2.1174  0.6667  0.8872
 5014SOL     OW16142   1.244   2.394   1.023 -0.3565 -0.7328  0.0036
 5014SOL    HW116143   1.335   2.379   1.047 -1.1986 -0.5821  3.9481
 5014SOL    HW216144   1.240   2.486   0.996  0.7441 -0.9737 -1.0492
 5015SOL     OW16145   4.798   0.987   1.439  0.4432  0.1264  0.7058
 5015SOL    HW116146   4.755   1.008   1.356 -0.5996 -0.1743  1.1536
 5015SOL    HW216147   4.784   1.065   1.493 -1.0393 -0.6133  1.4317
 5016SOL     OW16148   9.051   2.999   5.620 -0.0600 -0.3939  0.2715
 5016SOL    HW116149   9.128   3.055   5.622  0.7648 -1.3441 -1.7664
 5016SOL    HW216150   9.082   2.917   5.582 -1.8747 -1.1396  0.2954
 5017SOL     OW16151   7.048   8.375   1.146 -0.2165 -0.3662 -0.3032
 5017SOL    HW116152   7.129   8.355   1.193  0.0551 -0.1083 -0.6531
 5017SOL    HW216153   7.041   8.305   1.080 -1.0724 -1.2492  0.6882
 5018SOL     OW16154   6.992   7.331   0.736  0.7549  0.2314  0.1459
 5018SOL    HW116155   6.898   7.320   0.745  1.2044 -2.5273  3.0211
 5018SOL    HW216156   7.008   7.331   0.641 -1.9343 -0.9444 -0.3759
 5019SOL     OW16157   1.683   5.720   1.044  0.2530  0.0808 -0.3240
 5019SOL    HW116158   1.709   5.696   1.133 -0.1024  0.5232 -0.0969
 5019SOL    HW216159   1.724   5.654   0.988 -0.8211 -1.1461  0.2925
 5020SOL     OW16160   0.107   5.510   1.316  0.0008 -0.6016 -0.1211
 5020SOL    HW116161   0.058   5.462   1.249 -0.7854  0.3149 -0.2216
 5020SOL    HW216162   0.191   5.529   1.275 -0.2051 -0.6804 -0.5837
 5021SOL     OW16163   3.781   1.481   2.106  0.0424  0.5520 -0.2304
 5021SOL    HW116164   3.737   1.521   2.181  0.2776  1.1913 -0.4260
 5021SOL    HW216165   3.874   1.499   2.121  0.0305  1.3340 -1.0435
 5022SOL     OW16166   8.058   7.750   1.012  0.0239  0.0873  0.0602
 5022SOL    HW116167   8.078   7.822   1.072  2.7394 -0.0187 -0.6077
 5022SOL    HW216168   8.010   7.687   1.066  0.0657  1.1587  1.4045
 5023SOL     OW16169   3.386   2.899   0.930  0.5678  0.1939  0.0914
 5023SOL    HW116170   3.338   2.819   0.948  0.1679  0.7827  1.8757
 5023SOL    HW216171   3.475   2.882   0.960  0.9122 -0.1176 -1.0655
 5024SOL     OW16172   5.074   2.776   4.041  0.2809  0.0824  0.0604
 5024SOL    HW116173   5.155   2.825   4.050 -0.6215  1.3585  1.9538
 5024SOL    HW216174   5.049   2.753   4.130 -0.5911 -1.7778 -0.6052
 5025SOL     OW16175   7.960   5.188   8.225  0.3608 -0.6737  0.0583
 5025SOL    HW116176   7.872   5.154   8.205  0.0231  0.1684  0.0773
 5025SOL    HW216177   8.014   5.159   8.152 -0.3978  0.5676 -1.0414
 5026SOL     OW16178   5.133   3.026   0.006  0.5195 -0.0585 -0.3530
 5026SOL    HW116179   5.187   3.079   0.064  1.5980 -1.9348  0.4454
 5026SOL    HW216180   5.122   3.079  -0.073  2.5164  0.8638 -0.0495
 5027SOL     OW16181   6.541   7.718   9.060 -0.7123 -0.0400  0.0609
 5027SOL    HW116182   6.626   7.718   9.017 -0.5652 -1.3296  0.3193
 5027SOL    HW216183   6.550   7.657   9.134 -1.3579  1.0987  1.1317
 5028SOL     OW16184   4.094   1.762   0.874 -0.3374  0.2366 -0.2605
 5028SOL    HW116185   4.066   1.831   0.813 -1.3242  0.4499  0.4150
 5028SOL    HW216186   4.098   1.683   0.820 -0.7749  0.5090 -0.7040
 5029SOL     OW16187   4.297   0.894   1.077 -0.0146 -0.0109 -0.0210
 5029SOL    HW116188   4.234   0.962   1.053 -1.4789 -0.7684  1.4323
 5029SOL    HW216189   4.383   0.935   1.067 -0.8423  2.2028  1.1834
 5030SOL     OW16190   7.958   4.542   4.763  0.3277  0.2128 -0.3702
 5030SOL    HW116191   7.988   4.454   4.781  0.3689  0.2530 -0.2411
 5030SOL    HW216192   8.034   4.588   4.727  0.4343  0.3300  0.0079
 5031SOL     OW16193   1.652   1.617   0.112  0.4320  0.3772 -0.7933
 5031SOL    HW116194   1.579   1.666   0.075 -2.4084 -0.5011  2.9665
 5031SOL    HW216195   1.719   1.683   0.131 -1.1048  1.9494 -0.6167
 5032SOL     OW16196   3.078   0.857   0.941 -0.3073  0.5738  0.6171
 5032SOL    HW116197   3.000   0.826   0.987 -0.4352  0.2368  0.1790
 5032SOL    HW216198   3.050   0.935   0.894 -0.5739  0.0339 -0.1347
 5033SOL     OW16199   1.882   0.171   4.810  0.3427  0.1270  0.5309
 5033SOL    HW116200   1.918   0.193   4.896 -0.3358  0.2643  0.7891
 5033SOL    HW216201   1.801   0.223   4.804 -0.4372 -1.0577  0.4671
 5034SOL     OW16202   8.710   2.423   4.859 -0.6674 -0.0299 -0.0018
 5034SOL    HW116203   8.719   2.502   4.805 -0.6058  0.1506  0.2671
 5034SOL    HW216204   8.795   2.414   4.902 -0.5185 -0.5117 -0.3856
 5035SOL     OW16205   6.110   2.022   8.178  0.1885  0.1954 -0.0306
 5035SOL    HW116206   6.105   2.117   8.168  1.8357  0.4239  1.0390
 5035SOL    HW216207   6.199   1.999   8.150 -0.6213 -1.2512 -1.6403
 5036SOL     OW16208   5.332   2.430   3.592 -0.1026 -0.1914  0.2839
 5036SOL    HW116209   5.246   2.389   3.587  0.1351 -0.6672  0.0738
 5036SOL    HW216210   5.341   2.478   3.510 -0.0407 -0.3933  0.1727
 5037SOL     OW16211   0.963   5.615   7.332 -0.5859 -0.9720 -0.2424
 5037SOL    HW116212   0.895   5.587   7.393  0.0114 -1.4404  0.2202
 5037SOL    HW216213   1.013   5.536   7.313  0.6989 -0.3940  0.5470
 5038SOL     OW16214   5.608   1.329   2.276 -0.3701 -0.6011  0.3608
 5038SOL    HW116215   5.607   1.255   2.215  1.3779 -0.0370 -0.4012
 5038SOL    HW216216   5.516   1.341   2.300 -0.8168 -2.3657 -0.2750
 5039SOL     OW16217   6.501   0.791   6.516 -0.6552 -0.3692  0.1845
 5039SOL    HW116218   6.513   0.742   6.435 -0.6501 -2.7525  1.5549
 5039SOL    HW216219   6.590   0.808   6.548 -0.6676 -0.4332  0.2543
 5040SOL     OW16220   3.896   6.533   0.383 -0.1042  0.4483 -0.2251
 5040SOL    HW116221   3.892   6.438   0.393  0.4106  0.4694  0.2685
 5040SOL    HW216222   3.958   6.561   0.451 -0.3102  1.1411 -0.3182
 5041SOL     OW16223   6.669   2.776   6.213  0.4523 -0.1296 -0.0732
 5041SOL    HW116224   6.621   2.828   6.277 -0.6795 -0.7395 -0.4040
 5041SOL    HW216225   6.735   2.729   6.265  0.1399  0.0758  0.5084
 5042SOL     OW16226   0.264   3.282   2.126  0.6647 -0.1187 -0.3522
 5042SOL    HW116227   0.339   3.301   2.070  0.3555  0.4565 -0.5698
 5042SOL    HW216228   0.206   3.357   2.116  0.3246 -0.2897  0.2688
 5043SOL     OW16229   8.506   2.824   0.122 -0.2765  0.2888  0.8371
 5043SOL    HW116230   8.476   2.909   0.089 -0.5149  0.2422  0.9288
 5043SOL    HW216231   8.560   2.789   0.052  1.6881  1.5116  1.6655
 5044SOL     OW16232   4.339   6.991   0.098  0.2255 -0.1981 -0.0149
 5044SOL    HW116233   4.430   6.988   0.126  0.9957  1.0645 -2.1412
 5044SOL    HW216234   4.321   6.902   0.065  0.6986 -0.4380  0.3666
 5045SOL     OW16235   7.625   6.220   0.870 -0.4737  0.6688 -0.2927
 5045SOL    HW116236   7.667   6.258   0.948  1.5431 -0.1639 -0.8949
 5045SOL    HW216237   7.615   6.127   0.892  1.1781  0.1817 -1.3735
 5046SOL     OW16238   0.596   2.586   4.115  0.1592  0.0266  0.1226
 5046SOL    HW116239   0.620   2.494   4.124 -0.3091 -0.0061  1.1408
 5046SOL    HW216240   0.604   2.604   4.021  1.1062 -0.8078  0.0323
 5047SOL     OW16241   8.448   2.198   7.011  0.4840 -0.0061  0.2893
 5047SOL    HW116242   8.482   2.184   6.922 -0.0366 -0.1334  0.1052
 5047SOL    HW216243   8.415   2.112   7.037  1.8979 -0.3093  1.1636
 5048SOL     OW16244   2.276   4.174   1.298  0.1452 -0.3924 -0.3746
 5048SOL    HW116245   2.368   4.147   1.292 -0.2842 -1.6984 -1.7431
 5048SOL    HW216246   2.255   4.205   1.210 -0.7951 -0.3272 -0.1323
 5049SOL     OW16247   2.775   1.390   5.366 -0.0264  0.5437  0.1526
 5049SOL    HW116248   2.867   1.413   5.374 -0.2001  1.1488  0.4768
 5049SOL    HW216249   2.734   1.466   5.326 -0.6727  0.9640  1.5481
 5050SOL     OW16250   1.379   2.799   8.654 -0.4338 -0.0107 -0.2395
 5050SOL    HW116251   1.415   2.885   8.631  1.1008 -0.5745 -0.1175
 5050SOL    HW216252   1.316   2.780   8.585 -0.0406  0.7708 -0.8296
 5051SOL     OW16253   2.502   8.223   5.169 -0.2629  0.6259 -0.3845
 5051SOL    HW116254   2.430   8.284   5.155 -1.6309 -0.2978  1.9968
 5051SOL    HW216255   2.460   8.139   5.185  1.5155 -0.7356 -2.2964
 5052SOL     OW16256   2.081   5.099   5.456  0.2665  0.6160  0.0791
 5052SOL    HW116257   2.090   5.004   5.454 -1.8515  0.2913  2.0897
 5052SOL    HW216258   2.027   5.120   5.380 -0.1985  0.0668  0.2541
 5053SOL     OW16259   4.436   8.091   8.109 -0.4757  0.5814  0.2285
 5053SOL    HW116260   4.487   8.152   8.056  1.2569 -1.0997 -0.1459
 5053SOL    HW216261   4.449   8.121   8.199 -0.3012  1.2187 -0.0023
 5054SOL     OW16262   0.246   3.606   1.279  0.3699  0.1378  0.5468
 5054SOL    HW116263   0.239   3.522   1.234  1.3088  0.4023 -0.1186
 5054SOL    HW216264   0.237   3.584   1.372 -1.2282 -0.4533  0.2848
 5055SOL     OW16265   8.921   8.924   8.297 -0.2615  0.0598 -0.2143
 5055SOL    HW116266   8.990   8.860   8.283 -0.4665 -0.1275 -0.3722
 5055SOL    HW216267   8.847   8.892   8.245 -0.9671 -0.5195  1.0879
 5056SOL     OW16268   0.783   1.666   2.002 -0.0099  0.1111 -0.4997
 5056SOL    HW116269   0.719   1.625   2.060 -1.0522  0.0657 -1.6326
 5056SOL    HW216270   0.850   1.599   1.989  0.0328 -0.0192  0.3151
 5057SOL     OW16271   7.708   8.722   3.365 -0.0706 -0.0252  0.1233
 5057SOL    HW116272   7.642   8.745   3.300  1.5692 -0.4628 -1.7875
 5057SOL    HW216273   7.771   8.793   3.362  0.5857 -0.5828  0.4456
 5058SOL     OW16274   4.706   7.280   8.051 -0.1850 -0.0086  0.1487
 5058SOL    HW116275   4.678   7.247   7.965  0.9736  0.3846 -0.4093
 5058SOL    HW216276   4.713   7.375   8.038 -0.7394  0.1395  0.9075
 5059SOL     OW16277   8.478   1.109   5.901  0.0637  0.1571 -0.1539
 5059SOL    HW116278   8.449   1.061   5.824  0.5778 -3.4590  1.7080
 5059SOL    HW216279   8.420   1.079   5.971  1.9015  0.4544  1.5828
 5060SOL     OW16280   4.802   3.076   2.304 -0.0447 -0.2779  0.5902
 5060SOL    HW116281   4.736   3.109   2.365 -0.1811  1.2896 -0.3580
 5060SOL    HW216282   4.756   3.071   2.220  0.5556 -0.9587  0.2924
 5061SOL     OW16283   4.154   7.037   1.532 -0.1826 -0.0411 -0.3564
 5061SOL    HW116284   4.075   7.036   1.478 -0.3134  0.9341 -0.2081
 5061SOL    HW216285   4.224   7.011   1.472 -0.5707 -0.6332 -0.5590
 5062SOL     OW16286   4.615   4.604   0.218 -0.0462  0.0602  0.0211
 5062SOL    HW116287   4.661   4.524   0.245 -1.0689 -1.0740 -1.3941
 5062SOL    HW216288   4.683   4.671   0.214  0.6003 -0.3554  2.6056
 5063SOL     OW16289   4.540   2.055   3.343  0.0437  0.1115  0.0956
 5063SOL    HW116290   4.517   2.001   3.418 -0.8191  0.9993  0.4898
 5063SOL    HW216291   4.537   1.995   3.268  2.4989 -1.1628  0.9240
 5064SOL     OW16292   0.598   7.431   6.604 -0.1296  0.1363 -0.5727
 5064SOL    HW116293   0.574   7.448   6.695 -0.2763 -0.1058 -0.5662
 5064SOL    HW216294   0.631   7.341   6.604  1.7156  0.7694 -0.3951
 5065SOL     OW16295   7.097   7.470   6.914  0.3276 -0.2237  0.0351
 5065SOL    HW116296   7.010   7.498   6.886 -0.3025 -0.3327  1.7540
 5065SOL    HW216297   7.144   7.552   6.932 -0.9348 -0.0769  3.3583
 5066SOL     OW16298   0.099   0.585   7.072 -0.0609  0.0714  0.7927
 5066SOL    HW116299   0.112   0.517   7.138 -0.1322 -0.3633  0.3646
 5066SOL    HW216300   0.081   0.664   7.123 -1.7882 -0.5928  1.2715
 5067SOL     OW16301   8.420   8.377   1.105  0.4626  0.2678 -0.4940
 5067SOL    HW116302   8.473   8.392   1.183 -0.3728 -2.1048  0.6258
 5067SOL    HW216303   8.484   8.361   1.035  1.2208  2.4636 -0.3861
 5068SOL     OW16304   6.231   8.306   6.185 -0.1184  0.1884 -0.0495
 5068SOL    HW116305   6.246   8.287   6.278 -1.6118 -0.2021  0.1547
 5068SOL    HW216306   6.158   8.248   6.161  0.4169  0.0859 -1.5515
 5069SOL     OW16307   7.956   4.674   0.771  0.3111  0.2701 -0.2786
 5069SOL    HW116308   7.900   4.639   0.702  1.2517 -1.1106 -0.3910
 5069SOL    HW216309   8.041   4.632   0.756  0.8277  0.7920  1.0632
 5070SOL     OW16310   3.349   0.778   4.815  0.2359  0.0812 -0.6615
 5070SOL    HW116311   3.362   0.802   4.723 -1.3785 -0.5105 -1.0776
 5070SOL    HW216312   3.429   0.806   4.858  1.2923 -0.1785 -2.3566
 5071SOL     OW16313   2.908   1.930   2.611  0.1573  0.5141 -0.2333
 5071SOL    HW116314   2.901   2.023   2.589  1.3024  0.7678  0.3477
 5071SOL    HW216315   2.836   1.914   2.671 -1.5216  0.4031 -2.1880
 5072SOL     OW16316   9.069   5.105   0.183  0.2991 -0.2185  0.6508
 5072SOL    HW116317   9.097   5.192   0.155  0.7650 -0.4883  0.2580
 5072SOL    HW216318   8.993   5.085   0.128  0.6935 -0.3954  0.1654
 5073SOL     OW16319   2.493   2.378   5.191  0.6107 -0.0728  0.0622
 5073SOL    HW116320   2.540   2.461   5.178  0.6730  0.1383  1.5558
 5073SOL    HW216321   2.402   2.404   5.203  0.4802 -0.3017 -0.4119
 5074SOL     OW16322   0.618   0.954   4.057 -0.1019  0.2334 -0.0431
 5074SOL    HW116323   0.532   0.997   4.051 -0.3838 -0.5556 -3.4364
 5074SOL    HW216324   0.599   0.861   4.042  1.2769 -0.0405 -0.1941
 5075SOL     OW16325   5.342   8.820   2.770  0.0972  0.2256 -0.2579
 5075SOL    HW116326   5.349   8.781   2.682 -0.6324  0.3908 -0.3978
 5075SOL    HW216327   5.370   8.911   2.757 -3.2985  1.2968 -1.1191
 5076SOL     OW16328   8.763   8.421   3.923 -0.3405  0.7482  0.0324
 5076SOL    HW116329   8.765   8.447   4.015  1.3931  3.2109 -0.6002
 5076SOL    HW216330   8.855   8.410   3.900 -0.8223 -1.9178 -0.9451
 5077SOL     OW16331   7.126   8.285   9.086 -0.4926 -0.2359 -0.0472
 5077SOL    HW116332   7.182   8.316   9.158  0.8598 -1.8536 -0.3400
 5077SOL    HW216333   7.051   8.245   9.130  0.3336 -1.2401  0.5127
 5078SOL     OW16334   7.162   1.167   6.702 -0.2046  0.3358  0.3701
 5078SOL    HW116335   7.081   1.117   6.696 -1.3361  2.1439 -0.5595
 5078SOL    HW216336   7.231   1.105   6.681 -1.4085 -1.1188  0.5717
 5079SOL     OW16337   1.315   2.482   0.499 -0.0520  0.0907 -0.2245
 5079SOL    HW116338   1.261   2.407   0.472  0.4294 -0.4708  0.3256
 5079SOL    HW216339   1.330   2.467   0.592  1.3654  0.0367 -0.4473
 5080SOL     OW16340   0.111   7.837   1.278  0.1859  0.3791  0.6470
 5080SOL    HW116341   0.198   7.861   1.310  0.6243 -0.1151 -0.1194
 5080SOL    HW216342   0.062   7.812   1.356  0.6003  1.0729  1.1330
 5081SOL     OW16343   9.078   5.514   1.962  0.3099 -0.4751  1.2040
 5081SOL    HW116344   9.091   5.428   1.924  1.7250 -0.9117  2.5949
 5081SOL    HW216345   9.102   5.504   2.054  0.3151  1.3503  1.4413
 5082SOL     OW16346   1.351   5.458   3.091  0.3432 -0.0715 -0.1774
 5082SOL    HW116347   1.331   5.401   3.017  2.0780  0.1765 -0.8933
 5082SOL    HW216348   1.383   5.539   3.050  0.2896  0.4820  0.8428
 5083SOL     OW16349   2.798   5.527   3.194  0.5348 -0.6252  0.6432
 5083SOL    HW116350   2.714   5.484   3.209  0.8520 -0.7958  2.1480
 5083SOL    HW216351   2.841   5.474   3.128 -0.4139 -0.6930  0.0538
 5084SOL     OW16352   0.755   2.884   6.310  0.0246  0.2116 -0.3057
 5084SOL    HW116353   0.668   2.912   6.341 -0.7497 -2.0989 -0.2545
 5084SOL    HW216354   0.770   2.800   6.354  2.0815  0.3152 -0.7302
 5085SOL     OW16355   1.365   3.423   7.306 -0.0413 -0.3761  0.0820
 5085SOL    HW116356   1.368   3.363   7.231 -0.3580  0.9104 -0.9913
 5085SOL    HW216357   1.282   3.403   7.350 -0.2707 -0.5478 -0.4211
 5086SOL     OW16358   8.405   9.035   4.445 -0.1041  0.6989 -0.3627
 5086SOL    HW116359   8.434   8.980   4.518 -1.8618  0.8056  0.4529
 5086SOL    HW216360   8.421   9.124   4.474 -0.8120  0.7417 -0.0938
 5087SOL     OW16361   0.489   0.336   8.906  0.6712  0.2971  0.2792
 5087SOL    HW116362   0.452   0.249   8.897 -0.4497  0.7772  0.0665
 5087SOL    HW216363   0.506   0.364   8.816  0.0019  0.7223  0.2826
 5088SOL     OW16364   4.694   7.680   1.428 -0.3471  0.3205  0.2749
 5088SOL    HW116365   4.702   7.717   1.516  1.1110  1.0269 -0.1162
 5088SOL    HW216366   4.605   7.700   1.402  0.1029  2.9160  0.4305
 5089SOL     OW16367   7.890   0.886   5.438  0.1332  0.0251 -0.3903
 5089SOL    HW116368   7.871   0.795   5.459 -1.2024  0.0185 -1.4911
 5089SOL    HW216369   7.810   0.933   5.460  0.8198  0.9466  0.1815
 5090SOL     OW16370   2.624   6.606   4.037 -0.5118  0.3822 -0.5537
 5090SOL    HW116371   2.574   6.687   4.027  0.0694  0.6982 -1.0035
 5090SOL    HW216372   2.638   6.576   3.947  0.5156  0.5630 -0.4661
 5091SOL     OW16373   5.355   2.919   3.213 -0.2995  0.3121 -0.2765
 5091SOL    HW116374   5.335   2.828   3.189 -0.9181  0.0471  1.1468
 5091SOL    HW216375   5.445   2.916   3.246  0.0226  0.4080 -1.1177
 5092SOL     OW16376   7.265   5.799   4.760  0.2928 -0.1572 -0.0823
 5092SOL    HW116377   7.262   5.890   4.790  1.6939 -0.5955  1.5519
 5092SOL    HW216378   7.210   5.751   4.822  0.9547 -0.6751  0.1161
 5093SOL     OW16379   6.146   5.591   5.883 -0.4929 -0.1321  0.2679
 5093SOL    HW116380   6.115   5.677   5.855 -2.5982 -0.0511  2.5254
 5093SOL    HW216381   6.154   5.540   5.802 -2.3501  1.2253 -0.8229
 5094SOL     OW16382   8.822   7.786   7.918  0.0502  0.2295  0.2512
 5094SOL    HW116383   8.745   7.753   7.963 -0.4712  0.0005 -0.7773
 5094SOL    HW216384   8.892   7.784   7.984 -0.0690 -2.4437  0.4055
 5095SOL     OW16385   2.409   3.055   8.802 -0.1786 -0.3861  0.2069
 5095SOL    HW116386   2.498   3.043   8.768  0.3475  1.5911  0.7734
 5095SOL    HW216387   2.417   3.125   8.867 -2.3321  0.5895 -0.4979
 5096SOL     OW16388   2.664   7.599   6.477  0.0351 -0.4257 -0.4250
 5096SOL    HW116389   2.679   7.651   6.556 -1.3166  1.8477 -1.5603
 5096SOL    HW216390   2.586   7.547   6.498  1.3177 -1.9960  0.6722
 5097SOL     OW16391   2.117   0.775   8.283  0.2513  0.1799  0.2577
 5097SOL    HW116392   2.038   0.760   8.231 -0.4601  2.4224  0.5961
 5097SOL    HW216393   2.160   0.849   8.240  0.8915  0.5412  1.4751
 5098SOL     OW16394   6.329   5.211   2.844 -0.4604  0.1997  0.0734
 5098SOL    HW116395   6.294   5.288   2.799  1.6349  1.6589  0.7720
 5098SOL    HW216396   6.392   5.174   2.783 -1.4327 -0.9980 -0.2436
 5099SOL     OW16397   5.638   5.629   2.656  0.2584 -0.0536  0.6186
 5099SOL    HW116398   5.661   5.616   2.565  0.5788  2.0236  0.3415
 5099SOL    HW216399   5.663   5.548   2.700  0.2357 -1.0278 -1.0884
 5100SOL     OW16400   5.830   1.126   7.665 -0.4785  0.0575  0.2029
 5100SOL    HW116401   5.742   1.150   7.695  0.1619 -0.2759  2.5011
 5100SOL    HW216402   5.815   1.056   7.601 -1.8790  0.0208  0.5379
 5101SOL     OW16403   0.546   2.274   5.807  0.3871  0.2213 -0.2705
 5101SOL    HW116404   0.484   2.235   5.746 -0.1539  1.1427 -0.3262
 5101SOL    HW216405   0.597   2.335   5.754  0.6812  0.1865 -0.0286
 5102SOL     OW16406   2.429   8.483   7.649  0.9104  0.7342  0.3098
 5102SOL    HW116407   2.334   8.479   7.658  0.8613 -0.5257 -0.5311
 5102SOL    HW216408   2.450   8.576   7.660 -0.5120  1.1833 -0.4330
 5103SOL     OW16409   8.210   2.903   1.292  0.1009 -0.2660 -0.9273
 5103SOL    HW116410   8.219   2.945   1.206  1.8872 -1.1661 -1.2146
 5103SOL    HW216411   8.296   2.866   1.310 -0.3337 -0.3859  1.1210
 5104SOL     OW16412   4.984   3.116   0.247  0.4055 -0.3628  0.1454
 5104SOL    HW116413   4.950   3.110   0.158  0.3976  0.2044  0.1068
 5104SOL    HW216414   5.057   3.177   0.241 -0.2436  0.4806  0.7189
 5105SOL     OW16415   3.257   3.075   1.556  0.1858 -0.2554 -0.0894
 5105SOL    HW116416   3.200   3.007   1.591 -1.7675  1.8042  0.9356
 5105SOL    HW216417   3.238   3.076   1.462 -0.8306 -0.1636  0.1087
 5106SOL     OW16418   8.488   8.540   3.261  0.2198 -0.3954 -0.1561
 5106SOL    HW116419   8.439   8.588   3.328  0.1091  0.3197 -0.7346
 5106SOL    HW216420   8.447   8.454   3.258 -0.7057  0.0434 -0.3151
 5107SOL     OW16421   4.216   1.032   4.137 -0.2962  0.0024 -0.7444
 5107SOL    HW116422   4.213   1.127   4.129 -0.9683  0.0013 -0.5624
 5107SOL    HW216423   4.266   1.016   4.217 -1.5342  0.2532  0.1050
 5108SOL     OW16424   6.417   1.988   6.086  0.4711  0.2372  0.2581
 5108SOL    HW116425   6.413   2.081   6.110  0.7366  0.9819 -2.2605
 5108SOL    HW216426   6.334   1.972   6.039  0.8720 -0.4994 -0.2254
 5109SOL     OW16427   6.389   4.903   2.079 -0.0415 -0.1634 -0.5872
 5109SOL    HW116428   6.400   4.821   2.030  1.6175  0.5443 -1.4684
 5109SOL    HW216429   6.478   4.936   2.091 -0.7087  1.7620 -0.6552
 5110SOL     OW16430   8.647   4.023   2.617 -0.3913 -0.7335  0.4488
 5110SOL    HW116431   8.631   4.044   2.525  0.2554  0.3222  0.5639
 5110SOL    HW216432   8.574   3.965   2.641 -1.5603  0.3851 -0.2403
 5111SOL     OW16433   0.524   4.231   8.780  0.1338  0.9205  0.1507
 5111SOL    HW116434   0.462   4.287   8.734  0.2568 -0.0918 -1.2862
 5111SOL    HW216435   0.609   4.253   8.742  0.1039 -0.6605 -0.9064
 5112SOL     OW16436   1.725   9.016   8.612  0.2786 -0.3423  0.3024
 5112SOL    HW116437   1.747   8.988   8.701  0.1236 -0.7530  0.2102
 5112SOL    HW216438   1.729   8.937   8.559 -0.7476 -0.3151  0.1565
 5113SOL     OW16439   5.260   0.827   6.898  0.0417 -0.1797  0.1635
 5113SOL    HW116440   5.318   0.772   6.846  2.3609  1.5249  0.7716
 5113SOL    HW216441   5.224   0.769   6.964  0.6762 -1.3967 -0.5355
 5114SOL     OW16442   7.267   0.569   1.613  0.2739 -0.6002  0.4341
 5114SOL    HW116443   7.230   0.576   1.700 -0.4466 -0.5275  0.1283
 5114SOL    HW216444   7.222   0.637   1.562 -0.5035 -1.6946 -0.4011
 5115SOL     OW16445   7.922   7.756   8.469  0.1910 -0.1572  0.2294
 5115SOL    HW116446   7.847   7.713   8.510 -0.3239  0.5760  0.0608
 5115SOL    HW216447   7.900   7.759   8.376 -0.3495  1.5696  0.3813
 5116SOL     OW16448   0.936   4.917   7.446 -0.7016  0.4426  0.4430
 5116SOL    HW116449   0.959   5.002   7.484 -1.3152  0.9914 -0.3800
 5116SOL    HW216450   0.966   4.921   7.356  0.5235 -0.7621  0.7693
 5117SOL     OW16451   1.942   3.004   8.823  0.2063  0.4412  0.6502
 5117SOL    HW116452   1.888   3.064   8.874 -0.0769  0.9284 -0.1918
 5117SOL    HW216453   2.030   3.012   8.861 -0.3583 -0.6414  2.2715
 5118SOL     OW16454   0.344   1.069   0.438 -0.3290  0.3553  0.3803
 5118SOL    HW116455   0.365   1.149   0.486 -0.6223  0.1646  0.8248
 5118SOL    HW216456   0.325   1.100   0.349  1.0305  0.6118  0.1566
 5119SOL     OW16457   7.251   2.259   5.981 -0.0262 -0.0063  0.4253
 5119SOL    HW116458   7.185   2.211   5.931 -0.1855  0.2787  0.3551
 5119SOL    HW216459   7.242   2.350   5.950 -1.5705  0.6066  2.4113
 5120SOL     OW16460   1.017   6.230   1.914 -0.0472 -0.2155  0.0996
 5120SOL    HW116461   1.070   6.195   1.987 -0.2171 -0.1074  0.2759
 5120SOL    HW216462   1.072   6.218   1.837  0.4148  0.2872  0.3417
 5121SOL     OW16463   8.389   6.642   1.468 -0.1784 -0.0328  0.1697
 5121SOL    HW116464   8.420   6.661   1.379 -1.0052  0.2268 -0.0696
 5121SOL    HW216465   8.406   6.548   1.480  1.5513  0.2810  0.4010
 5122SOL     OW16466   1.610   1.592   8.711 -0.2350 -0.3792 -0.4842
 5122SOL    HW116467   1.699   1.580   8.744  0.2604  1.1491 -1.1699
 5122SOL    HW216468   1.579   1.503   8.691  1.6868 -0.8507 -1.6120
 5123SOL     OW16469   1.899   4.187   2.225  0.0540  0.4904 -0.1173
 5123SOL    HW116470   1.821   4.229   2.190  0.2055  0.7268 -0.1731
 5123SOL    HW216471   1.959   4.259   2.243  1.2938  0.1914 -2.5388
 5124SOL     OW16472   0.661   8.053   1.844 -0.5645 -0.1631  0.0156
 5124SOL    HW116473   0.709   8.081   1.766 -0.0721  0.8732  0.6555
 5124SOL    HW216474   0.652   8.133   1.895 -0.0195 -0.9884  1.4687
 5125SOL     OW16475   8.521   5.809   1.887  0.1812 -0.9578 -0.2587
 5125SOL    HW116476   8.607   5.849   1.877  0.9008 -2.4013  0.0097
 5125SOL    HW216477   8.460   5.883   1.884  1.4256  0.0961 -0.2969
 5126SOL     OW16478   5.421   0.368   4.945 -0.1701 -0.5130 -0.1255
 5126SOL    HW116479   5.383   0.350   4.859 -2.2116 -1.1656  0.8443
 5126SOL    HW216480   5.512   0.340   4.937 -0.5597 -1.4342 -1.8153
 5127SOL     OW16481   4.130   8.363   5.331  0.2535  0.1109  0.1114
 5127SOL    HW116482   4.159   8.272   5.338 -1.8405 -0.5869  0.6117
 5127SOL    HW216483   4.080   8.379   5.411 -0.8238  1.1402 -0.7231
 5128SOL     OW16484   5.319   3.501   2.406  0.0280  0.1659 -0.0382
 5128SOL    HW116485   5.261   3.441   2.452  0.4293  0.9788  1.5866
 5128SOL    HW216486   5.319   3.470   2.315 -3.8458  0.7780 -0.4028
 5129SOL     OW16487   1.687   0.983   3.240  0.0323  0.1206 -0.0996
 5129SOL    HW116488   1.778   1.011   3.248 -0.1417  1.4214 -2.1235
 5129SOL    HW216489   1.641   1.058   3.204 -1.6155 -0.9113 -0.2701
 5130SOL     OW16490   0.082   9.100   6.313 -0.4988  0.4025 -0.1962
 5130SOL    HW116491   0.072   9.090   6.408 -1.1300  0.2925 -0.2694
 5130SOL    HW216492   0.072   9.194   6.298 -1.5706  0.2868 -0.2763
 5131SOL     OW16493   2.970   0.360   4.089 -0.3392 -0.0059 -0.4905
 5131SOL    HW116494   3.049   0.397   4.050  0.5976 -1.7420 -0.3673
 5131SOL    HW216495   2.988   0.266   4.096 -1.6489 -0.1970  1.3433
 5132SOL     OW16496   4.165   2.778   7.366 -0.3390 -0.2149 -0.6473
 5132SOL    HW116497   4.227   2.737   7.427  1.4046 -0.2759 -2.3308
 5132SOL    HW216498   4.114   2.838   7.420 -0.1357 -1.5768  1.1615
 5133SOL     OW16499   8.848   7.091   1.885 -0.0078  0.2187 -0.2118
 5133SOL    HW116500   8.838   7.083   1.790 -3.0656 -1.0446  0.1042
 5133SOL    HW216501   8.898   7.014   1.911 -3.2675 -2.1824 -0.4340
 5134SOL     OW16502   7.960   0.773   0.745 -0.3013  0.0720 -0.2514
 5134SOL    HW116503   8.041   0.815   0.773 -0.5531  0.0655  0.4991
 5134SOL    HW216504   7.893   0.839   0.757 -0.5451 -0.2133 -0.0259
 5135SOL     OW16505   2.888   3.030   3.707 -0.1566 -0.4189  0.0510
 5135SOL    HW116506   2.950   2.973   3.752 -0.5038 -1.2897 -0.5552
 5135SOL    HW216507   2.868   3.098   3.771  0.3572 -0.9014  0.7441
 5136SOL     OW16508   7.194   3.518   4.996  0.3485  0.0148 -0.2552
 5136SOL    HW116509   7.157   3.605   4.982 -0.8167 -0.1651  1.3943
 5136SOL    HW216510   7.194   3.478   4.909 -0.8193  1.0161 -0.7445
 5137SOL     OW16511   5.995   4.825   1.713 -0.0254 -0.0347 -0.0925
 5137SOL    HW116512   6.030   4.800   1.628  0.7776 -0.4692  0.3579
 5137SOL    HW216513   5.931   4.893   1.693 -0.8679 -1.0984 -1.1625
 5138SOL     OW16514   7.150   3.700   6.066  0.3259  0.1844  0.3024
 5138SOL    HW116515   7.104   3.664   6.142  2.2569  0.4338  1.6494
 5138SOL    HW216516   7.202   3.772   6.101  0.9780  0.5562 -1.3415
 5139SOL     OW16517   2.854   9.062   7.659  0.1599  0.5945 -0.1183
 5139SOL    HW116518   2.867   9.020   7.574 -1.1992 -2.9183  1.2310
 5139SOL    HW216519   2.773   9.113   7.648  0.3622  0.7263 -1.0821
 5140SOL     OW16520   5.689   2.951   5.331  0.5464 -0.1491  0.6211
 5140SOL    HW116521   5.764   2.898   5.304 -0.3591 -0.9572 -0.3836
 5140SOL    HW216522   5.653   2.985   5.250 -0.0325  0.4391  1.1133
 5141SOL     OW16523   3.921   2.636   2.152  0.1436  0.3192 -0.3967
 5141SOL    HW116524   3.829   2.614   2.169  0.1541 -0.1993 -0.9835
 5141SOL    HW216525   3.965   2.552   2.146  0.7046  0.5703  0.0896
 5142SOL     OW16526   1.127   3.513   8.405  0.1720  0.1996 -0.2782
 5142SOL    HW116527   1.063   3.580   8.428  0.5649  1.4953 -2.5967
 5142SOL    HW216528   1.090   3.472   8.326  0.8409 -1.0268  0.0332
 5143SOL     OW16529   0.715   8.766   2.095 -0.6642  0.0894  0.1387
 5143SOL    HW116530   0.643   8.708   2.074 -0.2801 -0.5035  0.4438
 5143SOL    HW216531   0.704   8.785   2.188  0.0011 -0.6211  0.3738
 5144SOL     OW16532   0.601   0.897   7.019  0.2285  0.1840  0.2176
 5144SOL    HW116533   0.677   0.839   7.018  0.5737  0.5908  1.5756
 5144SOL    HW216534   0.627   0.971   6.964  0.4753 -0.0940 -0.0452
 5145SOL     OW16535   8.397   4.085   8.510  0.2584 -0.4329 -0.0480
 5145SOL    HW116536   8.432   4.161   8.463 -2.0103 -0.1453 -1.4317
 5145SOL    HW216537   8.328   4.121   8.566 -1.8478 -1.5037 -1.7778
 5146SOL     OW16538   6.896   3.560   4.998 -0.3590  0.3107 -0.1002
 5146SOL    HW116539   6.828   3.499   5.026  0.4007 -0.4314  0.1578
 5146SOL    HW216540   6.978   3.519   5.025  0.1087  2.6861  2.5461
 5147SOL     OW16541   5.335   7.831   8.760 -0.0097  0.0671 -0.1639
 5147SOL    HW116542   5.318   7.737   8.753  1.6212 -0.3144  0.4756
 5147SOL    HW216543   5.312   7.866   8.674  0.6306 -1.1496 -0.8729
 5148SOL     OW16544   2.361   5.872   5.849 -0.2209 -0.2376 -0.0018
 5148SOL    HW116545   2.332   5.842   5.935 -0.2374  0.0221  0.0849
 5148SOL    HW216546   2.386   5.792   5.802  1.2248 -0.2792  0.7673
 5149SOL     OW16547   3.727   0.349   6.717  0.2050 -0.1314  0.1927
 5149SOL    HW116548   3.718   0.291   6.793 -2.0728  1.0538  0.8903
 5149SOL    HW216549   3.785   0.419   6.748  2.2672 -1.4652 -0.3900
 5150SOL     OW16550   4.031   6.484   5.705  0.2119  0.3154  0.2791
 5150SOL    HW116551   3.968   6.550   5.675  0.5561 -0.9659 -3.8986
 5150SOL    HW216552   4.114   6.512   5.667  1.0733 -0.7881  1.2781
 5151SOL     OW16553   4.231   0.429   0.457  0.2473 -0.2103  0.2420
 5151SOL    HW116554   4.219   0.387   0.542 -0.3498  1.2860  0.9282
 5151SOL    HW216555   4.143   0.430   0.418  0.4526 -0.5607 -0.2413
 5152SOL     OW16556   0.043   6.519   6.856 -0.6329 -0.2045  0.1125
 5152SOL    HW116557   0.117   6.512   6.796 -0.7490 -2.2692  0.1286
 5152SOL    HW216558   0.082   6.551   6.938 -0.0541  0.3094 -0.3588
 5153SOL     OW16559   2.936   1.689   2.491  0.4780 -0.1490 -0.0168
 5153SOL    HW116560   2.928   1.783   2.509  0.3182 -0.0783 -0.4587
 5153SOL    HW216561   2.852   1.653   2.518  0.7644 -0.2617  0.7433
 5154SOL     OW16562   0.511   3.467   7.151 -0.1223 -0.0559 -0.3751
 5154SOL    HW116563   0.458   3.439   7.077 -0.9448  2.3044 -0.7757
 5154SOL    HW216564   0.466   3.432   7.228 -1.3044  0.4796 -0.8103
 5155SOL     OW16565   2.209   7.553   0.495  0.3749 -0.1079  0.5036
 5155SOL    HW116566   2.120   7.584   0.514 -0.7196 -2.0174 -1.0771
 5155SOL    HW216567   2.195   7.470   0.449  2.9943 -0.1675 -0.3000
 5156SOL     OW16568   4.404   1.389   0.064 -0.1632 -0.1048  0.4459
 5156SOL    HW116569   4.382   1.296   0.053 -0.4359  0.2213 -2.7491
 5156SOL    HW216570   4.384   1.428  -0.021  0.0832  2.8915  1.6519
 5157SOL     OW16571   8.620   1.703   2.109  0.2972  0.2119 -0.1868
 5157SOL    HW116572   8.599   1.704   2.203 -0.6610  1.2968 -0.3806
 5157SOL    HW216573   8.715   1.696   2.106  0.4152  0.9713  0.8985
 5158SOL     OW16574   2.571   5.375   3.867 -0.4199  0.0980 -0.1402
 5158SOL    HW116575   2.522   5.296   3.843 -0.8049  0.5297 -0.8213
 5158SOL    HW216576   2.525   5.446   3.821 -2.5626  1.3823  3.5834
 5159SOL     OW16577   5.400   5.464   4.624 -0.4386 -0.3471  0.4185
 5159SOL    HW116578   5.341   5.388   4.624  0.0581 -0.7950 -1.8467
 5159SOL    HW216579   5.356   5.528   4.680 -1.8844 -1.5467  0.7222
 5160SOL     OW16580   8.119   5.067   8.049  0.2249 -0.2388 -0.6547
 5160SOL    HW116581   8.071   4.988   8.024  2.0156 -1.6518  0.1534
 5160SOL    HW216582   8.189   5.073   7.984  1.3762 -0.5761  0.5294
 5161SOL     OW16583   4.816   1.196   3.503 -0.0764  0.4044 -0.1422
 5161SOL    HW116584   4.769   1.240   3.573 -2.2951 -1.7678 -0.1182
 5161SOL    HW216585   4.897   1.165   3.543  0.1305  1.8285  0.5862
 5162SOL     OW16586   3.532   6.305   6.755 -0.2148  0.2013  0.0297
 5162SOL    HW116587   3.529   6.215   6.721 -0.1504  0.6456 -1.1850
 5162SOL    HW216588   3.561   6.358   6.681 -1.7106  1.4391  0.2757
 5163SOL     OW16589   7.670   7.305   3.074  0.1831  0.5901  0.2450
 5163SOL    HW116590   7.684   7.216   3.041 -0.6756 -0.1925  1.8676
 5163SOL    HW216591   7.726   7.360   3.019 -1.3664 -0.5347 -2.6742
 5164SOL     OW16592   4.269   4.902   0.779 -0.4762  0.3091  0.3445
 5164SOL    HW116593   4.194   4.919   0.836 -1.4840 -1.2276 -0.4582
 5164SOL    HW216594   4.250   4.818   0.738  1.4939  0.0887 -0.2303
 5165SOL     OW16595   0.512   5.555   8.923 -0.3916  0.0898  0.9458
 5165SOL    HW116596   0.507   5.650   8.910  0.7414 -0.0657 -1.2400
 5165SOL    HW216597   0.569   5.544   8.999 -0.2304  1.1650  0.9946
 5166SOL     OW16598   7.535   4.476   1.943 -0.6828 -0.2647 -0.2817
 5166SOL    HW116599   7.518   4.563   1.979  3.7820 -0.4475  3.1740
 5166SOL    HW216600   7.569   4.492   1.856 -1.1690  1.3023 -0.2149
 5167SOL     OW16601   5.868   3.741   1.762  0.1845 -0.5973  0.3584
 5167SOL    HW116602   5.819   3.682   1.704 -1.4500  0.1620  0.9233
 5167SOL    HW216603   5.879   3.691   1.843 -0.1439 -0.5632  0.4236
 5168SOL     OW16604   1.541   7.319   5.389 -0.4531 -0.6939  0.0588
 5168SOL    HW116605   1.603   7.256   5.353 -0.9979 -0.1741 -1.9095
 5168SOL    HW216606   1.455   7.289   5.358 -0.8708  0.2601  0.2328
 5169SOL     OW16607   7.611   3.063   7.631 -0.5939  0.3451  0.0845
 5169SOL    HW116608   7.685   3.003   7.632  1.1402  2.3140 -1.3906
 5169SOL    HW216609   7.588   3.075   7.723  1.5545  0.4264  0.6499
 5170SOL     OW16610   2.998   8.741   4.223 -0.1816  0.4725  0.2440
 5170SOL    HW116611   2.994   8.712   4.314  0.6377 -0.7570 -0.0877
 5170SOL    HW216612   2.930   8.691   4.178  0.1272  0.2774 -0.0143
 5171SOL     OW16613   1.735   5.874   0.717  0.0165  0.0279 -0.4459
 5171SOL    HW116614   1.753   5.926   0.795 -1.7049  0.8806 -0.5707
 5171SOL    HW216615   1.805   5.808   0.715  1.2152  1.2094  0.7075
 5172SOL     OW16616   5.757   0.080   0.811 -0.0085 -0.0222  0.0998
 5172SOL    HW116617   5.838   0.127   0.790  0.0425  0.1025  0.5593
 5172SOL    HW216618   5.688   0.130   0.766  0.1291  0.0778 -0.0018
 5173SOL     OW16619   2.935   7.530   2.172 -0.5760 -0.7293  0.0745
 5173SOL    HW116620   2.937   7.451   2.226  0.6052  0.6563  2.1906
 5173SOL    HW216621   2.860   7.579   2.203  1.5798  1.3235  2.5391
 5174SOL     OW16622   3.769   9.111   8.438  0.6308 -0.2676  0.2139
 5174SOL    HW116623   3.807   9.030   8.402  0.6597 -0.5014  0.7601
 5174SOL    HW216624   3.679   9.111   8.407  0.9442  0.0751 -0.7390
 5175SOL     OW16625   0.466   4.754   5.149 -0.8770 -0.4146 -0.6922
 5175SOL    HW116626   0.482   4.673   5.102  0.4024  1.1852 -3.1952
 5175SOL    HW216627   0.403   4.801   5.095 -0.1030  1.0738 -0.3562
 5176SOL     OW16628   0.070   6.059   6.205  0.1793  0.5315  0.2826
 5176SOL    HW116629   0.035   6.142   6.237  1.7646  0.6104  1.9663
 5176SOL    HW216630   0.029   5.992   6.259 -0.7544  0.2113 -0.7761
 5177SOL     OW16631   4.909   5.931   6.149 -0.0318 -0.3744 -0.1149
 5177SOL    HW116632   4.914   5.954   6.242  0.9673  0.0438 -0.2585
 5177SOL    HW216633   4.819   5.948   6.125 -0.4266 -0.9401  0.8933
 5178SOL     OW16634   5.208   3.963   3.188 -0.2298 -0.1101  0.5378
 5178SOL    HW116635   5.122   3.965   3.146 -0.1269  0.5262  0.3385
 5178SOL    HW216636   5.259   4.029   3.141  0.2011 -0.1013  1.0044
 5179SOL     OW16637   3.061   0.799   8.569  0.4496  0.1927  0.1123
 5179SOL    HW116638   3.112   0.806   8.650  1.6287 -1.1129 -0.4594
 5179SOL    HW216639   3.111   0.737   8.516 -0.7173  0.4272 -1.3013
 5180SOL     OW16640   0.069   4.216   7.571  0.1072 -0.6131 -0.4122
 5180SOL    HW116641  -0.004   4.155   7.578  0.8316 -1.5357 -0.6784
 5180SOL    HW216642   0.144   4.161   7.547  0.9637  0.2634  0.1846
 5181SOL     OW16643   3.713   1.561   2.354 -0.2267  0.6846 -0.6891
 5181SOL    HW116644   3.780   1.626   2.377  1.5035 -1.1719 -0.2291
 5181SOL    HW216645   3.632   1.596   2.391  1.2052  1.1038  2.3233
 5182SOL     OW16646   5.176   9.019   5.927 -0.4449 -0.2227  0.0841
 5182SOL    HW116647   5.175   8.961   6.004  1.4777  0.1180  0.4175
 5182SOL    HW216648   5.263   9.008   5.890 -1.3286 -0.3663 -2.0832
 5183SOL     OW16649   7.115   4.311   0.715  0.2032  0.6420 -0.0174
 5183SOL    HW116650   7.117   4.407   0.721  0.5736  0.7051 -0.9601
 5183SOL    HW216651   7.207   4.285   0.717  0.3506  0.5693 -2.9149
 5184SOL     OW16652   6.761   1.287   0.439 -0.1284 -0.3255 -0.1099
 5184SOL    HW116653   6.710   1.282   0.520 -1.2761 -3.0902 -0.8892
 5184SOL    HW216654   6.703   1.250   0.372  1.4605  0.2074 -1.8661
 5185SOL     OW16655   8.452   2.764   4.181 -0.2122  0.2141 -0.3658
 5185SOL    HW116656   8.497   2.708   4.244 -0.5829  1.5111  1.1113
 5185SOL    HW216657   8.364   2.727   4.175 -0.5588  0.7902  0.8544
 5186SOL     OW16658   7.514   5.305   8.182  0.7252 -0.1799  0.2859
 5186SOL    HW116659   7.525   5.241   8.252  0.5570 -0.9556 -0.3773
 5186SOL    HW216660   7.567   5.380   8.209  0.5815 -0.4214  1.2832
 5187SOL     OW16661   7.654   0.988   6.866 -0.3957 -0.8358 -0.0230
 5187SOL    HW116662   7.725   0.963   6.806  2.0161 -0.7242  2.5823
 5187SOL    HW216663   7.587   0.921   6.855  0.5220 -1.5001 -1.8743
 5188SOL     OW16664   6.758   7.339   8.348  0.7656 -0.6574  0.4791
 5188SOL    HW116665   6.690   7.342   8.281  1.6447  1.0901 -0.4167
 5188SOL    HW216666   6.840   7.350   8.299  1.6663 -2.0679  1.5894
 5189SOL     OW16667   4.683   3.634   2.420  0.0612  0.0338 -0.1658
 5189SOL    HW116668   4.733   3.631   2.502 -1.7845 -0.3322  1.0077
 5189SOL    HW216669   4.597   3.599   2.443 -0.6221  0.2340 -2.2047
 5190SOL     OW16670   8.696   2.483   2.413  0.2002 -0.6444 -0.5745
 5190SOL    HW116671   8.664   2.417   2.475 -0.0728  1.2323  1.4238
 5190SOL    HW216672   8.616   2.521   2.375  0.3024 -0.6158 -0.7614
 5191SOL     OW16673   8.332   6.987   3.791 -0.7047  0.3338 -0.2558
 5191SOL    HW116674   8.244   6.986   3.830 -0.1892  0.2747  0.9401
 5191SOL    HW216675   8.321   6.944   3.707 -2.1000  1.5250 -0.7239
 5192SOL     OW16676   1.046   2.650   4.231  0.2705  0.5505  0.1826
 5192SOL    HW116677   1.077   2.562   4.255 -1.9633 -0.4847 -0.3872
 5192SOL    HW216678   0.963   2.659   4.277 -2.1321  0.1723 -3.6479
 5193SOL     OW16679   3.292   5.777   4.064  0.1919 -0.6322  0.6599
 5193SOL    HW116680   3.227   5.737   4.006 -0.9169  0.6304  0.9938
 5193SOL    HW216681   3.289   5.870   4.043 -1.9862  0.3032  4.2865
 5194SOL     OW16682   9.063   8.041   8.158 -0.4419 -0.5550 -0.3368
 5194SOL    HW116683   8.991   7.987   8.191 -1.7764  0.8872 -0.7954
 5194SOL    HW216684   9.079   8.105   8.227  1.6689 -1.9412  0.5469
 5195SOL     OW16685   4.663   4.854   6.813 -0.1433 -0.3070  0.5913
 5195SOL    HW116686   4.683   4.787   6.748 -0.2144 -0.9827  1.2470
 5195SOL    HW216687   4.601   4.811   6.873 -1.0622  0.7126  0.3857
 5196SOL     OW16688   7.637   0.580   6.104 -0.0177  0.0695 -0.1073
 5196SOL    HW116689   7.560   0.633   6.123  1.0855  1.7113 -0.0571
 5196SOL    HW216690   7.707   0.621   6.155  0.5177 -2.6314  1.5432
 5197SOL     OW16691   1.884   6.368   8.511  0.5563  0.1988  0.0942
 5197SOL    HW116692   1.851   6.458   8.522  1.0156  0.3608  0.1823
 5197SOL    HW216693   1.856   6.344   8.423 -1.5573 -0.4323  0.8777
 5198SOL     OW16694   4.762   1.502   8.904 -0.3053  0.5567 -0.2010
 5198SOL    HW116695   4.689   1.441   8.909 -0.3088  0.5222 -0.6521
 5198SOL    HW216696   4.726   1.586   8.932 -0.1622  0.2394  0.9804
 5199SOL     OW16697   7.314   9.130   8.709  0.3041  0.6612  0.5862
 5199SOL    HW116698   7.390   9.114   8.652  1.0548  0.8671  1.5098
 5199SOL    HW216699   7.246   9.072   8.674  0.3845  1.5375 -1.1732
 5200SOL     OW16700   1.615   0.268   2.724  0.0087  0.2241  0.3581
 5200SOL    HW116701   1.563   0.205   2.675  1.9151 -1.1355 -0.0358
 5200SOL    HW216702   1.588   0.258   2.815 -2.3087  1.5189 -0.1102
 5201SOL     OW16703   7.605   6.568   3.508  0.3152  0.3467 -0.9509
 5201SOL    HW116704   7.642   6.555   3.421  1.4852 -0.4504 -0.3608
 5201SOL    HW216705   7.521   6.612   3.493  0.3128 -0.1542 -2.4969
 5202SOL     OW16706   2.208   7.447   2.839  0.8582 -0.0592  0.6891
 5202SOL    HW116707   2.122   7.419   2.809  0.6926  1.6088 -0.5227
 5202SOL    HW216708   2.202   7.447   2.935 -0.6434  0.4772  0.6066
 5203SOL     OW16709   1.155   4.702   7.215 -0.4386 -0.3797  0.4080
 5203SOL    HW116710   1.182   4.642   7.284 -0.6312 -0.9118  0.0312
 5203SOL    HW216711   1.061   4.687   7.207 -0.3134 -0.7953 -0.4023
 5204SOL     OW16712   0.289   0.006   5.163 -0.2400  0.6374 -0.0284
 5204SOL    HW116713   0.266   0.007   5.070 -0.3782  2.0624 -0.0020
 5204SOL    HW216714   0.227   0.067   5.204  0.9661  1.4386  0.6843
 5205SOL     OW16715   7.163   1.285   5.345  0.4911  0.4646 -0.3886
 5205SOL    HW116716   7.123   1.359   5.298 -0.0409  0.0301 -0.6286
 5205SOL    HW216717   7.089   1.240   5.386  0.8189  0.0840 -0.2109
 5206SOL     OW16718   7.601   2.708   8.085  0.2832  0.2677 -0.1795
 5206SOL    HW116719   7.538   2.778   8.101  0.4240  0.5775 -0.9426
 5206SOL    HW216720   7.675   2.728   8.142 -0.4037 -0.2363  0.9079
 5207SOL     OW16721   3.077   1.879   1.156  0.1803 -0.6956  0.9883
 5207SOL    HW116722   3.167   1.866   1.187 -0.2945  0.6719  3.1570
 5207SOL    HW216723   3.057   1.970   1.179 -0.1449  0.7166 -3.8334
 5208SOL     OW16724   2.466   5.090   0.380 -0.2786  0.1978  0.0272
 5208SOL    HW116725   2.468   5.130   0.293  1.0469  0.3258  0.0882
 5208SOL    HW216726   2.386   5.123   0.421 -1.7948 -1.1329 -1.6976
 5209SOL     OW16727   3.172   4.597   3.578  0.0495 -0.0192 -0.0572
 5209SOL    HW116728   3.097   4.575   3.523 -1.1935  2.3449  0.5640
 5209SOL    HW216729   3.148   4.567   3.665 -0.1024  0.5600  0.1042
 5210SOL     OW16730   3.891   5.268   2.941  0.0951 -0.3083 -0.1864
 5210SOL    HW116731   3.914   5.177   2.927 -2.6026 -0.9126 -1.2821
 5210SOL    HW216732   3.853   5.296   2.858  0.0257  1.5480  0.4246
 5211SOL     OW16733   3.267   4.077   8.288  0.1763 -0.2609 -0.0530
 5211SOL    HW116734   3.343   4.068   8.345 -0.7195 -0.2429  1.1667
 5211SOL    HW216735   3.206   4.010   8.318 -0.5695  0.1726 -0.5704
 5212SOL     OW16736   3.624   7.766   8.423 -0.0385  0.5988 -0.0672
 5212SOL    HW116737   3.665   7.800   8.503  0.5883 -0.2313 -0.0274
 5212SOL    HW216738   3.651   7.675   8.419  0.4372  0.7812 -1.5557
 5213SOL     OW16739   2.148   5.102   0.159 -0.2098 -0.0220  0.4001
 5213SOL    HW116740   2.210   5.035   0.187 -1.6704 -1.1853  0.9591
 5213SOL    HW216741   2.181   5.132   0.075 -0.1182 -2.2752 -0.4198
 5214SOL     OW16742   0.277   2.287   3.587  0.0120  0.0078  0.2031
 5214SOL    HW116743   0.267   2.382   3.591 -0.7378 -0.1090  2.0050
 5214SOL    HW216744   0.187   2.254   3.581  0.1475 -0.6197  1.2974
 5215SOL     OW16745   6.671   6.886   4.787  0.3803  0.2745  0.0567
 5215SOL    HW116746   6.609   6.824   4.825  0.7759 -0.0744  0.1472
 5215SOL    HW216747   6.619   6.941   4.729 -0.0384  0.0975  0.2654
 5216SOL     OW16748   0.965   6.110   4.333  0.4097 -0.1981 -0.0357
 5216SOL    HW116749   0.963   6.152   4.419 -2.4415 -0.1091 -0.0495
 5216SOL    HW216750   0.987   6.019   4.352  0.8755  0.0452  0.6519
 5217SOL     OW16751   3.869   3.801   6.507 -0.4959 -0.4603  0.7301
 5217SOL    HW116752   3.776   3.795   6.527 -0.5808 -0.6713  0.2905
 5217SOL    HW216753   3.912   3.806   6.592 -1.0446  1.8953  0.9421
 5218SOL     OW16754   5.566   1.492   0.180  0.6201 -0.2100 -0.7038
 5218SOL    HW116755   5.583   1.450   0.265  1.6052 -1.7375 -1.6164
 5218SOL    HW216756   5.650   1.530   0.155  0.6245 -0.7358 -1.5070
 5219SOL     OW16757   8.047   5.766   8.166  0.3570  0.0722  0.4195
 5219SOL    HW116758   8.100   5.844   8.185 -0.7967  0.8774  0.4598
 5219SOL    HW216759   8.069   5.704   8.235  1.5667  0.2125  0.1769
 5220SOL     OW16760   0.597   3.014   9.101 -0.1601 -0.8492  0.7505
 5220SOL    HW116761   0.620   2.935   9.052  1.0408  0.6521 -1.3006
 5220SOL    HW216762   0.513   3.042   9.064  0.7489  0.2888 -0.5828
 5221SOL     OW16763   7.903   0.254   2.639  0.0627 -0.2585  0.1262
 5221SOL    HW116764   7.837   0.289   2.700 -0.8120  0.3386 -1.1251
 5221SOL    HW216765   7.955   0.194   2.692 -1.7340 -1.0574  1.0673
 5222SOL     OW16766   2.151   5.968   1.691 -0.3451  0.8118  0.4084
 5222SOL    HW116767   2.159   5.991   1.599  1.9366  1.2486  0.6369
 5222SOL    HW216768   2.064   5.930   1.700 -0.4160  0.2765 -2.0301
 5223SOL     OW16769   4.288   8.878   5.627  0.5404  0.8384 -0.5954
 5223SOL    HW116770   4.316   8.970   5.627  3.1355  0.1682  1.4250
 5223SOL    HW216771   4.261   8.861   5.717 -0.2188 -0.3061 -1.0222
 5224SOL     OW16772   8.137   0.248   8.145 -0.1766  0.1121 -0.0719
 5224SOL    HW116773   8.150   0.251   8.239 -1.8276  1.5920  0.1732
 5224SOL    HW216774   8.086   0.168   8.130  0.1223 -0.1466  0.2891
 5225SOL     OW16775   2.026   6.757   6.266 -0.0923  0.2036 -0.0061
 5225SOL    HW116776   2.028   6.662   6.258 -0.3688  0.2219 -0.3165
 5225SOL    HW216777   1.962   6.774   6.336  0.7521  0.1233  0.8019
 5226SOL     OW16778   7.757   2.816   8.595  0.7331  0.3109 -0.7025
 5226SOL    HW116779   7.717   2.871   8.662  1.2630  0.4386 -0.4820
 5226SOL    HW216780   7.830   2.868   8.562  2.0238 -0.7158  0.3812
 5227SOL     OW16781   3.155   4.560   7.468  0.3598 -0.2822 -0.0190
 5227SOL    HW116782   3.201   4.643   7.477  0.1832 -0.2246  0.3515
 5227SOL    HW216783   3.206   4.499   7.521  0.4601 -0.3999 -0.2487
 5228SOL     OW16784   4.827   1.299   1.400 -0.4047  0.0133 -0.6121
 5228SOL    HW116785   4.901   1.344   1.439 -1.4896  1.0891  0.2717
 5228SOL    HW216786   4.803   1.352   1.324 -0.2143 -0.3784 -0.9468
 5229SOL     OW16787   7.593   0.851   3.880 -0.0062  0.0778 -0.4907
 5229SOL    HW116788   7.524   0.850   3.814  0.0586 -1.1364 -0.5553
 5229SOL    HW216789   7.569   0.782   3.941  0.7453  0.1612 -0.0876
 5230SOL     OW16790   0.443   8.091   8.983 -0.3007 -0.8845  0.5141
 5230SOL    HW116791   0.452   8.186   8.980 -2.1972 -0.6197  1.8690
 5230SOL    HW216792   0.527   8.059   8.948  1.5530  1.2356  2.6385
 5231SOL     OW16793   5.715   0.639   3.728  0.3152 -0.1684 -0.0688
 5231SOL    HW116794   5.648   0.619   3.793  0.8697  0.8453  0.8378
 5231SOL    HW216795   5.672   0.696   3.665 -0.1220 -0.8717 -0.4255
 5232SOL     OW16796   4.576   1.561   0.194  0.3452 -0.1549 -0.1776
 5232SOL    HW116797   4.671   1.552   0.194  0.3902  0.1936 -1.1902
 5232SOL    HW216798   4.544   1.475   0.166  0.2383 -0.9842  2.2347
 5233SOL     OW16799   2.313   3.273   7.046 -0.0568 -0.6489  0.1339
 5233SOL    HW116800   2.312   3.364   7.075 -1.6157 -0.5324 -0.1937
 5233SOL    HW216801   2.229   3.238   7.074 -1.3341 -0.7644 -3.3869
 5234SOL     OW16802   6.933   4.711   4.693  0.1403  0.4129 -0.3611
 5234SOL    HW116803   6.840   4.691   4.686 -0.1467  0.9753  1.3095
 5234SOL    HW216804   6.949   4.775   4.623 -0.4384 -0.5192 -1.3867
 5235SOL     OW16805   1.811   2.915   0.215  0.1105  0.4275 -0.6949
 5235SOL    HW116806   1.901   2.930   0.246  0.8089 -0.8891 -1.9750
 5235SOL    HW216807   1.775   2.852   0.278  0.6192 -0.1790 -0.9853
 5236SOL     OW16808   7.577   2.800   5.547  0.5641 -0.2507  0.0808
 5236SOL    HW116809   7.515   2.870   5.564 -0.0683 -0.9706  0.8154
 5236SOL    HW216810   7.587   2.800   5.451 -0.4184  0.0095 -0.0342
 5237SOL     OW16811   3.695   1.055   8.117  0.2425 -0.3565 -0.3635
 5237SOL    HW116812   3.616   1.106   8.101 -1.6592 -2.6207  1.0888
 5237SOL    HW216813   3.670   0.965   8.094  2.8017 -0.9834 -0.9772
 5238SOL     OW16814   0.190   3.950   0.504 -0.0313 -0.3785 -0.4927
 5238SOL    HW116815   0.279   3.923   0.478 -0.0715 -1.5501  0.4489
 5238SOL    HW216816   0.179   3.912   0.591 -2.2680 -2.1748 -1.4516
 5239SOL     OW16817   7.076   2.319   0.608  0.0998  0.0667  1.2409
 5239SOL    HW116818   7.008   2.282   0.552  1.3843 -0.9348  0.2708
 5239SOL    HW216819   7.155   2.319   0.553  1.1981 -0.1111  2.7591
 5240SOL     OW16820   5.041   3.749   2.012  0.3133 -0.3204 -0.1480
 5240SOL    HW116821   5.125   3.781   1.979 -0.2387 -0.8634 -2.2503
 5240SOL    HW216822   5.009   3.690   1.943 -0.6250 -2.1168  1.7401
 5241SOL     OW16823   1.385   6.952   3.616  0.7686  0.2516  0.4624
 5241SOL    HW116824   1.364   6.894   3.542  0.3714  0.4146  0.4432
 5241SOL    HW216825   1.475   6.931   3.638  0.4681 -0.7600  0.8035
 5242SOL     OW16826   5.916   8.133   9.049 -0.3938 -0.3396 -0.2747
 5242SOL    HW116827   5.846   8.175   8.999 -0.2604  1.3652  0.9046
 5242SOL    HW216828   5.879   8.048   9.075 -1.0832 -0.5328 -1.7706
 5243SOL     OW16829   7.844   1.579   7.620 -0.3810 -0.5245  0.1062
 5243SOL    HW116830   7.750   1.594   7.619 -0.2871  0.0892  0.1012
 5243SOL    HW216831   7.858   1.506   7.560 -0.8484 -0.5974  0.0850
 5244SOL     OW16832   7.623   4.515   4.381  0.0006 -0.0683  1.0728
 5244SOL    HW116833   7.605   4.486   4.471  0.9141 -0.6577  1.0737
 5244SOL    HW216834   7.580   4.600   4.375 -2.5943 -1.2935  1.1192
 5245SOL     OW16835   5.123   5.843   7.059  0.1732  0.0422  0.4832
 5245SOL    HW116836   5.207   5.816   7.097 -0.3198 -2.0660  0.1747
 5245SOL    HW216837   5.142   5.857   6.966  0.2913  0.1409  0.5208
 5246SOL     OW16838   1.863   3.867   8.548 -0.2299 -0.4512 -0.7082
 5246SOL    HW116839   1.866   3.954   8.510  0.5195 -0.4860 -0.7348
 5246SOL    HW216840   1.941   3.861   8.603  0.1291 -1.3640 -1.2817
 5247SOL     OW16841   7.471   6.960   7.495 -0.4483 -0.1258  0.4993
 5247SOL    HW116842   7.381   6.970   7.527 -0.5621 -0.9096  0.4444
 5247SOL    HW216843   7.470   6.878   7.445 -0.1276  0.7631 -1.0318
 5248SOL     OW16844   6.841   1.434   6.464  0.0754  0.5786 -0.5554
 5248SOL    HW116845   6.842   1.338   6.470  1.4782  0.5635 -0.8993
 5248SOL    HW216846   6.908   1.455   6.400 -2.2404  1.6735 -2.7794
 5249SOL     OW16847   7.712   3.687   8.854  0.8111  0.6185 -0.3777
 5249SOL    HW116848   7.724   3.638   8.935 -3.3963  1.9330  1.3482
 5249SOL    HW216849   7.639   3.643   8.810 -2.4279  4.2897  0.7236
 5250SOL     OW16850   8.046   6.638   7.185  0.1672  0.2939  0.2553
 5250SOL    HW116851   8.046   6.649   7.280  0.4595  0.3858  0.2429
 5250SOL    HW216852   8.134   6.662   7.157  0.0353  0.4207 -0.0588
 5251SOL     OW16853   7.455   4.749   8.103  0.0703  0.2784  0.2439
 5251SOL    HW116854   7.508   4.769   8.180 -0.7288 -0.2619  0.9585
 5251SOL    HW216855   7.382   4.810   8.107 -0.3190 -0.1840  0.2804
 5252SOL     OW16856   1.705   6.345   1.144  0.4944  0.0472  0.0266
 5252SOL    HW116857   1.768   6.392   1.088 -1.1066  2.0837 -0.1802
 5252SOL    HW216858   1.642   6.309   1.082  0.3530 -0.2506  0.3462
 5253SOL     OW16859   5.324   2.349   8.054  0.1562 -0.0196 -0.1191
 5253SOL    HW116860   5.372   2.295   7.991  0.6796 -0.2233  0.4480
 5253SOL    HW216861   5.280   2.285   8.110 -1.5150  0.1507 -1.1612
 5254SOL     OW16862   3.157   7.075   1.434  0.1325 -0.3489 -0.4190
 5254SOL    HW116863   3.222   7.009   1.409  1.6874  1.8031 -2.5856
 5254SOL    HW216864   3.109   7.093   1.353 -0.3543  1.0358  0.1460
 5255SOL     OW16865   1.875   6.447   0.942  0.2644  0.5142  0.1297
 5255SOL    HW116866   1.848   6.506   0.871  1.5898 -0.4864 -1.2766
 5255SOL    HW216867   1.956   6.484   0.975  0.0977  0.5128  0.5421
 5256SOL     OW16868   6.251   7.456   4.583  0.0899 -0.0579  0.6565
 5256SOL    HW116869   6.161   7.467   4.613 -0.1108  0.3502 -0.0618
 5256SOL    HW216870   6.303   7.451   4.664 -0.5662 -0.2390  1.0729
 5257SOL     OW16871   5.241   6.175   7.294  0.1262 -0.1876 -0.2848
 5257SOL    HW116872   5.263   6.266   7.314  0.2948  0.0890 -1.6658
 5257SOL    HW216873   5.323   6.137   7.264  1.1623 -1.9974  4.0549
 5258SOL     OW16874   0.855   8.047   6.626  0.1544  0.2640 -0.4802
 5258SOL    HW116875   0.931   7.998   6.659 -0.7265 -0.0011  1.2850
 5258SOL    HW216876   0.799   7.980   6.588 -0.0225  0.2010 -0.1133
 5259SOL     OW16877   7.112   1.432   3.620  0.2888  0.1940  0.1153
 5259SOL    HW116878   7.092   1.409   3.529  2.3165  2.2711 -0.9970
 5259SOL    HW216879   7.053   1.504   3.640  0.3645  0.2467  0.1512
 5260SOL     OW16880   7.538   5.435   6.785  0.1191  0.0916 -0.1386
 5260SOL    HW116881   7.445   5.432   6.808 -0.3047 -1.5365 -1.8458
 5260SOL    HW216882   7.540   5.477   6.699  1.5170  4.5625  1.7311
 5261SOL     OW16883   2.802   5.761   5.045 -0.0280 -0.0844 -0.7581
 5261SOL    HW116884   2.847   5.680   5.070  0.8482  0.7971  0.6596
 5261SOL    HW216885   2.751   5.785   5.122  0.5106  1.2213 -0.7804
 5262SOL     OW16886   6.171   5.853   3.817 -0.5668 -0.3216 -0.2091
 5262SOL    HW116887   6.092   5.905   3.831 -0.0126  0.1067  1.5132
 5262SOL    HW216888   6.139   5.766   3.793 -1.5495  0.0079 -0.1296
 5263SOL     OW16889   2.011   0.320   7.919 -0.2545 -0.2304  0.2280
 5263SOL    HW116890   1.923   0.306   7.954  0.3954 -1.5464  1.4321
 5263SOL    HW216891   2.063   0.249   7.957  1.1309 -0.0109 -1.1930
 5264SOL     OW16892   8.431   6.113   5.504 -0.4974 -0.2011  0.1475
 5264SOL    HW116893   8.468   6.049   5.444  0.3068 -1.0969  1.5419
 5264SOL    HW216894   8.381   6.173   5.448  1.0828 -0.3686 -1.5269
 5265SOL     OW16895   2.267   7.659   4.692 -0.7445  0.5299 -0.3033
 5265SOL    HW116896   2.196   7.697   4.743 -0.6768 -0.4162  0.5253
 5265SOL    HW216897   2.341   7.718   4.707 -0.4248 -0.2866  1.5835
 5266SOL     OW16898   5.495   5.274   8.900 -0.4135 -0.3102  0.3217
 5266SOL    HW116899   5.541   5.328   8.835  0.2130 -0.8171  0.3336
 5266SOL    HW216900   5.509   5.319   8.983 -0.8479  0.1071  0.1740
 5267SOL     OW16901   9.064   2.234   6.249  0.5801  0.0605  0.3441
 5267SOL    HW116902   8.987   2.190   6.285 -0.3585  1.0405 -0.3976
 5267SOL    HW216903   9.122   2.247   6.324 -0.0476 -0.5303  0.9500
 5268SOL     OW16904   6.940   3.177   5.179  0.2963  0.4119 -0.4365
 5268SOL    HW116905   7.033   3.154   5.181  0.2829  0.3656 -0.3756
 5268SOL    HW216906   6.918   3.178   5.086  0.2668  0.0590 -0.4367
 5269SOL     OW16907   4.621   7.734   7.373  0.2631  0.5986 -0.0829
 5269SOL    HW116908   4.715   7.734   7.357  0.6096 -2.9082  0.9851
 5269SOL    HW216909   4.612   7.753   7.466 -0.0919  0.8873 -0.1736
 5270SOL     OW16910   5.861   2.176   8.534 -0.4295 -0.4209 -0.2970
 5270SOL    HW116911   5.805   2.214   8.602 -2.5473 -3.6938  0.0490
 5270SOL    HW216912   5.908   2.105   8.578  1.4585  0.1165 -1.3647
 5271SOL     OW16913   1.419   1.371   2.065  0.0810  0.3302 -0.1507
 5271SOL    HW116914   1.370   1.291   2.048  1.3472 -0.8011  1.2492
 5271SOL    HW216915   1.352   1.439   2.073 -1.0625 -0.6812 -0.7104
 5272SOL     OW16916   5.272   8.833   1.645  0.2560 -0.7910 -0.1525
 5272SOL    HW116917   5.266   8.806   1.554  0.3868  0.3155 -0.5086
 5272SOL    HW216918   5.186   8.869   1.666  0.8748  1.0255 -0.5573
 5273SOL     OW16919   0.578   0.392   2.504  0.0548 -0.3673  0.0040
 5273SOL    HW116920   0.630   0.348   2.437  1.2480 -0.4277  0.9227
 5273SOL    HW216921   0.523   0.454   2.456  1.4301  0.1405 -0.9645
 5274SOL     OW16922   4.139   3.561   6.975 -0.6817  0.2543  0.1683
 5274SOL    HW116923   4.161   3.475   7.011  2.3430  1.0541  0.5850
 5274SOL    HW216924   4.134   3.548   6.881  0.7177 -0.2563  0.1424
 5275SOL     OW16925   8.566   4.376   2.591 -0.1347  0.2260 -0.2381
 5275SOL    HW116926   8.640   4.385   2.531 -0.2223 -2.3849 -0.8190
 5275SOL    HW216927   8.601   4.329   2.666 -1.2552 -1.4812 -0.7320
 5276SOL     OW16928   5.919   7.393   5.758  0.4402 -0.1903  0.0694
 5276SOL    HW116929   6.000   7.343   5.746 -0.0483 -0.9425 -0.1055
 5276SOL    HW216930   5.854   7.328   5.784 -0.4786  0.1544 -1.2470
 5277SOL     OW16931   7.709   6.007   2.320 -0.0118  0.0846  0.2936
 5277SOL    HW116932   7.615   5.988   2.321  0.2138 -1.0708  0.4811
 5277SOL    HW216933   7.732   6.006   2.227 -0.1653  0.2904  0.2521
 5278SOL     OW16934   6.726   0.295   1.514 -0.0024  0.1601 -0.0246
 5278SOL    HW116935   6.817   0.295   1.482 -0.4201  0.0567 -1.2339
 5278SOL    HW216936   6.730   0.243   1.594  0.9498 -0.0935 -0.2175
 5279SOL     OW16937   2.809   7.814   8.306 -0.0860  0.0886  0.3026
 5279SOL    HW116938   2.842   7.879   8.243 -0.5746  0.6188  0.5804
 5279SOL    HW216939   2.782   7.740   8.252  3.5034 -1.3175  0.1606
 5280SOL     OW16940   0.422   5.576   4.188 -0.4450  0.2934  0.1599
 5280SOL    HW116941   0.341   5.587   4.237  0.3209 -0.6369  1.7075
 5280SOL    HW216942   0.473   5.514   4.240  1.6637  1.5897 -0.2495
 5281SOL     OW16943   7.923   2.687   5.183 -0.3055  0.3785 -0.1860
 5281SOL    HW116944   7.861   2.634   5.133 -1.1195  0.7963  0.3570
 5281SOL    HW216945   7.941   2.763   5.127 -0.0808  0.1399 -0.4451
 5282SOL     OW16946   3.004   8.453   8.803  0.9683  0.0636  0.2252
 5282SOL    HW116947   2.939   8.432   8.870  2.7708 -2.4432  1.3699
 5282SOL    HW216948   2.980   8.400   8.728 -0.4006  2.0244 -0.8058
 5283SOL     OW16949   4.160   1.587   4.095 -0.6488 -0.2113 -0.0101
 5283SOL    HW116950   4.179   1.515   4.035  1.3557  1.2908 -1.3184
 5283SOL    HW216951   4.065   1.597   4.091 -0.6637 -0.5786 -2.5248
 5284SOL     OW16952   4.155   6.103   5.029  0.1620  0.0845  0.1055
 5284SOL    HW116953   4.220   6.046   5.072 -0.4477 -0.5378  0.2215
 5284SOL    HW216954   4.081   6.045   5.010  0.0267  0.5668 -0.9223
 5285SOL     OW16955   6.195   4.803   2.318  0.5464 -0.3877 -0.0924
 5285SOL    HW116956   6.169   4.716   2.286 -0.0769 -0.6080  0.9610
 5285SOL    HW216957   6.219   4.851   2.239  0.8278 -1.4943 -0.7045
 5286SOL     OW16958   8.936   5.173   7.111  0.0962 -0.3244  0.4961
 5286SOL    HW116959   8.948   5.260   7.147  1.3935 -0.7538  1.1492
 5286SOL    HW216960   8.876   5.130   7.173  0.2247 -0.2021  0.7083
 5287SOL     OW16961   8.785   3.110   1.816 -0.1979 -0.3299  0.0573
 5287SOL    HW116962   8.822   3.158   1.890 -0.4220  0.8781 -0.5894
 5287SOL    HW216963   8.775   3.021   1.848  1.4921 -0.2683  0.8642
 5288SOL     OW16964   6.714   7.976   6.308 -0.2914 -0.1912  0.1127
 5288SOL    HW116965   6.703   7.999   6.401 -0.5691  0.1795 -0.0108
 5288SOL    HW216966   6.801   7.935   6.304  0.3503  1.1015  0.2936
 5289SOL     OW16967   3.742   3.844   8.141 -0.2659 -0.0995  0.5089
 5289SOL    HW116968   3.821   3.811   8.097 -1.2111  0.4462 -1.7324
 5289SOL    HW216969   3.686   3.875   8.070 -0.9073  3.1280  2.2287
 5290SOL     OW16970   0.940   8.018   2.022  0.4420 -0.0944 -0.7002
 5290SOL    HW116971   0.863   7.970   1.992  0.6815 -1.0166  0.0837
 5290SOL    HW216972   0.994   8.029   1.944 -0.0539 -0.2883 -1.0708
 5291SOL     OW16973   4.077   4.376   4.033  0.2501  0.4748  0.0168
 5291SOL    HW116974   3.999   4.356   4.085 -0.2366  2.5925  0.2097
 5291SOL    HW216975   4.083   4.305   3.970 -1.3348 -0.1878  0.5628
 5292SOL     OW16976   5.708   0.756   4.306 -0.4797 -0.0700 -0.2541
 5292SOL    HW116977   5.686   0.673   4.264 -0.6554 -0.9182  1.4196
 5292SOL    HW216978   5.632   0.812   4.290 -0.3906 -0.2370 -1.3325
 5293SOL     OW16979   8.905   1.746   8.235  0.2127  0.1508  0.4478
 5293SOL    HW116980   8.939   1.702   8.313 -0.2383  1.1623  1.2290
 5293SOL    HW216981   8.813   1.762   8.254  0.0241  0.1670 -0.4127
 5294SOL     OW16982   2.608   3.600   4.509  0.0549 -0.0981  0.2404
 5294SOL    HW116983   2.599   3.662   4.582  0.9746  0.0006  0.2868
 5294SOL    HW216984   2.638   3.654   4.436  0.5978 -0.4347  0.2067
 5295SOL     OW16985   8.214   3.102   0.667 -0.0978 -0.5735  0.2955
 5295SOL    HW116986   8.272   3.058   0.605  1.7548  3.1344 -0.8996
 5295SOL    HW216987   8.161   3.161   0.612  0.9876  2.2022  2.0175
 5296SOL     OW16988   0.186   0.976   3.495  0.1790 -0.3183 -0.2093
 5296SOL    HW116989   0.182   1.004   3.403  0.3424  0.7835  0.1059
 5296SOL    HW216990   0.102   1.001   3.531  0.6084  0.4496  0.2685
 5297SOL     OW16991   4.653   3.945   2.207  0.1528  0.1232  0.6410
 5297SOL    HW116992   4.713   4.019   2.194 -0.0074 -0.0662 -1.4238
 5297SOL    HW216993   4.631   3.949   2.300  0.4038  2.4842  0.6725
 5298SOL     OW16994   4.864   1.900   8.900  0.1986 -0.3415 -0.7819
 5298SOL    HW116995   4.899   1.818   8.868  1.2696  0.1111 -0.8137
 5298SOL    HW216996   4.769   1.892   8.890  0.3968 -0.8334 -2.5436
 5299SOL     OW16997   3.121   8.444   1.005  0.1248  0.1087 -0.3303
 5299SOL    HW116998   3.115   8.376   0.938  2.2600  1.4876 -2.0341
 5299SOL    HW216999   3.030   8.457   1.033 -0.5399 -2.2229 -1.1408
 5300SOL     OW17000   7.295   6.477   1.901 -0.1955 -0.2811  0.0492
 5300SOL    HW117001   7.208   6.514   1.915 -0.3449 -0.6135  0.0066
 5300SOL    HW217002   7.302   6.468   1.806 -0.0923 -0.1972  0.0495
 5301SOL     OW17003   0.613   2.768   7.690 -0.3328 -0.1045  0.1969
 5301SOL    HW117004   0.590   2.801   7.777 -0.6404  0.4306 -0.0837
 5301SOL    HW217005   0.616   2.673   7.700  0.1603 -0.0223  0.9193
 5302SOL     OW17006   8.650   5.816   3.965 -0.2481  0.8155 -0.3233
 5302SOL    HW117007   8.703   5.789   3.890 -1.6159  1.1230 -1.4393
 5302SOL    HW217008   8.574   5.859   3.926 -0.4196  2.0498  1.2859
 5303SOL     OW17009   8.454   7.379   0.132  0.7268  0.6442 -0.0246
 5303SOL    HW117010   8.501   7.411   0.209  0.2573 -0.6382  0.8322
 5303SOL    HW217011   8.472   7.285   0.130 -0.0188  0.5038 -0.9540
 5304SOL     OW17012   9.005   5.649   0.444  0.5480  0.0390  0.1787
 5304SOL    HW117013   9.045   5.729   0.410 -0.0311  0.2963  0.0848
 5304SOL    HW217014   8.953   5.678   0.520 -0.5291 -0.0647 -0.4926
 5305SOL     OW17015   7.126   0.816   4.143 -0.2054 -0.2428 -0.6129
 5305SOL    HW117016   7.095   0.870   4.216  1.0277  0.4040 -0.5366
 5305SOL    HW217017   7.222   0.816   4.153 -0.1181 -1.4642 -1.3092
 5306SOL     OW17018   3.077   0.882   5.846 -0.9542 -0.5610  0.3674
 5306SOL    HW117019   3.106   0.794   5.819  1.3330 -0.5087  2.3156
 5306SOL    HW217020   3.075   0.932   5.764  2.0834 -1.3301 -0.3339
 5307SOL     OW17021   7.880   3.564   4.391  0.9034  0.1263 -0.4505
 5307SOL    HW117022   7.863   3.495   4.454  0.3565  1.3276  0.7695
 5307SOL    HW217023   7.811   3.629   4.406  1.2192  0.8142 -1.7489
 5308SOL     OW17024   8.841   6.953   1.351  0.6311  0.4327 -0.0323
 5308SOL    HW117025   8.917   6.945   1.293  0.3447 -2.2465 -0.1508
 5308SOL    HW217026   8.863   6.899   1.427 -0.0223  1.9158  1.2754
 5309SOL     OW17027   3.555   6.959   0.625 -0.5071 -0.0580  0.5678
 5309SOL    HW117028   3.516   7.044   0.603 -0.5804 -0.1792  0.2209
 5309SOL    HW217029   3.485   6.912   0.670 -1.2134 -0.7538 -1.1659
 5310SOL     OW17030   7.290   1.977   1.771 -0.1210 -0.0561  0.3216
 5310SOL    HW117031   7.276   2.004   1.680 -0.4821 -0.3960  0.2729
 5310SOL    HW217032   7.254   1.888   1.775  1.2368 -0.6171  0.4245
 5311SOL     OW17033   2.002   5.594   3.929 -0.0351 -0.1774 -0.2263
 5311SOL    HW117034   2.037   5.597   4.017 -0.1998 -3.8140  0.0807
 5311SOL    HW217035   2.073   5.562   3.874 -0.1965  1.2014 -1.3211
 5312SOL     OW17036   7.948   3.864   6.368  0.1108  0.3913  0.6693
 5312SOL    HW117037   7.935   3.798   6.436  0.7253 -0.6327 -0.1875
 5312SOL    HW217038   8.039   3.890   6.377 -0.3552  1.8625  1.6131
 5313SOL     OW17039   5.316   5.087   7.829 -0.1997  0.8128 -0.2067
 5313SOL    HW117040   5.292   5.080   7.921 -0.0349 -0.3452 -0.2347
 5313SOL    HW217041   5.258   5.154   7.794 -0.4699  1.0520  0.6734
 5314SOL     OW17042   1.386   1.963   5.236  0.5251  0.5924 -0.1974
 5314SOL    HW117043   1.409   2.028   5.170  0.7689  1.5006  0.7644
 5314SOL    HW217044   1.296   1.985   5.261  0.2242 -0.1109 -0.6442
 5315SOL     OW17045   6.706   7.268   0.762  0.1238  0.9576  0.5224
 5315SOL    HW117046   6.718   7.178   0.731  0.2637  0.1449  2.7399
 5315SOL    HW217047   6.646   7.307   0.699  1.9405  0.1332 -1.8891
 5316SOL     OW17048   8.996   1.205   5.226  0.0589 -0.2415  0.3418
 5316SOL    HW117049   8.934   1.134   5.245 -0.7880  0.5947  0.7542
 5316SOL    HW217050   9.053   1.168   5.158  0.4387 -1.7566  1.4206
 5317SOL     OW17051   2.782   1.204   3.261  0.1289 -0.1570 -0.4549
 5317SOL    HW117052   2.804   1.116   3.292  0.5971 -0.2881 -1.1481
 5317SOL    HW217053   2.784   1.198   3.166  0.5616  0.7081 -0.5127
 5318SOL     OW17054   5.183   3.143   2.822 -0.2442  0.0533 -0.2514
 5318SOL    HW117055   5.133   3.212   2.778 -0.3092  0.5633  0.5985
 5318SOL    HW217056   5.130   3.064   2.810 -0.9504  0.4638  0.0901
 5319SOL     OW17057   7.051   2.054   7.762 -0.3133  0.1544  0.2700
 5319SOL    HW117058   7.067   2.116   7.833  0.4537  0.1876  0.0846
 5319SOL    HW217059   7.106   2.085   7.690 -0.9925  0.0547 -0.3035
 5320SOL     OW17060   5.015   1.392   3.949 -0.3396 -0.2356 -0.3843
 5320SOL    HW117061   4.978   1.474   3.916  1.0672  1.4152  1.8547
 5320SOL    HW217062   4.939   1.338   3.968 -1.4257  1.3485  0.0027
 5321SOL     OW17063   1.148   2.359   6.106  0.1319 -0.6421 -0.7399
 5321SOL    HW117064   1.168   2.331   6.196 -2.6445 -1.3222 -0.2539
 5321SOL    HW217065   1.132   2.453   6.113 -0.0686 -0.6917 -0.5167
 5322SOL     OW17066   8.247   1.542   2.112  0.0425  0.0847 -0.0584
 5322SOL    HW117067   8.265   1.631   2.140  0.2367 -0.2054  0.7776
 5322SOL    HW217068   8.316   1.522   2.048 -0.0443  0.5515 -0.2954
 5323SOL     OW17069   2.863   7.670   5.577 -0.7341  0.5676 -0.1487
 5323SOL    HW117070   2.950   7.632   5.583 -1.0696 -0.2331 -0.2540
 5323SOL    HW217071   2.838   7.687   5.668  0.1660  2.3300 -0.1802
 5324SOL     OW17072   5.176   0.307   0.785 -0.3356  0.1077  0.6154
 5324SOL    HW117073   5.185   0.251   0.862  0.3213  0.1752  0.5933
 5324SOL    HW217074   5.184   0.397   0.819 -1.0414  0.1780  0.6042
 5325SOL     OW17075   2.453   1.894   5.699  0.0289  1.0802 -0.4173
 5325SOL    HW117076   2.448   1.984   5.667  0.3381  1.4595  0.5431
 5325SOL    HW217077   2.362   1.863   5.698  0.0021  1.1762 -1.3573
 5326SOL     OW17078   8.182   5.979   0.326  0.2877  0.3051 -0.3307
 5326SOL    HW117079   8.136   5.913   0.274  1.5761 -0.1532 -0.9420
 5326SOL    HW217080   8.114   6.040   0.354 -0.8086 -0.8642 -0.3966
 5327SOL     OW17081   6.027   4.637   2.466 -0.1520  0.2633  0.0839
 5327SOL    HW117082   6.068   4.721   2.450  0.4347  0.1781  1.0907
 5327SOL    HW217083   6.026   4.594   2.380 -0.0944  1.1175 -0.3554
 5328SOL     OW17084   5.283   4.807   8.794  0.3461 -0.0479 -0.6581
 5328SOL    HW117085   5.324   4.731   8.835  0.7247  0.0508 -0.8506
 5328SOL    HW217086   5.203   4.771   8.753  0.3802 -0.2908 -0.5151
 5329SOL     OW17087   3.636   1.378   1.422 -0.1282  0.0367 -1.0791
 5329SOL    HW117088   3.676   1.404   1.505  0.2814 -1.4196 -0.7842
 5329SOL    HW217089   3.705   1.390   1.357  0.2144 -0.7423 -0.8681
 5330SOL     OW17090   0.655   1.790   6.839 -0.0077 -0.3842  0.1518
 5330SOL    HW117091   0.637   1.878   6.807  0.8987 -0.2621 -0.0578
 5330SOL    HW217092   0.650   1.797   6.934 -1.5843 -0.4943  0.1127
 5331SOL     OW17093   3.312   6.637   6.012 -0.3742 -0.0929  0.2919
 5331SOL    HW117094   3.350   6.725   6.007 -1.6325  0.4252 -0.9197
 5331SOL    HW217095   3.278   6.621   5.924 -1.5458 -1.1571  0.9115
 5332SOL     OW17096   7.695   8.090   6.782 -0.0322  0.1001  0.4968
 5332SOL    HW117097   7.668   8.033   6.709  3.4080 -1.6083  0.3542
 5332SOL    HW217098   7.623   8.084   6.845 -0.1718 -4.0457  0.2139
 5333SOL     OW17099   4.010   4.389   8.587 -0.2261  0.0561 -0.2431
 5333SOL    HW117100   3.949   4.337   8.640 -0.8444  2.8777  2.0284
 5333SOL    HW217101   3.953   4.434   8.524 -0.2129  0.8445  0.2970
 5334SOL     OW17102   0.627   8.495   6.099  0.1155  0.2130  0.6390
 5334SOL    HW117103   0.533   8.515   6.098 -0.1400 -0.8929  0.8768
 5334SOL    HW217104   0.663   8.544   6.025 -0.9605 -0.7565 -0.5751
 5335SOL     OW17105   5.485   5.281   6.833 -0.3074  0.3631 -0.2941
 5335SOL    HW117106   5.486   5.328   6.750  0.0609  2.3440  0.7797
 5335SOL    HW217107   5.555   5.320   6.884  0.5893 -1.9737  0.3791
 5336SOL     OW17108   1.284   1.586   8.677  0.2676 -0.1574  0.3238
 5336SOL    HW117109   1.368   1.616   8.714  1.2987 -2.0991 -0.3372
 5336SOL    HW217110   1.287   1.491   8.686 -1.9263 -0.2669  0.3278
 5337SOL     OW17111   4.050   8.188   8.728 -0.0927 -0.4584 -0.4329
 5337SOL    HW117112   4.055   8.136   8.648 -1.8637 -0.6149 -0.4998
 5337SOL    HW217113   4.083   8.130   8.796 -0.3128 -1.0197 -0.7897
 5338SOL     OW17114   6.416   3.827   8.641  0.9563 -0.2633 -0.4413
 5338SOL    HW117115   6.491   3.870   8.682 -0.0423  0.0799  1.1105
 5338SOL    HW217116   6.382   3.769   8.708 -0.3737 -0.1597 -0.9913
 5339SOL     OW17117   5.875   2.837   6.874 -0.3173 -0.0487 -0.0104
 5339SOL    HW117118   5.781   2.844   6.888 -0.3540  2.3916 -0.9381
 5339SOL    HW217119   5.914   2.871   6.954 -0.1448 -2.1124  0.8354
 5340SOL     OW17120   1.901   1.295   7.465 -0.0554  0.4930  0.6680
 5340SOL    HW117121   1.868   1.224   7.521  0.4936 -2.2224 -2.1621
 5340SOL    HW217122   1.837   1.366   7.476 -1.8575 -1.2231  2.0407
 5341SOL     OW17123   3.641   0.831   2.848  0.6351  0.4249  0.0045
 5341SOL    HW117124   3.674   0.919   2.831  0.5357  0.4810  0.1032
 5341SOL    HW217125   3.688   0.802   2.927  2.1759 -0.3916 -1.1446
 5342SOL     OW17126   1.251   4.939   3.014  0.2535 -0.3421  0.0893
 5342SOL    HW117127   1.274   5.007   3.077 -0.0598 -2.5169  2.7127
 5342SOL    HW217128   1.157   4.951   3.000  0.6291  1.2241 -1.4245
 5343SOL     OW17129   0.296   0.457   1.802 -0.2966  0.4929  0.0995
 5343SOL    HW117130   0.278   0.551   1.795  1.4114  0.8598  0.2388
 5343SOL    HW217131   0.330   0.433   1.717  0.8283  0.3827  0.5628
 5344SOL     OW17132   4.786   0.841   1.089 -0.1761  0.3324  0.1463
 5344SOL    HW117133   4.836   0.893   1.027  1.3724 -1.0652  0.1663
 5344SOL    HW217134   4.725   0.903   1.128  0.3305  1.7143 -1.1497
 5345SOL     OW17135   0.060   8.887   3.458 -0.5348  0.1430 -0.0232
 5345SOL    HW117136  -0.016   8.903   3.514 -0.7586  0.3412 -0.3835
 5345SOL    HW217137   0.075   8.793   3.465 -0.7614  0.1170  0.1125
 5346SOL     OW17138   4.225   3.071   6.816 -0.1002 -0.0226 -0.1122
 5346SOL    HW117139   4.144   3.113   6.787 -0.2530 -0.4421 -0.3096
 5346SOL    HW217140   4.197   3.007   6.881  0.1595  0.3591  0.3782
 5347SOL     OW17141   3.915   0.678   7.669  0.2425 -0.2918 -0.1075
 5347SOL    HW117142   3.935   0.616   7.598 -0.9910 -0.0725 -0.6706
 5347SOL    HW217143   3.939   0.632   7.749  2.6389 -0.1705 -0.6779
 5348SOL     OW17144   0.468   7.272   1.382 -0.2158 -0.5526 -0.0379
 5348SOL    HW117145   0.398   7.211   1.406  1.4192 -2.3001  0.6071
 5348SOL    HW217146   0.484   7.254   1.289 -1.1385  0.4500 -0.4127
 5349SOL     OW17147   7.277   1.244   3.007 -0.5272 -0.0730 -0.3589
 5349SOL    HW117148   7.228   1.193   3.071  1.0404  0.2512  1.1667
 5349SOL    HW217149   7.248   1.334   3.019  0.2030  0.0773  0.3471
 5350SOL     OW17150   3.939   0.887   8.120  0.2170 -0.1296  0.5283
 5350SOL    HW117151   4.015   0.924   8.075  0.7227 -2.3946 -0.6064
 5350SOL    HW217152   3.868   0.895   8.056  0.1432 -0.4218  0.5735
 5351SOL     OW17153   0.961   6.426   8.548 -0.4025  0.1181 -0.2332
 5351SOL    HW117154   0.884   6.391   8.594  1.4336  0.3769  3.4021
 5351SOL    HW217155   0.995   6.351   8.499 -2.4459 -0.1993 -1.2734
 5352SOL     OW17156   2.617   0.753   1.099  0.2307  0.0559 -0.2411
 5352SOL    HW117157   2.525   0.762   1.124  0.2451 -0.1075 -0.1226
 5352SOL    HW217158   2.621   0.671   1.051  0.1993  0.3894 -0.8139
 5353SOL     OW17159   7.704   6.634   6.342 -0.2059  0.0238 -0.3072
 5353SOL    HW117160   7.763   6.691   6.292 -1.3930 -0.4065 -2.3332
 5353SOL    HW217161   7.743   6.547   6.334  0.7184  0.2554  1.3673
 5354SOL     OW17162   8.909   7.390   5.849 -0.3641 -0.4790 -0.1233
 5354SOL    HW117163   8.975   7.388   5.918 -0.2230  0.6958 -0.1947
 5354SOL    HW217164   8.910   7.481   5.817 -1.1745 -0.7331 -0.9400
 5355SOL     OW17165   6.309   0.606   8.598 -0.5337  0.2049 -0.4290
 5355SOL    HW117166   6.375   0.559   8.547  0.5556  0.4762  0.6773
 5355SOL    HW217167   6.233   0.611   8.540  0.3922 -0.1610 -1.7280
 5356SOL     OW17168   3.739   4.222   5.620 -0.2722 -0.0204 -0.0303
 5356SOL    HW117169   3.676   4.163   5.661  0.9499 -1.5084 -0.2023
 5356SOL    HW217170   3.823   4.199   5.658  0.3837  0.9900 -0.7934
 5357SOL     OW17171   6.976   5.146   4.113  0.0138  0.1483 -0.1944
 5357SOL    HW117172   6.932   5.081   4.168 -0.7374  0.2729 -0.6489
 5357SOL    HW217173   7.048   5.178   4.168 -0.8116  0.3760  0.7769
 5358SOL     OW17174   7.699   4.630   6.647  0.5747  0.3247 -0.2117
 5358SOL    HW117175   7.639   4.592   6.582  0.7817  2.1340 -1.5269
 5358SOL    HW217176   7.644   4.642   6.725 -0.7592  1.6802 -1.3008
 5359SOL     OW17177   8.810   1.054   2.059  0.4278 -0.7223 -0.4013
 5359SOL    HW117178   8.865   1.118   2.104 -1.5112  1.5013 -1.0231
 5359SOL    HW217179   8.855   1.037   1.976  1.2076 -0.5724 -0.0143
 5360SOL     OW17180   2.781   0.191   8.810 -0.0780 -0.2106 -0.5057
 5360SOL    HW117181   2.818   0.269   8.852  0.1327  0.4105 -1.7921
 5360SOL    HW217182   2.687   0.209   8.806  0.0227  0.2088 -1.2215
 5361SOL     OW17183   9.057   6.147   6.931  0.6334 -0.3651  0.3228
 5361SOL    HW117184   9.100   6.207   6.992  0.3224  0.3201 -0.1175
 5361SOL    HW217185   8.986   6.199   6.893  1.0162 -0.6887 -0.8567
 5362SOL     OW17186   6.602   4.750   5.661 -0.1523 -0.2144 -0.2216
 5362SOL    HW117187   6.565   4.663   5.653  0.8012 -1.0363  3.0802
 5362SOL    HW217188   6.577   4.780   5.748  0.3444  2.4589 -0.8981
 5363SOL     OW17189   6.611   1.526   6.584 -0.1151  0.8182 -0.1922
 5363SOL    HW117190   6.627   1.606   6.633 -1.7878 -1.2432  4.2425
 5363SOL    HW217191   6.695   1.506   6.542  1.6286  2.5877  2.2027
 5364SOL     OW17192   1.462   5.247   4.489 -0.4782  0.0491  0.2280
 5364SOL    HW117193   1.496   5.158   4.495  0.3474  0.4482  2.1088
 5364SOL    HW217194   1.524   5.292   4.431  1.2424  0.2707  2.1161
 5365SOL     OW17195   5.879   4.766   6.972 -0.1158  1.1280  0.0156
 5365SOL    HW117196   5.912   4.818   6.898 -1.9440 -1.4211 -2.8134
 5365SOL    HW217197   5.788   4.793   6.982 -0.4375  0.0935  0.0109
 5366SOL     OW17198   7.439   6.138   2.967  0.4888 -0.4679  0.5089
 5366SOL    HW117199   7.402   6.124   3.054  0.4782 -0.1139  0.5628
 5366SOL    HW217200   7.515   6.080   2.964  0.7891 -0.1070  0.9460
 5367SOL     OW17201   7.892   1.915   1.754 -0.3868 -0.4589  0.1295
 5367SOL    HW117202   7.968   1.933   1.810  0.7879 -1.5996 -1.0246
 5367SOL    HW217203   7.818   1.910   1.815  0.5413  0.1284  1.3594
 5368SOL     OW17204   0.852   4.928   4.679 -0.2673 -0.0855 -0.1060
 5368SOL    HW117205   0.889   4.876   4.750  2.4120  1.6613 -0.0599
 5368SOL    HW217206   0.904   4.905   4.602 -1.2006  0.1718 -0.8348
 5369SOL     OW17207   7.872   5.871   4.566 -0.0756 -0.0699  0.4005
 5369SOL    HW117208   7.953   5.821   4.575  0.1193  0.3496  1.0470
 5369SOL    HW217209   7.822   5.851   4.645  0.1551  0.9949  0.8431
 5370SOL     OW17210   0.113   0.120   3.505 -0.1003 -0.6478  0.1400
 5370SOL    HW117211   0.055   0.172   3.562 -0.1612  0.6079 -1.0092
 5370SOL    HW217212   0.071   0.124   3.419  0.0384 -2.4375 -0.0442
 5371SOL     OW17213   5.325   1.387   1.629 -0.2307 -0.7975  0.3536
 5371SOL    HW117214   5.373   1.318   1.583  0.6067 -1.2086  1.7879
 5371SOL    HW217215   5.263   1.340   1.684 -0.7030 -0.3363  0.2254
 5372SOL     OW17216   7.566   0.028   7.050 -0.5167 -0.5105  0.2672
 5372SOL    HW117217   7.643   0.078   7.023  1.2622 -2.7663  0.9195
 5372SOL    HW217218   7.504   0.040   6.978  1.4348 -0.7069 -1.5528
 5373SOL     OW17219   8.349   6.608   7.420  0.2719  0.1755 -0.5348
 5373SOL    HW117220   8.332   6.542   7.352 -0.8934  2.5971 -2.7829
 5373SOL    HW217221   8.262   6.633   7.451  0.7306  0.1817  0.7697
 5374SOL     OW17222   0.322   7.305   4.401 -0.0319 -0.3802 -0.5142
 5374SOL    HW117223   0.357   7.217   4.409  1.6477  0.4434  2.2376
 5374SOL    HW217224   0.393   7.356   4.363 -0.6681  0.0356 -1.1958
 5375SOL     OW17225   2.806   7.212   1.537  0.4823  0.2762  0.0061
 5375SOL    HW117226   2.757   7.171   1.466 -1.8606 -0.7431  2.0399
 5375SOL    HW217227   2.833   7.139   1.593 -0.8361  1.1963  1.9525
 5376SOL     OW17228   6.640   7.879   1.017 -0.1527  0.6660  0.5155
 5376SOL    HW117229   6.651   7.848   0.927  0.5898  0.6891  0.5873
 5376SOL    HW217230   6.675   7.969   1.016 -1.8045  1.3337  0.4240
 5377SOL     OW17231   6.988   3.498   1.828 -0.1680  0.3089  0.3469
 5377SOL    HW117232   6.983   3.407   1.799  0.0025  0.5849 -0.5865
 5377SOL    HW217233   6.899   3.531   1.816 -0.4582  0.0338  1.5473
 5378SOL     OW17234   4.132   1.194   0.735  0.0336 -0.1594  0.8804
 5378SOL    HW117235   4.198   1.129   0.712 -1.5042 -1.1236 -1.1955
 5378SOL    HW217236   4.168   1.277   0.704  0.5041 -0.5953  0.2340
 5379SOL     OW17237   8.952   8.959   1.191 -0.2746  0.5341  0.0252
 5379SOL    HW117238   9.016   9.028   1.173  0.2042 -0.4763 -2.6155
 5379SOL    HW217239   9.006   8.881   1.209 -0.8136  0.5409  1.9591
 5380SOL     OW17240   4.747   6.585   5.492  0.1648  0.0652 -0.6253
 5380SOL    HW117241   4.806   6.532   5.547  1.3347  0.8138 -1.1214
 5380SOL    HW217242   4.796   6.600   5.412 -0.8641  0.4193 -1.2047
 5381SOL     OW17243   8.639   3.227   9.083 -0.0989 -0.8822  0.2176
 5381SOL    HW117244   8.621   3.271   9.167 -1.9360  1.1716 -1.1352
 5381SOL    HW217245   8.732   3.244   9.067 -0.4351  1.5429  0.3968
 5382SOL     OW17246   6.272   7.130   5.202  0.0213 -0.3438  0.4611
 5382SOL    HW117247   6.298   7.059   5.143 -0.5330 -0.5650  0.4770
 5382SOL    HW217248   6.240   7.086   5.280 -0.2162 -0.0728  0.5177
 5383SOL     OW17249   7.656   4.778   3.770 -0.6522 -0.5309 -0.4001
 5383SOL    HW117250   7.643   4.824   3.853 -1.7869  0.5482 -1.1219
 5383SOL    HW217251   7.707   4.839   3.717 -0.8879 -0.7228 -0.8586
 5384SOL     OW17252   2.941   4.650   8.888 -0.3168  0.0451  0.3442
 5384SOL    HW117253   2.904   4.607   8.811 -1.2474  0.5056  0.5205
 5384SOL    HW217254   2.879   4.720   8.909  0.5696  0.7167  0.7677
 5385SOL     OW17255   4.046   1.154   8.457  0.0727  0.3220 -0.0230
 5385SOL    HW117256   4.013   1.183   8.372  0.4344 -0.1244 -0.3173
 5385SOL    HW217257   3.975   1.101   8.493  0.6094 -1.0364 -0.8658
 5386SOL     OW17258   0.160   0.572   6.318  0.1070 -0.0350  0.1450
 5386SOL    HW117259   0.199   0.501   6.266 -0.1914 -0.1056  0.0172
 5386SOL    HW217260   0.210   0.650   6.292 -0.5632  0.0837 -0.8611
 5387SOL     OW17261   4.426   7.070   2.808  0.3630 -0.0718 -0.1079
 5387SOL    HW117262   4.460   6.980   2.811  0.5531  0.0179  1.3762
 5387SOL    HW217263   4.335   7.062   2.838  0.1765  0.1502 -0.6068
 5388SOL     OW17264   5.118   8.101   8.620  0.0549 -0.3118  0.5734
 5388SOL    HW117265   5.121   8.172   8.555 -0.8958 -0.6243  0.1672
 5388SOL    HW217266   5.145   8.023   8.572  0.4229 -0.3545  0.8432
 5389SOL     OW17267   0.312   3.718   3.445 -0.1202  0.3402  0.6091
 5389SOL    HW117268   0.377   3.787   3.451  0.6262 -0.3554  0.6527
 5389SOL    HW217269   0.290   3.698   3.535  0.9673 -0.6737  0.6723
 5390SOL     OW17270   8.824   6.660   6.850 -0.3306  0.1083  0.3623
 5390SOL    HW117271   8.875   6.653   6.769 -0.6288  2.5610 -0.1257
 5390SOL    HW217272   8.749   6.602   6.836  1.0304 -1.6683  0.0887
 5391SOL     OW17273   1.958   4.875   1.721 -0.1408  0.0826 -0.6364
 5391SOL    HW117274   1.886   4.846   1.778 -0.8840  1.0068 -1.0772
 5391SOL    HW217275   1.982   4.797   1.672  0.4362 -0.7085  0.8445
 5392SOL     OW17276   6.233   2.043   3.860 -0.3696 -0.5490  0.2851
 5392SOL    HW117277   6.197   1.992   3.787 -0.0009 -0.8891  0.3408
 5392SOL    HW217278   6.200   2.132   3.845 -1.9108 -1.0034  0.7675
 5393SOL     OW17279   8.319   4.908   7.440 -0.1211  0.0060  1.0983
 5393SOL    HW117280   8.237   4.869   7.413  0.6217 -0.9700  0.1746
 5393SOL    HW217281   8.385   4.869   7.383  1.1048  0.1252  2.3614
 5394SOL     OW17282   3.269   1.045   5.454  0.0980 -0.0013 -0.0151
 5394SOL    HW117283   3.190   1.055   5.400 -0.1446 -0.2806  0.2796
 5394SOL    HW217284   3.323   0.982   5.406 -1.1237 -2.0669  1.1408
 5395SOL     OW17285   3.311   0.309   3.243 -0.4523 -0.1059  0.3462
 5395SOL    HW117286   3.228   0.267   3.266 -0.9386 -0.0298 -1.1219
 5395SOL    HW217287   3.293   0.403   3.252 -0.2682 -0.1115  0.8005
 5396SOL     OW17288   1.500   2.813   1.097 -0.1442 -0.0554  0.1094
 5396SOL    HW117289   1.476   2.833   1.007  0.0122 -0.2970  0.0150
 5396SOL    HW217290   1.420   2.779   1.137  0.1583 -1.3534 -0.3462
 5397SOL     OW17291   3.100   6.144   1.172  0.0520  0.6534  0.4130
 5397SOL    HW117292   3.087   6.184   1.086 -0.3376 -0.6849 -0.1767
 5397SOL    HW217293   3.194   6.131   1.179  0.0882  0.8078  0.2012
 5398SOL     OW17294   8.530   3.107   5.123 -0.1728 -0.0473 -0.4563
 5398SOL    HW117295   8.592   3.072   5.187  0.3403 -0.1332 -0.9884
 5398SOL    HW217296   8.508   3.194   5.156 -1.0007 -0.6280  0.5624
 5399SOL     OW17297   5.053   2.152   3.327  0.3047 -0.3546  0.0055
 5399SOL    HW117298   4.964   2.172   3.298  1.5856  2.7272 -2.4948
 5399SOL    HW217299   5.053   2.170   3.421 -1.0669  3.0082 -0.4751
 5400SOL     OW17300   6.602   7.280   6.916 -0.9501 -0.2188  0.2116
 5400SOL    HW117301   6.609   7.271   7.011 -4.0310  2.2665  0.8288
 5400SOL    HW217302   6.609   7.374   6.899 -0.7994 -0.5633 -1.9927
 5401SOL     OW17303   6.798   8.566   1.794  0.4804 -0.1172 -0.5042
 5401SOL    HW117304   6.728   8.629   1.774  1.3624  1.4291  0.9880
 5401SOL    HW217305   6.878   8.617   1.784  1.1840 -0.7587  1.4864
 5402SOL     OW17306   6.863   4.877   7.360  0.3285 -0.0026 -0.4877
 5402SOL    HW117307   6.880   4.817   7.432  1.2797  0.3904 -0.3665
 5402SOL    HW217308   6.842   4.960   7.402 -1.3722 -0.3052 -0.6443
 5403SOL     OW17309   4.182   1.195   0.145  0.5343 -0.1929  0.0619
 5403SOL    HW117310   4.147   1.280   0.171  1.3371  0.2454 -0.2710
 5403SOL    HW217311   4.174   1.141   0.224  2.2855  0.9151  1.0598
 5404SOL     OW17312   0.048   8.725   4.945 -0.7154 -0.0270 -0.6921
 5404SOL    HW117313  -0.030   8.778   4.959  0.2718  0.8788  2.2272
 5404SOL    HW217314   0.056   8.672   5.024  1.0508 -0.8468 -1.3529
 5405SOL     OW17315   1.642   7.124   8.483  0.1419  0.1259 -0.4407
 5405SOL    HW117316   1.593   7.047   8.454 -1.8253  1.5139 -1.0326
 5405SOL    HW217317   1.600   7.150   8.564  1.2264  0.2308  0.1072
 5406SOL     OW17318   4.108   4.353   8.861  0.1369  0.0006  0.2504
 5406SOL    HW117319   4.122   4.261   8.838 -0.7500  0.1877 -1.1480
 5406SOL    HW217320   4.029   4.378   8.813 -0.6705  1.0201  2.0079
 5407SOL     OW17321   8.838   2.167   7.103 -0.4038  0.1619 -0.0608
 5407SOL    HW117322   8.776   2.218   7.154 -0.2371  0.6690 -0.3557
 5407SOL    HW217323   8.834   2.079   7.140 -0.8803  0.3291  0.2864
 5408SOL     OW17324   7.178   7.832   5.634 -0.6295  0.5583 -0.0314
 5408SOL    HW117325   7.203   7.897   5.568  0.1125  1.1419  0.7914
 5408SOL    HW217326   7.169   7.750   5.585  1.8155  0.5534 -0.5920
 5409SOL     OW17327   0.518   1.781   6.069  0.2672 -0.2865 -0.0337
 5409SOL    HW117328   0.473   1.726   6.004  0.9851  0.0700 -0.8519
 5409SOL    HW217329   0.505   1.870   6.038 -0.5970  0.0172  1.1061
 5410SOL     OW17330   6.198   1.536   5.075  0.1915  0.0514  0.1844
 5410SOL    HW117331   6.182   1.465   5.014  1.4838  0.2215 -0.3786
 5410SOL    HW217332   6.285   1.520   5.110 -0.7837 -0.4743  2.6175
 5411SOL     OW17333   3.175   8.067   4.922 -0.0954 -0.1278 -0.4490
 5411SOL    HW117334   3.260   8.026   4.938 -0.2166  0.0457  0.7019
 5411SOL    HW217335   3.192   8.161   4.928 -0.6665 -0.1122  1.5452
 5412SOL     OW17336   5.095   4.143   7.680  0.2318 -0.5318  0.7020
 5412SOL    HW117337   5.164   4.210   7.677 -2.0549  1.9446 -0.9637
 5412SOL    HW217338   5.079   4.121   7.588 -1.7856 -0.3693  0.9809
 5413SOL     OW17339   0.090   4.146   5.295 -0.1922 -0.6961 -0.2628
 5413SOL    HW117340   0.150   4.205   5.340  0.8574 -0.9551 -1.2728
 5413SOL    HW217341   0.033   4.204   5.245  2.2694 -0.4691 -3.0656
 5414SOL     OW17342   8.971   4.312   1.061 -0.6188 -0.0580  0.4261
 5414SOL    HW117343   9.050   4.329   1.010 -0.8085  1.0652  0.4761
 5414SOL    HW217344   8.999   4.249   1.128  0.2163  0.2573  0.3874
 5415SOL     OW17345   7.666   5.184   2.744 -0.5520  0.2619  0.1213
 5415SOL    HW117346   7.751   5.210   2.781 -0.3147 -0.9887  0.4903
 5415SOL    HW217347   7.615   5.265   2.743  0.4658  0.9271  0.3774
 5416SOL     OW17348   1.130   3.392   3.928 -0.0854  0.0542 -0.4931
 5416SOL    HW117349   1.153   3.428   3.843  1.6429  0.0617 -0.0600
 5416SOL    HW217350   1.199   3.424   3.987 -0.7015 -0.7386  0.7077
 5417SOL     OW17351   3.851   3.365   2.123 -0.4970 -0.1437  0.1064
 5417SOL    HW117352   3.895   3.387   2.205  0.2786  0.0448 -0.3573
 5417SOL    HW217353   3.911   3.394   2.054 -0.3748 -1.8302 -0.5449
 5418SOL     OW17354   0.669   5.429   4.048 -0.3876  0.0248  0.1764
 5418SOL    HW117355   0.743   5.442   4.107  0.0275 -0.2761 -0.2586
 5418SOL    HW217356   0.602   5.490   4.078  0.2978  0.8052  0.1464
 5419SOL     OW17357   6.394   1.875   1.193 -0.3947 -0.1171 -0.2991
 5419SOL    HW117358   6.364   1.923   1.117  0.0653 -0.1009 -0.4717
 5419SOL    HW217359   6.393   1.783   1.166 -1.7006 -0.2691  0.1714
 5420SOL     OW17360   5.508   3.563   5.392  0.7052  0.2912 -0.2348
 5420SOL    HW117361   5.433   3.515   5.426  0.9419 -0.5690 -0.8897
 5420SOL    HW217362   5.482   3.655   5.396 -0.3481  0.0080 -0.3687
 5421SOL     OW17363   4.989   7.212   1.411  0.0575 -0.4546  0.3053
 5421SOL    HW117364   4.980   7.192   1.318  0.7630 -1.7897  0.5008
 5421SOL    HW217365   5.057   7.152   1.442  1.9452  1.9088  1.0931
 5422SOL     OW17366   3.103   8.157   2.269  0.3363 -0.4829  0.8171
 5422SOL    HW117367   3.189   8.198   2.254  0.5349 -1.5118 -1.3162
 5422SOL    HW217368   3.059   8.164   2.184 -1.6328 -0.2097  1.7973
 5423SOL     OW17369   9.084   8.064   3.522 -0.5833  0.4194  0.2447
 5423SOL    HW117370   8.998   8.035   3.552 -0.8731  0.1490 -0.8336
 5423SOL    HW217371   9.144   7.995   3.550 -1.1665 -0.9484 -1.6862
 5424SOL     OW17372   7.983   0.514   1.796 -0.0739  0.6360  0.0212
 5424SOL    HW117373   7.976   0.597   1.844 -2.7989  0.0602  0.8359
 5424SOL    HW217374   7.936   0.530   1.714  1.2236  0.4707 -0.7785
 5425SOL     OW17375   3.500   4.393   1.868 -0.5639  0.3722 -0.1122
 5425SOL    HW117376   3.550   4.467   1.904 -0.1068  0.7108 -1.3702
 5425SOL    HW217377   3.533   4.316   1.914 -0.1002  0.8040  0.2843
 5426SOL     OW17378   1.685   5.958   1.744 -0.4106  0.2563 -0.2103
 5426SOL    HW117379   1.653   5.894   1.808 -1.1157 -0.4173 -1.1966
 5426SOL    HW217380   1.677   6.042   1.787  4.9682 -0.4365  3.0529
 5427SOL     OW17381   3.558   0.060   8.004  0.4431 -0.6768  0.2768
 5427SOL    HW117382   3.532   0.056   8.096  1.4182 -1.0288  0.5420
 5427SOL    HW217383   3.644   0.019   8.001  0.3939 -0.7227 -0.8067
 5428SOL     OW17384   2.707   4.195   4.946  0.2541 -0.6931 -0.0049
 5428SOL    HW117385   2.648   4.165   5.015  0.3425 -1.2085 -0.1484
 5428SOL    HW217386   2.774   4.246   4.991 -0.7889  0.6895  0.0682
 5429SOL     OW17387   0.850   5.686   2.357  0.3969  0.0163 -0.5409
 5429SOL    HW117388   0.809   5.617   2.408  1.1171  0.4160  0.6307
 5429SOL    HW217389   0.942   5.685   2.384  0.6318  0.7601 -1.2532
 5430SOL     OW17390   2.399   2.039   4.287 -0.0781  0.2264  0.5692
 5430SOL    HW117391   2.430   1.980   4.218 -0.2352  0.5077  0.2551
 5430SOL    HW217392   2.398   1.985   4.366  0.4532  0.0009  0.4245
 5431SOL     OW17393   5.101   3.511   0.301 -0.0686  0.0426 -0.5627
 5431SOL    HW117394   5.097   3.599   0.339  2.5710 -0.2300  0.5482
 5431SOL    HW217395   5.149   3.522   0.219 -0.8914 -0.1884 -1.0822
 5432SOL     OW17396   7.859   2.260   7.414 -0.4215  0.0126  0.3294
 5432SOL    HW117397   7.931   2.278   7.475  2.9229  0.8431 -3.4191
 5432SOL    HW217398   7.824   2.346   7.392  0.9811  0.1774 -1.5488
 5433SOL     OW17399   3.524   5.050   8.314  0.1327 -0.1880  0.2943
 5433SOL    HW117400   3.432   5.040   8.290  0.3298  0.4604 -0.7897
 5433SOL    HW217401   3.522   5.108   8.390 -0.2746  1.1969 -0.7422
 5434SOL     OW17402   5.092   6.861   0.663 -0.6391  0.8462 -0.2741
 5434SOL    HW117403   5.005   6.824   0.678 -0.2568  0.0955  0.2004
 5434SOL    HW217404   5.076   6.946   0.623 -1.6175  1.1121  0.6295
 5435SOL     OW17405   9.083   7.245   6.544  0.8761 -0.6463 -0.6244
 5435SOL    HW117406   9.170   7.227   6.580  0.4964 -2.7163 -0.6168
 5435SOL    HW217407   9.022   7.215   6.611  0.0870  1.8125 -0.1521
 5436SOL     OW17408   0.913   1.505   6.478  0.4195  0.2376 -0.4233
 5436SOL    HW117409   0.874   1.590   6.459 -0.8978 -0.4224 -0.7774
 5436SOL    HW217410   0.839   1.446   6.490  1.2977 -1.0819 -1.1230
 5437SOL     OW17411   3.615   2.961   6.447  0.1014  0.1627 -0.5720
 5437SOL    HW117412   3.692   3.012   6.421 -0.3182 -0.1836 -2.6465
 5437SOL    HW217413   3.643   2.870   6.438 -0.2007  0.0239 -0.1568
 5438SOL     OW17414   6.455   2.761   4.251  0.5054 -0.2615  0.1619
 5438SOL    HW117415   6.412   2.678   4.232 -0.8601  0.5974 -0.6554
 5438SOL    HW217416   6.543   2.752   4.215  0.4559 -1.4228  0.3089
 5439SOL     OW17417   8.495   6.680   0.407  0.1875 -0.0093 -0.2817
 5439SOL    HW117418   8.547   6.662   0.485 -1.2951  2.6463  1.4903
 5439SOL    HW217419   8.455   6.596   0.385 -0.1656 -0.6930  2.5249
 5440SOL     OW17420   5.642   1.811   7.868 -0.2238  0.1931  0.4422
 5440SOL    HW117421   5.685   1.735   7.907  1.3801  0.2244 -1.1222
 5440SOL    HW217422   5.702   1.839   7.799 -1.5834  1.8664 -0.1219
 5441SOL     OW17423   6.812   5.579   3.314 -0.1593 -0.0197  0.2297
 5441SOL    HW117424   6.829   5.545   3.402 -0.1625  0.9644  0.6305
 5441SOL    HW217425   6.769   5.663   3.330 -1.0464 -0.2777 -0.7289
 5442SOL     OW17426   6.867   4.764   6.604  0.4701 -0.0584  0.3510
 5442SOL    HW117427   6.926   4.723   6.541  1.3876  0.7444  0.6603
 5442SOL    HW217428   6.794   4.703   6.612  0.0058  0.1028 -1.9699
 5443SOL     OW17429   4.814   3.674   2.171 -0.1283 -0.1822  0.0544
 5443SOL    HW117430   4.770   3.675   2.256 -0.4360  0.4230 -0.1129
 5443SOL    HW217431   4.888   3.734   2.181  1.5756 -2.2534  0.7976
 5444SOL     OW17432   1.278   8.349   2.426  0.3338  0.0769 -0.0551
 5444SOL    HW117433   1.355   8.309   2.467  0.6493  1.2617  0.5352
 5444SOL    HW217434   1.206   8.291   2.449  1.1475 -1.5864 -1.4002
 5445SOL     OW17435   0.692   5.236   2.055  0.0559 -0.1904  1.2339
 5445SOL    HW117436   0.645   5.175   1.999 -1.7002  1.1561  1.1620
 5445SOL    HW217437   0.765   5.185   2.090  0.0331 -1.6308 -0.6594
 5446SOL     OW17438   0.784   1.546   8.586 -0.0409  0.0515 -0.0714
 5446SOL    HW117439   0.765   1.453   8.575  0.1761  0.2107 -2.1201
 5446SOL    HW217440   0.836   1.570   8.510 -0.9593  2.0932 -0.1394
 5447SOL     OW17441   8.130   8.588   7.543 -0.2505 -0.7851  0.4663
 5447SOL    HW117442   8.215   8.616   7.509  0.0413 -0.8042  1.1603
 5447SOL    HW217443   8.151   8.540   7.624 -0.7533 -2.7342 -0.5065
 5448SOL     OW17444   0.560   7.091   6.015 -0.0419  0.7173  0.5278
 5448SOL    HW117445   0.579   7.134   5.931  0.9289  0.8084  0.7783
 5448SOL    HW217446   0.615   7.138   6.078 -1.8152  1.5881  1.4736
 5449SOL     OW17447   1.212   7.208   8.292 -0.0887  0.2539 -0.3506
 5449SOL    HW117448   1.192   7.198   8.385 -0.7954  1.2104 -0.3868
 5449SOL    HW217449   1.132   7.243   8.253  0.5670  0.9762 -1.1001
 5450SOL     OW17450   8.151   7.920   7.716  0.0356 -0.4123 -0.0888
 5450SOL    HW117451   8.124   7.963   7.635 -0.7350 -1.0567 -0.1889
 5450SOL    HW217452   8.195   7.840   7.687 -2.5775 -2.0535  0.0755
 5451SOL     OW17453   8.620   3.564   4.275  0.5663 -0.0594  0.0754
 5451SOL    HW117454   8.578   3.650   4.277 -0.1281 -0.3549 -0.8111
 5451SOL    HW217455   8.547   3.502   4.268  1.0534 -0.7235  0.7401
 5452SOL     OW17456   4.422   3.249   0.904  0.5834  0.0714 -0.4333
 5452SOL    HW117457   4.432   3.314   0.834  1.3299 -0.3999 -0.7781
 5452SOL    HW217458   4.366   3.291   0.969 -2.3042 -0.3292 -2.4400
 5453SOL     OW17459   8.198   7.811   3.903  0.3969 -0.3775 -0.4648
 5453SOL    HW117460   8.207   7.790   3.996  1.0546 -0.8354 -0.6216
 5453SOL    HW217461   8.105   7.802   3.885 -0.0251  1.3992  0.5339
 5454SOL     OW17462   7.279   4.631   7.432  0.0679 -0.0947 -0.2789
 5454SOL    HW117463   7.232   4.548   7.444  0.5353 -0.4171 -0.6340
 5454SOL    HW217464   7.287   4.640   7.337 -0.0912  0.4246 -0.2439
 5455SOL     OW17465   5.578   3.899   8.258 -0.2809 -0.3611 -0.1257
 5455SOL    HW117466   5.495   3.859   8.234 -0.7336  0.0374  0.7635
 5455SOL    HW217467   5.636   3.879   8.183 -0.8345 -1.5972 -0.2534
 5456SOL     OW17468   4.370   1.079   0.693 -0.5498  0.2057 -0.3291
 5456SOL    HW117469   4.407   1.126   0.618 -1.2181 -1.2468 -1.6312
 5456SOL    HW217470   4.446   1.044   0.739 -0.0437  2.2943  0.5665
 5457SOL     OW17471   2.384   5.041   4.151  0.5279 -0.5583 -0.7843
 5457SOL    HW117472   2.327   5.085   4.214 -1.2290 -2.1019 -1.1918
 5457SOL    HW217473   2.413   4.962   4.197  3.1600  0.5942 -0.2665
 5458SOL     OW17474   6.337   7.517   3.010 -0.3492  0.3761  0.2657
 5458SOL    HW117475   6.400   7.568   2.959  0.6465 -2.7607 -1.9645
 5458SOL    HW217476   6.257   7.517   2.956 -0.1930 -0.7089  0.0150
 5459SOL     OW17477   5.512   2.632   0.784  0.3549 -0.4392  0.0611
 5459SOL    HW117478   5.492   2.543   0.813 -1.8141 -0.4076 -1.1615
 5459SOL    HW217479   5.427   2.670   0.762  1.2051  2.0053  0.6726
 5460SOL     OW17480   2.755   6.456   8.912 -0.2609 -0.0872  0.3911
 5460SOL    HW117481   2.749   6.486   8.822 -1.1000 -0.4832  0.3039
 5460SOL    HW217482   2.802   6.525   8.958  0.2074  0.1002 -0.3499
 5461SOL     OW17483   5.804   0.057   3.945 -0.7144  0.3135 -0.1355
 5461SOL    HW117484   5.788   0.137   3.896 -1.7102  0.3715  0.2624
 5461SOL    HW217485   5.856   0.084   4.021 -2.7882  0.9729  1.1232
 5462SOL     OW17486   3.494   6.464   4.305  0.0326  0.3282  0.4129
 5462SOL    HW117487   3.512   6.398   4.238 -1.5128 -0.3675  0.6354
 5462SOL    HW217488   3.444   6.531   4.259 -0.5013  0.1473  0.7236
 5463SOL     OW17489   8.965   4.736   0.507  0.2600  0.0265 -0.2461
 5463SOL    HW117490   8.929   4.823   0.490 -0.3293  0.4260  2.5555
 5463SOL    HW217491   9.021   4.747   0.583  0.4622 -1.9884 -0.0486
 5464SOL     OW17492   2.292   7.409   5.523 -0.3278  0.3882 -0.3284
 5464SOL    HW117493   2.304   7.383   5.614 -1.3534 -0.4799 -0.4221
 5464SOL    HW217494   2.364   7.367   5.476  1.2700  2.2648  0.2802
 5465SOL     OW17495   5.880   7.637   7.614 -0.1834  0.4316 -0.6396
 5465SOL    HW117496   5.942   7.620   7.685 -0.4807 -0.0741 -0.4933
 5465SOL    HW217497   5.885   7.559   7.559 -2.1384 -0.5629  0.4651
 5466SOL     OW17498   4.303   2.965   0.474  0.8385  0.0007 -0.4051
 5466SOL    HW117499   4.268   2.917   0.549  1.1277 -1.7357 -1.3284
 5466SOL    HW217500   4.357   2.901   0.427  0.9919  1.1459 -1.8849
 5467SOL     OW17501   5.851   5.659   4.942 -0.3410  0.4549 -0.2730
 5467SOL    HW117502   5.866   5.710   4.862  0.3786 -1.0399 -1.1230
 5467SOL    HW217503   5.757   5.664   4.956 -0.6706 -0.3140 -1.9596
 5468SOL     OW17504   1.063   5.206   8.347  0.5966 -0.1495  0.2973
 5468SOL    HW117505   0.971   5.195   8.370 -0.2178  2.3919 -1.2256
 5468SOL    HW217506   1.093   5.118   8.325 -1.8370 -0.9107 -0.3198
 5469SOL     OW17507   2.520   5.559   2.745  0.3578  0.7261  0.1820
 5469SOL    HW117508   2.448   5.604   2.789  1.4063  1.1411  1.5048
 5469SOL    HW217509   2.493   5.557   2.653 -0.3836  2.7858  0.2975
 5470SOL     OW17510   7.833   6.148   4.028  0.6129  0.5780  0.2498
 5470SOL    HW117511   7.802   6.133   3.939 -1.2879  2.5957  0.4839
 5470SOL    HW217512   7.759   6.125   4.084  1.3887  0.4207  1.2448
 5471SOL     OW17513   7.634   6.963   7.992  0.4869 -0.3745 -0.0187
 5471SOL    HW117514   7.551   6.919   8.013  1.0363 -1.5498 -0.2547
 5471SOL    HW217515   7.624   7.050   8.031 -1.2245 -0.1573 -0.8311
 5472SOL     OW17516   2.928   7.265   3.953  1.1818 -0.3078 -0.3111
 5472SOL    HW117517   2.876   7.295   4.027  2.8782  0.3360  0.6579
 5472SOL    HW217518   2.867   7.213   3.901  0.1139 -1.3758  1.8929
 5473SOL     OW17519   0.716   6.344   0.096  0.3131  0.1201  0.1803
 5473SOL    HW117520   0.723   6.438   0.081  1.0613  0.0032 -0.2444
 5473SOL    HW217521   0.723   6.305   0.009  2.9304 -0.4707  0.5489
 5474SOL     OW17522   3.608   0.293   5.049 -0.1146 -0.1386 -0.0354
 5474SOL    HW117523   3.695   0.332   5.058  0.4332 -0.4379 -3.0995
 5474SOL    HW217524   3.555   0.363   5.011 -0.8032 -0.4618  0.3201
 5475SOL     OW17525   8.859   2.436   7.752  0.1374  0.1250 -0.1197
 5475SOL    HW117526   8.846   2.352   7.797 -1.2122  0.9628  1.1706
 5475SOL    HW217527   8.795   2.435   7.680  0.9869 -0.4423 -0.8817
 5476SOL     OW17528   7.413   1.644   5.562 -0.4688 -0.1217 -0.4306
 5476SOL    HW117529   7.361   1.631   5.642  1.8902  1.6932  1.5487
 5476SOL    HW217530   7.355   1.695   5.505 -1.1258  1.5262  1.5509
 5477SOL     OW17531   8.189   7.324   0.092  0.0784 -0.0458  0.1851
 5477SOL    HW117532   8.224   7.244   0.053 -1.1411 -1.4083  1.7754
 5477SOL    HW217533   8.267   7.376   0.115  0.9191 -1.2209  0.0573
 5478SOL     OW17534   8.137   3.454   3.530  0.4520 -0.0753 -0.0157
 5478SOL    HW117535   8.082   3.479   3.604  3.7208  0.0936  2.6088
 5478SOL    HW217536   8.182   3.534   3.504  0.7740 -0.5261 -0.9219
 5479SOL     OW17537   8.058   5.177   2.548  0.5943  0.1981 -0.1641
 5479SOL    HW117538   8.102   5.153   2.467 -1.6546 -0.4578 -1.2972
 5479SOL    HW217539   8.048   5.272   2.543 -0.6516  0.0512 -1.3614
 5480SOL     OW17540   0.350   7.512   3.819 -0.1124 -0.0000 -0.5182
 5480SOL    HW117541   0.346   7.470   3.905 -0.1456  0.4194 -0.3082
 5480SOL    HW217542   0.415   7.581   3.829  2.1659 -1.8598 -1.7225
 5481SOL     OW17543   4.891   7.358   6.872 -0.1159 -0.3302 -0.5361
 5481SOL    HW117544   4.836   7.301   6.926 -1.5939 -0.0112 -1.6200
 5481SOL    HW217545   4.963   7.303   6.843 -0.8284 -1.2989 -0.5173
 5482SOL     OW17546   1.041   5.373   8.065 -0.6151 -0.7482 -0.1002
 5482SOL    HW117547   1.030   5.333   8.151 -0.1120 -0.2327  0.2110
 5482SOL    HW217548   0.960   5.420   8.050 -0.3593 -0.0958  0.5000
 5483SOL     OW17549   6.990   2.812   3.772 -0.3573 -0.6473 -0.0691
 5483SOL    HW117550   7.063   2.764   3.732 -0.6418 -0.0738 -1.3390
 5483SOL    HW217551   6.959   2.870   3.702 -0.9605  0.3202  0.9658
 5484SOL     OW17552   2.418   4.604   5.362 -0.4502 -0.2207  0.4216
 5484SOL    HW117553   2.483   4.588   5.430 -1.7227 -1.5384  1.3915
 5484SOL    HW217554   2.469   4.635   5.287  0.9999  1.2037  1.9162
 5485SOL     OW17555   6.509   0.906   4.916  0.0296 -0.1471 -0.4188
 5485SOL    HW117556   6.468   0.992   4.925 -2.9239 -1.3423 -1.2468
 5485SOL    HW217557   6.531   0.899   4.823  2.0256  0.3740 -0.0293
 5486SOL     OW17558   5.271   6.435   7.413  0.2415 -0.3719  0.3066
 5486SOL    HW117559   5.245   6.416   7.504 -0.2377  0.0061  0.2539
 5486SOL    HW217560   5.333   6.507   7.421 -0.3281  0.1270  0.2910
 5487SOL     OW17561   6.501   7.129   5.975 -0.4751 -0.0246  0.1237
 5487SOL    HW117562   6.457   7.117   5.890 -0.7927  1.4623  0.0433
 5487SOL    HW217563   6.431   7.147   6.036 -0.2212 -0.8476  0.6761
 5488SOL     OW17564   3.771   5.262   5.000 -0.1199  0.2499 -0.1127
 5488SOL    HW117565   3.856   5.284   4.962 -0.5680  0.7691 -0.8560
 5488SOL    HW217566   3.708   5.302   4.940 -0.8644  0.8374  1.0251
 5489SOL     OW17567   6.113   4.787   5.400  0.1091  0.5445 -0.0742
 5489SOL    HW117568   6.032   4.746   5.429 -0.8600  2.5660  0.2398
 5489SOL    HW217569   6.132   4.748   5.315 -0.0451 -1.4389  0.7573
 5490SOL     OW17570   6.950   3.034   1.562  0.0828  0.0017  0.0771
 5490SOL    HW117571   6.874   2.979   1.577  0.6330 -0.9525 -0.5334
 5490SOL    HW217572   6.935   3.073   1.476  1.4981 -2.3439 -1.3352
 5491SOL     OW17573   1.097   6.982   8.072  0.2337 -0.0466  0.2391
 5491SOL    HW117574   1.062   7.009   8.157  1.1713  0.4084  0.4897
 5491SOL    HW217575   1.186   7.016   8.071  0.5757 -0.9396 -0.5097
 5492SOL     OW17576   0.245   1.326   8.015 -0.2012  0.3786 -0.3329
 5492SOL    HW117577   0.250   1.243   7.968 -0.8453  0.7104 -1.0056
 5492SOL    HW217578   0.157   1.359   7.998  0.0421  1.2056 -0.0762
 5493SOL     OW17579   3.316   5.123   8.707 -0.8761 -0.5651 -0.1271
 5493SOL    HW117580   3.266   5.146   8.785  2.0632 -2.5195  2.6011
 5493SOL    HW217581   3.293   5.031   8.691  0.5879 -1.0227  0.2548
 5494SOL     OW17582   3.443   1.430   9.126 -0.5126 -0.6122 -0.4918
 5494SOL    HW117583   3.454   1.336   9.138  2.3627 -0.3805 -0.5852
 5494SOL    HW217584   3.515   1.456   9.069 -1.1163  1.6811 -0.3288
 5495SOL     OW17585   7.791   8.428   8.336 -0.4019 -0.0702  0.0060
 5495SOL    HW117586   7.840   8.349   8.361 -0.6770 -0.6691 -1.3193
 5495SOL    HW217587   7.839   8.462   8.261 -2.4166 -1.1082 -1.8325
 5496SOL     OW17588   6.677   3.538   8.464 -0.9699  0.2105 -0.0825
 5496SOL    HW117589   6.718   3.468   8.515  0.2519 -0.0878 -1.4236
 5496SOL    HW217590   6.583   3.522   8.474 -0.7312 -1.0242  0.4577
 5497SOL     OW17591   4.585   0.507   6.136 -0.1871  0.6185 -0.4537
 5497SOL    HW117592   4.648   0.448   6.177  0.5044  0.9077 -1.0641
 5497SOL    HW217593   4.524   0.448   6.091 -1.0886  0.2945  1.1343
 5498SOL     OW17594   8.038   0.263   1.979  0.0304  0.4893  0.2692
 5498SOL    HW117595   8.101   0.303   1.920 -0.4855  0.1328 -0.5397
 5498SOL    HW217596   8.002   0.336   2.029 -1.2308  1.1353 -1.4988
 5499SOL     OW17597   4.517   6.691   4.576 -0.0751 -0.7743  0.4548
 5499SOL    HW117598   4.546   6.759   4.515  0.0586 -0.6710  0.6329
 5499SOL    HW217599   4.444   6.732   4.623  0.1959 -0.6496  0.7679
 5500SOL     OW17600   6.668   3.164   8.190  0.2640 -0.1439 -0.3687
 5500SOL    HW117601   6.585   3.142   8.232  0.6290  1.8189  1.5591
 5500SOL    HW217602   6.650   3.246   8.143  1.1496  0.4438  0.2814
 5501SOL     OW17603   3.393   2.049   7.968  0.0938 -0.0232 -0.0855
 5501SOL    HW117604   3.485   2.051   7.994  0.3890  0.4835 -1.0947
 5501SOL    HW217605   3.345   2.038   8.050  0.9870  1.0903  0.6248
 5502SOL     OW17606   4.947   3.140   1.528  0.0672 -0.4414 -0.1015
 5502SOL    HW117607   5.017   3.153   1.464 -0.2832  0.7297 -0.2757
 5502SOL    HW217608   4.990   3.151   1.613  0.2483 -0.5334 -0.1796
 5503SOL     OW17609   4.185   9.103   5.875  0.1427 -0.4148  0.1508
 5503SOL    HW117610   4.111   9.044   5.864  0.5164 -1.2036  1.6473
 5503SOL    HW217611   4.247   9.055   5.930  1.3280  0.6158 -0.2253
 5504SOL     OW17612   3.666   4.025   5.210 -0.2834  0.2620 -0.1333
 5504SOL    HW117613   3.634   3.940   5.180  1.6921 -0.3081 -0.7765
 5504SOL    HW217614   3.704   4.065   5.133 -1.0568  1.7029  0.2062
 5505SOL     OW17615   1.475   7.338   7.062  0.0395  0.3875 -0.4190
 5505SOL    HW117616   1.526   7.419   7.069 -2.8677  2.3257  0.2864
 5505SOL    HW217617   1.427   7.332   7.144 -2.1684 -0.3123 -1.6607
 5506SOL     OW17618   5.155   5.480   6.472 -0.2049 -0.1898 -0.2611
 5506SOL    HW117619   5.168   5.393   6.434 -1.0916 -0.2365 -0.4747
 5506SOL    HW217620   5.080   5.516   6.425 -1.5839 -0.3854  1.6547
 5507SOL     OW17621   9.112   1.862   8.093  0.0063 -0.8276  0.1571
 5507SOL    HW117622   9.155   1.907   8.166  0.1564 -0.9645  0.1531
 5507SOL    HW217623   9.045   1.807   8.135  0.5397 -1.4169  0.2470
 5508SOL     OW17624   4.409   6.826   2.495 -0.4169  0.0765  0.0438
 5508SOL    HW117625   4.411   6.740   2.453  1.7956  0.0730  0.0592
 5508SOL    HW217626   4.434   6.809   2.585 -3.1826  0.3642  0.9638
 5509SOL     OW17627   5.750   7.289   0.933  0.1000 -0.4774 -0.1363
 5509SOL    HW117628   5.708   7.371   0.959 -1.6952  0.0883 -4.0523
 5509SOL    HW217629   5.821   7.316   0.874 -0.1300 -1.6775 -1.0063
 5510SOL     OW17630   6.455   0.174   7.573 -0.0525  0.0690  0.0371
 5510SOL    HW117631   6.531   0.169   7.515 -0.7646  3.4933 -1.4031
 5510SOL    HW217632   6.385   0.128   7.525  0.1827  0.1106 -0.3497
 5511SOL     OW17633   6.719   8.899   0.045  0.1668  0.1115  0.0797
 5511SOL    HW117634   6.706   8.881  -0.048 -0.1440 -0.8960  0.3138
 5511SOL    HW217635   6.686   8.821   0.090  3.2209 -0.8211  0.9089
 5512SOL     OW17636   1.810   4.482   3.160 -0.0408  0.6009  0.4687
 5512SOL    HW117637   1.749   4.441   3.222  0.7521  1.6660  2.0036
 5512SOL    HW217638   1.759   4.490   3.079 -0.8233 -1.6467  0.6621
 5513SOL     OW17639   4.771   3.262   1.729  0.1135 -0.3960  0.5366
 5513SOL    HW117640   4.798   3.233   1.642 -2.1709 -0.5377 -0.1967
 5513SOL    HW217641   4.677   3.276   1.721  0.1811  1.7474  2.3961
 5514SOL     OW17642   4.468   1.487   1.221 -0.1810  0.1127  0.2212
 5514SOL    HW117643   4.444   1.468   1.130  0.9613  1.0450 -0.3031
 5514SOL    HW217644   4.472   1.582   1.225  1.3390  0.0599  0.8055
 5515SOL     OW17645   0.433   1.530   7.551 -0.3124 -0.1512 -0.3996
 5515SOL    HW117646   0.483   1.600   7.509 -0.4735 -0.4508 -1.0969
 5515SOL    HW217647   0.498   1.467   7.580 -0.0073  1.0056  1.6780
 5516SOL     OW17648   4.301   2.053   8.779  0.1501  0.2663 -0.1229
 5516SOL    HW117649   4.208   2.072   8.793 -0.1304 -1.1521  0.0545
 5516SOL    HW217650   4.344   2.137   8.792 -1.2987  1.4698 -2.3152
 5517SOL     OW17651   7.971   6.128   0.460  0.6380  0.1409 -0.2008
 5517SOL    HW117652   7.914   6.199   0.491 -0.3755 -0.7316 -0.0023
 5517SOL    HW217653   7.989   6.077   0.539  0.0299 -0.7265 -0.6086
 5518SOL     OW17654   0.413   0.444   0.005  0.6096 -0.8027  1.1982
 5518SOL    HW117655   0.388   0.361   0.045 -0.6757 -1.1170 -0.1513
 5518SOL    HW217656   0.449   0.419  -0.080  0.5047 -0.0096  0.9141
 5519SOL     OW17657   0.470   1.401   1.247 -0.2255 -0.1236  0.4476
 5519SOL    HW117658   0.500   1.490   1.227 -1.2304  0.3493  0.9789
 5519SOL    HW217659   0.546   1.345   1.228  0.3988  0.8363  0.0547
 5520SOL     OW17660   8.963   3.691   1.055 -0.0292 -0.0841  0.2451
 5520SOL    HW117661   8.872   3.671   1.079  0.2405  0.5859  1.9522
 5520SOL    HW217662   8.955   3.751   0.980 -1.0151  0.3287  0.6570
 5521SOL     OW17663   7.294   4.729   3.978  0.3152 -0.2609 -0.3133
 5521SOL    HW117664   7.378   4.712   3.935 -0.0123 -0.1340 -1.0092
 5521SOL    HW217665   7.247   4.785   3.917  0.0807  0.4329  0.4826
 5522SOL     OW17666   5.315   2.341   6.471 -0.3494  0.2132  0.1261
 5522SOL    HW117667   5.251   2.411   6.458 -0.1782 -0.0257 -2.8868
 5522SOL    HW217668   5.397   2.386   6.489 -0.6199  0.7180  0.0942
 5523SOL     OW17669   8.392   7.743   8.943 -0.3009 -0.5022 -0.1987
 5523SOL    HW117670   8.397   7.648   8.948  2.6407 -0.4784 -1.0085
 5523SOL    HW217671   8.408   7.773   9.032  0.5699 -0.7781 -0.2504
 5524SOL     OW17672   5.150   0.246   6.532 -0.0565 -0.3238 -0.7710
 5524SOL    HW117673   5.206   0.195   6.590  0.1577  0.7929  0.0317
 5524SOL    HW217674   5.061   0.223   6.558  0.0220  0.9050  0.7212
 5525SOL     OW17675   4.504   2.379   0.553 -0.0540 -0.5267  0.7051
 5525SOL    HW117676   4.453   2.305   0.588 -0.4409  0.1994  1.7368
 5525SOL    HW217677   4.466   2.456   0.596  1.1126  0.1558  0.5424
 5526SOL     OW17678   3.484   3.389   7.934 -0.8221 -0.6354  0.0636
 5526SOL    HW117679   3.511   3.297   7.937 -1.3498 -0.8260 -0.6638
 5526SOL    HW217680   3.499   3.422   8.023 -0.0499 -1.2533  0.1735
 5527SOL     OW17681   1.106   8.604   1.270 -0.0009  0.1077  0.3630
 5527SOL    HW117682   1.049   8.669   1.229 -1.6068 -0.5191  1.5258
 5527SOL    HW217683   1.086   8.522   1.225  0.8806  0.0947 -0.0320
 5528SOL     OW17684   4.493   8.498   9.094 -0.0029 -0.5303  0.5278
 5528SOL    HW117685   4.401   8.523   9.086 -0.6335 -2.3856  1.3912
 5528SOL    HW217686   4.515   8.518   9.185  0.0818 -1.1637  0.6513
 5529SOL     OW17687   7.450   7.729   2.171  0.1269 -0.1919 -0.0013
 5529SOL    HW117688   7.460   7.771   2.257 -2.3633 -1.4946  1.0450
 5529SOL    HW217689   7.525   7.669   2.165 -0.3232 -1.0439  1.9240
 5530SOL     OW17690   5.491   1.970   1.344  0.1347 -0.1703 -0.6571
 5530SOL    HW117691   5.575   1.925   1.344  0.2543  0.0481 -0.9375
 5530SOL    HW217692   5.435   1.917   1.401  0.8202  0.3910  0.5793
 5531SOL     OW17693   7.663   8.290   5.312 -0.0561  0.1256  0.2945
 5531SOL    HW117694   7.734   8.335   5.265 -0.1791  0.7126  0.6645
 5531SOL    HW217695   7.583   8.332   5.282 -0.2421 -0.3972  0.0370
 5532SOL     OW17696   7.821   4.194   1.909 -0.1393  0.4050  0.2282
 5532SOL    HW117697   7.728   4.184   1.932 -0.1472 -0.0485  0.0123
 5532SOL    HW217698   7.864   4.211   1.993 -0.1998 -1.0453  0.5827
 5533SOL     OW17699   1.279   6.589   3.698  0.2921 -0.3381  0.1116
 5533SOL    HW117700   1.368   6.595   3.663  0.3221 -1.3030 -0.0002
 5533SOL    HW217701   1.290   6.572   3.791  0.2221 -0.1597  0.1531
 5534SOL     OW17702   3.403   7.013   5.488 -0.5011 -0.1169 -0.1260
 5534SOL    HW117703   3.427   7.080   5.424 -1.0313  0.4953  0.3058
 5534SOL    HW217704   3.336   6.961   5.444  0.9287 -1.2888 -1.0072
 5535SOL     OW17705   8.891   0.116   8.810 -0.2272  0.8131 -0.0709
 5535SOL    HW117706   8.984   0.097   8.801 -0.3821 -0.4654  0.7331
 5535SOL    HW217707   8.847   0.045   8.763 -0.8135  2.1282 -1.6101
 5536SOL     OW17708   1.444   6.251   7.388  0.2741  0.1199 -0.0939
 5536SOL    HW117709   1.484   6.337   7.401  1.0832 -0.3117  0.3571
 5536SOL    HW217710   1.461   6.204   7.469  0.6824 -0.7953 -0.6924
 5537SOL     OW17711   3.613   7.299   7.685  0.0229  0.6887  0.2903
 5537SOL    HW117712   3.575   7.260   7.763  1.5081 -0.2671  0.5749
 5537SOL    HW217713   3.656   7.226   7.640  0.4772  1.4964 -0.6165
 5538SOL     OW17714   3.478   5.174   3.750 -0.2886 -0.9806 -1.0107
 5538SOL    HW117715   3.464   5.083   3.776  0.0814 -1.3532 -2.0565
 5538SOL    HW217716   3.570   5.178   3.723  0.1726  0.1241  0.6198
 5539SOL     OW17717   8.452   7.500   6.491  0.2693  0.7237  0.2291
 5539SOL    HW117718   8.410   7.423   6.453 -0.4793  0.5315  1.3985
 5539SOL    HW217719   8.467   7.558   6.416  1.3770 -0.7657 -0.7689
 5540SOL     OW17720   5.746   3.235   4.684  0.0209 -0.2235 -0.1818
 5540SOL    HW117721   5.822   3.289   4.661  0.7762 -1.3606 -0.4534
 5540SOL    HW217722   5.718   3.268   4.769  0.5824  0.4689 -0.2587
 5541SOL     OW17723   6.270   4.917   5.753  0.1125  0.2914  0.0779
 5541SOL    HW117724   6.276   4.825   5.724  0.4399  0.1481  0.5869
 5541SOL    HW217725   6.297   4.915   5.845  2.0870  1.1689 -0.4298
 5542SOL     OW17726   7.186   1.026   6.116 -0.1466 -0.5678 -0.1045
 5542SOL    HW117727   7.256   1.012   6.053 -2.3074 -1.1815 -2.5555
 5542SOL    HW217728   7.144   0.940   6.125  0.0170 -0.4493  2.1032
 5543SOL     OW17729   6.598   6.039   2.532  0.1877 -0.0926  0.1229
 5543SOL    HW117730   6.556   5.960   2.567 -0.3382  1.9035  4.7620
 5543SOL    HW217731   6.529   6.106   2.536  1.5451  1.3918 -0.1950
 5544SOL     OW17732   0.788   5.378   6.924 -0.3206  0.2958  0.6240
 5544SOL    HW117733   0.752   5.436   6.992  0.8813  1.2072  0.5215
 5544SOL    HW217734   0.874   5.415   6.905  0.0931 -1.0080 -0.1233
 5545SOL     OW17735   7.561   6.727   6.721  0.2228 -0.2624  0.1423
 5545SOL    HW117736   7.587   6.780   6.646  2.3420  0.1650  1.1314
 5545SOL    HW217737   7.591   6.776   6.797 -0.5790 -1.3923  1.2235
 5546SOL     OW17738   3.434   8.072   1.106 -0.1893 -0.6599 -0.4657
 5546SOL    HW117739   3.529   8.072   1.114 -0.0760 -0.9251 -1.6528
 5546SOL    HW217740   3.403   8.087   1.195  0.9403 -2.5731  0.3177
 5547SOL     OW17741   6.624   5.668   7.977 -0.1569 -0.1958 -0.0038
 5547SOL    HW117742   6.554   5.685   7.913  0.5707  0.4102 -0.6659
 5547SOL    HW217743   6.635   5.573   7.976 -1.6726 -0.4196  0.8913
 5548SOL     OW17744   7.687   9.119   2.403  0.0861  0.2477  0.1245
 5548SOL    HW117745   7.701   9.072   2.321  0.0441 -0.0551  0.2888
 5548SOL    HW217746   7.595   9.147   2.398 -0.1953 -0.5530  0.4558
 5549SOL     OW17747   3.165   8.115   2.741  0.7255  0.0067  0.4144
 5549SOL    HW117748   3.189   8.207   2.744 -0.9217  0.5203 -0.7321
 5549SOL    HW217749   3.101   8.104   2.811  0.2202 -0.0229 -0.0408
 5550SOL     OW17750   1.138   2.685   0.464  0.3461 -0.0562  0.2976
 5550SOL    HW117751   1.201   2.617   0.488  1.3483  0.2594 -1.2751
 5550SOL    HW217752   1.177   2.766   0.498 -0.3988 -0.1237  1.3694
 5551SOL     OW17753   8.480   4.093   6.183 -0.2918 -0.4325  0.4765
 5551SOL    HW117754   8.389   4.079   6.209  0.1972 -3.4939  0.9836
 5551SOL    HW217755   8.481   4.076   6.089 -0.5552  1.7589  0.0395
 5552SOL     OW17756   1.606   0.063   8.450 -0.1285  0.1156  0.0321
 5552SOL    HW117757   1.670   0.133   8.437 -0.1709 -0.0872 -1.4521
 5552SOL    HW217758   1.645   0.007   8.516  0.1745  1.2180  0.8152
 5553SOL     OW17759   1.307   6.241   7.164 -0.1094  0.1319  0.1632
 5553SOL    HW117760   1.347   6.252   7.250 -1.1132 -0.8357  0.7728
 5553SOL    HW217761   1.247   6.316   7.156  1.3347  1.2759 -0.5219
 5554SOL     OW17762   2.939   7.419   2.505  0.1366 -0.4854  0.1636
 5554SOL    HW117763   2.909   7.389   2.590 -0.1850 -0.4650  0.0603
 5554SOL    HW217764   2.918   7.513   2.504 -0.8456 -0.6926 -0.3463
 5555SOL     OW17765   6.445   8.040   8.778 -0.2077 -0.2662  0.3406
 5555SOL    HW117766   6.375   8.097   8.809  0.4321  0.9070 -0.2985
 5555SOL    HW217767   6.506   8.098   8.732  0.3920 -1.4820 -0.4918
 5556SOL     OW17768   5.357   7.393   1.501 -0.1283 -0.4538 -0.6353
 5556SOL    HW117769   5.269   7.429   1.512  0.2478  0.4258 -0.4351
 5556SOL    HW217770   5.406   7.460   1.454  0.8880 -0.2264  0.6770
 5557SOL     OW17771   4.032   0.029   6.751  0.0806 -0.5715 -0.2234
 5557SOL    HW117772   4.072  -0.057   6.766 -0.4999 -0.7956  0.0729
 5557SOL    HW217773   3.947   0.009   6.713  0.7154 -0.0597 -1.9889
 5558SOL     OW17774   4.670   0.002   4.373 -0.5603  0.4016 -0.4395
 5558SOL    HW117775   4.586   0.012   4.418 -0.5199 -0.1360 -0.2375
 5558SOL    HW217776   4.727  -0.037   4.439 -0.8378 -1.5771 -1.3236
 5559SOL     OW17777   3.542   7.958   7.250  0.3292 -0.0861 -0.3258
 5559SOL    HW117778   3.535   7.936   7.343 -0.6662 -0.2475 -0.4276
 5559SOL    HW217779   3.569   8.050   7.250  2.6611 -0.7086  0.1006
 5560SOL     OW17780   6.130   4.867   7.719 -0.0817  0.4867  0.5072
 5560SOL    HW117781   6.053   4.892   7.668  1.5989  3.9852 -0.6111
 5560SOL    HW217782   6.174   4.800   7.666 -0.6664  0.8483 -0.4516
 5561SOL     OW17783   1.239   4.833   1.282  0.0315 -0.6076 -0.7230
 5561SOL    HW117784   1.301   4.811   1.352 -0.1397 -0.8623 -0.6490
 5561SOL    HW217785   1.288   4.892   1.224 -0.3091  0.9043  0.4424
 5562SOL     OW17786   4.564   1.164   5.705  0.2014  0.4439 -0.0062
 5562SOL    HW117787   4.524   1.135   5.787  0.3355 -1.2080 -0.4899
 5562SOL    HW217788   4.658   1.147   5.717  0.3414  1.0780 -0.1638
 5563SOL     OW17789   5.743   6.227   6.611 -0.4404  0.3335 -0.3572
 5563SOL    HW117790   5.766   6.222   6.519  1.4309  0.7013  0.0566
 5563SOL    HW217791   5.780   6.148   6.650  0.1309  0.9300  0.3382
 5564SOL     OW17792   5.580   5.013   2.267  0.5523 -0.1405 -0.2142
 5564SOL    HW117793   5.675   5.021   2.267  0.5229  1.0055  2.0624
 5564SOL    HW217794   5.549   5.097   2.233  0.3742 -0.0058  0.2648
 5565SOL     OW17795   0.673   6.013   0.360  0.4412 -0.4066  0.2756
 5565SOL    HW117796   0.728   6.010   0.439  2.1981  1.8371 -0.7551
 5565SOL    HW217797   0.724   6.064   0.298 -1.5776 -0.8054 -1.8222
 5566SOL     OW17798   7.959   3.665   2.163 -0.5512 -0.0859 -0.6373
 5566SOL    HW117799   7.948   3.687   2.071 -0.1949  1.4290 -0.3373
 5566SOL    HW217800   7.920   3.738   2.211  0.4970 -0.1833  0.4070
 5567SOL     OW17801   1.890   3.725   8.817  0.0997 -0.0758  0.0582
 5567SOL    HW117802   1.865   3.639   8.851 -0.2618  0.0481  0.1149
 5567SOL    HW217803   1.887   3.715   8.722 -2.4661  0.5345 -0.0191
 5568SOL     OW17804   7.008   4.787   2.738 -0.0345  0.4570 -0.2547
 5568SOL    HW117805   7.086   4.808   2.790  0.1625 -1.9906  0.5567
 5568SOL    HW217806   7.036   4.803   2.647  0.5942  1.8849  0.1485
 5569SOL     OW17807   1.919   3.714   4.354 -0.2261 -0.0475  0.3838
 5569SOL    HW117808   1.987   3.738   4.290  0.6906 -0.9106  1.0003
 5569SOL    HW217809   1.914   3.789   4.413  0.7062 -0.2448  0.7373
 5570SOL     OW17810   0.764   7.250   3.753  0.5071  0.5359  0.6539
 5570SOL    HW117811   0.719   7.266   3.836  3.9553  0.1116  2.7907
 5570SOL    HW217812   0.745   7.328   3.700 -0.2572  1.7261  2.5811
 5571SOL     OW17813   4.522   0.363   4.608  0.6672  1.1236  0.3319
 5571SOL    HW117814   4.490   0.350   4.519  0.3679 -2.2736  0.8092
 5571SOL    HW217815   4.611   0.399   4.596  0.6032  0.8299 -1.3247
 5572SOL     OW17816   6.045   5.979   8.732 -0.3590  0.3023 -0.0800
 5572SOL    HW117817   6.058   5.998   8.639  0.4931  1.4479  0.2538
 5572SOL    HW217818   6.102   5.903   8.748 -2.6943 -1.8072 -1.0943
 5573SOL     OW17819   2.282   7.294   5.085  0.2879 -0.4567  0.2803
 5573SOL    HW117820   2.343   7.358   5.123 -1.0863  1.1142 -0.0361
 5573SOL    HW217821   2.260   7.331   4.999 -1.2112 -0.8990  0.4504
 5574SOL     OW17822   4.123   4.024   6.250  0.2688  0.0151 -0.1240
 5574SOL    HW117823   4.205   4.074   6.259 -0.2411  0.8087  0.2482
 5574SOL    HW217824   4.054   4.089   6.266 -0.4124 -0.8205  0.3995
 5575SOL     OW17825   0.390   8.563   6.472  0.1162  0.1671 -0.5074
 5575SOL    HW117826   0.463   8.530   6.524  0.5170  1.5573 -0.1484
 5575SOL    HW217827   0.402   8.658   6.471 -2.0314  0.5053  0.0904
 5576SOL     OW17828   5.373   0.234   7.162  0.0163 -0.3065  0.2679
 5576SOL    HW117829   5.389   0.151   7.209 -0.7459  1.0082  3.0957
 5576SOL    HW217830   5.278   0.238   7.155  0.1073 -0.2337 -1.0166
 5577SOL     OW17831   7.527   4.279   3.829 -0.1265 -0.2074 -0.1496
 5577SOL    HW117832   7.502   4.234   3.748 -1.8255  0.2174  0.0930
 5577SOL    HW217833   7.535   4.371   3.804  0.0266 -0.1720  0.0319
 5578SOL     OW17834   7.863   5.594   3.336  0.5806 -0.0854 -0.0153
 5578SOL    HW117835   7.936   5.592   3.398  0.0086 -1.2441  0.6586
 5578SOL    HW217836   7.793   5.639   3.383  1.0982  1.8361 -0.9853
 5579SOL     OW17837   0.851   1.258   2.675 -0.2557  0.0401  0.6032
 5579SOL    HW117838   0.940   1.259   2.640  0.9576  0.6256  3.3870
 5579SOL    HW217839   0.842   1.173   2.717 -0.4926  0.4418  1.4088
 5580SOL     OW17840   6.466   5.912   3.900  0.1585  0.1628 -0.3489
 5580SOL    HW117841   6.376   5.931   3.874 -0.1420  1.4743  1.3934
 5580SOL    HW217842   6.517   5.918   3.819 -1.1375  0.6614 -1.1564
 5581SOL     OW17843   8.562   6.178   6.538 -0.2287  0.1865  0.2851
 5581SOL    HW117844   8.652   6.180   6.507 -0.6907  2.5861 -1.1702
 5581SOL    HW217845   8.520   6.110   6.486  0.3917  0.0890 -0.0960
 5582SOL     OW17846   7.925   1.838   7.212 -0.3341 -0.3282 -0.0210
 5582SOL    HW117847   7.951   1.853   7.121 -1.8029 -0.3912 -0.4655
 5582SOL    HW217848   7.922   1.925   7.251 -0.4858 -0.2315 -0.2480
 5583SOL     OW17849   6.303   4.170   5.598  0.1428  0.2469  0.3207
 5583SOL    HW117850   6.234   4.138   5.656 -0.2834 -0.4752 -0.5460
 5583SOL    HW217851   6.266   4.248   5.558 -0.3214 -0.3040 -0.3666
 5584SOL     OW17852   7.712   5.260   1.449  0.1859  0.4067  0.0459
 5584SOL    HW117853   7.655   5.276   1.524 -3.1186 -3.8030 -1.2310
 5584SOL    HW217854   7.780   5.201   1.482 -1.2205 -1.3788 -0.1388
 5585SOL     OW17855   3.138   6.006   2.826  0.3965 -0.5277 -0.1841
 5585SOL    HW117856   3.177   6.092   2.841 -0.9970  0.4500 -1.7556
 5585SOL    HW217857   3.189   5.946   2.881  1.4635  1.2717  0.8735
 5586SOL     OW17858   8.652   8.709   6.082  0.7608 -0.0745 -0.5243
 5586SOL    HW117859   8.733   8.661   6.098  0.7920  0.0712 -0.2420
 5586SOL    HW217860   8.631   8.749   6.166 -0.4930 -1.4780 -0.1081
 5587SOL     OW17861   1.150   0.031   0.829 -0.2508 -0.0245  0.0916
 5587SOL    HW117862   1.103   0.066   0.905 -0.7359 -3.1256  1.3940
 5587SOL    HW217863   1.081  -0.001   0.771  0.1618  0.2831 -0.5736
 5588SOL     OW17864   4.780   6.848   6.553 -0.4373  0.0128  0.1373
 5588SOL    HW117865   4.851   6.844   6.618 -0.1970 -2.4652 -0.1910
 5588SOL    HW217866   4.703   6.875   6.604  0.3688  1.1557  0.8100
 5589SOL     OW17867   1.854   7.999   1.140 -0.7179  0.3290 -0.0430
 5589SOL    HW117868   1.880   7.939   1.211 -2.1840 -0.2157  0.0787
 5589SOL    HW217869   1.846   8.084   1.183  1.3267  0.6600 -0.2035
 5590SOL     OW17870   8.568   4.095   4.699 -1.0723 -0.3447  0.0239
 5590SOL    HW117871   8.624   4.084   4.622 -0.8321 -0.0185  0.1486
 5590SOL    HW217872   8.506   4.023   4.694 -1.8175  0.3377 -1.1208
 5591SOL     OW17873   2.565   4.164   1.363  0.2950  0.0644  0.3730
 5591SOL    HW117874   2.592   4.082   1.322 -0.3897  0.2091 -0.4074
 5591SOL    HW217875   2.622   4.230   1.324  1.3265 -0.1091  1.5232
 5592SOL     OW17876   1.009   2.361   7.243  0.0848  0.7106 -0.0748
 5592SOL    HW117877   1.094   2.319   7.254  0.2276  1.3861  1.7881
 5592SOL    HW217878   0.954   2.322   7.311 -0.6905  1.2572 -0.3730
 5593SOL     OW17879   1.333   5.683   6.924 -0.4464  0.1933  0.1305
 5593SOL    HW117880   1.428   5.686   6.930 -0.3392  0.6799 -1.3488
 5593SOL    HW217881   1.315   5.655   6.835 -1.7134 -1.6806  0.9173
 5594SOL     OW17882   6.815   4.206   0.299 -0.1212  0.5895  0.0573
 5594SOL    HW117883   6.854   4.250   0.375 -0.8299  2.7489 -0.7356
 5594SOL    HW217884   6.813   4.114   0.322  1.0879  1.0025  2.0254
 5595SOL     OW17885   4.934   6.139   4.087 -0.0869 -0.1558  0.5167
 5595SOL    HW117886   4.896   6.153   4.174 -0.9162 -0.6894  0.2564
 5595SOL    HW217887   4.919   6.046   4.069  0.6050 -0.1822  0.0449
 5596SOL     OW17888   3.627   8.100   1.552  1.0417 -0.0699 -0.4402
 5596SOL    HW117889   3.632   8.041   1.477  1.5150  0.3230 -0.7222
 5596SOL    HW217890   3.561   8.060   1.610 -1.0667  0.7828 -2.1044
 5597SOL     OW17891   0.380   1.462   8.616  0.0737 -0.2825 -0.2434
 5597SOL    HW117892   0.385   1.546   8.571  0.3125 -0.4687 -0.5673
 5597SOL    HW217893   0.313   1.475   8.683  1.9456  0.9985  1.5010
 5598SOL     OW17894   1.047   9.017   5.502  0.5428  0.6304  0.1521
 5598SOL    HW117895   1.082   9.100   5.470  0.2010  1.5372  1.9713
 5598SOL    HW217896   1.047   9.027   5.597  2.1094 -2.1090  0.5417
 5599SOL     OW17897   9.096   4.454   1.408 -0.1473  0.1177  0.2000
 5599SOL    HW117898   9.078   4.373   1.456  0.1336 -1.4548 -2.1950
 5599SOL    HW217899   9.013   4.502   1.410 -1.0367 -1.3363 -0.2674
 5600SOL     OW17900   0.779   4.554   2.036  0.0979  0.0435 -0.5094
 5600SOL    HW117901   0.770   4.557   2.131  2.3451 -0.2782 -0.2420
 5600SOL    HW217902   0.815   4.467   2.018 -0.0351  0.2046 -1.6430
 5601SOL     OW17903   4.041   5.062   4.136 -0.5725 -0.1814  0.1249
 5601SOL    HW117904   4.074   4.974   4.156  2.4067  0.9652  0.6713
 5601SOL    HW217905   4.063   5.114   4.212 -0.9935  1.3984 -0.7905
 5602SOL     OW17906   4.317   3.205   3.554  0.0359 -0.2958  0.4363
 5602SOL    HW117907   4.326   3.298   3.534  0.3023 -0.1991  0.9773
 5602SOL    HW217908   4.227   3.184   3.532 -0.0443  0.1101  0.3700
 5603SOL     OW17909   0.502   5.179   1.726  0.4385 -0.4036 -0.2056
 5603SOL    HW117910   0.425   5.122   1.717  0.6884 -0.5012 -1.9590
 5603SOL    HW217911   0.543   5.150   1.808 -0.4000 -1.5513 -0.1612
 5604SOL     OW17912   5.445   2.939   1.952 -0.5352  0.3819  0.4607
 5604SOL    HW117913   5.394   2.984   1.885 -3.2150 -1.6110  0.9969
 5604SOL    HW217914   5.536   2.967   1.936 -1.4099  2.1070 -2.1841
 5605SOL     OW17915   0.440   1.572   6.483 -0.1896  0.1038 -0.3091
 5605SOL    HW117916   0.354   1.590   6.520 -0.0676  0.4489 -0.1896
 5605SOL    HW217917   0.461   1.650   6.432  0.1536  0.1172 -0.1497
 5606SOL     OW17918   7.274   0.089   4.471  0.2157  0.4622  0.6281
 5606SOL    HW117919   7.268   0.076   4.377 -1.2122  1.1453  0.6021
 5606SOL    HW217920   7.256   0.002   4.508  2.1870 -0.1521  0.2983
 5607SOL     OW17921   7.924   8.310   4.791 -0.4532  0.3782 -0.2969
 5607SOL    HW117922   7.846   8.365   4.795 -0.4652  0.3615 -0.2966
 5607SOL    HW217923   7.903   8.243   4.726 -1.8153 -1.7503  2.1194
 5608SOL     OW17924   6.790   6.693   7.891 -0.3485 -0.2632 -0.0831
 5608SOL    HW117925   6.832   6.732   7.814 -1.3084  0.7666 -0.1041
 5608SOL    HW217926   6.756   6.609   7.860 -1.7131  0.6310 -1.1003
 5609SOL     OW17927   8.782   6.163   5.721 -0.4791  0.2561  0.8222
 5609SOL    HW117928   8.773   6.201   5.634  0.8780 -0.1508  0.4685
 5609SOL    HW217929   8.774   6.237   5.781 -0.8733  0.6254  0.3232
 5610SOL     OW17930   5.176   8.975   7.554 -0.4901 -0.1129  0.1510
 5610SOL    HW117931   5.258   8.925   7.553  0.8381  1.9702 -0.6451
 5610SOL    HW217932   5.131   8.948   7.474 -0.6490 -1.3041  0.6121
 5611SOL     OW17933   0.523   8.725   6.828  0.5385  0.4186 -0.3832
 5611SOL    HW117934   0.485   8.742   6.913 -0.2133  1.3674 -0.8915
 5611SOL    HW217935   0.481   8.644   6.798 -1.0807  1.4040 -0.9039
 5612SOL     OW17936   8.108   0.222   2.992 -0.0041  0.4059 -0.0035
 5612SOL    HW117937   8.154   0.298   2.955  0.7697  0.0756  0.2673
 5612SOL    HW217938   8.103   0.159   2.920 -1.1904  0.9279 -0.4117
 5613SOL     OW17939   7.814   2.838   8.189 -0.1969 -0.3748  0.0647
 5613SOL    HW117940   7.895   2.846   8.240 -0.6522  2.0671  0.5485
 5613SOL    HW217941   7.794   2.928   8.163 -2.8880 -0.8698  0.1720
 5614SOL     OW17942   3.674   5.528   7.989 -0.4777  0.1391 -0.0404
 5614SOL    HW117943   3.665   5.485   8.073 -0.0262 -1.2435 -0.6748
 5614SOL    HW217944   3.736   5.600   8.005 -0.4359 -0.0816  0.8112
 5615SOL     OW17945   6.680   5.919   4.975 -0.3369 -0.0071 -0.2289
 5615SOL    HW117946   6.643   5.989   5.029 -0.1028  0.7790 -1.0694
 5615SOL    HW217947   6.680   5.954   4.886 -0.9766 -1.3831 -0.8147
 5616SOL     OW17948   8.422   6.720   7.998 -0.6140 -0.5195 -0.0082
 5616SOL    HW117949   8.424   6.704   7.904 -0.5260  1.4030 -0.3790
 5616SOL    HW217950   8.332   6.750   8.015 -0.2481  0.4619  0.2562
 5617SOL     OW17951   3.451   7.631   3.587 -0.1876 -0.2007 -0.5785
 5617SOL    HW117952   3.450   7.535   3.583 -1.1762 -0.2243 -0.1473
 5617SOL    HW217953   3.443   7.659   3.496  1.1566 -0.5010 -0.8188
 5618SOL     OW17954   5.015   7.288   4.449  0.3171 -0.8670 -0.1715
 5618SOL    HW117955   5.100   7.262   4.413  1.8647  1.1382  1.8105
 5618SOL    HW217956   4.983   7.355   4.389  0.3320 -1.2781 -0.6494
 5619SOL     OW17957   2.345   1.000   1.888  0.0198 -0.0333 -0.0312
 5619SOL    HW117958   2.399   1.005   1.967  1.3632 -2.7190 -0.6538
 5619SOL    HW217959   2.255   1.001   1.920  0.5245 -0.2749  1.4857
 5620SOL     OW17960   7.569   1.694   6.954  0.4480  0.0291  0.0602
 5620SOL    HW117961   7.560   1.631   6.883  0.3254  0.7066 -0.5437
 5620SOL    HW217962   7.517   1.658   7.025 -0.0547 -0.3003 -0.4616
 5621SOL     OW17963   2.176   4.122   4.324  0.2844  0.3168  0.6624
 5621SOL    HW117964   2.190   4.159   4.237 -1.1286  0.8978  0.6397
 5621SOL    HW217965   2.109   4.179   4.363 -0.3092 -0.9043  1.4943
 5622SOL     OW17966   4.420   8.944   3.746 -0.7321  0.2398 -0.2601
 5622SOL    HW117967   4.326   8.957   3.760 -1.0346 -0.6622 -1.3851
 5622SOL    HW217968   4.440   8.862   3.792 -0.1286  1.2281  1.3532
 5623SOL     OW17969   4.931   4.028   3.372  0.6265  0.1949  0.0228
 5623SOL    HW117970   4.879   4.094   3.418  0.7509  0.0569  0.3702
 5623SOL    HW217971   4.890   3.945   3.397  0.3134  0.1543 -0.6130
 5624SOL     OW17972   1.053   3.499   1.561  0.4740 -0.3920 -0.0650
 5624SOL    HW117973   1.045   3.405   1.545  0.9741 -0.4278 -0.1211
 5624SOL    HW217974   0.971   3.536   1.527  0.1787 -0.8275  0.1546
 5625SOL     OW17975   8.370   0.354   0.768  0.0951 -0.3485  0.0981
 5625SOL    HW117976   8.458   0.320   0.782 -0.0900 -0.9872 -0.2455
 5625SOL    HW217977   8.328   0.348   0.854 -0.1836 -1.7302 -0.1237
 5626SOL     OW17978   4.887   4.656   7.834  0.2404  0.2685 -0.2719
 5626SOL    HW117979   4.849   4.743   7.829  0.1985  0.1830 -2.3656
 5626SOL    HW217980   4.814   4.599   7.859  0.2580  0.8051  1.0452
 5627SOL     OW17981   3.399   0.947   6.368  0.3959  0.3992  0.1677
 5627SOL    HW117982   3.350   0.878   6.324  0.2474  0.7121 -0.1697
 5627SOL    HW217983   3.473   0.903   6.408  0.5114  0.0972 -0.3679
 5628SOL     OW17984   1.832   0.706   3.194  0.5603 -0.2249 -0.4403
 5628SOL    HW117985   1.910   0.697   3.248  1.1297  0.6560 -1.0817
 5628SOL    HW217986   1.797   0.792   3.216  0.3686 -0.1744 -0.9301
 5629SOL     OW17987   6.497   4.662   9.069 -0.0046  0.0725  0.2669
 5629SOL    HW117988   6.559   4.664   8.995 -2.0987 -1.6347 -1.6818
 5629SOL    HW217989   6.518   4.740   9.119  1.7726  1.1511 -1.9372
 5630SOL     OW17990   7.290   2.171   3.664  0.3670  0.7076 -0.1825
 5630SOL    HW117991   7.247   2.131   3.740 -0.2089  1.1691 -0.2530
 5630SOL    HW217992   7.364   2.114   3.645  0.1006  0.1938  0.2902
 5631SOL     OW17993   2.324   6.682   0.437  0.6718  0.2358 -0.2017
 5631SOL    HW117994   2.393   6.737   0.402  1.1760 -0.1213  0.2134
 5631SOL    HW217995   2.366   6.633   0.508  0.4287 -1.1786 -0.9966
 5632SOL     OW17996   2.755   7.134   4.903 -0.2479  0.1328  0.2153
 5632SOL    HW117997   2.696   7.193   4.950  0.4117 -0.3428  1.6849
 5632SOL    HW217998   2.717   7.047   4.915  0.4458 -0.1107  0.7214
 5633SOL     OW17999   5.450   2.734   5.898  0.0017  0.1905  0.2495
 5633SOL    HW118000   5.423   2.648   5.865  0.2381 -0.7157  2.2791
 5633SOL    HW218001   5.371   2.788   5.893  0.0424  0.1307 -1.7563
 5634SOL     OW18002   2.281   1.692   3.867  0.4179 -0.1367 -0.1393
 5634SOL    HW118003   2.245   1.671   3.781  1.1958  1.4669 -0.9178
 5634SOL    HW218004   2.270   1.787   3.874  0.6296 -0.2111  1.4152
 5635SOL     OW18005   4.013   8.466   3.357  0.5233  0.8782  0.0996
 5635SOL    HW118006   3.928   8.445   3.319  0.4827 -0.9598  1.0769
 5635SOL    HW218007   4.003   8.556   3.388 -0.5875  1.1765 -1.0343
 5636SOL     OW18008   8.081   4.416   5.643 -0.4613  0.6211 -0.1815
 5636SOL    HW118009   8.171   4.444   5.626  0.0231  0.1348  1.3985
 5636SOL    HW218010   8.069   4.339   5.588  0.5765 -0.1182  0.5898
 5637SOL     OW18011   7.976   1.592   5.013 -0.1658 -0.4365 -1.1647
 5637SOL    HW118012   7.947   1.559   4.927 -0.0975 -0.4603 -1.1789
 5637SOL    HW218013   8.015   1.677   4.994 -0.0171 -0.5062 -1.1788
 5638SOL     OW18014   3.637   6.196   2.710  0.2569  0.1195  0.3947
 5638SOL    HW118015   3.637   6.275   2.764 -0.0708  0.6528 -0.3784
 5638SOL    HW218016   3.544   6.177   2.695  0.3116  1.3582 -1.9528
 5639SOL     OW18017   5.498   0.666   3.282  0.3617 -0.0643  0.2195
 5639SOL    HW118018   5.461   0.678   3.194  0.7456  2.0470  0.3076
 5639SOL    HW218019   5.421   0.664   3.340  0.2165  1.5256  0.1161
 5640SOL     OW18020   8.560   2.481   4.009  0.0340  0.4736 -0.5639
 5640SOL    HW118021   8.642   2.498   4.055 -0.2249 -0.3153  0.2029
 5640SOL    HW218022   8.575   2.515   3.921  1.2689  0.1386 -0.5033
 5641SOL     OW18023   5.388   3.246   2.654  0.0188  0.1243  0.5212
 5641SOL    HW118024   5.318   3.189   2.685  1.4748 -0.2598  3.3793
 5641SOL    HW218025   5.349   3.334   2.654 -0.0591  0.1760  3.7654
 5642SOL     OW18026   7.456   7.295   5.013 -0.0396  0.0699  0.4052
 5642SOL    HW118027   7.509   7.350   4.954  1.8387 -0.4852  1.4723
 5642SOL    HW218028   7.404   7.240   4.954 -0.0787  1.2188 -0.6940
 5643SOL     OW18029   8.775   4.114   7.175  0.1342  0.1398 -0.3147
 5643SOL    HW118030   8.790   4.020   7.174  0.4477  0.1840 -1.8217
 5643SOL    HW218031   8.862   4.153   7.168 -0.0539  0.5217 -0.5804
 5644SOL     OW18032   7.292   3.898   6.163 -0.3582  0.4138 -0.3830
 5644SOL    HW118033   7.381   3.915   6.194  0.2702  0.2243 -1.9931
 5644SOL    HW218034   7.236   3.926   6.236  0.9853  1.0471  0.4553
 5645SOL     OW18035   5.423   8.494   2.374  0.4669 -0.9646  1.0390
 5645SOL    HW118036   5.428   8.400   2.390  1.7945 -0.7307  2.1840
 5645SOL    HW218037   5.455   8.534   2.455  1.9041  0.4286 -0.1504
 5646SOL     OW18038   8.129   2.054   7.627  0.7394 -0.0695  0.0674
 5646SOL    HW118039   8.215   2.027   7.659  0.5801  0.8733  1.3832
 5646SOL    HW218040   8.067   1.996   7.671  0.6619 -0.4063 -0.4776
 5647SOL     OW18041   3.401   6.673   2.885  0.3284 -0.5606 -0.1399
 5647SOL    HW118042   3.352   6.736   2.831  1.9179  0.4520 -0.4591
 5647SOL    HW218043   3.489   6.672   2.847  1.0495 -1.0273  1.4615
 5648SOL     OW18044   7.700   5.919   1.858 -0.3404  0.1468 -0.3808
 5648SOL    HW118045   7.760   5.961   1.796 -1.0120 -0.6383 -1.6098
 5648SOL    HW218046   7.652   5.991   1.899  0.4512  0.7035 -0.3983
 5649SOL     OW18047   1.426   5.170   7.518  0.0700  0.1621 -0.1693
 5649SOL    HW118048   1.374   5.176   7.438 -1.3216  0.3309  0.6987
 5649SOL    HW218049   1.484   5.096   7.504  0.4954  0.7313 -1.6668
 5650SOL     OW18050   1.335   6.001   7.020  0.5951  0.5593 -0.7054
 5650SOL    HW118051   1.335   6.093   7.048 -0.0652  0.0012  1.2237
 5650SOL    HW218052   1.254   5.991   6.970  1.0625  1.1978 -1.6245
 5651SOL     OW18053   8.578   7.600   1.236  0.0189  0.3309 -0.7594
 5651SOL    HW118054   8.517   7.660   1.194 -1.5795  0.0974  1.0389
 5651SOL    HW218055   8.555   7.604   1.329  1.6790 -1.0236 -0.2276
 5652SOL     OW18056   7.967   7.962   3.500  0.1261  0.4855 -0.3858
 5652SOL    HW118057   7.952   7.891   3.562  0.8586  0.3367 -0.3759
 5652SOL    HW218058   7.924   7.932   3.419 -1.9936  1.2573  0.3931
 5653SOL     OW18059   0.417   3.421   3.590  0.1071  0.0371  0.1841
 5653SOL    HW118060   0.443   3.341   3.635 -1.5891 -0.3912  0.4891
 5653SOL    HW218061   0.368   3.470   3.657 -1.3935 -0.0442 -0.8015
 5654SOL     OW18062   0.905   8.302   6.753 -0.9810  0.8646  0.5474
 5654SOL    HW118063   0.858   8.377   6.715 -1.4604  1.1024  1.5876
 5654SOL    HW218064   0.866   8.226   6.710  0.2395  1.2184 -1.3151
 5655SOL     OW18065   4.669   4.705   6.575 -0.2808 -0.0412  0.3956
 5655SOL    HW118066   4.579   4.688   6.603 -0.4235  0.3289  0.1642
 5655SOL    HW218067   4.660   4.743   6.487  0.1293 -0.6182  0.0959
 5656SOL     OW18068   4.024   6.463   4.619 -0.5984  0.2398 -0.2675
 5656SOL    HW118069   4.013   6.535   4.557  1.0489  0.1542 -0.7193
 5656SOL    HW218070   3.959   6.398   4.592 -1.6160  1.2359 -0.3027
 5657SOL     OW18071   3.498   7.125   8.827  0.0254  0.0660  0.4517
 5657SOL    HW118072   3.427   7.158   8.882  0.8614  0.3713  1.3786
 5657SOL    HW218073   3.529   7.047   8.872 -1.6097 -1.8279 -1.4702
 5658SOL     OW18074   5.327   6.430   5.494 -0.4664  0.1559  0.1343
 5658SOL    HW118075   5.232   6.427   5.500 -0.5722 -1.5033 -1.4414
 5658SOL    HW218076   5.356   6.451   5.582 -2.2965  1.5796  0.4601
 5659SOL     OW18077   7.135   0.745   0.021  0.4688 -0.3244  0.0807
 5659SOL    HW118078   7.094   0.828  -0.001  0.5858 -0.4587 -0.6702
 5659SOL    HW218079   7.120   0.734   0.115 -1.9554 -0.7813 -0.3000
 5660SOL     OW18080   7.203   1.547   0.512  0.3851 -0.0636  0.7313
 5660SOL    HW118081   7.296   1.545   0.534  0.3133  0.5108  1.0893
 5660SOL    HW218082   7.163   1.602   0.580  0.1331  1.6698 -0.7564
 5661SOL     OW18083   3.653   7.914   4.864  0.2795 -0.4933  0.2963
 5661SOL    HW118084   3.710   7.975   4.911 -0.5278  0.6122 -0.1311
 5661SOL    HW218085   3.646   7.838   4.922 -0.5136  0.7395  1.8744
 5662SOL     OW18086   3.228   1.307   2.376  0.6126  0.2754 -0.1749
 5662SOL    HW118087   3.323   1.292   2.369  0.7568  1.3811 -0.9280
 5662SOL    HW218088   3.219   1.365   2.452  0.1068 -2.8443  2.4065
 5663SOL     OW18089   3.521   4.100   5.730 -0.8450 -0.1146 -0.5776
 5663SOL    HW118090   3.432   4.113   5.762 -0.6479 -0.9827  0.3660
 5663SOL    HW218091   3.545   4.012   5.760  0.6468  0.4414 -0.0362
 5664SOL     OW18092   8.196   5.697   7.299  0.0048 -0.6460  0.1046
 5664SOL    HW118093   8.239   5.700   7.385  0.5799 -0.0715 -0.1962
 5664SOL    HW218094   8.143   5.776   7.295 -0.8577 -1.1888  0.3394
 5665SOL     OW18095   8.621   3.246   0.786 -0.2303 -0.5488  0.1135
 5665SOL    HW118096   8.707   3.241   0.827 -0.0715 -0.8480 -0.2477
 5665SOL    HW218097   8.623   3.326   0.734 -0.4911 -0.0815  0.8183
 5666SOL     OW18098   3.344   0.823   1.620 -0.5639  0.3293  0.4450
 5666SOL    HW118099   3.279   0.887   1.650 -1.0600  0.1469 -0.1964
 5666SOL    HW218100   3.393   0.868   1.552 -0.2737  0.3431  0.6651
 5667SOL     OW18101   4.625   8.823   0.289  0.2818  0.3633 -0.1407
 5667SOL    HW118102   4.685   8.859   0.354 -0.2807  1.1911 -0.0613
 5667SOL    HW218103   4.582   8.900   0.251  0.0285 -0.1560 -0.9353
 5668SOL     OW18104   4.967   8.058   3.785  0.1437 -0.3020  0.0670
 5668SOL    HW118105   4.900   8.078   3.720  1.4429  0.6599 -1.0141
 5668SOL    HW218106   4.959   8.128   3.851 -0.7082 -0.8853  0.5990
 5669SOL     OW18107   5.924   2.883   2.302  0.0828  0.2506  0.5805
 5669SOL    HW118108   5.858   2.950   2.283  1.1284  0.7345 -1.6083
 5669SOL    HW218109   5.973   2.919   2.376 -0.0723  1.4116  0.1427
 5670SOL     OW18110   7.934   1.302   7.565  0.2704 -0.0684 -0.6143
 5670SOL    HW118111   8.008   1.243   7.580 -0.3069 -0.6620 -0.0259
 5670SOL    HW218112   7.926   1.307   7.470  1.6527  0.7669 -0.7096
 5671SOL     OW18113   5.088   3.505   5.088 -0.4427 -1.1442  0.0818
 5671SOL    HW118114   5.062   3.455   5.011  0.2214  0.4532 -1.2349
 5671SOL    HW218115   5.010   3.556   5.112  0.1515  0.5552 -1.3710
 5672SOL     OW18116   2.656   0.909   0.425  0.1674  0.4352 -0.3759
 5672SOL    HW118117   2.641   0.947   0.511 -0.9649  0.6909 -0.6660
 5672SOL    HW218118   2.568   0.901   0.387  0.6962  0.9533 -1.7608
 5673SOL     OW18119   2.848   6.074   5.542 -0.2879  0.0753  0.0008
 5673SOL    HW118120   2.827   5.981   5.549 -0.3497 -0.0168 -1.1635
 5673SOL    HW218121   2.920   6.078   5.479 -1.8202  0.9630 -1.7881
 5674SOL     OW18122   6.379   8.505   5.441  0.3175  0.3949  0.3098
 5674SOL    HW118123   6.401   8.418   5.474  0.1127  0.8653  1.7464
 5674SOL    HW218124   6.297   8.492   5.393 -0.7987  0.0920  2.1927
 5675SOL     OW18125   6.494   2.635   0.763  0.4465 -0.6310 -0.5755
 5675SOL    HW118126   6.446   2.553   0.772 -0.6810  0.0711 -0.0786
 5675SOL    HW218127   6.434   2.703   0.795  1.2057  0.4382 -1.3330
 5676SOL     OW18128   0.460   2.707   7.971 -0.2511  0.0915 -0.3276
 5676SOL    HW118129   0.377   2.668   7.947  0.0760 -0.0971 -1.2002
 5676SOL    HW218130   0.481   2.670   8.057 -0.0889 -1.4501 -0.9970
 5677SOL     OW18131   7.288   7.000   1.596  0.0488  0.2226  0.2474
 5677SOL    HW118132   7.331   6.969   1.516  0.1603 -0.4094  0.5439
 5677SOL    HW218133   7.265   7.091   1.578  2.8147  1.0954  0.5735
 5678SOL     OW18134   5.527   7.284   1.845  0.1496  0.3758  0.6007
 5678SOL    HW118135   5.585   7.232   1.789 -0.1219  0.8394 -0.1232
 5678SOL    HW218136   5.585   7.320   1.912  0.8777  1.5256 -0.5989
 5679SOL     OW18137   2.909   7.758   3.596 -0.1890  0.0602 -0.0030
 5679SOL    HW118138   2.917   7.667   3.567 -0.3649  0.2520 -0.6613
 5679SOL    HW218139   2.818   7.780   3.580 -0.3294  0.1384  0.8266
 5680SOL     OW18140   7.004   5.627   6.156  0.2572 -0.6137  0.5023
 5680SOL    HW118141   6.979   5.566   6.086 -2.3917  0.3058  0.5305
 5680SOL    HW218142   7.041   5.702   6.110 -1.8220  0.1529 -0.0722
 5681SOL     OW18143   5.928   4.622   5.508 -0.0225 -0.2095  0.3414
 5681SOL    HW118144   5.839   4.649   5.490 -0.5983 -1.5157  1.0228
 5681SOL    HW218145   5.929   4.528   5.486  1.3217 -0.1020 -0.1381
 5682SOL     OW18146   3.955   1.632   8.160  0.3587 -0.4098 -0.1483
 5682SOL    HW118147   3.953   1.599   8.250  2.2071  0.9370  0.4655
 5682SOL    HW218148   3.988   1.722   8.168  1.0028 -0.3991 -2.1967
 5683SOL     OW18149   5.112   5.281   2.267  0.2385 -0.2746 -0.5249
 5683SOL    HW118150   5.141   5.253   2.353 -0.4339  0.8920  0.1199
 5683SOL    HW218151   5.152   5.219   2.206  1.1879 -0.7815  0.5740
 5684SOL     OW18152   4.137   4.266   1.152 -0.6830  0.4541 -0.4144
 5684SOL    HW118153   4.079   4.224   1.215  1.4161 -1.9736  0.0821
 5684SOL    HW218154   4.217   4.282   1.202  0.1825  0.6876 -1.8464
 5685SOL     OW18155   7.232   5.887   7.694  0.6804  0.0106 -0.1274
 5685SOL    HW118156   7.294   5.956   7.670  0.2913  0.1085 -0.8545
 5685SOL    HW218157   7.159   5.933   7.734  1.7153 -0.1979  2.2497
 5686SOL     OW18158   3.792   1.003   4.260  0.1992  0.4767  0.0411
 5686SOL    HW118159   3.698   1.016   4.275  0.0807 -0.0307 -0.2432
 5686SOL    HW218160   3.830   1.004   4.347 -0.1343  0.2186  0.1929
 5687SOL     OW18161   6.013   7.340   8.302 -0.6925 -0.0242 -0.2257
 5687SOL    HW118162   5.941   7.393   8.266 -0.0168 -0.3056 -2.0582
 5687SOL    HW218163   6.076   7.405   8.333 -0.2896  0.2859 -1.6121
 5688SOL     OW18164   7.477   0.445   7.201  0.2757  0.0048 -0.0403
 5688SOL    HW118165   7.432   0.512   7.150  0.6560 -0.7173 -1.3866
 5688SOL    HW218166   7.409   0.381   7.222  0.2606 -0.0852 -0.3483
 5689SOL     OW18167   0.528   4.422   0.069 -0.0239  0.4522 -0.0227
 5689SOL    HW118168   0.494   4.396   0.155  0.2971  0.0607 -0.0094
 5689SOL    HW218169   0.486   4.362   0.007 -1.6964  1.9237 -0.3778
 5690SOL     OW18170   4.837   7.099   8.711 -0.0921  0.3076 -0.2257
 5690SOL    HW118171   4.854   7.131   8.622  0.6963  0.7027  0.0561
 5690SOL    HW218172   4.764   7.153   8.743  0.5876  1.1748 -0.1089
 5691SOL     OW18173   6.245   6.661   2.001 -0.3517  0.3282 -0.2311
 5691SOL    HW118174   6.311   6.592   2.013 -1.1629 -0.7780 -1.7736
 5691SOL    HW218175   6.189   6.654   2.079  0.9471  0.8770  0.7976
 5692SOL     OW18176   5.265   1.759   4.249 -0.0577  0.5354 -0.3425
 5692SOL    HW118177   5.201   1.701   4.207 -1.3830  1.1611  0.7310
 5692SOL    HW218178   5.350   1.718   4.230 -0.8979 -1.4500 -0.1138
 5693SOL     OW18179   1.301   8.526   6.541  0.4934  0.1918 -0.4846
 5693SOL    HW118180   1.302   8.617   6.568 -0.4795  0.2299 -0.5615
 5693SOL    HW218181   1.383   8.490   6.577  0.7525  1.0139 -0.2246
 5694SOL     OW18182   2.372   2.422   8.215 -0.9635  0.1135  0.2973
 5694SOL    HW118183   2.418   2.483   8.273 -0.3473  1.2520 -1.3132
 5694SOL    HW218184   2.430   2.347   8.207  0.5130  1.3608 -1.3925
 5695SOL     OW18185   8.004   1.113   4.394 -0.0214 -0.2383  0.8772
 5695SOL    HW118186   8.071   1.051   4.424 -0.0778  0.0561  1.6500
 5695SOL    HW218187   7.951   1.064   4.332 -0.0002 -0.9369  1.4034
 5696SOL     OW18188   7.614   4.167   0.607  0.0527  0.5769  0.0631
 5696SOL    HW118189   7.592   4.246   0.558  0.7575  1.5299  1.2158
 5696SOL    HW218190   7.697   4.188   0.650 -0.4534 -0.2435  1.5266
 5697SOL     OW18191   7.847   0.815   3.060 -0.2236  0.1089  0.0370
 5697SOL    HW118192   7.756   0.844   3.050 -0.3037 -0.0869  0.1790
 5697SOL    HW218193   7.850   0.731   3.014  0.2996  0.8832 -1.3904
 5698SOL     OW18194   1.384   2.294   3.520  0.6141  0.4427  0.1504
 5698SOL    HW118195   1.425   2.343   3.592 -0.6153  1.1335  0.4111
 5698SOL    HW218196   1.456   2.274   3.460  1.3941  1.2558  0.7937
 5699SOL     OW18197   1.692   7.461   7.316  0.3669  0.0411  0.3915
 5699SOL    HW118198   1.774   7.505   7.341  0.2108  0.0574  0.8988
 5699SOL    HW218199   1.658   7.513   7.244 -0.6906  1.8319  2.0694
 5700SOL     OW18200   6.391   1.594   1.096 -0.2533 -0.2179 -0.2963
 5700SOL    HW118201   6.312   1.603   1.043 -0.3991  1.5065  0.1700
 5700SOL    HW218202   6.460   1.574   1.032 -0.8504 -0.5533 -0.8435
 5701SOL     OW18203   1.288   5.775   0.093  0.2515  0.0308  0.2926
 5701SOL    HW118204   1.325   5.813   0.173 -2.0282  1.4201  0.7620
 5701SOL    HW218205   1.238   5.846   0.053  0.5756 -0.9006 -1.9346
 5702SOL     OW18206   3.579   6.764   1.989 -0.1903  0.5968  0.2398
 5702SOL    HW118207   3.636   6.688   2.007 -2.8055 -1.7108 -0.5249
 5702SOL    HW218208   3.640   6.834   1.965  2.3634 -1.4253  0.3240
 5703SOL     OW18209   6.019   3.596   3.611 -0.0161 -0.4255 -0.1750
 5703SOL    HW118210   6.075   3.585   3.687 -0.5396  0.2921  0.3217
 5703SOL    HW218211   6.079   3.620   3.540  0.3811 -0.3029  0.2014
 5704SOL     OW18212   1.639   5.821   2.461  0.0176  0.1771 -0.5351
 5704SOL    HW118213   1.628   5.874   2.382  1.6410  0.7222 -0.4336
 5704SOL    HW218214   1.720   5.773   2.447 -0.7944 -1.3868 -0.0878
 5705SOL     OW18215   0.861   6.013   5.239 -0.5392  0.1319 -0.1124
 5705SOL    HW118216   0.949   6.011   5.277 -0.5926  0.6152  0.0446
 5705SOL    HW218217   0.803   6.018   5.315 -0.6162  2.1185 -0.2460
 5706SOL     OW18218   5.167   7.841   1.886  0.0013  0.1579 -0.1947
 5706SOL    HW118219   5.134   7.824   1.798  1.5216  2.0419 -1.2139
 5706SOL    HW218220   5.261   7.853   1.873  0.3900 -0.4276  1.8522
 5707SOL     OW18221   4.287   6.833   8.497 -0.2621 -0.1259 -0.2386
 5707SOL    HW118222   4.306   6.849   8.404  1.4525  2.1745  0.4117
 5707SOL    HW218223   4.198   6.867   8.509 -0.2922  0.0697 -0.9198
 5708SOL     OW18224   2.097   6.883   7.964  0.3539 -0.1443  0.5844
 5708SOL    HW118225   2.187   6.850   7.959 -0.0177 -1.2787  1.0229
 5708SOL    HW218226   2.043   6.810   7.933 -0.3161  1.2142 -1.6829
 5709SOL     OW18227   8.940   7.061   9.020 -0.0587  0.8315 -0.4260
 5709SOL    HW118228   9.035   7.059   9.005  0.2844  1.8139  1.2434
 5709SOL    HW218229   8.916   7.152   9.002 -0.2195  1.1797  1.3193
 5710SOL     OW18230   8.557   4.342   7.141  0.3872  0.3799 -0.1635
 5710SOL    HW118231   8.494   4.298   7.198  0.7171  0.6693  0.4331
 5710SOL    HW218232   8.640   4.298   7.158  0.8050  1.4873  0.7435
 5711SOL     OW18233   2.333   7.040   6.177  0.0138 -0.3693  0.4558
 5711SOL    HW118234   2.297   6.991   6.102 -0.3105 -1.0797  1.0642
 5711SOL    HW218235   2.403   6.984   6.210  0.7194  0.3396  0.1661
 5712SOL     OW18236   5.380   4.101   3.023 -0.1240  0.3119  0.2331
 5712SOL    HW118237   5.461   4.095   2.971  0.0040  0.3702  0.4266
 5712SOL    HW218238   5.361   4.194   3.027 -0.2715  0.2892  0.0813
 5713SOL     OW18239   7.525   8.553   7.771 -0.4325 -0.3456  0.2825
 5713SOL    HW118240   7.572   8.497   7.833  0.3236  0.3349  0.3480
 5713SOL    HW218241   7.552   8.642   7.794  2.1515 -0.1473 -2.7348
 5714SOL     OW18242   1.660   1.290   8.620 -0.3564 -0.1772 -0.4266
 5714SOL    HW118243   1.639   1.301   8.713 -0.5968  1.3425 -0.6366
 5714SOL    HW218244   1.578   1.263   8.579 -0.5220  0.2371 -0.3682
 5715SOL     OW18245   0.420   8.376   8.657 -0.0386  0.6755 -0.1991
 5715SOL    HW118246   0.377   8.430   8.590  2.7708  1.0607 -1.8482
 5715SOL    HW218247   0.448   8.438   8.724 -1.2680  0.5276  0.4761
 5716SOL     OW18248   4.829   8.175   4.521 -0.6718  0.2453 -0.1768
 5716SOL    HW118249   4.786   8.246   4.473 -0.6863  0.9682  0.8731
 5716SOL    HW218250   4.794   8.095   4.482  0.1297  0.7703 -2.0936
 5717SOL     OW18251   5.575   2.311   4.227  0.5205  0.1434  0.5344
 5717SOL    HW118252   5.657   2.262   4.225 -0.3146 -1.3105 -1.7772
 5717SOL    HW218253   5.530   2.279   4.306  1.2313 -0.6548  0.6264
 5718SOL     OW18254   4.347   2.858   1.692 -0.4945 -0.1775  0.4300
 5718SOL    HW118255   4.261   2.844   1.652 -0.0269 -4.1027  0.3708
 5718SOL    HW218256   4.331   2.848   1.786 -0.2131 -0.1194  0.4823
 5719SOL     OW18257   5.802   3.629   8.715 -0.4985 -0.3610 -0.0704
 5719SOL    HW118258   5.850   3.609   8.795 -1.8017 -0.7631  0.6412
 5719SOL    HW218259   5.867   3.671   8.658  0.1184  1.2343  1.6953
 5720SOL     OW18260   4.312   1.193   1.761 -0.4335 -0.2391  0.3745
 5720SOL    HW118261   4.319   1.161   1.851  2.3228  2.2209  1.1740
 5720SOL    HW218262   4.391   1.163   1.718 -1.5658 -1.1078 -1.2040
 5721SOL     OW18263   2.400   1.890   8.406 -0.4910 -0.0156 -0.3588
 5721SOL    HW118264   2.342   1.894   8.330  0.9432  3.8144 -1.4968
 5721SOL    HW218265   2.344   1.916   8.480 -0.9373  0.5692 -0.8877
 5722SOL     OW18266   2.855   6.308   4.500  0.0911  0.2607  0.0184
 5722SOL    HW118267   2.787   6.375   4.505  1.1207  1.3065  0.8228
 5722SOL    HW218268   2.935   6.357   4.480  0.6511 -0.9080 -0.7129
 5723SOL     OW18269   2.563   3.422   7.175 -0.3360 -0.3846  0.0146
 5723SOL    HW118270   2.551   3.327   7.179  0.1828 -0.4491  0.0991
 5723SOL    HW218271   2.503   3.451   7.106  0.1214 -0.8809 -0.6086
 5724SOL     OW18272   4.822   7.453   8.702  0.0219 -0.7635 -0.2198
 5724SOL    HW118273   4.894   7.429   8.644  0.3945  0.4181 -0.2661
 5724SOL    HW218274   4.752   7.390   8.681  0.7128 -1.3451 -0.8107
 5725SOL     OW18275   3.631   8.559   7.838  0.2701 -0.3832 -0.2960
 5725SOL    HW118276   3.719   8.596   7.841  0.0620  0.0701  2.1964
 5725SOL    HW218277   3.590   8.601   7.762  1.5896  0.8496 -0.3691
 5726SOL     OW18278   7.678   7.715   7.487  0.3151  0.7980 -0.3063
 5726SOL    HW118279   7.759   7.765   7.475  0.1992  1.0529 -0.0386
 5726SOL    HW218280   7.698   7.652   7.556  0.3252  0.7786 -0.3274
 5727SOL     OW18281   1.982   2.999   5.910  0.5983  0.6342 -0.1500
 5727SOL    HW118282   2.071   2.986   5.941  0.0952  0.0050  1.1183
 5727SOL    HW218283   1.930   2.936   5.961 -0.2599 -0.6489 -2.4533
 5728SOL     OW18284   7.706   4.034   0.061  0.0612  0.3726 -0.6096
 5728SOL    HW118285   7.661   4.113   0.093 -1.1837 -0.1399 -1.0165
 5728SOL    HW218286   7.695   4.038  -0.034 -0.9212 -0.7932 -0.5673
 5729SOL     OW18287   6.254   3.694   4.696  0.4582 -0.2388 -0.5666
 5729SOL    HW118288   6.289   3.714   4.609  0.1288  0.8052 -0.4736
 5729SOL    HW218289   6.161   3.718   4.690  1.0429  2.9325  0.9527
 5730SOL     OW18290   0.018   7.979   6.727 -0.1544 -0.3043 -0.3113
 5730SOL    HW118291   0.075   7.947   6.797 -0.8896  0.2557  0.5741
 5730SOL    HW218292   0.072   8.042   6.679 -0.5078  1.5511  1.5920
 5731SOL     OW18293   8.420   0.113   6.964  0.8888 -0.7514  0.0188
 5731SOL    HW118294   8.395   0.131   7.055  0.3099 -0.0668 -0.2668
 5731SOL    HW218295   8.499   0.164   6.950  0.5252 -0.2071 -0.0966
 5732SOL     OW18296   3.769   0.539   1.095 -0.4339 -0.0491 -0.6850
 5732SOL    HW118297   3.822   0.582   1.163 -0.7595 -0.0225 -0.4417
 5732SOL    HW218298   3.725   0.611   1.050 -1.0523 -0.1181 -0.2162
 5733SOL     OW18299   7.277   8.925   0.103  0.5833  0.2473 -0.0800
 5733SOL    HW118300   7.309   8.985   0.036  2.1420  0.8990  1.1858
 5733SOL    HW218301   7.347   8.860   0.113  0.7733  0.6483  1.4742
 5734SOL     OW18302   0.227   7.146   0.618  0.5877 -0.0497  0.0817
 5734SOL    HW118303   0.196   7.234   0.639 -0.3987 -0.3167 -0.2228
 5734SOL    HW218304   0.157   7.088   0.646  1.0397 -0.7095 -0.1289
 5735SOL     OW18305   3.398   6.097   8.750 -0.4641  0.0722 -0.6449
 5735SOL    HW118306   3.312   6.112   8.789  0.0884  1.0347  0.2528
 5735SOL    HW218307   3.457   6.156   8.797  0.6476 -0.3706 -1.4233
 5736SOL     OW18308   2.134   7.158   1.618  0.0477 -0.1952  0.5624
 5736SOL    HW118309   2.056   7.116   1.656  0.5678  0.5628  2.6096
 5736SOL    HW218310   2.205   7.097   1.637  0.0657 -0.6472 -0.8552
 5737SOL     OW18311   8.463   8.734   4.155 -0.5933  0.0415 -0.4337
 5737SOL    HW118312   8.402   8.808   4.155  0.1967  0.7063 -0.9698
 5737SOL    HW218313   8.505   8.737   4.069  0.6104 -0.0513  0.1303
 5738SOL     OW18314   7.012   6.350   0.814  0.2759 -0.2729  0.6483
 5738SOL    HW118315   6.945   6.417   0.799  0.8636  0.6015  1.7569
 5738SOL    HW218316   7.085   6.376   0.758 -0.3286 -1.3127 -0.6780
 5739SOL     OW18317   7.246   5.038   2.658 -0.0483 -0.1160  0.5240
 5739SOL    HW118318   7.319   5.037   2.719 -0.4921  0.5056  1.0855
 5739SOL    HW218319   7.247   5.126   2.622 -0.6805 -0.0124  0.7452
 5740SOL     OW18320   7.201   2.374   5.071  0.2123  0.1550 -0.1066
 5740SOL    HW118321   7.242   2.445   5.022  0.5168  0.3940  0.4879
 5740SOL    HW218322   7.183   2.411   5.157 -3.0071  0.6855 -0.8574
 5741SOL     OW18323   6.488   9.091   0.551  0.3319  0.6094  0.6489
 5741SOL    HW118324   6.537   9.153   0.499  0.8693  0.5206  1.0383
 5741SOL    HW218325   6.519   9.105   0.641  2.0867 -1.6632  0.4965
 5742SOL     OW18326   0.595   5.017   6.663  0.3060 -0.0007 -0.3639
 5742SOL    HW118327   0.671   5.032   6.607  2.0233  0.2785  1.8936
 5742SOL    HW218328   0.530   4.975   6.606  1.4967  1.2716 -2.7736
 5743SOL     OW18329   8.272   0.301   3.376 -0.2199 -0.1352 -0.1535
 5743SOL    HW118330   8.304   0.230   3.319 -0.2727  0.3609 -0.8165
 5743SOL    HW218331   8.342   0.366   3.375 -0.3154 -0.0263  0.1745
 5744SOL     OW18332   7.607   0.445   5.355 -0.1650 -0.7545  0.8440
 5744SOL    HW118333   7.590   0.404   5.439  0.3760 -1.9990  0.3656
 5744SOL    HW218334   7.559   0.528   5.359  0.2395 -0.5735  2.5415
 5745SOL     OW18335   7.858   5.204   0.776  0.5871 -0.5493 -0.4968
 5745SOL    HW118336   7.796   5.231   0.709  0.2861 -1.2350 -0.5047
 5745SOL    HW218337   7.843   5.110   0.786  1.1096 -0.5830  0.0345
 5746SOL     OW18338   4.011   8.051   2.844 -0.0218 -0.5322  0.0182
 5746SOL    HW118339   4.059   7.984   2.893  0.4324 -1.0082 -1.0431
 5746SOL    HW218340   4.073   8.082   2.779 -0.6937 -0.0960 -0.4293
 5747SOL     OW18341   5.390   6.999   8.647 -0.0941 -0.0198  0.1762
 5747SOL    HW118342   5.477   7.014   8.683 -0.3658 -0.2456  0.9370
 5747SOL    HW218343   5.331   7.048   8.704 -0.5600 -0.6428  0.2384
 5748SOL     OW18344   3.086   4.487   3.815  0.5773  0.0880 -0.1759
 5748SOL    HW118345   3.138   4.406   3.814  1.2310  0.4190  1.5487
 5748SOL    HW218346   2.995   4.458   3.817  0.7358 -0.5453 -1.5159
 5749SOL     OW18347   5.847   1.949   8.117 -0.2387  0.1279 -0.5871
 5749SOL    HW118348   5.936   1.964   8.147 -0.6908  0.5358  0.5782
 5749SOL    HW218349   5.809   2.036   8.107 -1.6212 -0.0125  2.4326
 5750SOL     OW18350   3.863   4.414   1.939 -0.1331 -0.0570  0.4577
 5750SOL    HW118351   3.824   4.452   1.860 -1.4173  1.0694  1.5876
 5750SOL    HW218352   3.839   4.321   1.935 -0.1659 -0.0198 -0.4748
 5751SOL     OW18353   6.851   4.705   7.552 -0.7505  0.0341 -0.1541
 5751SOL    HW118354   6.759   4.719   7.574 -0.8134  1.2951 -1.1025
 5751SOL    HW218355   6.899   4.739   7.627 -1.0361  1.4368 -0.5662
 5752SOL     OW18356   6.451   8.319   3.909  0.1359  0.2997 -0.2291
 5752SOL    HW118357   6.515   8.377   3.867  0.6285 -1.9605 -2.9134
 5752SOL    HW218358   6.384   8.306   3.843 -1.4385 -0.0008  1.3602
 5753SOL     OW18359   6.812   3.538   4.346 -0.5089  0.1953 -0.6724
 5753SOL    HW118360   6.769   3.456   4.371  1.0886 -0.1888  1.0478
 5753SOL    HW218361   6.742   3.592   4.309 -2.1551 -0.9245  0.6803
 5754SOL     OW18362   7.999   4.606   0.087 -0.4272  0.7563  0.3980
 5754SOL    HW118363   7.971   4.661   0.014  0.8721  0.8073 -0.0739
 5754SOL    HW218364   7.978   4.657   0.166 -0.4484  1.3437  0.0129
 5755SOL     OW18365   7.250   1.383   0.072  0.2127 -0.3542  0.0765
 5755SOL    HW118366   7.183   1.443   0.038  0.6848 -0.3515 -0.8864
 5755SOL    HW218367   7.313   1.441   0.116  0.6456 -0.1282 -0.8148
 5756SOL     OW18368   5.359   8.974   0.120 -0.2934  0.0833  0.5824
 5756SOL    HW118369   5.425   8.966   0.050  0.6347 -0.4481  1.4876
 5756SOL    HW218370   5.411   8.983   0.200 -1.3404  1.3196  1.1485
 5757SOL     OW18371   1.063   4.135   6.946  0.7543 -0.1519  0.1012
 5757SOL    HW118372   1.085   4.212   6.997 -0.8600  1.1064 -1.0084
 5757SOL    HW218373   0.994   4.164   6.886  0.7509 -2.2161 -1.0007
 5758SOL     OW18374   4.079   0.172   1.245 -0.0834  0.3122  0.6570
 5758SOL    HW118375   3.995   0.178   1.290 -0.1784  1.1765  0.3841
 5758SOL    HW218376   4.108   0.263   1.237  0.3397  0.1057 -0.2529
 5759SOL     OW18377   8.391   5.589   3.607  1.0053 -0.1916 -0.2216
 5759SOL    HW118378   8.388   5.531   3.531 -0.3717 -0.6542  0.1568
 5759SOL    HW218379   8.405   5.530   3.681 -0.1578 -0.0478  0.1400
 5760SOL     OW18380   5.449   4.519   6.799 -0.6213 -0.2554  0.2126
 5760SOL    HW118381   5.506   4.446   6.773 -0.8205 -0.1046 -0.6812
 5760SOL    HW218382   5.493   4.597   6.767 -0.8634 -0.0550  0.3602
 5761SOL     OW18383   5.455   2.445   5.211 -0.1062  0.1137 -0.0513
 5761SOL    HW118384   5.430   2.437   5.119 -0.9117  0.0378  0.1633
 5761SOL    HW218385   5.538   2.398   5.217 -0.6587 -0.9755 -0.4992
 5762SOL     OW18386   1.776   8.161   1.444  0.2996 -0.1452 -0.5160
 5762SOL    HW118387   1.734   8.077   1.465 -1.2052  0.9377  1.1352
 5762SOL    HW218388   1.799   8.197   1.530 -0.1071  1.6190 -1.1202
 5763SOL     OW18389   1.648   0.273   4.773  0.1414  0.3286 -0.5575
 5763SOL    HW118390   1.615   0.357   4.804  2.3889  1.7344 -1.7217
 5763SOL    HW218391   1.595   0.253   4.696 -0.4180  0.6484 -0.2579
 5764SOL     OW18392   8.616   0.904   1.646 -0.1921  0.4859  0.0492
 5764SOL    HW118393   8.702   0.870   1.625 -0.5271  0.2310 -0.9397
 5764SOL    HW218394   8.555   0.835   1.621 -0.8150  1.4244 -1.1737
 5765SOL     OW18395   3.035   3.011   2.103 -0.1869  0.5861  0.2359
 5765SOL    HW118396   3.100   3.040   2.039 -0.3772  1.2249  0.3237
 5765SOL    HW218397   2.965   3.076   2.098 -0.3726  0.4455  0.8366
 5766SOL     OW18398   0.786   7.788   5.392  0.0691 -0.2804 -0.2744
 5766SOL    HW118399   0.828   7.849   5.452  0.5462 -0.4290 -0.4554
 5766SOL    HW218400   0.796   7.828   5.306  1.0193 -0.9505 -0.4861
 5767SOL     OW18401   0.448   6.174   4.165  0.5219  0.0146 -0.0355
 5767SOL    HW118402   0.485   6.258   4.192  1.0326  0.1428 -1.0676
 5767SOL    HW218403   0.513   6.109   4.191  1.0453  0.1444 -0.9692
 5768SOL     OW18404   5.384   6.147   5.647  0.2055  0.5412  0.3104
 5768SOL    HW118405   5.465   6.107   5.678 -1.3527 -0.4007  3.5770
 5768SOL    HW218406   5.391   6.239   5.673  0.7122  0.7503 -0.5382
 5769SOL     OW18407   2.685   7.093   2.212 -0.0900 -0.2325  0.1686
 5769SOL    HW118408   2.734   7.158   2.162  0.3518 -1.4441 -1.0304
 5769SOL    HW218409   2.610   7.072   2.156  0.8656 -2.2432 -0.4607
 5770SOL     OW18410   7.117   0.290   2.486  0.2485  0.2838  0.0904
 5770SOL    HW118411   7.150   0.296   2.396  4.8101 -2.7328  1.1895
 5770SOL    HW218412   7.134   0.376   2.524 -1.8407  1.6404 -1.7786
 5771SOL     OW18413   1.753   0.751   6.365 -0.0139  0.0559 -0.6646
 5771SOL    HW118414   1.788   0.693   6.432  0.0598 -1.5719 -2.0408
 5771SOL    HW218415   1.800   0.834   6.377  0.3607 -0.3608  0.9205
 5772SOL     OW18416   6.730   3.659   7.298 -0.2660 -0.4472  0.5352
 5772SOL    HW118417   6.752   3.738   7.347 -1.6385  0.3277 -0.0347
 5772SOL    HW218418   6.803   3.599   7.314 -0.5672 -0.1760  3.3368
 5773SOL     OW18419   5.554   4.854   0.814 -0.0177  0.2448  0.3284
 5773SOL    HW118420   5.461   4.876   0.816  0.1748  1.0706  0.5109
 5773SOL    HW218421   5.592   4.904   0.885  0.5657 -0.1249  0.2826
 5774SOL     OW18422   9.062   1.732   0.965  0.4386 -0.3074 -0.3445
 5774SOL    HW118423   8.971   1.750   0.990  0.7357 -0.8133  1.1691
 5774SOL    HW218424   9.090   1.810   0.918  0.4527  1.5350  2.5531
 5775SOL     OW18425   7.082   5.503   4.558  0.1648 -0.0806  0.0438
 5775SOL    HW118426   7.051   5.424   4.602  0.2807  0.2099  0.6594
 5775SOL    HW218427   7.004   5.555   4.542  0.3851  1.1772  2.6255
 5776SOL     OW18428   1.930   5.655   2.793 -0.1893  0.1374  0.4513
 5776SOL    HW118429   1.987   5.730   2.776  0.2995  0.5912  3.5569
 5776SOL    HW218430   1.926   5.608   2.709  0.5798  2.8602 -1.2189
 5777SOL     OW18431   0.665   2.038   6.387  0.5000 -0.3365 -0.4693
 5777SOL    HW118432   0.747   2.040   6.337  1.2071 -0.3870  0.6592
 5777SOL    HW218433   0.627   2.124   6.374  1.6068  0.3018  0.3902
 5778SOL     OW18434   1.109   0.407   6.702 -0.0962 -0.4805  0.1845
 5778SOL    HW118435   1.151   0.493   6.698 -0.8704 -0.0941  0.2496
 5778SOL    HW218436   1.108   0.386   6.795 -1.7840  0.4032  0.4109
 5779SOL     OW18437   6.351   2.001   0.969  0.0799 -0.1308  0.0624
 5779SOL    HW118438   6.354   2.096   0.977  2.6477 -0.2455  1.5799
 5779SOL    HW218439   6.420   1.980   0.906  0.1670 -1.0161  0.4362
 5780SOL     OW18440   3.701   3.815   8.402 -0.3667  0.0529  0.5271
 5780SOL    HW118441   3.609   3.796   8.421 -0.2064 -0.1279  1.1570
 5780SOL    HW218442   3.707   3.813   8.307 -1.0238  0.1092  0.4810
 5781SOL     OW18443   1.354   2.925   4.089  0.2289  0.7391 -0.2396
 5781SOL    HW118444   1.410   2.885   4.023  2.4895 -0.4783  2.2548
 5781SOL    HW218445   1.306   2.993   4.041  1.1666 -0.5282 -3.2360
 5782SOL     OW18446   5.381   4.656   7.278 -0.5535 -0.0080  0.5378
 5782SOL    HW118447   5.475   4.663   7.258 -0.6437 -1.1890 -0.4442
 5782SOL    HW218448   5.341   4.729   7.229 -0.4019 -1.0129 -1.1835
 5783SOL     OW18449   3.494   5.075   0.382 -0.0276 -0.2308  0.0136
 5783SOL    HW118450   3.491   4.981   0.366  1.7941 -0.5090  1.0217
 5783SOL    HW218451   3.477   5.115   0.297  2.7851 -1.5341 -1.2999
 5784SOL     OW18452   0.263   4.099   1.004 -0.1096  0.2873 -0.1054
 5784SOL    HW118453   0.199   4.028   1.005 -0.4779  0.6138 -0.1986
 5784SOL    HW218454   0.339   4.062   0.959 -1.0324  0.5525 -1.9742
 5785SOL     OW18455   3.287   4.223   1.770 -0.2361 -0.4662 -0.3654
 5785SOL    HW118456   3.302   4.212   1.676  1.1749  1.4342 -0.4166
 5785SOL    HW218457   3.371   4.253   1.804 -0.8228 -0.7759  1.4650
 5786SOL     OW18458   3.387   0.840   5.320 -0.6492 -0.1896  0.7300
 5786SOL    HW118459   3.333   0.774   5.278 -0.9478  0.4213  0.1443
 5786SOL    HW218460   3.421   0.796   5.399 -0.4628 -1.1835  0.1196
 5787SOL     OW18461   1.556   7.131   4.661  0.0453 -0.5880  0.8528
 5787SOL    HW118462   1.569   7.214   4.706  1.5834  0.9516 -2.0868
 5787SOL    HW218463   1.486   7.149   4.598  0.8685 -1.2549 -0.2980
 5788SOL     OW18464   0.143   3.314   6.288  0.6869  0.4126  0.0359
 5788SOL    HW118465   0.106   3.387   6.338  1.8267  1.2122 -0.2368
 5788SOL    HW218466   0.221   3.288   6.338  0.1166 -0.8407  0.2957
 5789SOL     OW18467   4.272   6.771   3.884 -0.3438  0.7816 -0.0978
 5789SOL    HW118468   4.225   6.843   3.927 -1.7751  0.2266 -0.6616
 5789SOL    HW218469   4.227   6.692   3.914  0.0466  0.2457 -0.8891
 5790SOL     OW18470   7.349   0.114   6.877  0.0921  0.2235  0.3851
 5790SOL    HW118471   7.300   0.131   6.957 -0.2693  1.1209 -0.0118
 5790SOL    HW218472   7.289   0.139   6.807  0.2937 -0.8209 -0.1871
 5791SOL     OW18473   2.098   6.520   0.165  0.0590  0.3839 -0.3578
 5791SOL    HW118474   2.055   6.476   0.238 -2.9234  0.7359 -1.7243
 5791SOL    HW218475   2.159   6.581   0.205 -0.6045 -0.2713  1.7794
 5792SOL     OW18476   2.368   2.411   7.643  0.6119 -0.0640  0.3443
 5792SOL    HW118477   2.319   2.450   7.716 -0.2979  1.1428 -0.8703
 5792SOL    HW218478   2.452   2.389   7.681 -0.1218 -0.2300  1.9756
 5793SOL     OW18479   0.718   1.786   2.834  0.1814 -0.5280  0.2342
 5793SOL    HW118480   0.660   1.721   2.874  1.4751 -3.3529 -2.1132
 5793SOL    HW218481   0.664   1.828   2.767  0.0522 -1.1596 -0.0671
 5794SOL     OW18482   0.550   8.994   3.191  0.5127 -0.2248  0.3247
 5794SOL    HW118483   0.564   9.007   3.285 -1.3610 -2.0803  0.9201
 5794SOL    HW218484   0.473   9.046   3.171  0.4394 -0.4666 -0.0241
 5795SOL     OW18485   3.721   7.128   0.152  0.3874 -0.3504 -0.5596
 5795SOL    HW118486   3.658   7.056   0.156 -0.6672  0.4807 -1.5622
 5795SOL    HW218487   3.796   7.091   0.106  0.4574 -1.2019  0.1966
 5796SOL     OW18488   6.730   6.944   5.501 -0.5806 -0.1757 -1.2842
 5796SOL    HW118489   6.698   6.890   5.573  0.0653  1.5563  0.3929
 5796SOL    HW218490   6.807   6.898   5.468 -0.1191 -0.3796  0.0258
 5797SOL     OW18491   3.156   4.969   1.685  0.0781  0.1197 -0.3635
 5797SOL    HW118492   3.108   5.014   1.754  1.1190  1.1560 -0.2676
 5797SOL    HW218493   3.089   4.930   1.629 -0.8246  0.7523  0.2581
 5798SOL     OW18494   4.208   6.610   4.195  0.4702 -0.4294  0.1834
 5798SOL    HW118495   4.193   6.543   4.262 -0.5829 -1.4092 -0.9997
 5798SOL    HW218496   4.229   6.561   4.116 -0.4995  0.6263 -0.7586
 5799SOL     OW18497   2.274   1.580   0.715  0.2840 -0.1376  0.0036
 5799SOL    HW118498   2.283   1.592   0.810 -1.4773 -0.2727  0.2283
 5799SOL    HW218499   2.194   1.528   0.705  2.4962 -3.5351 -1.4089
 5800SOL     OW18500   1.436   0.702   5.514 -0.0083 -0.2064  0.0742
 5800SOL    HW118501   1.499   0.730   5.581 -0.2901 -0.4274  0.4350
 5800SOL    HW218502   1.365   0.766   5.521  0.3721  0.3095 -0.6380
 5801SOL     OW18503   4.338   7.436   3.960 -0.2249  0.1248 -0.3464
 5801SOL    HW118504   4.403   7.393   4.016 -0.9199  1.0481  1.2305
 5801SOL    HW218505   4.325   7.522   4.000 -1.3345  0.5137 -1.4872
 5802SOL     OW18506   7.013   3.167   2.779 -0.3020  0.2107  0.3076
 5802SOL    HW118507   6.970   3.087   2.747 -1.9561  1.0986  0.1735
 5802SOL    HW218508   7.004   3.229   2.706 -0.9149  1.1517  1.1685
 5803SOL     OW18509   3.308   5.956   0.833  0.2482 -0.6302 -0.4586
 5803SOL    HW118510   3.391   5.916   0.804  0.2384 -0.4851 -0.6968
 5803SOL    HW218511   3.276   6.003   0.755  0.5640  0.3475 -0.0207
 5804SOL     OW18512   7.278   1.658   7.469  0.4901  0.4899  0.5377
 5804SOL    HW118513   7.209   1.599   7.500 -2.6461  2.7147 -1.4929
 5804SOL    HW218514   7.340   1.601   7.423 -0.8644 -1.4942  1.0562
 5805SOL     OW18515   8.283   2.294   8.905  0.4094  0.5581  0.4511
 5805SOL    HW118516   8.274   2.315   8.998 -0.1491  0.8479  0.3393
 5805SOL    HW218517   8.215   2.347   8.863 -0.3003 -0.6506  0.0343
 5806SOL     OW18518   1.656   5.011   8.915  0.0212  0.8157 -0.0817
 5806SOL    HW118519   1.733   5.013   8.973 -0.7356  1.1128  0.9352
 5806SOL    HW218520   1.597   5.076   8.952 -1.1004 -0.0387 -0.3354
 5807SOL     OW18521   2.884   7.067   2.641  0.1822 -0.2196  0.0852
 5807SOL    HW118522   2.910   7.024   2.560 -0.1922 -0.6457  0.1888
 5807SOL    HW218523   2.945   7.140   2.650  2.3124 -1.9868  1.0464
 5808SOL     OW18524   2.926   5.295   3.382 -0.0002 -0.2029  1.0039
 5808SOL    HW118525   2.989   5.226   3.360  0.0636  0.1612 -0.0002
 5808SOL    HW218526   2.868   5.254   3.446 -1.1663 -1.9045 -0.9847
 5809SOL     OW18527   1.121   5.532   5.512  0.5953  0.3729 -0.0405
 5809SOL    HW118528   1.036   5.564   5.480 -0.2790  1.9393  3.3539
 5809SOL    HW218529   1.180   5.607   5.499  0.9475  0.0226 -0.4856
 5810SOL     OW18530   8.271   8.743   1.376  0.0161 -0.0392  0.2401
 5810SOL    HW118531   8.243   8.685   1.305 -0.0765  1.0983 -0.6814
 5810SOL    HW218532   8.191   8.759   1.426  0.0038 -0.5372  0.3884
 5811SOL     OW18533   6.076   2.238   2.880 -1.1436  0.3910  0.6396
 5811SOL    HW118534   6.048   2.163   2.827  1.0909  0.3257 -0.5565
 5811SOL    HW218535   6.092   2.200   2.967  1.2176 -0.8777 -0.2653
 5812SOL     OW18536   8.344   8.721   8.436 -0.0637  0.3127  0.0820
 5812SOL    HW118537   8.343   8.626   8.438  0.3815  0.2571 -1.1637
 5812SOL    HW218538   8.379   8.747   8.521  1.9681 -0.7055 -0.3864
 5813SOL     OW18539   8.478   8.440   7.157  0.5906  0.0644 -0.0419
 5813SOL    HW118540   8.565   8.402   7.152 -0.0942 -1.7748  0.9643
 5813SOL    HW218541   8.426   8.391   7.094 -0.2969 -0.6761  1.2156
 5814SOL     OW18542   2.255   3.317   3.259 -0.5524  0.0533  0.3003
 5814SOL    HW118543   2.185   3.264   3.297 -1.4562  0.7246 -0.3895
 5814SOL    HW218544   2.220   3.346   3.175  0.8926 -0.3018 -0.4563
 5815SOL     OW18545   6.157   8.205   0.041  0.2679 -0.1356 -0.0571
 5815SOL    HW118546   6.181   8.136   0.103  1.5343  0.0365 -0.3177
 5815SOL    HW218547   6.077   8.172  -0.001  0.0817 -0.8072  0.7876
 5816SOL     OW18548   8.199   1.031   8.363 -0.1684 -0.1832  0.3591
 5816SOL    HW118549   8.193   0.981   8.444 -1.5325 -0.3477  0.1826
 5816SOL    HW218550   8.287   1.012   8.329  0.1188 -0.7451  1.3830
 5817SOL     OW18551   5.839   3.171   7.110 -0.0458  0.4607  0.6520
 5817SOL    HW118552   5.764   3.166   7.051 -0.4547 -1.0918  1.2486
 5817SOL    HW218553   5.803   3.205   7.192 -0.1977 -0.5348  1.0228
 5818SOL     OW18554   1.639   2.072   8.658 -0.1995 -0.4270 -0.0569
 5818SOL    HW118555   1.694   2.058   8.735 -0.4132 -0.7858  0.0333
 5818SOL    HW218556   1.556   2.030   8.679 -1.4006  2.1667  0.7836
 5819SOL     OW18557   3.156   2.166   7.138  0.3545  0.0007 -0.0536
 5819SOL    HW118558   3.072   2.140   7.100  0.8745 -0.3305 -1.0122
 5819SOL    HW218559   3.214   2.091   7.123  0.1790 -0.8138  2.8628
 5820SOL     OW18560   1.293   3.265   8.015 -1.1429 -0.0792  0.3552
 5820SOL    HW118561   1.248   3.225   8.089 -0.0253  0.5321  1.4118
 5820SOL    HW218562   1.323   3.350   8.048  0.2380 -0.2024 -0.4797
 5821SOL     OW18563   3.770   1.001   4.921  0.4259 -0.5856 -0.1144
 5821SOL    HW118564   3.776   0.974   5.013  1.2665 -3.4084 -0.9097
 5821SOL    HW218565   3.860   1.006   4.892  0.3070  2.6980 -0.2623
 5822SOL     OW18566   3.916   7.920   8.424  0.1377  0.0578 -0.3615
 5822SOL    HW118567   3.915   7.961   8.337  0.3822  0.8218 -0.0176
 5822SOL    HW218568   3.989   7.962   8.469 -0.8656  0.7240  0.6979
 5823SOL     OW18569   8.064   7.863   0.572 -0.1791  0.0565 -0.4012
 5823SOL    HW118570   8.150   7.876   0.532  0.1316  2.9441  0.9542
 5823SOL    HW218571   8.003   7.907   0.513 -0.0561  2.0027  0.8259
 5824SOL     OW18572   5.820   8.764   4.028 -0.2925  0.1968  0.1689
 5824SOL    HW118573   5.797   8.676   4.000  0.7619 -0.9126  2.5084
 5824SOL    HW218574   5.816   8.760   4.124  1.9055  2.0869  0.4132
 5825SOL     OW18575   5.671   0.903   2.928 -0.1116 -0.0764  0.0184
 5825SOL    HW118576   5.701   0.951   2.851  0.8587 -0.5488  0.0941
 5825SOL    HW218577   5.579   0.885   2.911 -0.2983  1.1475 -0.3480
 5826SOL     OW18578   8.396   5.037   7.109 -0.3760  0.1387 -0.6280
 5826SOL    HW118579   8.331   4.985   7.061  0.4610  0.0268 -1.6789
 5826SOL    HW218580   8.450   4.972   7.154 -0.3493  0.1832 -0.5961
 5827SOL     OW18581   1.977   2.961   8.574  0.3129  0.1485 -0.0557
 5827SOL    HW118582   1.998   2.871   8.598 -0.4652  0.0368  0.2215
 5827SOL    HW218583   1.955   3.004   8.657  1.3010  0.7712 -0.0990
 5828SOL     OW18584   8.222   7.849   7.208  0.2588 -0.8171  0.0588
 5828SOL    HW118585   8.129   7.835   7.189  0.2288  1.1811 -1.6168
 5828SOL    HW218586   8.267   7.819   7.129  0.8329  0.1081  0.0159
 5829SOL     OW18587   0.836   2.151   4.175  0.1716 -0.1752 -0.5323
 5829SOL    HW118588   0.802   2.065   4.151 -1.4312 -0.0402  1.0130
 5829SOL    HW218589   0.757   2.202   4.197  1.0875  1.6422 -1.2159
 5830SOL     OW18590   0.056   1.757   3.480  0.0526  0.2967  0.0112
 5830SOL    HW118591   0.052   1.839   3.529 -0.2456  0.5135 -0.3692
 5830SOL    HW218592   0.130   1.769   3.420  0.0576  0.2590  0.0100
 5831SOL     OW18593   5.322   3.708   0.620 -0.3913 -0.1031 -0.1854
 5831SOL    HW118594   5.394   3.739   0.565 -1.3678  0.2933 -1.2902
 5831SOL    HW218595   5.343   3.740   0.708  0.6943  0.1222 -0.5120
 5832SOL     OW18596   8.628   0.980   6.877  0.9099  0.2138 -0.0997
 5832SOL    HW118597   8.594   1.010   6.793  1.3539  1.4851  0.1534
 5832SOL    HW218598   8.712   1.024   6.886  1.4744 -0.9111  0.4383
 5833SOL     OW18599   3.667   1.080   3.600  0.7992 -0.7126 -0.2942
 5833SOL    HW118600   3.642   1.048   3.686 -1.7661  1.2692 -0.1777
 5833SOL    HW218601   3.632   1.015   3.539  0.6955 -1.0068  0.0774
 5834SOL     OW18602   8.780   1.260   6.558  0.0527  0.0588  0.3028
 5834SOL    HW118603   8.712   1.321   6.531  0.2939 -0.1561 -0.8191
 5834SOL    HW218604   8.774   1.187   6.497  2.0033  0.5486 -0.5521
 5835SOL     OW18605   1.219   5.231   0.580 -0.5249  0.2045 -0.0710
 5835SOL    HW118606   1.244   5.257   0.491 -1.9502 -1.2316 -0.9407
 5835SOL    HW218607   1.286   5.269   0.636  1.2414 -0.0685 -1.8997
 5836SOL     OW18608   8.428   8.558   8.132 -0.2250 -0.1827  0.0333
 5836SOL    HW118609   8.482   8.511   8.195  0.5310  0.3103 -0.2376
 5836SOL    HW218610   8.489   8.588   8.065 -0.7359  0.9059  0.0274
 5837SOL     OW18611   0.781   7.015   5.798  0.2169 -0.2461 -0.0458
 5837SOL    HW118612   0.861   7.039   5.750  0.4772 -0.4651  0.2722
 5837SOL    HW218613   0.712   7.064   5.755  0.3291 -1.0051 -1.1400
 5838SOL     OW18614   0.433   2.001   3.976  0.3480  0.7205  0.0362
 5838SOL    HW118615   0.396   1.929   4.028  1.0980 -0.3168 -0.8180
 5838SOL    HW218616   0.505   2.034   4.030 -0.6427  1.5501  0.8959
 5839SOL     OW18617   1.223   7.661   7.679  0.8323  0.4582  0.2447
 5839SOL    HW118618   1.136   7.643   7.716  2.2393 -1.0582  3.1334
 5839SOL    HW218619   1.240   7.587   7.621  0.6661  0.1450  0.5912
 5840SOL     OW18620   0.662   0.651   4.817 -0.1227 -0.4719  0.2230
 5840SOL    HW118621   0.739   0.708   4.823 -0.2297 -0.2049 -0.7032
 5840SOL    HW218622   0.597   0.703   4.770  0.3032 -1.8400 -2.0861
 5841SOL     OW18623   5.845   3.023   4.365 -0.4726 -0.1235  0.5866
 5841SOL    HW118624   5.873   3.114   4.371  1.5555 -0.7135  0.8772
 5841SOL    HW218625   5.863   2.998   4.274 -3.5311  0.4408 -0.3048
 5842SOL     OW18626   5.155   4.765   5.271 -0.0994  0.1886 -0.1590
 5842SOL    HW118627   5.088   4.700   5.295 -0.1432  0.0906 -0.5394
 5842SOL    HW218628   5.182   4.740   5.183  1.3069 -0.4969  0.4276
 5843SOL     OW18629   2.900   7.761   6.841 -0.1716  0.1452 -0.0017
 5843SOL    HW118630   2.897   7.666   6.858 -1.3798  0.2985  0.7682
 5843SOL    HW218631   2.808   7.789   6.847  0.3658  1.6942  1.6708
 5844SOL     OW18632   0.974   7.840   8.274 -0.7042  0.0143 -0.0114
 5844SOL    HW118633   0.996   7.848   8.367 -2.2742  0.4260  0.3505
 5844SOL    HW218634   0.953   7.929   8.246  0.4211  0.0070 -0.9672
 5845SOL     OW18635   4.745   6.474   2.188 -0.9520 -0.4395 -0.2170
 5845SOL    HW118636   4.789   6.539   2.243 -1.9110 -0.5504  0.7123
 5845SOL    HW218637   4.682   6.525   2.137 -2.2234 -0.7063  1.0490
 5846SOL     OW18638   7.468   2.761   1.193  0.1250  0.0864  0.1852
 5846SOL    HW118639   7.441   2.677   1.232  3.0809 -0.8716  0.3960
 5846SOL    HW218640   7.487   2.817   1.268 -1.3889  0.8478  0.0403
 5847SOL     OW18641   3.909   1.059   5.151 -0.0482  0.0046  0.4851
 5847SOL    HW118642   3.960   1.057   5.069  0.5970  0.9829  0.8394
 5847SOL    HW218643   3.954   0.997   5.208 -0.2040 -0.3119  0.2670
 5848SOL     OW18644   7.860   2.541   0.108  0.0186 -0.1173 -0.4008
 5848SOL    HW118645   7.842   2.457   0.151  0.8097  0.7784  1.8186
 5848SOL    HW218646   7.822   2.607   0.166 -0.2416  1.1256 -1.9010
 5849SOL     OW18647   5.880   8.059   7.421  0.1988 -0.0621  0.0910
 5849SOL    HW118648   5.895   8.097   7.335  0.1127 -0.9664 -0.3383
 5849SOL    HW218649   5.853   7.969   7.403 -3.4142  0.7228  0.8932
 5850SOL     OW18650   7.237   2.292   3.247 -0.0193 -0.6331 -0.9000
 5850SOL    HW118651   7.219   2.323   3.336  2.1068  1.1694 -1.0114
 5850SOL    HW218652   7.205   2.202   3.246  1.3743 -1.3045  2.2124
 5851SOL     OW18653   6.782   4.900   3.403  0.0120  0.4635  0.3681
 5851SOL    HW118654   6.754   4.872   3.490 -0.3251  0.8747  0.3913
 5851SOL    HW218655   6.729   4.976   3.383 -1.8248 -1.1431 -1.3306
 5852SOL     OW18656   8.144   5.776   0.581 -0.0993  0.0108  0.3606
 5852SOL    HW118657   8.208   5.705   0.581  0.7499  0.7469 -0.7943
 5852SOL    HW218658   8.064   5.736   0.545 -0.3305 -0.9056  1.8021
 5853SOL     OW18659   0.894   7.810   9.013  0.4694  0.0993 -0.0667
 5853SOL    HW118660   0.833   7.823   9.085 -0.1730  2.2638 -0.9110
 5853SOL    HW218661   0.981   7.816   9.054  0.2458 -2.8396  1.1140
 5854SOL     OW18662   7.487   2.362   3.171 -0.2190  0.3682  0.5163
 5854SOL    HW118663   7.551   2.300   3.205  1.0706  0.5811 -1.3719
 5854SOL    HW218664   7.403   2.333   3.208  0.6518 -1.1865  1.3729
 5855SOL     OW18665   2.162   0.481   3.477 -0.8464 -0.3034  0.5625
 5855SOL    HW118666   2.251   0.495   3.445 -1.1440  1.8761  0.4986
 5855SOL    HW218667   2.171   0.485   3.573 -0.8483 -0.2739  0.5615
 5856SOL     OW18668   3.163   8.574   4.438 -0.0893 -0.0980  0.3330
 5856SOL    HW118669   3.168   8.561   4.344 -2.6287 -0.2335  0.1420
 5856SOL    HW218670   3.141   8.488   4.474 -2.1130  0.5176  0.6821
 5857SOL     OW18671   7.965   2.704   3.969  0.3297  0.7035  0.7113
 5857SOL    HW118672   7.908   2.701   4.046 -0.0504 -1.4601  0.4137
 5857SOL    HW218673   7.960   2.615   3.933  0.3031  1.7119 -1.9554
 5858SOL     OW18674   3.814   6.246   3.299 -0.5841 -0.1935 -0.0764
 5858SOL    HW118675   3.748   6.180   3.275 -0.3688  0.2358 -2.0097
 5858SOL    HW218676   3.886   6.231   3.237 -0.0907  1.2032  0.1294
 5859SOL     OW18677   8.071   6.961   3.644  0.5743 -0.8030 -0.3292
 5859SOL    HW118678   8.145   6.981   3.588  0.1555  3.0334  0.2348
 5859SOL    HW218679   7.994   6.971   3.588  0.2919 -3.9784 -0.7089
 5860SOL     OW18680   7.716   6.880   5.596 -0.1825 -0.0869  0.1717
 5860SOL    HW118681   7.686   6.969   5.612  1.7963  0.8991 -1.2142
 5860SOL    HW218682   7.727   6.843   5.684 -0.9713  1.0172  0.7763
 5861SOL     OW18683   5.182   3.257   0.134 -0.1705  0.2820 -0.1346
 5861SOL    HW118684   5.115   3.299   0.079 -1.9561 -0.6402  1.2303
 5861SOL    HW218685   5.244   3.327   0.153 -0.9208  1.2710 -1.1810
 5862SOL     OW18686   0.261   3.704   6.352  0.3460 -0.5850  0.1033
 5862SOL    HW118687   0.215   3.712   6.436  1.0002  4.1947  0.2945
 5862SOL    HW218688   0.192   3.709   6.286  0.1162  1.5136  0.4314
 5863SOL     OW18689   2.887   0.139   2.709  0.4207 -0.0545 -0.2758
 5863SOL    HW118690   2.842   0.082   2.646  1.2517  0.1206 -1.0593
 5863SOL    HW218691   2.904   0.219   2.660 -1.4217  1.2067  1.0473
 5864SOL     OW18692   8.761   3.457   7.152 -0.5487  0.3939  0.2095
 5864SOL    HW118693   8.785   3.494   7.067  1.9326  0.5529  0.9183
 5864SOL    HW218694   8.811   3.508   7.216  2.3242 -3.4160  1.3332
 5865SOL     OW18695   9.009   8.417   5.617 -0.2733  0.4836 -0.1353
 5865SOL    HW118696   8.966   8.332   5.622  2.4032 -0.9581  0.0759
 5865SOL    HW218697   8.989   8.448   5.528 -0.7035 -0.6965 -0.4783
 5866SOL     OW18698   4.043   1.957   1.235 -0.1609 -0.0308 -0.0712
 5866SOL    HW118699   3.995   1.899   1.294  0.4203  0.2534  0.7111
 5866SOL    HW218700   4.009   2.044   1.255 -0.1803  0.0297 -0.3736
 5867SOL     OW18701   5.431   3.230   0.512  0.2836  0.9170  0.0942
 5867SOL    HW118702   5.353   3.282   0.534  0.1543  0.0293  2.0015
 5867SOL    HW218703   5.461   3.196   0.597  0.6095 -1.7370 -0.9767
 5868SOL     OW18704   0.953   4.371   7.942 -0.1485  0.6470 -0.0911
 5868SOL    HW118705   0.908   4.456   7.942  2.4572  2.1138 -1.1881
 5868SOL    HW218706   0.929   4.331   7.859  0.5940  1.4543 -0.7051
 5869SOL     OW18707   8.621   0.069   6.180  0.0275 -0.9641  0.3478
 5869SOL    HW118708   8.571   0.143   6.146  2.6848  1.1701  0.7214
 5869SOL    HW218709   8.607  -0.001   6.116 -4.0657 -0.9095  0.9370
 5870SOL     OW18710   5.128   4.875   9.075  0.3599 -0.1957 -0.1859
 5870SOL    HW118711   5.196   4.924   9.029 -0.2105  1.0594  0.2633
 5870SOL    HW218712   5.095   4.936   9.141  0.3131 -1.5409  1.0756
 5871SOL     OW18713   6.571   8.915   2.494 -0.5398 -0.1450 -0.0856
 5871SOL    HW118714   6.656   8.957   2.501 -0.5719  0.9530 -3.8958
 5871SOL    HW218715   6.519   8.975   2.441 -2.8206 -1.9894 -0.1041
 5872SOL     OW18716   4.891   8.766   2.796  0.6308 -0.0481 -0.5971
 5872SOL    HW118717   4.909   8.845   2.745  1.3991  0.7972  0.8848
 5872SOL    HW218718   4.967   8.757   2.854  0.6486 -1.9937 -0.8389
 5873SOL     OW18719   6.977   6.335   4.747 -0.3419  0.2944  0.1510
 5873SOL    HW118720   7.005   6.247   4.772 -1.0992  0.3050  1.0499
 5873SOL    HW218721   6.882   6.332   4.746 -0.3871  1.1827  0.4879
 5874SOL     OW18722   7.199   5.877   4.004  0.7327 -0.0031 -0.6801
 5874SOL    HW118723   7.115   5.832   4.011  2.0003 -2.4719 -0.3415
 5874SOL    HW218724   7.215   5.883   3.910  1.0724 -1.3808 -0.7294
 5875SOL     OW18725   4.242   4.063   2.145 -0.1557  0.0247  0.0477
 5875SOL    HW118726   4.163   4.111   2.169 -1.8579 -1.6684 -1.7787
 5875SOL    HW218727   4.251   3.996   2.213 -1.9990 -1.5319 -1.1288
 5876SOL     OW18728   8.991   6.617   4.120  0.4075 -0.0192 -0.0379
 5876SOL    HW118729   8.963   6.611   4.211  1.1550 -0.3729  0.1786
 5876SOL    HW218730   8.972   6.531   4.083  0.2425  0.0760 -0.1770
 5877SOL     OW18731   5.425   1.365   3.672  0.3604  0.0812 -0.5823
 5877SOL    HW118732   5.419   1.295   3.737 -0.4658 -0.0685 -0.8001
 5877SOL    HW218733   5.364   1.338   3.603  0.5977  0.6480 -1.0188
 5878SOL     OW18734   2.010   3.966   5.612  0.4056  0.2141 -0.0957
 5878SOL    HW118735   2.010   3.975   5.517  0.5372 -1.1215 -0.2354
 5878SOL    HW218736   2.103   3.964   5.636  0.3725  0.5763  0.0732
 5879SOL     OW18737   8.821   8.676   1.398 -0.3993  0.0048 -0.2099
 5879SOL    HW118738   8.798   8.767   1.382  0.2858  0.1921 -0.1657
 5879SOL    HW218739   8.917   8.675   1.397 -0.3686 -0.4375  1.2457
 5880SOL     OW18740   2.753   6.569   0.139  0.8064 -0.7574  0.1728
 5880SOL    HW118741   2.668   6.603   0.166  1.2855  0.3920  0.2864
 5880SOL    HW218742   2.792   6.639   0.086  0.8784 -2.0392 -1.5609
 5881SOL     OW18743   7.541   5.536   0.619 -0.2097  0.2797  0.9248
 5881SOL    HW118744   7.484   5.562   0.546  0.8685  0.0450 -0.0272
 5881SOL    HW218745   7.592   5.614   0.638 -1.6023  0.8479  2.5491
 5882SOL     OW18746   8.267   4.493   2.661  0.3857  0.4898  0.3123
 5882SOL    HW118747   8.355   4.461   2.640  0.2827  0.9734 -0.9941
 5882SOL    HW218748   8.219   4.415   2.689  0.7625 -0.1064 -0.6592
 5883SOL     OW18749   4.566   0.486   2.497 -0.5728  0.5762  0.2071
 5883SOL    HW118750   4.583   0.530   2.414 -2.4513 -0.4802 -0.8102
 5883SOL    HW218751   4.646   0.435   2.514  1.0102  3.0465  0.6193
 5884SOL     OW18752   8.752   4.906   1.313  0.2152 -0.4628 -0.2840
 5884SOL    HW118753   8.835   4.936   1.276  0.7622 -1.0686  0.4093
 5884SOL    HW218754   8.703   4.872   1.238  0.3983  0.3214 -0.7691
 5885SOL     OW18755   6.901   4.209   0.557 -0.4191 -0.2046  0.0362
 5885SOL    HW118756   6.980   4.226   0.608 -0.6778 -0.3534  0.4948
 5885SOL    HW218757   6.830   4.212   0.621 -0.7896 -0.0391 -0.3763
 5886SOL     OW18758   9.009   0.493   2.116 -0.2076  0.3120  0.5071
 5886SOL    HW118759   9.051   0.466   2.034 -0.2988  0.4273  0.4212
 5886SOL    HW218760   8.941   0.426   2.131 -0.2557  0.3448  0.4360
 5887SOL     OW18761   6.228   7.654   7.430  0.1025 -0.8046  0.3523
 5887SOL    HW118762   6.251   7.705   7.353  0.5825 -1.9473 -0.2935
 5887SOL    HW218763   6.179   7.714   7.486 -0.4582 -0.0286 -0.9452
 5888SOL     OW18764   4.453   0.943   7.043  0.5932  0.0187  0.2006
 5888SOL    HW118765   4.366   0.953   7.004 -0.6140 -2.8615  1.8648
 5888SOL    HW218766   4.459   1.015   7.106  0.1417  1.1893 -1.0233
 5889SOL     OW18767   7.026   7.365   7.769  0.4163  0.3633  0.4388
 5889SOL    HW118768   7.003   7.291   7.826  0.3579  0.4959  0.5879
 5889SOL    HW218769   7.119   7.354   7.751  0.2284 -0.2340 -0.2460
 5890SOL     OW18770   2.364   6.290   1.675 -0.0365 -0.5338 -0.4312
 5890SOL    HW118771   2.425   6.364   1.683 -0.3077 -0.3500  0.0135
 5890SOL    HW218772   2.418   6.217   1.646  0.5328 -0.5500  0.6189
 5891SOL     OW18773   0.195   1.589   6.117  0.1134 -0.4738 -0.8397
 5891SOL    HW118774   0.136   1.549   6.182  0.0376 -0.4557 -0.8977
 5891SOL    HW218775   0.164   1.679   6.110  1.9911  0.4463  1.3713
 5892SOL     OW18776   0.766   8.838   7.126  0.0071  0.6408  0.4571
 5892SOL    HW118777   0.718   8.775   7.180  0.5316  0.2619  0.4919
 5892SOL    HW218778   0.830   8.785   7.079 -1.1377  0.8196 -1.3700
 5893SOL     OW18779   5.118   8.747   2.906 -0.6481  0.2068 -0.3439
 5893SOL    HW118780   5.146   8.806   2.976 -0.9112  1.8584 -1.5596
 5893SOL    HW218781   5.187   8.754   2.840 -0.6739 -0.8993 -0.5041
 5894SOL     OW18782   3.018   6.771   1.682 -0.4885 -0.8483  0.2875
 5894SOL    HW118783   3.016   6.866   1.685 -0.0627 -0.8077 -0.4963
 5894SOL    HW218784   2.986   6.748   1.595 -1.0905 -1.4499  0.6555
 5895SOL     OW18785   5.024   5.369   5.977 -0.5101 -0.3753 -0.3348
 5895SOL    HW118786   4.966   5.317   5.921  0.7295 -1.8911 -0.2895
 5895SOL    HW218787   5.000   5.460   5.959 -1.5765 -0.8975 -1.7295
 5896SOL     OW18788   8.926   1.309   6.251  0.2719  0.3120 -0.2879
 5896SOL    HW118789   9.010   1.267   6.236  0.5980  0.7926  0.1323
 5896SOL    HW218790   8.863   1.257   6.201  0.8518  0.0872 -0.7913
 5897SOL     OW18791   3.320   5.026   2.244  0.7904 -0.0047 -0.0475
 5897SOL    HW118792   3.363   5.111   2.244  4.4656 -1.6319 -1.1282
 5897SOL    HW218793   3.352   4.983   2.164 -3.2789 -1.4394 -1.1972
 5898SOL     OW18794   0.420   0.918   4.365 -0.5727  0.3183  0.5478
 5898SOL    HW118795   0.475   0.859   4.416  0.2715  0.8641  0.2806
 5898SOL    HW218796   0.401   0.870   4.285  0.8911  0.7518 -0.0855
 5899SOL     OW18797   6.506   0.073   2.775  0.2735 -1.0384 -0.2379
 5899SOL    HW118798   6.545   0.153   2.739  0.4401 -1.3478 -0.7627
 5899SOL    HW218799   6.576   0.033   2.826 -0.9783  1.2859  3.7073
 5900SOL     OW18800   4.773   5.723   5.308  0.0534  0.0017  0.4732
 5900SOL    HW118801   4.863   5.756   5.314  0.2261 -0.4635  0.5073
 5900SOL    HW218802   4.732   5.750   5.390 -0.0368  0.7943  0.1714
 5901SOL     OW18803   1.608   5.790   8.896 -0.3543 -0.2893  0.0619
 5901SOL    HW118804   1.635   5.818   8.983 -0.1155  1.1106 -0.4391
 5901SOL    HW218805   1.690   5.779   8.848 -0.5032 -0.6324 -0.1194
 5902SOL     OW18806   3.874   4.626   4.168 -0.1127  0.0750  0.2503
 5902SOL    HW118807   3.857   4.535   4.190  0.6883  0.0010  0.5663
 5902SOL    HW218808   3.914   4.663   4.247 -1.3659  0.9771  0.5095
 5903SOL     OW18809   3.619   6.816   7.537  0.1864 -0.1028 -0.2574
 5903SOL    HW118810   3.673   6.738   7.551 -1.3905 -1.0529  0.7550
 5903SOL    HW218811   3.571   6.798   7.456  2.1406  1.2422 -1.8199
 5904SOL     OW18812   7.874   6.078   3.493 -0.0669 -0.1620  0.2573
 5904SOL    HW118813   7.824   6.123   3.561  1.9578  1.1461  0.9797
 5904SOL    HW218814   7.957   6.055   3.534  1.0407  0.2417 -1.5985
 5905SOL     OW18815   8.728   4.157   6.266  0.3544 -0.2328 -0.6131
 5905SOL    HW118816   8.638   4.139   6.237  0.1229 -0.0325 -0.0404
 5905SOL    HW218817   8.721   4.166   6.361  1.1845 -1.3835 -0.4294
 5906SOL     OW18818   7.634   8.011   3.180 -0.5549 -0.1322 -0.2842
 5906SOL    HW118819   7.675   7.939   3.133  0.4101  0.2665 -0.0806
 5906SOL    HW218820   7.617   7.976   3.268 -0.1299 -0.1254 -0.1992
 5907SOL     OW18821   6.509   0.768   8.861  0.2222  0.1397  0.0632
 5907SOL    HW118822   6.458   0.845   8.836 -0.7488 -0.4817  0.0514
 5907SOL    HW218823   6.497   0.707   8.789 -1.4149 -1.1170  1.3116
 5908SOL     OW18824   0.481   5.458   5.727 -0.4375 -0.2578  0.1719
 5908SOL    HW118825   0.390   5.434   5.710 -0.7221 -0.2707  1.6299
 5908SOL    HW218826   0.532   5.401   5.669 -1.3770  0.8401 -1.8664
 5909SOL     OW18827   7.555   7.600   3.896 -0.1160  0.2688 -0.2155
 5909SOL    HW118828   7.614   7.561   3.832 -0.4591  0.6510 -0.7689
 5909SOL    HW218829   7.477   7.545   3.895  0.6455 -0.9270  1.3537
 5910SOL     OW18830   8.197   3.017   2.470 -0.3859 -0.4106 -0.3474
 5910SOL    HW118831   8.212   3.064   2.388 -0.3136 -0.4702 -0.3683
 5910SOL    HW218832   8.108   2.984   2.463 -0.6811  0.3048 -0.0464
 5911SOL     OW18833   5.746   5.556   0.112 -0.4308 -0.2147 -0.4439
 5911SOL    HW118834   5.814   5.489   0.112 -0.2392 -0.0612  1.2762
 5911SOL    HW218835   5.702   5.545   0.196 -2.1008  0.1384 -1.2283
 5912SOL     OW18836   7.257   2.449   6.254 -0.0082  0.2457 -0.8613
 5912SOL    HW118837   7.192   2.513   6.223 -0.5236  0.4423  0.5295
 5912SOL    HW218838   7.205   2.373   6.280  0.4657 -0.1650 -1.1060
 5913SOL     OW18839   9.081   0.373   4.545  0.0422  0.1065  0.0484
 5913SOL    HW118840   9.043   0.385   4.632 -1.1924 -2.6092 -0.0217
 5913SOL    HW218841   9.006   0.382   4.486  0.8843  1.9973 -0.8067
 5914SOL     OW18842   6.355   1.936   8.885 -0.8180 -0.3997 -0.0159
 5914SOL    HW118843   6.443   1.936   8.923 -0.5515 -0.9921 -0.6196
 5914SOL    HW218844   6.325   2.026   8.895 -0.3744 -0.3277  0.7247
 5915SOL     OW18845   2.936   7.040   5.897 -0.2246  0.2215 -0.5283
 5915SOL    HW118846   2.968   7.075   5.814  0.9934 -0.5271 -0.3921
 5915SOL    HW218847   2.976   6.953   5.904 -2.0375 -0.6381 -0.1776
 5916SOL     OW18848   4.146   8.917   0.740 -0.3779 -0.2542  0.2363
 5916SOL    HW118849   4.077   8.854   0.762  0.2880 -1.0149  0.1683
 5916SOL    HW218850   4.214   8.865   0.697  0.5549  0.3483  0.9279
 5917SOL     OW18851   4.762   1.429   7.169  0.0583  0.5049  0.5750
 5917SOL    HW118852   4.760   1.344   7.124 -2.7463 -0.4944  2.2936
 5917SOL    HW218853   4.697   1.482   7.122  0.3856  1.0454  0.7192
 5918SOL     OW18854   8.247   2.982   1.027  0.1135  0.2978 -0.0327
 5918SOL    HW118855   8.182   3.022   0.970  0.1892  0.9171  0.3064
 5918SOL    HW218856   8.331   3.013   0.994  0.0977  1.7873  1.2337
 5919SOL     OW18857   2.002   6.189   7.290  0.5225  0.5599  0.6348
 5919SOL    HW118858   1.968   6.172   7.203  0.7663 -0.6939  0.7701
 5919SOL    HW218859   2.084   6.235   7.275  0.2253  0.9680  0.2312
 5920SOL     OW18860   4.988   7.071   3.728 -0.0753  0.0510  0.3688
 5920SOL    HW118861   4.900   7.034   3.740  0.5236 -1.5548  0.1319
 5920SOL    HW218862   4.990   7.148   3.784 -2.2058  1.1579 -0.9453
 5921SOL     OW18863   8.532   2.904   2.851 -0.4208 -0.0912 -0.3817
 5921SOL    HW118864   8.613   2.891   2.801 -0.3403 -0.1953 -0.2254
 5921SOL    HW218865   8.463   2.905   2.785 -0.2864  0.0483 -0.5194
 5922SOL     OW18866   8.351   7.063   6.147 -0.6219 -0.2381 -0.4156
 5922SOL    HW118867   8.305   7.067   6.063 -1.1236 -0.1911 -0.1397
 5922SOL    HW218868   8.368   7.154   6.170 -0.2583 -0.2606 -0.5859
 5923SOL     OW18869   5.029   4.476   7.672 -0.1866 -0.4710  0.2130
 5923SOL    HW118870   4.997   4.540   7.735  0.8457  1.5285 -1.1958
 5923SOL    HW218871   5.117   4.455   7.702 -1.0427 -2.5213  1.5395
 5924SOL     OW18872   8.665   1.046   6.429  0.1994 -0.1258  0.6029
 5924SOL    HW118873   8.740   0.987   6.439  1.7692  1.5267 -0.8427
 5924SOL    HW218874   8.610   1.003   6.363  0.8874 -0.4013  0.1954
 5925SOL     OW18875   5.775   3.408   2.054 -0.2230 -0.2885  0.1748
 5925SOL    HW118876   5.849   3.349   2.065 -0.7202 -0.9358  0.0678
 5925SOL    HW218877   5.712   3.381   2.121  0.6919  1.9674  2.0849
 5926SOL     OW18878   8.893   5.887   3.511 -0.1669  0.5604  0.0850
 5926SOL    HW118879   8.986   5.875   3.491 -0.1450  0.6713  0.1181
 5926SOL    HW218880   8.849   5.883   3.427 -0.1186  0.6274  0.0563
 5927SOL     OW18881   3.409   3.814   4.608  0.4413  0.1391 -0.1077
 5927SOL    HW118882   3.481   3.811   4.671 -0.5939 -3.3048  1.1003
 5927SOL    HW218883   3.330   3.805   4.660 -0.5467 -1.2397 -1.7162
 5928SOL     OW18884   3.530   6.228   7.099 -0.0692  0.9404 -0.5506
 5928SOL    HW118885   3.530   6.134   7.083 -2.2572  0.5593  1.2102
 5928SOL    HW218886   3.505   6.267   7.015 -1.7722 -0.2585 -0.6395
 5929SOL     OW18887   2.320   0.995   5.973  0.8436 -0.1058  0.2675
 5929SOL    HW118888   2.272   1.077   5.983  0.1238 -0.5604  0.6251
 5929SOL    HW218889   2.384   0.995   6.044  0.6716  0.0272  0.4219
 5930SOL     OW18890   3.516   7.707   2.964  0.1459 -0.7983 -0.0838
 5930SOL    HW118891   3.587   7.704   3.028  0.1812 -0.9732 -0.1303
 5930SOL    HW218892   3.496   7.800   2.954 -0.6262 -0.8119  1.0460
 5931SOL     OW18893   0.854   7.396   5.716  0.3234  0.3862 -0.5072
 5931SOL    HW118894   0.791   7.459   5.751  0.9409  0.2327  0.9261
 5931SOL    HW218895   0.938   7.442   5.719  1.1757 -1.0983  2.5276
 5932SOL     OW18896   8.926   0.759   4.970 -0.4679  0.4888  0.2397
 5932SOL    HW118897   8.846   0.812   4.977  0.8124  2.5687  0.0341
 5932SOL    HW218898   8.971   0.772   5.053  0.0354 -0.0156  0.0544
 5933SOL     OW18899   7.215   3.326   6.097  0.6763 -0.5383  0.9536
 5933SOL    HW118900   7.155   3.399   6.082  1.6393  0.1235  0.1855
 5933SOL    HW218901   7.211   3.274   6.017  1.6659 -0.0849  0.6019
 5934SOL     OW18902   1.967   7.280   0.846  0.3518  0.2601 -0.1175
 5934SOL    HW118903   1.907   7.258   0.774  1.0724 -3.5414  0.2669
 5934SOL    HW218904   1.910   7.290   0.922 -0.1096  1.0363 -0.5431
 5935SOL     OW18905   7.154   1.842   6.937 -0.3018 -0.5959  0.6574
 5935SOL    HW118906   7.239   1.828   6.979 -0.1362 -1.6686  0.0089
 5935SOL    HW218907   7.169   1.913   6.874  0.5043 -1.7109 -0.4543
 5936SOL     OW18908   8.257   7.230   5.288  0.1902  0.5747 -0.3070
 5936SOL    HW118909   8.331   7.215   5.230  0.5169  1.7869 -0.2182
 5936SOL    HW218910   8.246   7.147   5.335  1.0410  0.1607 -0.8250
 5937SOL     OW18911   1.427   3.857   4.699  0.1184  0.0043 -0.1148
 5937SOL    HW118912   1.491   3.818   4.759 -0.6864  0.2514  0.9333
 5937SOL    HW218913   1.394   3.783   4.648 -0.8482 -0.6056  1.3379
 5938SOL     OW18914   8.826   2.551   6.550 -0.4688 -0.5799 -0.8098
 5938SOL    HW118915   8.740   2.588   6.529 -0.4322 -0.5698 -0.9424
 5938SOL    HW218916   8.888   2.607   6.503 -0.2609  0.4903  0.6879
 5939SOL     OW18917   3.103   0.169   1.762 -0.0510 -0.1530  0.3508
 5939SOL    HW118918   3.093   0.239   1.697 -1.5475  0.3873  1.1285
 5939SOL    HW218919   3.194   0.175   1.789  0.3296  0.2799 -0.9395
 5940SOL     OW18920   5.475   7.214   5.875 -0.0953 -0.2915  0.1132
 5940SOL    HW118921   5.490   7.289   5.933 -0.6743  0.5951 -0.8521
 5940SOL    HW218922   5.478   7.138   5.933  0.2317  0.4947  1.1602
 5941SOL     OW18923   0.696   0.630   7.613 -0.2458 -0.2099 -0.4495
 5941SOL    HW118924   0.623   0.593   7.663 -0.5553  1.0441  0.0594
 5941SOL    HW218925   0.717   0.562   7.549  0.3255 -1.9983  1.4906
 5942SOL     OW18926   3.626   1.076   8.616  0.2199  0.3876  0.1149
 5942SOL    HW118927   3.699   1.025   8.581  0.3413  0.2434  0.5741
 5942SOL    HW218928   3.664   1.162   8.635  0.1051  0.5313 -0.3015
 5943SOL     OW18929   3.012   7.054   1.676 -0.3500  0.1690  0.1166
 5943SOL    HW118930   2.990   7.125   1.736  1.5583  0.8198  0.1086
 5943SOL    HW218931   3.072   7.093   1.613  0.1770 -1.2734 -0.3135
 5944SOL     OW18932   3.089   4.344   0.393 -0.6375 -0.3803 -0.0704
 5944SOL    HW118933   3.173   4.314   0.358 -0.6098  0.6009 -0.8868
 5944SOL    HW218934   3.027   4.277   0.364 -0.3263 -0.4904 -0.5093
 5945SOL     OW18935   6.186   7.205   0.881 -0.2707  0.4040  0.3475
 5945SOL    HW118936   6.140   7.187   0.799 -1.3309 -0.0177  1.0104
 5945SOL    HW218937   6.271   7.163   0.871 -1.0227 -1.1337  0.1220
 5946SOL     OW18938   2.179   6.067   1.430  0.7820  0.0999 -0.4297
 5946SOL    HW118939   2.272   6.064   1.407  1.5443  0.2498  2.3072
 5946SOL    HW218940   2.142   6.133   1.371  2.1925 -0.5391 -2.1286
 5947SOL     OW18941   3.098   5.030   7.985 -0.3082 -0.3527 -0.0571
 5947SOL    HW118942   3.051   4.949   8.006  2.5420 -1.9374  0.7511
 5947SOL    HW218943   3.043   5.099   8.022 -1.8826 -2.0710  1.0087
 5948SOL     OW18944   4.535   8.615   8.075  0.7129  0.7760 -0.1035
 5948SOL    HW118945   4.629   8.626   8.060  0.9962 -1.1724 -0.0979
 5948SOL    HW218946   4.495   8.643   7.993  1.4062  0.5114 -0.5453
 5949SOL     OW18947   8.633   3.629   6.514  0.0194  0.2875 -0.2049
 5949SOL    HW118948   8.595   3.542   6.511 -1.5707  0.8691  1.3068
 5949SOL    HW218949   8.575   3.683   6.460  1.0560  0.4198 -1.2275
 5950SOL     OW18950   1.600   4.526   0.749 -0.1570 -0.2476 -0.3908
 5950SOL    HW118951   1.595   4.585   0.674  1.2117  0.0695 -0.2595
 5950SOL    HW218952   1.513   4.485   0.753 -0.3505 -0.0800 -1.9823
 5951SOL     OW18953   7.329   3.619   3.688  0.0354  0.5463  0.1342
 5951SOL    HW118954   7.379   3.626   3.769  2.6166 -1.0573 -1.1669
 5951SOL    HW218955   7.394   3.631   3.619 -0.9141 -3.3123 -1.7313
 5952SOL     OW18956   3.235   3.792   3.813 -0.1398  1.0756  0.3548
 5952SOL    HW118957   3.177   3.754   3.748  1.0776 -1.7654  0.7850
 5952SOL    HW218958   3.315   3.812   3.766  0.0805  0.8147  0.6168
 5953SOL     OW18959   2.108   6.449   7.024 -0.4398 -0.2717  0.4481
 5953SOL    HW118960   2.146   6.426   6.939 -0.4476  1.6971 -0.1393
 5953SOL    HW218961   2.170   6.512   7.061 -2.0697  1.4411  0.3756
 5954SOL     OW18962   4.083   8.023   1.078 -0.5624  0.2593  0.2841
 5954SOL    HW118963   4.036   7.992   1.156  0.5491 -0.8868  0.5387
 5954SOL    HW218964   4.062   7.959   1.010  2.3294 -1.6370  1.0029
 5955SOL     OW18965   5.745   3.085   3.253  0.2912 -0.2281 -0.0120
 5955SOL    HW118966   5.730   3.101   3.160 -0.6871  1.4684  0.3891
 5955SOL    HW218967   5.693   3.152   3.298  0.9733 -0.8121  1.7567
 5956SOL     OW18968   0.601   0.250   0.924  0.5393 -0.5747 -0.2192
 5956SOL    HW118969   0.637   0.163   0.943  1.7737 -0.1286 -0.4325
 5956SOL    HW218970   0.675   0.310   0.934 -0.2045  0.4161 -0.4445
 5957SOL     OW18971   6.849   3.410   1.545  0.1263  0.4574 -0.8705
 5957SOL    HW118972   6.937   3.383   1.572 -0.2640 -0.1486 -0.1841
 5957SOL    HW218973   6.852   3.410   1.450  0.2649 -1.6030 -0.9016
 5958SOL     OW18974   7.620   3.495   6.730  0.5951  0.1201  0.2776
 5958SOL    HW118975   7.695   3.436   6.737 -0.3056 -1.0465  0.5768
 5958SOL    HW218976   7.577   3.470   6.649  0.9393  1.3169 -0.2971
 5959SOL     OW18977   1.714   3.087   0.742  0.0354 -0.2398  0.8258
 5959SOL    HW118978   1.718   2.992   0.758  0.5811 -0.5361 -0.8697
 5959SOL    HW218979   1.797   3.120   0.775  0.3335 -0.5419  0.3978
 5960SOL     OW18980   6.360   3.763   4.991 -0.2305  0.1051 -0.1650
 5960SOL    HW118981   6.333   3.756   4.899 -2.1346  0.8875  0.2858
 5960SOL    HW218982   6.358   3.673   5.023 -0.3784 -0.0809 -0.6861
 5961SOL     OW18983   8.909   8.253   6.693 -0.2128 -0.0726  0.2210
 5961SOL    HW118984   8.992   8.266   6.739  0.8119 -1.1818 -1.2045
 5961SOL    HW218985   8.892   8.159   6.702 -0.6257 -0.0848 -0.6017
 5962SOL     OW18986   3.209   6.873   1.863  0.7796 -0.6959 -0.0052
 5962SOL    HW118987   3.158   6.851   1.785  2.7724 -1.9878 -1.0343
 5962SOL    HW218988   3.231   6.966   1.851 -1.3043 -0.0908  0.5072
 5963SOL     OW18989   3.970   2.577   7.870 -0.4648 -0.2091  0.4479
 5963SOL    HW118990   4.050   2.630   7.866 -2.2558  2.6405 -1.7687
 5963SOL    HW218991   3.986   2.505   7.809  0.6059 -0.0626  0.5288
 5964SOL     OW18992   7.276   8.628   3.392  0.7229 -0.2958  0.0373
 5964SOL    HW118993   7.368   8.632   3.416  1.5816 -1.0399 -2.7463
 5964SOL    HW218994   7.252   8.536   3.400 -0.4991  0.1606  2.8100
 5965SOL     OW18995   8.195   5.345   8.405  0.5900  0.1676  0.5063
 5965SOL    HW118996   8.164   5.436   8.406 -0.9652 -0.3365  1.5116
 5965SOL    HW218997   8.167   5.312   8.319 -0.5906  0.0833  0.9129
 5966SOL     OW18998   7.620   4.739   7.637  0.2343 -0.3216  0.2010
 5966SOL    HW118999   7.615   4.691   7.720  0.1467  1.1680  1.1072
 5966SOL    HW219000   7.675   4.815   7.657 -2.1988  1.6764 -0.2189
 5967SOL     OW19001   5.126   3.777   3.673  0.3143  0.0397  0.4153
 5967SOL    HW119002   5.132   3.802   3.581 -0.2108 -0.7574  0.1468
 5967SOL    HW219003   5.033   3.757   3.685  0.7023 -1.8177  0.5680
 5968SOL     OW19004   3.589   1.822   1.695 -0.2561  0.2159 -1.0655
 5968SOL    HW119005   3.563   1.742   1.742  0.7011 -0.5104 -1.7237
 5968SOL    HW219006   3.570   1.893   1.756  3.8293 -0.8413  1.9083
 5969SOL     OW19007   5.996   6.093   3.908  0.4243  0.0560 -0.0040
 5969SOL    HW119008   5.987   6.070   4.001  0.7828  0.4860  0.1394
 5969SOL    HW219009   5.912   6.066   3.870 -0.4621  1.4974  0.7970
 5970SOL     OW19010   8.962   5.474   3.357 -0.2385 -0.4017  0.3362
 5970SOL    HW119011   8.937   5.382   3.348  0.7061 -0.8793  2.0784
 5970SOL    HW219012   8.887   5.514   3.401  1.0092 -1.4023  3.7310
 5971SOL     OW19013   0.817   0.428   6.947  0.2453  0.0435 -0.0711
 5971SOL    HW119014   0.781   0.349   6.986  1.0678 -0.3283 -0.0356
 5971SOL    HW219015   0.816   0.412   6.853  1.8910 -0.6896  0.0085
 5972SOL     OW19016   4.653   5.350   7.320  0.6299 -0.0404  0.2968
 5972SOL    HW119017   4.630   5.354   7.227 -0.0689  1.5456  0.4997
 5972SOL    HW219018   4.741   5.389   7.324  1.2376 -1.3437  0.1617
 5973SOL     OW19019   2.259   8.274   8.635 -0.5095  0.1991 -0.4383
 5973SOL    HW119020   2.300   8.253   8.551  0.7784 -1.1446  0.4748
 5973SOL    HW219021   2.314   8.344   8.671 -1.0589  0.7714 -0.6853
 5974SOL     OW19022   8.707   5.926   0.902 -0.0288  0.0129 -0.2494
 5974SOL    HW119023   8.690   5.872   0.979  0.8552  0.8560  0.5648
 5974SOL    HW219024   8.757   5.870   0.843  2.1259  0.3082  1.1767
 5975SOL     OW19025   7.224   3.214   7.885  0.3998 -0.3579  0.0011
 5975SOL    HW119026   7.177   3.246   7.808  0.7196  0.6772  0.2217
 5975SOL    HW219027   7.205   3.279   7.953  0.3410 -1.1133  0.7265
 5976SOL     OW19028   1.253   1.099   5.949 -0.0320  0.9828 -0.1185
 5976SOL    HW119029   1.248   1.117   6.043  0.8820  2.2659 -0.2996
 5976SOL    HW219030   1.191   1.160   5.909 -1.7072 -0.7093 -0.2548
 5977SOL     OW19031   7.358   0.409   5.822  0.2156 -0.1343 -0.3732
 5977SOL    HW119032   7.266   0.423   5.846  0.2653 -1.1571  0.5151
 5977SOL    HW219033   7.371   0.462   5.743 -0.7093  1.2382  0.3594
 5978SOL     OW19034   8.076   8.941   2.238 -0.2783  0.2048  0.3680
 5978SOL    HW119035   8.040   8.989   2.313  0.6926 -1.5099  2.0230
 5978SOL    HW219036   8.000   8.915   2.187 -1.1398 -0.2057  1.8021
 5979SOL     OW19037   4.590   4.976   1.676 -0.0381 -0.1127 -0.1205
 5979SOL    HW119038   4.508   4.948   1.635  0.4427 -1.0830 -0.4475
 5979SOL    HW219039   4.618   5.051   1.625 -0.7926  0.3124  0.0786
 5980SOL     OW19040   9.125   3.766   5.535  0.4001 -0.0274 -0.2386
 5980SOL    HW119041   9.108   3.785   5.443 -0.5197 -0.7747 -0.2390
 5980SOL    HW219042   9.129   3.670   5.539  2.4129  0.0305  0.1699
 5981SOL     OW19043   7.584   0.655   2.887  0.1572  0.3378 -0.0569
 5981SOL    HW119044   7.589   0.739   2.933  1.8283 -1.0303  2.4748
 5981SOL    HW219045   7.633   0.669   2.806  0.6791  1.7201  0.4740
 5982SOL     OW19046   4.263   8.633   0.156  0.5952  0.2209  0.0756
 5982SOL    HW119047   4.253   8.648   0.062  0.8639 -2.7568 -0.5295
 5982SOL    HW219048   4.190   8.680   0.196  0.5922  1.7153 -1.5821
 5983SOL     OW19049   7.500   9.109   3.418  0.6360  0.0245  0.1659
 5983SOL    HW119050   7.573   9.132   3.361 -0.0109  2.7306  0.2905
 5983SOL    HW219051   7.422   9.133   3.368  0.0180  1.3553  1.6842
 5984SOL     OW19052   1.678   5.166   0.366 -0.4466  0.0724  0.4777
 5984SOL    HW119053   1.734   5.132   0.296  0.3020 -0.4511  1.2999
 5984SOL    HW219054   1.653   5.088   0.416 -2.1404  0.2696 -0.0119
 5985SOL     OW19055   7.828   2.434   5.873 -0.0280 -0.1935 -0.4822
 5985SOL    HW119056   7.835   2.468   5.783  1.4281 -1.5558 -0.9298
 5985SOL    HW219057   7.767   2.360   5.866 -2.2655  1.4624  0.2721
 5986SOL     OW19058   0.273   0.098   1.002 -0.0047  0.1475  0.0967
 5986SOL    HW119059   0.266   0.129   1.093  0.6827  1.3807 -0.2438
 5986SOL    HW219060   0.241   0.008   1.005 -1.5573  0.6988  1.2546
 5987SOL     OW19061   3.921   2.991   8.475  0.1154 -0.0611  0.1841
 5987SOL    HW119062   3.862   3.023   8.406  2.6289  2.3788 -1.0047
 5987SOL    HW219063   3.998   2.959   8.428  1.8618  1.5414  1.7917
 5988SOL     OW19064   8.635   2.982   3.944 -0.3023 -0.0966  0.2184
 5988SOL    HW119065   8.623   3.009   4.035  0.2585 -1.4855  0.7321
 5988SOL    HW219066   8.728   2.995   3.927 -0.2035 -0.7903  0.1877
 5989SOL     OW19067   6.832   5.537   1.617 -0.2659 -0.2794 -0.4298
 5989SOL    HW119068   6.892   5.466   1.641 -1.1861 -1.4295 -1.3790
 5989SOL    HW219069   6.889   5.608   1.589  0.7782  0.2991  2.7979
 5990SOL     OW19070   6.407   4.695   2.465 -0.5183  0.4856  0.3487
 5990SOL    HW119071   6.340   4.721   2.401 -0.5835  0.5019  0.4240
 5990SOL    HW219072   6.447   4.616   2.428  0.7013  1.5175 -0.6218
 5991SOL     OW19073   3.052   5.194   5.053  0.2916  0.7216 -0.2119
 5991SOL    HW119074   2.986   5.126   5.037 -0.5684  1.4165  0.2612
 5991SOL    HW219075   3.109   5.191   4.977 -0.9389  0.8267 -1.1727
 5992SOL     OW19076   7.187   6.000   2.560 -0.1606 -0.0118  0.3367
 5992SOL    HW119077   7.131   6.050   2.621 -1.6713 -0.5268 -0.5621
 5992SOL    HW219078   7.201   6.059   2.486  0.6123  0.1617  0.6175
 5993SOL     OW19079   2.442   0.613   4.182  0.3638 -0.1094  0.2190
 5993SOL    HW119080   2.459   0.551   4.253 -1.1762 -0.8384 -0.0221
 5993SOL    HW219081   2.417   0.559   4.107  1.5726  0.6667 -0.8124
 5994SOL     OW19082   0.282   3.250   6.524  0.0126 -0.0507 -0.0774
 5994SOL    HW119083   0.254   3.255   6.615 -0.2389  0.0837 -0.1601
 5994SOL    HW219084   0.349   3.181   6.523  0.3025  0.2240  0.2790
 5995SOL     OW19085   6.884   5.641   0.731 -0.0687 -0.1018 -0.0561
 5995SOL    HW119086   6.864   5.553   0.763 -1.9947  1.4491  3.7870
 5995SOL    HW219087   6.798   5.684   0.726  0.9540  2.2164  0.6842
 5996SOL     OW19088   2.084   6.402   7.753 -0.0110 -0.0955  0.2360
 5996SOL    HW119089   2.003   6.388   7.802  0.5465 -0.7200  1.0186
 5996SOL    HW219090   2.078   6.341   7.679 -1.4278  1.7457 -1.2595
 5997SOL     OW19091   4.603   8.294   8.043  0.4385  0.0544  0.3518
 5997SOL    HW119092   4.661   8.263   8.112  2.1798  1.8707 -0.1940
 5997SOL    HW219093   4.661   8.335   7.979 -1.3913  1.6579 -0.3990
 5998SOL     OW19094   1.713   1.928   8.902  0.4578  0.3560 -0.0880
 5998SOL    HW119095   1.737   1.910   8.993 -2.8709 -2.3346  0.4878
 5998SOL    HW219096   1.771   1.872   8.850 -0.5039 -1.5756  0.7955
 5999SOL     OW19097   8.110   4.256   1.863 -0.3616  0.3732  0.0275
 5999SOL    HW119098   8.032   4.252   1.808  1.0447  0.9939 -2.1234
 5999SOL    HW219099   8.084   4.309   1.938 -1.5959  1.8541 -1.3802
 6000SOL     OW19100   5.128   0.201   8.729  0.2993 -0.1222  0.0258
 6000SOL    HW119101   5.094   0.113   8.744 -1.2545  0.4545  0.1683
 6000SOL    HW219102   5.050   0.253   8.709  0.9369  1.5996  1.6700
 6001SOL     OW19103   5.299   8.194   1.889 -0.8529 -0.0220 -0.2543
 6001SOL    HW119104   5.326   8.270   1.940 -1.3006  0.2175 -0.3706
 6001SOL    HW219105   5.380   8.145   1.874 -0.7464 -0.2133  0.8681
 6002SOL     OW19106   3.406   0.189   3.892  0.3483 -0.5246  0.0916
 6002SOL    HW119107   3.440   0.162   3.807  1.8755 -0.0324  0.5193
 6002SOL    HW219108   3.451   0.272   3.910  0.7333 -1.0729  1.7756
 6003SOL     OW19109   6.180   2.895   2.738  0.5566 -0.2955 -0.0650
 6003SOL    HW119110   6.145   2.982   2.723  0.8243 -0.1597  0.0923
 6003SOL    HW219111   6.274   2.908   2.749  0.5064 -0.5099  0.6973
 6004SOL     OW19112   7.875   0.948   4.778 -0.4982  0.0960 -0.1504
 6004SOL    HW119113   7.870   0.888   4.704  0.5580  0.5961 -0.6327
 6004SOL    HW219114   7.894   1.033   4.740 -2.1447  0.8214  0.5079
 6005SOL     OW19115   9.069   8.951   3.026  0.3624  0.2450 -0.5055
 6005SOL    HW119116   9.145   9.007   3.043 -1.2260  1.9323  1.6801
 6005SOL    HW219117   9.053   8.907   3.110 -1.3514  0.3523 -0.7345
 6006SOL     OW19118   0.152   1.843   5.392  0.2234 -0.3286 -0.4302
 6006SOL    HW119119   0.107   1.920   5.428 -1.6929 -1.7751  0.4329
 6006SOL    HW219120   0.111   1.768   5.436  3.5606 -1.8155  0.4785
 6007SOL     OW19121   4.507   1.490   3.055 -0.6995  0.1935 -0.0668
 6007SOL    HW119122   4.499   1.579   3.088 -1.6278  0.2679 -0.4702
 6007SOL    HW219123   4.543   1.440   3.129 -1.2773  0.6622  0.5388
 6008SOL     OW19124   4.870   7.808   3.887  0.5885  0.3117 -0.4543
 6008SOL    HW119125   4.778   7.829   3.873  0.5723  2.0938  1.8167
 6008SOL    HW219126   4.917   7.873   3.835  0.5857 -0.2687 -1.1963
 6009SOL     OW19127   2.798   2.408   3.757 -0.5081  0.4801  0.3185
 6009SOL    HW119128   2.746   2.409   3.676 -0.6380  1.5967  0.4008
 6009SOL    HW219129   2.886   2.385   3.728 -0.5280  0.9761 -0.1621
 6010SOL     OW19130   6.326   0.188   1.000  0.0217  0.0217 -0.0421
 6010SOL    HW119131   6.313   0.261   1.059 -1.5394  0.2839 -0.6731
 6010SOL    HW219132   6.405   0.144   1.032  0.3021  1.2869  1.0350
 6011SOL     OW19133   4.579   2.380   7.842 -0.5067  0.0232 -0.0264
 6011SOL    HW119134   4.495   2.336   7.830 -1.3340  1.1433  1.2919
 6011SOL    HW219135   4.632   2.318   7.892 -0.9687 -0.2566  0.1220
 6012SOL     OW19136   1.149   5.667   3.119 -0.6821  0.3126  0.2745
 6012SOL    HW119137   1.194   5.719   3.052 -1.3656  2.4968  1.4371
 6012SOL    HW219138   1.187   5.695   3.202  0.1738 -2.3732  0.9118
 6013SOL     OW19139   1.500   6.626   1.741  0.3520 -0.2782 -0.2051
 6013SOL    HW119140   1.492   6.630   1.645  1.3842 -1.8471 -0.3797
 6013SOL    HW219141   1.552   6.703   1.764  0.6946 -0.2764 -0.9744
 6014SOL     OW19142   1.383   5.522   8.349 -0.3869 -0.1823 -0.1908
 6014SOL    HW119143   1.356   5.433   8.372 -0.5956 -0.2311 -0.6100
 6014SOL    HW219144   1.476   5.514   8.329 -0.5295 -0.4262 -0.7945
 6015SOL     OW19145   4.385   6.681   4.863  0.0658 -0.1251  0.1658
 6015SOL    HW119146   4.323   6.741   4.821  0.5389 -0.2841 -0.7629
 6015SOL    HW219147   4.377   6.600   4.813  1.4959  0.0548 -0.3777
 6016SOL     OW19148   8.450   3.482   8.936 -0.1713  0.0261  0.1371
 6016SOL    HW119149   8.482   3.531   9.012  1.2797  0.3036 -0.6241
 6016SOL    HW219150   8.522   3.486   8.873 -1.4519  0.0300 -1.3646
 6017SOL     OW19151   1.203   3.453   7.554  0.6393 -0.5173  1.0712
 6017SOL    HW119152   1.280   3.419   7.599  1.4404 -0.4149 -0.1660
 6017SOL    HW219153   1.165   3.377   7.510  2.4005  0.0395 -1.6525
 6018SOL     OW19154   2.121   6.205   6.536 -0.4882  0.1881  0.6262
 6018SOL    HW119155   2.029   6.231   6.528 -0.2031  1.3666  0.9336
 6018SOL    HW219156   2.133   6.138   6.469 -1.9685 -1.1712  1.6730
 6019SOL     OW19157   0.139   8.904   2.051  0.3517  0.5143 -0.3898
 6019SOL    HW119158   0.159   8.889   1.959 -1.2841 -1.6067 -0.4752
 6019SOL    HW219159   0.225   8.907   2.094  1.0791 -0.8556 -1.6581
 6020SOL     OW19160   2.776   3.862   7.212  0.1205  0.1636 -0.1483
 6020SOL    HW119161   2.781   3.766   7.214  1.7829  0.0974  4.2252
 6020SOL    HW219162   2.855   3.890   7.167 -0.9786 -0.3914 -2.5783
 6021SOL     OW19163   1.532   5.609   2.741 -0.0966  0.0523 -0.0084
 6021SOL    HW119164   1.584   5.530   2.725 -0.4442  0.0586 -1.2676
 6021SOL    HW219165   1.493   5.630   2.657 -1.5410  0.5019  0.7368
 6022SOL     OW19166   7.421   0.748   6.300  0.3987  0.0424  0.7066
 6022SOL    HW119167   7.509   0.770   6.329  1.1539 -1.8285 -0.0540
 6022SOL    HW219168   7.400   0.667   6.346 -0.3411 -0.3090 -0.2177
 6023SOL     OW19169   2.358   8.368   3.477  0.1269  0.2677  0.5223
 6023SOL    HW119170   2.304   8.382   3.555 -0.0530 -1.2447  0.7101
 6023SOL    HW219171   2.437   8.325   3.510  0.8457  1.1975  0.0664
 6024SOL     OW19172   7.307   0.854   5.632 -0.1561  0.2936 -0.2795
 6024SOL    HW119173   7.360   0.899   5.698  0.4466  0.5753 -0.9432
 6024SOL    HW219174   7.308   0.912   5.557 -2.2971  0.8006  0.0215
 6025SOL     OW19175   8.775   8.189   0.124 -0.0203  0.4192 -0.2494
 6025SOL    HW119176   8.850   8.162   0.178 -0.7946  0.5035  0.8965
 6025SOL    HW219177   8.808   8.184   0.034  0.8647 -1.1573  0.1227
 6026SOL     OW19178   2.570   5.820   7.376 -0.0370 -0.6402 -0.5982
 6026SOL    HW119179   2.475   5.833   7.370  0.0693  1.4377  1.1396
 6026SOL    HW219180   2.584   5.785   7.464  0.8035 -1.3538 -1.0033
 6027SOL     OW19181   8.431   5.777   4.691  0.2487 -0.2760 -0.1951
 6027SOL    HW119182   8.376   5.786   4.769 -0.3335 -0.0706 -0.6203
 6027SOL    HW219183   8.403   5.850   4.634  0.9983 -0.1376 -0.3922
 6028SOL     OW19184   7.084   7.708   2.562  0.0671  0.1435  0.0852
 6028SOL    HW119185   7.171   7.724   2.524  0.0952 -1.3999 -0.5580
 6028SOL    HW219186   7.102   7.670   2.648  0.0707 -0.9512 -0.3775
 6029SOL     OW19187   7.296   7.239   5.231  0.8419 -0.5812  0.3325
 6029SOL    HW119188   7.341   7.269   5.152 -1.0044 -0.7703 -0.8308
 6029SOL    HW219189   7.339   7.288   5.302  1.2146  1.0980 -0.9804
 6030SOL     OW19190   1.711   2.471   4.673 -0.4572  0.0468 -0.0267
 6030SOL    HW119191   1.771   2.544   4.690 -0.5984 -0.0747  1.0878
 6030SOL    HW219192   1.629   2.496   4.716 -0.6623 -0.5456 -0.0546
 6031SOL     OW19193   2.088   8.859   9.091 -0.1232 -0.2515  0.3742
 6031SOL    HW119194   2.068   8.770   9.119  0.9473 -1.0493 -1.2563
 6031SOL    HW219195   2.018   8.913   9.130 -0.6220 -1.7318  1.6273
 6032SOL     OW19196   6.153   6.360   1.414 -0.0745  0.2448  0.2396
 6032SOL    HW119197   6.099   6.439   1.422 -0.6599 -0.0206 -0.8885
 6032SOL    HW219198   6.193   6.367   1.327  1.1222  0.0616  0.7632
 6033SOL     OW19199   3.101   5.991   4.304 -0.3060  0.3504  0.5920
 6033SOL    HW119200   3.149   6.057   4.255  1.4006 -1.1357  0.1696
 6033SOL    HW219201   3.168   5.943   4.353 -1.2262 -2.2210 -0.4979
 6034SOL     OW19202   1.601   0.544   3.185 -0.1317  0.2046  0.1877
 6034SOL    HW119203   1.535   0.613   3.187  0.6802  1.0217 -0.3002
 6034SOL    HW219204   1.684   0.591   3.196  0.3731 -0.7915  0.7143
 6035SOL     OW19205   0.090   3.029   1.726 -0.2069 -0.0712  0.1646
 6035SOL    HW119206   0.036   2.966   1.773  2.0108 -1.0659  1.5574
 6035SOL    HW219207   0.141   2.976   1.665  1.6967  0.3077  1.3611
 6036SOL     OW19208   2.239   7.772   8.624 -0.1627  0.8050  0.0439
 6036SOL    HW119209   2.210   7.687   8.656 -1.2656  0.1413 -2.4732
 6036SOL    HW219210   2.158   7.817   8.600  0.5492  1.3236 -1.5080
 6037SOL     OW19211   3.386   7.710   7.124 -0.1019  0.2486  0.3746
 6037SOL    HW119212   3.361   7.794   7.085  1.1132 -0.0872 -1.2186
 6037SOL    HW219213   3.428   7.735   7.207 -0.5702  1.1549  0.3568
 6038SOL     OW19214   5.791   6.525   5.568 -0.1082  0.3513  0.1257
 6038SOL    HW119215   5.822   6.614   5.549 -1.3434  0.8420  0.3008
 6038SOL    HW219216   5.866   6.481   5.608  0.3280  1.5164  0.6182
 6039SOL     OW19217   7.141   6.212   7.192 -0.6167  0.3505 -0.0941
 6039SOL    HW119218   7.066   6.174   7.148 -1.2873 -0.3103  1.5377
 6039SOL    HW219219   7.185   6.138   7.234 -2.3518  1.2425  3.7655
 6040SOL     OW19220   4.094   4.694   0.248  0.4884  0.5146 -0.1092
 6040SOL    HW119221   4.106   4.655   0.162 -0.8949  1.0256 -0.5579
 6040SOL    HW219222   4.167   4.659   0.300  1.5459  0.4654 -1.5523
 6041SOL     OW19223   1.537   8.467   4.539 -0.1505 -0.1870  0.1171
 6041SOL    HW119224   1.529   8.557   4.572 -0.5953 -0.5832  1.1539
 6041SOL    HW219225   1.630   8.454   4.525  0.1664 -0.2360  2.0098
 6042SOL     OW19226   5.985   3.674   4.681  0.2076 -0.0204 -0.2898
 6042SOL    HW119227   5.923   3.730   4.634  1.8131 -0.2563 -2.8932
 6042SOL    HW219228   5.938   3.646   4.760 -3.1739 -0.5933 -2.3342
 6043SOL     OW19229   3.118   8.632   4.766 -0.4412  1.0314  0.1349
 6043SOL    HW119230   3.136   8.650   4.858  0.5383  0.1856  0.1311
 6043SOL    HW219231   3.164   8.549   4.749  0.1632  1.6425 -1.3418
 6044SOL     OW19232   3.877   8.170   7.607  0.2862 -0.1651  0.6054
 6044SOL    HW119233   3.929   8.199   7.533 -1.6306 -0.2119 -0.8539
 6044SOL    HW219234   3.873   8.074   7.598 -1.5656 -0.0362 -0.4553
 6045SOL     OW19235   6.095   2.676   6.817 -0.1105 -0.2409  0.0051
 6045SOL    HW119236   6.188   2.699   6.826  0.2703 -0.3571 -2.8240
 6045SOL    HW219237   6.053   2.723   6.889  1.8091  2.0905 -0.2226
 6046SOL     OW19238   4.189   6.429   1.006 -0.4012 -0.1464  0.1964
 6046SOL    HW119239   4.144   6.473   1.078  1.1069  1.5731  0.1590
 6046SOL    HW219240   4.282   6.433   1.031  0.1085  0.1480 -1.6543
 6047SOL     OW19241   1.998   4.410   9.097 -0.2101 -0.7186 -0.7402
 6047SOL    HW119242   1.910   4.433   9.066  0.2893  2.0313 -0.3558
 6047SOL    HW219243   1.988   4.399   9.191  0.0514  1.0285 -0.4733
 6048SOL     OW19244   7.804   2.409   6.770  0.3807  0.2481 -0.3802
 6048SOL    HW119245   7.809   2.478   6.836  0.0133 -1.1110  1.1296
 6048SOL    HW219246   7.762   2.450   6.695 -4.7109  0.5378  2.2041
 6049SOL     OW19247   6.878   8.850   4.174  0.1570 -0.3610  0.4389
 6049SOL    HW119248   6.931   8.775   4.202  1.5001  0.3133 -0.2309
 6049SOL    HW219249   6.861   8.834   4.081  1.1573  0.5592  0.0864
 6050SOL     OW19250   6.735   8.927   8.885 -0.1362 -0.4479 -0.4221
 6050SOL    HW119251   6.820   8.929   8.928 -0.3010  1.4170 -0.0898
 6050SOL    HW219252   6.738   9.000   8.822 -1.7556  0.1854  0.1711
 6051SOL     OW19253   7.067   6.714   1.086 -0.1354  0.0882  0.3743
 6051SOL    HW119254   6.987   6.663   1.069 -0.8530  1.5864 -1.0031
 6051SOL    HW219255   7.037   6.790   1.135  0.7726 -0.2688  1.5288
 6052SOL     OW19256   2.615   0.919   8.732 -0.3137 -0.3046 -0.4813
 6052SOL    HW119257   2.578   0.986   8.675 -0.4675  0.1411  0.1378
 6052SOL    HW219258   2.548   0.903   8.798  0.4971  0.3605  0.5275
 6053SOL     OW19259   4.275   8.156   2.759 -0.0319  0.5181 -0.2149
 6053SOL    HW119260   4.311   8.067   2.761 -0.0435  0.5198  0.9726
 6053SOL    HW219261   4.346   8.210   2.724  0.7932  0.3663  1.1729
 6054SOL     OW19262   8.444   7.582   3.995  0.2357 -0.0903  0.3792
 6054SOL    HW119263   8.374   7.530   3.956 -0.3281 -0.6844  2.0689
 6054SOL    HW219264   8.451   7.660   3.940 -0.5232 -0.8504 -0.8404
 6055SOL     OW19265   6.145   5.067   2.057 -0.0949  0.2009 -0.2824
 6055SOL    HW119266   6.173   5.134   2.120 -0.8421 -0.9178  1.2955
 6055SOL    HW219267   6.220   5.008   2.051  0.1840  0.6033 -0.9015
 6056SOL     OW19268   8.246   0.808   1.341 -0.6214  0.0841 -0.5868
 6056SOL    HW119269   8.186   0.736   1.324 -0.1202  0.1366 -2.7967
 6056SOL    HW219270   8.280   0.832   1.255  0.2743  2.0504  0.2591
 6057SOL     OW19271   7.508   7.532   4.610  0.3675  0.0059 -0.3324
 6057SOL    HW119272   7.565   7.548   4.535 -0.8380  0.1954 -1.2491
 6057SOL    HW219273   7.428   7.495   4.571  0.5721 -2.0949  1.0793
 6058SOL     OW19274   7.197   7.149   7.603  0.1765 -0.1942 -0.0164
 6058SOL    HW119275   7.123   7.193   7.562 -0.3006 -0.3502  0.6765
 6058SOL    HW219276   7.160   7.103   7.678  1.0186 -0.0235  0.5171
 6059SOL     OW19277   1.888   5.681   2.386 -0.0692 -0.6939  0.1057
 6059SOL    HW119278   1.983   5.670   2.387 -0.0111 -0.6134 -1.4543
 6059SOL    HW219279   1.863   5.664   2.295 -1.3237  1.0308  0.0782
 6060SOL     OW19280   6.641   6.128   3.994  0.5698 -0.3629  0.5029
 6060SOL    HW119281   6.560   6.175   3.973  1.1529  0.3344 -0.2840
 6060SOL    HW219282   6.707   6.168   3.936  1.4598 -0.9539  1.0876
 6061SOL     OW19283   2.755   8.780   1.474 -0.0578 -0.1604  0.3773
 6061SOL    HW119284   2.766   8.874   1.459  1.5181 -0.2636  0.7005
 6061SOL    HW219285   2.805   8.762   1.553  1.6100 -1.6476 -0.9243
 6062SOL     OW19286   4.998   8.155   4.740 -0.0360  0.0851  0.1302
 6062SOL    HW119287   4.943   8.181   4.666  1.1135 -0.0776 -0.8076
 6062SOL    HW219288   4.945   8.176   4.817 -0.9157  1.0600 -0.6988
 6063SOL     OW19289   5.890   6.806   6.403  0.0090  0.6294 -0.6906
 6063SOL    HW119290   5.965   6.817   6.462 -1.2471  0.6699  0.9354
 6063SOL    HW219291   5.884   6.712   6.389  0.6301  0.6554 -1.2365
 6064SOL     OW19292   2.095   1.238   8.776  0.4615 -0.0949 -0.1442
 6064SOL    HW119293   2.107   1.309   8.839  3.2617 -0.2804 -0.3624
 6064SOL    HW219294   2.121   1.276   8.692  0.7129 -1.0074 -0.4849
 6065SOL     OW19295   2.974   6.284   1.779 -0.0185  0.3745 -0.0572
 6065SOL    HW119296   2.922   6.212   1.743  1.2970  1.1820 -4.1448
 6065SOL    HW219297   2.913   6.332   1.835 -1.7782 -2.1902  0.3568
 6066SOL     OW19298   5.528   1.155   4.043  0.2723  0.0872 -0.0749
 6066SOL    HW119299   5.519   1.069   4.002 -0.3697  1.1072 -2.2035
 6066SOL    HW219300   5.488   1.145   4.130 -1.3775 -1.3060 -0.9417
 6067SOL     OW19301   8.502   4.131   8.070 -0.0940  0.0896 -0.5038
 6067SOL    HW119302   8.411   4.147   8.045 -0.1648  0.7251  0.1223
 6067SOL    HW219303   8.532   4.062   8.011 -1.3787 -1.0771  0.1474
 6068SOL     OW19304   0.103   7.717   2.241  0.1728 -0.4488 -0.5981
 6068SOL    HW119305   0.187   7.747   2.275 -0.8237  1.0828  0.6575
 6068SOL    HW219306   0.050   7.796   2.234 -1.3540 -1.4434 -0.8370
 6069SOL     OW19307   2.868   0.673   7.766  0.1150 -0.6490  0.0769
 6069SOL    HW119308   2.850   0.764   7.790  2.5545 -0.2644  0.7879
 6069SOL    HW219309   2.847   0.668   7.673  1.7227  1.2409 -0.4684
 6070SOL     OW19310   0.937   0.184   6.370 -0.0116 -0.2109  1.0151
 6070SOL    HW119311   0.847   0.215   6.384 -0.2814 -1.1526  1.4451
 6070SOL    HW219312   0.932   0.089   6.382  0.9084 -0.3652  0.3343
 6071SOL     OW19313   4.811   5.864   4.391  0.0631 -0.4026 -0.5160
 6071SOL    HW119314   4.816   5.912   4.474  1.0775 -0.8153 -0.3356
 6071SOL    HW219315   4.887   5.807   4.391  0.2569 -0.1756 -1.8846
 6072SOL     OW19316   0.445   4.356   0.314 -0.2459 -0.1773 -0.6224
 6072SOL    HW119317   0.464   4.306   0.394 -2.4990 -1.7690 -1.0100
 6072SOL    HW219318   0.355   4.333   0.292  0.4395 -0.1232 -3.8953
 6073SOL     OW19319   0.311   8.548   6.028  0.0553  0.5044  0.3777
 6073SOL    HW119320   0.323   8.464   5.984  0.7203  1.4749 -1.4226
 6073SOL    HW219321   0.293   8.525   6.119  3.2382 -1.5314  0.6681
 6074SOL     OW19322   8.163   0.213   8.845  0.6851 -0.6326 -0.2742
 6074SOL    HW119323   8.200   0.217   8.757  1.2501 -0.9622 -0.0628
 6074SOL    HW219324   8.159   0.120   8.865 -1.5479 -0.6939 -0.7967
 6075SOL     OW19325   5.665   7.317   4.018  0.3121 -0.7112  0.1237
 6075SOL    HW119326   5.582   7.298   3.974 -1.6124  2.4163  1.9840
 6075SOL    HW219327   5.640   7.342   4.107  3.2474  0.5489  0.7338
 6076SOL     OW19328   0.853   4.926   0.768  0.2357  0.3501 -0.9740
 6076SOL    HW119329   0.945   4.953   0.768  0.2376  0.6293 -3.9557
 6076SOL    HW219330   0.804   5.008   0.773  0.0955  0.2037  0.5809
 6077SOL     OW19331   1.616   2.292   3.283 -0.4152  0.0892  0.1617
 6077SOL    HW119332   1.666   2.244   3.349 -0.5259 -0.2477  0.0028
 6077SOL    HW219333   1.669   2.369   3.263 -0.5404  0.3698  0.8934
 6078SOL     OW19334   7.952   4.823   8.490 -0.5514 -0.4792 -0.4111
 6078SOL    HW119335   7.887   4.828   8.561  1.4119  1.0742  1.4392
 6078SOL    HW219336   7.984   4.913   8.482  1.4503 -1.2132 -1.1194
 6079SOL     OW19337   3.304   2.244   1.954 -0.2047  0.1803 -0.0287
 6079SOL    HW119338   3.331   2.211   1.868 -0.5239 -0.4847  0.1243
 6079SOL    HW219339   3.208   2.245   1.950 -0.2067  1.4245 -0.1518
 6080SOL     OW19340   3.218   3.914   8.809 -0.8743  0.0230  0.0853
 6080SOL    HW119341   3.234   3.843   8.747 -1.0698 -2.2723  2.4680
 6080SOL    HW219342   3.289   3.977   8.793  1.3541 -2.3458  0.0187
 6081SOL     OW19343   8.894   4.844   3.587 -0.1154 -0.2415  0.2758
 6081SOL    HW119344   8.848   4.927   3.578  1.5534  0.7585  0.4987
 6081SOL    HW219345   8.899   4.809   3.498 -0.3895  0.1411  0.1082
 6082SOL     OW19346   3.648   4.140   4.637  0.4723  0.3561  0.2018
 6082SOL    HW119347   3.607   4.113   4.556  2.5576 -3.0139  0.0879
 6082SOL    HW219348   3.579   4.185   4.685 -1.0988  1.5887 -2.9374
 6083SOL     OW19349   1.292   6.755   8.818  0.3550  0.2393 -0.6665
 6083SOL    HW119350   1.303   6.668   8.779 -0.9981  0.6807 -2.1420
 6083SOL    HW219351   1.216   6.746   8.875  0.7504  0.2441 -0.1364
 6084SOL     OW19352   1.388   0.165   6.640 -0.4574 -0.0073  0.4955
 6084SOL    HW119353   1.314   0.202   6.592 -1.3881 -1.7632  0.4909
 6084SOL    HW219354   1.349   0.095   6.693  1.1128 -0.5221  1.0138
 6085SOL     OW19355   8.070   8.359   3.932  0.4928  0.4081  0.2292
 6085SOL    HW119356   8.110   8.279   3.897 -0.1576 -0.1508  0.7236
 6085SOL    HW219357   8.107   8.369   4.020  2.7725  2.2807 -0.8310
 6086SOL     OW19358   2.368   6.001   7.623  0.2879  0.2319 -0.4623
 6086SOL    HW119359   2.306   6.070   7.643 -1.0632 -0.7429 -1.1308
 6086SOL    HW219360   2.434   6.042   7.568  0.8579  1.5352  1.1046
 6087SOL     OW19361   7.615   6.032   4.173 -0.2199 -0.2222 -0.0275
 6087SOL    HW119362   7.548   5.976   4.135 -0.4896  0.6933 -0.9482
 6087SOL    HW219363   7.623   6.003   4.264 -0.9563 -1.1716 -0.2589
 6088SOL     OW19364   7.814   5.534   7.281  0.1475 -0.4094  0.0337
 6088SOL    HW119365   7.755   5.474   7.327 -1.7321  0.1583 -1.4847
 6088SOL    HW219366   7.787   5.621   7.311  0.9829 -0.1799  0.1364
 6089SOL     OW19367   4.700   3.247   1.327 -0.2531  0.3826 -0.1977
 6089SOL    HW119368   4.744   3.173   1.369 -0.2272  0.2797 -0.4037
 6089SOL    HW219369   4.667   3.211   1.244 -1.9937  0.0620  0.5741
 6090SOL     OW19370   0.859   4.733   6.318  0.5703  0.0561 -0.2950
 6090SOL    HW119371   0.812   4.686   6.250 -1.1020  0.8602  0.2482
 6090SOL    HW219372   0.846   4.681   6.397 -1.4672  1.4479  0.3547
 6091SOL     OW19373   2.583   8.145   0.688 -0.0244 -0.4441  0.0767
 6091SOL    HW119374   2.561   8.238   0.684 -2.6925 -1.0167 -0.8743
 6091SOL    HW219375   2.559   8.120   0.778  0.2132 -0.3091  0.1777
 6092SOL     OW19376   3.772   7.742   1.927 -0.1246 -0.0952  0.2454
 6092SOL    HW119377   3.844   7.693   1.966  0.7375 -1.2931 -2.5701
 6092SOL    HW219378   3.701   7.678   1.918 -1.1011  0.7130  1.6760
 6093SOL     OW19379   0.907   6.242   6.938 -0.2990 -0.5771  0.1409
 6093SOL    HW119380   0.872   6.167   6.889 -0.0453 -1.1894  0.8784
 6093SOL    HW219381   0.850   6.248   7.015 -1.2903  0.9654 -0.6618
 6094SOL     OW19382   7.901   0.792   7.452 -0.2589  0.5761 -0.1822
 6094SOL    HW119383   7.911   0.799   7.547  1.1100 -1.3221 -0.1240
 6094SOL    HW219384   7.807   0.787   7.438 -0.4349 -1.0278  1.2810
 6095SOL     OW19385   5.696   1.989   1.692  0.2430 -0.1649  0.4818
 6095SOL    HW119386   5.639   2.054   1.650  1.5447  1.2552  0.8459
 6095SOL    HW219387   5.757   1.962   1.624  0.8429  0.3545  0.8042
 6096SOL     OW19388   3.806   6.433   4.118 -0.5166 -0.4837 -0.1998
 6096SOL    HW119389   3.865   6.471   4.053 -1.8055  0.0166 -1.1034
 6096SOL    HW219390   3.747   6.504   4.142  0.3984 -0.4442  2.1141
 6097SOL     OW19391   0.298   2.096   7.298 -0.1365  0.2135  0.4559
 6097SOL    HW119392   0.332   2.083   7.210  0.6928  1.8886  0.4906
 6097SOL    HW219393   0.209   2.128   7.285  0.3506  1.4865  0.1803
 6098SOL     OW19394   6.326   2.778   3.623  0.3690  0.0713  0.0279
 6098SOL    HW119395   6.303   2.867   3.595 -1.5234 -0.2569  0.4130
 6098SOL    HW219396   6.302   2.722   3.550 -0.5128 -0.3345  0.6124
 6099SOL     OW19397   2.804   4.733   4.836 -0.2813  0.2945  0.1617
 6099SOL    HW119398   2.750   4.701   4.908 -2.3486  0.7300 -1.1015
 6099SOL    HW219399   2.758   4.810   4.803  2.6866  2.5558  0.8220
 6100SOL     OW19400   8.326   4.374   0.411 -0.4803 -0.2485 -0.3666
 6100SOL    HW119401   8.396   4.432   0.380 -0.6701  0.2096  0.0394
 6100SOL    HW219402   8.258   4.380   0.343 -0.2884 -0.3859 -0.5696
 6101SOL     OW19403   9.032   7.315   2.491  0.2137  0.1915 -0.0260
 6101SOL    HW119404   9.000   7.295   2.403  0.1003 -0.6169  0.1922
 6101SOL    HW219405   8.987   7.396   2.515 -0.4754 -0.0890 -0.3475
 6102SOL     OW19406   2.136   5.313   3.296 -0.5840  0.5275  0.0647
 6102SOL    HW119407   2.200   5.375   3.261  2.6856 -1.4021  2.0361
 6102SOL    HW219408   2.089   5.361   3.363  1.1478  1.2421  0.8306
 6103SOL     OW19409   5.923   2.398   8.991 -0.2038  0.0817 -0.5551
 6103SOL    HW119410   5.960   2.455   8.923 -1.4090 -0.5235 -1.7691
 6103SOL    HW219411   5.999   2.368   9.041  0.7779  0.2445 -1.8713
 6104SOL     OW19412   8.757   3.722   8.079  0.5651 -0.2535 -0.0111
 6104SOL    HW119413   8.706   3.719   8.160 -0.6129 -4.2344 -0.7207
 6104SOL    HW219414   8.841   3.682   8.102  1.4062  1.3497 -0.1389
 6105SOL     OW19415   2.351   5.073   1.852  0.2516 -0.1165  0.0211
 6105SOL    HW119416   2.372   4.987   1.887  0.0085 -0.6123 -1.0175
 6105SOL    HW219417   2.259   5.087   1.877 -0.4115 -1.1367 -1.6522
 6106SOL     OW19418   4.845   9.018   5.093  0.2336 -0.0804  0.5939
 6106SOL    HW119419   4.825   8.928   5.121 -0.3341  0.1746  1.0290
 6106SOL    HW219420   4.938   9.029   5.113  0.7997 -1.1783 -1.1500
 6107SOL     OW19421   1.270   3.123   6.352  0.2677 -0.8978  0.2129
 6107SOL    HW119422   1.360   3.089   6.358  0.7731  0.4342  0.5385
 6107SOL    HW219423   1.217   3.060   6.401  1.2552 -0.9368  1.2777
 6108SOL     OW19424   9.032   2.609   5.922  0.9784  0.1145  0.1045
 6108SOL    HW119425   8.997   2.649   6.001  1.0220  0.2137  0.0736
 6108SOL    HW219426   9.080   2.532   5.953  0.9903  0.1498  0.1738
 6109SOL     OW19427   5.285   2.070   4.165  0.0766  0.1462 -0.1121
 6109SOL    HW119428   5.265   1.976   4.159  0.8102 -0.0917  0.9914
 6109SOL    HW219429   5.355   2.083   4.101  1.3527 -0.4756  1.1231
 6110SOL     OW19430   7.466   3.670   2.730  0.3468 -0.0827 -0.2026
 6110SOL    HW119431   7.507   3.654   2.645  0.1121 -0.0939 -0.3127
 6110SOL    HW219432   7.539   3.671   2.792  0.6015  0.6923 -0.5023
 6111SOL     OW19433   1.378   3.850   6.668  0.4060 -0.3587 -0.3260
 6111SOL    HW119434   1.295   3.803   6.666  1.0437 -1.5154 -0.7303
 6111SOL    HW219435   1.439   3.788   6.709  1.2827  0.1027 -0.9098
 6112SOL     OW19436   8.336   5.689   7.559  0.1338 -0.0350 -0.0227
 6112SOL    HW119437   8.405   5.755   7.562  1.5633 -1.4981  0.9046
 6112SOL    HW219438   8.272   5.718   7.623  2.5276 -1.3024  3.2119
 6113SOL     OW19439   1.115   5.785   8.291  0.8037  0.1930 -0.0656
 6113SOL    HW119440   1.161   5.711   8.250 -0.4744 -0.1907 -0.8631
 6113SOL    HW219441   1.071   5.748   8.367 -1.8625 -0.5048 -1.8042
 6114SOL     OW19442   5.028   9.071   8.793 -0.9495 -0.1159 -0.1259
 6114SOL    HW119443   5.079   8.991   8.794 -0.8037 -0.0288 -0.5288
 6114SOL    HW219444   5.023   9.097   8.885 -0.3978 -0.2041 -0.0666
 6115SOL     OW19445   1.623   3.346   0.710 -0.4759 -0.0840 -0.1623
 6115SOL    HW119446   1.658   3.257   0.709 -2.2830 -0.8798  2.0163
 6115SOL    HW219447   1.700   3.401   0.725  0.3201 -1.4963  1.1730
 6116SOL     OW19448   5.907   4.720   8.130  0.0075 -0.2335  0.3750
 6116SOL    HW119449   5.842   4.689   8.067  0.5980 -1.5597  0.3805
 6116SOL    HW219450   5.980   4.659   8.121  0.5886  0.2642  1.5092
 6117SOL     OW19451   6.032   2.465   3.865  0.5534 -0.2171  0.0560
 6117SOL    HW119452   6.041   2.555   3.834 -1.3392  0.2401  0.7157
 6117SOL    HW219453   5.966   2.470   3.935  0.4813 -2.1042  0.1747
 6118SOL     OW19454   1.113   8.818   8.820 -0.3868  0.5676 -0.0795
 6118SOL    HW119455   1.084   8.847   8.733 -1.6589 -0.2179  0.0693
 6118SOL    HW219456   1.159   8.894   8.856  0.3027  0.8569 -1.4857
 6119SOL     OW19457   4.578   6.978   4.699  0.6656 -0.2068 -0.7210
 6119SOL    HW119458   4.579   6.938   4.612 -1.8558  0.2317 -1.0384
 6119SOL    HW219459   4.485   6.984   4.721  1.1895  0.9576  1.4278
 6120SOL     OW19460   6.463   7.730   6.734 -0.0636  0.0960  0.0083
 6120SOL    HW119461   6.535   7.755   6.675  0.4576 -3.0779 -0.8949
 6120SOL    HW219462   6.391   7.788   6.710  0.5660 -0.1680 -2.8981
 6121SOL     OW19463   3.281   2.167   3.173  0.6131  0.1046  0.1658
 6121SOL    HW119464   3.297   2.170   3.267 -0.7205  1.2435  0.3982
 6121SOL    HW219465   3.288   2.258   3.144  1.5053 -0.2862 -0.9542
 6122SOL     OW19466   2.032   1.824   3.113 -0.8873  0.2784 -0.2114
 6122SOL    HW119467   2.032   1.840   3.018  0.0048  0.6045 -0.1604
 6122SOL    HW219468   2.117   1.785   3.131 -0.8501  0.6802  0.5301
 6123SOL     OW19469   1.416   6.102   2.110  0.2879  0.6004  0.5463
 6123SOL    HW119470   1.340   6.045   2.118  0.3658  0.5526  0.9567
 6123SOL    HW219471   1.440   6.098   2.018  0.8828 -0.7784  0.7488
 6124SOL     OW19472   8.478   7.469   8.445 -0.1747  0.2695  0.0378
 6124SOL    HW119473   8.557   7.417   8.438 -0.2221  0.3601 -1.5798
 6124SOL    HW219474   8.508   7.560   8.436 -0.3664  0.3486  0.2031
 6125SOL     OW19475   2.289   4.837   4.562  0.0849  0.0135  0.0269
 6125SOL    HW119476   2.362   4.776   4.553  0.5597  0.1437  2.4212
 6125SOL    HW219477   2.250   4.817   4.646 -1.3213  1.3751 -0.2480
 6126SOL     OW19478   6.961   7.026   3.943  0.3269 -0.7413  0.4044
 6126SOL    HW119479   7.057   7.024   3.941  0.3501 -1.5213  1.5855
 6126SOL    HW219480   6.939   7.030   4.036 -0.7963 -1.1928  0.1697
 6127SOL     OW19481   1.290   3.685   2.248  0.2870 -0.2578  0.5813
 6127SOL    HW119482   1.380   3.669   2.275 -0.1545 -1.7196  1.3105
 6127SOL    HW219483   1.295   3.761   2.190  1.6704  1.1159  2.3815
 6128SOL     OW19484   5.385   6.169   8.853  0.5182 -0.1099 -0.4152
 6128SOL    HW119485   5.470   6.128   8.837  0.6852  0.3348 -0.7046
 6128SOL    HW219486   5.371   6.225   8.776 -0.6433 -1.1705 -1.0041
 6129SOL     OW19487   7.649   2.373   0.580 -0.4061 -1.0179 -0.9863
 6129SOL    HW119488   7.683   2.432   0.514  1.5911 -0.3608  0.5414
 6129SOL    HW219489   7.568   2.415   0.611  0.4294  0.4167 -0.6631
 6130SOL     OW19490   9.084   5.921   7.636 -0.1459 -0.3806  0.2413
 6130SOL    HW119491   9.159   5.861   7.631  0.2390  0.1024  0.1703
 6130SOL    HW219492   9.100   5.985   7.567 -2.0591 -1.8684 -1.7439
 6131SOL     OW19493   2.127   3.498   6.874 -0.2712  0.0321 -0.2514
 6131SOL    HW119494   2.051   3.493   6.933  0.7229 -0.0903  1.0626
 6131SOL    HW219495   2.201   3.518   6.932  0.6337  0.6105 -1.5672
 6132SOL     OW19496   6.086   2.975   5.936  0.4786  0.1866  0.4028
 6132SOL    HW119497   6.077   2.895   5.884 -2.1995 -0.1394  1.2083
 6132SOL    HW219498   6.062   3.045   5.875 -0.3384  0.0306  0.5289
 6133SOL     OW19499   4.150   0.522   5.676  0.0977 -0.1559 -0.1338
 6133SOL    HW119500   4.077   0.489   5.624 -0.3015  0.6153 -0.0846
 6133SOL    HW219501   4.110   0.555   5.756  0.5468 -0.1159  0.0767
 6134SOL     OW19502   0.239   4.644   5.688 -0.0880  0.9360 -0.5331
 6134SOL    HW119503   0.243   4.711   5.756  1.3343  0.2362  0.1248
 6134SOL    HW219504   0.178   4.578   5.723 -0.1333  1.0522 -0.3898
 6135SOL     OW19505   7.611   1.964   3.213  0.4234  0.7293  0.4015
 6135SOL    HW119506   7.677   1.898   3.191 -0.8589 -1.2032  1.9368
 6135SOL    HW219507   7.641   2.002   3.295  0.6214  1.3028  0.0666
 6136SOL     OW19508   8.523   6.201   6.185  0.0197 -0.1789  0.8319
 6136SOL    HW119509   8.549   6.156   6.265  1.7607  0.6047  0.7516
 6136SOL    HW219510   8.576   6.161   6.116 -1.1294 -0.5330  0.1153
 6137SOL     OW19511   5.977   2.015   4.463  0.1798  0.1438 -0.7991
 6137SOL    HW119512   5.979   1.996   4.369  2.4800  1.0724 -1.0123
 6137SOL    HW219513   6.069   2.024   4.487 -0.4426  2.2732  1.0650
 6138SOL     OW19514   2.310   0.293   8.631 -0.2583 -0.6193  0.3556
 6138SOL    HW119515   2.326   0.335   8.546  0.1088  1.5146  1.4011
 6138SOL    HW219516   2.253   0.356   8.678 -1.5373 -2.3420  1.2337
 6139SOL     OW19517   8.062   6.635   7.463  0.1169  0.3247 -0.3178
 6139SOL    HW119518   8.044   6.567   7.527  0.4330  0.2641 -0.2948
 6139SOL    HW219519   8.011   6.710   7.493  2.1029  1.1011  1.3719
 6140SOL     OW19520   2.948   4.133   0.085  0.0234  0.0496 -0.0021
 6140SOL    HW119521   3.020   4.125   0.023  0.4484  2.3107  0.1333
 6140SOL    HW219522   2.870   4.112   0.034  0.4094  1.4567 -1.2007
 6141SOL     OW19523   5.530   4.881   2.495 -0.3879  0.2168  0.0815
 6141SOL    HW119524   5.485   4.937   2.558  0.7662  0.5538  0.6382
 6141SOL    HW219525   5.532   4.933   2.415 -1.3994 -0.0005 -0.0985
 6142SOL     OW19526   5.004   3.660   4.558 -0.1354  0.7492 -0.5006
 6142SOL    HW119527   4.979   3.718   4.485 -0.4409  0.5053 -0.5898
 6142SOL    HW219528   5.081   3.703   4.596  1.1074 -0.0000 -2.0365
 6143SOL     OW19529   1.313   3.334   4.222  0.1869  0.4739  0.1956
 6143SOL    HW119530   1.228   3.323   4.264 -0.2295 -0.8535 -0.9236
 6143SOL    HW219531   1.335   3.426   4.236 -2.1048  1.2349 -0.6701
 6144SOL     OW19532   8.236   6.347   1.060 -0.5159 -0.1267 -0.5600
 6144SOL    HW119533   8.273   6.433   1.080 -1.2907  0.2412 -0.6588
 6144SOL    HW219534   8.296   6.309   0.996  1.1960 -0.7019  1.2893
 6145SOL     OW19535   5.936   5.388   4.644  0.0848 -0.3159 -0.5323
 6145SOL    HW119536   5.847   5.386   4.608 -0.1297  0.1939 -0.0277
 6145SOL    HW219537   5.925   5.377   4.738  0.5402  0.0087 -0.4370
 6146SOL     OW19538   1.311   2.715   2.396  0.9259  0.2621  0.1813
 6146SOL    HW119539   1.267   2.798   2.417  1.3257  0.0040  2.2504
 6146SOL    HW219540   1.395   2.720   2.442  2.3672  0.0041 -2.2665
 6147SOL     OW19541   4.726   0.356   6.332  0.0459 -0.1584  0.2342
 6147SOL    HW119542   4.728   0.411   6.410 -2.3216  0.0991  0.2104
 6147SOL    HW219543   4.818   0.340   6.310  0.8085  2.6141  1.0500
 6148SOL     OW19544   8.858   0.661   3.510  0.1774 -0.1304  0.0572
 6148SOL    HW119545   8.848   0.648   3.605  0.5103 -0.5217  0.0427
 6148SOL    HW219546   8.840   0.575   3.472  4.4229 -1.2345  0.1037
 6149SOL     OW19547   7.169   6.353   2.790 -0.6518  0.0430 -0.3074
 6149SOL    HW119548   7.146   6.388   2.704 -2.0846  1.8397  0.7145
 6149SOL    HW219549   7.138   6.263   2.789  2.2363 -1.0782 -2.7061
 6150SOL     OW19550   2.008   9.102   4.601  0.0229 -0.1003  0.1770
 6150SOL    HW119551   1.941   9.098   4.669 -0.5463  0.1239 -0.3615
 6150SOL    HW219552   2.045   9.013   4.598  0.6157  0.1019  1.3287
 6151SOL     OW19553   8.249   7.990   0.387  0.2295 -0.0361  0.3749
 6151SOL    HW119554   8.225   8.083   0.384 -1.6819 -0.3736  2.1140
 6151SOL    HW219555   8.241   7.960   0.297 -0.5857  1.1842  0.0121
 6152SOL     OW19556   3.346   6.138   6.376 -0.2112 -0.0143  0.1271
 6152SOL    HW119557   3.439   6.146   6.395 -0.3648  1.4210  0.3093
 6152SOL    HW219558   3.325   6.047   6.399  1.2730 -0.5572 -0.5481
 6153SOL     OW19559   5.145   7.015   1.464 -0.2665 -0.4874 -0.1703
 6153SOL    HW119560   5.167   6.962   1.388  1.7386 -0.7688  0.5549
 6153SOL    HW219561   5.135   6.951   1.535  2.4282 -0.0000  0.7709
 6154SOL     OW19562   0.848   7.293   3.197 -0.5026  0.2330  0.4326
 6154SOL    HW119563   0.752   7.289   3.188 -0.3142 -1.9911 -1.7620
 6154SOL    HW219564   0.878   7.318   3.110  0.9962 -2.2272  0.1796
 6155SOL     OW19565   6.098   0.398   5.953  0.2820 -0.2068  0.4680
 6155SOL    HW119566   6.154   0.333   5.910  1.0348 -0.1503  1.3109
 6155SOL    HW219567   6.086   0.363   6.042 -2.3363 -1.0112 -0.1085
 6156SOL     OW19568   6.650   5.808   3.362 -0.0648  0.2645  0.4392
 6156SOL    HW119569   6.571   5.767   3.397  0.3822  0.2509  1.4498
 6156SOL    HW219570   6.621   5.896   3.334 -0.5273  0.0929  0.3693
 6157SOL     OW19571   4.386   1.471   8.945 -0.3007  0.0664 -0.0492
 6157SOL    HW119572   4.302   1.430   8.925 -0.6550 -0.4117  2.1794
 6157SOL    HW219573   4.451   1.405   8.922 -0.7269 -0.7197  0.9230
 6158SOL     OW19574   0.334   4.292   2.526  0.2032  0.0157  0.3467
 6158SOL    HW119575   0.371   4.291   2.438  0.3511 -3.5086  0.2956
 6158SOL    HW219576   0.409   4.304   2.584  0.4951 -0.3966  0.0570
 6159SOL     OW19577   1.626   7.646   4.322  0.0988  0.0689  0.1543
 6159SOL    HW119578   1.650   7.731   4.357 -1.2423  0.7291 -0.4614
 6159SOL    HW219579   1.695   7.626   4.258 -0.6146  1.6693 -1.1903
 6160SOL     OW19580   6.515   0.743   5.584 -0.5295  0.1958  0.0203
 6160SOL    HW119581   6.444   0.783   5.534 -0.4801 -0.4679 -0.6082
 6160SOL    HW219582   6.580   0.719   5.517  1.6520  3.3857  0.7806
 6161SOL     OW19583   1.919   7.738   3.698  0.2335  0.2908  0.2395
 6161SOL    HW119584   1.949   7.715   3.610 -1.5816  3.5093 -1.4083
 6161SOL    HW219585   1.999   7.756   3.746  1.2192  0.6458 -1.4431
 6162SOL     OW19586   6.754   8.525   4.221 -0.2834  0.5184 -0.0434
 6162SOL    HW119587   6.791   8.551   4.137 -0.3025  1.2435  0.1582
 6162SOL    HW219588   6.804   8.576   4.286 -0.2893 -0.0041  0.3815
 6163SOL     OW19589   6.360   4.821   4.351  0.0349  0.3218  0.1348
 6163SOL    HW119590   6.433   4.832   4.412  0.7548  0.0476 -0.6621
 6163SOL    HW219591   6.345   4.726   4.349 -2.2244  0.4842  2.4185
 6164SOL     OW19592   1.763   8.210   3.095 -0.7943  0.0671  0.1040
 6164SOL    HW119593   1.681   8.177   3.131 -0.5063  2.4017  3.3829
 6164SOL    HW219594   1.742   8.296   3.062 -0.0664 -0.2081 -1.1247
 6165SOL     OW19595   6.582   1.536   7.506 -0.0801  0.2021  0.0227
 6165SOL    HW119596   6.658   1.580   7.544 -0.5325  0.4115  0.7124
 6165SOL    HW219597   6.547   1.599   7.443  1.5929 -0.7599 -1.9845
 6166SOL     OW19598   4.366   6.079   4.041 -0.6146 -0.2149 -0.5913
 6166SOL    HW119599   4.455   6.052   4.019 -0.8603 -1.0709 -0.5767
 6166SOL    HW219600   4.323   6.094   3.956  0.0799  2.1285 -0.5996
 6167SOL     OW19601   7.368   8.997   2.797 -0.1950 -0.1984 -0.2072
 6167SOL    HW119602   7.360   8.934   2.725 -2.5797  0.0325 -0.2186
 6167SOL    HW219603   7.410   9.073   2.757  0.6386 -0.9287 -0.7594
 6168SOL     OW19604   8.409   1.696   3.249 -0.5320  0.2245  0.0782
 6168SOL    HW119605   8.453   1.701   3.164  0.0744 -2.2027  0.1777
 6168SOL    HW219606   8.352   1.773   3.251  0.8184  1.3578 -1.7104
 6169SOL     OW19607   9.047   3.535   8.079  0.0204  0.0764 -0.7697
 6169SOL    HW119608   9.034   3.475   8.005 -0.1235 -1.4016  0.4038
 6169SOL    HW219609   9.139   3.559   8.074  0.4157 -1.2872 -0.5419
 6170SOL     OW19610   5.395   3.580   3.634 -0.2075 -0.0862  0.0435
 6170SOL    HW119611   5.333   3.555   3.566 -0.0275  0.2984 -0.2639
 6170SOL    HW219612   5.373   3.671   3.654 -1.1926 -0.6087  1.5165
 6171SOL     OW19613   1.594   3.231   1.368  0.2655 -0.4236 -0.1806
 6171SOL    HW119614   1.633   3.205   1.452 -0.1769 -0.3819  0.0426
 6171SOL    HW219615   1.664   3.279   1.324  0.4677 -0.3425  0.2167
 6172SOL     OW19616   2.240   3.252   4.938 -0.0609  0.2028  0.2991
 6172SOL    HW119617   2.324   3.244   4.984 -0.0382 -0.8246  0.1036
 6172SOL    HW219618   2.183   3.189   4.982 -0.6477  0.6661  0.2212
 6173SOL     OW19619   2.139   8.087   7.525 -0.0899 -0.3835 -0.3684
 6173SOL    HW119620   2.185   8.102   7.443 -0.2641 -0.6802 -0.5204
 6173SOL    HW219621   2.100   8.171   7.547 -2.9940 -1.0692 -2.3725
 6174SOL     OW19622   8.039   2.210   3.778  0.0548 -0.0053 -0.1329
 6174SOL    HW119623   7.999   2.134   3.821 -0.5644  0.1721 -0.3918
 6174SOL    HW219624   7.983   2.227   3.703  2.0230 -1.3305 -2.0069
 6175SOL     OW19625   8.978   7.603   1.299 -0.0235 -0.3638  0.3643
 6175SOL    HW119626   9.061   7.616   1.345 -0.0749  0.8829  0.1392
 6175SOL    HW219627   8.914   7.650   1.352 -0.4409 -0.6061  0.0843
 6176SOL     OW19628   4.620   5.777   6.095  0.3305 -0.2908  0.1954
 6176SOL    HW119629   4.598   5.825   6.015  2.2025 -0.1892 -0.3196
 6176SOL    HW219630   4.574   5.824   6.164  0.3133  0.8809 -0.5799
 6177SOL     OW19631   2.257   8.541   1.898 -0.0552 -0.0873  0.0993
 6177SOL    HW119632   2.240   8.510   1.986  0.3670  1.5655  0.8095
 6177SOL    HW219633   2.170   8.566   1.864 -0.2560 -1.0110 -0.0874
 6178SOL     OW19634   3.502   6.395   8.658 -0.0305  0.2438 -0.7594
 6178SOL    HW119635   3.498   6.481   8.615  0.8856  0.1077 -1.1286
 6178SOL    HW219636   3.448   6.339   8.603 -0.9051  0.6468 -0.3371
 6179SOL     OW19637   8.729   7.577   6.877 -0.2203  0.3187  0.3860
 6179SOL    HW119638   8.753   7.597   6.787 -1.2066 -0.9801 -0.1906
 6179SOL    HW219639   8.804   7.527   6.911  0.4600  1.4074  0.5416
 6180SOL     OW19640   6.102   8.575   1.976  0.0186 -0.0999 -0.4061
 6180SOL    HW119641   6.012   8.583   1.946  0.1110  1.2740 -0.3848
 6180SOL    HW219642   6.149   8.537   1.902 -0.2331  0.9693 -1.1371
 6181SOL     OW19643   7.614   3.388   0.688 -0.5091 -0.3077 -0.3529
 6181SOL    HW119644   7.674   3.443   0.738  0.7672 -1.8277 -0.1528
 6181SOL    HW219645   7.531   3.393   0.737  0.2062 -0.3191  0.9033
 6182SOL     OW19646   8.157   1.846   5.764  0.4987  0.4000 -0.4587
 6182SOL    HW119647   8.177   1.770   5.710 -1.0442  0.5045 -1.2346
 6182SOL    HW219648   8.225   1.847   5.831  0.4102 -1.8173 -0.2752
 6183SOL     OW19649   4.242   1.408   0.552 -0.0569 -0.2291 -0.5115
 6183SOL    HW119650   4.316   1.467   0.537  1.3021 -0.3366  4.2057
 6183SOL    HW219651   4.262   1.331   0.499  2.3004  0.4441 -0.7144
 6184SOL     OW19652   7.502   2.048   5.021 -0.2678 -0.1725  0.8187
 6184SOL    HW119653   7.407   2.061   5.027 -0.3460 -0.3714  0.1269
 6184SOL    HW219654   7.516   1.960   5.057 -0.3200 -0.0796  1.0725
 6185SOL     OW19655   4.436   8.003   7.537 -0.2644 -1.2803 -0.0364
 6185SOL    HW119656   4.363   8.030   7.594  1.1184  0.4790  1.0105
 6185SOL    HW219657   4.450   7.911   7.558 -1.2306 -1.2451  0.8308
 6186SOL     OW19658   7.340   4.060   4.896  0.2895  0.2161  0.5612
 6186SOL    HW119659   7.245   4.069   4.895  0.4138  1.9271  0.7290
 6186SOL    HW219660   7.356   3.968   4.875 -1.3848 -0.0264  0.2159
 6187SOL     OW19661   5.556   0.236   2.362 -0.0385 -0.1285  0.2484
 6187SOL    HW119662   5.488   0.196   2.307  1.1707 -1.0130 -0.6429
 6187SOL    HW219663   5.582   0.314   2.313 -1.1916  0.8704  1.1592
 6188SOL     OW19664   7.918   5.446   4.258 -0.5742  0.4878 -0.6116
 6188SOL    HW119665   7.870   5.511   4.309  0.0597  0.2651  0.2840
 6188SOL    HW219666   8.005   5.484   4.245 -0.3441  0.0118 -0.4765
 6189SOL     OW19667   8.956   0.686   9.129 -0.3692  0.4183 -0.2239
 6189SOL    HW119668   8.879   0.639   9.099  0.0625  0.6608 -1.8053
 6189SOL    HW219669   9.006   0.703   9.050  1.3236  0.2692  0.7697
 6190SOL     OW19670   1.343   0.570   2.535  0.1644  0.0637  0.4867
 6190SOL    HW119671   1.409   0.635   2.561  1.8828 -1.1896 -0.5370
 6190SOL    HW219672   1.386   0.486   2.548 -1.3069 -0.8172 -0.0918
 6191SOL     OW19673   8.105   1.640   5.384 -0.0277  0.3665 -0.5180
 6191SOL    HW119674   8.024   1.589   5.379  1.7488 -2.7006 -0.8135
 6191SOL    HW219675   8.128   1.638   5.477 -1.0684  2.7192 -0.1497
 6192SOL     OW19676   3.758   1.072   2.809  0.3507 -0.1081  0.3594
 6192SOL    HW119677   3.830   1.132   2.792 -1.0009  1.5889  0.4415
 6192SOL    HW219678   3.749   1.071   2.905 -0.2448  0.3375  0.3151
 6193SOL     OW19679   2.650   6.416   3.509  0.4710  0.7176 -0.2680
 6193SOL    HW119680   2.567   6.448   3.474 -0.1563 -0.4721  0.0987
 6193SOL    HW219681   2.715   6.439   3.442 -0.4274  0.1271 -1.3702
 6194SOL     OW19682   3.630   5.660   1.671  0.6584  0.5210 -0.3903
 6194SOL    HW119683   3.646   5.576   1.628  1.6024  0.1398  0.6639
 6194SOL    HW219684   3.716   5.702   1.673  0.6243  0.5714  0.9922
 6195SOL     OW19685   3.307   6.399   4.487 -0.0157  0.4145 -0.3830
 6195SOL    HW119686   3.309   6.303   4.483  1.4899  0.4435 -1.1470
 6195SOL    HW219687   3.393   6.426   4.454 -0.5532  2.0422 -0.5376
 6196SOL     OW19688   5.525   3.079   8.403 -0.4330  0.3369  0.1912
 6196SOL    HW119689   5.506   3.139   8.331  2.0557  1.1375  0.1034
 6196SOL    HW219690   5.550   2.997   8.360 -0.3441  0.3560  0.2079
 6197SOL     OW19691   5.277   6.526   0.191  0.2484  0.0392  0.3823
 6197SOL    HW119692   5.191   6.505   0.154  0.3436 -0.8153  0.6431
 6197SOL    HW219693   5.291   6.618   0.166 -0.8436  0.2674  0.5379
 6198SOL     OW19694   3.460   0.412   1.698 -0.0084  0.3139  0.0960
 6198SOL    HW119695   3.469   0.356   1.621  0.5323  0.5080  0.0143
 6198SOL    HW219696   3.427   0.495   1.665 -1.2550 -0.0862  0.2746
 6199SOL     OW19697   1.793   3.761   6.658  0.2033 -0.5504  0.5991
 6199SOL    HW119698   1.703   3.730   6.666 -0.1455 -0.0408 -0.9680
 6199SOL    HW219699   1.823   3.771   6.749 -2.1900  1.7617  1.2670
 6200SOL     OW19700   8.547   7.388   6.740  0.0344 -0.2115  0.1057
 6200SOL    HW119701   8.507   7.426   6.661 -0.4936 -0.5602  0.2004
 6200SOL    HW219702   8.603   7.457   6.774  1.7760 -0.6918 -1.6289
 6201SOL     OW19703   5.440   3.502   8.082  0.0641  0.1302 -0.5285
 6201SOL    HW119704   5.345   3.507   8.091  0.0354 -0.4633 -0.4776
 6201SOL    HW219705   5.455   3.512   7.988 -0.0324  0.4874 -0.5051
 6202SOL     OW19706   8.718   4.385   8.341 -0.0825  0.2931 -0.0046
 6202SOL    HW119707   8.623   4.370   8.338 -0.1743  0.9021 -0.2917
 6202SOL    HW219708   8.750   4.319   8.402 -0.7391  0.3072  0.3685
 6203SOL     OW19709   1.597   8.517   3.424  0.5745  0.2178  0.2984
 6203SOL    HW119710   1.588   8.424   3.404  1.4157 -0.5220  3.0059
 6203SOL    HW219711   1.546   8.530   3.504  0.3104  2.1562 -0.1243
 6204SOL     OW19712   0.699   2.437   5.638 -0.1450  0.5116  0.2427
 6204SOL    HW119713   0.742   2.504   5.586 -0.0116  0.7339  0.6328
 6204SOL    HW219714   0.767   2.373   5.657 -0.6614 -0.6892 -1.6302
 6205SOL     OW19715   6.575   1.226   4.287 -0.5184 -0.0078  0.0103
 6205SOL    HW119716   6.537   1.313   4.284  0.6810  0.5070 -1.2202
 6205SOL    HW219717   6.499   1.167   4.292 -1.3607  1.0568  0.2031
 6206SOL     OW19718   3.945   0.309   1.471 -0.3864 -0.0495 -0.2206
 6206SOL    HW119719   4.041   0.314   1.471 -0.3039 -1.1642  0.8058
 6206SOL    HW219720   3.917   0.397   1.496  0.4341 -0.1203  1.0662
 6207SOL     OW19721   5.256   8.716   0.118 -0.1214  0.0436  0.2267
 6207SOL    HW119722   5.287   8.805   0.134  0.1151 -0.2940  1.7960
 6207SOL    HW219723   5.174   8.710   0.168 -1.4470  0.1091 -1.7976
 6208SOL     OW19724   8.357   3.786   6.066  0.3308  0.0401 -0.7621
 6208SOL    HW119725   8.451   3.791   6.087  0.2148  0.6830 -0.3366
 6208SOL    HW219726   8.316   3.764   6.149  0.0733  0.1803 -0.8514
 6209SOL     OW19727   8.510   2.803   0.736  0.1074  0.2225  0.0006
 6209SOL    HW119728   8.491   2.726   0.790  0.6700 -0.8629 -1.2895
 6209SOL    HW219729   8.605   2.800   0.722 -0.0672  0.2461 -1.3512
 6210SOL     OW19730   4.430   6.591   0.126  0.4885  0.3274  0.4811
 6210SOL    HW119731   4.410   6.617   0.036 -1.9036 -0.8653  0.6006
 6210SOL    HW219732   4.345   6.592   0.171  1.7985  2.4663  3.2146
 6211SOL     OW19733   8.226   6.948   8.045 -0.0436  0.3927  0.4985
 6211SOL    HW119734   8.216   6.943   7.950  1.4148 -0.5443  0.3586
 6211SOL    HW219735   8.315   6.982   8.057  0.5900 -1.4610  1.4810
 6212SOL     OW19736   6.068   2.917   7.065  0.6990 -0.4094  0.4978
 6212SOL    HW119737   6.050   2.922   7.159 -0.1685  0.2266  0.3003
 6212SOL    HW219738   6.080   3.007   7.038  0.5183 -0.5580 -0.0830
 6213SOL     OW19739   4.747   0.390   5.403  0.2476 -0.2744 -0.2590
 6213SOL    HW119740   4.705   0.432   5.328  0.8700  0.5821 -0.1412
 6213SOL    HW219741   4.805   0.457   5.439  1.1117 -1.1637  0.0638
 6214SOL     OW19742   4.852   2.683   3.884 -0.1612  0.2467  0.1471
 6214SOL    HW119743   4.913   2.729   3.942 -0.1203  0.5045 -0.1007
 6214SOL    HW219744   4.774   2.669   3.938 -0.6638  1.7447 -0.1503
 6215SOL     OW19745   3.382   8.738   8.451  0.1332  0.4935 -0.0157
 6215SOL    HW119746   3.295   8.713   8.419  0.6034  1.3321 -2.1240
 6215SOL    HW219747   3.368   8.825   8.489  0.1956  1.0871 -1.2945
 6216SOL     OW19748   7.051   0.676   6.609 -0.4120 -0.1359 -0.3308
 6216SOL    HW119749   7.102   0.612   6.660 -2.3542 -0.2247  1.6690
 6216SOL    HW219750   7.041   0.635   6.523  1.9431 -0.5694 -0.4584
 6217SOL     OW19751   0.815   0.350   4.952 -0.5346  0.3430  0.2781
 6217SOL    HW119752   0.733   0.354   5.001 -1.9386  0.3293 -1.9769
 6217SOL    HW219753   0.814   0.264   4.910  0.5291  0.4317  0.0399
 6218SOL     OW19754   0.783   1.001   2.819  0.3901 -1.0114 -0.0180
 6218SOL    HW119755   0.781   0.947   2.898 -0.2053 -0.2109  0.5283
 6218SOL    HW219756   0.693   1.001   2.787 -0.2297  1.7089  1.4522
 6219SOL     OW19757   2.833   4.631   3.690 -0.0018 -0.2210 -0.1049
 6219SOL    HW119758   2.746   4.670   3.687 -0.5822 -1.4493 -0.0621
 6219SOL    HW219759   2.825   4.559   3.753  1.7968  1.3514  2.1140
 6220SOL     OW19760   4.204   6.533   1.532  0.3541  0.2511 -0.5755
 6220SOL    HW119761   4.297   6.512   1.527  1.0705  1.7011  3.2379
 6220SOL    HW219762   4.169   6.473   1.599 -0.2386  2.7741  1.5522
 6221SOL     OW19763   7.195   1.380   8.056 -0.0987  0.4738  0.4350
 6221SOL    HW119764   7.127   1.314   8.052  1.7323 -1.4849 -2.6808
 6221SOL    HW219765   7.177   1.438   7.982  1.6125 -0.1967 -0.5663
 6222SOL     OW19766   5.626   5.600   6.518  0.1182  0.0978 -0.5573
 6222SOL    HW119767   5.565   5.674   6.519  1.6990  1.4902 -1.8754
 6222SOL    HW219768   5.678   5.612   6.438  1.8293 -1.2765  0.2755
 6223SOL     OW19769   8.287   5.529   0.635  0.4132 -0.2994 -0.0212
 6223SOL    HW119770   8.259   5.445   0.599  1.5821 -0.0248 -1.7416
 6223SOL    HW219771   8.361   5.507   0.691  1.7686 -0.3624 -1.7186
 6224SOL     OW19772   3.293   5.108   2.883  0.0280 -0.4600  0.4973
 6224SOL    HW119773   3.366   5.141   2.831  0.5190 -0.6114  1.0687
 6224SOL    HW219774   3.218   5.159   2.855  0.7382  1.1255  1.3119
 6225SOL     OW19775   8.943   1.462   1.091 -0.0823  0.1738 -0.0559
 6225SOL    HW119776   9.017   1.519   1.111  0.3624  0.0394 -1.2169
 6225SOL    HW219777   8.980   1.374   1.090 -0.6877 -0.1201  1.3389
 6226SOL     OW19778   8.972   1.943   5.742 -0.8672  0.1536  0.7747
 6226SOL    HW119779   8.927   2.021   5.709  0.9152  1.0816  0.4544
 6226SOL    HW219780   8.939   1.933   5.832 -3.0315 -0.2732 -0.0124
 6227SOL     OW19781   8.756   5.132   8.266 -0.6764  0.2638  0.1112
 6227SOL    HW119782   8.782   5.042   8.283 -0.7118  0.0332 -1.0029
 6227SOL    HW219783   8.694   5.153   8.336  1.2211  0.2858  1.8525
 6228SOL     OW19784   1.233   8.758   6.717 -0.6511  0.9514  0.1986
 6228SOL    HW119785   1.139   8.772   6.713 -0.9537 -0.9581 -0.6293
 6228SOL    HW219786   1.248   8.722   6.804 -0.9877 -0.3306 -0.2413
 6229SOL     OW19787   2.152   1.129   5.587  0.2786 -0.1117  0.0582
 6229SOL    HW119788   2.133   1.208   5.638  1.5511  0.1421  0.1774
 6229SOL    HW219789   2.230   1.151   5.536 -2.2654  0.5411 -3.9990
 6230SOL     OW19790   2.167   1.286   3.635  0.5750  0.0129  0.6766
 6230SOL    HW119791   2.100   1.340   3.676  1.2275  0.1644  1.6011
 6230SOL    HW219792   2.215   1.346   3.578  1.4060  0.4923  1.8294
 6231SOL     OW19793   1.733   8.522   1.083  0.0964  0.2868  0.1192
 6231SOL    HW119794   1.700   8.432   1.081 -0.9026  0.6167  0.9314
 6231SOL    HW219795   1.675   8.568   1.144  0.2346  1.6327 -0.7139
 6232SOL     OW19796   2.029   0.918   0.514 -0.4868 -0.0707 -0.0174
 6232SOL    HW119797   2.068   1.005   0.518 -0.2730 -0.1855  0.4829
 6232SOL    HW219798   1.966   0.917   0.586  0.8033 -0.9465  1.1360
 6233SOL     OW19799   5.483   2.520   7.032 -0.9561 -0.1314  0.0484
 6233SOL    HW119800   5.401   2.551   7.070 -0.7243 -0.5290  0.9149
 6233SOL    HW219801   5.473   2.531   6.938 -1.3741  1.3245  0.2516
 6234SOL     OW19802   8.236   3.932   2.571  0.2411 -0.3652 -0.3994
 6234SOL    HW119803   8.212   3.840   2.557 -1.7420 -0.3296  1.9685
 6234SOL    HW219804   8.160   3.982   2.540  0.6236  0.3612 -0.1966
 6235SOL     OW19805   5.381   8.818   3.131  0.8174 -0.4226 -0.2359
 6235SOL    HW119806   5.466   8.825   3.087  0.7153  1.5115 -0.2169
 6235SOL    HW219807   5.392   8.867   3.212 -0.2119 -0.4359 -0.0719
 6236SOL     OW19808   3.055   3.437   1.658 -0.0479 -0.4430  0.3769
 6236SOL    HW119809   3.145   3.411   1.642 -0.0130 -1.6682  2.2805
 6236SOL    HW219810   3.004   3.388   1.593  0.4912 -1.3874  0.6486
 6237SOL     OW19811   6.202   7.750   6.086  0.0935 -0.5968 -0.3022
 6237SOL    HW119812   6.175   7.823   6.031  3.6411  0.1632 -1.3005
 6237SOL    HW219813   6.264   7.701   6.032 -0.9797 -3.5033  0.9157
 6238SOL     OW19814   6.332   8.988   7.238  0.2865 -0.2427  0.4617
 6238SOL    HW119815   6.245   9.019   7.265  0.7425 -0.1432  1.9077
 6238SOL    HW219816   6.368   8.946   7.317  1.4923 -0.4100 -0.1547
 6239SOL     OW19817   4.767   1.968   8.087  0.4491 -0.0378  0.1244
 6239SOL    HW119818   4.694   1.989   8.029  1.2667  2.3153 -0.1465
 6239SOL    HW219819   4.750   1.878   8.116 -1.6820 -0.1074 -1.1812
 6240SOL     OW19820   4.897   6.250   8.175  0.2970  0.1429  0.1253
 6240SOL    HW119821   4.904   6.230   8.268  2.4638 -0.2151 -0.0602
 6240SOL    HW219822   4.970   6.310   8.158 -0.4024  0.6440 -1.2404
 6241SOL     OW19823   3.551   3.495   1.853 -0.2551  0.7087 -0.1468
 6241SOL    HW119824   3.490   3.568   1.862 -1.8890 -0.7059  1.0493
 6241SOL    HW219825   3.571   3.491   1.759 -0.7337  2.1892 -0.3285
 6242SOL     OW19826   6.668   2.339   2.287 -0.2965 -0.5740 -0.0569
 6242SOL    HW119827   6.754   2.354   2.327 -1.1904  2.0216  1.1153
 6242SOL    HW219828   6.621   2.286   2.352 -0.3931  0.1372  0.4604
 6243SOL     OW19829   0.818   2.176   5.295  0.0255  0.0219  0.0799
 6243SOL    HW119830   0.848   2.188   5.205 -1.0489  0.3199 -0.2568
 6243SOL    HW219831   0.840   2.259   5.338 -0.0921  0.1484 -0.0991
 6244SOL     OW19832   2.861   0.198   1.941 -0.5033  0.4860  0.2751
 6244SOL    HW119833   2.952   0.178   1.918 -0.9532 -1.6822  0.2229
 6244SOL    HW219834   2.858   0.191   2.037 -1.4053 -3.6291  0.1159
 6245SOL     OW19835   0.966   0.800   3.863 -0.6678  0.2668 -0.2586
 6245SOL    HW119836   1.004   0.794   3.951 -0.9329 -0.3031 -0.1822
 6245SOL    HW219837   1.042   0.811   3.806 -0.3229 -1.3332 -0.1543
 6246SOL     OW19838   5.472   1.236   1.972  0.3218 -0.3439 -0.4680
 6246SOL    HW119839   5.514   1.166   2.022  0.5134 -0.1779 -0.3964
 6246SOL    HW219840   5.447   1.195   1.889  2.8969  0.1717 -1.5640
 6247SOL     OW19841   2.948   3.646   7.271 -0.3874 -0.2142  0.0328
 6247SOL    HW119842   2.939   3.647   7.176  0.7712 -1.8183 -0.1434
 6247SOL    HW219843   2.919   3.559   7.297 -1.6744  0.5450  1.3054
 6248SOL     OW19844   1.497   8.705   6.290 -0.0903 -0.6204 -0.3716
 6248SOL    HW119845   1.531   8.714   6.201 -0.8262  0.0986 -0.5900
 6248SOL    HW219846   1.560   8.753   6.344  0.2515 -0.8910 -0.5293
 6249SOL     OW19847   2.820   7.501   8.518  0.0809  0.3569  0.7174
 6249SOL    HW119848   2.729   7.533   8.522  0.1208  0.4039  1.2368
 6249SOL    HW219849   2.825   7.455   8.434 -0.5850 -0.1176  0.9254
 6250SOL     OW19850   3.993   3.518   2.752  0.1884 -0.1380 -0.4023
 6250SOL    HW119851   3.994   3.521   2.848 -0.7821 -3.3955 -0.1839
 6250SOL    HW219852   4.025   3.431   2.730 -0.8900  0.0250 -3.0246
 6251SOL     OW19853   1.480   6.081   6.046 -0.2921  0.3414  0.4388
 6251SOL    HW119854   1.501   6.009   5.987 -0.1280  0.6482  0.1188
 6251SOL    HW219855   1.490   6.160   5.992 -0.9851  0.5711  0.6329
 6252SOL     OW19856   3.672   1.345   3.532 -0.4277 -0.5272  0.0772
 6252SOL    HW119857   3.601   1.397   3.570 -0.4617 -1.1260  0.8448
 6252SOL    HW219858   3.658   1.257   3.566  0.6178 -0.6731  0.1537
 6253SOL     OW19859   7.873   2.755   6.045  0.5591 -0.3601 -0.0434
 6253SOL    HW119860   7.969   2.754   6.043  0.5573 -1.8915 -1.3060
 6253SOL    HW219861   7.849   2.668   6.075 -0.4417 -0.3687 -0.8330
 6254SOL     OW19862   0.136   3.185   5.632  0.1652 -0.0713 -0.4344
 6254SOL    HW119863   0.185   3.169   5.712  2.4209 -0.4956 -1.8311
 6254SOL    HW219864   0.195   3.160   5.561 -2.0398 -0.5183 -2.2507
 6255SOL     OW19865   5.777   3.720   7.262 -0.2906 -0.6366  0.3148
 6255SOL    HW119866   5.695   3.759   7.292 -0.1459  0.6514 -0.8425
 6255SOL    HW219867   5.755   3.630   7.242 -1.4125 -0.3313  0.0814
 6256SOL     OW19868   5.166   4.316   6.344 -0.3167  0.3662  0.4087
 6256SOL    HW119869   5.159   4.403   6.384  1.3624  1.8373 -2.1647
 6256SOL    HW219870   5.244   4.321   6.289  0.2757 -3.0794  0.7132
 6257SOL     OW19871   5.254   5.526   0.047  0.1218  0.9805  0.2645
 6257SOL    HW119872   5.233   5.596   0.109 -0.8141  1.8370 -0.9783
 6257SOL    HW219873   5.277   5.452   0.103 -1.4144  1.4835  1.6715
 6258SOL     OW19874   7.357   4.054   5.348  0.0179  0.4820 -0.2032
 6258SOL    HW119875   7.352   4.147   5.324 -0.1029  0.0930 -1.8485
 6258SOL    HW219876   7.270   4.034   5.382 -0.9067  0.3774 -2.4207
 6259SOL     OW19877   8.418   7.133   8.089 -0.1934  0.1810  0.1386
 6259SOL    HW119878   8.435   7.227   8.085 -0.5251  0.2053 -1.0210
 6259SOL    HW219879   8.439   7.109   8.179  1.0516  1.1414  0.1358
 6260SOL     OW19880   4.958   7.612   1.354  0.3385 -0.1173  0.0792
 6260SOL    HW119881   4.864   7.619   1.370 -0.0009 -0.5714 -1.5904
 6260SOL    HW219882   4.992   7.699   1.375 -0.6108  0.3665 -0.3263
 6261SOL     OW19883   6.276   7.279   0.184 -0.2743 -0.4082 -0.2481
 6261SOL    HW119884   6.230   7.324   0.255 -1.3182  1.8477 -2.1815
 6261SOL    HW219885   6.259   7.186   0.199 -1.3060  0.0529  1.8560
 6262SOL     OW19886   7.629   1.717   2.596  0.9118  0.0455  0.4828
 6262SOL    HW119887   7.665   1.629   2.610  0.0645 -0.6950 -1.5557
 6262SOL    HW219888   7.705   1.774   2.588  1.4823 -0.6104  1.1224
 6263SOL     OW19889   7.231   2.259   4.102  0.6285 -0.1988  0.5372
 6263SOL    HW119890   7.150   2.299   4.070  1.1250  1.5857  1.3804
 6263SOL    HW219891   7.246   2.185   4.044 -0.5071  0.6948 -0.9579
 6264SOL     OW19892   6.593   5.970   5.366 -0.3208  0.0807  0.1990
 6264SOL    HW119893   6.595   6.019   5.284  0.1789  0.7293  0.5866
 6264SOL    HW219894   6.685   5.946   5.382 -0.3596  0.2775  0.7457
 6265SOL     OW19895   9.004   4.212   8.773 -0.2191 -0.4221 -0.0258
 6265SOL    HW119896   8.957   4.139   8.814  0.2444 -0.1302  1.0812
 6265SOL    HW219897   9.001   4.282   8.840 -0.1682  0.3717 -0.8348
 6266SOL     OW19898   2.987   8.052   0.619 -0.4477 -0.4237 -1.0528
 6266SOL    HW119899   2.927   7.979   0.628 -1.0259  0.2417  0.9044
 6266SOL    HW219900   2.946   8.109   0.554 -2.2361  0.2522  0.5869
 6267SOL     OW19901   4.666   7.294   0.827 -0.4429  0.7208 -0.4376
 6267SOL    HW119902   4.720   7.242   0.768 -0.2498  0.4450 -0.0212
 6267SOL    HW219903   4.651   7.237   0.902 -3.4705 -0.2497 -1.6094
 6268SOL     OW19904   4.136   4.939   1.035  0.4220  0.3677  0.1712
 6268SOL    HW119905   4.132   4.876   1.107 -2.4328 -0.6599 -0.7200
 6268SOL    HW219906   4.118   5.024   1.076 -1.7872 -0.2795  0.6907
 6269SOL     OW19907   8.995   7.819   6.942 -0.5676 -0.1052 -0.2508
 6269SOL    HW119908   8.983   7.836   7.036 -0.2272  1.7375 -0.4988
 6269SOL    HW219909   9.089   7.804   6.933 -0.4301  0.8181 -0.4340
 6270SOL     OW19910   3.137   3.313   9.023  0.2870 -0.5521 -0.2138
 6270SOL    HW119911   3.097   3.282   9.104 -0.0906  0.2022 -0.1064
 6270SOL    HW219912   3.112   3.405   9.017 -0.4878 -0.8338 -1.6798
 6271SOL     OW19913   0.703   0.062   4.118  0.4388 -0.1890 -0.0038
 6271SOL    HW119914   0.707   0.153   4.089  0.5260  0.1180  0.9691
 6271SOL    HW219915   0.610   0.040   4.115  0.3376  0.1706  0.5044
 6272SOL     OW19916   8.933   7.807   4.576 -0.0165  0.3281 -0.2328
 6272SOL    HW119917   8.878   7.792   4.500  1.8103 -1.9325 -1.2040
 6272SOL    HW219918   8.894   7.753   4.645 -1.0396  1.5551  0.2173
 6273SOL     OW19919   3.159   5.433   0.029 -0.0679 -0.2685  0.3712
 6273SOL    HW119920   3.088   5.450   0.091 -0.6112 -0.3972 -0.2052
 6273SOL    HW219921   3.232   5.402   0.083 -0.3309  0.2118  1.0092
 6274SOL     OW19922   4.403   0.203   7.194 -0.0411  0.2116  0.0735
 6274SOL    HW119923   4.341   0.181   7.263 -1.0307 -2.0704 -1.4241
 6274SOL    HW219924   4.489   0.184   7.231 -0.6008 -1.7252  0.4755
 6275SOL     OW19925   7.860   6.978   0.291 -0.0610 -0.3369  0.1290
 6275SOL    HW119926   7.871   6.883   0.281 -1.6067 -0.3791 -1.6945
 6275SOL    HW219927   7.922   7.015   0.228  0.7069 -0.1038  1.0041
 6276SOL     OW19928   4.456   2.928   7.552  0.7490  0.4824  0.1607
 6276SOL    HW119929   4.436   2.988   7.480 -0.5919 -1.8055 -1.4841
 6276SOL    HW219930   4.381   2.935   7.611  1.3543  1.5626  0.8430
 6277SOL     OW19931   6.776   0.768   3.552  0.0874  0.4797  0.1965
 6277SOL    HW119932   6.725   0.847   3.535 -1.0243 -0.3299 -0.4020
 6277SOL    HW219933   6.807   0.778   3.641 -1.1476  1.0241  0.5940
 6278SOL     OW19934   3.396   8.787   5.607 -0.1063 -0.0909 -0.0810
 6278SOL    HW119935   3.436   8.765   5.522  1.2418 -2.1626  1.0231
 6278SOL    HW219936   3.414   8.881   5.617 -1.2498  0.4932 -2.5219
 6279SOL     OW19937   7.992   2.327   4.762 -0.6561  0.5299 -0.1414
 6279SOL    HW119938   8.011   2.339   4.855  0.9440 -0.5353 -0.3019
 6279SOL    HW219939   8.014   2.235   4.744 -1.4364  0.5709 -1.4713
 6280SOL     OW19940   8.523   0.772   2.956 -0.2890  0.0906  0.1912
 6280SOL    HW119941   8.593   0.749   3.018 -0.8563  0.9512  1.1885
 6280SOL    HW219942   8.514   0.695   2.900 -0.0163 -0.8635  1.4187
 6281SOL     OW19943   5.760   1.068   2.707  0.4193 -0.5711 -0.4939
 6281SOL    HW119944   5.757   1.152   2.753  0.5555  0.5352 -2.3969
 6281SOL    HW219945   5.677   1.063   2.660  0.2424 -1.7186 -0.0880
 6282SOL     OW19946   5.937   3.770   2.581 -0.5050  0.0639  0.0108
 6282SOL    HW119947   5.847   3.772   2.549 -0.5358  0.2705  0.1096
 6282SOL    HW219948   5.984   3.832   2.525 -0.2597 -0.6034 -0.5336
 6283SOL     OW19949   1.624   7.323   4.182  0.5104  1.1667 -0.0062
 6283SOL    HW119950   1.692   7.263   4.149  0.9045  1.1159  0.8867
 6283SOL    HW219951   1.622   7.309   4.276 -0.5482  1.3851  0.0152
 6284SOL     OW19952   7.779   4.851   4.769 -0.0244  0.2586 -0.1746
 6284SOL    HW119953   7.863   4.861   4.724 -0.3855  2.7049 -0.4363
 6284SOL    HW219954   7.786   4.906   4.846 -2.2453  2.7264 -1.5721
 6285SOL     OW19955   5.335   7.822   5.673  0.1855 -0.3410 -0.2002
 6285SOL    HW119956   5.355   7.782   5.758  1.2987 -1.1951 -0.8384
 6285SOL    HW219957   5.365   7.758   5.609  0.9446  1.0212 -1.2545
 6286SOL     OW19958   8.482   5.757   8.251 -0.3489  0.4142 -0.4313
 6286SOL    HW119959   8.498   5.668   8.284  1.9335  0.9766  0.1305
 6286SOL    HW219960   8.408   5.788   8.303  0.8489 -0.0432  1.6848
 6287SOL     OW19961   1.349   3.942   1.618 -0.1029  0.3133 -0.3476
 6287SOL    HW119962   1.312   4.029   1.630 -0.4140  0.4374 -1.9773
 6287SOL    HW219963   1.339   3.899   1.703 -1.7365  1.1935 -0.0602
 6288SOL     OW19964   0.800   3.919   0.542 -0.4150  0.1847 -0.7713
 6288SOL    HW119965   0.759   3.836   0.567 -0.0110  0.4681  0.9995
 6288SOL    HW219966   0.894   3.904   0.555 -0.4365  1.4096  1.3959
 6289SOL     OW19967   8.284   1.671   0.046  0.4283  0.6356  0.4692
 6289SOL    HW119968   8.241   1.673  -0.039  3.1726 -0.0094 -1.0452
 6289SOL    HW219969   8.303   1.579   0.061  2.1908  0.9708  0.5275
 6290SOL     OW19970   5.390   5.078   0.659  0.0746  0.3359  0.0068
 6290SOL    HW119971   5.374   5.133   0.735  0.3954  0.4253  0.0134
 6290SOL    HW219972   5.384   4.989   0.691 -0.2518  0.3695  0.0384
 6291SOL     OW19973   3.081   5.462   3.670  0.4787 -0.4705  0.3388
 6291SOL    HW119974   3.123   5.381   3.641 -0.4249 -1.2794  1.2454
 6291SOL    HW219975   2.989   5.440   3.678  0.0941  0.8671 -0.1149
 6292SOL     OW19976   2.525   2.898   0.093  0.5485  0.8551  0.2072
 6292SOL    HW119977   2.536   2.857   0.008  1.2809 -0.5816  0.9640
 6292SOL    HW219978   2.600   2.957   0.101 -0.2579  2.0492 -0.6885
 6293SOL     OW19979   6.011   0.608   5.263 -0.0966 -0.0181  0.8862
 6293SOL    HW119980   6.013   0.537   5.328  2.1325 -1.2249 -0.3854
 6293SOL    HW219981   5.960   0.574   5.190  2.3130 -1.0670 -0.4135
 6294SOL     OW19982   3.649   6.103   3.741 -0.6328 -0.1419  0.4043
 6294SOL    HW119983   3.680   6.181   3.787 -1.3647 -0.2044  1.0297
 6294SOL    HW219984   3.712   6.089   3.671 -1.4198  2.0259 -0.8031
 6295SOL     OW19985   8.956   7.417   7.992  0.2108 -0.0037  0.3704
 6295SOL    HW119986   9.003   7.402   8.074 -1.3800 -1.3022  1.1149
 6295SOL    HW219987   8.872   7.373   8.005  0.0637 -0.5785 -2.1143
 6296SOL     OW19988   0.190   8.975   4.073 -0.2867  0.0356  0.5959
 6296SOL    HW119989   0.182   8.920   3.994  3.6449  1.7537 -1.2884
 6296SOL    HW219990   0.213   8.913   4.142  0.5645 -1.1348 -0.6635
 6297SOL     OW19991   6.535   6.192   7.567  0.6639 -0.4070  0.0619
 6297SOL    HW119992   6.603   6.188   7.499  0.0718  0.9765 -0.6531
 6297SOL    HW219993   6.491   6.276   7.552  0.3520 -0.1807  2.0272
 6298SOL     OW19994   0.143   8.812   3.839  0.1449 -0.5749  0.4592
 6298SOL    HW119995   0.190   8.741   3.882 -0.9423 -1.3791  0.3792
 6298SOL    HW219996   0.055   8.777   3.824 -0.2091  0.5387 -0.2363
 6299SOL     OW19997   4.591   5.142   5.224 -0.2350 -0.1861  0.0644
 6299SOL    HW119998   4.671   5.150   5.277 -0.8797  0.5948  0.9462
 6299SOL    HW219999   4.531   5.092   5.279 -0.1391 -1.4114 -0.8890
 6300SOL     OW20000   7.567   1.610   9.029  0.1554  0.2585  0.0201
 6300SOL    HW120001   7.501   1.552   8.990 -1.3064  1.6945  0.2637
 6300SOL    HW220002   7.524   1.648   9.105  1.1989  1.3916  0.0734
 6301SOL     OW20003   0.614   5.790   4.226 -0.2014 -0.1805 -0.1496
 6301SOL    HW120004   0.519   5.782   4.214 -0.0397 -2.3218 -0.3948
 6301SOL    HW220005   0.650   5.780   4.138  0.3220 -0.9155  0.1442
 6302SOL     OW20006   4.370   8.128   5.484 -0.0467  0.2364  0.0203
 6302SOL    HW120007   4.380   8.040   5.520 -1.0621 -0.4497 -1.2939
 6302SOL    HW220008   4.411   8.185   5.549  1.2787 -1.2560  0.5613
 6303SOL     OW20009   0.115   6.239   1.138  0.1405  0.1973  0.8486
 6303SOL    HW120010   0.191   6.196   1.177 -0.1867 -1.1264  0.1115
 6303SOL    HW220011   0.093   6.184   1.063 -2.5496 -0.4184  1.9761
 6304SOL     OW20012   0.499   7.971   8.070 -0.0560  0.0265  0.2802
 6304SOL    HW120013   0.580   8.023   8.069 -0.0133  0.0127  1.5053
 6304SOL    HW220014   0.529   7.881   8.078 -0.1434 -0.2066 -1.5369
 6305SOL     OW20015   8.708   2.167   2.913  1.2069 -0.6519  0.2957
 6305SOL    HW120016   8.692   2.073   2.921  0.5237 -0.4739  1.0806
 6305SOL    HW220017   8.621   2.205   2.898  1.3672 -0.0566  0.8486
 6306SOL     OW20018   2.434   2.892   6.110 -0.2836 -0.1026  0.0586
 6306SOL    HW120019   2.474   2.809   6.138 -2.1937 -0.6578  1.3584
 6306SOL    HW220020   2.495   2.959   6.140  0.5220 -0.9743  0.4414
 6307SOL     OW20021   6.926   7.147   7.960 -0.2393  0.3788 -0.0334
 6307SOL    HW120022   6.951   7.080   7.896 -0.5850 -1.3036  1.4996
 6307SOL    HW220023   6.948   7.108   8.045  1.5052  3.0697  0.8757
 6308SOL     OW20024   0.787   0.920   3.079  0.0008 -0.1514 -0.5468
 6308SOL    HW120025   0.790   0.936   3.173  2.9351  2.5198 -0.9424
 6308SOL    HW220026   0.841   0.842   3.066 -0.9080 -0.8917 -0.0329
 6309SOL     OW20027   4.330   8.542   1.471  0.4085 -0.0046  0.1176
 6309SOL    HW120028   4.248   8.579   1.438 -0.0073 -0.4519  0.6513
 6309SOL    HW220029   4.344   8.585   1.555  0.6948  0.0175  0.0620
 6310SOL     OW20030   1.220   5.800   5.382 -0.2908  0.4491  0.0213
 6310SOL    HW120031   1.258   5.819   5.468 -2.2894  0.8765  0.8518
 6310SOL    HW220032   1.179   5.882   5.356 -0.6163  0.0133 -0.8634
 6311SOL     OW20033   0.135   7.608   2.524 -0.2432 -0.9042  0.6430
 6311SOL    HW120034   0.110   7.624   2.433 -1.4002  0.9304  1.2260
 6311SOL    HW220035   0.229   7.594   2.520  0.0320  0.9166 -0.6756
 6312SOL     OW20036   2.405   7.547   2.316 -0.5358 -0.0997  0.0072
 6312SOL    HW120037   2.375   7.637   2.303  2.1649  1.1358  1.3250
 6312SOL    HW220038   2.419   7.541   2.411  0.6979 -1.4164 -0.2356
 6313SOL     OW20039   4.987   7.297   6.409 -0.7450 -0.0923  0.0111
 6313SOL    HW120040   4.948   7.234   6.470 -1.8598 -0.0303 -0.6181
 6313SOL    HW220041   5.059   7.249   6.369 -1.4858 -0.9415 -0.3520
 6314SOL     OW20042   0.769   1.302   1.466  0.1233  0.2437 -0.2458
 6314SOL    HW120043   0.768   1.334   1.376  0.7866  1.3168  0.1233
 6314SOL    HW220044   0.744   1.209   1.458 -1.3858  0.6974 -1.3692
 6315SOL     OW20045   6.408   7.830   2.972  0.2135 -0.5441 -0.0040
 6315SOL    HW120046   6.485   7.887   2.979  0.0119 -0.2486 -0.1724
 6315SOL    HW220047   6.335   7.883   3.004 -0.1799 -0.2740 -1.2955
 6316SOL     OW20048   8.242   1.457   0.976 -0.3923  0.1509  0.2777
 6316SOL    HW120049   8.186   1.458   1.053 -0.5676 -3.2380  0.3713
 6316SOL    HW220050   8.221   1.374   0.933  3.4519 -0.6087 -0.4970
 6317SOL     OW20051   1.924   1.223   0.860  0.3266 -0.5281  0.1766
 6317SOL    HW120052   1.921   1.135   0.899 -2.1761 -1.1503 -1.2253
 6317SOL    HW220053   1.865   1.275   0.915 -0.2001 -0.4189 -0.4829
 6318SOL     OW20054   7.196   4.362   0.331  0.1176 -0.0077  0.0011
 6318SOL    HW120055   7.118   4.402   0.369 -0.1837  1.0083 -1.6049
 6318SOL    HW220056   7.261   4.432   0.330  1.0088 -0.7846  1.1218
 6319SOL     OW20057   4.340   4.361   0.067  0.1832  0.0269 -0.3075
 6319SOL    HW120058   4.360   4.453   0.052 -2.8947  0.6367 -1.3553
 6319SOL    HW220059   4.320   4.326  -0.020  1.2958 -1.6620  0.0690
 6320SOL     OW20060   8.819   6.071   8.193  0.2407 -0.0097  0.1160
 6320SOL    HW120061   8.761   6.012   8.144 -0.6321  0.6962  0.2830
 6320SOL    HW220062   8.862   6.014   8.257 -3.4862  0.0336  2.9977
 6321SOL     OW20063   3.997   2.202   2.843 -0.0339  0.0257  0.2322
 6321SOL    HW120064   4.062   2.142   2.878 -0.4573 -0.1159  0.7951
 6321SOL    HW220065   4.000   2.278   2.901  0.0839  0.2963 -0.1248
 6322SOL     OW20066   1.551   6.698   3.177  0.6550 -0.6131  0.3288
 6322SOL    HW120067   1.515   6.777   3.137  0.8213 -0.6358  0.1373
 6322SOL    HW220068   1.488   6.677   3.247 -0.4882 -1.4715 -0.9051
 6323SOL     OW20069   2.375   2.142   7.213 -0.4383 -0.4628  0.2604
 6323SOL    HW120070   2.298   2.085   7.210  0.2839 -1.5485  1.5467
 6323SOL    HW220071   2.360   2.199   7.288 -0.2060 -0.3568  0.2275
 6324SOL     OW20072   8.219   0.520   5.161 -0.4792  1.1521  0.1367
 6324SOL    HW120073   8.176   0.604   5.181  0.4099  1.5804  0.2856
 6324SOL    HW220074   8.275   0.538   5.086 -0.6283  0.5694 -0.1234
 6325SOL     OW20075   6.462   7.794   5.334  0.0303 -0.3223  0.5180
 6325SOL    HW120076   6.552   7.777   5.363  0.1473  0.1069  0.4101
 6325SOL    HW220077   6.416   7.822   5.413 -0.3335 -1.7330  0.8438
 6326SOL     OW20078   6.933   8.541   0.586 -0.4986 -0.5723 -0.1926
 6326SOL    HW120079   6.973   8.526   0.671 -0.9789  0.9145  0.3130
 6326SOL    HW220080   7.006   8.539   0.524  1.0686  4.8745  0.9771
 6327SOL     OW20081   1.330   4.227   8.437 -0.7059  0.0491 -0.4715
 6327SOL    HW120082   1.355   4.214   8.345  2.6624 -0.3488  0.3543
 6327SOL    HW220083   1.380   4.304   8.465 -0.2606 -0.8786  1.4604
 6328SOL     OW20084   3.930   8.491   8.371 -0.2759  0.3900  0.0179
 6328SOL    HW120085   3.955   8.469   8.461 -0.7917  1.0276  0.3289
 6328SOL    HW220086   3.836   8.474   8.367 -0.2947  0.5596 -0.3355
 6329SOL     OW20087   1.359   8.533   3.906  0.6678  0.4670  0.1928
 6329SOL    HW120088   1.291   8.593   3.877 -0.0239 -0.0285  0.7427
 6329SOL    HW220089   1.316   8.479   3.973  1.5431  0.0094  0.3995
 6330SOL     OW20090   8.996   7.138   4.704  0.8236  0.2246  0.1101
 6330SOL    HW120091   9.028   7.176   4.622 -0.8151 -1.4133 -1.3844
 6330SOL    HW220092   9.029   7.048   4.702  0.6305  0.1211  1.1988
 6331SOL     OW20093   2.179   2.926   6.817  0.2231  0.1809  0.0949
 6331SOL    HW120094   2.162   2.915   6.723 -0.1785 -0.8756  0.2759
 6331SOL    HW220095   2.176   3.021   6.831 -1.1263  0.2783 -0.7009
 6332SOL     OW20096   1.652   4.409   8.822 -0.2238  0.3501  0.6046
 6332SOL    HW120097   1.713   4.438   8.890  0.3383  3.7133 -1.1087
 6332SOL    HW220098   1.706   4.360   8.760 -0.2108 -0.4291  1.2103
 6333SOL     OW20099   7.874   2.959   5.367 -0.0414  0.8557  0.1692
 6333SOL    HW120100   7.812   3.024   5.334 -0.7861  1.6500  2.8551
 6333SOL    HW220101   7.840   2.875   5.336 -1.0561  1.4721 -0.4307
 6334SOL     OW20102   0.956   5.199   0.647  0.2033  1.1206 -0.0846
 6334SOL    HW120103   1.048   5.197   0.619 -0.1864  1.5552 -1.4989
 6334SOL    HW220104   0.960   5.218   0.740  1.6132 -0.7132  0.2885
 6335SOL     OW20105   7.571   3.125   1.123  0.1259  0.3391 -0.4205
 6335SOL    HW120106   7.519   3.203   1.139  1.0486  1.1823 -1.3411
 6335SOL    HW220107   7.508   3.060   1.091 -0.5375  0.9351 -0.3356
 6336SOL     OW20108   0.878   2.570   5.484 -0.0686 -0.1290 -0.1351
 6336SOL    HW120109   0.968   2.548   5.461 -0.6417 -0.6300 -2.0389
 6336SOL    HW220110   0.841   2.609   5.405 -1.8387 -0.8854  0.2641
 6337SOL     OW20111   0.962   7.724   4.093  0.5452  0.1562  0.2924
 6337SOL    HW120112   1.002   7.641   4.065 -0.0984 -0.1137  0.1532
 6337SOL    HW220113   0.980   7.784   4.021 -0.7665 -0.4343 -0.5801
 6338SOL     OW20114   7.134   8.827   2.412 -0.0266 -0.3297 -0.3057
 6338SOL    HW120115   7.197   8.760   2.437  0.9510  1.2235  1.7172
 6338SOL    HW220116   7.085   8.845   2.492 -0.0528  1.5558 -0.7030
 6339SOL     OW20117   2.152   6.551   0.754 -0.5987  0.4063  0.1394
 6339SOL    HW120118   2.084   6.601   0.709 -0.5895 -0.4361 -0.8408
 6339SOL    HW220119   2.103   6.493   0.813 -0.5883  1.9494  1.7442
 6340SOL     OW20120   5.795   0.187   2.944 -0.1382 -0.3672  0.0310
 6340SOL    HW120121   5.723   0.124   2.943 -0.7277  0.2832 -1.0621
 6340SOL    HW220122   5.751   0.272   2.956  0.4533  0.0299 -0.5749
 6341SOL     OW20123   1.794   1.505   7.882 -0.0048  0.2055  0.8021
 6341SOL    HW120124   1.870   1.518   7.826  1.5191 -0.9744  2.4833
 6341SOL    HW220125   1.798   1.413   7.907 -2.7865 -0.2582 -0.1106
 6342SOL     OW20126   8.241   2.655   3.551  0.3395  0.1522 -0.5765
 6342SOL    HW120127   8.253   2.650   3.646 -1.9134  0.0187 -0.2610
 6342SOL    HW220128   8.188   2.733   3.537  0.1463 -0.1645 -1.6875
 6343SOL     OW20129   2.503   1.790   8.004 -0.5965  0.2375  0.6927
 6343SOL    HW120130   2.517   1.750   8.090  0.2925 -1.0081 -0.0098
 6343SOL    HW220131   2.465   1.720   7.951  1.4115  0.1283 -0.6963
 6344SOL     OW20132   8.052   2.680   6.659 -0.3241 -0.2510  0.0658
 6344SOL    HW120133   8.047   2.590   6.691  0.5236 -0.2150  0.2997
 6344SOL    HW220134   7.973   2.722   6.694 -0.1728 -0.6088  0.8544
 6345SOL     OW20135   6.557   8.442   7.586 -0.1565  0.3563 -0.4417
 6345SOL    HW120136   6.538   8.461   7.494 -0.3826  1.4841 -0.1831
 6345SOL    HW220137   6.651   8.425   7.588 -0.2498 -0.2649 -0.9682
 6346SOL     OW20138   7.043   8.655   4.249 -0.0946 -0.4638 -0.6106
 6346SOL    HW120139   7.084   8.577   4.286  0.7071  1.2358  2.3911
 6346SOL    HW220140   7.116   8.715   4.233 -0.6582 -0.3483 -3.2171
 6347SOL     OW20141   4.551   6.806   3.928 -0.4021  0.4188  0.3130
 6347SOL    HW120142   4.577   6.716   3.949  0.8777  1.0180  1.4917
 6347SOL    HW220143   4.461   6.798   3.897  0.1674 -1.4476 -1.1126
 6348SOL     OW20144   8.084   5.615   5.273 -0.1727 -0.5735 -0.2566
 6348SOL    HW120145   8.022   5.592   5.342  0.4575 -0.4042  0.3856
 6348SOL    HW220146   8.134   5.534   5.258 -1.0509 -0.9367 -1.3282
 6349SOL     OW20147   5.157   8.161   6.449 -0.1670 -0.2598  0.2663
 6349SOL    HW120148   5.073   8.118   6.437 -0.3060 -0.0890  0.6265
 6349SOL    HW220149   5.157   8.190   6.540  0.3929 -0.5008  0.3474
 6350SOL     OW20150   4.703   6.263   0.890  0.1243 -0.7330  0.0893
 6350SOL    HW120151   4.638   6.224   0.832  0.6820 -0.3758 -0.7884
 6350SOL    HW220152   4.787   6.239   0.852  0.4907  0.9383 -0.2517
 6351SOL     OW20153   3.906   6.897   4.995  0.0564  0.1628 -0.4831
 6351SOL    HW120154   3.903   6.862   4.906  1.2424  0.3956 -0.6213
 6351SOL    HW220155   3.917   6.820   5.051 -0.5018  0.0360 -0.5328
 6352SOL     OW20156   4.288   1.061   1.375 -0.0584 -0.3386  0.3139
 6352SOL    HW120157   4.367   1.115   1.375 -0.4466  0.2365  0.6261
 6352SOL    HW220158   4.222   1.115   1.419 -0.1516 -1.5022  1.6680
 6353SOL     OW20159   3.900   3.946   0.736 -0.1351 -0.2266 -0.2347
 6353SOL    HW120160   3.994   3.929   0.730  0.0212  0.9204 -1.4804
 6353SOL    HW220161   3.893   4.039   0.758 -0.9854 -0.3132 -0.0994
 6354SOL     OW20162   6.574   6.654   0.063  0.0838  0.3110  0.6323
 6354SOL    HW120163   6.631   6.649  -0.014  1.0809  0.1223  1.3528
 6354SOL    HW220164   6.632   6.684   0.133 -1.0107  1.3221  1.1212
 6355SOL     OW20165   6.863   5.760   7.695  0.1572 -0.0341  0.4889
 6355SOL    HW120166   6.852   5.849   7.728  1.4504 -0.0432  1.0129
 6355SOL    HW220167   6.809   5.756   7.616 -2.7651  0.0944  2.3348
 6356SOL     OW20168   2.996   2.438   0.251  0.2872 -0.7719 -0.4609
 6356SOL    HW120169   2.956   2.461   0.334  1.1565  0.4937 -0.3622
 6356SOL    HW220170   3.052   2.363   0.271 -0.1686 -1.0115 -0.0918
 6357SOL     OW20171   1.933   1.640   2.753  0.2466 -0.2940 -0.1805
 6357SOL    HW120172   2.010   1.589   2.727  0.6451 -0.6928  1.5978
 6357SOL    HW220173   1.969   1.713   2.803 -0.5232 -0.9332  1.3768
 6358SOL     OW20174   2.075   6.549   5.040 -0.1426 -0.4022 -0.2358
 6358SOL    HW120175   2.115   6.543   5.126  0.9914 -0.2403 -0.7362
 6358SOL    HW220176   2.122   6.484   4.987 -0.0787  0.2693 -1.0148
 6359SOL     OW20177   8.106   8.966   6.252 -0.8680 -0.2019  0.0272
 6359SOL    HW120178   8.195   8.994   6.275 -0.8800 -0.8508  0.9118
 6359SOL    HW220179   8.050   9.026   6.300 -0.9044 -0.3697  0.1940
 6360SOL     OW20180   6.476   1.442   6.826  0.0255 -0.4247  0.0007
 6360SOL    HW120181   6.474   1.515   6.887  0.4531 -2.0943  2.1552
 6360SOL    HW220182   6.527   1.474   6.751  1.1181  1.1291  1.3511
 6361SOL     OW20183   1.147   9.073   8.422  0.5785 -0.1491 -0.2596
 6361SOL    HW120184   1.067   9.103   8.465  0.6599 -2.3957  1.6488
 6361SOL    HW220185   1.217   9.096   8.483  0.8628 -2.1045  0.1969
 6362SOL     OW20186   7.821   1.384   2.356 -0.5056  0.5367  0.4588
 6362SOL    HW120187   7.816   1.382   2.260 -0.3108  2.6197  0.3560
 6362SOL    HW220188   7.909   1.418   2.374 -0.1942 -0.7170  1.4200
 6363SOL     OW20189   1.266   1.014   2.556 -0.2308  0.1790 -0.4094
 6363SOL    HW120190   1.233   0.963   2.483  0.1039  0.2413 -0.6107
 6363SOL    HW220191   1.332   0.958   2.597 -1.3006 -0.3658  0.6290
 6364SOL     OW20192   3.389   3.720   1.948  0.4380 -0.9393 -0.0222
 6364SOL    HW120193   3.318   3.773   1.914  1.5483  0.9369  0.4268
 6364SOL    HW220194   3.457   3.783   1.973  1.8375 -2.5725  0.5566
 6365SOL     OW20195   3.715   3.664   0.428 -0.2160  0.6245 -0.8851
 6365SOL    HW120196   3.758   3.650   0.344 -1.2141 -0.0672 -1.2984
 6365SOL    HW220197   3.756   3.600   0.487 -0.2417  0.3934 -1.1167
 6366SOL     OW20198   2.292   5.404   8.663 -0.2302 -0.3010  0.3374
 6366SOL    HW120199   2.332   5.357   8.590  0.5009 -1.2029  1.2950
 6366SOL    HW220200   2.322   5.495   8.652 -1.4164 -0.0600 -1.3558
 6367SOL     OW20201   7.484   0.319   8.531  0.1580 -0.0867  0.4401
 6367SOL    HW120202   7.455   0.231   8.557 -0.2540  0.0119  0.3138
 6367SOL    HW220203   7.409   0.376   8.549  0.1481  0.1095 -0.2088
 6368SOL     OW20204   4.091   6.877   0.447 -0.0389 -0.5012  0.1350
 6368SOL    HW120205   4.062   6.834   0.367 -2.4696 -0.5156  0.9364
 6368SOL    HW220206   4.115   6.805   0.506  0.2276 -0.5575 -0.0433
 6369SOL     OW20207   5.934   4.437   3.863 -0.3823 -0.1897 -0.3703
 6369SOL    HW120208   5.848   4.425   3.823 -1.6178  2.4365  1.2269
 6369SOL    HW220209   5.923   4.408   3.954 -0.0388  1.4316  0.2198
 6370SOL     OW20210   0.757   2.647   4.370  0.0847 -0.5491  0.1843
 6370SOL    HW120211   0.690   2.610   4.313  0.8893 -1.1204 -0.4108
 6370SOL    HW220212   0.731   2.619   4.458 -1.0457  0.1572  0.0962
 6371SOL     OW20213   7.527   3.325   0.277 -0.0718 -0.3808  0.2490
 6371SOL    HW120214   7.474   3.396   0.314  2.4049  2.1857 -0.7742
 6371SOL    HW220215   7.530   3.344   0.184  1.9811 -0.8494  0.1782
 6372SOL     OW20216   2.383   8.931   5.170 -0.0312 -0.1380 -0.0302
 6372SOL    HW120217   2.304   8.887   5.139 -0.5920  0.9631 -0.2158
 6372SOL    HW220218   2.444   8.860   5.190 -0.5958 -0.9551 -1.1320
 6373SOL     OW20219   7.074   8.964   2.659  0.0102  0.8524  0.3904
 6373SOL    HW120220   7.102   8.919   2.738  1.7379  0.4907 -0.3772
 6373SOL    HW220221   7.120   9.048   2.660  2.3686 -0.2888 -1.5434
 6374SOL     OW20222   8.666   3.253   4.925 -0.1221 -0.0794  0.4706
 6374SOL    HW120223   8.614   3.224   4.850 -0.8548  1.9448  0.1161
 6374SOL    HW220224   8.641   3.196   4.997 -1.4426 -0.3385 -0.1735
 6375SOL     OW20225   5.895   4.598   1.823 -0.5530  0.5103 -0.0905
 6375SOL    HW120226   5.828   4.593   1.755  0.7503  0.3508 -1.4265
 6375SOL    HW220227   5.938   4.682   1.807 -0.1390  0.4082  0.4599
 6376SOL     OW20228   2.138   2.641   7.448  0.3349 -0.3818  0.6781
 6376SOL    HW120229   2.103   2.633   7.537  0.6266  1.8904  1.0582
 6376SOL    HW220230   2.074   2.596   7.393 -1.6280  1.0361  1.7019
 6377SOL     OW20231   3.217   8.403   2.524 -0.1131  0.2650 -0.1896
 6377SOL    HW120232   3.128   8.369   2.517  0.3083 -0.9087 -0.1413
 6377SOL    HW220233   3.218   8.481   2.468 -1.5983  1.2555  1.0748
 6378SOL     OW20234   4.667   8.144   3.844 -0.4167 -0.3342  0.0576
 6378SOL    HW120235   4.682   8.085   3.770  3.7621 -1.1728  1.3056
 6378SOL    HW220236   4.591   8.108   3.889  0.1699 -2.9990 -0.9275
 6379SOL     OW20237   1.720   2.114   3.767 -0.2301 -0.5953  0.1294
 6379SOL    HW120238   1.745   2.179   3.834  1.3813 -0.6982 -0.3203
 6379SOL    HW220239   1.642   2.072   3.802  0.4776 -0.5241  1.8835
 6380SOL     OW20240   4.896   1.631   3.947 -0.7236 -0.1085  0.1827
 6380SOL    HW120241   4.849   1.689   3.887  0.8921  1.3687  0.2576
 6380SOL    HW220242   4.829   1.572   3.981 -2.0913  0.4789 -1.3542
 6381SOL     OW20243   7.210   5.588   3.542  0.0882 -0.2504  0.6383
 6381SOL    HW120244   7.118   5.575   3.567  0.5139 -1.7366  1.5247
 6381SOL    HW220245   7.212   5.677   3.505 -1.1903  0.8503  2.9844
 6382SOL     OW20246   7.190   5.849   3.433  0.0258  0.0693 -0.3528
 6382SOL    HW120247   7.132   5.924   3.447 -0.6791  0.1758 -3.0895
 6382SOL    HW220248   7.278   5.885   3.441 -0.2563  0.3509  1.8994
 6383SOL     OW20249   4.725   3.120   2.778  0.0618  0.2329 -0.1826
 6383SOL    HW120250   4.716   3.037   2.823  0.8639 -0.2610 -0.8930
 6383SOL    HW220251   4.650   3.172   2.807 -0.5856 -0.8234  0.0733
 6384SOL     OW20252   8.650   2.492   5.267 -0.2483  0.3416 -0.2390
 6384SOL    HW120253   8.728   2.486   5.323  1.0835 -0.9378 -2.1193
 6384SOL    HW220254   8.680   2.541   5.190 -1.7979  1.3245 -0.2569
 6385SOL     OW20255   3.656   4.683   4.601 -0.0414  0.0468 -0.7481
 6385SOL    HW120256   3.677   4.758   4.545  0.8458 -0.1584 -0.7087
 6385SOL    HW220257   3.740   4.639   4.614 -0.2385  0.0495  0.6908
 6386SOL     OW20258   7.205   5.591   5.462  0.0922  0.3517  0.1386
 6386SOL    HW120259   7.134   5.560   5.406  0.0752  0.4073  0.1301
 6386SOL    HW220260   7.245   5.663   5.413 -0.8416  1.3746  0.8463
 6387SOL     OW20261   3.730   7.085   7.581  0.1432 -0.3010  0.0118
 6387SOL    HW120262   3.689   7.007   7.542  0.4783 -0.0192 -0.9335
 6387SOL    HW220263   3.780   7.124   7.509 -1.2467  1.6588  0.0457
 6388SOL     OW20264   4.436   0.334   0.921  0.6905  0.3181 -0.2834
 6388SOL    HW120265   4.360   0.359   0.870 -0.2461  0.2378  1.0189
 6388SOL    HW220266   4.443   0.239   0.910  0.9393  0.4003 -0.8443
 6389SOL     OW20267   8.126   7.655   2.338  0.3101 -0.3245  0.1121
 6389SOL    HW120268   8.210   7.696   2.359 -0.1475  0.5108  0.3742
 6389SOL    HW220269   8.086   7.640   2.424  0.5691 -1.5541  0.0288
 6390SOL     OW20270   8.061   5.719   3.929  0.5751 -0.5386 -0.3858
 6390SOL    HW120271   7.992   5.666   3.888  0.4118 -1.3740  0.9100
 6390SOL    HW220272   8.017   5.802   3.949  0.8703  0.2021 -2.5526
 6391SOL     OW20273   4.994   3.940   2.445  0.0120 -0.2702  0.9870
 6391SOL    HW120274   5.059   4.005   2.419 -1.3002  1.1431  1.0859
 6391SOL    HW220275   5.033   3.856   2.421  1.6420  0.5611  0.5922
 6392SOL     OW20276   5.915   1.895   3.095  0.3682  0.2745 -0.1300
 6392SOL    HW120277   6.003   1.932   3.086  0.1573  0.9010  0.3604
 6392SOL    HW220278   5.931   1.802   3.111  0.8746 -0.0010 -2.0328
 6393SOL     OW20279   7.319   2.994   8.518 -0.2866 -0.2423  0.3511
 6393SOL    HW120280   7.368   3.073   8.493 -0.6961 -0.3232 -0.7672
 6393SOL    HW220281   7.384   2.924   8.518 -0.3133 -0.2953 -0.8318
 6394SOL     OW20282   5.092   1.150   7.160  0.2450 -0.5357  0.7979
 6394SOL    HW120283   5.022   1.163   7.097  1.3119  1.2690 -0.1157
 6394SOL    HW220284   5.103   1.055   7.166  0.3848 -0.7768 -2.1108
 6395SOL     OW20285   0.502   1.719   1.508  0.2257  0.4362  0.2175
 6395SOL    HW120286   0.555   1.713   1.429 -0.3502 -0.6761 -0.1151
 6395SOL    HW220287   0.462   1.632   1.517 -2.2209  1.4352 -0.0458
 6396SOL     OW20288   0.948   0.651   8.698  0.5204 -0.1949  0.4214
 6396SOL    HW120289   1.035   0.640   8.737 -0.3675 -1.4682  2.1866
 6396SOL    HW220290   0.903   0.568   8.716 -0.5264 -0.1937 -1.9137
 6397SOL     OW20291   2.851   6.552   3.013 -0.7082  0.5133  0.0699
 6397SOL    HW120292   2.822   6.642   3.003 -1.3284  0.2083 -1.0167
 6397SOL    HW220293   2.825   6.528   3.102 -1.1236  1.1930  0.1350
 6398SOL     OW20294   0.567   4.987   6.060  0.4013  1.0865  0.2027
 6398SOL    HW120295   0.552   4.974   6.153  0.4230  1.2406  0.2277
 6398SOL    HW220296   0.653   4.947   6.043  0.9764  2.1770  0.4996
 6399SOL     OW20297   2.446   7.511   5.167 -0.5192  0.2262 -0.1179
 6399SOL    HW120298   2.516   7.557   5.120 -0.4058  0.0811 -0.0904
 6399SOL    HW220299   2.419   7.573   5.235 -0.7359  0.4695 -0.4160
 6400SOL     OW20300   8.672   0.807   8.976  0.0886  0.9249 -0.5692
 6400SOL    HW120301   8.662   0.884   9.033  3.0684  1.0122 -0.0174
 6400SOL    HW220302   8.616   0.741   9.016  0.0981  1.7884  0.9728
 6401SOL     OW20303   1.245   6.168   5.857 -0.6010  1.0085 -0.2694
 6401SOL    HW120304   1.254   6.077   5.883 -1.8422  0.3713 -1.9086
 6401SOL    HW220305   1.329   6.208   5.879  0.7522 -1.0321 -1.4085
 6402SOL     OW20306   2.627   4.618   0.260  0.2518  0.7361 -0.1222
 6402SOL    HW120307   2.651   4.534   0.299  0.5035  0.7051 -0.3364
 6402SOL    HW220308   2.668   4.683   0.316 -0.4931  0.7467  0.4261
 6403SOL     OW20309   4.739   5.352   8.020  0.3169  0.5506 -0.3076
 6403SOL    HW120310   4.779   5.313   8.098  1.3722  0.6562 -0.7826
 6403SOL    HW220311   4.741   5.446   8.036  2.1222  0.6923 -1.1732
 6404SOL     OW20312   5.980   2.562   5.533 -0.0430  0.6808  0.2460
 6404SOL    HW120313   5.893   2.553   5.494  0.9821  0.9375 -2.3242
 6404SOL    HW220314   6.035   2.501   5.484  1.0583 -0.2981  2.5560
 6405SOL     OW20315   6.436   6.251   1.547 -0.0095 -0.1708  0.1112
 6405SOL    HW120316   6.350   6.290   1.528 -0.2780 -1.5392 -1.7033
 6405SOL    HW220317   6.422   6.157   1.537  1.0638 -0.6844  2.6182
 6406SOL     OW20318   7.146   0.591   1.843 -0.1106 -0.6036  0.1245
 6406SOL    HW120319   7.051   0.587   1.851 -0.3610  1.5979 -1.0078
 6406SOL    HW220320   7.178   0.595   1.933 -1.0572 -1.3523  0.5102
 6407SOL     OW20321   3.364   8.007   3.582 -0.0055  0.4199  0.1381
 6407SOL    HW120322   3.284   7.957   3.595  0.7558 -0.7778  0.3563
 6407SOL    HW220323   3.343   8.069   3.512 -1.4545  0.8949  0.9584
 6408SOL     OW20324   2.152   2.669   1.145 -0.3995 -0.1351  0.5128
 6408SOL    HW120325   2.236   2.713   1.131 -0.1919 -0.9695 -1.0879
 6408SOL    HW220326   2.141   2.668   1.240  1.6019 -0.3692  0.7814
 6409SOL     OW20327   0.200   7.043   8.492  0.0818  0.0938 -0.3025
 6409SOL    HW120328   0.187   7.015   8.401 -1.7280  2.9571 -1.0865
 6409SOL    HW220329   0.253   7.123   8.485 -0.5749  0.6830  1.0925
 6410SOL     OW20330   0.353   7.488   7.112 -0.6855  0.3580  0.1411
 6410SOL    HW120331   0.413   7.561   7.120  0.6476 -0.6894  0.0801
 6410SOL    HW220332   0.307   7.503   7.029 -1.2416  1.6742  0.6654
 6411SOL     OW20333   6.756   4.709   2.794 -0.7751  0.4146 -0.1066
 6411SOL    HW120334   6.848   4.732   2.785  0.1688 -1.6502  2.7552
 6411SOL    HW220335   6.737   4.656   2.717  0.2197  1.3232 -1.0142
 6412SOL     OW20336   7.620   6.920   8.578  0.0539 -0.3477  0.2540
 6412SOL    HW120337   7.595   6.866   8.503  1.1676 -1.1163  0.4052
 6412SOL    HW220338   7.710   6.893   8.598 -0.7361 -1.3594  2.8716
 6413SOL     OW20339   4.853   3.059   8.977 -0.5678  0.2633 -0.0456
 6413SOL    HW120340   4.796   3.028   8.907 -0.5255 -0.5177  0.2609
 6413SOL    HW220341   4.889   2.980   9.015  1.1103  0.7546 -0.5437
 6414SOL     OW20342   4.480   2.119   8.148 -0.2312  0.1980  0.3876
 6414SOL    HW120343   4.485   2.072   8.065  0.9497 -0.5274  0.8364
 6414SOL    HW220344   4.562   2.169   8.152  0.1935 -0.5504  1.5307
 6415SOL     OW20345   1.538   3.641   6.758 -0.0670  0.3639  0.2058
 6415SOL    HW120346   1.530   3.548   6.778 -2.6291  0.2544 -0.9024
 6415SOL    HW220347   1.508   3.685   6.838 -1.6748  0.1299 -0.2355
 6416SOL     OW20348   3.262   7.607   0.058 -0.6232  0.2225 -0.0969
 6416SOL    HW120349   3.272   7.686   0.111  0.6435 -0.8234  1.2805
 6416SOL    HW220350   3.237   7.639  -0.029 -0.0194  2.1272  0.4016
 6417SOL     OW20351   5.059   0.402   2.844  0.5105  0.3985 -0.1037
 6417SOL    HW120352   5.147   0.395   2.882  1.2787 -0.1773 -1.8847
 6417SOL    HW220353   5.074   0.421   2.751 -1.2949  1.7504 -0.1718
 6418SOL     OW20354   3.386   7.244   4.151  0.0289 -0.7127 -0.4081
 6418SOL    HW120355   3.404   7.248   4.245  0.8820 -2.0707 -0.4751
 6418SOL    HW220356   3.291   7.242   4.144 -0.0356 -0.9480  0.4564
 6419SOL     OW20357   1.159   4.266   1.406 -0.1841 -0.3277 -0.2195
 6419SOL    HW120358   1.194   4.245   1.493 -0.9083 -1.3531 -0.1520
 6419SOL    HW220359   1.156   4.362   1.404 -0.7110 -0.2855  1.1268
 6420SOL     OW20360   6.538   4.924   1.110 -0.3667  0.6798 -0.1394
 6420SOL    HW120361   6.567   4.870   1.037  1.7601  1.2472  0.2362
 6420SOL    HW220362   6.509   4.862   1.177 -0.2451  0.1028 -0.6195
 6421SOL     OW20363   0.514   0.470   0.728 -0.1240  0.3229  0.0083
 6421SOL    HW120364   0.573   0.418   0.782 -0.4659 -0.5839 -0.4797
 6421SOL    HW220365   0.458   0.516   0.791  0.4054  0.3778  0.4451
 6422SOL     OW20366   6.975   4.769   0.235 -0.0204  0.3153 -0.5077
 6422SOL    HW120367   6.931   4.697   0.280  4.2271 -0.2841  3.3505
 6422SOL    HW220368   7.028   4.727   0.168  1.0408 -0.0503  0.5229
 6423SOL     OW20369   2.464   4.094   8.041  0.3644  0.3187  0.4352
 6423SOL    HW120370   2.548   4.099   8.088  1.1012  0.8787 -0.8772
 6423SOL    HW220371   2.489   4.086   7.949 -1.0379 -1.3988  0.1686
 6424SOL     OW20372   0.370   5.278   8.539  0.1555  0.1144  0.0668
 6424SOL    HW120373   0.289   5.229   8.524 -0.0409  0.0676  1.2049
 6424SOL    HW220374   0.342   5.358   8.585  0.3624  1.7576 -2.4549
 6425SOL     OW20375   1.247   1.767   7.932 -0.3829  0.1240  0.3396
 6425SOL    HW120376   1.158   1.761   7.897  0.2777 -0.3587 -1.3981
 6425SOL    HW220377   1.296   1.813   7.864  0.7941 -0.0453  1.0529
 6426SOL     OW20378   3.338   5.333   5.546 -0.0828 -0.1232  0.2731
 6426SOL    HW120379   3.303   5.276   5.477  1.5585  0.5979 -1.2215
 6426SOL    HW220380   3.417   5.288   5.576 -0.3659 -0.0436  1.1702
 6427SOL     OW20381   1.521   8.292   1.377  0.0835 -0.2045  0.4040
 6427SOL    HW120382   1.462   8.218   1.362  1.3609 -1.0277 -0.8370
 6427SOL    HW220383   1.609   8.254   1.368  0.7826  1.7249 -1.7096
 6428SOL     OW20384   4.055   3.598   8.833 -0.5907 -0.6782  0.0816
 6428SOL    HW120385   4.097   3.651   8.901  0.7543 -0.8331 -0.5926
 6428SOL    HW220386   4.007   3.662   8.780 -1.0324 -0.4641  0.7237
 6429SOL     OW20387   6.097   2.272   0.061 -0.2331 -0.3356  0.0534
 6429SOL    HW120388   6.046   2.304   0.135  0.6673 -1.1587  1.0665
 6429SOL    HW220389   6.092   2.176   0.067  0.2272 -0.4162 -0.6767
 6430SOL     OW20390   2.008   1.975   2.587  0.0380  0.4312 -0.4443
 6430SOL    HW120391   2.009   2.062   2.546  0.9151  0.5681 -0.1721
 6430SOL    HW220392   1.916   1.956   2.603 -0.1957  1.0905 -0.9843
 6431SOL     OW20393   3.647   0.231   8.623 -0.0484 -0.2689  0.0320
 6431SOL    HW120394   3.733   0.273   8.616 -0.8080  1.2979 -0.3530
 6431SOL    HW220395   3.657   0.147   8.578  1.7391 -0.9170  1.4871
 6432SOL     OW20396   8.502   4.664   2.557 -0.2753  0.3191  0.4329
 6432SOL    HW120397   8.455   4.593   2.514 -1.4929  2.7622 -2.6599
 6432SOL    HW220398   8.575   4.684   2.498 -0.9672  2.6694  0.2423
 6433SOL     OW20399   3.124   3.697   5.426  0.4726  0.2885  0.4673
 6433SOL    HW120400   3.045   3.729   5.382  0.2020  1.2427  1.6150
 6433SOL    HW220401   3.098   3.614   5.465  0.1042  0.4904  0.6502
 6434SOL     OW20402   1.022   7.355   2.973  0.0931  0.3956  0.4522
 6434SOL    HW120403   1.098   7.413   2.983 -0.5038  1.1421  0.7291
 6434SOL    HW220404   1.057   7.267   2.988  1.0418  0.6653 -0.1448
 6435SOL     OW20405   5.966   1.681   0.337 -0.8096  0.7196 -0.3033
 6435SOL    HW120406   5.883   1.719   0.309 -1.0446  0.5876  0.2136
 6435SOL    HW220407   5.942   1.597   0.377 -0.5441  1.1848  0.8687
 6436SOL     OW20408   4.161   5.367   4.662  0.2544  0.3009  0.2653
 6436SOL    HW120409   4.230   5.346   4.599  1.4491 -0.4303  1.7481
 6436SOL    HW220410   4.138   5.458   4.643  0.5107  0.0809 -1.2561
 6437SOL     OW20411   8.236   5.862   4.875 -0.1371 -0.5914 -0.5386
 6437SOL    HW120412   8.187   5.944   4.885 -0.7285 -0.8867 -0.9620
 6437SOL    HW220413   8.204   5.805   4.945  0.4883 -0.3691 -0.0584
 6438SOL     OW20414   1.945   3.918   4.556  0.7525 -0.6349 -0.4064
 6438SOL    HW120415   1.978   4.003   4.527  1.4059 -0.7097  0.1050
 6438SOL    HW220416   1.927   3.929   4.649 -1.1548 -0.4568 -0.7714
 6439SOL     OW20417   4.046   1.556   0.691  0.4912 -0.4914  0.1637
 6439SOL    HW120418   3.990   1.509   0.753 -2.0400  0.2088 -1.4300
 6439SOL    HW220419   4.073   1.490   0.628 -1.4402 -0.3099 -0.9574
 6440SOL     OW20420   8.552   1.425   5.119  0.3156 -0.4120 -0.5358
 6440SOL    HW120421   8.575   1.518   5.118 -1.3440  0.0342 -0.7488
 6440SOL    HW220422   8.513   1.412   5.206  0.6578 -0.9489 -0.4603
 6441SOL     OW20423   5.930   6.166   7.688  0.2794 -0.0381  0.0975
 6441SOL    HW120424   5.890   6.196   7.770 -2.2994  1.2716 -1.5176
 6441SOL    HW220425   5.862   6.178   7.622  2.0212 -1.7231 -2.1627
 6442SOL     OW20426   7.731   2.752   0.217  0.9772  0.3703  0.0277
 6442SOL    HW120427   7.793   2.818   0.185  1.0515 -0.1393 -0.8949
 6442SOL    HW220428   7.648   2.798   0.225  1.1340  0.6896 -0.1804
 6443SOL     OW20429   8.835   7.318   8.949 -0.2524 -0.2918 -0.3679
 6443SOL    HW120430   8.782   7.362   9.015  0.8279  0.0304  0.3008
 6443SOL    HW220431   8.843   7.383   8.879 -0.6828 -0.3248 -0.4546
 6444SOL     OW20432   6.584   6.123   5.122  0.0142  0.0738 -0.6384
 6444SOL    HW120433   6.507   6.140   5.068  1.2285  0.6991 -2.2618
 6444SOL    HW220434   6.627   6.208   5.131  0.3344 -0.1915  0.5649
 6445SOL     OW20435   6.341   5.645   4.933 -0.4470  0.1978 -0.4549
 6445SOL    HW120436   6.350   5.550   4.940 -2.2110 -0.0568 -1.0638
 6445SOL    HW220437   6.382   5.668   4.850  0.0194 -0.0212 -0.2870
 6446SOL     OW20438   4.532   8.127   2.464  0.1371  0.3225 -0.3213
 6446SOL    HW120439   4.462   8.062   2.464 -0.4261  0.9086  0.3351
 6446SOL    HW220440   4.588   8.101   2.537 -0.1369  0.6104 -0.0019
 6447SOL     OW20441   8.818   5.226   0.851 -0.3804 -0.7242  0.3875
 6447SOL    HW120442   8.794   5.238   0.943  0.9993  0.0272  0.6749
 6447SOL    HW220443   8.782   5.304   0.807  0.5812 -0.1340  0.6307
 6448SOL     OW20444   3.356   8.127   8.370  0.2960 -0.4096  0.5111
 6448SOL    HW120445   3.368   8.218   8.396  0.5707 -0.3695  0.2448
 6448SOL    HW220446   3.266   8.123   8.336 -0.1651 -0.5153  1.6699
 6449SOL     OW20447   1.000   7.695   2.731 -0.2938  0.7150  0.5252
 6449SOL    HW120448   0.982   7.693   2.824 -1.3151  0.7040  0.3350
 6449SOL    HW220449   0.918   7.669   2.689 -0.6507  3.1658 -0.4589
 6450SOL     OW20450   2.143   1.222   7.327  0.0992 -0.0060  0.1266
 6450SOL    HW120451   2.162   1.128   7.326 -0.5857 -0.1538  0.3797
 6450SOL    HW220452   2.058   1.229   7.369  0.4219  0.7887  0.6775
 6451SOL     OW20453   9.009   3.088   1.048 -0.0548  1.0228 -0.0361
 6451SOL    HW120454   9.027   3.182   1.041  0.8519  0.8580 -0.0199
 6451SOL    HW220455   9.057   3.060   1.126 -1.2697  0.7640  0.6390
 6452SOL     OW20456   4.933   3.646   3.253 -0.2482  0.3418 -0.2967
 6452SOL    HW120457   4.892   3.695   3.324 -0.1186 -0.5734  0.4256
 6452SOL    HW220458   4.916   3.555   3.274  1.1835 -0.0159 -0.5757
 6453SOL     OW20459   2.181   6.755   7.581  0.5416 -0.1795  0.1591
 6453SOL    HW120460   2.146   6.842   7.596  2.3885  0.9968 -1.8052
 6453SOL    HW220461   2.141   6.727   7.498  1.9600 -0.0427 -0.5924
 6454SOL     OW20462   8.031   8.760   1.464  0.1900  0.5522 -0.0697
 6454SOL    HW120463   7.969   8.828   1.438 -1.2617 -0.7584 -0.2521
 6454SOL    HW220464   7.978   8.680   1.468  2.0390 -0.8240 -1.0975
 6455SOL     OW20465   6.251   0.206   5.875 -0.6356  0.0506 -0.1428
 6455SOL    HW120466   6.304   0.228   5.799 -0.8478  1.3321  0.0693
 6455SOL    HW220467   6.191   0.138   5.844 -1.0885  0.9488 -1.2561
 6456SOL     OW20468   7.395   8.490   0.955 -0.1598  0.3321  0.0410
 6456SOL    HW120469   7.312   8.481   1.002 -0.4236  0.3989 -0.4162
 6456SOL    HW220470   7.408   8.407   0.911  0.5466 -0.0703  0.9514
 6457SOL     OW20471   2.124   0.488   4.895  0.2712  0.2752 -0.0084
 6457SOL    HW120472   2.032   0.505   4.914 -0.0899 -1.1322 -0.3664
 6457SOL    HW220473   2.136   0.395   4.915  1.2691  0.0958 -1.2672
 6458SOL     OW20474   1.135   0.707   1.431 -0.4278 -0.0828 -0.4400
 6458SOL    HW120475   1.143   0.704   1.336 -2.4106 -2.5538 -0.6440
 6458SOL    HW220476   1.167   0.622   1.461  0.5397  0.8025  1.1758
 6459SOL     OW20477   0.712   2.712   3.268  0.0053 -0.1422 -0.2446
 6459SOL    HW120478   0.723   2.784   3.206 -0.0343 -0.7717 -1.0018
 6459SOL    HW220479   0.623   2.680   3.253 -0.1609 -0.0289  0.4451
 6460SOL     OW20480   3.876   5.050   6.237 -0.4374  0.5794  0.6760
 6460SOL    HW120481   3.956   5.063   6.287 -0.7575  0.8973  1.1217
 6460SOL    HW220482   3.807   5.085   6.293 -0.8482  0.6184  0.1575
 6461SOL     OW20483   1.636   1.189   6.720 -0.4252  0.0559  0.1403
 6461SOL    HW120484   1.631   1.281   6.693  0.5628  0.9014  2.4927
 6461SOL    HW220485   1.729   1.176   6.740 -0.3811 -1.7881 -1.0912
 6462SOL     OW20486   0.606   2.080   6.771 -0.2010  0.5082  0.2011
 6462SOL    HW120487   0.599   2.111   6.861 -0.2547  0.5663  0.1764
 6462SOL    HW220488   0.517   2.082   6.737 -0.3624 -0.6040  0.5147
 6463SOL     OW20489   1.690   4.257   0.149 -0.2747 -0.4755 -0.1504
 6463SOL    HW120490   1.705   4.261   0.054  1.2686  1.7085  0.1173
 6463SOL    HW220491   1.595   4.266   0.158 -0.4249 -0.4694 -1.4771
 6464SOL     OW20492   5.593   8.032   5.240 -0.2966  0.1096 -0.0419
 6464SOL    HW120493   5.680   8.063   5.213  1.0400 -2.9093  0.3674
 6464SOL    HW220494   5.580   8.072   5.326  0.9794  0.1547  0.1601
 6465SOL     OW20495   8.975   3.742   4.848  0.0117 -0.4649  0.2412
 6465SOL    HW120496   8.959   3.721   4.941  0.3611  0.0746  0.4272
 6465SOL    HW220497   8.993   3.836   4.848  1.4442 -0.7133 -0.1854
 6466SOL     OW20498   5.882   1.686   1.094 -0.7189  0.0590  0.3188
 6466SOL    HW120499   5.805   1.632   1.108 -0.3167 -0.5265  0.3271
 6466SOL    HW220500   5.851   1.776   1.102 -1.2299 -0.1852  1.2136
 6467SOL     OW20501   3.179   1.228   0.298 -0.7351  0.4554 -0.1356
 6467SOL    HW120502   3.112   1.163   0.322 -1.2700  1.0114 -0.0978
 6467SOL    HW220503   3.251   1.213   0.359 -0.4380 -0.7487 -0.7471
 6468SOL     OW20504   0.514   3.560   6.349 -0.1544  0.3648  0.1883
 6468SOL    HW120505   0.430   3.587   6.312  0.4663  1.9985 -0.1226
 6468SOL    HW220506   0.550   3.498   6.286 -0.3224  1.0493 -0.5941
 6469SOL     OW20507   8.595   4.440   6.296 -0.3604 -0.3552  0.1984
 6469SOL    HW120508   8.519   4.402   6.341 -0.7198 -0.4263 -0.4615
 6469SOL    HW220509   8.567   4.449   6.205  0.4765 -0.5169 -0.0807
 6470SOL     OW20510   7.611   2.942   8.787 -0.3200 -0.3617 -0.0088
 6470SOL    HW120511   7.652   2.929   8.873 -0.7969  1.6159  0.5783
 6470SOL    HW220512   7.518   2.927   8.803 -0.3097 -0.8156 -0.3811
 6471SOL     OW20513   8.157   3.462   0.462  0.0278 -0.1784 -0.4513
 6471SOL    HW120514   8.165   3.491   0.371  3.0829  0.8247  0.0350
 6471SOL    HW220515   8.156   3.543   0.513 -0.1208 -0.7564  0.4854
 6472SOL     OW20516   6.342   0.265   2.135 -0.4654  0.2051  0.0329
 6472SOL    HW120517   6.428   0.230   2.113  0.6687  1.8625  1.6728
 6472SOL    HW220518   6.281   0.211   2.084  1.5504 -0.5662 -1.6856
 6473SOL     OW20519   0.460   1.451   6.105 -0.4342  0.3568 -0.1942
 6473SOL    HW120520   0.455   1.356   6.097 -1.1333  0.0726  2.5659
 6473SOL    HW220521   0.369   1.480   6.108 -0.2471  1.3046 -2.1419
 6474SOL     OW20522   1.375   6.027   2.455  0.1198 -0.6573 -0.2589
 6474SOL    HW120523   1.360   6.086   2.381  0.3655  0.7249  0.7334
 6474SOL    HW220524   1.457   5.982   2.435  0.2780 -0.1566 -0.7596
 6475SOL     OW20525   1.588   3.229   0.381 -0.4102  0.4447  0.2495
 6475SOL    HW120526   1.559   3.172   0.452 -0.1100 -0.3984 -0.2799
 6475SOL    HW220527   1.682   3.214   0.375 -0.6721 -1.0153 -1.5565
 6476SOL     OW20528   1.653   7.364   6.391  0.1014 -0.1464  0.1704
 6476SOL    HW120529   1.578   7.325   6.437 -0.9382 -1.0627 -2.1477
 6476SOL    HW220530   1.619   7.447   6.357  0.1826 -0.4576 -0.6954
 6477SOL     OW20531   7.172   2.405   0.005  0.2064  0.1912 -0.0688
 6477SOL    HW120532   7.158   2.405   0.100  0.1022 -1.4388 -0.0498
 6477SOL    HW220533   7.192   2.496  -0.017 -1.3191  0.8833  1.2759
 6478SOL     OW20534   7.433   9.130   0.592 -0.0424  0.1816  0.0713
 6478SOL    HW120535   7.425   9.153   0.684 -0.7242  0.3198 -0.0192
 6478SOL    HW220536   7.424   9.213   0.546  0.3074  0.1143 -0.1242
 6479SOL     OW20537   5.169   3.387   8.044  0.2273 -0.4861 -0.4206
 6479SOL    HW120538   5.083   3.412   8.079  0.0666  0.5460 -1.4706
 6479SOL    HW220539   5.193   3.309   8.093  0.4805  1.3662  2.6795
 6480SOL     OW20540   4.816   0.553   2.201  0.0643  0.2575  0.1610
 6480SOL    HW120541   4.860   0.602   2.131  0.0723  0.1317  0.0785
 6480SOL    HW220542   4.878   0.557   2.274  0.4689 -0.3937 -0.1313
 6481SOL     OW20543   5.630   8.337   4.883  0.3772  0.3964 -0.2997
 6481SOL    HW120544   5.700   8.397   4.907  2.0549 -1.2002 -0.9791
 6481SOL    HW220545   5.556   8.364   4.937  1.5566  2.0242  0.5870
 6482SOL     OW20546   2.586   3.834   8.574  0.3806  0.6233 -0.2174
 6482SOL    HW120547   2.680   3.831   8.556  0.5809  0.8947  0.7366
 6482SOL    HW220548   2.556   3.743   8.562  0.5666  0.7097 -1.4731
 6483SOL     OW20549   5.852   8.122   4.065  0.6853  0.0909  0.5125
 6483SOL    HW120550   5.827   8.060   3.997  0.0882  0.1193  0.7036
 6483SOL    HW220551   5.808   8.091   4.144  1.6066 -0.1108  0.9613
 6484SOL     OW20552   6.988   8.322   5.589 -0.5120  0.6449 -0.1786
 6484SOL    HW120553   6.911   8.377   5.575  0.2197  1.5557 -0.7552
 6484SOL    HW220554   6.953   8.235   5.607 -1.8045  1.6129  2.5783
 6485SOL     OW20555   6.754   5.686   4.818  0.1225  0.2362  0.0109
 6485SOL    HW120556   6.716   5.739   4.889  0.3434  0.2380  0.1294
 6485SOL    HW220557   6.706   5.604   4.821  1.6761 -0.6853  1.6949
 6486SOL     OW20558   5.338   1.507   4.533 -0.3410 -0.1449 -0.1806
 6486SOL    HW120559   5.371   1.478   4.448  0.8021  2.9298 -0.8980
 6486SOL    HW220560   5.327   1.426   4.583  0.7962 -1.9004 -2.5753
 6487SOL     OW20561   8.072   1.846   4.949  0.4182 -0.1971 -0.3243
 6487SOL    HW120562   8.044   1.904   5.020  0.6054 -0.8755  0.3199
 6487SOL    HW220563   8.153   1.807   4.982  0.5713 -0.4235 -0.9691
 6488SOL     OW20564   1.420   4.282   4.289 -0.2801 -0.4266  0.3936
 6488SOL    HW120565   1.480   4.348   4.324 -0.7387  0.3344 -0.2227
 6488SOL    HW220566   1.475   4.224   4.237  0.1351 -0.5570  0.9753
 6489SOL     OW20567   6.378   3.251   8.119  0.5107  0.1585  0.2667
 6489SOL    HW120568   6.321   3.317   8.159 -1.3750 -1.6883  0.8280
 6489SOL    HW220569   6.370   3.266   8.025 -1.6392 -0.5492  0.2857
 6490SOL     OW20570   6.653   2.700   7.221  0.0131 -0.2375  0.5159
 6490SOL    HW120571   6.618   2.787   7.241 -1.2599 -0.7551  0.6594
 6490SOL    HW220572   6.633   2.648   7.298  1.2528 -0.5471  0.6540
 6491SOL     OW20573   3.259   4.523   7.124  0.0864 -0.6899  0.0382
 6491SOL    HW120574   3.341   4.473   7.133  1.1018  0.2687 -2.8219
 6491SOL    HW220575   3.281   4.610   7.157 -0.0009 -0.6392 -0.0376
 6492SOL     OW20576   0.240   0.303   1.553  0.1940  0.1726  0.2905
 6492SOL    HW120577   0.257   0.355   1.474  1.3508 -0.3826  0.1500
 6492SOL    HW220578   0.164   0.345   1.594  0.4731  1.3435 -0.3496
 6493SOL     OW20579   3.368   4.199   4.713 -0.3478 -0.1666  0.2507
 6493SOL    HW120580   3.333   4.284   4.686  0.7792 -0.1733 -1.4151
 6493SOL    HW220581   3.329   4.136   4.652 -0.3434 -0.6897  0.7840
 6494SOL     OW20582   3.586   4.675   2.833  0.2055 -0.4637 -0.4141
 6494SOL    HW120583   3.502   4.720   2.846 -0.5188 -2.1798  1.4442
 6494SOL    HW220584   3.647   4.718   2.893  0.0857 -0.5405 -0.2349
 6495SOL     OW20585   0.843   5.111   6.995  0.5298 -0.2242 -0.0484
 6495SOL    HW120586   0.806   5.190   6.957 -0.9384 -0.2104  1.2598
 6495SOL    HW220587   0.810   5.040   6.940 -0.4174 -0.1051  0.3475
 6496SOL     OW20588   3.294   0.556   1.892 -0.0637  0.0004  0.4481
 6496SOL    HW120589   3.349   0.521   1.822  0.4605  0.6687  0.5175
 6496SOL    HW220590   3.214   0.585   1.847 -0.5861 -1.4196  0.4142
 6497SOL     OW20591   7.190   0.369   8.261  0.2905  0.4091 -0.2634
 6497SOL    HW120592   7.111   0.335   8.302  1.8094  0.6197  3.2215
 6497SOL    HW220593   7.239   0.291   8.233  0.4391  0.0539  0.9258
 6498SOL     OW20594   8.991   7.640   2.478 -0.3872  0.1542 -0.2534
 6498SOL    HW120595   8.945   7.698   2.539 -1.9179 -1.8577  0.6243
 6498SOL    HW220596   9.083   7.661   2.490 -0.6591  0.1539  2.4806
 6499SOL     OW20597   6.186   3.436   8.276  0.6660  0.5340  0.3871
 6499SOL    HW120598   6.111   3.389   8.240 -0.0800 -0.3920  2.9247
 6499SOL    HW220599   6.147   3.505   8.331  1.7430  2.3433 -1.0137
 6500SOL     OW20600   8.877   7.228   6.073 -0.2654 -0.0140  0.5244
 6500SOL    HW120601   8.796   7.201   6.116 -0.4946  1.0636  0.7883
 6500SOL    HW220602   8.870   7.323   6.066  0.0575 -0.0807 -1.3064
 6501SOL     OW20603   8.281   4.107   0.956 -0.3022 -0.3242 -0.1029
 6501SOL    HW120604   8.358   4.083   0.904 -0.2292 -0.1150 -0.0943
 6501SOL    HW220605   8.217   4.038   0.938 -0.1987 -0.3709 -0.2998
 6502SOL     OW20606   3.481   5.689   4.232  0.1910  0.3819  0.1315
 6502SOL    HW120607   3.412   5.726   4.178  1.0846  2.0318  0.0759
 6502SOL    HW220608   3.471   5.730   4.318  0.1859 -0.5066  0.5754
 6503SOL     OW20609   8.492   0.692   5.496  0.2079 -0.1569  0.2386
 6503SOL    HW120610   8.512   0.671   5.587 -0.3540  0.4980  0.5176
 6503SOL    HW220611   8.436   0.620   5.466  2.2545 -1.6213 -0.3261
 6504SOL     OW20612   4.247   7.897   7.810  0.1493  0.4165 -0.7889
 6504SOL    HW120613   4.196   7.975   7.832 -0.5073 -0.4272  0.8725
 6504SOL    HW220614   4.295   7.877   7.890  1.2979 -0.1664 -1.5997
 6505SOL     OW20615   7.046   4.464   4.626  0.2583  0.5667  0.6603
 6505SOL    HW120616   7.009   4.550   4.647 -0.6455  0.2647  0.3628
 6505SOL    HW220617   7.042   4.416   4.709 -2.2243 -0.2308  0.1799
 6506SOL     OW20618   5.312   0.415   2.044  0.6290  0.0219 -0.6087
 6506SOL    HW120619   5.216   0.415   2.039  0.5757 -1.5467 -0.1415
 6506SOL    HW220620   5.340   0.438   1.955 -0.1524  1.5231 -0.4970
 6507SOL     OW20621   3.577   3.647   6.306 -0.4795  0.3322 -0.3048
 6507SOL    HW120622   3.512   3.662   6.238  0.3918  0.8500 -1.0429
 6507SOL    HW220623   3.530   3.597   6.374 -1.1457 -0.9488 -1.6560
 6508SOL     OW20624   5.331   4.769   4.333 -0.2915  0.0619 -0.3890
 6508SOL    HW120625   5.395   4.838   4.349  0.3222 -0.5583 -0.1202
 6508SOL    HW220626   5.360   4.728   4.251 -0.4015 -0.1540 -0.3208
 6509SOL     OW20627   7.405   6.428   2.937 -0.1798  0.4396  0.0189
 6509SOL    HW120628   7.452   6.345   2.949  0.0085  0.3405 -1.2878
 6509SOL    HW220629   7.333   6.407   2.877  0.9248  1.5562 -1.7812
 6510SOL     OW20630   2.753   7.392   8.768  0.1289  0.1357 -0.3143
 6510SOL    HW120631   2.760   7.420   8.677 -0.4766 -1.3291 -0.8254
 6510SOL    HW220632   2.733   7.473   8.816 -0.5319  0.7606 -1.6060
 6511SOL     OW20633   3.160   3.458   6.646  0.3215 -0.2434 -0.6534
 6511SOL    HW120634   3.081   3.407   6.627 -0.8261  0.5647  1.6163
 6511SOL    HW220635   3.174   3.447   6.740  1.9005  1.0497 -0.6974
 6512SOL     OW20636   0.456   3.339   1.536 -0.4770 -0.1393  0.4069
 6512SOL    HW120637   0.478   3.255   1.577  0.3731 -0.5513 -0.8287
 6512SOL    HW220638   0.476   3.326   1.443 -0.4945  1.3850  0.1703
 6513SOL     OW20639   0.855   5.349   5.024 -0.0249  0.5267  0.5578
 6513SOL    HW120640   0.820   5.405   5.094 -0.9183  1.4294 -0.5776
 6513SOL    HW220641   0.864   5.407   4.949 -1.4192 -0.9390 -0.8053
 6514SOL     OW20642   1.283   3.062   6.715  0.4701 -0.2368 -0.0928
 6514SOL    HW120643   1.367   3.098   6.741  0.0019  0.8912 -0.1040
 6514SOL    HW220644   1.305   2.980   6.669  1.4876 -0.4406  0.7284
 6515SOL     OW20645   3.368   5.070   6.290 -0.0629  0.0995  0.3729
 6515SOL    HW120646   3.307   4.997   6.280 -2.0181  1.5840  0.9113
 6515SOL    HW220647   3.427   5.062   6.215 -1.4069 -0.9492 -0.6316
 6516SOL     OW20648   5.767   5.024   7.011  0.4746  0.0418  0.4936
 6516SOL    HW120649   5.692   5.030   6.951  1.6264 -1.9297 -1.2997
 6516SOL    HW220650   5.733   5.055   7.095 -1.7742  1.0711 -0.6943
 6517SOL     OW20651   5.338   0.021   2.329  0.1941 -0.2712  0.1005
 6517SOL    HW120652   5.244   0.015   2.347  0.0457 -0.4010 -0.6759
 6517SOL    HW220653   5.346  -0.006   2.238  1.0403 -0.6660  0.2866
 6518SOL     OW20654   5.150   1.894   1.177  0.2377 -0.3765 -0.3217
 6518SOL    HW120655   5.192   1.974   1.209 -0.2522 -0.6681  1.1083
 6518SOL    HW220656   5.159   1.832   1.249  0.6455 -1.6397 -1.4200
 6519SOL     OW20657   5.876   1.347   2.399 -0.1289  0.6119 -0.2452
 6519SOL    HW120658   5.845   1.338   2.489 -0.4588 -0.4797 -0.4531
 6519SOL    HW220659   5.796   1.353   2.347  0.0329  0.0378 -0.5723
 6520SOL     OW20660   8.466   4.761   8.606 -0.0891  0.0914  0.4535
 6520SOL    HW120661   8.536   4.767   8.671 -0.8318 -0.6283  1.3546
 6520SOL    HW220662   8.399   4.707   8.648 -0.1035 -1.4160 -1.3385
 6521SOL     OW20663   7.533   1.272   0.068  0.1803  0.0772 -0.5497
 6521SOL    HW120664   7.496   1.293  -0.018 -1.5777 -1.4552 -0.2397
 6521SOL    HW220665   7.504   1.343   0.125 -0.5243 -0.0198 -0.7762
 6522SOL     OW20666   3.970   7.210   6.975 -0.4280 -0.0268 -0.2747
 6522SOL    HW120667   3.989   7.256   6.893 -0.6257 -0.5291 -0.6059
 6522SOL    HW220668   3.945   7.280   7.035 -1.7426  0.2216 -1.0655
 6523SOL     OW20669   2.225   3.011   8.025 -0.0871 -0.3238 -0.1905
 6523SOL    HW120670   2.162   2.997   8.096  1.5471 -1.9137  1.0292
 6523SOL    HW220671   2.194   2.954   7.954 -1.7400  1.2888 -0.8411
 6524SOL     OW20672   2.453   0.309   1.322 -0.5965  0.1716 -0.4088
 6524SOL    HW120673   2.526   0.284   1.378 -0.4803  0.3532 -0.4786
 6524SOL    HW220674   2.493   0.326   1.237 -0.6500  0.7834 -0.3145
 6525SOL     OW20675   1.898   4.658   4.774 -0.1207 -0.2930  0.0399
 6525SOL    HW120676   1.817   4.686   4.814 -0.5214 -1.2323 -0.0731
 6525SOL    HW220677   1.906   4.565   4.798 -0.3202 -0.8687 -1.9148
 6526SOL     OW20678   2.268   3.132   0.621  0.2460 -0.1715  0.0016
 6526SOL    HW120679   2.179   3.099   0.628  0.1770 -0.6408 -2.2115
 6526SOL    HW220680   2.271   3.207   0.680 -1.7920  0.2062 -0.3109
 6527SOL     OW20681   5.736   7.689   2.569  0.0278 -0.0636  0.1297
 6527SOL    HW120682   5.752   7.713   2.478 -1.8425  0.7374 -0.0307
 6527SOL    HW220683   5.761   7.597   2.575 -1.9898 -0.8133 -1.8241
 6528SOL     OW20684   5.046   1.408   2.100  0.4415  0.2670 -0.0732
 6528SOL    HW120685   4.992   1.355   2.042  0.5705 -1.0761  0.9898
 6528SOL    HW220686   5.061   1.489   2.051 -0.4004 -0.3545 -1.4217
 6529SOL     OW20687   2.717   3.521   6.841 -0.2010  0.0986  0.0490
 6529SOL    HW120688   2.633   3.476   6.855  0.5384 -1.9064 -1.4182
 6529SOL    HW220689   2.707   3.565   6.756  0.5724 -1.1413 -0.7183
 6530SOL     OW20690   4.037   4.161   8.415 -0.2470 -0.3289  0.8676
 6530SOL    HW120691   3.996   4.076   8.434 -0.3262 -0.3202  0.7368
 6530SOL    HW220692   4.042   4.205   8.500  0.3419 -0.7058  1.0388
 6531SOL     OW20693   0.080   8.069   4.193 -0.2297  0.1019 -0.1177
 6531SOL    HW120694   0.122   8.002   4.247  0.3036  1.0202  0.6358
 6531SOL    HW220695   0.148   8.096   4.132 -0.3885  0.1004 -0.2965
 6532SOL     OW20696   4.387   3.589   4.738  0.3675  0.1910 -0.0670
 6532SOL    HW120697   4.383   3.641   4.818  2.2131  0.1632  0.0864
 6532SOL    HW220698   4.433   3.509   4.764 -0.8547 -0.7511 -0.7040
 6533SOL     OW20699   1.762   7.315   3.217 -0.2307  0.7445  0.5591
 6533SOL    HW120700   1.678   7.323   3.261 -1.1596 -0.7289 -0.8337
 6533SOL    HW220701   1.824   7.293   3.287 -1.3656  0.0209  1.3605
 6534SOL     OW20702   1.367   1.319   8.719 -0.3109 -0.4428 -0.3237
 6534SOL    HW120703   1.344   1.284   8.632 -0.5300 -0.5373 -0.2299
 6534SOL    HW220704   1.301   1.281   8.777  0.5193 -1.3071  0.0772
 6535SOL     OW20705   6.123   7.881   9.026 -0.2888  0.3257  0.0654
 6535SOL    HW120706   6.077   7.963   9.011 -0.9879  0.1903  1.3169
 6535SOL    HW220707   6.207   7.907   9.065 -0.4907  0.4421  0.4200
 6536SOL     OW20708   1.816   7.533   5.787  0.2102  0.6061  0.3168
 6536SOL    HW120709   1.808   7.474   5.713 -0.4354  1.7413 -0.5431
 6536SOL    HW220710   1.839   7.476   5.861 -1.1250 -0.8110 -0.3127
 6537SOL     OW20711   7.281   7.741   5.385 -0.2385  0.3845  0.0690
 6537SOL    HW120712   7.374   7.757   5.367 -0.3767  1.7281  0.4320
 6537SOL    HW220713   7.250   7.691   5.309  0.7805 -0.0918 -0.0447
 6538SOL     OW20714   0.705   5.646   1.874 -0.1414  0.6608 -0.1575
 6538SOL    HW120715   0.770   5.634   1.944 -0.0933  0.1203 -0.2874
 6538SOL    HW220716   0.631   5.591   1.901 -0.0640  0.3311 -0.5981
 6539SOL     OW20717   3.072   2.723   1.946  0.5001  0.4091 -0.3138
 6539SOL    HW120718   3.108   2.769   2.023 -1.8796  1.3609  0.3011
 6539SOL    HW220719   3.037   2.641   1.981 -2.7568  1.8721  0.1965
 6540SOL     OW20720   2.764   1.430   9.015  0.3360 -0.2709  0.0443
 6540SOL    HW120721   2.785   1.504   9.072 -0.1616 -0.2656  0.2249
 6540SOL    HW220722   2.766   1.467   8.926 -0.4958  0.1034  0.1732
 6541SOL     OW20723   3.818   6.288   8.063 -0.0312  0.1617  0.0700
 6541SOL    HW120724   3.769   6.290   7.981  0.4910  0.1333 -0.2475
 6541SOL    HW220725   3.909   6.299   8.037 -0.0075  1.9031  0.7966
 6542SOL     OW20726   2.625   3.274   0.641 -0.8286 -0.2852 -0.3830
 6542SOL    HW120727   2.545   3.221   0.638 -0.7033 -0.7904  2.4088
 6542SOL    HW220728   2.688   3.225   0.589 -1.7410 -0.9508 -0.9064
 6543SOL     OW20729   1.715   0.614   5.272 -0.1637 -1.0464 -0.0685
 6543SOL    HW120730   1.686   0.705   5.278 -1.5148 -1.4311 -0.4728
 6543SOL    HW220731   1.788   0.608   5.334  0.3311  0.4460 -0.4552
 6544SOL     OW20732   7.124   0.106   3.834  0.0248 -0.8215 -0.2473
 6544SOL    HW120733   7.127   0.020   3.876 -0.3528 -0.0246  1.5145
 6544SOL    HW220734   7.124   0.168   3.907 -3.3165  0.6327 -1.3007
 6545SOL     OW20735   5.870   7.194   7.278 -0.0450 -0.1061  0.0425
 6545SOL    HW120736   5.836   7.159   7.195 -0.4002  0.3704 -0.0226
 6545SOL    HW220737   5.792   7.223   7.325  0.1822 -0.1001  0.4187
 6546SOL     OW20738   5.370   2.065   7.282 -0.3438  0.0643  0.2871
 6546SOL    HW120739   5.390   2.108   7.365 -1.0591  1.6025 -0.2964
 6546SOL    HW220740   5.368   2.136   7.218 -0.2426 -1.0331 -0.9730
 6547SOL     OW20741   3.586   7.176   7.039 -0.3646 -0.2415  0.0485
 6547SOL    HW120742   3.630   7.228   6.972 -0.6573 -0.1160 -0.0457
 6547SOL    HW220743   3.549   7.102   6.991  1.8050 -1.6793  0.4485
 6548SOL     OW20744   8.666   7.720   2.564  0.3685 -0.8693  0.0667
 6548SOL    HW120745   8.630   7.706   2.652 -1.9709 -1.1575 -0.8751
 6548SOL    HW220746   8.639   7.642   2.515  1.4013 -0.5851 -0.9990
 6549SOL     OW20747   6.017   1.878   3.714 -0.2262  0.2712 -0.2818
 6549SOL    HW120748   5.997   1.824   3.791 -0.2488  0.4497 -0.1607
 6549SOL    HW220749   5.935   1.881   3.665 -0.2599  0.3044 -0.2223
 6550SOL     OW20750   6.653   7.027   4.288  0.2219  0.5998  0.2858
 6550SOL    HW120751   6.686   7.031   4.378  0.5957  1.1926  0.1235
 6550SOL    HW220752   6.654   7.118   4.258  0.1685  0.3934 -0.3476
 6551SOL     OW20753   2.858   6.055   1.643 -0.4046 -0.1646 -0.0979
 6551SOL    HW120754   2.866   5.967   1.680  0.8251  0.8508  2.3181
 6551SOL    HW220755   2.918   6.055   1.569  0.0288 -1.1884  0.2306
 6552SOL     OW20756   1.841   3.732   6.910  0.0848 -0.5539  0.3066
 6552SOL    HW120757   1.890   3.780   6.978 -1.0957 -1.7741  2.1084
 6552SOL    HW220758   1.850   3.640   6.935 -1.3193 -0.9452 -0.5444
 6553SOL     OW20759   3.564   6.309   2.992 -0.8484  0.4812  0.0866
 6553SOL    HW120760   3.530   6.219   2.991 -1.7391  0.8052 -0.9972
 6553SOL    HW220761   3.488   6.363   3.017 -0.6088  1.0229 -0.3343
 6554SOL     OW20762   5.580   3.866   5.440  0.1600  0.2587  0.0528
 6554SOL    HW120763   5.600   3.955   5.470 -0.2377  0.1790  0.5768
 6554SOL    HW220764   5.556   3.819   5.520 -0.3229 -0.1344 -0.3165
 6555SOL     OW20765   0.454   4.929   0.893  0.2430  0.2450 -0.5424
 6555SOL    HW120766   0.505   5.010   0.894  1.1750 -0.3286 -0.0391
 6555SOL    HW220767   0.408   4.931   0.810  1.2058  0.7230 -1.0825
 6556SOL     OW20768   3.994   6.117   2.614  0.0240 -0.0924  0.1714
 6556SOL    HW120769   3.903   6.140   2.635 -0.9835 -0.9843 -2.7297
 6556SOL    HW220770   3.999   6.023   2.630  0.6499  0.0566  0.8958
 6557SOL     OW20771   1.768   5.506   1.872  0.1045  0.0017 -0.4488
 6557SOL    HW120772   1.726   5.433   1.826 -1.2970  0.2546  0.3878
 6557SOL    HW220773   1.825   5.464   1.936  1.0234 -0.3416 -1.4444
 6558SOL     OW20774   2.970   4.861   6.536  0.6893 -0.2917 -0.2842
 6558SOL    HW120775   2.986   4.934   6.596 -1.8606  1.9610 -2.0803
 6558SOL    HW220776   2.985   4.898   6.449 -1.7113 -1.5195 -1.3160
 6559SOL     OW20777   3.193   4.354   6.784 -0.7915 -0.0476  0.4972
 6559SOL    HW120778   3.267   4.379   6.728 -1.0011 -0.7644 -0.1142
 6559SOL    HW220779   3.127   4.422   6.769 -0.3839  0.4236  0.8047
 6560SOL     OW20780   1.688   0.767   3.899  0.1130  0.0955  0.0748
 6560SOL    HW120781   1.597   0.749   3.873 -0.3765  0.1537  1.6565
 6560SOL    HW220782   1.718   0.685   3.938  0.8174  0.0166 -0.6243
 6561SOL     OW20783   0.007   3.359   4.060 -0.3856  0.1207  0.2943
 6561SOL    HW120784   0.090   3.404   4.074 -0.1180 -0.1508 -0.3817
 6561SOL    HW220785  -0.039   3.367   4.144  0.5079 -0.1128  0.8296
 6562SOL     OW20786   5.476   6.357   6.917 -0.4423  0.2916 -0.3022
 6562SOL    HW120787   5.491   6.263   6.912 -0.8462  0.0186  2.2804
 6562SOL    HW220788   5.384   6.365   6.944  0.1541  1.2917  1.6248
 6563SOL     OW20789   1.510   1.805   0.398 -0.4977  0.4317  0.2008
 6563SOL    HW120790   1.433   1.775   0.449 -0.4447 -1.3951 -0.6960
 6563SOL    HW220791   1.475   1.824   0.311 -0.2800  1.7642  0.3910
 6564SOL     OW20792   7.902   8.776   4.391  0.4407  0.3098 -0.0568
 6564SOL    HW120793   7.903   8.733   4.305 -1.1359  0.1964 -0.0470
 6564SOL    HW220794   7.982   8.828   4.392  1.1809 -0.7554 -1.0422
 6565SOL     OW20795   0.652   7.064   2.465 -0.0453  0.3281 -0.1974
 6565SOL    HW120796   0.664   7.144   2.413 -0.8861 -0.9287 -2.4578
 6565SOL    HW220797   0.560   7.041   2.454 -0.0396 -0.4605  1.1929
 6566SOL     OW20798   3.727   4.604   1.409  0.0847  0.1452 -0.7109
 6566SOL    HW120799   3.642   4.639   1.384 -0.1813 -1.1326 -1.6823
 6566SOL    HW220800   3.729   4.515   1.373  0.4561 -1.1546  2.1959
 6567SOL     OW20801   1.081   1.512   2.438  0.1556 -0.7317  0.1781
 6567SOL    HW120802   1.091   1.450   2.365  1.7165  0.5619 -0.7660
 6567SOL    HW220803   1.167   1.513   2.481 -0.0279  0.3328  0.5417
 6568SOL     OW20804   8.608   6.242   3.258  0.0891 -0.0849 -0.6662
 6568SOL    HW120805   8.571   6.213   3.341 -0.1283  0.2444 -0.6479
 6568SOL    HW220806   8.632   6.333   3.272  0.8304 -0.2598 -0.7055
 6569SOL     OW20807   0.817   4.577   2.324  0.1494  0.1192  0.4138
 6569SOL    HW120808   0.879   4.610   2.389 -0.2589  0.3082  0.7031
 6569SOL    HW220809   0.816   4.482   2.337 -0.7441  0.2559  1.3980
 6570SOL     OW20810   4.882   3.420   4.420  0.1127 -0.0763  0.0742
 6570SOL    HW120811   4.950   3.483   4.444  1.2500 -1.2034 -0.1095
 6570SOL    HW220812   4.852   3.449   4.334 -0.8730  1.4125  0.8738
 6571SOL     OW20813   7.176   6.555   7.956 -0.2201  0.4748 -0.1734
 6571SOL    HW120814   7.152   6.507   7.877  1.1388  1.1210 -1.0134
 6571SOL    HW220815   7.194   6.488   8.021 -1.2537 -0.0638 -0.4246
 6572SOL     OW20816   2.698   4.001   7.873  0.1917 -0.0977 -0.3798
 6572SOL    HW120817   2.723   4.091   7.894  0.8332  0.0796 -1.7554
 6572SOL    HW220818   2.739   3.948   7.941 -1.1308  0.7243  1.0993
 6573SOL     OW20819   0.540   0.918   3.340 -0.7863  0.5600  0.3355
 6573SOL    HW120820   0.465   0.953   3.388  0.5386  0.7540  2.3879
 6573SOL    HW220821   0.548   0.974   3.263 -1.7555  1.5592  0.9346
 6574SOL     OW20822   7.745   8.794   1.774 -0.4141 -0.1908  0.6461
 6574SOL    HW120823   7.816   8.744   1.734 -0.2042 -0.5474  1.4339
 6574SOL    HW220824   7.773   8.885   1.769  0.6457 -0.4135  1.9556
 6575SOL     OW20825   0.560   8.034   2.640  0.3834  0.1447 -0.5438
 6575SOL    HW120826   0.599   8.094   2.576  0.5543 -0.4838 -1.0404
 6575SOL    HW220827   0.508   7.974   2.587  0.6475 -0.4734 -0.1054
 6576SOL     OW20828   5.780   1.811   5.565  0.0900 -0.2818 -0.5093
 6576SOL    HW120829   5.697   1.848   5.596 -0.1565 -0.9810 -0.3217
 6576SOL    HW220830   5.780   1.721   5.597  1.2132 -0.1087  0.0313
 6577SOL     OW20831   5.245   1.117   4.160 -0.3448  0.0298  0.0550
 6577SOL    HW120832   5.229   1.026   4.133 -2.0683  0.4771 -0.5729
 6577SOL    HW220833   5.213   1.120   4.250 -0.5066  0.0699 -0.0036
 6578SOL     OW20834   2.086   6.222   5.656 -0.3219  0.3186  0.0483
 6578SOL    HW120835   2.101   6.140   5.701 -0.7619 -0.4143 -1.0932
 6578SOL    HW220836   2.154   6.226   5.589 -2.8155 -1.3440 -2.8452
 6579SOL     OW20837   4.448   6.445   1.546 -0.1344 -0.4497 -0.0523
 6579SOL    HW120838   4.524   6.500   1.561  0.4061 -1.7395  2.6570
 6579SOL    HW220839   4.484   6.360   1.519 -0.8460 -0.1141 -2.2435
 6580SOL     OW20840   2.446   8.291   8.435  0.2864  0.0058  0.0823
 6580SOL    HW120841   2.513   8.260   8.495 -0.2529  0.6893  1.0553
 6580SOL    HW220842   2.468   8.383   8.419  0.0820 -0.0057 -0.2869
 6581SOL     OW20843   1.025   2.880   3.897  0.2483 -0.4342 -0.0446
 6581SOL    HW120844   0.956   2.929   3.852 -0.9365 -0.8528  1.2608
 6581SOL    HW220845   1.057   2.941   3.964 -0.6974 -1.1318  1.0738
 6582SOL     OW20846   8.344   7.785   1.230 -0.3510  0.1037 -0.3964
 6582SOL    HW120847   8.425   7.833   1.214 -1.0150  0.7297 -2.1659
 6582SOL    HW220848   8.278   7.831   1.179 -1.4560 -1.4401 -0.4456
 6583SOL     OW20849   6.898   1.107   2.953 -0.2651 -0.0794 -0.3199
 6583SOL    HW120850   6.851   1.033   2.915  0.0698  0.2930 -1.4822
 6583SOL    HW220851   6.892   1.176   2.887 -0.7640  1.0242  0.8318
 6584SOL     OW20852   5.276   3.783   2.272  0.2373  0.1954 -0.7300
 6584SOL    HW120853   5.202   3.751   2.323  1.0223  1.4344  1.3211
 6584SOL    HW220854   5.346   3.721   2.289  0.5295  0.6631 -0.2203
 6585SOL     OW20855   8.051   2.962   2.999  0.5797  0.2391  0.2564
 6585SOL    HW120856   8.037   2.928   3.087 -1.5874 -0.6921 -0.3603
 6585SOL    HW220857   8.078   2.886   2.948  0.6503  0.5073 -0.1136
 6586SOL     OW20858   3.963   8.456   7.820 -0.3537  0.1402 -0.1617
 6586SOL    HW120859   3.911   8.458   7.900  0.5385  0.3871  0.4213
 6586SOL    HW220860   4.041   8.508   7.840 -0.5534  0.9967 -1.4990
 6587SOL     OW20861   1.859   3.430   5.952  0.7076  0.1586  0.3062
 6587SOL    HW120862   1.899   3.510   5.918  0.4026  1.4576  2.7790
 6587SOL    HW220863   1.765   3.448   5.950  0.7058  0.4691  2.1797
 6588SOL     OW20864   6.927   4.799   5.584 -0.4846 -0.0801  0.5717
 6588SOL    HW120865   6.839   4.837   5.579 -0.3591  0.0928 -0.5375
 6588SOL    HW220866   6.914   4.713   5.625 -1.2981 -0.4153 -0.3525
 6589SOL     OW20867   4.200   7.695   6.420  0.8402 -0.0927  0.1121
 6589SOL    HW120868   4.139   7.715   6.349  1.0018  0.5844  0.1571
 6589SOL    HW220869   4.271   7.759   6.409  2.4556 -1.9929 -1.0369
 6590SOL     OW20870   5.470   4.002   4.609  0.5344 -0.2625  0.1067
 6590SOL    HW120871   5.495   3.965   4.694 -1.6118 -0.2913  0.7845
 6590SOL    HW220872   5.536   4.069   4.591  1.0322 -0.2676  1.7872
 6591SOL     OW20873   6.807   1.240   0.069 -0.1507 -0.2364 -0.2053
 6591SOL    HW120874   6.882   1.214   0.014 -0.6094 -1.0529 -0.4663
 6591SOL    HW220875   6.750   1.289   0.011  0.6538  1.3049  0.2564
 6592SOL     OW20876   1.613   4.304   6.316 -0.0918  0.7839 -0.0831
 6592SOL    HW120877   1.656   4.353   6.387 -2.4762 -1.3955  3.1131
 6592SOL    HW220878   1.547   4.364   6.283 -1.2855  0.7411  2.0379
 6593SOL     OW20879   6.983   0.797   8.601  0.6404 -0.4818  0.3344
 6593SOL    HW120880   7.048   0.753   8.546 -0.0534 -1.3166  0.1651
 6593SOL    HW220881   6.984   0.888   8.570  2.3992 -0.2381  0.9761
 6594SOL     OW20882   0.034   4.829   3.440 -0.5779  0.1331 -0.4200
 6594SOL    HW120883   0.028   4.850   3.533 -0.2891 -0.4017 -0.2722
 6594SOL    HW220884   0.128   4.817   3.424 -0.5656  0.8386 -0.9248
 6595SOL     OW20885   8.939   3.746   8.457  0.2967 -0.1325  0.3129
 6595SOL    HW120886   8.886   3.753   8.537 -0.8349 -0.3444 -0.3888
 6595SOL    HW220887   8.922   3.657   8.426 -0.4329  0.4272 -0.9363
 6596SOL     OW20888   0.257   3.306   3.413  0.0404  0.5082  0.2159
 6596SOL    HW120889   0.326   3.352   3.461  1.0232  0.0834 -0.7573
 6596SOL    HW220890   0.254   3.219   3.452  0.5787  0.2866 -0.2218
 6597SOL     OW20891   0.633   4.297   5.636 -0.3669 -0.4017 -0.6189
 6597SOL    HW120892   0.539   4.312   5.624 -0.1775  1.6437  0.2090
 6597SOL    HW220893   0.673   4.383   5.629  1.1708 -0.8518  1.6226
 6598SOL     OW20894   1.627   8.431   3.859  0.1085 -0.4335  0.3232
 6598SOL    HW120895   1.662   8.508   3.813 -3.0843 -0.3420 -2.3070
 6598SOL    HW220896   1.539   8.458   3.886  0.2615 -2.0417  2.6826
 6599SOL     OW20897   6.764   2.138   5.369  0.2010 -0.4687  0.2739
 6599SOL    HW120898   6.681   2.127   5.415  0.0874  0.7735  0.3930
 6599SOL    HW220899   6.784   2.051   5.335 -1.6176 -0.6056 -0.5519
 6600SOL     OW20900   2.903   5.920   4.786  0.3266 -0.3245 -0.0129
 6600SOL    HW120901   2.925   5.827   4.778  2.3544  0.1517 -0.4946
 6600SOL    HW220902   2.868   5.929   4.874  0.7780 -1.4264  0.2912
 6601SOL     OW20903   2.695   1.830   6.636 -0.0204  0.6693 -0.4058
 6601SOL    HW120904   2.718   1.854   6.546  1.4199 -4.3773 -1.6837
 6601SOL    HW220905   2.640   1.753   6.627 -0.7402  0.6008  3.1026
 6602SOL     OW20906   3.166   0.194   6.725  1.1504  0.3925 -0.4471
 6602SOL    HW120907   3.145   0.237   6.809  0.8474 -0.7043  0.0490
 6602SOL    HW220908   3.255   0.224   6.705  0.5183  2.2059 -0.7334
 6603SOL     OW20909   1.660   2.576   5.404 -0.1492 -0.1649  0.6135
 6603SOL    HW120910   1.595   2.516   5.366 -0.3286  0.2552  0.2491
 6603SOL    HW220911   1.741   2.525   5.407  0.1356  0.0954 -1.3070
 6604SOL     OW20912   1.177   3.297   3.519  0.0388 -0.2534  0.4042
 6604SOL    HW120913   1.083   3.284   3.529 -0.5165  2.2363 -0.8742
 6604SOL    HW220914   1.192   3.291   3.425  1.4362 -1.8901  0.6731
 6605SOL     OW20915   8.829   5.360   5.466 -0.0191 -0.4711  0.0238
 6605SOL    HW120916   8.858   5.277   5.428  1.8381  0.1117  0.0375
 6605SOL    HW220917   8.831   5.422   5.393  2.5595  0.4184  0.7233
 6606SOL     OW20918   7.761   3.472   2.315  0.2338  0.1986 -0.0392
 6606SOL    HW120919   7.830   3.462   2.250 -0.9240  0.1155 -1.3009
 6606SOL    HW220920   7.800   3.529   2.382  2.2204 -1.5233  0.3744
 6607SOL     OW20921   0.118   0.018   2.403  0.0539  0.3181 -0.0208
 6607SOL    HW120922   0.187   0.082   2.383  0.6175 -0.2742  0.0107
 6607SOL    HW220923   0.037   0.067   2.392  0.4620  0.9042 -0.5025
 6608SOL     OW20924   6.439   5.905   3.040  0.5381  0.0392  0.0454
 6608SOL    HW120925   6.479   5.958   3.109  1.5268 -0.4943 -0.0942
 6608SOL    HW220926   6.436   5.817   3.076  0.9419 -0.2192 -0.5356
 6609SOL     OW20927   7.543   0.260   1.312 -0.4865  0.2798 -0.1403
 6609SOL    HW120928   7.453   0.290   1.327 -0.9500 -1.5122  0.8944
 6609SOL    HW220929   7.538   0.212   1.229 -0.8711 -1.1590  0.6816
 6610SOL     OW20930   0.877   2.242   7.499 -0.1865  0.3058 -0.2209
 6610SOL    HW120931   0.873   2.249   7.594  1.1121 -0.2099 -0.1115
 6610SOL    HW220932   0.893   2.150   7.482 -0.8234  0.3194 -0.9721
 6611SOL     OW20933   2.469   7.850   4.731 -0.2167 -0.1615 -0.6889
 6611SOL    HW120934   2.505   7.843   4.819 -0.6982 -0.5302 -0.5239
 6611SOL    HW220935   2.478   7.943   4.709  1.9952 -0.4141 -1.1435
 6612SOL     OW20936   6.500   4.713   5.905  0.1468  0.1663 -0.3660
 6612SOL    HW120937   6.504   4.628   5.949 -1.2560  0.5233  0.5310
 6612SOL    HW220938   6.445   4.767   5.963 -0.0039  1.3069 -1.5313
 6613SOL     OW20939   3.873   5.568   5.215 -0.0150  0.4402  0.3020
 6613SOL    HW120940   3.831   5.605   5.137  0.0249 -0.4853 -0.1678
 6613SOL    HW220941   3.873   5.474   5.200 -0.7882  0.1603  1.8111
 6614SOL     OW20942   2.626   7.248   7.002  0.3639  0.4536 -0.1526
 6614SOL    HW120943   2.559   7.310   7.029 -0.4370 -0.2722 -0.4312
 6614SOL    HW220944   2.630   7.257   6.906  0.5500  0.3806 -0.1529
 6615SOL     OW20945   0.869   4.862   8.272  0.1425 -1.0533  0.3068
 6615SOL    HW120946   0.952   4.891   8.312  0.9584 -2.2880 -0.4307
 6615SOL    HW220947   0.832   4.942   8.234  1.7756 -0.7243 -0.6934
 6616SOL     OW20948   2.160   8.377   1.628 -0.2763 -0.1554  0.2594
 6616SOL    HW120949   2.248   8.396   1.658  0.0497  0.1044 -0.8028
 6616SOL    HW220950   2.142   8.444   1.562 -0.6070 -1.1820 -0.7350
 6617SOL     OW20951   8.137   7.244   5.590  0.5084 -0.5459 -0.3430
 6617SOL    HW120952   8.180   7.193   5.521 -0.2078 -2.7490  0.7428
 6617SOL    HW220953   8.067   7.187   5.621 -0.3937  1.1736  0.9205
 6618SOL     OW20954   5.859   6.227   0.947  0.2465 -0.7889 -0.2167
 6618SOL    HW120955   5.920   6.300   0.962 -1.1324  0.3799 -0.0579
 6618SOL    HW220956   5.868   6.173   1.025  2.5083 -1.7519 -1.0651
 6619SOL     OW20957   8.222   8.508   7.819 -0.7549 -0.1024  0.2021
 6619SOL    HW120958   8.211   8.445   7.890  0.1460 -0.2776  0.2066
 6619SOL    HW220959   8.307   8.485   7.781  0.6506  2.4399  1.5727
 6620SOL     OW20960   8.650   0.976   0.555  0.0653 -0.4865  0.5117
 6620SOL    HW120961   8.582   1.043   0.567  1.2886  0.6257  1.7162
 6620SOL    HW220962   8.612   0.913   0.495 -2.1077 -0.0185  1.3067
 6621SOL     OW20963   8.188   3.556   6.678 -0.0608  0.0571 -0.0026
 6621SOL    HW120964   8.213   3.528   6.590 -0.3661 -0.4045  0.0536
 6621SOL    HW220965   8.261   3.610   6.708  0.2749 -0.2031 -0.3476
 6622SOL     OW20966   2.381   6.290   7.591  0.0227  0.2562  0.1576
 6622SOL    HW120967   2.453   6.317   7.535  1.0208 -0.8938  0.8437
 6622SOL    HW220968   2.348   6.372   7.629  0.3257  0.8841 -0.8832
 6623SOL     OW20969   6.355   8.617   3.911 -0.3497  0.2654  0.2736
 6623SOL    HW120970   6.429   8.600   3.853  0.0822 -0.9786  1.1751
 6623SOL    HW220971   6.340   8.712   3.902  1.6942  0.6542  0.5115
 6624SOL     OW20972   0.798   8.559   6.717  0.0473 -0.2795 -0.2458
 6624SOL    HW120973   0.748   8.574   6.797 -0.4027  0.0035 -0.5753
 6624SOL    HW220974   0.869   8.624   6.721  0.1264 -0.3774 -0.0008
 6625SOL     OW20975   6.753   4.367   1.382  0.3975  1.2406 -0.2945
 6625SOL    HW120976   6.847   4.350   1.389 -0.1849 -2.4655  1.2734
 6625SOL    HW220977   6.722   4.370   1.472 -1.4275 -1.9281 -0.6422
 6626SOL     OW20978   3.085   3.723   1.681 -0.2452  0.1661  0.2037
 6626SOL    HW120979   3.152   3.706   1.616  0.5524  0.3528  0.9607
 6626SOL    HW220980   3.093   3.816   1.702 -0.8549  0.2326  0.1862
 6627SOL     OW20981   0.201   0.782   2.662  0.3275  0.4683  0.1408
 6627SOL    HW120982   0.236   0.725   2.730  0.6635  0.2094 -0.2442
 6627SOL    HW220983   0.273   0.793   2.600 -0.7068 -1.3455 -1.4850
 6628SOL     OW20984   8.655   2.346   6.708 -0.1674 -0.0359  0.2062
 6628SOL    HW120985   8.743   2.326   6.740  0.0610  2.4507  1.3682
 6628SOL    HW220986   8.666   2.360   6.614  0.8853  1.1206  0.4721
 6629SOL     OW20987   4.272   0.934   8.330 -0.1742  0.7298  0.6233
 6629SOL    HW120988   4.312   0.906   8.412 -0.0266 -0.9259  0.0412
 6629SOL    HW220989   4.184   0.894   8.332 -0.7690  2.0050  0.6634
 6630SOL     OW20990   8.019   5.972   9.104  0.4998 -0.3407 -0.6439
 6630SOL    HW120991   7.970   6.035   9.051  1.1399 -0.2485 -1.1449
 6630SOL    HW220992   7.965   5.893   9.103  0.3295 -0.2267 -1.1514
 6631SOL     OW20993   1.953   8.511   5.782 -0.5456  0.2810 -0.5090
 6631SOL    HW120994   2.031   8.463   5.808  0.6494  2.2869 -0.1689
 6631SOL    HW220995   1.928   8.561   5.859  0.2809  2.7231 -1.6919
 6632SOL     OW20996   8.024   7.634   7.421  0.0809  0.4104  0.0018
 6632SOL    HW120997   8.047   7.551   7.381 -2.1762  0.5626 -1.7998
 6632SOL    HW220998   8.108   7.671   7.449  1.1237 -2.5224  1.1424
 6633SOL     OW20999   6.878   1.486   7.784  0.2277  1.3841 -0.8748
 6633SOL    HW121000   6.847   1.566   7.740 -1.4753  1.0987 -0.2989
 6633SOL    HW221001   6.950   1.515   7.839  0.9245  2.1540 -2.1491
 6634SOL     OW21002   8.040   1.248   4.004  0.3423  0.0483  0.6205
 6634SOL    HW121003   8.041   1.306   4.081 -0.6208 -1.4164  1.8073
 6634SOL    HW221004   8.121   1.197   4.011  0.4645  0.2111  0.4109
 6635SOL     OW21005   8.669   3.874   0.806  0.3617  0.0464  0.1212
 6635SOL    HW121006   8.694   3.965   0.824 -1.3211  0.1715  2.3412
 6635SOL    HW221007   8.747   3.835   0.767  2.6748  1.4043  2.9339
 6636SOL     OW21008   4.316   6.476   2.748 -0.0370 -0.0325 -0.1863
 6636SOL    HW121009   4.277   6.533   2.813 -1.9468 -1.2856 -0.1690
 6636SOL    HW221010   4.248   6.464   2.682  1.3620  0.0802 -1.7514
 6637SOL     OW21011   4.464   6.485   7.782  0.2380  0.0929  0.1871
 6637SOL    HW121012   4.532   6.420   7.768  1.0420  1.3094 -1.9584
 6637SOL    HW221013   4.496   6.538   7.855  1.3761  0.3382 -0.4668
 6638SOL     OW21014   9.011   5.936   7.909 -0.1740 -0.1646 -0.2384
 6638SOL    HW121015   8.983   5.850   7.939 -2.5014  0.6935  0.3065
 6638SOL    HW221016   9.025   5.926   7.815 -0.3336 -1.1494 -0.1686
 6639SOL     OW21017   8.885   7.175   7.589 -0.6930  0.2530 -0.4454
 6639SOL    HW121018   8.860   7.132   7.507  1.8022  0.6454 -1.5199
 6639SOL    HW221019   8.808   7.166   7.645 -1.5633 -2.4399 -1.8544
 6640SOL     OW21020   4.064   8.546   5.758  0.4998 -0.0412 -0.3187
 6640SOL    HW121021   4.044   8.473   5.816 -0.4674  0.1467 -0.4004
 6640SOL    HW221022   4.010   8.531   5.680 -0.4720  1.2506  0.0550
 6641SOL     OW21023   7.261   0.785   3.043  0.2437  0.1743 -0.4174
 6641SOL    HW121024   7.269   0.807   2.951  1.8133 -0.1050 -0.3824
 6641SOL    HW221025   7.300   0.859   3.089 -0.6316  0.3638  0.0314
 6642SOL     OW21026   6.578   7.406   5.001 -0.7133  0.3103  0.2168
 6642SOL    HW121027   6.671   7.410   5.021 -0.9909 -0.1254  1.7344
 6642SOL    HW221028   6.565   7.319   4.963 -0.5732  0.1673  0.4920
 6643SOL     OW21029   3.256   3.699   1.485  0.1107  0.0612 -0.4391
 6643SOL    HW121030   3.281   3.632   1.422  0.4526 -1.0279  0.8029
 6643SOL    HW221031   3.331   3.758   1.489  0.0082  0.2464 -1.1781
 6644SOL     OW21032   0.607   0.532   2.718  0.4859 -0.4582  0.1502
 6644SOL    HW121033   0.584   0.472   2.647  1.8197 -1.2439  0.3553
 6644SOL    HW221034   0.684   0.579   2.686  0.6411 -0.2791  0.7759
 6645SOL     OW21035   8.967   2.686   1.946 -0.3883  0.2425  1.0409
 6645SOL    HW121036   8.949   2.592   1.951  0.8695 -0.1314 -0.5631
 6645SOL    HW221037   9.056   2.695   1.979 -0.4467  0.8713  1.0383
 6646SOL     OW21038   1.098   6.155   0.086  0.7751 -0.1500  0.1092
 6646SOL    HW121039   1.121   6.171   0.178  1.2048 -3.3054  0.6803
 6646SOL    HW221040   1.021   6.098   0.091  1.2841 -1.0356 -1.4314
 6647SOL     OW21041   3.912   7.974   0.015  0.2063 -0.0541  0.3358
 6647SOL    HW121042   3.914   7.920   0.094 -1.3260  0.9021  1.0745
 6647SOL    HW221043   3.997   8.018   0.014  1.2519 -1.9793  0.0303
 6648SOL     OW21044   7.754   1.809   4.935  0.0052  0.3392 -0.0648
 6648SOL    HW121045   7.732   1.716   4.938  0.8207  0.0599 -1.6631
 6648SOL    HW221046   7.846   1.811   4.907 -0.5516  1.6395 -2.0348
 6649SOL     OW21047   1.976   2.192   8.205  0.1777 -0.1079  0.3676
 6649SOL    HW121048   2.060   2.176   8.247  0.5764  0.8300 -0.0418
 6649SOL    HW221049   1.928   2.247   8.267  0.7390  1.2172 -0.3198
 6650SOL     OW21050   4.004   7.138   8.375  0.1530  0.2434 -0.2056
 6650SOL    HW121051   3.934   7.197   8.347 -0.3487 -0.7003 -0.9554
 6650SOL    HW221052   4.033   7.175   8.459 -0.6957  1.1008 -0.2694
 6651SOL     OW21053   5.088   4.398   3.032 -0.3543 -0.2688  0.3467
 6651SOL    HW121054   5.035   4.465   2.990 -1.0188 -1.3151 -0.5450
 6651SOL    HW221055   5.071   4.409   3.126 -1.8339 -0.3089  0.1076
 6652SOL     OW21056   2.441   3.221   1.686  1.0236 -0.1377  0.1399
 6652SOL    HW121057   2.426   3.298   1.631 -1.4912 -0.7518 -0.1733
 6652SOL    HW221058   2.363   3.216   1.741  1.7573 -1.7051  1.1214
 6653SOL     OW21059   3.723   7.902   0.999 -0.5535  0.1196  0.0883
 6653SOL    HW121060   3.784   7.829   0.985 -1.3496 -1.0137  2.1275
 6653SOL    HW221061   3.636   7.862   0.996 -1.0377  1.1074  0.5057
 6654SOL     OW21062   5.051   1.657   1.976 -0.6936  0.4794 -0.0135
 6654SOL    HW121063   5.019   1.631   1.890 -0.6647  0.6872 -0.0872
 6654SOL    HW221064   5.036   1.752   1.980  0.2385  0.6447 -0.1932
 6655SOL     OW21065   7.834   5.107   3.809  0.4594  0.4472 -0.5116
 6655SOL    HW121066   7.793   5.184   3.770 -1.4164  0.6914  1.7428
 6655SOL    HW221067   7.883   5.141   3.884  0.8225 -0.4141 -0.3493
 6656SOL     OW21068   8.695   8.214   1.272 -0.4258 -0.1086  0.1329
 6656SOL    HW121069   8.645   8.293   1.291  1.1702  0.6491  1.3557
 6656SOL    HW221070   8.700   8.168   1.356  0.0811 -0.6907 -0.2087
 6657SOL     OW21071   6.939   8.484   3.969 -0.0588  0.2056  0.1797
 6657SOL    HW121072   7.034   8.472   3.976  0.3791  3.1904  0.9261
 6657SOL    HW221073   6.928   8.578   3.952 -2.8959 -0.0848 -0.1389
 6658SOL     OW21074   2.365   8.933   4.724  0.5293  0.2597 -0.1200
 6658SOL    HW121075   2.419   8.907   4.798  0.1653  1.1650  0.4849
 6658SOL    HW221076   2.355   8.853   4.672 -0.9417 -0.9913  1.8991
 6659SOL     OW21077   7.194   8.997   1.348  0.3297  0.3972  0.3497
 6659SOL    HW121078   7.150   9.042   1.276 -1.0461  0.1802  1.0193
 6659SOL    HW221079   7.198   9.063   1.418  0.7313  0.2898  0.4317
 6660SOL     OW21080   6.895   5.698   0.114 -0.7858 -0.4569 -0.2648
 6660SOL    HW121081   6.823   5.653   0.070 -1.4311 -0.7837  1.0799
 6660SOL    HW221082   6.878   5.685   0.207 -0.2160  1.3909  0.1265
 6661SOL     OW21083   1.861   5.799   8.785  0.5110 -0.2148  0.1850
 6661SOL    HW121084   1.914   5.850   8.846 -0.7317  0.6008  0.6198
 6661SOL    HW221085   1.881   5.836   8.699 -0.5078  1.1780  0.5122
 6662SOL     OW21086   8.555   1.361   5.790 -0.2114 -0.2088 -0.0010
 6662SOL    HW121087   8.644   1.383   5.818 -0.8722  0.7014  1.5744
 6662SOL    HW221088   8.529   1.290   5.848 -0.8957  0.3076  0.3419
 6663SOL     OW21089   4.785   8.333   0.865  0.0381 -0.0106 -0.0512
 6663SOL    HW121090   4.737   8.415   0.875  0.8868  0.5000 -0.0879
 6663SOL    HW221091   4.717   8.265   0.863 -0.6130  0.5687  1.2426
 6664SOL     OW21092   2.767   7.752   5.128  0.2512 -0.3915  0.0564
 6664SOL    HW121093   2.731   7.697   5.058  1.4432 -2.2285  0.8101
 6664SOL    HW221094   2.824   7.814   5.083  0.2403 -0.9032 -0.6747
 6665SOL     OW21095   6.801   4.067   5.467  0.3419 -0.1619  0.3506
 6665SOL    HW121096   6.816   3.977   5.442  0.3349 -0.6973  2.1112
 6665SOL    HW221097   6.709   4.083   5.445  0.6254 -0.2032 -0.9586
 6666SOL     OW21098   6.778   4.915   3.061  0.0354  0.5444  0.0187
 6666SOL    HW121099   6.830   4.837   3.080 -0.5063  0.0852 -0.3366
 6666SOL    HW221100   6.811   4.981   3.121 -1.2250 -0.6743  2.1841
 6667SOL     OW21101   3.366   1.169   8.079 -0.4121 -0.4542  0.4467
 6667SOL    HW121102   3.342   1.171   7.986  1.1475 -1.1772 -0.0155
 6667SOL    HW221103   3.381   1.076   8.097  1.8890 -0.0982  0.6694
 6668SOL     OW21104   7.813   3.438   6.455  0.3777  0.1872  0.1033
 6668SOL    HW121105   7.801   3.533   6.450 -1.3629  0.0280  0.7041
 6668SOL    HW221106   7.726   3.404   6.474  1.2277 -1.4205  1.3736
 6669SOL     OW21107   6.991   0.208   8.954 -0.2497 -0.1310 -0.3166
 6669SOL    HW121108   6.945   0.286   8.986 -0.7632 -1.0073  1.1765
 6669SOL    HW221109   7.083   0.233   8.954 -0.3446  0.2935  0.7793
 6670SOL     OW21110   6.674   8.801   2.093  0.0169 -0.5261  0.1265
 6670SOL    HW121111   6.697   8.837   2.007 -0.8617 -1.1245 -0.3843
 6670SOL    HW221112   6.746   8.826   2.150  0.5532  0.0027 -0.7587
 6671SOL     OW21113   7.651   5.558   1.965 -0.1657 -0.4366  0.2156
 6671SOL    HW121114   7.710   5.532   2.036 -0.1161 -1.6259 -0.2451
 6671SOL    HW221115   7.709   5.600   1.901 -0.2936  1.1976  1.1007
 6672SOL     OW21116   7.512   0.250   2.196 -0.6075 -0.9731 -0.0831
 6672SOL    HW121117   7.600   0.253   2.233 -0.6055  2.0592 -0.1063
 6672SOL    HW221118   7.524   0.275   2.105 -1.5325 -0.1000  0.0287
 6673SOL     OW21119   6.291   3.156   4.340 -0.0443 -0.4485 -0.3234
 6673SOL    HW121120   6.239   3.100   4.399 -2.3101  1.5646 -0.2379
 6673SOL    HW221121   6.352   3.202   4.398  2.0019 -2.8365 -0.4212
 6674SOL     OW21122   7.439   6.137   0.695  0.1472 -0.4514  0.4998
 6674SOL    HW121123   7.501   6.178   0.756 -1.9910  1.1027  1.7890
 6674SOL    HW221124   7.381   6.085   0.752 -2.0928  1.2754 -0.0422
 6675SOL     OW21125   0.603   5.934   7.407  0.1279  0.0678  0.0576
 6675SOL    HW121126   0.698   5.931   7.392  0.1487 -0.1737  0.2297
 6675SOL    HW221127   0.570   5.992   7.338  0.6246  1.6948  1.1178
 6676SOL     OW21128   4.048   0.068   3.621 -0.6746 -0.2563 -0.1719
 6676SOL    HW121129   4.000   0.151   3.621 -0.9499 -0.4138 -0.6061
 6676SOL    HW221130   4.125   0.085   3.567  1.0457  0.7154  2.4123
 6677SOL     OW21131   8.815   5.495   8.904  0.0880  0.2292  0.1111
 6677SOL    HW121132   8.734   5.453   8.873  0.2998  0.6677 -1.0929
 6677SOL    HW221133   8.785   5.561   8.966 -0.2777 -1.4024  1.7502
 6678SOL     OW21134   5.316   6.347   7.690  0.5418  0.2961 -0.2288
 6678SOL    HW121135   5.236   6.307   7.724 -0.7910  0.4775 -2.8694
 6678SOL    HW221136   5.340   6.412   7.756 -1.8177  0.6271  0.4191
 6679SOL     OW21137   1.667   7.135   6.961 -0.0992 -0.5167  0.4451
 6679SOL    HW121138   1.684   7.198   6.890 -0.9460 -1.1275 -0.3222
 6679SOL    HW221139   1.637   7.189   7.034  2.5187  0.3273  0.9994
 6680SOL     OW21140   8.985   0.540   1.311 -0.1491 -0.1934 -0.1356
 6680SOL    HW121141   8.983   0.463   1.368  0.0317  0.0237  0.1666
 6680SOL    HW221142   8.924   0.519   1.240 -0.2360 -0.5400  0.0412
 6681SOL     OW21143   3.959   3.158   7.718  0.3089 -0.2692  0.1609
 6681SOL    HW121144   3.906   3.232   7.685  0.9929 -0.4688 -1.4822
 6681SOL    HW221145   3.945   3.089   7.654  3.4630  0.0544 -1.0175
 6682SOL     OW21146   1.445   8.535   7.754 -0.0573  1.2423 -0.6605
 6682SOL    HW121147   1.472   8.620   7.718 -1.0099  2.5618  1.5076
 6682SOL    HW221148   1.479   8.471   7.692  1.5459  3.1465 -1.8941
 6683SOL     OW21149   0.296   7.240   6.383  0.4900  0.0547  0.0596
 6683SOL    HW121150   0.274   7.232   6.476  0.5235 -1.4940 -0.0402
 6683SOL    HW221151   0.332   7.328   6.374 -0.6248  0.6747  1.2766
 6684SOL     OW21152   8.875   7.403   0.889  0.3310  0.1630  0.3589
 6684SOL    HW121153   8.965   7.435   0.889  0.0487  1.0410 -0.7154
 6684SOL    HW221154   8.838   7.434   0.972  0.6002  1.0716  0.1450
 6685SOL     OW21155   7.183   8.173   5.182  0.6642 -0.3626  0.0526
 6685SOL    HW121156   7.219   8.096   5.226 -1.3859 -0.6735  1.2826
 6685SOL    HW221157   7.093   8.180   5.214  0.8835  2.8037  0.2978
 6686SOL     OW21158   1.074   1.367   3.360 -0.3379  0.1538  0.6597
 6686SOL    HW121159   1.005   1.400   3.417 -0.9123 -0.6925  0.4817
 6686SOL    HW221160   1.053   1.274   3.349 -2.3721  0.8749 -3.7855
 6687SOL     OW21161   6.220   3.309   1.481  0.9415  0.3749 -0.2509
 6687SOL    HW121162   6.250   3.221   1.456  1.1478  0.7339 -1.2890
 6687SOL    HW221163   6.127   3.309   1.461  0.8189  0.2167  0.2864
 6688SOL     OW21164   8.882   3.590   6.908 -0.5852  0.5660  0.8558
 6688SOL    HW121165   8.955   3.644   6.879 -0.8543 -0.0561 -1.1201
 6688SOL    HW221166   8.813   3.605   6.843 -0.7024 -1.9911  0.2622
 6689SOL     OW21167   6.567   7.964   6.064 -0.6340  0.2654 -0.3418
 6689SOL    HW121168   6.629   7.971   6.136 -0.5064 -0.5184 -0.3604
 6689SOL    HW221169   6.517   8.045   6.066 -1.1389 -0.0502  1.0977
 6690SOL     OW21170   3.031   2.093   6.673  0.2120 -0.2776 -0.4080
 6690SOL    HW121171   3.077   2.177   6.664 -0.2826 -0.2080 -3.2592
 6690SOL    HW221172   3.024   2.061   6.583 -2.6548 -1.7293  0.2437
 6691SOL     OW21173   9.089   3.975   3.929  0.4574  0.5198 -0.4266
 6691SOL    HW121174   9.087   3.906   3.996  1.8106  1.7821  0.9784
 6691SOL    HW221175   9.022   4.037   3.957  1.8382  1.6512  0.4890
 6692SOL     OW21176   8.549   4.472   4.373  0.2222  0.1624  0.7235
 6692SOL    HW121177   8.635   4.478   4.331 -0.3810  1.9523 -0.3525
 6692SOL    HW221178   8.565   4.500   4.464  0.7926  0.4139  0.5494
 6693SOL     OW21179   8.839   0.723   2.753 -0.3216  0.3538  0.1135
 6693SOL    HW121180   8.921   0.736   2.707 -0.2195  0.2163  0.2553
 6693SOL    HW221181   8.771   0.742   2.688 -0.2361  3.5009  0.7589
 6694SOL     OW21182   7.178   3.341   9.094  0.3169 -0.5765 -0.2602
 6694SOL    HW121183   7.175   3.256   9.136  0.5189  0.3647  1.7735
 6694SOL    HW221184   7.271   3.364   9.090  0.3033 -0.6292 -1.2362
 6695SOL     OW21185   8.744   5.543   8.395 -0.1384  0.0021 -0.3280
 6695SOL    HW121186   8.655   5.548   8.431 -0.3165 -0.7151 -0.6433
 6695SOL    HW221187   8.799   5.586   8.461 -0.2475 -2.5221  1.5808
 6696SOL     OW21188   8.969   7.774   8.181  0.3073  0.3794  0.6327
 6696SOL    HW121189   8.943   7.721   8.256  0.0919 -3.3831 -1.8524
 6696SOL    HW221190   9.061   7.752   8.166  0.1561  0.4890 -0.5808
 6697SOL     OW21191   3.223   1.498   8.998  0.0737  0.5762 -0.5147
 6697SOL    HW121192   3.301   1.497   9.053 -0.3699  1.2555  0.1423
 6697SOL    HW221193   3.160   1.442   9.044  0.8795 -1.8963 -2.1790
 6698SOL     OW21194   4.501   8.362   5.597 -0.2526  0.2376 -0.5479
 6698SOL    HW121195   4.474   8.446   5.561 -0.0242  0.6978  0.3321
 6698SOL    HW221196   4.428   8.336   5.654 -0.8864 -0.7765 -1.7483
 6699SOL     OW21197   8.193   5.011   6.635 -0.1807  0.1449  0.0705
 6699SOL    HW121198   8.260   4.952   6.668 -1.6207 -1.4201  0.3298
 6699SOL    HW221199   8.115   4.990   6.685 -1.4495  0.3684 -1.7073
 6700SOL     OW21200   3.580   1.404   2.601 -0.0516 -0.1664  0.5362
 6700SOL    HW121201   3.627   1.398   2.684  1.7603  1.0997 -0.3430
 6700SOL    HW221202   3.549   1.495   2.597 -0.9114 -0.4632  0.2254
 6701SOL     OW21203   6.136   6.594   6.213  0.6107  0.1984  0.5303
 6701SOL    HW121204   6.191   6.547   6.150 -0.2599 -0.4536  0.2470
 6701SOL    HW221205   6.169   6.684   6.209  0.6425  0.1592 -0.7991
 6702SOL     OW21206   0.873   8.217   5.081  0.7245  0.1978  0.5390
 6702SOL    HW121207   0.937   8.233   5.012  1.3848 -0.4629  0.9880
 6702SOL    HW221208   0.856   8.123   5.077  0.0435  0.3054  0.6590
 6703SOL     OW21209   2.753   5.373   7.872  0.5157  0.4848 -0.4717
 6703SOL    HW121210   2.834   5.403   7.913  0.8826  0.7113 -1.3484
 6703SOL    HW221211   2.685   5.428   7.911  0.9544  1.2104 -0.7146
 6704SOL     OW21212   4.807   6.001   9.023 -0.0827  0.6273  0.1636
 6704SOL    HW121213   4.878   5.981   9.085 -1.0286  0.9456  1.4019
 6704SOL    HW221214   4.839   5.970   8.939  1.3668  0.4113  0.7610
 6705SOL     OW21215   1.476   4.347   9.130  0.3458 -0.5262 -0.4967
 6705SOL    HW121216   1.443   4.268   9.086 -2.9017  0.7246 -0.5407
 6705SOL    HW221217   1.464   4.417   9.066  2.1958  0.2466 -0.0681
 6706SOL     OW21218   6.690   1.426   5.387 -0.1813 -0.4571 -0.2526
 6706SOL    HW121219   6.673   1.392   5.299 -2.1012  0.5125 -0.3147
 6706SOL    HW221220   6.685   1.349   5.444 -1.2806 -0.7614 -0.7400
 6707SOL     OW21221   7.294   2.811   6.177 -0.1309 -0.5322  0.0281
 6707SOL    HW121222   7.356   2.739   6.178 -0.9652 -1.3030 -1.2335
 6707SOL    HW221223   7.298   2.847   6.088 -0.3997  0.3857  0.3670
 6708SOL     OW21224   5.227   4.840   5.682 -0.0655 -0.0929 -0.0051
 6708SOL    HW121225   5.280   4.920   5.671  2.8441 -1.6844  1.2666
 6708SOL    HW221226   5.146   4.859   5.636  0.3666  3.6974  0.4444
 6709SOL     OW21227   1.789   8.228   7.447  0.6480  0.6815 -0.2735
 6709SOL    HW121228   1.776   8.164   7.518  1.6665 -0.3912 -1.0088
 6709SOL    HW221229   1.782   8.176   7.367 -1.7980  2.0953 -1.0770
 6710SOL     OW21230   6.010   5.551   5.373  0.0898 -0.1119 -0.0687
 6710SOL    HW121231   6.084   5.507   5.415  0.5428  0.7049  0.0140
 6710SOL    HW221232   6.005   5.512   5.286 -1.3590 -2.4053  0.9435
 6711SOL     OW21233   2.169   8.821   2.110 -0.5081 -0.6706  0.2620
 6711SOL    HW121234   2.248   8.779   2.144  0.0538 -0.8963 -1.2626
 6711SOL    HW221235   2.097   8.772   2.151  0.1020 -0.1859  2.0018
 6712SOL     OW21236   5.439   6.062   4.344 -0.6005  0.3082 -0.1064
 6712SOL    HW121237   5.390   6.084   4.423 -1.6592 -0.0935 -0.6388
 6712SOL    HW221238   5.378   6.011   4.290 -0.0893  1.0079 -1.4105
 6713SOL     OW21239   8.496   6.622   8.255  0.0537 -0.3617  0.4205
 6713SOL    HW121240   8.588   6.649   8.259 -0.2377  0.7131  0.1445
 6713SOL    HW221241   8.461   6.665   8.178 -1.1515  0.7785  1.5532
 6714SOL     OW21242   4.674   3.545   6.706  0.1961  0.1527  0.2707
 6714SOL    HW121243   4.656   3.624   6.757 -1.2873  0.5069 -0.7307
 6714SOL    HW221244   4.637   3.473   6.758 -1.7272  0.5603 -0.4233
 6715SOL     OW21245   1.761   6.376   3.257  0.0391 -0.0939 -0.5352
 6715SOL    HW121246   1.760   6.333   3.342 -1.9827 -0.1706 -0.5454
 6715SOL    HW221247   1.810   6.317   3.200 -2.9489 -2.7469 -0.6601
 6716SOL     OW21248   1.388   6.278   0.681  0.1092  0.0806  0.6283
 6716SOL    HW121249   1.374   6.186   0.702 -0.4587  0.2799  1.1460
 6716SOL    HW221250   1.482   6.285   0.663 -0.0572 -0.8501 -0.7291
 6717SOL     OW21251   0.375   8.043   5.374 -0.0374 -0.1247  0.1005
 6717SOL    HW121252   0.400   8.088   5.454  0.7036 -0.0218 -0.1820
 6717SOL    HW221253   0.318   7.972   5.403 -1.8429  1.3892  0.5097
 6718SOL     OW21254   5.777   7.027   3.321  0.2295  0.3485  0.5133
 6718SOL    HW121255   5.865   7.043   3.289 -0.2218  1.2714 -0.3217
 6718SOL    HW221256   5.788   7.007   3.414  1.4663 -1.3581  0.0547
 6719SOL     OW21257   5.671   0.340   7.893  0.3123 -0.0136 -0.1349
 6719SOL    HW121258   5.618   0.300   7.963  0.6360 -0.2567 -0.0267
 6719SOL    HW221259   5.645   0.432   7.893 -1.5745 -0.4858 -1.3978
 6720SOL     OW21260   8.543   1.192   2.764  0.0037 -0.5271 -0.4611
 6720SOL    HW121261   8.571   1.264   2.708 -0.0772 -0.5314 -0.5075
 6720SOL    HW221262   8.612   1.184   2.830 -0.8129  0.7463  0.6137
 6721SOL     OW21263   5.441   2.135   1.133  0.4899  0.0148 -0.7886
 6721SOL    HW121264   5.376   2.200   1.161  1.8487  1.1829 -0.2330
 6721SOL    HW221265   5.448   2.074   1.206  0.3530  0.1512 -0.6617
 6722SOL     OW21266   5.197   6.072   3.009 -0.2103  0.0310  0.2333
 6722SOL    HW121267   5.246   6.090   2.929 -0.2340 -0.9688 -0.0200
 6722SOL    HW221268   5.242   6.122   3.077 -0.1176  0.7891 -0.3763
 6723SOL     OW21269   7.070   5.833   3.181  0.3030  0.0368  0.2076
 6723SOL    HW121270   7.159   5.813   3.153 -0.1027 -0.4538 -0.7831
 6723SOL    HW221271   7.055   5.776   3.256  0.6689 -0.2193  0.0898
 6724SOL     OW21272   5.603   4.036   1.660 -0.5852  0.1245  0.2361
 6724SOL    HW121273   5.532   4.093   1.632  0.5986  0.7190 -1.7095
 6724SOL    HW221274   5.563   3.949   1.666 -1.3183  0.2982 -1.6330
 6725SOL     OW21275   7.527   0.381   4.938 -0.7886  0.3624 -0.8064
 6725SOL    HW121276   7.577   0.451   4.981 -0.8009  0.0452 -0.2663
 6725SOL    HW221277   7.438   0.391   4.973 -1.0740  0.8272 -1.6453
 6726SOL     OW21278   4.414   8.671   0.744  0.1381  0.0933  0.5232
 6726SOL    HW121279   4.385   8.581   0.727  1.7486 -0.2921 -0.4381
 6726SOL    HW221280   4.394   8.719   0.664  1.8691 -0.1377 -0.0865
 6727SOL     OW21281   3.886   1.253   0.551  0.4836 -0.3875 -0.4558
 6727SOL    HW121282   3.959   1.300   0.511  1.9227 -0.6843  1.6479
 6727SOL    HW221283   3.812   1.312   0.542  1.7776  1.4611  0.3378
 6728SOL     OW21284   1.211   0.955   7.711 -0.2614  0.3000  0.0538
 6728SOL    HW121285   1.140   0.982   7.652 -1.5439 -0.6612  1.0969
 6728SOL    HW221286   1.195   0.862   7.727 -0.9487  0.8522  3.1806
 6729SOL     OW21287   5.755   5.353   5.199 -0.0564  0.0980 -0.4739
 6729SOL    HW121288   5.726   5.263   5.186  0.9226 -0.2101 -0.6331
 6729SOL    HW221289   5.811   5.372   5.123 -2.5095  1.8510 -1.9848
 6730SOL     OW21290   4.921   4.994   1.995 -0.0422 -0.0117 -0.5420
 6730SOL    HW121291   4.885   4.982   1.907 -2.2195  0.5326  0.2198
 6730SOL    HW221292   4.867   4.938   2.051  2.8788 -2.3438  0.2044
 6731SOL     OW21293   0.125   4.207   0.540 -0.6660 -0.4505  0.4752
 6731SOL    HW121294   0.157   4.119   0.523  0.5555 -0.0789  0.7904
 6731SOL    HW221295   0.139   4.254   0.458  0.6231 -0.0038  0.9253
 6732SOL     OW21296   5.804   3.023   6.388 -0.0965  0.7187  0.1685
 6732SOL    HW121297   5.898   3.024   6.404  0.1551 -1.3325 -0.8220
 6732SOL    HW221298   5.765   3.016   6.475  0.7918 -0.6761  0.4922
 6733SOL     OW21299   7.989   2.849   6.425  0.2399 -0.7530 -0.4300
 6733SOL    HW121300   7.967   2.941   6.435 -1.5419 -1.1844  0.1450
 6733SOL    HW221301   8.007   2.818   6.514 -0.0298 -1.1354 -0.5032
 6734SOL     OW21302   5.871   8.546   3.012  0.3178  0.6381  0.4676
 6734SOL    HW121303   5.813   8.515   3.082  1.1593  0.0920  0.9427
 6734SOL    HW221304   5.824   8.620   2.973 -0.6976  0.2089  0.8258
 6735SOL     OW21305   5.560   9.053   7.859  0.5916  0.1639  0.2747
 6735SOL    HW121306   5.627   9.116   7.836  0.0704  0.6688  0.1326
 6735SOL    HW221307   5.477   9.098   7.842  0.2150 -0.2992  0.8542
 6736SOL     OW21308   5.209   7.354   2.978 -0.8782  0.1729  0.4456
 6736SOL    HW121309   5.133   7.305   3.010 -0.8173 -1.2499 -1.4397
 6736SOL    HW221310   5.273   7.347   3.049 -1.2590 -1.6372  0.6511
 6737SOL     OW21311   0.486   8.891   6.441  0.3459  0.4873 -0.1466
 6737SOL    HW121312   0.558   8.870   6.501  1.1500  0.3500 -1.1293
 6737SOL    HW221313   0.412   8.912   6.498  0.9101 -0.2447  0.8876
 6738SOL     OW21314   5.379   2.951   2.678 -0.4505  0.7089  0.1747
 6738SOL    HW121315   5.367   2.862   2.712  1.8501  0.4201  0.3920
 6738SOL    HW221316   5.320   3.005   2.730  0.2618 -0.2888  2.1206
 6739SOL     OW21317   6.690   5.158   0.731 -0.2848 -0.1636 -0.6495
 6739SOL    HW121318   6.628   5.093   0.697  0.3251  0.4151 -3.0414
 6739SOL    HW221319   6.727   5.117   0.809 -0.2571 -2.5128 -1.8221
 6740SOL     OW21320   5.300   6.527   2.402  0.3016 -0.0616  0.3873
 6740SOL    HW121321   5.393   6.510   2.419  0.8228  0.6046 -1.4405
 6740SOL    HW221322   5.253   6.466   2.458  1.8698 -0.8667  0.8885
 6741SOL     OW21323   0.290   8.042   0.851 -0.3426  0.2991  0.7758
 6741SOL    HW121324   0.229   7.968   0.853  1.2796 -1.1002  2.6135
 6741SOL    HW221325   0.250   8.107   0.909 -1.6510  0.8291 -0.6452
 6742SOL     OW21326   0.341   1.904   1.403  0.2433  0.5089 -0.0561
 6742SOL    HW121327   0.394   1.827   1.427 -0.7539  0.1740  1.2135
 6742SOL    HW221328   0.334   1.899   1.308  1.5953 -0.0279 -0.1550
 6743SOL     OW21329   2.600   3.538   0.531 -0.1720 -0.1572 -0.7593
 6743SOL    HW121330   2.667   3.472   0.516  0.9621  1.1312 -1.6222
 6743SOL    HW221331   2.590   3.582   0.447 -2.0925 -0.2611 -0.6486
 6744SOL     OW21332   6.052   0.161   8.655 -0.1036 -0.4159 -0.8775
 6744SOL    HW121333   5.967   0.177   8.615 -1.6038 -3.1606  0.9561
 6744SOL    HW221334   6.088   0.086   8.608 -0.5083 -1.7098  0.7742
 6745SOL     OW21335   3.257   3.664   4.041 -0.0072 -0.4318  0.4047
 6745SOL    HW121336   3.320   3.722   4.084 -0.7620 -0.3396  1.4389
 6745SOL    HW221337   3.256   3.693   3.950 -0.1061  0.9610  0.8246
 6746SOL     OW21338   8.726   0.299   8.908 -0.1031 -0.3896 -0.3143
 6746SOL    HW121339   8.677   0.305   8.826 -0.9281  0.4033  0.2110
 6746SOL    HW221340   8.804   0.250   8.886  0.9568  1.9357 -2.2085
 6747SOL     OW21341   7.509   3.709   7.735 -0.6892  0.1176 -0.0430
 6747SOL    HW121342   7.576   3.751   7.789  0.2857  1.0350 -1.8799
 6747SOL    HW221343   7.438   3.688   7.796  0.4398  0.9184  1.5990
 6748SOL     OW21344   1.006   3.297   7.825 -0.0427 -0.4776 -0.5605
 6748SOL    HW121345   0.950   3.267   7.753  0.8016 -1.8622 -0.6712
 6748SOL    HW221346   1.090   3.255   7.810  0.9057  1.1631 -0.0959
 6749SOL     OW21347   2.969   3.272   0.625 -0.2207  0.1282  0.0955
 6749SOL    HW121348   3.063   3.276   0.639  0.1768  0.5914 -2.3231
 6749SOL    HW221349   2.934   3.345   0.677  0.7952  0.2958  0.5672
 6750SOL     OW21350   1.749   3.263   7.737 -0.0308  0.0750 -0.3644
 6750SOL    HW121351   1.665   3.282   7.696 -0.5626 -1.1149  0.1243
 6750SOL    HW221352   1.746   3.311   7.820 -1.2191 -1.7084  0.6998
 6751SOL     OW21353   4.679   2.396   4.323  0.3791  0.1431 -0.1598
 6751SOL    HW121354   4.583   2.397   4.328  0.4308 -0.4252  2.3404
 6751SOL    HW221355   4.700   2.310   4.286 -0.0901 -0.5600  1.1232
 6752SOL     OW21356   1.854   5.523   1.606  0.3404 -0.1174 -0.3733
 6752SOL    HW121357   1.870   5.616   1.623 -1.9854  0.2662  0.1955
 6752SOL    HW221358   1.931   5.478   1.640  1.2438  1.5516 -0.1095
 6753SOL     OW21359   4.402   7.108   8.956  0.1889  0.8155  0.3078
 6753SOL    HW121360   4.456   7.076   9.028  0.1808  0.3139  0.0926
 6753SOL    HW221361   4.416   7.046   8.885 -2.0709 -0.3961  0.8199
 6754SOL     OW21362   7.944   3.416   7.042 -0.1874  0.4340 -0.1897
 6754SOL    HW121363   7.988   3.500   7.029  1.2648 -0.3857 -0.9572
 6754SOL    HW221364   8.015   3.357   7.070 -1.4124 -0.2420  1.7087
 6755SOL     OW21365   7.194   4.239   0.075 -0.0104 -0.1067 -0.3831
 6755SOL    HW121366   7.185   4.271   0.165 -1.1123 -0.0108 -0.5167
 6755SOL    HW221367   7.200   4.144   0.084  0.3321 -0.0707 -0.1898
 6756SOL     OW21368   2.923   2.127   8.508 -0.1000 -0.1738  0.0482
 6756SOL    HW121369   2.853   2.189   8.529 -1.0100 -1.3289  0.5503
 6756SOL    HW221370   2.965   2.163   8.431 -0.9240  0.8172  0.0442
 6757SOL     OW21371   2.884   6.106   8.456  0.1748  0.3471 -0.1608
 6757SOL    HW121372   2.940   6.030   8.441  0.2691  0.2170  0.7846
 6757SOL    HW221373   2.934   6.180   8.422  0.7369  0.1731  0.2660
 6758SOL     OW21374   5.477   6.364   0.616  0.0207  0.4009  0.3371
 6758SOL    HW121375   5.479   6.385   0.523  1.2102  2.2409  0.7327
 6758SOL    HW221376   5.545   6.297   0.627 -0.5641 -0.2963 -0.1931
 6759SOL     OW21377   1.897   7.781   2.234 -0.2513 -0.0512 -0.2265
 6759SOL    HW121378   1.907   7.860   2.287  0.2200 -0.8514  0.9174
 6759SOL    HW221379   1.871   7.813   2.147  2.3719  1.5323 -0.5194
 6760SOL     OW21380   5.909   2.825   5.244 -0.1487 -0.0130 -0.3793
 6760SOL    HW121381   5.983   2.881   5.270 -0.7664  0.9769 -0.6897
 6760SOL    HW221382   5.941   2.736   5.256  0.6616  0.4013  0.7283
 6761SOL     OW21383   5.824   4.474   9.074  0.3204  0.3733 -0.3346
 6761SOL    HW121384   5.874   4.488   9.154  1.0645  0.2157 -0.7601
 6761SOL    HW221385   5.889   4.447   9.009 -0.1427  1.2574 -1.2038
 6762SOL     OW21386   5.840   4.190   7.104  0.2270 -0.6017 -0.2587
 6762SOL    HW121387   5.797   4.146   7.178 -1.0697  0.7060 -0.1764
 6762SOL    HW221388   5.832   4.128   7.032 -1.2279 -0.7061 -0.0499
 6763SOL     OW21389   5.834   3.080   6.696  0.1196  0.6554 -0.0664
 6763SOL    HW121390   5.862   3.172   6.696 -2.9107  1.7144  1.3254
 6763SOL    HW221391   5.827   3.057   6.788 -1.8229 -0.0144 -0.3316
 6764SOL     OW21392   2.746   3.936   0.821 -0.3646  0.9638 -0.0487
 6764SOL    HW121393   2.658   3.948   0.786 -0.7241 -1.5751 -0.1450
 6764SOL    HW221394   2.786   3.870   0.765  1.6267  1.9941  0.0275
 6765SOL     OW21395   1.303   6.191   4.234 -0.1481 -0.1181  0.0834
 6765SOL    HW121396   1.294   6.107   4.189 -0.6283  0.3946 -0.8098
 6765SOL    HW221397   1.336   6.168   4.321  2.6033 -1.0011 -1.0962
 6766SOL     OW21398   1.344   2.627   5.879  0.3817 -0.2187  0.0547
 6766SOL    HW121399   1.378   2.600   5.794 -0.0134 -1.0330  0.1444
 6766SOL    HW221400   1.255   2.656   5.861 -0.1587 -1.6054  0.3615
 6767SOL     OW21401   4.165   0.465   1.779 -0.4495 -0.5972 -0.9025
 6767SOL    HW121402   4.173   0.421   1.863 -3.2805  0.3448 -0.0309
 6767SOL    HW221403   4.141   0.396   1.717 -0.5154 -0.9618 -0.4736
 6768SOL     OW21404   4.728   7.146   9.032  0.4972 -0.0492  0.0871
 6768SOL    HW121405   4.736   7.239   9.012 -0.0084 -0.4094 -2.0822
 6768SOL    HW221406   4.811   7.108   9.004  0.1516 -0.4324 -0.4614
 6769SOL     OW21407   3.840   3.610   2.297 -0.1263  0.4990 -0.2690
 6769SOL    HW121408   3.919   3.557   2.310 -0.3105  0.2813 -0.0205
 6769SOL    HW221409   3.854   3.653   2.213 -0.3675 -0.6617 -0.9322
 6770SOL     OW21410   6.512   0.060   8.717  0.4619 -0.4748 -0.3174
 6770SOL    HW121411   6.533   0.125   8.650 -0.6929  0.2493 -0.0000
 6770SOL    HW221412   6.586   0.063   8.778 -0.0252  1.2829  0.2413
 6771SOL     OW21413   7.233   8.326   1.345  0.0269 -0.5655 -0.2933
 6771SOL    HW121414   7.183   8.390   1.395 -1.0149 -0.6654 -1.1606
 6771SOL    HW221415   7.322   8.331   1.381 -0.3990  0.2326  0.7035
 6772SOL     OW21416   5.816   6.493   3.452  0.4536  0.6945 -0.1584
 6772SOL    HW121417   5.737   6.452   3.488  0.8875  0.7165  0.8434
 6772SOL    HW221418   5.811   6.475   3.358  0.6461 -1.7420  0.2248
 6773SOL     OW21419   0.667   0.361   2.921 -0.0033  0.7618  0.0216
 6773SOL    HW121420   0.633   0.405   2.843  0.4300  0.7780 -0.1554
 6773SOL    HW221421   0.599   0.377   2.988 -0.9016 -0.1768 -0.6336
 6774SOL     OW21422   3.152   5.530   5.365 -0.3134 -0.5406 -0.8415
 6774SOL    HW121423   3.131   5.454   5.420  2.8143 -2.6670 -2.2568
 6774SOL    HW221424   3.138   5.605   5.422 -0.6778 -2.3669  1.6633
 6775SOL     OW21425   5.060   4.073   7.976  0.3750  0.0914 -0.4119
 6775SOL    HW121426   5.015   4.137   7.920  0.1414  0.1600 -0.1465
 6775SOL    HW221427   5.106   4.016   7.914  0.2507  0.2674 -0.6688
 6776SOL     OW21428   4.151   8.768   7.653 -0.1214 -0.2299 -0.2503
 6776SOL    HW121429   4.238   8.761   7.612  0.1955  2.9808 -0.3706
 6776SOL    HW221430   4.158   8.716   7.733  1.7346 -0.4357 -0.4931
 6777SOL     OW21431   1.100   2.586   3.537  0.3452  0.7738  0.2697
 6777SOL    HW121432   1.114   2.524   3.465 -1.1170  0.8670 -0.1337
 6777SOL    HW221433   1.073   2.531   3.611 -1.3389  0.9069 -0.1976
 6778SOL     OW21434   7.538   7.189   6.848 -0.1080 -0.4929  0.4078
 6778SOL    HW121435   7.446   7.167   6.862 -0.2400 -0.1021  0.1645
 6778SOL    HW221436   7.562   7.244   6.922 -0.8383  1.6685 -0.8569
 6779SOL     OW21437   6.872   2.116   4.053 -0.0139 -0.2611 -0.0638
 6779SOL    HW121438   6.945   2.057   4.073 -0.1952 -0.9135 -1.2027
 6779SOL    HW221439   6.915   2.198   4.027  0.2567 -0.1134  0.8050
 6780SOL     OW21440   7.468   4.328   1.342  0.1410 -0.0558 -0.2303
 6780SOL    HW121441   7.431   4.366   1.421 -1.7002 -0.2866 -0.9186
 6780SOL    HW221442   7.530   4.394   1.310  1.5307 -0.3229  1.8026
 6781SOL     OW21443   8.018   5.401   5.452  0.0961 -0.3376  0.0478
 6781SOL    HW121444   8.095   5.374   5.501  0.4522  0.0819 -0.2624
 6781SOL    HW221445   8.022   5.350   5.371  0.6472  0.4525 -0.4395
 6782SOL     OW21446   1.822   0.894   2.225  0.3952  0.3995  0.0836
 6782SOL    HW121447   1.775   0.862   2.147  1.0313  1.3632 -0.7114
 6782SOL    HW221448   1.834   0.816   2.278  0.7397 -0.4614 -1.2018
 6783SOL     OW21449   5.328   7.553   5.071 -0.3415 -0.6643 -0.2212
 6783SOL    HW121450   5.408   7.594   5.105 -1.7591  1.3978  0.8120
 6783SOL    HW221451   5.325   7.579   4.979 -0.0699 -0.3276 -0.1388
 6784SOL     OW21452   5.918   0.561   2.706  0.1869  0.5831 -0.2047
 6784SOL    HW121453   5.843   0.613   2.735  0.2847  0.5407  0.1237
 6784SOL    HW221454   5.910   0.560   2.610 -0.8750 -0.3537 -0.1384
 6785SOL     OW21455   6.984   5.278   4.742 -0.1699  0.0190  0.6707
 6785SOL    HW121456   7.032   5.208   4.786  0.3134  0.5830  1.0507
 6785SOL    HW221457   6.973   5.345   4.809  0.4588  0.8417 -0.0232
 6786SOL     OW21458   4.826   0.324   6.776 -0.1822 -0.3341 -0.6806
 6786SOL    HW121459   4.748   0.364   6.815  1.6558  1.5187  1.3440
 6786SOL    HW221460   4.802   0.232   6.764 -3.0532  0.3878 -1.3091
 6787SOL     OW21461   5.728   8.711   5.015 -0.1379 -0.0094 -0.2659
 6787SOL    HW121462   5.754   8.630   5.060 -1.9086 -0.6525 -0.3268
 6787SOL    HW221463   5.792   8.776   5.044 -0.2520 -0.7971  1.9206
 6788SOL     OW21464   0.884   3.647   0.783  0.5496  0.1494  0.4324
 6788SOL    HW121465   0.953   3.632   0.848  2.4028  2.7095 -0.7849
 6788SOL    HW221466   0.825   3.710   0.825 -0.6095 -1.3367  1.1192
 6789SOL     OW21467   0.632   1.509   5.505  0.1984 -0.3435  0.2231
 6789SOL    HW121468   0.555   1.455   5.519  0.0239 -0.4196 -0.9805
 6789SOL    HW221469   0.702   1.463   5.553 -0.5766  0.0056  1.7583
 6790SOL     OW21470   8.381   4.205   4.403  0.2057  0.2048  0.1132
 6790SOL    HW121471   8.419   4.253   4.476  0.2889 -1.2624  1.0830
 6790SOL    HW221472   8.308   4.156   4.441  0.6361 -1.0758 -0.6389
 6791SOL     OW21473   6.395   8.918   7.482  0.3910 -0.1825  0.0234
 6791SOL    HW121474   6.350   8.959   7.556  0.6339  0.2675 -0.0742
 6791SOL    HW221475   6.413   8.829   7.512 -0.8397 -0.4776 -0.0562
 6792SOL     OW21476   7.267   1.086   0.358 -0.2392  0.1296 -0.0513
 6792SOL    HW121477   7.217   1.164   0.383  2.7888  2.4904 -0.8035
 6792SOL    HW221478   7.278   1.092   0.263  0.8471 -0.6848 -0.0104
 6793SOL     OW21479   8.695   4.740   1.754 -0.3874 -0.3882  0.5037
 6793SOL    HW121480   8.624   4.678   1.769  1.0744 -2.9488 -2.1724
 6793SOL    HW221481   8.770   4.686   1.731  1.2817  2.3272 -0.9315
 6794SOL     OW21482   5.576   5.510   5.308  0.1926 -0.3559 -0.5405
 6794SOL    HW121483   5.501   5.491   5.252 -1.3524 -1.2878  1.6928
 6794SOL    HW221484   5.645   5.452   5.276 -1.4245 -2.7278  0.0005
 6795SOL     OW21485   1.306   6.956   8.642  0.0282 -0.2014  0.3292
 6795SOL    HW121486   1.307   6.912   8.557  2.9630  0.3827 -0.0288
 6795SOL    HW221487   1.326   6.887   8.705  1.5475 -0.0069  0.0981
 6796SOL     OW21488   8.747   4.277   1.312  0.1600  0.1443 -0.4706
 6796SOL    HW121489   8.723   4.187   1.287 -1.2052  0.5136 -0.5283
 6796SOL    HW221490   8.822   4.265   1.371 -1.4974 -1.2083  1.5014
 6797SOL     OW21491   2.803   3.560   5.920  0.0292 -0.2366 -0.1460
 6797SOL    HW121492   2.778   3.473   5.950 -1.7489  0.7235  1.3896
 6797SOL    HW221493   2.891   3.574   5.954  0.3181 -1.4080 -0.3922
 6798SOL     OW21494   8.842   8.027   2.921 -0.4604  0.3294  0.3118
 6798SOL    HW121495   8.805   8.080   2.991 -0.2214  0.0755  0.6278
 6798SOL    HW221496   8.873   8.090   2.856  0.1798  0.5825  0.8630
 6799SOL     OW21497   5.088   1.640   0.490  0.3153  0.1564 -0.3990
 6799SOL    HW121498   5.010   1.691   0.469  0.0106 -0.2459 -0.2514
 6799SOL    HW221499   5.143   1.699   0.541  0.1471  0.4723 -0.5868
 6800SOL     OW21500   2.597   7.137   3.467  0.0422  0.2449 -0.2181
 6800SOL    HW121501   2.582   7.231   3.479 -2.3797 -0.3546  2.8104
 6800SOL    HW221502   2.692   7.127   3.462  0.5494  2.6351  2.4268
 6801SOL     OW21503   4.770   5.863   6.415  0.2363  0.0196 -0.3504
 6801SOL    HW121504   4.843   5.918   6.443 -1.0748  0.5415  2.3364
 6801SOL    HW221505   4.725   5.840   6.496 -2.3912 -0.5818 -1.8791
 6802SOL     OW21506   7.351   8.599   5.384  0.1624 -0.2429  0.0143
 6802SOL    HW121507   7.320   8.521   5.430 -2.9974 -0.5610 -2.3503
 6802SOL    HW221508   7.291   8.610   5.310  2.4946  2.5424 -1.7157
 6803SOL     OW21509   7.200   5.793   7.029  0.2467 -0.4272 -0.0954
 6803SOL    HW121510   7.136   5.864   7.024 -0.9814 -1.5156 -0.4882
 6803SOL    HW221511   7.285   5.835   7.019 -0.5251  0.8306 -1.6130
 6804SOL     OW21512   3.241   4.861   8.684 -0.1100 -0.1122  0.1593
 6804SOL    HW121513   3.269   4.820   8.602 -0.4513  1.0338 -0.5700
 6804SOL    HW221514   3.240   4.790   8.748  0.3520 -1.0000 -0.7818
 6805SOL     OW21515   8.193   6.707   3.951  0.1143 -0.0047  0.3932
 6805SOL    HW121516   8.286   6.701   3.975 -0.0157  0.4185  1.0441
 6805SOL    HW221517   8.190   6.681   3.859  0.7968 -0.6107  0.5301
 6806SOL     OW21518   4.299   6.111   3.199 -0.1122  0.5251 -0.0956
 6806SOL    HW121519   4.207   6.094   3.221 -0.8367 -0.0556 -3.0707
 6806SOL    HW221520   4.333   6.026   3.171  0.6214  1.1549 -1.1999
 6807SOL     OW21521   2.113   2.565   5.433 -0.3239  0.1572  0.5091
 6807SOL    HW121522   2.203   2.587   5.409 -1.5579  2.4173 -2.8901
 6807SOL    HW221523   2.095   2.618   5.510  1.0495  0.1367  0.8744
 6808SOL     OW21524   0.787   3.310   6.377 -0.0863 -0.3080 -0.2911
 6808SOL    HW121525   0.777   3.404   6.387  0.4356 -0.1730 -0.9919
 6808SOL    HW221526   0.839   3.283   6.452 -0.0901 -0.0169 -0.1834
 6809SOL     OW21527   2.641   6.304   2.362 -0.0573  0.5066 -0.4630
 6809SOL    HW121528   2.608   6.390   2.338  0.7481  0.9089 -0.1503
 6809SOL    HW221529   2.736   6.309   2.347  0.0477 -0.2090 -0.1041
 6810SOL     OW21530   3.267   4.779   5.896  0.1769 -0.3758  0.1226
 6810SOL    HW121531   3.329   4.742   5.959  0.7206  1.2393  0.5844
 6810SOL    HW221532   3.263   4.873   5.918 -2.3470 -0.3874  0.0313
 6811SOL     OW21533   4.212   2.963   0.090 -0.4230  0.2553 -0.1955
 6811SOL    HW121534   4.297   2.918   0.097 -0.3334  0.3107 -0.8492
 6811SOL    HW221535   4.154   2.913   0.147 -0.2195 -0.4412 -0.5810
 6812SOL     OW21536   8.583   6.410   9.073  0.3272 -0.0956 -0.9414
 6812SOL    HW121537   8.526   6.380   9.144  2.3226 -0.7801  0.4819
 6812SOL    HW221538   8.556   6.360   8.997 -1.4488  0.1733 -0.5279
 6813SOL     OW21539   7.335   8.289   0.151  0.1360 -0.0490  0.7466
 6813SOL    HW121540   7.412   8.255   0.106 -0.8052  0.9158 -1.7540
 6813SOL    HW221541   7.369   8.351   0.215  1.5179 -1.2680  1.2374
 6814SOL     OW21542   0.013   1.173   6.165  0.2794 -0.0339 -0.1514
 6814SOL    HW121543   0.039   1.148   6.076  2.5056 -0.7069  0.6169
 6814SOL    HW221544   0.093   1.161   6.217 -0.3815  2.3126  1.5597
 6815SOL     OW21545   4.591   4.520   4.502 -0.3256 -0.4924 -1.0570
 6815SOL    HW121546   4.539   4.456   4.551 -0.2439 -0.6409 -1.1627
 6815SOL    HW221547   4.676   4.478   4.490 -0.2796 -0.3745 -1.1485
 6816SOL     OW21548   4.833   3.817   4.037 -0.3144  0.4748  0.1856
 6816SOL    HW121549   4.794   3.749   3.983  0.9939  0.6935 -1.0683
 6816SOL    HW221550   4.925   3.818   4.013  0.2663  0.8052  2.2031
 6817SOL     OW21551   6.911   6.550   8.839 -0.0445 -0.5843  0.3820
 6817SOL    HW121552   6.923   6.462   8.805  0.9790 -0.0230 -0.7792
 6817SOL    HW221553   6.861   6.538   8.920  0.8140 -2.2827  0.6996
 6818SOL     OW21554   8.430   4.708   5.296  0.2580  0.2072 -0.5477
 6818SOL    HW121555   8.502   4.715   5.234  0.0740  0.2728 -0.7544
 6818SOL    HW221556   8.405   4.798   5.315  1.9364  0.3119  1.5439
 6819SOL     OW21557   8.021   8.772   8.949  0.2699 -0.1330 -0.0320
 6819SOL    HW121558   8.082   8.769   9.022 -0.5709  0.1607  0.6964
 6819SOL    HW221559   7.998   8.680   8.934  1.5082 -0.3405 -0.8740
 6820SOL     OW21560   1.621   3.340   8.906 -0.6407  0.3933 -0.2845
 6820SOL    HW121561   1.628   3.251   8.941  1.8287  0.8410  0.4983
 6820SOL    HW221562   1.630   3.329   8.811  1.3079 -0.0938 -0.0785
 6821SOL     OW21563   7.526   8.092   6.137  0.0725  0.4728 -0.8524
 6821SOL    HW121564   7.449   8.119   6.087 -0.6906  1.1780  0.6738
 6821SOL    HW221565   7.532   8.155   6.209 -0.1246 -1.7078  1.1972
 6822SOL     OW21566   0.760   4.633   0.414 -0.2331  0.3617 -0.5527
 6822SOL    HW121567   0.690   4.603   0.472 -1.2029  2.0536 -0.7910
 6822SOL    HW221568   0.770   4.726   0.435  1.9952  0.1492 -0.4999
 6823SOL     OW21569   1.106   4.923   0.009  0.4778  0.5018 -0.2005
 6823SOL    HW121570   1.036   4.989   0.005  0.0887  0.0521 -2.4738
 6823SOL    HW221571   1.072   4.850  -0.043  2.7807  0.4223 -1.7185
 6824SOL     OW21572   0.205   0.723   1.851  0.0422 -0.1201  0.0877
 6824SOL    HW121573   0.109   0.722   1.856  0.0568 -0.5235  0.3474
 6824SOL    HW221574   0.224   0.763   1.766 -0.3637 -0.3579 -0.1202
 6825SOL     OW21575   7.541   9.097   6.482  0.3246 -0.3742 -0.7772
 6825SOL    HW121576   7.455   9.121   6.516 -0.2406  0.6437 -2.8030
 6825SOL    HW221577   7.524   9.057   6.397  1.9382  2.6686 -2.6979
 6826SOL     OW21578   5.069   4.523   2.137 -0.0262 -0.4173 -0.0665
 6826SOL    HW121579   5.143   4.495   2.190  2.8243  2.4703 -2.1306
 6826SOL    HW221580   5.005   4.555   2.201  0.4151 -2.9596  1.7937
 6827SOL     OW21581   7.927   3.934   1.776  0.0733 -0.3450  0.9270
 6827SOL    HW121582   7.859   3.938   1.709  0.4653  1.6455  0.6083
 6827SOL    HW221583   7.911   4.011   1.830  2.1401  0.2123  0.7882
 6828SOL     OW21584   2.320   0.153   0.403 -0.2067  0.0495 -0.0921
 6828SOL    HW121585   2.263   0.107   0.342  1.5059 -1.4259 -0.6624
 6828SOL    HW221586   2.262   0.182   0.473 -1.9932  0.5540 -1.6887
 6829SOL     OW21587   2.306   1.904   5.420 -0.5951 -0.0878  0.3905
 6829SOL    HW121588   2.334   1.938   5.335  0.0881  0.0349  0.6548
 6829SOL    HW221589   2.248   1.831   5.399  1.3489 -1.5533 -0.2338
 6830SOL     OW21590   3.449   4.236   6.276 -0.6632  0.0528 -0.0743
 6830SOL    HW121591   3.509   4.203   6.209 -0.1463 -0.5405  0.6586
 6830SOL    HW221592   3.417   4.319   6.241  1.7437  1.1453  0.1362
 6831SOL     OW21593   3.338   0.654   2.156  0.3968  0.3605  0.1275
 6831SOL    HW121594   3.325   0.598   2.079  1.4751 -0.0802  0.2424
 6831SOL    HW221595   3.344   0.742   2.120 -0.9219  0.3709 -0.1003
 6832SOL     OW21596   7.317   1.977   0.455  0.7292 -0.0129  0.3057
 6832SOL    HW121597   7.380   1.909   0.434 -0.7152 -0.9352 -1.2020
 6832SOL    HW221598   7.344   2.052   0.401  0.6873 -0.3080 -0.1255
 6833SOL     OW21599   6.900   4.919   4.263 -0.0394 -0.1493 -0.4121
 6833SOL    HW121600   6.822   4.875   4.230 -1.2081  2.3010 -1.1366
 6833SOL    HW221601   6.971   4.856   4.250 -1.5989 -1.8077 -1.2843
 6834SOL     OW21602   5.131   5.357   8.093 -0.8391 -0.8390 -0.0897
 6834SOL    HW121603   5.225   5.340   8.083 -0.7010 -0.0066 -0.3328
 6834SOL    HW221604   5.110   5.414   8.019 -1.1882  0.2827  0.8472
 6835SOL     OW21605   7.129   6.720   8.848 -0.0409 -0.0243 -0.5079
 6835SOL    HW121606   7.093   6.725   8.936  2.7433 -0.3758  0.7351
 6835SOL    HW221607   7.081   6.648   8.807 -1.7480  0.4824  0.4709
 6836SOL     OW21608   3.097   8.550   7.605 -0.3925  0.4063  0.1340
 6836SOL    HW121609   3.064   8.466   7.636  0.2139  0.4126  0.8400
 6836SOL    HW221610   3.022   8.608   7.607 -0.6643  0.0546  0.2946
 6837SOL     OW21611   3.139   4.073   9.005  0.0879 -0.1428 -0.0678
 6837SOL    HW121612   3.153   4.009   8.936 -1.2734 -0.9114  0.3113
 6837SOL    HW221613   3.126   4.156   8.959 -1.3327 -0.7342 -0.8106
 6838SOL     OW21614   5.914   5.360   8.319  0.2518 -0.0435  0.0441
 6838SOL    HW121615   5.912   5.264   8.319  1.1578 -0.0756 -0.4780
 6838SOL    HW221616   5.896   5.384   8.228 -0.2600  0.2980  0.2312
 6839SOL     OW21617   8.043   4.915   7.193 -0.2526  0.5030  0.8141
 6839SOL    HW121618   8.085   4.849   7.247  1.1780  2.1949  1.8708
 6839SOL    HW221619   8.095   4.916   7.112 -1.8193 -1.3609 -0.3020
 6840SOL     OW21620   4.638   5.685   0.444 -0.2863 -0.0021 -0.1258
 6840SOL    HW121621   4.651   5.769   0.401 -0.2139  0.1230  0.1406
 6840SOL    HW221622   4.676   5.696   0.531 -0.9171 -0.0792  0.1653
 6841SOL     OW21623   7.675   6.546   1.858  0.1314 -0.1740 -0.1597
 6841SOL    HW121624   7.767   6.527   1.874  0.1545  1.2239  1.6821
 6841SOL    HW221625   7.639   6.565   1.944 -1.3014  1.6590 -1.0869
 6842SOL     OW21626   6.923   0.000   0.005 -0.2889 -0.2123 -0.4744
 6842SOL    HW121627   6.922   0.094  -0.011 -0.6353 -0.3315 -1.2129
 6842SOL    HW221628   6.976  -0.035  -0.067  0.7658 -0.4814  0.4059
 6843SOL     OW21629   1.101   3.968   5.582  0.2377  0.2339 -0.4339
 6843SOL    HW121630   1.188   4.003   5.605 -0.3411  0.8179  0.9915
 6843SOL    HW221631   1.111   3.873   5.590  0.9040  0.2582 -0.8865
 6844SOL     OW21632   5.472   6.620   4.131 -0.3077  0.9206 -0.5746
 6844SOL    HW121633   5.462   6.543   4.187  0.2717  0.5014 -1.0362
 6844SOL    HW221634   5.484   6.584   4.043 -0.9505  1.5655 -0.9382
 6845SOL     OW21635   7.551   5.483   4.409  0.4306  0.4037  0.1988
 6845SOL    HW121636   7.636   5.521   4.430  0.3330 -0.3817  2.2708
 6845SOL    HW221637   7.490   5.527   4.468 -0.2064 -0.6191  0.3316
 6846SOL     OW21638   2.870   3.432   3.789  0.5069  0.3510  0.0794
 6846SOL    HW121639   2.838   3.365   3.728  2.3315 -0.1572 -0.3793
 6846SOL    HW221640   2.803   3.500   3.788 -1.6775 -1.6580  0.9411
 6847SOL     OW21641   4.031   3.935   5.336 -0.0965  0.0355 -0.1896
 6847SOL    HW121642   3.955   3.912   5.283 -0.1331 -1.8270  0.5894
 6847SOL    HW221643   4.001   3.923   5.426  0.6564  0.8915  0.1900
 6848SOL     OW21644   8.264   7.258   4.268  0.3709  0.4800 -0.4188
 6848SOL    HW121645   8.221   7.296   4.345  0.9512 -0.1096  0.2165
 6848SOL    HW221646   8.355   7.289   4.273  0.4414  0.3451 -0.8022
 6849SOL     OW21647   6.301   2.968   4.731 -0.2903  0.0603  0.6381
 6849SOL    HW121648   6.309   3.057   4.766  1.7083  1.0407 -1.9820
 6849SOL    HW221649   6.247   2.978   4.652 -0.7551 -1.2239  0.7731
 6850SOL     OW21650   8.391   6.432   0.325  0.0102 -0.4761  0.7235
 6850SOL    HW121651   8.304   6.439   0.364  0.2809 -1.9204  1.6733
 6850SOL    HW221652   8.388   6.351   0.274  1.2160 -1.4063  2.0321
 6851SOL     OW21653   8.407   4.974   5.001  0.5775  0.0569 -0.5520
 6851SOL    HW121654   8.417   4.988   4.907 -0.1630  1.8400 -0.4030
 6851SOL    HW221655   8.430   4.882   5.014  1.5057 -0.0106 -2.3410
 6852SOL     OW21656   2.482   2.244   5.968  0.3028 -0.6944 -1.1168
 6852SOL    HW121657   2.474   2.289   6.052 -1.9587  0.3883 -1.8174
 6852SOL    HW221658   2.540   2.300   5.916  2.8937 -2.1029  0.0907
 6853SOL     OW21659   5.395   6.732   1.377 -0.1591  0.2089  0.6086
 6853SOL    HW121660   5.378   6.722   1.284  2.7087 -1.4751  0.1510
 6853SOL    HW221661   5.433   6.819   1.386 -1.3336  0.7642  0.4082
 6854SOL     OW21662   3.514   3.464   4.422 -0.8232 -0.5188 -0.2872
 6854SOL    HW121663   3.520   3.435   4.513  1.1566 -0.2809 -0.3000
 6854SOL    HW221664   3.530   3.558   4.425  0.3758 -0.6733 -0.9422
 6855SOL     OW21665   7.259   8.070   1.588  0.2751 -0.0667 -0.0654
 6855SOL    HW121666   7.189   8.010   1.563  0.7676 -0.0701 -1.5530
 6855SOL    HW221667   7.217   8.156   1.591  0.2299 -0.0340 -1.1812
 6856SOL     OW21668   2.798   7.256   0.937 -0.2218  0.0931  0.0263
 6856SOL    HW121669   2.797   7.351   0.921  0.3177 -0.2081 -2.1068
 6856SOL    HW221670   2.809   7.218   0.850 -0.2414 -1.9377  0.8760
 6857SOL     OW21671   6.528   8.121   4.109 -0.5895  0.0900 -0.4324
 6857SOL    HW121672   6.568   8.074   4.182  0.2653  0.4094 -0.6951
 6857SOL    HW221673   6.601   8.161   4.062 -1.2475  1.1023 -0.6240
 6858SOL     OW21674   7.380   1.583   5.163  0.6125 -0.3592  0.2013
 6858SOL    HW121675   7.298   1.540   5.137 -0.6058  1.0202  1.5788
 6858SOL    HW221676   7.426   1.518   5.215 -0.0066 -0.8640  0.1259
 6859SOL     OW21677   7.015   1.649   1.205  0.7698  0.0314 -0.5728
 6859SOL    HW121678   6.965   1.570   1.226  0.0150  0.6656  0.0854
 6859SOL    HW221679   7.098   1.639   1.251 -0.4362  0.9065  2.0121
 6860SOL     OW21680   0.291   4.461   6.983 -0.5947 -0.4676  0.2689
 6860SOL    HW121681   0.284   4.513   7.063  0.5934 -0.8095  0.6168
 6860SOL    HW221682   0.314   4.525   6.915  1.3386 -0.5635  0.7865
 6861SOL     OW21683   2.798   8.529   4.711  0.2503  0.4684 -0.0420
 6861SOL    HW121684   2.754   8.470   4.773  1.7100 -2.6860 -1.7611
 6861SOL    HW221685   2.734   8.541   4.640  0.0893  0.6122  0.1277
 6862SOL     OW21686   7.647   8.936   4.158  0.0490 -0.1802  0.0745
 6862SOL    HW121687   7.594   8.858   4.172 -1.0532  0.3353 -0.9277
 6862SOL    HW221688   7.616   8.971   4.074  1.3629  0.6590 -0.0961
 6863SOL     OW21689   3.168   2.137   1.350 -0.2619  0.2866 -0.5054
 6863SOL    HW121690   3.159   2.210   1.289 -0.2447  0.8669  0.1735
 6863SOL    HW221691   3.251   2.096   1.326  0.0552  0.8941 -0.4797
 6864SOL     OW21692   9.031   7.858   2.687 -0.1792 -0.9531  0.6524
 6864SOL    HW121693   8.975   7.839   2.763  1.6359 -1.4165  1.9379
 6864SOL    HW221694   9.095   7.921   2.720 -0.9645  0.9782 -1.2683
 6865SOL     OW21695   8.542   8.030   4.315  0.2410 -0.3592  0.1560
 6865SOL    HW121696   8.540   7.997   4.225  0.3646  1.4222 -0.5431
 6865SOL    HW221697   8.623   8.080   4.321  0.2496 -0.4781  1.2891
 6866SOL     OW21698   8.940   0.265   1.412 -0.0052 -0.0290 -0.9967
 6866SOL    HW121699   9.032   0.259   1.440 -0.3166 -0.7445 -0.0428
 6866SOL    HW221700   8.904   0.178   1.432 -1.7672  1.2284  1.9980
 6867SOL     OW21701   0.652   4.763   1.952  0.0971 -0.0621  0.3256
 6867SOL    HW121702   0.688   4.677   1.972 -1.0844 -0.9727 -1.2803
 6867SOL    HW221703   0.562   4.760   1.984 -0.9116 -0.5502 -2.2684
 6868SOL     OW21704   8.234   7.623   0.348 -0.4175 -0.7345  0.1246
 6868SOL    HW121705   8.281   7.674   0.414  2.1325 -1.6909 -0.8508
 6868SOL    HW221706   8.214   7.540   0.392 -0.7699 -0.5182  0.3812
 6869SOL     OW21707   8.685   5.092   6.782 -0.2436 -0.4389  0.0534
 6869SOL    HW121708   8.619   5.115   6.717  1.6372  0.5415 -1.6182
 6869SOL    HW221709   8.661   5.143   6.859 -0.3545  1.4495 -1.1722
 6870SOL     OW21710   8.590   5.494   2.850  0.1555  0.0577  0.3562
 6870SOL    HW121711   8.620   5.538   2.771 -1.2525 -1.0503 -0.8352
 6870SOL    HW221712   8.548   5.414   2.819 -1.0253 -0.0796  2.1775
 6871SOL     OW21713   3.707   5.112   3.340  0.2443  0.2233  0.2198
 6871SOL    HW121714   3.766   5.136   3.269 -0.4002 -1.9913 -1.1813
 6871SOL    HW221715   3.651   5.189   3.352  0.7063  0.8379 -1.3096
 6872SOL     OW21716   7.238   0.970   6.398  0.3973 -0.0007  0.2289
 6872SOL    HW121717   7.246   1.027   6.321 -0.3984 -0.3853 -0.1560
 6872SOL    HW221718   7.292   0.894   6.378  1.7277  0.7381  0.8845
 6873SOL     OW21719   3.991   8.180   7.340 -0.3692 -0.7665 -0.0677
 6873SOL    HW121720   4.022   8.195   7.251  1.9685 -0.0534  0.7979
 6873SOL    HW221721   4.007   8.087   7.356 -0.8661 -0.9128 -0.4013
 6874SOL     OW21722   8.931   7.409   1.773 -0.2754 -0.6086 -0.0750
 6874SOL    HW121723   8.910   7.318   1.749  0.9606 -0.4467 -2.0056
 6874SOL    HW221724   8.845   7.449   1.790 -0.9858 -1.6795 -0.9812
 6875SOL     OW21725   0.641   5.140   0.778 -0.0737 -0.2448  0.0663
 6875SOL    HW121726   0.669   5.206   0.841  1.5275  0.1505 -0.9970
 6875SOL    HW221727   0.625   5.189   0.698 -2.0224 -0.7461  0.1104
 6876SOL     OW21728   2.939   6.438   1.004  0.0223  0.3992  0.5577
 6876SOL    HW121729   2.865   6.409   1.058  0.6955  0.9117  1.7957
 6876SOL    HW221730   2.960   6.361   0.951 -0.6907 -0.1073  0.9806
 6877SOL     OW21731   1.379   0.302   2.338  0.5017  0.1557  0.0562
 6877SOL    HW121732   1.403   0.222   2.386  1.0413  1.2897  1.7684
 6877SOL    HW221733   1.285   0.312   2.354  0.2176 -0.6355 -0.9938
 6878SOL     OW21734   5.546   0.663   4.552  0.5298  0.3144 -0.1025
 6878SOL    HW121735   5.577   0.652   4.642  1.7816  1.3667 -0.3682
 6878SOL    HW221736   5.478   0.729   4.558  1.1164  0.9200 -0.0047
 6879SOL     OW21737   2.364   8.983   2.382  0.5618  0.1990 -0.1262
 6879SOL    HW121738   2.417   8.904   2.396  0.9093  0.1932 -1.3877
 6879SOL    HW221739   2.401   9.024   2.304  1.5238  2.5927  1.4804
 6880SOL     OW21740   8.233   5.960   8.917 -0.5441 -0.6265 -0.1729
 6880SOL    HW121741   8.162   5.932   8.974  0.6098 -1.0782  1.0705
 6880SOL    HW221742   8.309   5.972   8.975  0.0527  1.2537 -1.2313
 6881SOL     OW21743   2.425   6.206   6.598  0.0603 -0.1360  0.0702
 6881SOL    HW121744   2.498   6.214   6.536  0.1029 -0.1274  0.1207
 6881SOL    HW221745   2.386   6.121   6.579 -0.3594  0.1647 -0.4325
 6882SOL     OW21746   8.911   3.216   2.027  0.2920 -0.0161  0.0046
 6882SOL    HW121747   8.869   3.302   2.032  1.1051  0.4348 -0.6570
 6882SOL    HW221748   8.979   3.219   2.095 -0.5778 -0.6734  0.9418
 6883SOL     OW21749   2.333   2.999   6.438  0.4442  0.1714  0.3796
 6883SOL    HW121750   2.379   3.024   6.518  1.2661 -1.7353  0.5529
 6883SOL    HW221751   2.393   3.021   6.367  0.5378  0.0646  0.4256
 6884SOL     OW21752   7.609   6.428   1.627 -0.1285  0.1925  0.3727
 6884SOL    HW121753   7.639   6.455   1.714  1.0652 -1.1790  0.4251
 6884SOL    HW221754   7.683   6.448   1.570 -0.5364  0.1728 -0.1636
 6885SOL     OW21755   8.213   4.259   6.740 -0.2907 -0.0522 -0.0354
 6885SOL    HW121756   8.291   4.217   6.776 -1.3841 -2.2963 -0.0621
 6885SOL    HW221757   8.215   4.238   6.646 -0.7587  0.1113 -0.0882
 6886SOL     OW21758   3.422   9.078   5.594  0.7746  0.2523 -0.5131
 6886SOL    HW121759   3.358   9.097   5.662  0.9503 -1.1632  0.0798
 6886SOL    HW221760   3.389   9.124   5.517  0.4088  1.6251  0.4402
 6887SOL     OW21761   9.074   7.278   5.626 -0.1823  0.2841 -0.1678
 6887SOL    HW121762   9.023   7.319   5.697  0.9677  0.8957  0.3260
 6887SOL    HW221763   9.023   7.201   5.601 -0.5603 -0.0051  1.3991
 6888SOL     OW21764   4.149   6.129   0.970  0.3238  0.8521  0.3451
 6888SOL    HW121765   4.111   6.097   0.888  0.3223  0.6257  0.4321
 6888SOL    HW221766   4.163   6.223   0.955 -2.5354  1.4913  1.1642
 6889SOL     OW21767   8.012   3.109   1.943 -0.3443 -0.3430 -0.3815
 6889SOL    HW121768   8.016   3.170   1.869 -1.1633  0.4742  0.2348
 6889SOL    HW221769   8.066   3.150   2.010 -0.7613 -0.3831 -0.0236
 6890SOL     OW21770   5.869   0.109   1.342 -0.2634  0.0965 -0.3124
 6890SOL    HW121771   5.862   0.147   1.429 -0.7874 -0.0633 -0.2817
 6890SOL    HW221772   5.781   0.078   1.322 -0.1145 -0.0039 -0.8371
 6891SOL     OW21773   4.642   0.353   0.748  0.4811 -0.3213  0.0094
 6891SOL    HW121774   4.691   0.421   0.796 -0.4868  0.6141 -0.2878
 6891SOL    HW221775   4.568   0.333   0.805 -0.1173  0.0534 -0.6234
 6892SOL     OW21776   5.127   2.497   8.310 -0.4435 -0.9355  0.5836
 6892SOL    HW121777   5.162   2.535   8.391  1.3298 -0.5674 -0.3107
 6892SOL    HW221778   5.149   2.561   8.242  0.4306 -2.4133 -0.5746
 6893SOL     OW21779   8.252   0.178   6.730 -0.3506 -0.0827 -0.6090
 6893SOL    HW121780   8.302   0.167   6.811 -0.1982  0.5443 -0.6166
 6893SOL    HW221781   8.267   0.096   6.682 -1.1089 -0.8102  0.3525
 6894SOL     OW21782   3.007   1.976   3.395 -0.3734  0.3569  0.1840
 6894SOL    HW121783   2.920   1.938   3.409  0.4469 -1.1411  1.5640
 6894SOL    HW221784   3.022   1.968   3.301 -0.4519 -2.3871  0.3314
 6895SOL     OW21785   9.056   2.947   1.401 -0.1843  0.5549  0.1119
 6895SOL    HW121786   9.015   3.026   1.366 -1.6653 -0.4659 -0.5351
 6895SOL    HW221787   8.984   2.897   1.439  0.7032 -0.5797  0.3681
 6896SOL     OW21788   4.863   2.096   9.073  0.4701 -0.2890 -0.5538
 6896SOL    HW121789   4.807   2.163   9.036 -0.9006 -1.5512 -0.8385
 6896SOL    HW221790   4.867   2.027   9.006  0.9564 -0.9727  0.1531
 6897SOL     OW21791   1.432   4.004   3.082  0.6947 -0.2505  0.0397
 6897SOL    HW121792   1.490   3.963   3.146  0.6324  1.0003  0.9322
 6897SOL    HW221793   1.354   4.028   3.132  0.7467  0.9750 -0.4222
 6898SOL     OW21794   6.987   1.104   0.258  0.5118 -0.4661  0.4554
 6898SOL    HW121795   6.969   1.117   0.165 -3.1654 -0.9922  0.9238
 6898SOL    HW221796   7.016   1.190   0.289 -0.8395  0.4605 -0.7124
 6899SOL     OW21797   2.116   1.074   2.518  0.6956  0.4533 -0.2353
 6899SOL    HW121798   2.092   0.982   2.508  0.8794  0.3896 -0.1014
 6899SOL    HW221799   2.052   1.108   2.580 -0.9229  1.0429 -2.1237
 6900SOL     OW21800   2.376   4.098   6.637 -0.3862 -0.0394 -0.3064
 6900SOL    HW121801   2.439   4.069   6.570 -0.8175 -0.1162 -0.6801
 6900SOL    HW221802   2.354   4.187   6.612 -0.9426 -0.2436 -0.5683
 6901SOL     OW21803   8.565   0.873   4.137 -0.1593  0.1612  0.7168
 6901SOL    HW121804   8.590   0.917   4.218 -0.9497 -0.2494  1.1887
 6901SOL    HW221805   8.470   0.872   4.138 -0.2088  1.2516 -0.8233
 6902SOL     OW21806   8.323   5.143   0.636  0.1357 -0.0556 -0.2617
 6902SOL    HW121807   8.265   5.128   0.711 -0.3680  1.8677 -0.2387
 6902SOL    HW221808   8.399   5.188   0.673  0.9958 -1.1936 -0.5583
 6903SOL     OW21809   1.915   8.712   1.173 -0.0983 -0.7366 -0.1676
 6903SOL    HW121810   1.845   8.684   1.113  0.2024  0.2104 -0.9929
 6903SOL    HW221811   1.894   8.669   1.256 -0.3955 -2.2843 -1.0043
 6904SOL     OW21812   6.869   3.789   2.925  0.4715 -0.4837 -0.4039
 6904SOL    HW121813   6.883   3.768   3.017  0.4474 -1.3628 -0.5938
 6904SOL    HW221814   6.830   3.710   2.887 -1.1252  0.4471 -0.8014
 6905SOL     OW21815   5.995   2.590   1.040  0.1529 -0.5753 -0.5848
 6905SOL    HW121816   5.987   2.496   1.055 -4.8270 -0.2658  0.4455
 6905SOL    HW221817   5.940   2.607   0.963  0.0430  1.5898 -0.1011
 6906SOL     OW21818   7.422   4.746   1.006 -0.4572  0.2575  0.2194
 6906SOL    HW121819   7.352   4.780   0.950  0.8531  1.3888 -0.8239
 6906SOL    HW221820   7.443   4.661   0.968 -1.2173 -0.0634  0.5043
 6907SOL     OW21821   0.599   0.093   6.106  0.4387  0.5202 -0.3690
 6907SOL    HW121822   0.531   0.100   6.040 -1.2133  0.8200  1.2836
 6907SOL    HW221823   0.680   0.082   6.056 -0.9330 -1.2204 -2.3820
 6908SOL     OW21824   1.658   3.833   5.228 -0.3985 -0.2008 -0.3985
 6908SOL    HW121825   1.669   3.742   5.254  0.0193  0.3200  1.4641
 6908SOL    HW221826   1.736   3.877   5.262 -0.4406  0.8069 -1.5287
 6909SOL     OW21827   4.708   1.217   7.940 -0.0133  0.4346  0.5674
 6909SOL    HW121828   4.706   1.291   7.879 -0.4009  0.0733  0.1351
 6909SOL    HW221829   4.794   1.222   7.981  0.2552  0.6844 -0.0180
 6910SOL     OW21830   1.206   4.511   8.122 -0.1134  0.5324  0.2059
 6910SOL    HW121831   1.173   4.493   8.210 -0.3527 -0.0841 -0.0064
 6910SOL    HW221832   1.202   4.427   8.077 -2.1645  1.2769 -1.1181
 6911SOL     OW21833   6.313   8.908   1.764  0.3505 -0.2013 -0.4295
 6911SOL    HW121834   6.287   8.832   1.712  0.3478  0.0957 -0.8792
 6911SOL    HW221835   6.353   8.968   1.699 -0.9570  0.7907 -0.3541
 6912SOL     OW21836   5.726   6.553   6.561  0.0172  0.3278 -0.2887
 6912SOL    HW121837   5.641   6.591   6.539 -0.7299  1.0540  3.1983
 6912SOL    HW221838   5.766   6.534   6.477 -2.0888  3.2792 -2.1636
 6913SOL     OW21839   1.932   7.338   1.520  0.3428  0.1394 -0.0650
 6913SOL    HW121840   2.017   7.294   1.526  0.3545  0.2770  0.9217
 6913SOL    HW221841   1.872   7.271   1.488  0.2842 -0.7391  1.7765
 6914SOL     OW21842   8.203   3.971   3.215 -0.0207 -0.5036  0.5539
 6914SOL    HW121843   8.109   3.973   3.234  0.1963  1.9825  1.8020
 6914SOL    HW221844   8.243   3.953   3.300  0.6817  1.4151  0.6680
 6915SOL     OW21845   8.875   1.897   3.148 -0.0374 -0.4511  0.4610
 6915SOL    HW121846   8.952   1.841   3.138  0.4676  0.3640 -0.3452
 6915SOL    HW221847   8.841   1.876   3.235  1.2630 -0.6077  0.9508
 6916SOL     OW21848   2.313   6.914   4.270 -0.4730  0.2784  0.3139
 6916SOL    HW121849   2.372   6.868   4.331  1.7378  0.8996 -1.2169
 6916SOL    HW221850   2.298   6.850   4.200  0.0539  0.7864 -0.2791
 6917SOL     OW21851   2.291   7.503   2.574  0.7593 -0.0998  0.0520
 6917SOL    HW121852   2.242   7.495   2.656 -0.6081  0.8657 -0.6318
 6917SOL    HW221853   2.379   7.529   2.601 -0.1664  2.1818  1.1757
 6918SOL     OW21854   8.536   4.008   4.012  0.1677 -0.3095 -0.6460
 6918SOL    HW121855   8.565   4.093   4.044  0.3078 -0.8678  0.7657
 6918SOL    HW221856   8.496   4.027   3.927 -0.5306  1.2614 -0.0011
 6919SOL     OW21857   1.534   6.866   8.458  0.2391  0.2906  0.8269
 6919SOL    HW121858   1.535   6.789   8.514 -0.8015 -0.1639  0.2444
 6919SOL    HW221859   1.454   6.857   8.407  1.5688  0.2512 -1.3493
 6920SOL     OW21860   0.846   5.559   4.783  0.3818 -0.1465  0.4215
 6920SOL    HW121861   0.773   5.617   4.763 -0.4168 -1.2826 -0.1213
 6920SOL    HW221862   0.923   5.616   4.788 -0.6085  1.1358  1.4961
 6921SOL     OW21863   7.217   7.406   1.940 -0.1530  0.3723 -0.0190
 6921SOL    HW121864   7.247   7.467   2.007 -1.8077  0.9893  0.2261
 6921SOL    HW221865   7.233   7.451   1.857 -3.4729  2.3433  0.2089
 6922SOL     OW21866   2.502   7.309   7.863  0.1826 -0.1458  0.0724
 6922SOL    HW121867   2.450   7.260   7.799  0.6754 -2.1728  1.1121
 6922SOL    HW221868   2.570   7.352   7.812  1.5124 -2.9561 -0.7143
 6923SOL     OW21869   5.834   1.827   7.675 -0.1378  0.5895 -0.3715
 6923SOL    HW121870   5.832   1.738   7.640  0.9602 -0.0385  1.0428
 6923SOL    HW221871   5.781   1.878   7.614 -0.9343 -1.0567 -1.1278
 6924SOL     OW21872   6.701   8.328   3.349 -0.1055  0.1112 -0.2934
 6924SOL    HW121873   6.727   8.326   3.441 -0.8584  0.0072 -0.0793
 6924SOL    HW221874   6.761   8.267   3.306  2.4314  2.5302 -0.4741
 6925SOL     OW21875   0.253   5.839   6.008  0.8541  0.8938  0.6370
 6925SOL    HW121876   0.304   5.767   5.971  2.7274  1.8140  1.3099
 6925SOL    HW221877   0.200   5.798   6.077 -0.8192 -0.3973 -1.3204
 6926SOL     OW21878   1.717   0.759   8.365 -0.5034 -0.5121 -0.3999
 6926SOL    HW121879   1.788   0.820   8.384  1.1138 -2.1030 -1.0119
 6926SOL    HW221880   1.701   0.714   8.448 -0.3672 -0.5619 -0.3993
 6927SOL     OW21881   1.201   0.442   1.582  0.4291  0.3130 -0.2282
 6927SOL    HW121882   1.168   0.439   1.672  0.4518  1.5471 -0.1532
 6927SOL    HW221883   1.155   0.372   1.537  0.5257 -0.4212  0.7780
 6928SOL     OW21884   5.712   7.005   1.713 -0.5795  0.8337  0.4015
 6928SOL    HW121885   5.753   6.926   1.747 -0.5478  0.4818 -0.4422
 6928SOL    HW221886   5.783   7.069   1.707 -0.4511  0.6874  0.3582
 6929SOL     OW21887   6.610   7.308   1.055 -0.5329 -0.2745  0.7611
 6929SOL    HW121888   6.675   7.301   0.985 -1.4107 -2.7000  0.1155
 6929SOL    HW221889   6.591   7.402   1.060  2.9875  0.5824  1.0345
 6930SOL     OW21890   3.452   4.661   1.215 -0.0081  0.2141 -0.2335
 6930SOL    HW121891   3.410   4.617   1.288  0.7191  0.4916  0.3751
 6930SOL    HW221892   3.425   4.752   1.223  2.0991  0.7866  1.2785
 6931SOL     OW21893   5.369   4.318   7.656  0.1012 -0.0802 -1.2362
 6931SOL    HW121894   5.326   4.312   7.741  0.8875 -0.4926 -0.8548
 6931SOL    HW221895   5.378   4.412   7.640 -0.5052  0.0037 -1.1023
 6932SOL     OW21896   3.854   6.052   1.465  0.0399  1.0684 -0.2738
 6932SOL    HW121897   3.877   6.130   1.514  1.2344  0.8926 -0.5220
 6932SOL    HW221898   3.895   6.064   1.379 -0.1929  0.3994 -0.4864
 6933SOL     OW21899   3.633   2.844   1.077 -0.2720 -0.9302 -0.3718
 6933SOL    HW121900   3.682   2.910   1.126 -0.1918 -0.9719 -0.3965
 6933SOL    HW221901   3.597   2.786   1.144 -1.0298 -0.3914 -0.2915
 6934SOL     OW21902   4.375   6.552   0.580 -0.3616 -0.2734  0.0301
 6934SOL    HW121903   4.428   6.536   0.502  1.4374  0.1078  1.1158
 6934SOL    HW221904   4.423   6.620   0.628 -2.8599  1.5563  0.1299
 6935SOL     OW21905   8.234   4.118   5.274 -0.4103 -0.3860  0.5594
 6935SOL    HW121906   8.283   4.186   5.228  0.3751 -0.9921  0.4792
 6935SOL    HW221907   8.143   4.134   5.250 -0.0441 -0.6026 -1.1282
 6936SOL     OW21908   8.032   7.572   2.580 -0.2833  0.2572 -0.2617
 6936SOL    HW121909   7.957   7.514   2.573  1.4877 -2.4387  1.1757
 6936SOL    HW221910   8.000   7.648   2.629 -2.2244 -0.4160 -0.4106
 6937SOL     OW21911   4.226   6.263   7.487 -0.2872 -0.2328 -0.0948
 6937SOL    HW121912   4.198   6.297   7.572 -0.7136  0.6038 -0.5541
 6937SOL    HW221913   4.314   6.299   7.474 -1.3049  2.0727 -1.2559
 6938SOL     OW21914   7.716   4.015   4.097  0.6211 -0.3571 -0.0134
 6938SOL    HW121915   7.708   4.102   4.136 -0.2782 -0.3465 -0.2180
 6938SOL    HW221916   7.628   3.979   4.098  0.1509  0.3536 -3.6413
 6939SOL     OW21917   2.749   7.877   4.266 -0.3659 -0.4854 -0.2043
 6939SOL    HW121918   2.745   7.802   4.326 -0.3026 -1.9340 -1.9386
 6939SOL    HW221919   2.668   7.925   4.283 -0.8368 -1.4373  0.3232
 6940SOL     OW21920   2.599   1.434   0.722 -0.3078 -0.4856 -0.2056
 6940SOL    HW121921   2.526   1.497   0.731 -0.4376 -0.5467 -0.8283
 6940SOL    HW221922   2.614   1.403   0.811 -1.4121 -0.8839 -0.1453
 6941SOL     OW21923   9.011   8.443   2.942 -0.2186 -0.2222 -0.0625
 6941SOL    HW121924   9.073   8.512   2.970 -1.4708  1.1063 -0.4473
 6941SOL    HW221925   9.056   8.361   2.964  1.4552  0.6931  0.1594
 6942SOL     OW21926   1.163   5.393   7.012 -0.3563 -0.0522  0.2525
 6942SOL    HW121927   1.138   5.433   6.929 -1.3363 -0.4732  0.3386
 6942SOL    HW221928   1.081   5.381   7.059  0.2131  0.5346  1.4509
 6943SOL     OW21929   6.848   1.463   1.300  0.0961  0.5932 -0.4067
 6943SOL    HW121930   6.856   1.371   1.324  2.3047  0.7945 -0.1055
 6943SOL    HW221931   6.843   1.510   1.383 -0.1999  0.7958 -0.5360
 6944SOL     OW21932   4.712   0.284   3.962  0.1398  0.1761  0.1420
 6944SOL    HW121933   4.683   0.202   3.923  0.7607 -0.4590  0.9832
 6944SOL    HW221934   4.664   0.290   4.045 -0.0018  0.7398  0.0290
 6945SOL     OW21935   1.536   1.380   0.085 -0.1061 -0.3103  0.6278
 6945SOL    HW121936   1.574   1.461   0.118  0.8209 -0.9065  1.0548
 6945SOL    HW221937   1.446   1.404   0.061  0.0337  0.7439  1.0984
 6946SOL     OW21938   2.522   6.444   7.880  0.4849  0.0989  0.2950
 6946SOL    HW121939   2.445   6.461   7.827  1.2923 -0.5160 -1.1408
 6946SOL    HW221940   2.543   6.352   7.863  0.5145 -0.2620  2.0656
 6947SOL     OW21941   0.512   6.716   8.635  0.6719  0.4341 -0.4706
 6947SOL    HW121942   0.583   6.728   8.699 -1.8998  0.9722  2.5196
 6947SOL    HW221943   0.529   6.783   8.568  1.9208  1.8677  1.1849
 6948SOL     OW21944   5.561   6.416   5.677 -0.6241  0.5687 -0.2753
 6948SOL    HW121945   5.566   6.448   5.767  0.3179 -0.5901  0.1184
 6948SOL    HW221946   5.642   6.447   5.636  0.0768 -0.8121 -0.0202
 6949SOL     OW21947   6.892   3.246   3.058 -0.3415  0.4755 -0.8323
 6949SOL    HW121948   6.851   3.328   3.031  1.0979  0.9805 -1.6139
 6949SOL    HW221949   6.871   3.185   2.987  0.3689  0.7722 -1.3010
 6950SOL     OW21950   1.490   3.912   6.265  0.4013 -0.2826 -0.0196
 6950SOL    HW121951   1.437   3.921   6.186  1.0018 -1.3063 -0.5669
 6950SOL    HW221952   1.436   3.949   6.335  0.0282  0.9953 -0.9647
 6951SOL     OW21953   5.947   0.556   2.997 -0.2430  0.1733 -0.0581
 6951SOL    HW121954   5.869   0.504   3.017  0.2110 -0.5346 -0.0832
 6951SOL    HW221955   5.943   0.569   2.902 -0.3490  0.1591 -0.0556
 6952SOL     OW21956   7.088   6.780   0.817 -0.1278  0.4561 -0.1934
 6952SOL    HW121957   7.107   6.874   0.814  3.9129 -0.1547  0.6562
 6952SOL    HW221958   7.077   6.761   0.909  0.5126 -0.0940 -0.2245
 6953SOL     OW21959   2.449   6.572   3.376 -0.4116  0.1405  0.4597
 6953SOL    HW121960   2.374   6.622   3.409 -0.4628  0.3130  0.0742
 6953SOL    HW221961   2.503   6.635   3.330 -1.7747 -0.5710 -2.3248
 6954SOL     OW21962   1.906   3.905   3.601  0.1124  0.0417  0.1414
 6954SOL    HW121963   2.000   3.897   3.588  0.3951 -0.1759  2.0502
 6954SOL    HW221964   1.892   3.999   3.612  0.0602  0.0942 -0.3350
 6955SOL     OW21965   8.152   4.906   1.353  0.0964  0.0494 -0.0649
 6955SOL    HW121966   8.173   4.829   1.299  0.0788  1.1276 -1.6948
 6955SOL    HW221967   8.236   4.933   1.390  0.2248 -0.3458 -0.0662
 6956SOL     OW21968   7.043   5.140   2.377 -0.9204 -0.6751 -0.5979
 6956SOL    HW121969   7.014   5.091   2.454 -0.7635  1.4564  0.9273
 6956SOL    HW221970   7.126   5.099   2.353 -1.7246 -2.3653 -0.6310
 6957SOL     OW21971   2.991   0.832   6.254 -0.7998  0.4701  0.1728
 6957SOL    HW121972   3.065   0.820   6.194 -1.3214  0.1933 -0.4347
 6957SOL    HW221973   2.992   0.755   6.310  0.0824  1.0434  0.9591
 6958SOL     OW21974   9.130   7.578   3.395 -0.0302 -0.2974 -0.8494
 6958SOL    HW121975   9.054   7.617   3.436  1.0837 -0.2788  1.3224
 6958SOL    HW221976   9.187   7.554   3.468  1.1659 -2.1414 -2.3040
 6959SOL     OW21977   7.516   3.979   8.472 -0.1385  0.4093 -0.3415
 6959SOL    HW121978   7.559   3.920   8.410 -0.3643  1.7534 -1.8682
 6959SOL    HW221979   7.440   4.012   8.424 -0.4557  1.3267  0.7518
 6960SOL     OW21980   6.320   1.200   7.011  0.7776  0.2616 -0.4993
 6960SOL    HW121981   6.334   1.218   6.918 -1.2194 -0.5447 -1.0086
 6960SOL    HW221982   6.342   1.107   7.021  1.5706  0.4877 -0.0084
 6961SOL     OW21983   1.177   1.789   2.891 -0.1361  0.4756 -0.5186
 6961SOL    HW121984   1.154   1.830   2.807 -2.4803  0.9151  0.2526
 6961SOL    HW221985   1.170   1.861   2.955 -0.5000 -0.2890  0.3282
 6962SOL     OW21986   1.058   4.162   4.692  0.0626 -0.4105 -0.3327
 6962SOL    HW121987   1.029   4.082   4.735  3.2548 -0.9491  1.0516
 6962SOL    HW221988   1.151   4.149   4.676  0.9726  3.3462  0.8165
 6963SOL     OW21989   2.473   5.194   0.130  0.7637  0.2463 -0.5706
 6963SOL    HW121990   2.418   5.208   0.053 -0.7905 -1.0001  0.2189
 6963SOL    HW221991   2.562   5.189   0.097  0.1322 -0.2440 -2.2924
 6964SOL     OW21992   1.861   6.363   7.017  0.6687 -0.2206  0.2026
 6964SOL    HW121993   1.949   6.401   7.007  0.5923 -0.4764 -2.1242
 6964SOL    HW221994   1.876   6.269   7.010  0.1180 -0.2097 -1.5601
 6965SOL     OW21995   3.068   6.689   1.040  0.6063  0.2863  0.4742
 6965SOL    HW121996   3.033   6.602   1.057  0.0290  0.4158 -0.0062
 6965SOL    HW221997   2.997   6.749   1.065  0.7615  0.5869  0.2134
 6966SOL     OW21998   8.463   1.451   1.145 -0.6617 -0.1636  0.1361
 6966SOL    HW121999   8.477   1.362   1.113 -0.5855 -0.0218 -0.2216
 6966SOL    HW222000   8.393   1.486   1.090 -1.8156 -0.5470  1.3091
 6967SOL     OW22001   4.345   7.540   0.010 -0.0517  0.2717 -0.5158
 6967SOL    HW122002   4.432   7.499   0.020  0.2803  0.7553 -1.3431
 6967SOL    HW222003   4.363   7.634   0.012 -0.6835  0.3844  0.2527
 6968SOL     OW22004   0.909   5.586   3.431 -0.3882 -0.7845 -0.8228
 6968SOL    HW122005   0.915   5.628   3.345  0.1502  0.5950 -0.1497
 6968SOL    HW222006   0.998   5.560   3.451 -0.3055 -0.0646 -0.2087
 6969SOL     OW22007   5.501   7.590   7.657  0.1724 -0.2785 -1.1303
 6969SOL    HW122008   5.557   7.567   7.732 -1.3719  0.0743  0.1867
 6969SOL    HW222009   5.492   7.685   7.662 -2.5793 -0.5230  0.2860
 6970SOL     OW22010   0.646   3.258   1.751 -0.6535 -0.2475  1.0010
 6970SOL    HW122011   0.575   3.286   1.808  1.4616  2.1270  2.7168
 6970SOL    HW222012   0.651   3.163   1.764 -4.2019 -0.7281 -0.2045
 6971SOL     OW22013   6.807   2.724   4.687 -0.0371 -0.4884  0.0917
 6971SOL    HW122014   6.751   2.662   4.639 -0.4488 -0.1585  0.1349
 6971SOL    HW222015   6.778   2.717   4.778 -0.7782  0.4831 -0.0540
 6972SOL     OW22016   4.520   6.247   9.052 -0.3353  0.0768 -0.8847
 6972SOL    HW122017   4.497   6.340   9.052 -1.6502 -0.1654  1.4470
 6972SOL    HW222018   4.451   6.204   9.002 -1.2206  0.0979  0.2903
 6973SOL     OW22019   0.873   2.194   0.910 -0.2905 -0.2499 -0.3302
 6973SOL    HW122020   0.926   2.224   0.836  0.3256 -1.1673 -0.2759
 6973SOL    HW222021   0.783   2.206   0.882 -0.1121 -2.2163 -1.9484
 6974SOL     OW22022   5.820   1.906   6.559 -0.3781 -0.0790  0.3572
 6974SOL    HW122023   5.884   1.840   6.535 -1.0010 -0.8270  0.7297
 6974SOL    HW222024   5.843   1.931   6.648  0.2848  0.7335 -0.0265
 6975SOL     OW22025   2.841   5.256   7.294 -0.5522 -0.7741 -0.1964
 6975SOL    HW122026   2.753   5.278   7.324  0.0295  1.7015 -0.0870
 6975SOL    HW222027   2.830   5.175   7.243 -3.1015  0.2047 -1.3415
 6976SOL     OW22028   8.704   0.358   1.286  0.0870 -0.4869  0.8218
 6976SOL    HW122029   8.768   0.313   1.341 -1.0134 -1.4300  1.3601
 6976SOL    HW222030   8.622   0.351   1.334 -0.0501  2.7724  1.3515
 6977SOL     OW22031   0.385   2.668   6.836  0.3171 -0.0449 -0.3770
 6977SOL    HW122032   0.473   2.690   6.806 -0.2573  2.2338 -0.6022
 6977SOL    HW222033   0.354   2.602   6.774  2.7922 -3.0972  1.3493
 6978SOL     OW22034   6.177   0.004   2.695 -0.1486  0.1308 -0.1189
 6978SOL    HW122035   6.130   0.026   2.615  0.0433 -2.6376 -1.0903
 6978SOL    HW222036   6.124  -0.065   2.736  1.4881 -0.8943  0.3500
 6979SOL     OW22037   5.695   6.185   4.348 -0.5093  0.1881 -0.0797
 6979SOL    HW122038   5.622   6.134   4.311 -0.7626  1.6695 -1.7618
 6979SOL    HW222039   5.655   6.233   4.420 -0.8846 -0.0431 -0.1259
 6980SOL     OW22040   6.751   5.277   6.892  0.5613 -0.0182  0.3260
 6980SOL    HW122041   6.731   5.186   6.915 -0.2090  0.4834  1.7815
 6980SOL    HW222042   6.785   5.315   6.972 -0.3406  1.2986  0.1198
 6981SOL     OW22043   3.203   7.677   8.960  0.1740 -0.2668 -0.2103
 6981SOL    HW122044   3.226   7.759   8.915  0.1136 -0.1502 -0.0297
 6981SOL    HW222045   3.108   7.672   8.951  0.3854 -1.6262 -2.4813
 6982SOL     OW22046   3.516   5.429   5.892  0.1721 -0.7402 -0.0323
 6982SOL    HW122047   3.567   5.497   5.848 -0.5469 -0.2478 -0.1279
 6982SOL    HW222048   3.437   5.419   5.838 -0.7405 -0.1138  1.1354
 6983SOL     OW22049   8.380   1.619   4.057  0.5596 -0.0527  0.1570
 6983SOL    HW122050   8.386   1.711   4.084 -2.0497  0.0981  0.4877
 6983SOL    HW222051   8.373   1.570   4.139  1.2241 -0.4876 -0.0396
 6984SOL     OW22052   6.596   4.405   0.461  0.1368 -0.3958 -0.4412
 6984SOL    HW122053   6.592   4.323   0.511  0.9692 -0.3312 -0.2505
 6984SOL    HW222054   6.535   4.391   0.389 -0.7408 -0.6623  0.3308
 6985SOL     OW22055   3.960   3.029   0.766 -0.0321 -0.0446  0.5860
 6985SOL    HW122056   4.041   3.062   0.728  0.7592 -0.3072  2.0025
 6985SOL    HW222057   3.922   3.105   0.810 -2.7577  1.2591 -3.4221
 6986SOL     OW22058   7.500   0.619   3.214  0.1807  0.1192 -0.0840
 6986SOL    HW122059   7.578   0.648   3.262  0.0228 -0.2862  0.4264
 6986SOL    HW222060   7.532   0.552   3.154  0.4508  0.9327 -0.8589
 6987SOL     OW22061   0.118   6.340   1.785  0.6509  0.6363 -0.3972
 6987SOL    HW122062   0.059   6.282   1.832 -0.1790  2.1750  0.5263
 6987SOL    HW222063   0.069   6.366   1.707  1.2151 -0.2481 -1.0737
 6988SOL     OW22064   0.253   2.648   5.561  0.3832  0.1494 -0.6520
 6988SOL    HW122065   0.246   2.693   5.645  0.0123  0.3550 -0.7935
 6988SOL    HW222066   0.267   2.556   5.585  0.0188  0.1679 -0.3630
 6989SOL     OW22067   1.565   8.249   3.368  0.1912  0.5727  0.0310
 6989SOL    HW122068   1.588   8.176   3.311 -0.8445 -0.0588  0.3970
 6989SOL    HW222069   1.572   8.214   3.456 -3.4618 -0.1824  0.1856
 6990SOL     OW22070   0.012   6.060   3.181  0.3308 -0.9233 -0.0608
 6990SOL    HW122071  -0.062   6.000   3.175 -1.7336  1.2714  1.6461
 6990SOL    HW222072   0.075   6.015   3.238 -1.1625 -1.5219  1.1798
 6991SOL     OW22073   1.712   2.192   2.584 -0.5284 -0.1594  0.0895
 6991SOL    HW122074   1.773   2.266   2.588 -2.3268  1.4360 -0.3706
 6991SOL    HW222075   1.668   2.192   2.669 -0.7128 -0.5447  0.0006
 6992SOL     OW22076   0.099   3.359   0.106 -0.6653  0.1920  0.5595
 6992SOL    HW122077   0.113   3.413   0.183  1.8873  0.2776  0.1289
 6992SOL    HW222078   0.143   3.406   0.035  0.4561 -1.7323 -0.0957
 6993SOL     OW22079   5.105   3.687   2.514  0.2185  0.1733 -0.2290
 6993SOL    HW122080   5.028   3.640   2.547  1.0019  0.5515  2.4140
 6993SOL    HW222081   5.178   3.626   2.525  0.5291  0.3071 -1.4044
 6994SOL     OW22082   8.064   8.394   6.115  0.3896 -0.1132 -0.1736
 6994SOL    HW122083   8.027   8.352   6.192  0.2066  0.0253 -0.1847
 6994SOL    HW222084   8.017   8.477   6.108 -0.1468 -0.4713 -0.8854
 6995SOL     OW22085   5.147   2.123   7.915  0.3464  0.3169 -0.1388
 6995SOL    HW122086   5.125   2.037   7.878  0.8568 -0.1771  0.6764
 6995SOL    HW222087   5.213   2.104   7.982  2.1716  1.5752 -1.4909
 6996SOL     OW22088   5.257   6.550   0.653 -0.1704  0.5400  0.6412
 6996SOL    HW122089   5.279   6.643   0.653  0.9520  0.3371  2.5276
 6996SOL    HW222090   5.342   6.506   0.644 -0.6589 -0.3102  0.0743
 6997SOL     OW22091   2.566   6.465   5.592  0.4744 -0.2760  0.0999
 6997SOL    HW122092   2.637   6.524   5.619 -0.0161  0.1294  0.5316
 6997SOL    HW222093   2.606   6.378   5.594  0.8586 -0.0938  0.6976
 6998SOL     OW22094   8.498   3.850   6.434  0.5243  0.1776  0.2967
 6998SOL    HW122095   8.530   3.919   6.375  0.8726 -0.1635  0.0838
 6998SOL    HW222096   8.456   3.898   6.505  0.3289  0.6038 -0.0934
 6999SOL     OW22097   5.319   1.661   1.714 -0.1664  0.4459 -0.6841
 6999SOL    HW122098   5.338   1.574   1.679 -1.2563 -1.5403  3.0692
 6999SOL    HW222099   5.405   1.696   1.740  0.0698 -0.9131  0.5103
 7000SOL     OW22100   8.844   4.274   2.559 -0.2288 -0.2339 -0.0445
 7000SOL    HW122101   8.892   4.252   2.639 -0.3939 -1.5329 -0.2709
 7000SOL    HW222102   8.764   4.220   2.564 -0.1138 -0.5432 -1.2054
 7001SOL     OW22103   3.106   1.008   0.039 -0.7533 -0.7354  0.1264
 7001SOL    HW122104   3.101   0.921   0.079  0.0386  0.5177  3.1670
 7001SOL    HW222105   3.180   1.003  -0.021  0.6354 -1.6270  1.8373
 7002SOL     OW22106   8.625   1.610   4.527 -0.1306 -0.2638  0.0405
 7002SOL    HW122107   8.683   1.652   4.590 -0.1101  1.0999 -0.8409
 7002SOL    HW222108   8.597   1.529   4.570  0.1946  0.4212  1.6079
 7003SOL     OW22109   2.730   5.704   2.855 -0.0888 -0.2010  0.1711
 7003SOL    HW122110   2.673   5.653   2.798 -0.9373  2.6018 -1.6785
 7003SOL    HW222111   2.679   5.782   2.876  1.8357  0.8267  1.2875
 7004SOL     OW22112   0.849   2.880   6.805 -0.0162  0.6118  0.4879
 7004SOL    HW122113   0.839   2.968   6.768  1.6864  1.2095  1.3170
 7004SOL    HW222114   0.848   2.894   6.900 -0.9883 -0.4511  0.6526
 7005SOL     OW22115   1.170   1.893   0.772  0.5213 -0.6793  0.0608
 7005SOL    HW122116   1.173   1.847   0.688  1.6381 -0.3215 -0.1115
 7005SOL    HW222117   1.247   1.862   0.819  1.4347  1.1269 -0.1419
 7006SOL     OW22118   5.489   7.536   7.170  0.2956 -0.1648  0.1686
 7006SOL    HW122119   5.429   7.489   7.111 -1.3748  0.4592  1.2787
 7006SOL    HW222120   5.431   7.586   7.228  1.9519  2.4710 -0.2743
 7007SOL     OW22121   6.450   0.200   5.669 -0.5925 -0.2357  0.1065
 7007SOL    HW122122   6.524   0.244   5.628  0.2246  0.0273  1.7774
 7007SOL    HW222123   6.481   0.111   5.683 -0.5255 -0.0809  0.9573
 7008SOL     OW22124   0.490   4.103   8.478 -0.7016  0.3935  0.8571
 7008SOL    HW122125   0.439   4.168   8.526  0.1827  0.5590  1.6221
 7008SOL    HW222126   0.507   4.034   8.542 -0.7123 -0.0731  0.3651
 7009SOL     OW22127   6.015   6.443   4.746 -0.4547  0.2771  0.0119
 7009SOL    HW122128   5.929   6.484   4.747  0.5279  2.4639  1.2969
 7009SOL    HW222129   6.000   6.355   4.780 -1.9048  1.2978  2.2202
 7010SOL     OW22130   8.716   8.452   2.983  0.4380 -0.4637 -0.0401
 7010SOL    HW122131   8.805   8.477   2.958  0.0982  1.0088  0.1169
 7010SOL    HW222132   8.664   8.531   2.967 -0.6149 -0.9171  1.0425
 7011SOL     OW22133   8.322   0.390   0.508 -0.1092 -0.1182 -0.2155
 7011SOL    HW122134   8.348   0.357   0.594  1.0250 -0.5815 -0.7179
 7011SOL    HW222135   8.241   0.437   0.525 -0.5967 -1.2677  0.9088
 7012SOL     OW22136   7.047   4.345   7.808  0.2496 -0.4883  0.3979
 7012SOL    HW122137   7.014   4.360   7.897 -0.8262 -0.6527  0.0332
 7012SOL    HW222138   6.980   4.383   7.751  0.4983 -1.1872 -0.3663
 7013SOL     OW22139   7.086   2.860   4.798 -0.1012 -0.0467  0.5004
 7013SOL    HW122140   7.044   2.789   4.749  0.5067  0.3929 -0.6958
 7013SOL    HW222141   7.179   2.841   4.792  0.0653  0.8342  0.2100
 7014SOL     OW22142   6.535   6.718   7.277 -0.0862 -0.0523  0.4229
 7014SOL    HW122143   6.460   6.765   7.314  1.1336  1.9952  0.4333
 7014SOL    HW222144   6.599   6.786   7.257  2.3764 -1.8226  1.6909
 7015SOL     OW22145   1.417   2.734   2.124 -0.0242 -0.4558 -0.0623
 7015SOL    HW122146   1.508   2.732   2.154  0.1580  2.4421 -0.1564
 7015SOL    HW222147   1.366   2.698   2.197  1.0008  0.1885  0.9995
 7016SOL     OW22148   5.172   4.628   0.036 -0.0917 -0.0012 -0.1571
 7016SOL    HW122149   5.135   4.605   0.121  0.9792  0.4279  0.4408
 7016SOL    HW222150   5.161   4.723   0.030  0.3343  0.0450 -0.2445
 7017SOL     OW22151   0.232   0.468   5.020  0.1765 -0.0016 -0.3136
 7017SOL    HW122152   0.316   0.467   4.974 -0.0370 -0.1200 -0.7030
 7017SOL    HW222153   0.251   0.510   5.104  0.3580  1.1498 -0.9110
 7018SOL     OW22154   2.134   0.472   8.712  0.1589  0.0726 -0.3067
 7018SOL    HW122155   2.071   0.490   8.642 -1.0587  1.3142  1.0481
 7018SOL    HW222156   2.098   0.516   8.789  1.5304 -1.1205  1.0866
 7019SOL     OW22157   4.206   8.406   8.831  0.2758 -0.4863 -0.5451
 7019SOL    HW122158   4.164   8.320   8.819  2.9649 -1.8951 -0.6217
 7019SOL    HW222159   4.140   8.469   8.800 -1.5632 -2.5325 -1.0779
 7020SOL     OW22160   2.612   6.768   3.305  0.2296  0.0123 -0.0693
 7020SOL    HW122161   2.694   6.817   3.309  0.0158  0.3162  0.7287
 7020SOL    HW222162   2.553   6.823   3.253  0.2031  0.2941  0.2538
 7021SOL     OW22163   4.627   4.939   8.708 -0.2592 -0.2265 -0.4938
 7021SOL    HW122164   4.565   4.906   8.773 -0.1790 -0.1241 -0.3659
 7021SOL    HW222165   4.700   4.877   8.711  0.3870  0.5600  0.5208
 7022SOL     OW22166   7.153   3.813   0.416 -0.4810  0.3388 -0.8951
 7022SOL    HW122167   7.197   3.763   0.486 -0.2950 -0.2074 -1.3961
 7022SOL    HW222168   7.166   3.904   0.440 -0.4954  0.1577 -0.1639
 7023SOL     OW22169   7.514   0.751   9.099 -0.2286  0.3739  0.3037
 7023SOL    HW122170   7.437   0.779   9.049  1.4211  3.1223 -0.9164
 7023SOL    HW222171   7.492   0.771   9.190 -1.1247  0.6477  0.0415
 7024SOL     OW22172   3.062   8.001   0.052  0.1442 -0.6708  0.6304
 7024SOL    HW122173   3.120   7.975  -0.019 -0.0492  2.2202 -0.7116
 7024SOL    HW222174   2.977   7.963   0.029 -0.4521  1.8710 -1.9440
 7025SOL     OW22175   4.512   9.010   0.745  0.1946  0.6777 -0.4066
 7025SOL    HW122176   4.602   9.039   0.756  0.6515 -0.3648 -1.3536
 7025SOL    HW222177   4.508   8.925   0.788 -0.3417  0.7063 -0.3848
 7026SOL     OW22178   7.962   2.036   6.548  0.1478  0.3902 -0.2278
 7026SOL    HW122179   7.950   2.130   6.536 -0.7211  0.4087  0.6610
 7026SOL    HW222180   7.941   2.020   6.640 -1.0546 -0.8854 -0.6840
 7027SOL     OW22181   7.784   4.070   5.957 -0.5241  0.5436 -0.1380
 7027SOL    HW122182   7.818   4.159   5.959  1.9004 -0.2963 -0.3255
 7027SOL    HW222183   7.689   4.080   5.950 -0.3117  3.0804 -0.2085
 7028SOL     OW22184   5.070   8.783   4.522  0.0335  0.1924 -0.1168
 7028SOL    HW122185   5.107   8.723   4.588  0.7293 -1.9636 -2.3084
 7028SOL    HW222186   5.083   8.870   4.559  1.0220 -0.8739  2.2682
 7029SOL     OW22187   1.952   1.124   6.484  0.8933  0.0603  0.2808
 7029SOL    HW122188   2.044   1.128   6.511  0.0506  1.3089  3.4904
 7029SOL    HW222189   1.904   1.156   6.560 -2.2150 -0.2321 -1.4050
 7030SOL     OW22190   4.787   5.761   5.034 -0.0351  0.3013  0.0692
 7030SOL    HW122191   4.696   5.745   5.007 -0.3669  1.7253  0.2456
 7030SOL    HW222192   4.790   5.733   5.125 -0.3669  0.4571  0.1304
 7031SOL     OW22193   7.171   4.256   4.058 -0.1240 -0.0461 -0.4299
 7031SOL    HW122194   7.157   4.350   4.052  0.1838  0.0518  0.3404
 7031SOL    HW222195   7.134   4.221   3.976 -2.3934  0.4834  0.3038
 7032SOL     OW22196   2.307   7.403   4.804 -0.1956 -0.3716  0.1771
 7032SOL    HW122197   2.319   7.468   4.734  0.8529 -1.1045 -0.3458
 7032SOL    HW222198   2.383   7.346   4.797 -1.1730 -1.7665  0.5216
 7033SOL     OW22199   8.437   4.220   1.135 -0.4841 -0.0574  0.1489
 7033SOL    HW122200   8.384   4.185   1.064 -0.3032 -0.8343  0.3832
 7033SOL    HW222201   8.375   4.271   1.188 -0.7199  0.1163 -0.2895
 7034SOL     OW22202   7.404   2.127   6.150 -0.0701  0.4996 -0.3853
 7034SOL    HW122203   7.362   2.192   6.093  1.0857  0.6799 -1.0804
 7034SOL    HW222204   7.498   2.141   6.136  0.2429  0.4052  1.4353
 7035SOL     OW22205   1.222   5.035   5.340 -0.0016 -0.1989 -0.2529
 7035SOL    HW122206   1.213   5.130   5.328  0.0654 -0.2812 -0.9887
 7035SOL    HW222207   1.147   4.997   5.294  0.0950 -0.5146 -0.1546
 7036SOL     OW22208   0.775   7.120   0.484  0.3570  0.0491  0.4322
 7036SOL    HW122209   0.706   7.132   0.550 -0.3662  0.1238 -0.3264
 7036SOL    HW222210   0.752   7.039   0.439 -0.1245  0.8678 -0.8611
 7037SOL     OW22211   6.559   4.561   8.535 -0.0652 -0.3452  0.2486
 7037SOL    HW122212   6.612   4.496   8.582  0.3799  0.9991  1.7331
 7037SOL    HW222213   6.606   4.576   8.453  0.6481 -0.7805  0.5676
 7038SOL     OW22214   6.739   6.447   7.804  0.0735 -0.4453  0.7006
 7038SOL    HW122215   6.699   6.361   7.820  2.1125 -1.7792 -0.9279
 7038SOL    HW222216   6.823   6.428   7.764  1.7920  2.2653  2.6600
 7039SOL     OW22217   4.989   7.734   1.696  0.5937 -0.6038  0.1569
 7039SOL    HW122218   4.935   7.713   1.773  1.0476 -0.4352  0.5275
 7039SOL    HW222219   4.990   7.652   1.646  0.3341 -0.7332  0.3566
 7040SOL     OW22220   3.314   7.478   4.659  0.1234 -0.2735  0.9035
 7040SOL    HW122221   3.333   7.387   4.634 -0.2683 -0.2957  0.6869
 7040SOL    HW222222   3.398   7.522   4.655  0.1120 -0.3336 -0.2050
 7041SOL     OW22223   8.044   5.213   7.732 -0.1213 -0.1195  0.4683
 7041SOL    HW122224   8.104   5.218   7.807  0.3465 -2.3430  0.3156
 7041SOL    HW222225   8.072   5.136   7.684 -0.2761  1.3718 -2.1802
 7042SOL     OW22226   6.429   0.643   6.854 -0.5544  0.0878 -0.0065
 7042SOL    HW122227   6.511   0.664   6.898 -0.0929 -1.2138 -0.1993
 7042SOL    HW222228   6.456   0.605   6.770 -1.3499 -0.3550 -0.0711
 7043SOL     OW22229   3.999   0.721   2.822 -0.2178  0.3834  0.4116
 7043SOL    HW122230   4.086   0.760   2.828 -0.4675  0.9035  0.7375
 7043SOL    HW222231   3.951   0.779   2.763  0.5212 -1.5479 -2.2731
 7044SOL     OW22232   3.242   5.886   0.411 -0.0797 -0.8448 -0.9161
 7044SOL    HW122233   3.210   5.972   0.383 -1.0011 -1.5413 -2.1015
 7044SOL    HW222234   3.284   5.850   0.332  0.6695 -1.3267 -0.3135
 7045SOL     OW22235   7.148   5.289   5.849 -0.0397  0.0865 -0.0985
 7045SOL    HW122236   7.154   5.200   5.813  0.2137 -0.5070  1.3342
 7045SOL    HW222237   7.193   5.344   5.786  1.0312 -1.0196 -0.3343
 7046SOL     OW22238   3.200   5.705   0.620  0.4197 -0.0380  0.0953
 7046SOL    HW122239   3.193   5.776   0.556 -0.7536 -1.7289 -1.7728
 7046SOL    HW222240   3.253   5.638   0.577  0.7042 -0.7238  1.4298
 7047SOL     OW22241   7.315   1.364   1.136 -0.0986  0.3939  0.0915
 7047SOL    HW122242   7.302   1.280   1.093  1.7869  0.7155 -1.2488
 7047SOL    HW222243   7.227   1.394   1.159 -1.0387 -0.7106 -1.8252
 7048SOL     OW22244   8.742   1.659   3.821  0.3651  0.1643 -0.4895
 7048SOL    HW122245   8.731   1.747   3.857  0.4636  0.1302 -0.3739
 7048SOL    HW222246   8.767   1.673   3.730  2.9143  0.3249  0.1423
 7049SOL     OW22247   5.833   7.848   8.845  0.5588 -0.0182 -0.3141
 7049SOL    HW122248   5.779   7.897   8.783  0.7882  1.8994  0.9304
 7049SOL    HW222249   5.803   7.757   8.836 -3.2782  0.9684  0.6279
 7050SOL     OW22250   8.594   3.161   4.592 -0.4082 -0.2158 -0.2655
 7050SOL    HW122251   8.686   3.180   4.608 -0.2779 -0.7779 -0.3051
 7050SOL    HW222252   8.555   3.152   4.679 -0.8255  1.7781 -0.2169
 7051SOL     OW22253   7.482   5.121   7.425 -0.2421  0.5141 -0.0001
 7051SOL    HW122254   7.482   5.025   7.434  0.4764  0.5163  0.0258
 7051SOL    HW222255   7.522   5.137   7.339 -1.3565  0.7566 -0.4967
 7052SOL     OW22256   2.656   3.377   2.631  0.0687 -0.0746 -0.3245
 7052SOL    HW122257   2.578   3.416   2.590 -0.4488  2.3193  2.5505
 7052SOL    HW222258   2.662   3.289   2.593 -3.2112  0.1462 -1.6966
 7053SOL     OW22259   1.343   8.716   7.016  0.3035 -0.3078  0.5557
 7053SOL    HW122260   1.424   8.676   6.982  0.1561  0.0660 -0.2703
 7053SOL    HW222261   1.353   8.809   6.996 -1.2646 -0.5244 -1.6099
 7054SOL     OW22262   6.702   3.830   6.369  0.2534 -0.3227  0.4093
 7054SOL    HW122263   6.681   3.893   6.437  0.7273 -0.7836  0.9874
 7054SOL    HW222264   6.707   3.746   6.414  1.4532 -0.5037 -0.0223
 7055SOL     OW22265   1.393   8.846   0.558  0.2919 -0.3694 -0.0519
 7055SOL    HW122266   1.379   8.767   0.506 -2.0917  2.2697 -3.8800
 7055SOL    HW222267   1.327   8.839   0.628  0.2855 -1.8148 -0.1576
 7056SOL     OW22268   8.854   6.922   0.095  0.2135  0.3629  0.0901
 7056SOL    HW122269   8.764   6.894   0.082 -0.0275  0.9415  0.4523
 7056SOL    HW222270   8.880   6.960   0.011 -0.6142  2.1309  0.5825
 7057SOL     OW22271   8.506   8.445   4.352 -0.0117  0.2712 -0.7800
 7057SOL    HW122272   8.476   8.528   4.390  0.5490 -0.8081  2.3455
 7057SOL    HW222273   8.431   8.415   4.300 -0.6728  2.1493 -0.9949
 7058SOL     OW22274   5.715   6.470   3.025 -0.4752 -0.2702 -0.3790
 7058SOL    HW122275   5.744   6.560   3.019 -0.2886 -0.3492 -0.6911
 7058SOL    HW222276   5.632   6.468   2.976 -0.2970 -0.3426 -0.6835
 7059SOL     OW22277   2.487   5.008   2.994 -0.2627  0.2768 -0.1692
 7059SOL    HW122278   2.421   4.966   3.049  0.0256 -0.1692 -0.1578
 7059SOL    HW222279   2.570   4.979   3.030 -0.0231  1.7108  0.5044
 7060SOL     OW22280   3.302   3.893   0.433 -0.6307  0.0521  0.0401
 7060SOL    HW122281   3.309   3.798   0.427 -0.5933  0.0565  0.0178
 7060SOL    HW222282   3.288   3.910   0.526 -0.6505  0.0239  0.0422
 7061SOL     OW22283   8.853   7.763   2.897 -0.0608  0.0291  0.1098
 7061SOL    HW122284   8.870   7.726   2.984 -2.2571 -0.5154  0.3714
 7061SOL    HW222285   8.852   7.858   2.911  1.4451  0.0577  0.2620
 7062SOL     OW22286   2.513   6.811   4.466 -0.4959  0.2926  0.2715
 7062SOL    HW122287   2.589   6.868   4.465 -1.9300  2.2994 -1.1421
 7062SOL    HW222288   2.489   6.804   4.558  0.6273  0.6666  0.6079
 7063SOL     OW22289   3.528   2.582   3.426  0.3522  0.6272  0.1731
 7063SOL    HW122290   3.535   2.634   3.346 -1.0458  0.3602 -0.1466
 7063SOL    HW222291   3.457   2.624   3.476 -0.4793 -0.6686  0.1189
 7064SOL     OW22292   4.202   7.235   1.712  0.0518 -0.1396 -0.5028
 7064SOL    HW122293   4.157   7.176   1.651 -0.5762 -0.2303  0.0368
 7064SOL    HW222294   4.279   7.265   1.664 -0.7931  0.3446 -1.6001
 7065SOL     OW22295   0.918   1.214   1.705 -0.1704 -0.8762 -0.0671
 7065SOL    HW122296   0.880   1.272   1.639  0.4214 -0.1370  0.2369
 7065SOL    HW222297   0.949   1.272   1.774  0.4112 -1.5526  0.2573
 7066SOL     OW22298   3.870   1.352   2.462 -0.2644  0.3445 -0.1015
 7066SOL    HW122299   3.904   1.436   2.492  0.6167  0.1848 -0.6276
 7066SOL    HW222300   3.777   1.368   2.445 -0.2456  1.0364  0.4429
 7067SOL     OW22301   2.710   1.245   3.633 -0.0179 -0.0623 -0.2137
 7067SOL    HW122302   2.690   1.152   3.620 -1.6053  0.4946 -2.4095
 7067SOL    HW222303   2.774   1.265   3.566  0.2056  0.4714  0.1567
 7068SOL     OW22304   7.498   8.825   2.974  0.0135  0.3135  0.1166
 7068SOL    HW122305   7.578   8.845   2.927  0.1881  0.0531  0.3018
 7068SOL    HW222306   7.429   8.869   2.924  0.0936 -0.6061 -0.8236
 7069SOL     OW22307   5.061   0.683   3.835  0.1177  0.0980  0.8948
 7069SOL    HW122308   5.030   0.726   3.756  1.7871  1.4648  0.9350
 7069SOL    HW222309   5.003   0.607   3.845 -1.3622  0.9733 -0.5260
 7070SOL     OW22310   0.330   5.358   6.966  0.9099 -0.3624 -0.3475
 7070SOL    HW122311   0.245   5.395   6.990  0.7774 -0.9523  0.1122
 7070SOL    HW222312   0.358   5.309   7.043  1.4773 -0.5153 -0.6419
 7071SOL     OW22313   7.360   2.452   0.647 -0.2326  0.1923 -0.2330
 7071SOL    HW122314   7.281   2.472   0.698 -1.0933 -1.4760 -0.8649
 7071SOL    HW222315   7.372   2.358   0.656  0.1548  0.0025 -2.3379
 7072SOL     OW22316   2.014   8.819   1.541  0.0511 -0.2854 -0.3094
 7072SOL    HW122317   2.068   8.851   1.468  2.7163 -1.6914  0.8807
 7072SOL    HW222318   2.035   8.877   1.613  0.8969 -1.4957  0.4632
 7073SOL     OW22319   5.690   7.627   8.883  0.2757 -0.3082 -0.4316
 7073SOL    HW122320   5.714   7.543   8.921 -1.0591 -0.2261  0.6795
 7073SOL    HW222321   5.594   7.626   8.881  0.2671  0.6173 -1.7335
 7074SOL     OW22322   4.209   7.800   2.977 -0.0501  0.1170  0.3583
 7074SOL    HW122323   4.205   7.829   3.068 -0.1342  0.4816  0.2383
 7074SOL    HW222324   4.215   7.705   2.983  0.0764  0.1490  0.7478
 7075SOL     OW22325   3.100   0.435   2.287  0.3163  0.3553 -0.3260
 7075SOL    HW122326   3.023   0.469   2.241  0.6487  0.7458 -0.5998
 7075SOL    HW222327   3.132   0.509   2.339  1.1548  0.5362 -1.0685
 7076SOL     OW22328   8.520   3.341   1.275 -0.0186  0.2045  0.6663
 7076SOL    HW122329   8.502   3.426   1.315  0.6416  1.1608 -0.9550
 7076SOL    HW222330   8.452   3.330   1.209 -0.1201 -0.5695  0.8845
 7077SOL     OW22331   2.150   3.675   6.336 -0.1368 -0.0334  0.1127
 7077SOL    HW122332   2.086   3.609   6.362 -0.7958  1.0022  1.2574
 7077SOL    HW222333   2.103   3.758   6.344  0.6730  0.5865 -1.2659
 7078SOL     OW22334   5.302   8.790   6.510  0.2799 -0.1068 -0.4079
 7078SOL    HW122335   5.375   8.730   6.525  0.4406 -0.4529 -2.2875
 7078SOL    HW222336   5.264   8.761   6.427 -0.5687  1.4818 -0.6172
 7079SOL     OW22337   3.347   6.480   3.045 -0.0380 -0.1367 -0.3042
 7079SOL    HW122338   3.362   6.566   3.005 -1.8007  0.7180  0.7284
 7079SOL    HW222339   3.258   6.485   3.080  0.6309 -1.5675  1.8208
 7080SOL     OW22340   2.243   8.826   7.074  0.1365 -0.0198  0.4946
 7080SOL    HW122341   2.214   8.909   7.035  0.1520 -0.2930 -0.1231
 7080SOL    HW222342   2.182   8.761   7.038  0.6899 -0.4056  0.2384
 7081SOL     OW22343   1.568   7.645   7.629 -0.0950  0.0642 -0.0926
 7081SOL    HW122344   1.552   7.551   7.617  0.8337 -0.1442  0.2347
 7081SOL    HW222345   1.653   7.661   7.587 -0.2576  0.7646 -0.1685
 7082SOL     OW22346   3.865   7.262   0.943 -0.6665  0.2514 -0.1623
 7082SOL    HW122347   3.819   7.266   0.859  0.7639 -4.5641 -1.4689
 7082SOL    HW222348   3.803   7.220   1.002 -0.0962 -0.6224 -0.1733
 7083SOL     OW22349   8.180   4.020   1.727  0.0023 -0.4535 -0.0295
 7083SOL    HW122350   8.151   4.109   1.749  1.8344  0.3157 -0.5161
 7083SOL    HW222351   8.107   3.964   1.753 -0.7948  1.0902  1.2687
 7084SOL     OW22352   2.014   6.908   6.052  0.0528  0.1190 -0.4163
 7084SOL    HW122353   2.102   6.892   6.018  0.0211  0.2679 -0.5653
 7084SOL    HW222354   2.011   6.858   6.134  0.6003  0.8604  0.0692
 7085SOL     OW22355   6.692   1.075   2.197 -0.3429  0.1204 -0.6052
 7085SOL    HW122356   6.785   1.067   2.177 -0.5327  1.9095 -2.5137
 7085SOL    HW222357   6.652   0.998   2.158  0.3126 -0.7443  0.3622
 7086SOL     OW22358   3.478   7.065   3.418  0.3656 -0.2258  0.0555
 7086SOL    HW122359   3.389   7.102   3.418  0.2454 -0.3993  2.0171
 7086SOL    HW222360   3.531   7.130   3.373 -0.3429  0.9958  0.9340
 7087SOL     OW22361   8.647   8.217   8.584 -0.6869  0.3036 -0.3907
 7087SOL    HW122362   8.671   8.304   8.615 -0.3530  0.4037 -0.9136
 7087SOL    HW222363   8.624   8.168   8.663  0.0201  0.5903 -0.0028
 7088SOL     OW22364   0.279   4.510   4.310  0.1219  0.4300 -0.2984
 7088SOL    HW122365   0.321   4.595   4.325  0.3878  0.2266  0.1284
 7088SOL    HW222366   0.349   4.446   4.320 -0.4376  0.0216  1.2923
 7089SOL     OW22367   2.260   5.178   6.432 -0.0184  0.9139 -0.6551
 7089SOL    HW122368   2.245   5.261   6.475 -1.0633 -0.2217  1.3152
 7089SOL    HW222369   2.327   5.135   6.484 -0.9424 -0.2878 -0.3910
 7090SOL     OW22370   3.719   8.889   7.488 -0.3347  0.1328 -0.1088
 7090SOL    HW122371   3.800   8.845   7.465 -0.2593 -0.1233  0.6116
 7090SOL    HW222372   3.746   8.977   7.516 -0.1216 -0.3939  1.4795
 7091SOL     OW22373   5.374   5.397   8.418  0.3188  0.1219 -0.3397
 7091SOL    HW122374   5.413   5.310   8.410  0.5186  0.1947 -0.1588
 7091SOL    HW222375   5.398   5.426   8.506  2.3788  1.4034 -1.2643
 7092SOL     OW22376   2.051   5.565   1.042 -0.1721  0.4508 -0.3615
 7092SOL    HW122377   2.023   5.527   1.125  1.0466 -1.4432 -0.7414
 7092SOL    HW222378   2.146   5.578   1.052 -0.1663  1.1119 -1.1345
 7093SOL     OW22379   8.202   0.390   2.808 -0.0155  0.0809  0.3483
 7093SOL    HW122380   8.257   0.468   2.813  2.0772 -1.2552 -0.3833
 7093SOL    HW222381   8.129   0.415   2.751  0.7639  1.3943 -0.1205
 7094SOL     OW22382   5.501   5.924   1.712 -0.0041 -0.2004  0.1793
 7094SOL    HW122383   5.580   5.873   1.695 -0.0265  0.1228 -1.0052
 7094SOL    HW222384   5.433   5.859   1.728 -0.1675 -0.6057 -1.9002
 7095SOL     OW22385   0.002   7.991   5.231 -0.0379  0.0968 -0.8048
 7095SOL    HW122386   0.040   8.076   5.211  2.8903 -0.9293 -0.0902
 7095SOL    HW222387   0.029   7.974   5.321 -3.8427 -0.0059  0.4701
 7096SOL     OW22388   2.463   2.094   6.348  0.4862  0.1207 -0.1686
 7096SOL    HW122389   2.451   2.020   6.289 -0.9327  0.5568 -0.4734
 7096SOL    HW222390   2.403   2.161   6.314 -0.9307  0.1319  2.1736
 7097SOL     OW22391   5.292   3.593   5.925 -0.0753  0.6290  0.3154
 7097SOL    HW122392   5.257   3.637   6.003 -0.2122  1.3453 -0.1341
 7097SOL    HW222393   5.307   3.664   5.863 -0.0888  0.0529 -0.3591
 7098SOL     OW22394   3.658   2.266   7.818 -0.1913  0.4985 -0.2090
 7098SOL    HW122395   3.646   2.208   7.893  3.3972 -0.2864 -0.0935
 7098SOL    HW222396   3.655   2.354   7.855  0.2172  0.1649  0.6349
 7099SOL     OW22397   8.547   8.116   7.257  0.2575 -0.4409  0.5091
 7099SOL    HW122398   8.590   8.187   7.211  0.6141 -0.6522  0.5146
 7099SOL    HW222399   8.477   8.159   7.307 -0.8700 -0.3430 -1.0913
 7100SOL     OW22400   0.087   5.029   3.753 -0.0985  0.3433 -0.0988
 7100SOL    HW122401   0.117   4.939   3.740  0.4843  0.2404  1.6627
 7100SOL    HW222402   0.163   5.074   3.790 -0.6565  1.3323 -0.1343
 7101SOL     OW22403   8.039   0.336   6.929  0.0304 -0.0092  0.6612
 7101SOL    HW122404   7.953   0.350   6.890  1.0200  1.3755 -1.2338
 7101SOL    HW222405   8.093   0.304   6.856  0.9259 -1.7489  2.0235
 7102SOL     OW22406   0.332   6.011   7.045  0.3987 -0.5635 -0.0387
 7102SOL    HW122407   0.255   5.960   7.021  0.3227  0.2469 -1.7017
 7102SOL    HW222408   0.340   6.076   6.975  0.7826  1.3843  1.7136
 7103SOL     OW22409   1.669   3.371   3.943 -0.2844  0.0332 -0.0222
 7103SOL    HW122410   1.674   3.330   4.029 -0.5542 -0.1449 -0.0928
 7103SOL    HW222411   1.721   3.315   3.886  1.6816  1.2695  0.4522
 7104SOL     OW22412   3.140   1.410   5.434  0.5357  0.2112  0.6098
 7104SOL    HW122413   3.185   1.327   5.446 -1.5312 -0.8975  1.1801
 7104SOL    HW222414   3.086   1.420   5.512 -0.4302  1.3055 -0.1575
 7105SOL     OW22415   3.687   2.015   1.481  0.4086 -0.4700  0.0968
 7105SOL    HW122416   3.710   2.003   1.389 -0.0823  0.3057 -0.1348
 7105SOL    HW222417   3.627   1.943   1.500 -0.0942 -0.1990 -0.4135
 7106SOL     OW22418   3.222   7.916   0.524 -0.2676  0.4845  0.3039
 7106SOL    HW122419   3.286   7.983   0.500 -1.0514  1.2171  0.1815
 7106SOL    HW222420   3.148   7.966   0.559 -0.3185 -0.4140  1.5111
 7107SOL     OW22421   2.785   3.371   4.544 -0.4389 -0.3489 -0.1128
 7107SOL    HW122422   2.730   3.449   4.541 -1.4321 -1.0647 -1.5726
 7107SOL    HW222423   2.857   3.391   4.484 -1.1094 -0.8244 -1.1026
 7108SOL     OW22424   7.298   6.844   1.091 -0.4343 -0.2513  0.1715
 7108SOL    HW122425   7.279   6.874   1.002  1.8875 -1.1315 -0.6935
 7108SOL    HW222426   7.254   6.760   1.098 -1.6299  0.3686  0.3186
 7109SOL     OW22427   5.346   8.072   1.209  0.2232  0.2652  0.7974
 7109SOL    HW122428   5.433   8.059   1.245  0.1840  0.1395  0.8484
 7109SOL    HW222429   5.313   7.983   1.193  0.1657  0.3154  0.6343
 7110SOL     OW22430   7.764   3.133   7.259 -0.2500 -0.1191 -0.2773
 7110SOL    HW122431   7.756   3.099   7.348 -1.5989 -1.5230 -0.8851
 7110SOL    HW222432   7.809   3.064   7.211  2.2609  1.4295 -0.3307
 7111SOL     OW22433   1.461   4.575   6.650  0.3488 -0.1927 -0.5724
 7111SOL    HW122434   1.394   4.626   6.605  0.8955  0.0167 -1.1613
 7111SOL    HW222435   1.411   4.512   6.703 -0.3887  1.6979  1.1334
 7112SOL     OW22436   1.040   7.146   4.961 -0.3324  0.1420 -0.2356
 7112SOL    HW122437   1.093   7.190   4.896 -0.6634 -0.7435 -1.1290
 7112SOL    HW222438   1.011   7.065   4.918 -0.7125 -0.3697  0.9378
 7113SOL     OW22439   0.626   9.130   0.086 -0.3051 -0.9326 -0.2046
 7113SOL    HW122440   0.564   9.197   0.114  2.1450  1.2741  0.3325
 7113SOL    HW222441   0.667   9.168   0.008  1.0032 -1.8832 -0.0019
 7114SOL     OW22442   1.870   2.131   1.309 -0.4649 -0.2134  0.5459
 7114SOL    HW122443   1.922   2.212   1.319  1.4480 -1.1717 -0.9092
 7114SOL    HW222444   1.858   2.100   1.398  0.1439  0.8688  1.0349
 7115SOL     OW22445   3.212   4.922   4.341  0.3151  0.3823  0.6559
 7115SOL    HW122446   3.215   4.827   4.352  0.7171  0.2121 -0.7588
 7115SOL    HW222447   3.243   4.937   4.252  0.1754  1.8427  0.8290
 7116SOL     OW22448   0.299   0.110   8.939 -0.3840 -0.2409  0.0237
 7116SOL    HW122449   0.233   0.166   8.899 -0.4441 -0.6013 -0.3933
 7116SOL    HW222450   0.249   0.042   8.984 -0.3059 -1.0745 -1.1026
 7117SOL     OW22451   1.577   5.585   6.191 -0.5376  0.3053 -0.1942
 7117SOL    HW122452   1.616   5.498   6.178  1.2719  1.2082 -1.1905
 7117SOL    HW222453   1.608   5.612   6.277 -1.1221 -0.0301  0.1279
 7118SOL     OW22454   5.615   4.143   3.668 -0.0454  0.3881 -0.1091
 7118SOL    HW122455   5.598   4.049   3.660 -0.3543  0.4737 -0.4832
 7118SOL    HW222456   5.589   4.179   3.584  0.4178  0.7638 -0.0930
 7119SOL     OW22457   8.148   7.802   5.427 -0.8293 -0.8989  0.3940
 7119SOL    HW122458   8.169   7.775   5.338  2.3401 -0.1952  0.7767
 7119SOL    HW222459   8.113   7.723   5.469  1.4684 -2.4614 -0.4200
 7120SOL     OW22460   4.145   4.716   2.396 -0.0396 -0.9234  0.2027
 7120SOL    HW122461   4.073   4.722   2.459  0.5299  1.1159  0.7565
 7120SOL    HW222462   4.104   4.686   2.315 -1.4307 -0.3564  0.6623
 7121SOL     OW22463   3.518   4.609   8.343 -0.1086 -0.5979  0.0168
 7121SOL    HW122464   3.552   4.538   8.288 -0.2563  0.0262 -0.8984
 7121SOL    HW222465   3.507   4.682   8.283  1.3215  0.6403  1.1909
 7122SOL     OW22466   1.323   7.186   4.525 -0.0807 -0.1584  0.7676
 7122SOL    HW122467   1.249   7.125   4.523  0.0602 -0.3204  0.5005
 7122SOL    HW222468   1.343   7.202   4.433  0.2251 -0.1242  0.8390
 7123SOL     OW22469   8.970   0.641   6.124  0.4699 -0.2277 -0.4564
 7123SOL    HW122470   8.882   0.603   6.120  0.9422 -1.5470  0.8791
 7123SOL    HW222471   8.990   0.644   6.218  0.8113  2.5986 -0.5094
 7124SOL     OW22472   7.706   0.678   8.118 -0.3308 -0.4358  0.1601
 7124SOL    HW122473   7.727   0.585   8.108 -1.6139 -0.7943  0.5677
 7124SOL    HW222474   7.720   0.697   8.210 -0.6839 -0.4015  0.2114
 7125SOL     OW22475   6.648   1.381   4.818  0.1237  0.3051 -0.2327
 7125SOL    HW122476   6.620   1.316   4.754 -1.5564 -0.1327  0.8691
 7125SOL    HW222477   6.648   1.333   4.901  2.5641  0.7708  0.1040
 7126SOL     OW22478   5.863   2.450   4.714  0.4262 -0.0266  0.5038
 7126SOL    HW122479   5.903   2.402   4.641  0.8522 -1.5014  1.6432
 7126SOL    HW222480   5.906   2.535   4.714 -0.2979  0.3828 -1.5492
 7127SOL     OW22481   2.363   3.411   1.521  0.1020  0.3986  0.4170
 7127SOL    HW122482   2.268   3.403   1.509  0.2981 -0.5842 -0.6325
 7127SOL    HW222483   2.394   3.456   1.443  0.6674 -0.5926  0.0589
 7128SOL     OW22484   5.437   1.736   2.086 -0.6331  0.4226 -0.2770
 7128SOL    HW122485   5.380   1.727   2.162 -1.6219  0.2128 -1.0266
 7128SOL    HW222486   5.461   1.646   2.063 -0.1680  0.4968 -0.1039
 7129SOL     OW22487   2.078   2.222   0.188 -0.3335 -0.1520  0.1647
 7129SOL    HW122488   2.090   2.254   0.277 -1.0963  1.4321 -0.2687
 7129SOL    HW222489   2.033   2.293   0.142  3.3789  0.7784 -2.5681
 7130SOL     OW22490   1.546   4.157   6.921  0.2356 -0.2421  0.0033
 7130SOL    HW122491   1.552   4.094   6.993  0.5143 -0.0041  0.1931
 7130SOL    HW222492   1.486   4.117   6.858  1.1693 -1.1373 -0.3305
 7131SOL     OW22493   2.817   4.884   5.701  0.5472 -0.2763 -0.2620
 7131SOL    HW122494   2.732   4.927   5.690  0.0056 -1.4772 -0.9885
 7131SOL    HW222495   2.818   4.815   5.634  0.3710 -2.9440  2.2562
 7132SOL     OW22496   2.718   3.552   3.170  0.0741  0.1505 -0.1085
 7132SOL    HW122497   2.784   3.615   3.139  1.4555 -1.1343  0.0833
 7132SOL    HW222498   2.762   3.505   3.241 -1.3329 -0.2695  0.5104
 7133SOL     OW22499   8.179   2.599   6.408 -0.1731  0.2130 -0.3355
 7133SOL    HW122500   8.136   2.575   6.490  1.9119 -0.3395  0.6565
 7133SOL    HW222501   8.149   2.689   6.392  0.5824  0.9413  1.9180
 7134SOL     OW22502   4.235   3.271   0.569 -0.2272 -0.0680 -0.2653
 7134SOL    HW122503   4.292   3.345   0.550 -0.0554 -0.2237 -0.3607
 7134SOL    HW222504   4.286   3.216   0.628 -1.4020  1.3010  2.2002
 7135SOL     OW22505   1.565   1.110   2.198 -0.1041 -0.0102 -0.1057
 7135SOL    HW122506   1.558   1.096   2.103  1.4269 -0.9178 -0.1219
 7135SOL    HW222507   1.542   1.026   2.237 -0.4781  0.2865  0.3212
 7136SOL     OW22508   5.785   8.414   7.158  0.2304 -0.4393  0.4748
 7136SOL    HW122509   5.877   8.416   7.131  0.1360 -0.7295  0.1190
 7136SOL    HW222510   5.767   8.502   7.190  0.9490 -0.6807  1.6071
 7137SOL     OW22511   0.128   6.142   7.416  0.0428 -0.2177  0.5011
 7137SOL    HW122512   0.163   6.067   7.462 -0.0336 -0.6292 -0.1057
 7137SOL    HW222513   0.205   6.193   7.391  0.0377  0.8253  2.4008
 7138SOL     OW22514   5.619   2.210   4.955  0.3360  0.0609  0.5239
 7138SOL    HW122515   5.622   2.286   4.897  2.7182  0.7538  1.4086
 7138SOL    HW222516   5.667   2.142   4.908  1.9090  0.4956  1.4010
 7139SOL     OW22517   4.545   8.961   3.014 -0.3705 -0.2318  0.0296
 7139SOL    HW122518   4.543   8.892   3.080  1.7454 -1.4690 -1.0940
 7139SOL    HW222519   4.547   8.915   2.930 -0.7164  1.2495 -0.8427
 7140SOL     OW22520   7.833   0.012   1.504 -0.3076  0.0892  0.2036
 7140SOL    HW122521   7.889   0.077   1.461 -1.1922  1.2177  0.7082
 7140SOL    HW222522   7.746   0.052   1.504 -0.8385 -1.0314  0.6904
 7141SOL     OW22523   5.633   1.418   4.990  0.2910  0.0734 -0.4708
 7141SOL    HW122524   5.622   1.336   5.040  0.0740  0.7331  0.5968
 7141SOL    HW222525   5.673   1.390   4.908  0.2807 -1.1041 -0.1037
 7142SOL     OW22526   0.260   1.397   7.357 -0.0271  0.7086  0.5242
 7142SOL    HW122527   0.309   1.451   7.419  0.2320 -0.1870  1.1240
 7142SOL    HW222528   0.327   1.359   7.301 -0.0525 -0.2042  1.0920
 7143SOL     OW22529   3.269   2.327   9.108  0.3679 -0.0462  0.6750
 7143SOL    HW122530   3.198   2.369   9.059 -0.6943 -0.5293  1.7359
 7143SOL    HW222531   3.225   2.257   9.157  1.3200  0.6007  2.5372
 7144SOL     OW22532   5.739   5.975   2.659 -0.3839 -0.0757 -0.1296
 7144SOL    HW122533   5.683   5.917   2.607  1.4322 -1.0202 -1.1059
 7144SOL    HW222534   5.755   5.927   2.740  0.1985 -0.4580 -0.4670
 7145SOL     OW22535   8.740   7.526   3.925  0.2439  0.7341 -0.6701
 7145SOL    HW122536   8.654   7.563   3.903  1.6272  3.2244 -2.3971
 7145SOL    HW222537   8.724   7.471   4.001 -2.8826  1.0309 -0.9913
 7146SOL     OW22538   5.685   3.674   2.953 -0.1234 -0.0847 -0.5585
 7146SOL    HW122539   5.629   3.736   3.000  0.3802  1.2561 -1.6650
 7146SOL    HW222540   5.773   3.691   2.987 -0.0400 -0.5090 -0.5557
 7147SOL     OW22541   8.003   1.230   8.416 -0.7852  0.6151  0.2822
 7147SOL    HW122542   8.070   1.257   8.479 -0.4507  1.6974 -0.5006
 7147SOL    HW222543   8.043   1.156   8.369 -0.9275 -0.0119  1.1289
 7148SOL     OW22544   4.163   2.474   8.229 -0.0874  0.7590  0.0958
 7148SOL    HW122545   4.224   2.538   8.189  0.6593  0.3075  0.4894
 7148SOL    HW222546   4.220   2.403   8.259 -1.0032 -0.6586 -1.3427
 7149SOL     OW22547   7.659   8.019   2.053 -0.2811  0.8562  0.5630
 7149SOL    HW122548   7.650   8.113   2.064 -2.3520  0.6126  1.3765
 7149SOL    HW222549   7.718   7.992   2.124 -0.8854  1.3603  1.2701
 7150SOL     OW22550   9.072   0.734   1.851 -0.2457  0.5225 -0.2396
 7150SOL    HW122551   9.002   0.734   1.916  0.6124 -0.1057  0.6979
 7150SOL    HW222552   9.029   0.703   1.771 -0.6436 -1.9293  0.8179
 7151SOL     OW22553   0.661   5.742   4.611  0.3159 -0.1461 -0.3135
 7151SOL    HW122554   0.722   5.700   4.550 -0.2972 -0.5847 -0.6398
 7151SOL    HW222555   0.578   5.697   4.596  0.4116 -1.1276  1.7455
 7152SOL     OW22556   1.758   6.962   7.894  0.2040 -0.6449  0.0839
 7152SOL    HW122557   1.769   7.052   7.862 -0.5939 -0.3549  0.6088
 7152SOL    HW222558   1.777   6.908   7.817 -1.8105  0.0521 -0.9698
 7153SOL     OW22559   7.803   4.773   2.448  0.9012  0.3868 -0.5661
 7153SOL    HW122560   7.895   4.800   2.449  0.7460  1.1372 -2.3875
 7153SOL    HW222561   7.756   4.850   2.480  0.8229  0.5060 -0.9587
 7154SOL     OW22562   1.184   6.567   3.214 -0.1606 -0.1533  0.3324
 7154SOL    HW122563   1.099   6.578   3.256  0.3662  0.5327  1.2670
 7154SOL    HW222564   1.186   6.634   3.146 -0.6688 -0.6899 -0.2231
 7155SOL     OW22565   6.883   1.701   8.963  0.1724  0.1324  0.2553
 7155SOL    HW122566   6.930   1.782   8.942  0.6210 -0.2607 -0.3204
 7155SOL    HW222567   6.948   1.647   9.009  0.4384 -0.5733 -0.8950
 7156SOL     OW22568   6.567   2.181   3.362 -0.1941 -0.4679  0.6191
 7156SOL    HW122569   6.590   2.166   3.454  1.0880  0.9438  0.5763
 7156SOL    HW222570   6.568   2.276   3.352  2.4134 -0.5789 -1.4298
 7157SOL     OW22571   1.379   0.308   5.853  0.4360  0.0256 -0.1162
 7157SOL    HW122572   1.386   0.249   5.928 -2.8251 -0.7228 -0.2571
 7157SOL    HW222573   1.387   0.250   5.777 -1.3314 -0.0507 -0.2676
 7158SOL     OW22574   7.129   3.510   0.419 -0.3344  0.1074 -0.4305
 7158SOL    HW122575   7.125   3.603   0.399 -0.9098  0.2343  0.2395
 7158SOL    HW222576   7.096   3.503   0.508  0.2838 -0.6718 -0.2506
 7159SOL     OW22577   5.631   0.242   4.157 -0.5629  0.4974  0.5936
 7159SOL    HW122578   5.626   0.177   4.227 -3.8112  0.3893  0.3961
 7159SOL    HW222579   5.628   0.326   4.203  0.2635  0.4866  0.6847
 7160SOL     OW22580   2.662   3.637   3.755  0.3461 -0.1689  0.1953
 7160SOL    HW122581   2.568   3.637   3.735  0.0490 -1.0901  1.4740
 7160SOL    HW222582   2.691   3.724   3.732 -0.6540 -0.1278 -1.0115
 7161SOL     OW22583   8.125   7.660   7.928  0.0141  0.4668 -0.5834
 7161SOL    HW122584   8.048   7.698   7.970  1.2422  1.8362  0.5832
 7161SOL    HW222585   8.091   7.590   7.873 -1.9667  0.5118  0.4923
 7162SOL     OW22586   0.319   5.113   2.342 -0.3274  0.3250 -0.3622
 7162SOL    HW122587   0.297   5.202   2.314 -1.0033  0.7809  1.4468
 7162SOL    HW222588   0.399   5.124   2.394 -0.1392 -0.1947 -0.5427
 7163SOL     OW22589   6.261   4.436   0.356  0.0683  0.3712  0.3289
 7163SOL    HW122590   6.348   4.470   0.333 -0.4420  1.1467 -0.4806
 7163SOL    HW222591   6.210   4.514   0.377 -0.4891 -0.0770  0.6511
 7164SOL     OW22592   3.818   0.504   2.748 -0.0372 -0.3100 -0.1698
 7164SOL    HW122593   3.813   0.491   2.653 -2.2797  0.7798 -0.2427
 7164SOL    HW222594   3.889   0.567   2.759  1.1721 -1.4487 -0.9493
 7165SOL     OW22595   0.939   7.040   2.467  0.5092  0.0179  0.5761
 7165SOL    HW122596   0.856   7.033   2.419  1.3850  0.3401 -1.0513
 7165SOL    HW222597   0.980   6.955   2.456  1.1334  0.3899 -0.0796
 7166SOL     OW22598   2.005   1.891   8.837  0.4384 -0.0696  0.5208
 7166SOL    HW122599   1.995   1.904   8.931  1.0240 -0.9497  0.7218
 7166SOL    HW222600   1.983   1.975   8.799 -2.8690 -0.4825  1.1833
 7167SOL     OW22601   0.641   2.682   0.491 -0.4236  0.0871  0.3350
 7167SOL    HW122602   0.736   2.686   0.507 -0.6365  0.3985  1.6138
 7167SOL    HW222603   0.614   2.774   0.488 -0.8413 -0.0030  1.0484
 7168SOL     OW22604   8.054   5.227   1.685  0.1222 -0.0101 -0.8707
 7168SOL    HW122605   8.065   5.165   1.758 -0.4260 -0.2355 -0.9746
 7168SOL    HW222606   8.050   5.313   1.727 -0.0025 -0.1233 -0.6486
 7169SOL     OW22607   8.862   2.133   1.084  0.4637 -0.2610  0.0965
 7169SOL    HW122608   8.861   2.166   0.994 -0.0339 -0.2285  0.1133
 7169SOL    HW222609   8.770   2.113   1.104  0.4778  0.3593  0.8221
 7170SOL     OW22610   6.691   0.729   5.087 -0.0264 -0.0965  0.3276
 7170SOL    HW122611   6.684   0.745   5.181  1.9457  1.2428  0.3121
 7170SOL    HW222612   6.605   0.752   5.052 -1.1071 -1.6004  1.8919
 7171SOL     OW22613   5.811   3.804   5.267  0.3997  0.5712 -0.6858
 7171SOL    HW122614   5.760   3.792   5.188  0.9503 -0.7768 -0.8706
 7171SOL    HW222615   5.747   3.802   5.338 -0.1384  2.1476 -1.0852
 7172SOL     OW22616   3.573   4.749   4.864  0.5024  0.3251 -0.2429
 7172SOL    HW122617   3.592   4.743   4.771  0.0557  0.6170 -0.3553
 7172SOL    HW222618   3.494   4.696   4.876 -0.4613  1.7008 -0.3434
 7173SOL     OW22619   2.584   5.220   7.392  0.2888  0.2638 -0.1308
 7173SOL    HW122620   2.604   5.128   7.411  1.8625  0.5011 -0.5183
 7173SOL    HW222621   2.585   5.263   7.478  1.0459  0.1737 -0.0821
 7174SOL     OW22622   5.438   8.938   2.101  0.2895  0.5330  0.0080
 7174SOL    HW122623   5.469   8.968   2.016  1.0689  0.5838  0.3061
 7174SOL    HW222624   5.403   8.850   2.083  1.9063 -0.1283 -0.0960
 7175SOL     OW22625   3.642   8.596   5.571  0.2887  0.0365  0.0661
 7175SOL    HW122626   3.604   8.629   5.652 -2.1233 -0.2633 -0.8697
 7175SOL    HW222627   3.680   8.674   5.529  1.0349  0.2873  1.1723
 7176SOL     OW22628   6.245   0.815   8.183 -0.1119 -0.1332 -0.3072
 7176SOL    HW122629   6.234   0.806   8.089 -0.9415  2.8148 -0.6140
 7176SOL    HW222630   6.331   0.856   8.193 -0.0989 -0.2771  0.1916
 7177SOL     OW22631   8.192   6.350   3.829 -0.8144 -0.0034 -0.7936
 7177SOL    HW122632   8.267   6.370   3.772 -0.0619  1.2180  0.5524
 7177SOL    HW222633   8.127   6.418   3.808 -0.8408 -0.0123 -0.7397
 7178SOL     OW22634   3.590   1.275   2.045 -0.0614  0.0668  0.6415
 7178SOL    HW122635   3.627   1.363   2.048 -1.4081  0.6617  0.3614
 7178SOL    HW222636   3.496   1.288   2.055 -0.2688 -1.3592  0.7616
 7179SOL     OW22637   8.273   4.664   1.266  0.1293  0.1386  0.0990
 7179SOL    HW122638   8.230   4.586   1.232  1.9178 -0.3991 -1.0893
 7179SOL    HW222639   8.330   4.693   1.195  2.6786  0.0209  1.9499
 7180SOL     OW22640   3.566   6.440   5.493  0.3240  0.7846  0.4097
 7180SOL    HW122641   3.487   6.491   5.510  1.0115  1.6843  1.0656
 7180SOL    HW222642   3.574   6.439   5.398 -0.8875  0.0121  0.3053
 7181SOL     OW22643   6.809   0.670   0.545 -0.1180  0.6078 -0.2036
 7181SOL    HW122644   6.859   0.594   0.576  0.7379  0.5343 -1.6979
 7181SOL    HW222645   6.812   0.732   0.617 -0.5023 -0.6047  0.9033
 7182SOL     OW22646   1.381   1.654   6.055 -0.4468  0.4924 -0.2492
 7182SOL    HW122647   1.335   1.690   6.132  1.1867  0.9808  0.5397
 7182SOL    HW222648   1.324   1.583   6.025 -0.8445 -0.1571  1.8307
 7183SOL     OW22649   6.259   3.229   0.502 -0.4180  0.6165  0.2039
 7183SOL    HW122650   6.311   3.304   0.533 -2.4006  2.7768 -1.4007
 7183SOL    HW222651   6.207   3.204   0.578 -0.7740  1.8387  0.3848
 7184SOL     OW22652   2.294   1.708   0.493  0.5391  0.2399  0.4359
 7184SOL    HW122653   2.306   1.653   0.570  0.9741 -0.1251  0.1132
 7184SOL    HW222654   2.200   1.700   0.472  0.4701  0.1460  0.7810
 7185SOL     OW22655   1.520   4.716   9.121  0.1887  0.1161  0.3291
 7185SOL    HW122656   1.440   4.682   9.083  0.0269 -0.4977  1.1901
 7185SOL    HW222657   1.499   4.728   9.214  1.0446  0.1038  0.5321
 7186SOL     OW22658   1.527   9.051   1.215  0.2953  0.1285  0.4627
 7186SOL    HW122659   1.500   9.043   1.307 -0.5276 -2.6847  0.0569
 7186SOL    HW222660   1.596   9.118   1.217 -2.1140  2.8213  2.5268
 7187SOL     OW22661   4.402   4.993   4.543 -0.0706  0.4016  0.0566
 7187SOL    HW122662   4.435   4.936   4.474 -0.0090 -0.2593  0.6254
 7187SOL    HW222663   4.370   5.071   4.497 -2.5956 -1.1442 -1.0076
 7188SOL     OW22664   3.624   5.419   4.841 -0.3098  0.4475  0.2250
 7188SOL    HW122665   3.541   5.382   4.870 -0.1755 -0.1611 -0.1551
 7188SOL    HW222666   3.622   5.413   4.746 -0.4872  1.8789  0.1107
 7189SOL     OW22667   8.865   5.695   2.139 -0.4683  0.7081  0.0214
 7189SOL    HW122668   8.907   5.610   2.131  1.0285  1.4870 -0.5938
 7189SOL    HW222669   8.774   5.674   2.162  0.2116 -1.0128  1.4119
 7190SOL     OW22670   4.498   8.312   0.496 -0.0122  0.2358  0.5359
 7190SOL    HW122671   4.579   8.270   0.466 -0.8145 -0.7798 -0.3145
 7190SOL    HW222672   4.496   8.396   0.450  0.3581  0.0823  0.2322
 7191SOL     OW22673   8.114   1.211   8.715  0.4445  0.5524 -0.3757
 7191SOL    HW122674   8.163   1.128   8.719  0.4776  0.6199  1.8490
 7191SOL    HW222675   8.182   1.278   8.708  0.5864  0.5266  0.6171
 7192SOL     OW22676   3.880   8.675   2.858  0.0175 -0.2175  0.3278
 7192SOL    HW122677   3.962   8.630   2.878 -0.3506 -0.1421  2.2510
 7192SOL    HW222678   3.878   8.748   2.920 -2.8702 -1.9676  2.5248
 7193SOL     OW22679   0.447   4.790   3.879  0.2098 -0.1939 -0.2723
 7193SOL    HW122680   0.419   4.813   3.790  1.1862 -1.0838 -0.8218
 7193SOL    HW222681   0.540   4.813   3.882  0.4818 -1.2970  0.1248
 7194SOL     OW22682   0.782   6.623   8.268  0.3513 -0.5645 -0.1932
 7194SOL    HW122683   0.835   6.654   8.342 -1.0052  1.1205  0.1495
 7194SOL    HW222684   0.720   6.694   8.253 -0.1352 -1.3779 -2.2455
 7195SOL     OW22685   0.667   2.055   1.134 -0.3175 -0.3468  0.0957
 7195SOL    HW122686   0.744   2.034   1.081  0.2613 -0.2674  0.8813
 7195SOL    HW222687   0.670   2.150   1.143 -0.1752 -0.3936  0.6023
 7196SOL     OW22688   8.747   8.473   4.182  0.0493  0.3497 -0.2983
 7196SOL    HW122689   8.764   8.560   4.147 -0.8883  0.1629 -1.2922
 7196SOL    HW222690   8.674   8.486   4.243  0.6154  0.4170  0.3786
 7197SOL     OW22691   1.864   1.375   0.336 -0.0206 -0.3763 -0.1225
 7197SOL    HW122692   1.828   1.325   0.263  0.0535  0.1544 -0.5314
 7197SOL    HW222693   1.959   1.364   0.328 -0.0342 -0.7985  0.2478
 7198SOL     OW22694   2.784   6.587   8.373  0.5449 -0.1818  0.5551
 7198SOL    HW122695   2.726   6.651   8.332 -0.5279 -1.3150  0.2217
 7198SOL    HW222696   2.751   6.579   8.462 -0.5115 -1.5632  0.0811
 7199SOL     OW22697   7.439   6.283   6.447  0.6352 -0.1795  0.0513
 7199SOL    HW122698   7.477   6.209   6.400 -0.6677 -1.0800  0.3498
 7199SOL    HW222699   7.345   6.264   6.449  0.2873  1.4533  0.2177
 7200SOL     OW22700   7.606   1.288   4.231  0.2084  0.5027 -0.0091
 7200SOL    HW122701   7.584   1.204   4.191 -0.3986  0.2456  0.8469
 7200SOL    HW222702   7.524   1.338   4.232 -0.1062  0.0492  1.9592
 7201SOL     OW22703   6.733   4.016   1.069  0.0552 -0.2728 -0.2082
 7201SOL    HW122704   6.701   4.017   1.160  2.6534 -2.2307  0.8552
 7201SOL    HW222705   6.738   3.923   1.047 -0.1397  0.1710 -2.2487
 7202SOL     OW22706   1.676   7.581   3.099 -0.5304 -0.5832 -0.1041
 7202SOL    HW122707   1.698   7.537   3.181  0.3253 -0.5013 -0.2746
 7202SOL    HW222708   1.752   7.566   3.043 -1.9406 -2.4174 -1.6398
 7203SOL     OW22709   7.310   5.291   2.519  0.7030 -0.4851 -0.5123
 7203SOL    HW122710   7.335   5.384   2.524  2.4907 -0.9836  0.9934
 7203SOL    HW222711   7.333   5.264   2.431  2.1426  0.0214 -0.3172
 7204SOL     OW22712   0.147   7.396   0.641  0.4331 -0.2426  0.7481
 7204SOL    HW122713   0.234   7.434   0.649 -0.0318  0.6540  1.7425
 7204SOL    HW222714   0.094   7.443   0.706 -0.6091 -1.2964  0.6846
 7205SOL     OW22715   1.492   2.491   4.414 -0.4253  0.0639  0.7668
 7205SOL    HW122716   1.578   2.469   4.447 -0.9990 -1.6652  1.1783
 7205SOL    HW222717   1.454   2.548   4.481 -1.2881 -2.7845  2.9010
 7206SOL     OW22718   2.614   3.651   2.701  0.3692 -0.3447 -0.2053
 7206SOL    HW122719   2.671   3.583   2.665  0.8983  1.3558 -2.8221
 7206SOL    HW222720   2.554   3.674   2.630 -1.8515 -0.1397  1.5915
 7207SOL     OW22721   7.315   1.577   5.838 -0.1991  0.0435 -0.6105
 7207SOL    HW122722   7.250   1.631   5.884  0.4935 -0.9982  1.7411
 7207SOL    HW222723   7.398   1.596   5.883  0.4903 -1.1859 -1.3085
 7208SOL     OW22724   1.854   5.114   4.502 -0.1923  0.3705  0.3278
 7208SOL    HW122725   1.945   5.144   4.503 -0.9365  2.9897 -1.1682
 7208SOL    HW222726   1.818   5.142   4.586  0.0999  0.2810  0.4856
 7209SOL     OW22727   0.560   2.533   0.280  0.1238  0.2921 -0.2356
 7209SOL    HW122728   0.592   2.576   0.358  0.7790 -0.3280 -0.1547
 7209SOL    HW222729   0.484   2.483   0.310 -0.0186  0.5735 -0.1277
 7210SOL     OW22730   0.504   4.021   2.270 -0.3334  0.3731 -0.0055
 7210SOL    HW122731   0.524   4.114   2.260  0.9785  0.0257 -0.9489
 7210SOL    HW222732   0.413   4.013   2.241  0.3954  0.9722 -2.8241
 7211SOL     OW22733   0.957   0.449   2.706 -0.3386  0.3576 -0.3941
 7211SOL    HW122734   0.917   0.521   2.657  0.7147  1.4416  0.2924
 7211SOL    HW222735   0.984   0.488   2.789 -0.1563 -0.9509  0.1910
 7212SOL     OW22736   8.681   4.332   2.843  0.1974 -0.0235 -0.2404
 7212SOL    HW122737   8.670   4.311   2.936  0.8212  2.8678  0.5934
 7212SOL    HW222738   8.768   4.297   2.821 -0.0183 -0.8642  0.2071
 7213SOL     OW22739   0.948   2.903   5.513  0.4449 -0.0653 -1.0071
 7213SOL    HW122740   1.001   2.874   5.439 -0.1464 -1.6744 -0.8500
 7213SOL    HW222741   0.882   2.961   5.475  0.6362 -0.2442 -1.6124
 7214SOL     OW22742   1.439   5.770   0.623 -0.1593 -0.1426  0.0018
 7214SOL    HW122743   1.385   5.759   0.702  0.0274 -0.4712  0.0860
 7214SOL    HW222744   1.522   5.805   0.656  0.1182 -0.8030  0.0220
 7215SOL     OW22745   2.357   3.974   5.388 -0.3588 -0.1406 -0.3370
 7215SOL    HW122746   2.346   3.949   5.480  2.1454  2.7009  0.9446
 7215SOL    HW222747   2.400   3.899   5.348 -0.0508 -0.8655  1.2518
 7216SOL     OW22748   4.792   4.076   1.591  0.0337  0.2516 -0.5096
 7216SOL    HW122749   4.751   4.119   1.666  0.5483  1.7999 -1.0865
 7216SOL    HW222750   4.761   3.985   1.595  0.6735  0.0746  2.0288
 7217SOL     OW22751   4.189   8.361   9.129 -0.1853  0.0616  0.0953
 7217SOL    HW122752   4.100   8.392   9.141 -0.3361 -0.2792 -0.1267
 7217SOL    HW222753   4.211   8.386   9.039 -0.0627  0.1303  0.1436
 7218SOL     OW22754   3.297   4.797   7.187 -0.9287 -0.4074 -0.6702
 7218SOL    HW122755   3.321   4.873   7.239 -1.9789 -1.0750  0.8744
 7218SOL    HW222756   3.212   4.819   7.149 -1.3804 -0.8935  0.0271
 7219SOL     OW22757   2.601   7.350   9.080 -0.0240 -0.2536 -0.6685
 7219SOL    HW122758   2.552   7.269   9.066 -0.8453  0.1247 -0.0719
 7219SOL    HW222759   2.692   7.322   9.091 -0.3070 -1.0971 -0.4199
 7220SOL     OW22760   1.051   2.171   5.479 -0.4875 -0.4547 -0.1492
 7220SOL    HW122761   1.061   2.263   5.504  1.7211 -0.6752 -0.0849
 7220SOL    HW222762   1.057   2.123   5.561 -1.5204 -0.6948 -0.1987
 7221SOL     OW22763   2.753   3.955   8.799  0.0731 -0.1917 -0.3996
 7221SOL    HW122764   2.797   3.913   8.725  0.3934  0.1726 -0.4164
 7221SOL    HW222765   2.660   3.938   8.784  0.2623 -2.4341  0.5179
 7222SOL     OW22766   6.342   7.015   3.620  0.0691 -0.0896 -0.3033
 7222SOL    HW122767   6.363   7.095   3.572  1.5339 -0.7018 -0.7116
 7222SOL    HW222768   6.392   6.946   3.577  1.2085 -0.7182  1.8589
 7223SOL     OW22769   5.317   8.410   3.002  0.0409  0.3766 -0.8787
 7223SOL    HW122770   5.273   8.470   3.062  1.5709  0.7494 -0.0774
 7223SOL    HW222771   5.332   8.331   3.054  0.6778  0.4162 -0.9911
 7224SOL     OW22772   4.820   1.408   0.207 -0.0035 -0.4705 -0.7048
 7224SOL    HW122773   4.913   1.425   0.221 -0.3658  0.3547  0.9408
 7224SOL    HW222774   4.818   1.336   0.144  1.7474 -0.8465 -0.3887
 7225SOL     OW22775   1.746   7.493   3.803  0.1755 -0.0504  0.0005
 7225SOL    HW122776   1.768   7.582   3.775  0.1428 -0.5751 -1.8180
 7225SOL    HW222777   1.650   7.491   3.800  0.0911  0.2588  1.4949
 7226SOL     OW22778   8.119   5.931   1.862 -0.4319 -0.1413  0.6426
 7226SOL    HW122779   8.046   5.981   1.826  1.1308  1.4454 -0.4832
 7226SOL    HW222780   8.138   5.866   1.794  0.4331  0.7335  0.0269
 7227SOL     OW22781   5.510   2.328   1.762 -0.0934 -0.1321 -0.0140
 7227SOL    HW122782   5.422   2.365   1.754 -0.1785 -0.1517  0.7131
 7227SOL    HW222783   5.505   2.244   1.718 -0.5746 -0.3361  0.4124
 7228SOL     OW22784   2.595   0.837   5.836  1.1529  0.3309  0.5383
 7228SOL    HW122785   2.605   0.852   5.930 -1.6022  1.3022  0.7607
 7228SOL    HW222786   2.576   0.923   5.799  1.3475 -0.1600 -0.7901
 7229SOL     OW22787   2.023   2.122   1.764 -0.5909 -0.0027  0.5925
 7229SOL    HW122788   2.035   2.139   1.858  1.4261 -0.8577  0.5292
 7229SOL    HW222789   2.011   2.209   1.726  1.4771  0.6522  1.3009
 7230SOL     OW22790   2.640   0.185   4.549 -0.6470 -0.5835 -0.1996
 7230SOL    HW122791   2.725   0.210   4.511  0.7257 -2.7837  1.1828
 7230SOL    HW222792   2.638   0.228   4.634 -1.7689  0.8811 -0.9315
 7231SOL     OW22793   2.434   5.653   8.546  0.2709 -0.4707  0.1317
 7231SOL    HW122794   2.379   5.723   8.581 -0.6824 -1.5287  0.8136
 7231SOL    HW222795   2.503   5.641   8.611  1.1449  0.6335 -0.5657
 7232SOL     OW22796   2.415   7.116   5.528  0.1633 -0.0426  0.1748
 7232SOL    HW122797   2.375   7.068   5.456  0.1434 -1.2144  0.9326
 7232SOL    HW222798   2.491   7.159   5.489 -1.0046  1.0707 -0.9741
 7233SOL     OW22799   4.468   8.063   3.988 -0.0023 -0.4643 -0.3375
 7233SOL    HW122800   4.473   8.041   4.081 -0.0748  1.3903  0.1532
 7233SOL    HW222801   4.387   8.113   3.980  0.7486  0.6706 -1.0929
 7234SOL     OW22802   2.755   6.280   6.954 -0.0226  0.3520  0.0770
 7234SOL    HW122803   2.779   6.254   7.044 -0.6845  1.7392  0.6796
 7234SOL    HW222804   2.720   6.368   6.963  0.6264  0.8304 -1.6772
 7235SOL     OW22805   5.344   1.445   6.641 -0.2841 -0.1704  0.0178
 7235SOL    HW122806   5.371   1.494   6.564  1.4179 -0.7293  0.2115
 7235SOL    HW222807   5.386   1.491   6.714 -2.4474  0.7816  0.7458
 7236SOL     OW22808   2.384   0.537   8.850  0.8318 -0.2554  0.7641
 7236SOL    HW122809   2.419   0.588   8.777  0.7037 -2.3919 -0.8968
 7236SOL    HW222810   2.305   0.495   8.815 -0.0930 -0.1696  2.6168
 7237SOL     OW22811   5.362   8.882   7.983 -0.3886 -0.5319 -0.2751
 7237SOL    HW122812   5.350   8.813   8.049 -0.7905 -0.2079 -0.0081
 7237SOL    HW222813   5.450   8.916   8.000 -0.6703 -0.1156  0.4172
 7238SOL     OW22814   5.088   5.968   7.918  0.3597  0.8245  0.4124
 7238SOL    HW122815   5.169   5.920   7.906 -0.5988 -0.9050  0.5589
 7238SOL    HW222816   5.061   5.949   8.008 -0.1650  1.4476  0.3984
 7239SOL     OW22817   5.673   6.583   7.772 -0.2071  0.0998 -0.4572
 7239SOL    HW122818   5.714   6.670   7.777  0.1526 -0.0459 -0.8225
 7239SOL    HW222819   5.688   6.555   7.682 -0.2850 -0.3606 -0.3266
 7240SOL     OW22820   0.871   5.332   8.708 -0.1050 -0.1108 -0.2365
 7240SOL    HW122821   0.845   5.324   8.800  0.8088 -2.2000 -0.1130
 7240SOL    HW222822   0.909   5.247   8.686  1.4995  0.9840 -1.9857
 7241SOL     OW22823   1.204   2.192   3.798  0.5967  0.3613  0.0637
 7241SOL    HW122824   1.231   2.156   3.883  0.4612  0.6514  0.2316
 7241SOL    HW222825   1.283   2.236   3.766  0.1906  1.6947  0.8138
 7242SOL     OW22826   2.763   3.300   5.988  0.0925 -0.3434  0.2147
 7242SOL    HW122827   2.677   3.309   6.030  0.2420  0.4591  0.3659
 7242SOL    HW222828   2.753   3.226   5.929 -0.6817 -0.3135  0.2956
 7243SOL     OW22829   0.133   6.815   8.920 -0.4173 -0.0080  0.0732
 7243SOL    HW122830   0.174   6.843   8.839  0.7561  2.0979  1.3027
 7243SOL    HW222831   0.122   6.895   8.971 -0.4689 -1.3161  2.2803
 7244SOL     OW22832   2.915   3.296   6.928  0.4590  0.2819  0.0760
 7244SOL    HW122833   2.890   3.230   6.992 -0.8845  1.5595  0.9393
 7244SOL    HW222834   2.839   3.355   6.923  0.8986  0.7398 -2.0172
 7245SOL     OW22835   5.077   2.656   2.076  0.4630  0.1325 -0.0705
 7245SOL    HW122836   5.074   2.748   2.104  0.0100  0.4552 -1.1239
 7245SOL    HW222837   5.028   2.655   1.993 -0.5568 -1.2703  0.5049
 7246SOL     OW22838   3.504   0.556   1.388  0.6898  0.0381  0.1915
 7246SOL    HW122839   3.475   0.589   1.304  0.7863  1.4334  0.6757
 7246SOL    HW222840   3.555   0.478   1.367  0.3431  0.1153 -0.9973
 7247SOL     OW22841   1.856   4.886   5.051 -0.2824 -0.5273  0.0341
 7247SOL    HW122842   1.936   4.834   5.039  0.6550  0.9278 -0.3069
 7247SOL    HW222843   1.785   4.825   5.034  0.8087 -1.3041 -2.1392
 7248SOL     OW22844   1.249   3.907   2.105 -0.2373 -0.0567 -0.0096
 7248SOL    HW122845   1.304   3.985   2.104  0.2798 -0.3789  1.5031
 7248SOL    HW222846   1.161   3.939   2.125 -0.4759  0.3505 -1.5315
 7249SOL     OW22847   3.427   2.707   7.459 -0.0727 -0.4612  0.9849
 7249SOL    HW122848   3.350   2.666   7.497 -0.5292 -0.3164  0.2429
 7249SOL    HW222849   3.415   2.800   7.473 -0.4931 -0.3660  0.0607
 7250SOL     OW22850   3.703   8.048   4.636  0.1536 -0.8525  0.3276
 7250SOL    HW122851   3.708   7.997   4.716 -0.6273  0.4364  1.2399
 7250SOL    HW222852   3.637   8.003   4.583 -1.6011 -0.0271  1.7297
 7251SOL     OW22853   7.843   8.963   4.725 -0.0969  0.0493 -0.3023
 7251SOL    HW122854   7.891   9.043   4.746  2.7379 -1.2036 -1.4406
 7251SOL    HW222855   7.789   8.987   4.650  0.9120  0.8678 -0.8008
 7252SOL     OW22856   7.821   6.261   4.789  0.5889 -0.0915 -0.0894
 7252SOL    HW122857   7.869   6.222   4.716  0.8961 -0.5848  0.3716
 7252SOL    HW222858   7.842   6.206   4.864 -2.6779 -1.9579 -0.3290
 7253SOL     OW22859   5.387   0.483   7.789 -0.2675 -0.1173  0.8550
 7253SOL    HW122860   5.411   0.404   7.837  0.4160  0.3482  1.2910
 7253SOL    HW222861   5.362   0.546   7.856 -0.2115  0.2380  0.5485
 7254SOL     OW22862   0.400   6.225   6.078  0.3048  0.1735 -0.2582
 7254SOL    HW122863   0.317   6.273   6.075  1.5530  2.4444 -0.7333
 7254SOL    HW222864   0.408   6.187   5.991 -0.4847 -0.6018 -0.0174
 7255SOL     OW22865   8.753   3.092   8.303  0.5435  0.2685  0.0262
 7255SOL    HW122866   8.753   3.023   8.237 -0.8675  0.4777 -0.2257
 7255SOL    HW222867   8.828   3.072   8.359  0.2683 -1.3594 -0.1428
 7256SOL     OW22868   0.142   6.719   6.544 -0.4532  0.0207  0.1554
 7256SOL    HW122869   0.174   6.642   6.590  1.4885  0.5745 -0.1608
 7256SOL    HW222870   0.048   6.721   6.561 -0.3259 -1.6787  1.2248
 7257SOL     OW22871   8.582   6.415   4.492  0.1854  0.1914 -0.1732
 7257SOL    HW122872   8.573   6.321   4.510 -1.1180  0.3722  0.2396
 7257SOL    HW222873   8.635   6.448   4.565 -2.5340  0.3923  1.8630
 7258SOL     OW22874   5.832   6.818   7.012 -0.1885  0.2079  0.4039
 7258SOL    HW122875   5.782   6.744   6.978 -3.1233  0.9282  2.7289
 7258SOL    HW222876   5.891   6.842   6.940 -0.7047 -2.9044 -1.2466
 7259SOL     OW22877   6.203   0.664   3.953  0.0201  1.1655 -0.1787
 7259SOL    HW122878   6.156   0.641   4.033  1.3551  1.5312  0.7538
 7259SOL    HW222879   6.159   0.743   3.921 -0.1237  1.4041  0.5733
 7260SOL     OW22880   7.968   3.988   3.999 -0.0325  0.1146  0.1428
 7260SOL    HW122881   8.029   3.957   4.066 -0.3670 -1.2472 -0.1621
 7260SOL    HW222882   7.885   3.998   4.044  0.1009  0.6841  0.2655
 7261SOL     OW22883   4.108   6.476   7.139  0.6554  0.0881  0.5193
 7261SOL    HW122884   4.043   6.489   7.071  0.3264 -1.5013  0.4966
 7261SOL    HW222885   4.133   6.565   7.166  0.3108  0.7388 -1.1869
 7262SOL     OW22886   6.841   3.799   4.571 -0.0483 -0.2234  0.1364
 7262SOL    HW122887   6.825   3.816   4.664  1.3178 -0.2781  0.4022
 7262SOL    HW222888   6.842   3.886   4.531  0.7750 -0.0897  0.4306
 7263SOL     OW22889   4.455   3.135   0.261 -0.3577  0.9284 -0.3762
 7263SOL    HW122890   4.372   3.090   0.279 -0.0897  1.0011  1.2229
 7263SOL    HW222891   4.430   3.211   0.209 -0.8861 -0.7117 -2.6753
 7264SOL     OW22892   0.054   6.822   3.299  0.2851  0.4461 -0.6237
 7264SOL    HW122893   0.055   6.753   3.232  0.7797 -0.1799  0.0249
 7264SOL    HW222894   0.015   6.781   3.376  1.7698  0.4879  0.1818
 7265SOL     OW22895   4.680   2.162   1.671 -0.3482  0.3469  0.5937
 7265SOL    HW122896   4.745   2.094   1.651 -0.3594  0.3823  0.4321
 7265SOL    HW222897   4.697   2.230   1.606  2.1501  2.2230  2.9749
 7266SOL     OW22898   8.074   3.447   5.251 -0.0511 -0.1330 -0.1955
 7266SOL    HW122899   8.147   3.509   5.258  1.3888 -1.6322 -1.2267
 7266SOL    HW222900   8.052   3.426   5.342  2.3590 -1.3561  0.1801
 7267SOL     OW22901   8.158   4.011   1.442 -0.3471  0.0845 -0.3332
 7267SOL    HW122902   8.095   3.940   1.429  0.5141 -0.5105 -1.4247
 7267SOL    HW222903   8.186   4.003   1.533 -0.6667 -0.6381 -0.2953
 7268SOL     OW22904   0.576   2.225   4.237 -0.0060  0.3940 -0.0935
 7268SOL    HW122905   0.535   2.145   4.270 -1.1970  0.0719 -2.1391
 7268SOL    HW222906   0.515   2.295   4.260 -0.4378  0.2773 -0.8347
 7269SOL     OW22907   8.107   1.944   0.435  0.0766  0.1026 -0.4405
 7269SOL    HW122908   8.187   1.974   0.479 -0.4414 -0.6993  1.1431
 7269SOL    HW222909   8.128   1.855   0.406  0.4467  0.6580 -1.9915
 7270SOL     OW22910   0.169   7.592   8.707  0.2059 -0.4530  0.0136
 7270SOL    HW122911   0.208   7.669   8.748  0.0048 -0.5993  0.4840
 7270SOL    HW222912   0.127   7.625   8.628 -0.3691  0.0165  0.5041
 7271SOL     OW22913   3.441   1.533   1.261  0.7395  0.0992  0.2016
 7271SOL    HW122914   3.520   1.494   1.298  0.0408 -2.2791 -0.6373
 7271SOL    HW222915   3.472   1.586   1.188  1.6346  0.0561  0.5315
 7272SOL     OW22916   6.439   3.207   6.465  0.2120 -0.6247 -0.2865
 7272SOL    HW122917   6.521   3.234   6.506 -0.3673 -0.8451  1.0712
 7272SOL    HW222918   6.466   3.148   6.395  1.1834 -1.4527  0.7381
 7273SOL     OW22919   5.798   1.099   5.283  0.1182 -0.2982  0.2971
 7273SOL    HW122920   5.750   1.135   5.208  2.5715  2.9381  0.0745
 7273SOL    HW222921   5.766   1.149   5.358  1.8211  0.6700  0.4122
 7274SOL     OW22922   6.670   2.882   1.872  0.1990 -0.3373 -0.0758
 7274SOL    HW122923   6.728   2.956   1.892  1.7184 -1.0717 -1.5185
 7274SOL    HW222924   6.713   2.837   1.798 -1.2478 -2.0186  0.0412
 7275SOL     OW22925   5.252   6.274   3.802 -0.0454  0.4404  0.0022
 7275SOL    HW122926   5.346   6.274   3.786 -0.0637 -2.3071 -0.4449
 7275SOL    HW222927   5.235   6.194   3.851 -2.3288  0.1167 -1.1852
 7276SOL     OW22928   6.322   0.088   1.881 -0.3258 -0.8129  0.0354
 7276SOL    HW122929   6.242   0.036   1.885 -1.6255  0.8357 -2.3535
 7276SOL    HW222930   6.359   0.069   1.794  0.0137  1.0076 -0.2463
 7277SOL     OW22931   1.246   7.258   9.125  0.0172  0.0022 -0.4262
 7277SOL    HW122932   1.172   7.318   9.118  0.3276  0.3711 -0.5573
 7277SOL    HW222933   1.318   7.313   9.156 -0.1604 -0.6623  1.2975
 7278SOL     OW22934   2.479   6.074   1.412  0.3159  0.3498 -0.4140
 7278SOL    HW122935   2.503   6.078   1.505 -1.0953  0.5072 -0.0226
 7278SOL    HW222936   2.496   5.983   1.386 -2.4309 -0.6747  0.9704
 7279SOL     OW22937   0.878   5.578   0.986 -0.1332 -0.0462  0.0121
 7279SOL    HW122938   0.952   5.639   0.997  0.9457 -1.4614  1.1012
 7279SOL    HW222939   0.840   5.571   1.074 -0.9323 -0.1169 -0.3334
 7280SOL     OW22940   8.894   3.245   1.629 -0.0619 -0.1515 -0.0023
 7280SOL    HW122941   8.812   3.285   1.600 -0.2238  0.4987  1.2540
 7280SOL    HW222942   8.873   3.206   1.714  1.0945  0.7672  0.7477
 7281SOL     OW22943   4.272   8.861   2.669 -0.4032 -0.0302  0.4511
 7281SOL    HW122944   4.243   8.772   2.693 -1.1214 -0.0834 -0.5801
 7281SOL    HW222945   4.200   8.917   2.695 -0.5448  0.0853 -0.1753
 7282SOL     OW22946   1.980   8.863   2.336 -0.4833 -0.5713  0.3711
 7282SOL    HW122947   1.980   8.767   2.336 -1.0651 -0.5812 -0.1731
 7282SOL    HW222948   2.069   8.887   2.309 -0.1963 -0.9523  0.9690
 7283SOL     OW22949   2.176   0.887   4.582 -0.3594 -0.4225 -0.2852
 7283SOL    HW122950   2.194   0.926   4.668 -2.3597 -0.0352  0.0011
 7283SOL    HW222951   2.213   0.949   4.519 -1.7523  0.9744  0.2259
 7284SOL     OW22952   2.032   0.310   4.304  0.1344 -0.0436 -0.3685
 7284SOL    HW122953   1.963   0.352   4.356 -0.7833 -2.4649  0.5240
 7284SOL    HW222954   2.031   0.357   4.221  0.1640  2.5513  1.0023
 7285SOL     OW22955   9.123   0.398   1.869  0.1060 -0.0256  0.5700
 7285SOL    HW122956   9.096   0.427   1.782 -0.6977 -0.6790  0.5921
 7285SOL    HW222957   9.218   0.394   1.865  0.0255 -1.2247 -0.6629
 7286SOL     OW22958   8.616   6.430   8.122 -0.9242  0.0054 -0.5342
 7286SOL    HW122959   8.556   6.490   8.167 -0.3601  0.3385 -0.2249
 7286SOL    HW222960   8.649   6.373   8.190  1.1719  1.5195 -0.1695
 7287SOL     OW22961   7.314   3.609   1.232 -0.7215 -0.5942 -0.4930
 7287SOL    HW122962   7.265   3.574   1.306 -1.4417  1.7560  0.2386
 7287SOL    HW222963   7.363   3.683   1.268 -0.2299 -0.0688 -2.1325
 7288SOL     OW22964   2.785   7.029   4.166 -0.4335 -0.3222  0.2919
 7288SOL    HW122965   2.843   6.954   4.167 -0.0664 -0.0472 -0.2439
 7288SOL    HW222966   2.810   7.080   4.243  0.4118  0.0731 -0.2315
 7289SOL     OW22967   5.713   1.816   0.734 -0.0427 -0.2221 -0.5867
 7289SOL    HW122968   5.732   1.868   0.813  0.0988 -0.7144 -0.2922
 7289SOL    HW222969   5.686   1.881   0.669 -0.3021  0.1772 -0.0889
 7290SOL     OW22970   6.209   7.676   4.013 -0.5478 -0.4547  0.0513
 7290SOL    HW122971   6.259   7.741   4.062 -0.7516 -1.0720  1.1166
 7290SOL    HW222972   6.122   7.715   4.003 -0.4586 -0.2596  0.0251
 7291SOL     OW22973   0.153   8.996   0.908  0.7866  0.5137 -0.3545
 7291SOL    HW122974   0.240   8.959   0.894  0.8351  0.3597  0.3284
 7291SOL    HW222975   0.095   8.943   0.853  0.9662 -0.1037  0.0415
 7292SOL     OW22976   3.978   8.208   5.061 -0.1405  0.3761 -0.6303
 7292SOL    HW122977   3.937   8.246   5.139  0.6002  1.2020 -0.6361
 7292SOL    HW222978   3.942   8.119   5.057 -0.0202  0.2326  0.7918
 7293SOL     OW22979   3.353   7.510   8.700 -0.0820  0.5435 -0.2470
 7293SOL    HW122980   3.326   7.588   8.651 -0.2904  1.6280  1.5262
 7293SOL    HW222981   3.315   7.521   8.787  1.1711 -0.7906  0.5197
 7294SOL     OW22982   2.103   4.954   6.882  0.5822  0.5074  0.4295
 7294SOL    HW122983   2.090   4.882   6.820  0.2104  0.2849  0.7601
 7294SOL    HW222984   2.185   4.995   6.854  0.6212  0.1682  0.0311
 7295SOL     OW22985   8.161   5.156   5.417  0.3628 -0.0486  0.6586
 7295SOL    HW122986   8.185   5.177   5.326 -0.7906  1.3274  0.6394
 7295SOL    HW222987   8.116   5.072   5.411 -1.9693  1.1733 -0.4762
 7296SOL     OW22988   7.127   3.785   4.925  0.2161 -0.4566 -0.4528
 7296SOL    HW122989   7.209   3.798   4.971  2.0342 -0.3034 -3.4679
 7296SOL    HW222990   7.087   3.872   4.921  1.3385  0.0494 -1.3320
 7297SOL     OW22991   5.486   3.876   7.194 -0.0744  0.0453  0.3282
 7297SOL    HW122992   5.401   3.895   7.153 -0.4585 -1.9332  0.1156
 7297SOL    HW222993   5.522   3.962   7.215 -2.2359  0.9364  0.6606
 7298SOL     OW22994   3.107   6.445   3.170 -0.9340 -0.2517 -0.2809
 7298SOL    HW122995   3.030   6.444   3.113 -2.1666  1.3939  1.2491
 7298SOL    HW222996   3.073   6.421   3.256  0.0793  1.3451  0.6079
 7299SOL     OW22997   3.291   2.351   2.435 -0.1954  0.2133  0.2019
 7299SOL    HW122998   3.278   2.407   2.359 -3.5212  0.8797  1.0986
 7299SOL    HW222999   3.225   2.282   2.426  0.2284 -0.4705  1.8370
 7300SOL     OW23000   1.802   0.702   7.343  0.2335 -0.1485  0.1899
 7300SOL    HW123001   1.742   0.756   7.394  1.6632 -0.6185  2.5672
 7300SOL    HW223002   1.746   0.638   7.299 -1.3337  2.1070 -1.3257
 7301SOL     OW23003   7.868   7.435   0.538  0.6231 -0.0112 -0.8010
 7301SOL    HW123004   7.858   7.358   0.483  2.2194 -1.3749  0.7145
 7301SOL    HW223005   7.950   7.421   0.586  0.1021  1.8173  0.7752
 7302SOL     OW23006   3.351   2.392   1.694 -0.2224  0.1660  0.0168
 7302SOL    HW123007   3.270   2.435   1.667 -1.3890 -1.2157  1.1135
 7302SOL    HW223008   3.378   2.342   1.617 -0.4095  0.6234 -0.3523
 7303SOL     OW23009   6.500   7.178   6.392  0.3506  0.2348  0.3301
 7303SOL    HW123010   6.496   7.251   6.454  0.6225  0.8280 -0.3380
 7303SOL    HW223011   6.478   7.217   6.308  1.5274 -0.2191 -0.2130
 7304SOL     OW23012   4.216   1.635   3.274  0.7734 -0.4338  0.7094
 7304SOL    HW123013   4.173   1.589   3.202  0.1821 -1.4323  1.6674
 7304SOL    HW223014   4.287   1.684   3.233 -0.4370  0.1764 -0.7454
 7305SOL     OW23015   3.800   8.135   0.822 -0.3147  0.2209 -0.4634
 7305SOL    HW123016   3.740   8.109   0.751  1.1956 -2.3565 -0.9306
 7305SOL    HW223017   3.790   8.066   0.888  1.0632  0.5494  0.1136
 7306SOL     OW23018   5.904   5.550   0.693  0.2368  0.2235  0.1613
 7306SOL    HW123019   5.870   5.600   0.767 -0.5816 -0.1617  0.0564
 7306SOL    HW223020   5.863   5.589   0.616 -0.8438 -0.9309  0.1215
 7307SOL     OW23021   7.501   6.443   6.987 -0.3815 -0.1202 -0.0064
 7307SOL    HW123022   7.558   6.500   6.935  1.0929  0.0205  1.6591
 7307SOL    HW223023   7.425   6.498   7.007 -0.4561  0.1819 -1.0658
 7308SOL     OW23024   2.594   6.499   5.173 -0.7974 -0.2294 -0.1568
 7308SOL    HW123025   2.563   6.564   5.236 -0.0297 -0.0360  0.0365
 7308SOL    HW223026   2.636   6.432   5.227  2.6076  1.4024 -0.5338
 7309SOL     OW23027   5.398   4.770   6.294 -0.4434 -0.1666 -0.4914
 7309SOL    HW123028   5.343   4.844   6.266 -0.6492 -0.5809 -1.2037
 7309SOL    HW223029   5.385   4.765   6.388  0.7280  1.6481 -0.1759
 7310SOL     OW23030   8.537   6.389   7.831  0.1544 -0.3361 -0.5705
 7310SOL    HW123031   8.467   6.328   7.856 -1.1950  1.0025 -0.9608
 7310SOL    HW223032   8.579   6.411   7.914 -0.6100 -0.3095 -0.1763
 7311SOL     OW23033   0.236   2.252   5.370  0.3888 -0.5109  0.4935
 7311SOL    HW123034   0.222   2.337   5.327  0.2886 -0.5414  0.4656
 7311SOL    HW223035   0.148   2.217   5.382  0.3831 -0.2705  1.1883
 7312SOL     OW23036   2.503   2.289   3.979 -0.0386  0.0185  0.1643
 7312SOL    HW123037   2.560   2.364   3.962 -2.0505  1.5060 -0.4145
 7312SOL    HW223038   2.499   2.242   3.896 -0.7775  0.7467 -0.2259
 7313SOL     OW23039   0.818   0.369   3.570 -0.1753  0.3821 -0.4760
 7313SOL    HW123040   0.803   0.456   3.608  3.0595  0.4458  1.0357
 7313SOL    HW223041   0.790   0.308   3.637 -0.2980  0.3215 -0.5824
 7314SOL     OW23042   8.707   9.120   3.476  0.1142  0.0009 -0.5373
 7314SOL    HW123043   8.655   9.160   3.407 -3.0168  0.5100  1.9048
 7314SOL    HW223044   8.657   9.134   3.556  2.5203 -2.3194  1.5984
 7315SOL     OW23045   6.031   5.020   3.206 -0.0172 -0.3234  1.1074
 7315SOL    HW123046   6.077   4.945   3.168 -0.2980  0.5480 -1.1039
 7315SOL    HW223047   6.071   5.096   3.164 -0.7709  0.6795  2.1622
 7316SOL     OW23048   6.039   4.661   3.198 -0.1567  0.0899 -0.4888
 7316SOL    HW123049   5.976   4.673   3.128 -3.2634 -1.0439  1.8894
 7316SOL    HW223050   5.998   4.598   3.258  2.9630 -0.2284  1.6144
 7317SOL     OW23051   2.914   6.241   9.003 -0.3330  0.2769 -0.0251
 7317SOL    HW123052   2.851   6.291   8.951 -2.2338 -0.0886  1.7868
 7317SOL    HW223053   2.917   6.286   9.087  0.0646 -1.0286  0.6878
 7318SOL     OW23054   7.651   6.101   6.354 -0.2117  0.3974  0.2832
 7318SOL    HW123055   7.745   6.088   6.366 -0.1071  0.5006 -0.3875
 7318SOL    HW223056   7.622   6.026   6.302 -0.5172  0.3312  0.5428
 7319SOL     OW23057   2.317   2.696   1.618  0.0158 -0.1219  0.5559
 7319SOL    HW123058   2.401   2.658   1.595 -0.2780 -0.6665  0.3478
 7319SOL    HW223059   2.322   2.786   1.588  0.1744 -0.4142 -0.3357
 7320SOL     OW23060   0.224   6.778   1.708 -0.2121  0.0847 -0.7946
 7320SOL    HW123061   0.313   6.811   1.719 -0.9246  2.1439 -0.8532
 7320SOL    HW223062   0.223   6.696   1.758  1.1462  1.0539  0.9302
 7321SOL     OW23063   3.478   7.442   6.250 -0.0589 -0.1674  0.3150
 7321SOL    HW123064   3.558   7.474   6.210 -0.2811 -1.0094 -0.8666
 7321SOL    HW223065   3.408   7.473   6.192 -0.5168 -0.2600  0.8038
 7322SOL     OW23066   5.986   5.788   8.375 -0.2250  0.1153 -0.2138
 7322SOL    HW123067   5.899   5.806   8.338 -0.7741 -0.0531  0.9516
 7322SOL    HW223068   6.028   5.874   8.381 -0.5433  0.2721 -0.2219
 7323SOL     OW23069   3.201   7.512   7.098  0.0530  0.3530 -0.1491
 7323SOL    HW123070   3.273   7.561   7.137 -0.4523  0.3164  0.8650
 7323SOL    HW223071   3.205   7.533   7.005  0.6399  1.2820  0.0752
 7324SOL     OW23072   3.325   5.532   5.182  0.3445 -0.3888  0.0994
 7324SOL    HW123073   3.247   5.517   5.233  0.6273 -0.1598  0.6074
 7324SOL    HW223074   3.344   5.448   5.141 -1.0736 -0.0602 -1.3333
 7325SOL     OW23075   0.379   5.460   0.450 -0.0272  0.6303 -0.2977
 7325SOL    HW123076   0.427   5.378   0.457 -1.3651 -0.1073  0.9810
 7325SOL    HW223077   0.289   5.434   0.433 -0.4449  1.8464 -0.0969
 7326SOL     OW23078   6.625   7.002   0.156  0.2748  0.1245 -0.2722
 7326SOL    HW123079   6.589   6.986   0.068 -0.5610  1.4501 -0.2028
 7326SOL    HW223080   6.619   7.096   0.167 -0.9913 -0.1355  1.7774
 7327SOL     OW23081   3.463   9.012   1.583 -0.4270  0.6102  0.1356
 7327SOL    HW123082   3.374   9.048   1.583 -0.7873 -0.2392  1.3188
 7327SOL    HW223083   3.479   8.991   1.491 -1.1018  1.5704 -0.2267
 7328SOL     OW23084   6.263   7.845   0.501 -0.7829  0.1157 -1.0975
 7328SOL    HW123085   6.338   7.897   0.473 -1.3603  0.9199 -1.2050
 7328SOL    HW223086   6.262   7.770   0.442  1.3943 -1.2606  0.4884
 7329SOL     OW23087   8.625   3.987   2.345 -0.2550 -0.5028 -0.8388
 7329SOL    HW123088   8.681   4.002   2.268 -2.3738  0.6856 -2.2441
 7329SOL    HW223089   8.541   4.026   2.322 -1.6792 -2.1031  1.2266
 7330SOL     OW23090   3.496   8.985   2.982 -0.5088 -0.1893  0.2451
 7330SOL    HW123091   3.562   9.054   2.988  1.6784 -2.1384  0.2997
 7330SOL    HW223092   3.518   8.925   3.053 -0.1139 -2.6305 -1.7871
 7331SOL     OW23093   3.942   2.658   2.457 -0.3890 -0.2418 -0.0515
 7331SOL    HW123094   3.887   2.580   2.459  0.6368 -0.9751  0.8711
 7331SOL    HW223095   3.926   2.697   2.371 -1.7640 -0.8406 -0.0877
 7332SOL     OW23096   6.569   5.900   6.790  0.2173 -0.4990  0.2015
 7332SOL    HW123097   6.561   5.849   6.709 -1.6946  0.2057 -0.1028
 7332SOL    HW223098   6.625   5.974   6.766 -0.1883 -0.3908 -0.4522
 7333SOL     OW23099   2.138   3.464   5.426 -0.6600  0.1170 -0.1539
 7333SOL    HW123100   2.126   3.496   5.337  0.2768 -1.3711 -0.8597
 7333SOL    HW223101   2.171   3.374   5.415  0.9038  0.4038  1.6553
 7334SOL     OW23102   3.181   5.350   7.799 -0.3912  0.5514 -0.6573
 7334SOL    HW123103   3.129   5.381   7.874  0.9026 -0.2263  0.6094
 7334SOL    HW223104   3.263   5.399   7.806  1.2761 -2.2417  0.7483
 7335SOL     OW23105   5.130   7.724   7.149 -0.2277 -0.2049 -0.1449
 7335SOL    HW123106   5.044   7.768   7.153 -1.5649 -2.6307 -0.2136
 7335SOL    HW223107   5.122   7.663   7.076  1.1607 -1.2951  0.5705
 7336SOL     OW23108   7.063   1.870   0.515 -0.1892  0.3711  0.2789
 7336SOL    HW123109   7.147   1.856   0.471 -0.3577 -1.3346  0.4541
 7336SOL    HW223110   7.085   1.874   0.608 -0.0851  1.9620  0.2187
 7337SOL     OW23111   4.422   4.598   8.362  0.0144 -0.0744  0.5062
 7337SOL    HW123112   4.383   4.551   8.436 -0.6668  0.4441  0.4943
 7337SOL    HW223113   4.499   4.641   8.399  1.6738 -2.5351  0.1371
 7338SOL     OW23114   4.244   8.395   7.715 -0.2695  0.0428  0.5564
 7338SOL    HW123115   4.151   8.404   7.734 -0.5638  0.5776 -0.9929
 7338SOL    HW223116   4.251   8.411   7.621  1.6085  1.7744  0.9269
 7339SOL     OW23117   1.625   6.195   1.364 -0.6604 -0.4417  0.8616
 7339SOL    HW123118   1.680   6.263   1.325 -0.7689  0.5700  2.4064
 7339SOL    HW223119   1.543   6.200   1.315 -0.8091  0.8322  1.2005
 7340SOL     OW23120   0.094   3.638   1.024 -0.4927 -0.6237 -0.0277
 7340SOL    HW123121   0.155   3.626   1.096 -0.6482  1.2988  0.4891
 7340SOL    HW223122   0.008   3.641   1.065 -0.6196  0.0440 -0.3237
 7341SOL     OW23123   5.963   2.450   8.684 -0.2185  0.4664 -0.4248
 7341SOL    HW123124   6.037   2.404   8.644 -0.2480  0.2354 -0.2131
 7341SOL    HW223125   6.003   2.525   8.729 -0.0492  0.0096  0.1928
 7342SOL     OW23126   8.773   3.841   0.205  0.0134  0.6915 -0.4307
 7342SOL    HW123127   8.690   3.813   0.245  0.5312  2.2410  1.9824
 7342SOL    HW223128   8.838   3.781   0.242  0.3271  1.3165  0.0521
 7343SOL     OW23129   4.116   8.801   0.299  0.2570 -0.4053 -0.1028
 7343SOL    HW123130   4.118   8.896   0.296  0.1947 -0.3976  0.0587
 7343SOL    HW223131   4.074   8.780   0.382 -0.0809 -0.5713 -0.3135
 7344SOL     OW23132   2.603   7.785   7.387 -0.1498 -0.3521  0.1750
 7344SOL    HW123133   2.527   7.827   7.348  1.1573  0.2881 -1.8634
 7344SOL    HW223134   2.602   7.696   7.352 -0.1830 -0.4810  0.4954
 7345SOL     OW23135   2.056   2.027   6.309  0.4059 -0.2618  0.2254
 7345SOL    HW123136   1.972   2.059   6.341  0.7132  2.1933 -1.1911
 7345SOL    HW223137   2.053   2.043   6.214  1.9223 -1.4969 -0.0708
 7346SOL     OW23138   0.934   0.823   4.549 -0.1004 -0.2276  0.3518
 7346SOL    HW123139   0.916   0.822   4.455 -0.2666 -1.8005  0.3656
 7346SOL    HW223140   1.007   0.884   4.559  0.0120 -0.1443 -0.8084
 7347SOL     OW23141   5.267   0.723   3.114  0.0259  0.3434  0.1645
 7347SOL    HW123142   5.221   0.789   3.062  0.1024 -0.7474 -1.3539
 7347SOL    HW223143   5.198   0.670   3.153 -0.0318  0.5291  0.3116
 7348SOL     OW23144   5.046   1.118   0.391 -0.4575  0.1679 -0.0809
 7348SOL    HW123145   5.111   1.186   0.376 -1.3499  0.5333 -2.7651
 7348SOL    HW223146   5.044   1.068   0.310 -2.5809 -0.6613  0.4101
 7349SOL     OW23147   4.225   2.193   3.689 -0.0535 -0.5998  0.6232
 7349SOL    HW123148   4.249   2.149   3.771 -0.1807 -1.2388  0.3215
 7349SOL    HW223149   4.136   2.226   3.704  0.0294 -0.4688  0.8370
 7350SOL     OW23150   8.242   7.302   3.413 -0.1941 -0.1059  0.5655
 7350SOL    HW123151   8.153   7.314   3.445 -0.3035 -4.0484  2.3515
 7350SOL    HW223152   8.298   7.323   3.488  0.3548  1.1833 -0.1762
 7351SOL     OW23153   3.397   0.213   5.911 -0.0055  0.2108 -0.1308
 7351SOL    HW123154   3.317   0.177   5.873 -0.3978  1.0351 -0.0975
 7351SOL    HW223155   3.448   0.136   5.936 -0.5056 -0.3303 -0.7309
 7352SOL     OW23156   6.457   4.577   5.354  0.7132  0.3580 -0.2330
 7352SOL    HW123157   6.537   4.526   5.342 -0.6885 -2.4859  1.4739
 7352SOL    HW223158   6.455   4.636   5.279  3.9778  0.0176 -0.7526
 7353SOL     OW23159   8.600   7.082   0.477  0.7013 -0.5798  0.5108
 7353SOL    HW123160   8.611   7.028   0.555  0.5095 -1.3961 -0.0115
 7353SOL    HW223161   8.682   7.131   0.470  0.3442  0.2332  1.7522
 7354SOL     OW23162   2.223   7.223   5.965  0.4012  0.8150  0.4162
 7354SOL    HW123163   2.257   7.218   6.054 -0.5887 -1.1667  0.7307
 7354SOL    HW223164   2.296   7.197   5.909  0.0602 -1.5581  0.9601
 7355SOL     OW23165   3.015   5.076   6.733 -0.4587 -0.3295 -0.1540
 7355SOL    HW123166   3.079   5.014   6.767 -1.6871  0.2982  3.8524
 7355SOL    HW223167   3.064   5.156   6.715  0.2783 -0.6720  0.3102
 7356SOL     OW23168   0.398   0.149   0.098 -0.0957  0.4326  0.3142
 7356SOL    HW123169   0.328   0.176   0.157 -0.4437  1.6487 -0.5942
 7356SOL    HW223170   0.355   0.139   0.013  0.6526  0.1608 -0.0442
 7357SOL     OW23171   2.489   7.589   4.142  0.1996 -0.1102 -0.4512
 7357SOL    HW123172   2.571   7.588   4.093  0.5634  0.0774  0.1450
 7357SOL    HW223173   2.505   7.533   4.217 -0.0345  0.3531 -0.0452
 7358SOL     OW23174   3.372   1.147   5.892 -0.1675 -0.0689  0.5838
 7358SOL    HW123175   3.449   1.202   5.902 -0.8271  0.8582  0.6974
 7358SOL    HW223176   3.340   1.134   5.981  1.4291 -2.8347  0.8659
 7359SOL     OW23177   0.554   0.973   6.351  0.0417 -0.2238 -0.0287
 7359SOL    HW123178   0.532   0.889   6.310  2.1513 -1.2347  0.7663
 7359SOL    HW223179   0.506   0.972   6.434 -0.6214 -0.2399 -0.4045
 7360SOL     OW23180   6.162   7.264   2.722  0.5308  0.2802 -0.5654
 7360SOL    HW123181   6.212   7.265   2.804 -0.1816 -1.8562 -0.0365
 7360SOL    HW223182   6.178   7.350   2.683  0.9261  1.3457  1.7844
 7361SOL     OW23183   5.767   2.419   3.699  0.2915 -0.2686  0.3912
 7361SOL    HW123184   5.753   2.507   3.665 -3.6892 -0.9396 -0.1247
 7361SOL    HW223185   5.827   2.379   3.636  1.6014  1.7820  0.2476
 7362SOL     OW23186   2.987   4.109   0.752  0.2313  0.6659  0.2078
 7362SOL    HW123187   2.938   4.191   0.741 -0.0186  0.6319  0.9954
 7362SOL    HW223188   2.919   4.043   0.767  0.4184  0.2622 -0.6642
 7363SOL     OW23189   4.017   5.999   6.141 -0.0011  0.2887 -0.3706
 7363SOL    HW123190   4.104   6.010   6.178  0.2431 -0.2795 -0.7541
 7363SOL    HW223191   3.978   6.086   6.143  0.9072  0.7216 -1.0022
 7364SOL     OW23192   6.716   0.308   1.995 -0.0038 -0.5553 -0.0935
 7364SOL    HW123193   6.661   0.243   2.039  0.8903 -1.2863 -0.0129
 7364SOL    HW223194   6.803   0.296   2.034 -0.0458  1.4881  0.7592
 7365SOL     OW23195   3.675   3.161   3.176  0.9949  0.1714 -0.1298
 7365SOL    HW123196   3.692   3.215   3.099  0.8915  1.5691  0.7966
 7365SOL    HW223197   3.756   3.112   3.191  2.3159  2.5175  0.9012
 7366SOL     OW23198   7.110   8.104   6.483 -0.3296 -0.0346  0.1798
 7366SOL    HW123199   7.116   8.009   6.489  0.2754 -0.0396 -0.3572
 7366SOL    HW223200   7.099   8.121   6.389 -0.0567  0.4360  0.2276
 7367SOL     OW23201   6.394   1.989   1.820 -0.0764 -0.5776 -0.3873
 7367SOL    HW123202   6.356   2.061   1.871 -0.5293  0.2006 -1.7531
 7367SOL    HW223203   6.329   1.972   1.752  0.3423 -1.8288 -0.4906
 7368SOL     OW23204   5.334   1.778   0.109 -0.2852 -0.0737 -0.2713
 7368SOL    HW123205   5.253   1.805   0.066  0.1548 -0.3943 -1.3606
 7368SOL    HW223206   5.321   1.685   0.128 -0.7516  0.2300  0.9725
 7369SOL     OW23207   2.288   7.964   6.171 -0.6280  0.2285 -0.0380
 7369SOL    HW123208   2.356   7.924   6.226 -0.4087  0.1309 -0.3766
 7369SOL    HW223209   2.231   8.008   6.233  0.2585  1.1004  0.1811
 7370SOL     OW23210   8.778   3.087   7.367 -0.3246 -0.1703 -0.0067
 7370SOL    HW123211   8.862   3.071   7.324  0.4976  1.6156  0.8490
 7370SOL    HW223212   8.772   3.017   7.433  0.2253 -0.6247 -0.4290
 7371SOL     OW23213   0.419   2.782   8.868  0.0104  0.4226  0.1035
 7371SOL    HW123214   0.495   2.822   8.827  0.7541  0.5952  1.5941
 7371SOL    HW223215   0.345   2.838   8.842  0.5678  0.9582 -0.3486
 7372SOL     OW23216   6.138   5.137   4.622 -0.1985  0.2686  0.4867
 7372SOL    HW123217   6.061   5.192   4.611 -0.0940  0.4088  0.4507
 7372SOL    HW223218   6.137   5.080   4.545 -1.6571 -1.4622  1.7043
 7373SOL     OW23219   3.740   0.167   2.439 -0.0322  0.3333  0.6767
 7373SOL    HW123220   3.755   0.259   2.419  0.4137 -0.0154 -0.6713
 7373SOL    HW223221   3.646   0.155   2.425  0.1425  0.2739 -0.5746
 7374SOL     OW23222   0.911   6.779   8.024  0.0515  0.8496  0.2983
 7374SOL    HW123223   0.842   6.771   8.090 -0.8175  1.5761 -0.4905
 7374SOL    HW223224   0.969   6.847   8.058  0.7152 -0.1491  1.2322
 7375SOL     OW23225   4.965   0.557   2.575 -0.6315 -0.5710 -0.3566
 7375SOL    HW123226   4.912   0.624   2.618  1.7579  0.5520  1.0537
 7375SOL    HW223227   5.002   0.603   2.499 -0.1709 -0.7615 -0.2442
 7376SOL     OW23228   3.650   0.558   2.960  0.4559 -0.1471 -0.3883
 7376SOL    HW123229   3.701   0.528   2.884  0.8301  0.6847 -0.4685
 7376SOL    HW223230   3.707   0.620   3.005  0.3414 -0.8228  0.7343
 7377SOL     OW23231   0.265   3.887   2.521 -0.5996  0.2036  0.0312
 7377SOL    HW123232   0.231   3.965   2.564  0.2031  0.3310  0.4605
 7377SOL    HW223233   0.254   3.904   2.427 -3.1370 -0.4172  0.1331
 7378SOL     OW23234   0.817   7.049   2.725  0.2076 -0.3543  0.0772
 7378SOL    HW123235   0.847   7.056   2.635 -0.3023 -1.8738 -0.2294
 7378SOL    HW223236   0.722   7.042   2.718  0.2374 -1.5765  0.6459
 7379SOL     OW23237   4.464   5.978   5.599  0.1213 -0.3283 -0.0027
 7379SOL    HW123238   4.452   6.068   5.567  2.5641 -0.2416 -0.8819
 7379SOL    HW223239   4.475   5.926   5.519  1.8761 -0.8598  0.5514
 7380SOL     OW23240   3.142   0.550   7.422  0.3230 -0.1271  0.5118
 7380SOL    HW123241   3.176   0.593   7.501  0.0802  0.3849  0.3466
 7380SOL    HW223242   3.094   0.619   7.376 -1.1385 -0.8696  0.8518
 7381SOL     OW23243   4.436   2.880   2.850  0.0224  0.9166 -0.3334
 7381SOL    HW123244   4.381   2.921   2.783 -0.6879  1.4631  0.5677
 7381SOL    HW223245   4.394   2.796   2.867 -0.6308  1.3919  0.4532
 7382SOL     OW23246   2.544   4.285   6.068 -0.3017 -0.0320  0.0683
 7382SOL    HW123247   2.633   4.266   6.040  0.3917 -1.9678  3.0568
 7382SOL    HW223248   2.554   4.352   6.136 -1.5880  2.4343 -2.0158
 7383SOL     OW23249   8.106   7.641   4.189  0.3482  0.0742 -0.0543
 7383SOL    HW123250   8.060   7.559   4.204  1.6823 -0.6228  0.3691
 7383SOL    HW223251   8.045   7.708   4.218  0.2477 -0.9109  2.2139
 7384SOL     OW23252   3.465   8.943   5.285  0.0888 -0.1265  0.0733
 7384SOL    HW123253   3.422   9.029   5.286  1.3795  0.5834 -1.4064
 7384SOL    HW223254   3.487   8.928   5.193  0.1973 -1.9129  0.3511
 7385SOL     OW23255   8.870   2.286   4.020 -0.5561  1.0218 -0.0145
 7385SOL    HW123256   8.923   2.214   3.985 -1.2001  0.0852  0.8477
 7385SOL    HW223257   8.910   2.365   3.984  0.0481  0.2284 -1.1647
 7386SOL     OW23258   0.185   5.329   2.570 -0.5709 -0.6405  0.2399
 7386SOL    HW123259   0.128   5.280   2.511 -1.2412  0.4197 -0.0109
 7386SOL    HW223260   0.126   5.383   2.622  0.1927  0.4672 -0.0114
 7387SOL     OW23261   2.248   0.673   7.629 -0.2061  0.5436  0.2579
 7387SOL    HW123262   2.224   0.581   7.623  0.5652  0.2453  1.4204
 7387SOL    HW223263   2.184   0.718   7.574 -1.2691 -0.5646  0.5513
 7388SOL     OW23264   5.352   0.062   7.603  0.3277  0.2376 -0.0481
 7388SOL    HW123265   5.342   0.110   7.685  1.6093  0.7332 -0.1442
 7388SOL    HW223266   5.288  -0.009   7.607  1.4095 -0.7039  2.0741
 7389SOL     OW23267   1.406   0.273   5.403  0.3200 -0.6163 -0.2104
 7389SOL    HW123268   1.338   0.303   5.343  0.4942  0.3487  0.0611
 7389SOL    HW223269   1.489   0.300   5.363  0.5671 -1.7828 -0.5412
 7390SOL     OW23270   8.350   4.510   5.460  0.2378 -0.2764 -0.1924
 7390SOL    HW123271   8.285   4.558   5.511  0.6006 -1.7012  1.7106
 7390SOL    HW223272   8.365   4.565   5.383 -2.1780  0.7476 -0.0256
 7391SOL     OW23273   2.732   6.888   0.696 -0.6029  0.1066 -0.0059
 7391SOL    HW123274   2.746   6.793   0.687  1.3750  0.4258 -0.8004
 7391SOL    HW223275   2.814   6.927   0.667 -2.3183  2.2083 -2.4792
 7392SOL     OW23276   2.518   4.031   0.608 -0.2761  0.4675 -0.0269
 7392SOL    HW123277   2.430   3.992   0.610  0.0961 -0.3826  0.3905
 7392SOL    HW223278   2.524   4.074   0.523 -1.3009  1.0309  0.1662
 7393SOL     OW23279   4.727   3.024   7.698  0.2534  0.1844  0.1915
 7393SOL    HW123280   4.688   3.100   7.655  0.1918  0.1324  0.1562
 7393SOL    HW223281   4.788   2.988   7.633 -1.1536 -0.9656 -0.5477
 7394SOL     OW23282   7.708   1.107   4.975  0.4973 -0.3104 -0.0691
 7394SOL    HW123283   7.774   1.066   4.919 -0.8236  0.3895 -2.2460
 7394SOL    HW223284   7.625   1.066   4.949 -0.0931 -0.5047  1.9438
 7395SOL     OW23285   2.242   5.815   0.909  0.0883 -0.7641 -0.2810
 7395SOL    HW123286   2.237   5.774   0.822 -0.9317 -4.1991  1.2098
 7395SOL    HW223287   2.308   5.763   0.955  1.5012  1.7630  0.7146
 7396SOL     OW23288   7.347   6.585   1.334  0.5662  0.7980  0.2567
 7396SOL    HW123289   7.270   6.631   1.369 -1.1032 -0.3206 -1.7288
 7396SOL    HW223290   7.412   6.654   1.320 -0.4203  1.9355  1.0274
 7397SOL     OW23291   0.599   8.199   8.526 -0.1484  0.1789  0.2945
 7397SOL    HW123292   0.528   8.151   8.484 -0.5662  1.1748 -0.1887
 7397SOL    HW223293   0.556   8.277   8.562  0.6411  0.6312  0.2802
 7398SOL     OW23294   8.571   1.652   5.307  0.3365  0.2070  0.4021
 7398SOL    HW123295   8.663   1.675   5.320  1.2171 -2.6388 -0.2659
 7398SOL    HW223296   8.551   1.589   5.376 -0.5731 -0.5429 -0.5071
 7399SOL     OW23297   1.343   4.152   5.550  0.1352  0.0199 -0.1757
 7399SOL    HW123298   1.402   4.148   5.626  0.2457 -1.6755 -0.3092
 7399SOL    HW223299   1.345   4.243   5.523  3.4250 -0.1110 -0.7363
 7400SOL     OW23300   0.649   8.666   4.134 -0.1902 -0.6398 -0.1074
 7400SOL    HW123301   0.659   8.580   4.176  0.3722 -0.3050  0.4640
 7400SOL    HW223302   0.573   8.705   4.176 -0.8705 -1.1299 -0.8575
 7401SOL     OW23303   4.249   6.845   3.574 -0.3034 -0.8741  0.1041
 7401SOL    HW123304   4.280   6.877   3.659  2.1558  0.2141 -1.1067
 7401SOL    HW223305   4.293   6.761   3.562  4.0287  1.3932 -2.3340
 7402SOL     OW23306   3.334   7.566   5.794 -0.4570 -0.5000  0.2097
 7402SOL    HW123307   3.378   7.492   5.752 -0.5748  0.6598 -2.1082
 7402SOL    HW223308   3.401   7.633   5.801 -1.2500  0.5029 -1.3039
 7403SOL     OW23309   5.079   1.085   3.589 -0.9577  0.9989 -0.1426
 7403SOL    HW123310   5.122   1.141   3.653  0.4099 -0.6330  0.4329
 7403SOL    HW223311   5.144   1.073   3.520 -0.6885 -0.9061  0.3772
 7404SOL     OW23312   4.343   0.331   6.078 -0.2054  0.0412  0.4266
 7404SOL    HW123313   4.400   0.265   6.118 -1.4906 -0.0782  2.1382
 7404SOL    HW223314   4.265   0.282   6.051 -0.4970  0.5994  0.2497
 7405SOL     OW23315   6.111   4.214   5.002  0.3863  0.5758  0.1544
 7405SOL    HW123316   6.090   4.280   5.068  0.0251 -0.4428  1.0906
 7405SOL    HW223317   6.206   4.202   5.009  0.2841  0.1204  0.8491
 7406SOL     OW23318   8.095   7.836   6.915  0.0378 -0.5186  0.3348
 7406SOL    HW123319   8.105   7.858   6.823 -0.5825 -0.0842  0.3679
 7406SOL    HW223320   8.184   7.816   6.945  0.1567 -1.3115 -0.5087
 7407SOL     OW23321   6.704   6.766   1.740 -0.5652 -0.2049  0.2020
 7407SOL    HW123322   6.673   6.775   1.650 -1.1944  2.1792  0.6014
 7407SOL    HW223323   6.781   6.823   1.745  1.4337 -2.6897  0.4148
 7408SOL     OW23324   2.630   6.499   3.774  0.0285 -0.2545  0.1386
 7408SOL    HW123325   2.657   6.514   3.684  2.7696  0.6438  1.0196
 7408SOL    HW223326   2.623   6.404   3.781  0.5311 -0.3752 -0.8197
 7409SOL     OW23327   6.646   8.328   1.815  0.1549 -0.0555 -0.2151
 7409SOL    HW123328   6.713   8.279   1.863 -0.5200 -0.4554  0.3368
 7409SOL    HW223329   6.674   8.420   1.822  1.7575 -0.3735 -1.7768
 7410SOL     OW23330   2.584   0.266   5.950 -0.2653  0.3047  0.5119
 7410SOL    HW123331   2.587   0.332   6.020 -0.6620  0.3854  0.4573
 7410SOL    HW223332   2.672   0.228   5.949  0.0131  0.9438  0.4359
 7411SOL     OW23333   0.095   3.319   0.681 -0.3830 -0.2118  0.4310
 7411SOL    HW123334   0.084   3.304   0.587 -1.2626 -1.2000  0.6772
 7411SOL    HW223335   0.106   3.232   0.718 -1.5561  0.0517  1.4227
 7412SOL     OW23336   7.853   7.311   8.074 -0.6005  0.5673 -0.1220
 7412SOL    HW123337   7.863   7.258   8.153  1.4506  0.6353 -0.2740
 7412SOL    HW223338   7.865   7.401   8.104 -0.0976  0.6161 -0.4607
 7413SOL     OW23339   3.269   3.222   0.950  0.3101  0.5126  0.3138
 7413SOL    HW123340   3.361   3.201   0.937  0.5089  1.8447 -0.6687
 7413SOL    HW223341   3.225   3.137   0.959  1.7839 -0.1244  2.1691
 7414SOL     OW23342   9.072   3.087   3.545  0.0764  0.3817  0.2883
 7414SOL    HW123343   9.085   3.119   3.456  0.6204 -1.0775 -0.1967
 7414SOL    HW223344   9.153   3.040   3.565 -0.2255  0.3056  1.3843
 7415SOL     OW23345   1.029   5.799   9.089  0.3278 -0.0172 -0.6347
 7415SOL    HW123346   0.935   5.784   9.086  0.1884  0.4815  0.7112
 7415SOL    HW223347   1.061   5.764   9.006 -0.9989 -0.4326 -0.9992
 7416SOL     OW23348   3.768   5.528   5.477 -0.2906 -0.0783 -0.2357
 7416SOL    HW123349   3.679   5.501   5.455 -0.4679  1.0157 -0.9188
 7416SOL    HW223350   3.814   5.529   5.394 -0.4334  2.1513 -0.3356
 7417SOL     OW23351   0.022   2.197   7.244 -0.5630 -0.0360  0.6524
 7417SOL    HW123352  -0.000   2.136   7.173  0.5471 -1.9789  1.8715
 7417SOL    HW223353  -0.062   2.231   7.274 -1.3946 -2.0952  0.8247
 7418SOL     OW23354   6.564   7.371   6.171  0.0892 -0.3286 -0.2115
 7418SOL    HW123355   6.578   7.401   6.082  0.1037  1.7328  0.4417
 7418SOL    HW223356   6.590   7.445   6.226 -1.9982 -0.7240  1.4292
 7419SOL     OW23357   4.142   5.542   2.461  0.5065 -0.2323  0.3690
 7419SOL    HW123358   4.214   5.577   2.409 -0.3945  0.2407 -0.5898
 7419SOL    HW223359   4.176   5.539   2.551  1.0139  1.9908  0.2865
 7420SOL     OW23360   7.804   2.673   6.321  0.0965  0.5825  0.1943
 7420SOL    HW123361   7.843   2.600   6.273 -0.4424  1.7794 -2.2171
 7420SOL    HW223362   7.868   2.744   6.314 -0.7262  1.3004 -0.2857
 7421SOL     OW23363   7.586   7.500   6.245  0.6970 -0.1080  0.4202
 7421SOL    HW123364   7.628   7.490   6.330  0.7873 -1.5263  0.2368
 7421SOL    HW223365   7.658   7.494   6.182  0.6730  1.2212  0.2219
 7422SOL     OW23366   5.685   4.507   4.552  0.4131 -0.2683 -0.0178
 7422SOL    HW123367   5.737   4.437   4.593 -0.7550 -0.9496  0.3509
 7422SOL    HW223368   5.664   4.567   4.624  1.6744  0.6535 -0.3917
 7423SOL     OW23369   3.104   4.295   3.457  0.8569  0.2582  0.0656
 7423SOL    HW123370   3.051   4.374   3.448  0.7292  0.1384 -0.2392
 7423SOL    HW223371   3.045   4.223   3.435  0.6357 -0.0309  1.4763
 7424SOL     OW23372   1.796   5.932   6.771 -0.7355  0.9161  0.0685
 7424SOL    HW123373   1.863   5.864   6.774 -0.5313  0.9429 -2.0447
 7424SOL    HW223374   1.769   5.944   6.862  0.8814 -0.3225  0.7581
 7425SOL     OW23375   8.603   7.925   9.129 -0.7053  0.0065  0.5682
 7425SOL    HW123376   8.566   7.851   9.176 -0.6060 -0.4183 -0.0130
 7425SOL    HW223377   8.617   7.992   9.196  1.0050 -1.1588  1.4673
 7426SOL     OW23378   1.661   1.527   8.139 -0.1658  0.2582  0.6027
 7426SOL    HW123379   1.732   1.557   8.081 -0.6558  0.0549 -0.1139
 7426SOL    HW223380   1.707   1.491   8.215  0.5072  0.1808  0.1743
 7427SOL     OW23381   4.040   5.251   1.210 -0.2036 -0.2480 -0.4095
 7427SOL    HW123382   4.117   5.306   1.221 -0.2779 -0.3055  0.4489
 7427SOL    HW223383   3.985   5.298   1.148 -0.3216  0.7170  0.4057
 7428SOL     OW23384   9.069   6.252   1.367  0.2423 -0.3803 -0.1366
 7428SOL    HW123385   9.074   6.183   1.433  2.3666  1.4713  1.8114
 7428SOL    HW223386   9.151   6.245   1.317  0.7099  0.9249  0.3854
 7429SOL     OW23387   8.976   3.019   3.088 -0.1682 -0.2321 -0.1273
 7429SOL    HW123388   8.920   2.959   3.039 -0.9853  0.1191  0.3664
 7429SOL    HW223389   8.917   3.065   3.146  0.5724  0.4840  0.0737
 7430SOL     OW23390   0.198   2.078   1.013  0.0382  0.2832 -0.3302
 7430SOL    HW123391   0.133   2.124   0.960  1.8147  1.1425 -1.8976
 7430SOL    HW223392   0.165   2.084   1.102 -0.7581  2.9856 -0.7219
 7431SOL     OW23393   6.788   2.474   1.254 -0.1198 -0.2030  0.5895
 7431SOL    HW123394   6.721   2.495   1.189 -2.0695  0.6393  2.7581
 7431SOL    HW223395   6.761   2.390   1.290 -0.7748  0.7338  2.3682
 7432SOL     OW23396   7.207   5.576   0.729  0.3243 -0.7521 -0.8724
 7432SOL    HW123397   7.237   5.485   0.733  0.5154 -0.6952 -1.0396
 7432SOL    HW223398   7.275   5.622   0.679  0.2956 -0.4903 -0.6710
 7433SOL     OW23399   0.903   1.133   8.277 -0.6804  0.2177 -0.0264
 7433SOL    HW123400   0.882   1.069   8.345  1.3832 -0.1240  0.3483
 7433SOL    HW223401   0.842   1.112   8.206  0.2546 -2.5405 -0.1413
 7434SOL     OW23402   5.981   7.287   5.448  0.4676 -0.6194  0.3853
 7434SOL    HW123403   5.999   7.375   5.482  0.1912 -0.1771 -0.5641
 7434SOL    HW223404   6.030   7.284   5.365 -2.2687 -0.0227 -1.3903
 7435SOL     OW23405   4.940   0.974   4.083  0.5329 -0.0908 -0.5325
 7435SOL    HW123406   4.916   0.966   4.175  0.2429  2.6323 -0.2851
 7435SOL    HW223407   5.019   0.921   4.074 -0.7150 -2.2680  0.6783
 7436SOL     OW23408   7.556   8.877   7.390 -0.0010  0.1318 -0.2489
 7436SOL    HW123409   7.542   8.971   7.394  0.2559  0.1649 -0.1320
 7436SOL    HW223410   7.565   8.858   7.297 -0.8151  0.1109 -0.3280
 7437SOL     OW23411   1.862   0.900   6.784  0.7906 -0.0219  0.2377
 7437SOL    HW123412   1.820   0.905   6.870  0.9624  2.2108  0.2338
 7437SOL    HW223413   1.795   0.932   6.723  1.6526  1.2929 -0.0570
 7438SOL     OW23414   6.343   3.057   7.627 -0.4493  0.0023 -0.4872
 7438SOL    HW123415   6.304   3.006   7.556  0.4331  1.2745 -1.9530
 7438SOL    HW223416   6.435   3.032   7.628 -0.4072  0.1666  0.0575
 7439SOL     OW23417   6.016   3.220   7.432  0.5661 -0.4130 -0.3913
 7439SOL    HW123418   6.037   3.151   7.494 -0.1304 -1.4443 -1.2567
 7439SOL    HW223419   5.926   3.200   7.404 -0.0999  1.5417  0.2331
 7440SOL     OW23420   8.892   5.709   7.528 -0.3461  0.0425 -0.2835
 7440SOL    HW123421   8.951   5.774   7.565 -1.2424  0.4938  0.3922
 7440SOL    HW223422   8.905   5.716   7.434  1.2896 -0.4725 -0.1350
 7441SOL     OW23423   2.385   1.509   0.108  0.6171 -0.4472  0.3192
 7441SOL    HW123424   2.445   1.581   0.126 -0.2415  0.0886  1.1654
 7441SOL    HW223425   2.355   1.525   0.018 -0.5712  1.0537  0.9257
 7442SOL     OW23426   2.655   3.881   7.622 -0.1913  0.0008 -0.3002
 7442SOL    HW123427   2.610   3.802   7.652  0.2475 -0.1260  0.0349
 7442SOL    HW223428   2.654   3.939   7.698  0.0012  0.0863 -0.3618
 7443SOL     OW23429   0.181   2.531   2.719 -0.1962 -0.3843  0.3407
 7443SOL    HW123430   0.247   2.518   2.651  0.5818  1.6480  0.6627
 7443SOL    HW223431   0.230   2.528   2.801 -0.9926 -1.8794  0.8043
 7444SOL     OW23432   1.346   0.722   4.089  0.1504 -0.6367 -0.5544
 7444SOL    HW123433   1.357   0.631   4.118  0.5476 -0.8369 -1.3064
 7444SOL    HW223434   1.384   0.724   4.002  1.0734  0.5060 -0.1513
 7445SOL     OW23435   7.270   6.070   5.603  0.1487  0.4127  1.0396
 7445SOL    HW123436   7.244   6.023   5.523 -1.2193  1.1182  1.0240
 7445SOL    HW223437   7.190   6.071   5.656  0.8994  0.4164  2.1868
 7446SOL     OW23438   8.608   8.470   1.340  0.2761  0.6463  0.4865
 7446SOL    HW123439   8.557   8.486   1.419 -0.0812 -1.1660  0.6552
 7446SOL    HW223440   8.696   8.502   1.361  0.4975 -0.8928  2.0694
 7447SOL     OW23441   4.396   2.283   7.539  0.2350  0.2596  0.3962
 7447SOL    HW123442   4.450   2.208   7.563  0.6667  0.5525  0.3587
 7447SOL    HW223443   4.431   2.311   7.454  0.2247  0.6363  0.5124
 7448SOL     OW23444   7.068   4.076   4.923  0.2537 -0.2456 -0.7145
 7448SOL    HW123445   7.047   4.068   5.016  0.4571  0.0823 -0.6379
 7448SOL    HW223446   7.030   4.160   4.897 -1.2871 -1.0859 -1.3405
 7449SOL     OW23447   2.374   3.884   6.283  0.2019 -0.3845 -0.6853
 7449SOL    HW123448   2.428   3.946   6.332 -0.0163 -0.6139 -0.1476
 7449SOL    HW223449   2.359   3.926   6.199 -1.6670  1.2581  0.3683
 7450SOL     OW23450   6.874   0.045   8.001 -0.1348 -0.3345 -0.7407
 7450SOL    HW123451   6.798   0.085   8.043  0.3500  0.3143 -0.4624
 7450SOL    HW223452   6.909  -0.015   8.066  1.6050  1.8803  0.5199
 7451SOL     OW23453   0.341   0.925   4.683  0.1806 -0.0716 -0.0778
 7451SOL    HW123454   0.281   0.852   4.666  0.9753 -0.9725  0.8431
 7451SOL    HW223455   0.425   0.883   4.701  0.3681  0.9860  1.7875
 7452SOL     OW23456   4.895   8.570   2.025 -0.5387  0.4881  0.4427
 7452SOL    HW123457   4.916   8.651   2.072 -0.1404 -0.1525  1.4124
 7452SOL    HW223458   4.928   8.500   2.082 -0.0095 -0.3296 -0.8236
 7453SOL     OW23459   5.709   8.184   5.674 -0.3709 -0.0202  0.4894
 7453SOL    HW123460   5.792   8.159   5.634 -1.1437  0.0280 -1.2268
 7453SOL    HW223461   5.731   8.199   5.766  1.5491  0.1574  0.0570
 7454SOL     OW23462   6.574   1.085   3.400 -0.2806 -0.5008 -0.6004
 7454SOL    HW123463   6.628   1.164   3.405  0.9230 -1.2200 -1.6086
 7454SOL    HW223464   6.485   1.118   3.391  0.3299  0.8118 -2.5760
 7455SOL     OW23465   3.311   5.548   6.151 -0.0258 -0.3846 -0.2261
 7455SOL    HW123466   3.256   5.626   6.166 -1.2154 -1.5477  1.9235
 7455SOL    HW223467   3.372   5.575   6.083 -0.2566  2.5079  0.5844
 7456SOL     OW23468   8.498   0.724   6.634 -0.0295 -0.4508 -0.0430
 7456SOL    HW123469   8.583   0.741   6.674 -0.2811  1.3405 -0.1471
 7456SOL    HW223470   8.437   0.720   6.708 -0.1932  0.8022 -0.0836
 7457SOL     OW23471   6.619   3.625   3.236  0.1236 -0.3112  0.0895
 7457SOL    HW123472   6.564   3.622   3.158  0.8128 -0.2892 -0.4057
 7457SOL    HW223473   6.582   3.696   3.289  0.5442  0.6883 -0.9093
 7458SOL     OW23474   3.770   5.649   4.946  0.0840 -0.0306  0.0497
 7458SOL    HW123475   3.741   5.578   4.889 -2.5024 -1.0272  2.3776
 7458SOL    HW223476   3.712   5.723   4.924 -1.5150 -0.6765  1.7660
 7459SOL     OW23477   5.962   2.993   4.950  0.0006  0.2404  0.1073
 7459SOL    HW123478   5.908   3.034   5.017  2.7691  2.1719  1.3567
 7459SOL    HW223479   5.909   2.995   4.871 -3.5780 -2.5030  2.1785
 7460SOL     OW23480   2.250   8.570   0.473  0.2117 -0.1833  0.1866
 7460SOL    HW123481   2.171   8.519   0.456 -0.1776  0.8042 -1.0987
 7460SOL    HW223482   2.219   8.651   0.512  0.5661  0.2957 -0.5122
 7461SOL     OW23483   4.432   5.272   6.205  0.5492  0.1946 -0.0864
 7461SOL    HW123484   4.518   5.293   6.170 -0.5395  1.2081 -2.4353
 7461SOL    HW223485   4.424   5.326   6.283  2.3392 -0.5952  0.6816
 7462SOL     OW23486   3.627   6.151   6.408 -0.4623 -0.6041  0.1449
 7462SOL    HW123487   3.639   6.236   6.450  1.2638 -1.4541  1.5167
 7462SOL    HW223488   3.651   6.166   6.316 -1.2595  0.5906  0.1009
 7463SOL     OW23489   6.029   6.419   9.063 -0.2894  0.1378 -0.6256
 7463SOL    HW123490   6.062   6.363   8.993  0.4888 -0.8976  0.5220
 7463SOL    HW223491   5.935   6.399   9.068 -0.2988  0.0338 -1.2032
 7464SOL     OW23492   6.870   0.265   0.372  0.1069  0.6121  0.1817
 7464SOL    HW123493   6.853   0.354   0.401  0.3969  0.4997  0.6958
 7464SOL    HW223494   6.962   0.249   0.394  0.6679  0.8900 -1.7257
 7465SOL     OW23495   0.281   2.371   5.619 -0.4580 -0.2876  0.1232
 7465SOL    HW123496   0.309   2.302   5.678 -0.8196 -0.8082 -0.3094
 7465SOL    HW223497   0.271   2.328   5.534 -0.8111  0.2623 -0.1214
 7466SOL     OW23498   8.452   0.686   1.576 -0.0059 -0.0631 -0.4574
 7466SOL    HW123499   8.405   0.615   1.620  0.3079  0.0617  0.1016
 7466SOL    HW223500   8.401   0.704   1.497 -0.5195 -0.3766 -0.2030
 7467SOL     OW23501   3.542   1.437   6.132  0.0188  0.5313 -0.5148
 7467SOL    HW123502   3.622   1.463   6.177 -0.8372  0.2090  1.2864
 7467SOL    HW223503   3.572   1.389   6.055  1.5857  3.7357 -2.0641
 7468SOL     OW23504   2.521   4.466   5.049  0.4476  0.2890  0.5373
 7468SOL    HW123505   2.469   4.480   4.970 -0.7537  0.0797  1.2710
 7468SOL    HW223506   2.585   4.538   5.048  0.1105  0.5937 -0.3396
 7469SOL     OW23507   1.905   6.765   1.862 -0.4052  0.6136 -0.0455
 7469SOL    HW123508   1.896   6.679   1.820 -0.5484  0.2817  0.6474
 7469SOL    HW223509   1.974   6.752   1.927  0.1549  1.2506 -0.4988
 7470SOL     OW23510   0.666   6.396   5.451 -0.1779 -0.1075  0.3813
 7470SOL    HW123511   0.751   6.364   5.481 -0.2022 -0.8721 -0.3269
 7470SOL    HW223512   0.685   6.480   5.411 -0.2979  1.5153  3.4191
 7471SOL     OW23513   3.616   2.470   3.984  0.0254  0.0460  0.1554
 7471SOL    HW123514   3.662   2.554   3.989 -1.9413  1.1144  1.7340
 7471SOL    HW223515   3.663   2.422   3.915 -1.1595  3.9394 -3.8659
 7472SOL     OW23516   3.713   5.580   2.686  0.3087 -0.0901 -0.0354
 7472SOL    HW123517   3.800   5.582   2.727  1.1118 -0.3855 -1.6624
 7472SOL    HW223518   3.678   5.668   2.700  0.6052 -0.1333  1.1399
 7473SOL     OW23519   1.945   7.764   2.801  0.1249 -0.2491  0.6458
 7473SOL    HW123520   2.014   7.721   2.750 -0.3959 -0.5685  0.2106
 7473SOL    HW223521   1.956   7.857   2.782  0.2992 -0.3185  0.4023
 7474SOL     OW23522   1.174   8.567   0.845 -0.1853 -0.1378  0.1741
 7474SOL    HW123523   1.129   8.632   0.791 -0.7886  0.5312  1.4379
 7474SOL    HW223524   1.244   8.617   0.889 -0.0169 -0.5612  0.3890
 7475SOL     OW23525   6.016   1.730   2.395 -0.2036  0.2902 -0.7503
 7475SOL    HW123526   6.089   1.792   2.398  0.8044 -0.8697 -0.3728
 7475SOL    HW223527   5.939   1.782   2.418  0.6492  1.3390 -0.1791
 7476SOL     OW23528   4.091   5.589   0.842  0.0846 -0.2875 -0.9073
 7476SOL    HW123529   4.172   5.544   0.867 -0.0383  0.2455  0.5056
 7476SOL    HW223530   4.113   5.630   0.758  0.8274 -1.2993 -1.2355
 7477SOL     OW23531   5.917   3.329   6.749 -0.1146  0.1652 -0.7220
 7477SOL    HW123532   5.981   3.400   6.752  0.4414 -0.3088 -1.0461
 7477SOL    HW223533   5.850   3.354   6.813  1.1812 -0.0690  0.7881
 7478SOL     OW23534   6.243   1.710   7.293  0.1566  0.1180 -0.1789
 7478SOL    HW123535   6.246   1.775   7.223  1.7497 -0.8578 -1.0908
 7478SOL    HW223536   6.195   1.636   7.254 -0.2849  0.1481  0.3024
 7479SOL     OW23537   6.718   4.565   1.206 -0.1098 -0.1684  0.4874
 7479SOL    HW123538   6.715   4.504   1.280 -0.4831 -0.3093  0.3569
 7479SOL    HW223539   6.708   4.510   1.129 -1.4346  0.1477  0.4075
 7480SOL     OW23540   4.798   0.712   8.375  0.7571  0.4313  0.2791
 7480SOL    HW123541   4.831   0.706   8.286 -0.5792  2.9228 -0.4549
 7480SOL    HW223542   4.703   0.705   8.367  0.7070 -1.7296  1.8222
 7481SOL     OW23543   1.692   1.173   6.340 -0.1429  0.6036 -0.5384
 7481SOL    HW123544   1.786   1.182   6.355  0.0364 -1.5157 -0.0687
 7481SOL    HW223545   1.666   1.255   6.299  1.8864  1.2703 -0.5921
 7482SOL     OW23546   4.821   8.975   3.628  0.3308  0.5094 -0.1350
 7482SOL    HW123547   4.758   8.979   3.556  0.5573  0.7758 -0.3206
 7482SOL    HW223548   4.857   9.064   3.634  0.6100  0.3880  0.0395
 7483SOL     OW23549   5.947   3.774   5.810  0.3409 -0.2973  0.2543
 7483SOL    HW123550   5.944   3.747   5.902  2.1363  0.0782  0.4754
 7483SOL    HW223551   5.858   3.762   5.777 -0.2981 -0.5567  2.0068
 7484SOL     OW23552   8.757   8.698   2.686  0.2075  0.0738  0.4973
 7484SOL    HW123553   8.761   8.754   2.763  2.1365  1.5549 -0.5946
 7484SOL    HW223554   8.847   8.671   2.669 -0.1241 -0.0898 -1.3063
 7485SOL     OW23555   8.452   1.167   1.415 -0.0728  0.1743  0.2479
 7485SOL    HW123556   8.547   1.176   1.409 -0.2624  2.9025 -0.1014
 7485SOL    HW223557   8.438   1.084   1.462  2.3238 -2.5504 -3.3539
 7486SOL     OW23558   0.899   0.275   0.292 -0.3041 -0.1899 -0.2685
 7486SOL    HW123559   0.932   0.364   0.303 -0.3724 -0.1313 -0.5355
 7486SOL    HW223560   0.861   0.274   0.204 -0.5679 -0.3968 -0.1536
 7487SOL     OW23561   0.885   5.045   3.647 -0.6310  0.0174 -0.4258
 7487SOL    HW123562   0.974   5.078   3.643 -0.2400 -1.0472 -0.7046
 7487SOL    HW223563   0.894   4.952   3.669 -1.7579  0.4294  2.1526
 7488SOL     OW23564   3.231   4.361   8.398 -0.0649  0.4102  0.6169
 7488SOL    HW123565   3.280   4.286   8.430  0.5613  1.2330  1.6416
 7488SOL    HW223566   3.293   4.408   8.341 -0.7796 -0.3760 -0.8791
 7489SOL     OW23567   3.302   5.991   8.438  0.2882  0.3134 -0.5449
 7489SOL    HW123568   3.329   5.951   8.356  0.8627 -0.7027  0.1301
 7489SOL    HW223569   3.377   5.982   8.497 -0.2247  0.7248  0.2051
 7490SOL     OW23570   0.316   1.152   0.176 -0.4526 -0.4762 -0.8816
 7490SOL    HW123571   0.254   1.082   0.154  1.6103 -2.3909 -1.0313
 7490SOL    HW223572   0.389   1.139   0.116  2.0313 -1.1640  2.0112
 7491SOL     OW23573   7.396   6.170   7.948  0.1086 -0.2112 -0.4920
 7491SOL    HW123574   7.485   6.171   7.984 -0.3055  0.2771  0.5720
 7491SOL    HW223575   7.408   6.173   7.854  1.2181  0.0611 -0.3533
 7492SOL     OW23576   0.453   5.045   5.787  0.2360 -0.0324  0.4974
 7492SOL    HW123577   0.387   5.114   5.799  1.2263  1.1041 -0.3442
 7492SOL    HW223578   0.525   5.071   5.846  1.0627  0.2706 -0.6077
 7493SOL     OW23579   6.310   6.899   1.823 -0.3591 -0.1895 -0.2635
 7493SOL    HW123580   6.399   6.867   1.832  0.0739  1.4190  1.9218
 7493SOL    HW223581   6.266   6.873   1.904 -0.7515  2.1852  0.3743
 7494SOL     OW23582   7.261   2.796   3.706  0.4336  0.1245 -0.1036
 7494SOL    HW123583   7.326   2.789   3.636  1.7609 -0.9132  1.1446
 7494SOL    HW223584   7.241   2.705   3.730 -1.4731  0.4283 -0.4113
 7495SOL     OW23585   7.571   1.207   0.374 -0.2722  0.3330  0.3478
 7495SOL    HW123586   7.555   1.177   0.285 -1.2469  1.5576  0.0980
 7495SOL    HW223587   7.543   1.134   0.429 -0.6324 -0.0317 -0.3131
 7496SOL     OW23588   1.442   7.240   6.513  0.5129 -0.2000 -0.2874
 7496SOL    HW123589   1.461   7.146   6.504 -1.3904 -0.6180 -0.3815
 7496SOL    HW223590   1.391   7.246   6.594  1.8973  0.9995  0.5550
 7497SOL     OW23591   6.025   4.358   7.186  0.1815 -0.1081  0.1512
 7497SOL    HW123592   6.049   4.420   7.117  0.3766 -1.3599 -0.9567
 7497SOL    HW223593   5.946   4.315   7.152 -0.3695  0.0217  1.2291
 7498SOL     OW23594   4.058   4.278   1.740 -0.4021  0.0039  0.0839
 7498SOL    HW123595   4.024   4.313   1.822 -1.6254  0.4505 -0.5891
 7498SOL    HW223596   4.106   4.199   1.766  0.3241  0.8324  1.3489
 7499SOL     OW23597   9.118   2.770   7.532  0.0474  0.0312  0.5187
 7499SOL    HW123598   9.065   2.772   7.611 -0.4200 -0.5085  0.2334
 7499SOL    HW223599   9.100   2.684   7.493 -0.3500  0.5809 -0.5776
 7500SOL     OW23600   0.818   6.462   4.564 -0.1986 -0.1084  0.0696
 7500SOL    HW123601   0.745   6.524   4.565 -0.7222 -0.6583 -1.3956
 7500SOL    HW223602   0.815   6.421   4.651  0.8915  2.6556  1.5402
 7501SOL     OW23603   2.440   7.401   1.246 -0.4771 -0.0874  0.2064
 7501SOL    HW123604   2.403   7.313   1.243  0.0105 -0.2746 -0.6402
 7501SOL    HW223605   2.440   7.430   1.154  3.3115 -0.8786 -0.2227
 7502SOL     OW23606   4.291   9.074   9.044  0.2061  0.0427  0.1826
 7502SOL    HW123607   4.348   9.009   9.001  0.2968 -0.3224  0.8421
 7502SOL    HW223608   4.203   9.039   9.031  0.1319  0.5342 -0.7130
 7503SOL     OW23609   5.426   2.719   1.134  0.3991 -0.3181 -0.5119
 7503SOL    HW123610   5.414   2.803   1.091 -1.2202 -0.8808 -1.2296
 7503SOL    HW223611   5.385   2.729   1.220 -1.7365 -0.9478 -1.3786
 7504SOL     OW23612   8.268   0.638   8.318  0.1067 -0.0051  0.9520
 7504SOL    HW123613   8.173   0.632   8.309  0.1579 -1.1692  1.1020
 7504SOL    HW223614   8.291   0.717   8.269 -1.0754  1.0570  2.0358
 7505SOL     OW23615   1.961   9.050   6.514 -0.2649 -0.6242 -0.2127
 7505SOL    HW123616   1.927   9.006   6.436  1.9665 -0.8016 -1.1620
 7505SOL    HW223617   1.967   8.982   6.580  2.0024 -1.5941 -1.3003
 7506SOL     OW23618   0.840   1.533   0.914 -0.3377 -0.2701 -0.1822
 7506SOL    HW123619   0.744   1.529   0.910 -0.3112 -0.2049 -1.6252
 7506SOL    HW223620   0.867   1.441   0.922 -0.5263 -0.2258  1.1337
 7507SOL     OW23621   1.632   2.266   0.324  0.0510 -0.5232  0.1724
 7507SOL    HW123622   1.590   2.278   0.409 -1.7700  1.3117 -0.9012
 7507SOL    HW223623   1.664   2.352   0.300  0.8873 -1.0954 -0.8514
 7508SOL     OW23624   4.496   6.321   3.862  0.5478 -0.1467  0.0640
 7508SOL    HW123625   4.447   6.282   3.789  1.4102  0.6052 -0.9621
 7508SOL    HW223626   4.551   6.249   3.894 -1.6795 -1.2238  1.7477
 7509SOL     OW23627   2.857   2.692   9.064  0.5819 -0.1369  0.2273
 7509SOL    HW123628   2.827   2.611   9.021  1.2927 -0.3921  0.2079
 7509SOL    HW223629   2.778   2.746   9.070  0.4281 -0.1536 -1.2791
 7510SOL     OW23630   7.376   2.516   8.089  0.2712 -0.4303  0.5591
 7510SOL    HW123631   7.454   2.567   8.067  0.0747  0.2347  1.3232
 7510SOL    HW223632   7.373   2.447   8.024 -0.3268  1.4554 -1.5530
 7511SOL     OW23633   0.511   0.139   4.878 -0.6132  0.0847  0.1122
 7511SOL    HW123634   0.425   0.169   4.908  0.0588  0.9197  1.2782
 7511SOL    HW223635   0.560   0.123   4.959  0.2245 -0.7005 -0.5334
 7512SOL     OW23636   5.243   6.899   6.167  0.2680 -0.7144 -0.2269
 7512SOL    HW123637   5.196   6.915   6.085  0.2316 -1.5981 -0.3836
 7512SOL    HW223638   5.199   6.824   6.207  1.4047 -1.4541 -0.2945
 7513SOL     OW23639   7.672   2.853   0.785 -0.0912 -0.3482  0.0676
 7513SOL    HW123640   7.746   2.841   0.844  0.6436 -1.7079 -1.0540
 7513SOL    HW223641   7.611   2.782   0.808 -1.5211  1.2790  1.5812
 7514SOL     OW23642   1.295   6.531   6.465  0.1510  0.4066 -0.1199
 7514SOL    HW123643   1.245   6.517   6.545 -1.0531  1.5916 -0.6203
 7514SOL    HW223644   1.236   6.505   6.395  1.2095 -0.6583 -0.6428
 7515SOL     OW23645   6.225   7.044   4.084  0.2412 -0.2363  0.0671
 7515SOL    HW123646   6.130   7.059   4.089  0.4069  0.9673 -0.1214
 7515SOL    HW223647   6.235   6.978   4.015 -0.4139  0.2142 -0.4751
 7516SOL     OW23648   4.106   7.864   4.147 -0.1981  0.2448  0.1471
 7516SOL    HW123649   4.103   7.920   4.069 -0.7498  1.2148  0.8394
 7516SOL    HW223650   4.015   7.847   4.168 -0.1515  1.6235  1.6929
 7517SOL     OW23651   7.175   2.573   6.760 -0.1734  0.7158 -0.0696
 7517SOL    HW123652   7.080   2.570   6.761 -0.1536 -1.7065  0.4123
 7517SOL    HW223653   7.201   2.550   6.850  0.8260 -1.3149 -0.8126
 7518SOL     OW23654   3.720   3.191   2.764  0.0024  0.2345 -0.3127
 7518SOL    HW123655   3.740   3.134   2.838  0.5712  0.0885 -0.5702
 7518SOL    HW223656   3.662   3.139   2.708 -2.3535  1.1642  1.1269
 7519SOL     OW23657   1.819   0.369   5.713  0.5706  0.6465 -0.3581
 7519SOL    HW123658   1.754   0.416   5.662  1.7089  0.0847 -2.4428
 7519SOL    HW223659   1.903   0.405   5.684  1.3140 -0.5642  0.2136
 7520SOL     OW23660   4.872   3.997   6.033  0.1757  0.3527  0.1229
 7520SOL    HW123661   4.916   3.914   6.018 -1.1510 -0.0698 -1.8326
 7520SOL    HW223662   4.942   4.062   6.036  1.0607 -0.0725 -4.3392
 7521SOL     OW23663   6.882   6.246   6.494 -0.1972  0.3870 -0.2605
 7521SOL    HW123664   6.874   6.294   6.576  0.0137  0.0195 -0.0228
 7521SOL    HW223665   6.974   6.256   6.468  0.1271 -0.7993  0.3641
 7522SOL     OW23666   8.045   3.258   8.460  0.0007  0.2518  0.4484
 7522SOL    HW123667   7.957   3.294   8.447  0.2234 -0.0486 -2.6525
 7522SOL    HW223668   8.101   3.335   8.468 -0.0896  0.6007 -1.7239
 7523SOL     OW23669   8.544   3.764   7.680 -0.4028  0.2328  0.0774
 7523SOL    HW123670   8.566   3.848   7.640  0.9408 -1.0008 -2.0000
 7523SOL    HW223671   8.456   3.744   7.648 -0.3931  0.4569 -0.0910
 7524SOL     OW23672   4.819   2.406   3.470 -0.7378  0.1515  0.0127
 7524SOL    HW123673   4.856   2.454   3.544  1.2298 -0.5301 -0.4697
 7524SOL    HW223674   4.826   2.465   3.396  0.3361 -0.3250 -0.2806
 7525SOL     OW23675   3.669   5.314   6.084  0.1783 -0.3622  0.0094
 7525SOL    HW123676   3.682   5.384   6.148 -1.4068 -0.8049  0.8785
 7525SOL    HW223677   3.616   5.353   6.015 -0.3977 -0.5940  0.3147
 7526SOL     OW23678   6.354   5.883   8.565 -0.2698  0.1002  0.1616
 7526SOL    HW123679   6.425   5.834   8.523 -1.6298 -0.6169 -1.4108
 7526SOL    HW223680   6.394   5.966   8.591  0.7621  0.4519 -2.2913
 7527SOL     OW23681   0.850   8.992   7.910 -0.0903  0.7000  0.1974
 7527SOL    HW123682   0.939   9.028   7.910  0.1543  0.0981  0.7775
 7527SOL    HW223683   0.860   8.903   7.876 -0.2842  0.1736  1.4948
 7528SOL     OW23684   1.051   3.520   3.262 -0.1294  0.1118 -0.6528
 7528SOL    HW123685   1.124   3.582   3.258  1.1480 -1.1690  1.1337
 7528SOL    HW223686   1.092   3.435   3.247 -1.1362 -0.7002  0.9499
 7529SOL     OW23687   8.898   0.595   0.239 -0.1806 -0.5411 -0.1048
 7529SOL    HW123688   8.874   0.550   0.320  0.5564 -1.1729 -0.2192
 7529SOL    HW223689   8.853   0.546   0.170 -0.7229 -0.0687 -0.0878
 7530SOL     OW23690   4.117   7.295   7.424 -0.4238 -0.6208 -1.2424
 7530SOL    HW123691   4.097   7.325   7.513 -3.2200 -0.5443 -1.7900
 7530SOL    HW223692   4.157   7.209   7.436  1.3333  0.3188  0.1133
 7531SOL     OW23693   6.797   4.354   8.548  0.1445 -0.3244  0.3625
 7531SOL    HW123694   6.837   4.345   8.462 -0.1900 -1.3620  0.3094
 7531SOL    HW223695   6.853   4.417   8.594  0.1545  0.4703 -0.7006
 7532SOL     OW23696   2.091   1.787   0.046  0.5751 -0.0422  0.5488
 7532SOL    HW123697   2.182   1.761   0.032  0.0232 -1.7098 -0.1813
 7532SOL    HW223698   2.046   1.705   0.068 -1.4121  0.0766 -2.5431
 7533SOL     OW23699   3.138   0.457   5.837  0.0592 -0.6448 -0.8595
 7533SOL    HW123700   3.215   0.484   5.888 -0.6051 -2.2522  1.1278
 7533SOL    HW223701   3.108   0.537   5.795 -0.6567  1.4028  3.0788
 7534SOL     OW23702   5.495   2.741   5.135 -0.6320 -0.4469  0.0717
 7534SOL    HW123703   5.519   2.802   5.065 -0.8002  0.7928  1.0628
 7534SOL    HW223704   5.479   2.658   5.090 -0.4062  0.2364 -1.3154
 7535SOL     OW23705   5.550   4.967   8.963  0.3435  0.8140 -0.3845
 7535SOL    HW123706   5.504   5.051   8.951  1.4184  1.5745  0.6510
 7535SOL    HW223707   5.581   4.970   9.054  0.3378 -0.7499 -0.3155
 7536SOL     OW23708   9.002   0.416   2.909 -0.4113 -0.1545  0.1193
 7536SOL    HW123709   8.978   0.324   2.899 -0.2584 -0.2120  0.2734
 7536SOL    HW223710   8.931   0.465   2.867  0.2240 -0.3945 -1.3095
 7537SOL     OW23711   3.935   7.348   0.247 -0.3280  0.0020 -0.3566
 7537SOL    HW123712   4.015   7.304   0.276 -0.6061  0.7253  1.6259
 7537SOL    HW223713   3.906   7.298   0.171  2.4227  0.1822 -1.6573
 7538SOL     OW23714   6.434   6.558   0.314  0.0658 -0.3088 -0.3429
 7538SOL    HW123715   6.510   6.550   0.256  0.1364 -1.5972 -0.1120
 7538SOL    HW223716   6.386   6.633   0.280  1.3593  0.4384 -0.5816
 7539SOL     OW23717   7.397   5.354   6.399  0.8970 -0.0537  0.2293
 7539SOL    HW123718   7.346   5.413   6.455 -1.4208 -2.7602  1.1941
 7539SOL    HW223719   7.373   5.378   6.310 -1.4834 -0.6425  0.6442
 7540SOL     OW23720   5.874   3.847   1.188 -0.0477 -0.0990  0.4989
 7540SOL    HW123721   5.905   3.937   1.193  1.1642 -0.4929  0.2091
 7540SOL    HW223722   5.856   3.823   1.279 -0.8994  0.5918  0.5308
 7541SOL     OW23723   3.562   8.682   7.612 -0.7812  0.5835  0.1642
 7541SOL    HW123724   3.614   8.740   7.556  1.1495 -0.8937  0.3191
 7541SOL    HW223725   3.556   8.600   7.563 -1.9619  0.3211  0.6989
 7542SOL     OW23726   3.457   8.526   4.517 -0.0472 -0.0396  0.0348
 7542SOL    HW123727   3.480   8.479   4.597 -1.0660 -0.1049  0.2967
 7542SOL    HW223728   3.447   8.617   4.545  0.2151  0.0415 -0.1378
 7543SOL     OW23729   4.470   0.487   8.202 -0.1378 -0.0964 -0.2604
 7543SOL    HW123730   4.385   0.456   8.234  1.1864 -2.0128  1.6750
 7543SOL    HW223731   4.524   0.408   8.196  1.7075  1.1382 -0.8065
 7544SOL     OW23732   7.822   8.432   2.962 -0.1111 -0.2907  0.1538
 7544SOL    HW123733   7.763   8.469   3.028 -1.6739 -0.5771 -1.0432
 7544SOL    HW223734   7.793   8.342   2.951  0.3034 -0.3320 -0.7126
 7545SOL     OW23735   0.783   4.333   7.473  0.1615  0.0096  0.3229
 7545SOL    HW123736   0.849   4.264   7.462 -0.8081 -1.2629  1.9482
 7545SOL    HW223737   0.721   4.296   7.536 -2.5101  0.8615 -1.6193
 7546SOL     OW23738   6.823   3.800   7.538  0.0679 -0.6163  0.3153
 7546SOL    HW123739   6.862   3.744   7.605  0.9294  1.9379  2.1522
 7546SOL    HW223740   6.890   3.807   7.470  0.6734 -0.4662  0.9161
 7547SOL     OW23741   3.117   8.826   4.530 -0.0739  0.3976 -0.3864
 7547SOL    HW123742   3.155   8.742   4.504 -0.3328  0.5871 -1.4104
 7547SOL    HW223743   3.084   8.811   4.618  0.6478 -0.3288 -0.2267
 7548SOL     OW23744   6.529   3.838   4.224  0.0656 -0.3883 -0.3182
 7548SOL    HW123745   6.461   3.851   4.157 -0.1148 -2.2044 -0.5475
 7548SOL    HW223746   6.551   3.926   4.254 -2.3027  0.2616 -0.3268
 7549SOL     OW23747   5.538   2.666   1.921 -0.1784  0.0844  0.5311
 7549SOL    HW123748   5.486   2.746   1.926 -0.1255  0.1033  0.7851
 7549SOL    HW223749   5.521   2.632   1.833 -2.5489 -1.1764  1.3780
 7550SOL     OW23750   8.645   1.421   2.615 -0.2491  0.1793  0.0636
 7550SOL    HW123751   8.698   1.498   2.596 -0.1372 -0.0464 -0.5566
 7550SOL    HW223752   8.607   1.397   2.531  0.8927 -1.3237 -0.0532
 7551SOL     OW23753   7.464   4.010   0.319 -0.1424 -0.2391 -0.0351
 7551SOL    HW123754   7.508   4.094   0.302  1.0289  0.2569  4.2275
 7551SOL    HW223755   7.535   3.952   0.347 -1.1789 -2.1751 -1.2906
 7552SOL     OW23756   2.740   2.587   0.927  0.2400  0.6784 -0.2725
 7552SOL    HW123757   2.741   2.494   0.904  1.1486  0.2108  1.4597
 7552SOL    HW223758   2.754   2.632   0.844  1.4559 -0.8200 -0.9395
 7553SOL     OW23759   2.531   0.712   7.329 -0.1897 -0.4220  0.4319
 7553SOL    HW123760   2.575   0.638   7.372 -0.6730 -2.6370 -2.5460
 7553SOL    HW223761   2.444   0.678   7.307 -1.5973  2.1262  1.5861
 7554SOL     OW23762   4.097   6.598   2.567  0.1717 -0.5623  0.0865
 7554SOL    HW123763   4.028   6.555   2.618  0.0319 -1.4753 -0.8524
 7554SOL    HW223764   4.149   6.526   2.532  1.7653  0.1070  0.9556
 7555SOL     OW23765   3.999   6.829   7.929  0.0108 -0.1932 -0.0777
 7555SOL    HW123766   3.969   6.918   7.949  1.0226  0.4803 -1.4633
 7555SOL    HW223767   3.938   6.773   7.977 -1.5095  1.2003 -0.2807
 7556SOL     OW23768   1.207   8.742   5.784 -0.4808 -0.1724 -0.5839
 7556SOL    HW123769   1.247   8.802   5.847  0.4895 -0.4684 -0.9110
 7556SOL    HW223770   1.251   8.759   5.702  1.2715 -2.6700 -0.2852
 7557SOL     OW23771   2.811   8.085   1.331  0.6730  0.4101 -0.0376
 7557SOL    HW123772   2.784   8.165   1.286 -0.6489 -0.9363 -1.8066
 7557SOL    HW223773   2.753   8.079   1.407  0.3904  0.8450 -0.2160
 7558SOL     OW23774   3.125   8.782   3.556 -0.1471  0.1753  0.0297
 7558SOL    HW123775   3.174   8.827   3.626  0.1897  2.9562 -1.8268
 7558SOL    HW223776   3.089   8.853   3.503 -1.4803 -1.8302 -1.9119
 7559SOL     OW23777   8.197   5.705   0.927  0.1234  0.0292 -0.1022
 7559SOL    HW123778   8.206   5.613   0.903  1.0422 -0.2029  1.0275
 7559SOL    HW223779   8.273   5.748   0.889 -0.3802  0.3702 -0.7529
 7560SOL     OW23780   5.451   0.873   4.274 -0.2630 -0.0607  0.5460
 7560SOL    HW123781   5.364   0.894   4.308 -0.8722 -0.4145 -0.7454
 7560SOL    HW223782   5.444   0.886   4.180  1.2910  0.5848  0.4955
 7561SOL     OW23783   8.615   3.042   1.599 -0.1083 -0.1289 -0.2672
 7561SOL    HW123784   8.659   3.056   1.682  2.9370  1.6474 -2.0066
 7561SOL    HW223785   8.590   3.129   1.569 -1.4580 -0.7616 -1.1185
 7562SOL     OW23786   0.315   3.994   4.635 -0.3429  0.1395 -0.0865
 7562SOL    HW123787   0.374   4.060   4.672 -0.0902  0.1555 -0.5125
 7562SOL    HW223788   0.291   4.029   4.549 -0.6327 -0.0722 -0.0934
 7563SOL     OW23789   1.251   8.730   4.206  0.4152 -0.3348  0.0970
 7563SOL    HW123790   1.233   8.641   4.173 -0.6883  0.0289 -0.3359
 7563SOL    HW223791   1.164   8.766   4.225  0.9333 -0.1984  2.6297
 7564SOL     OW23792   8.078   0.533   4.486 -0.2090 -0.3642  0.2382
 7564SOL    HW123793   7.999   0.486   4.462 -1.4873  1.0753  1.4439
 7564SOL    HW223794   8.110   0.570   4.403 -0.9309 -0.7179 -0.2090
 7565SOL     OW23795   8.673   7.163   6.351 -0.3931 -0.2326  0.3034
 7565SOL    HW123796   8.595   7.198   6.395  1.1872  2.8470  1.0006
 7565SOL    HW223797   8.726   7.128   6.422 -0.0606 -0.0126  0.1629
 7566SOL     OW23798   8.893   4.237   5.881  0.1711  0.1928 -0.1872
 7566SOL    HW123799   8.913   4.285   5.961 -1.1899  0.1269  0.2028
 7566SOL    HW223800   8.799   4.222   5.884  0.2478 -0.6630 -1.3295
 7567SOL     OW23801   7.318   3.806   2.961 -0.4637 -0.2942  0.0546
 7567SOL    HW123802   7.276   3.730   2.919 -0.6813 -0.3301  0.3287
 7567SOL    HW223803   7.247   3.869   2.972  0.0943  0.7979 -2.0248
 7568SOL     OW23804   3.692   2.338   3.189 -0.0269 -0.1698 -0.8244
 7568SOL    HW123805   3.621   2.399   3.168 -0.4586 -0.3454  0.0830
 7568SOL    HW223806   3.661   2.254   3.156 -0.0086 -0.1419 -0.9118
 7569SOL     OW23807   3.419   3.487   3.730  0.0678  0.8980  0.2067
 7569SOL    HW123808   3.354   3.556   3.748 -1.0522 -0.2796  0.8591
 7569SOL    HW223809   3.424   3.484   3.635 -0.5561  1.2672  0.1541
 7570SOL     OW23810   0.015   7.017   5.188  0.5389 -0.6119 -0.6402
 7570SOL    HW123811   0.046   7.045   5.102 -1.1879  0.6449 -0.8931
 7570SOL    HW223812   0.072   7.062   5.250  0.0525  0.6861 -1.1062
 7571SOL     OW23813   3.503   6.603   2.466 -0.3313  0.0383 -0.0973
 7571SOL    HW123814   3.494   6.680   2.410  0.6505  0.2760  0.0634
 7571SOL    HW223815   3.525   6.532   2.406 -1.0784 -0.0999 -0.2247
 7572SOL     OW23816   5.332   8.036   6.052  0.1406  0.2518 -0.3914
 7572SOL    HW123817   5.333   8.101   6.122 -1.0363 -1.5004  1.3692
 7572SOL    HW223818   5.349   7.953   6.097  1.6532 -0.7057 -2.5489
 7573SOL     OW23819   6.253   6.289   2.627  0.5272  0.1465 -0.2928
 7573SOL    HW123820   6.243   6.224   2.697  2.5715  2.8608  2.8106
 7573SOL    HW223821   6.328   6.258   2.577  0.9067 -0.3714  0.5677
 7574SOL     OW23822   5.938   4.315   5.704 -0.2305 -0.5267  0.2815
 7574SOL    HW123823   5.850   4.296   5.737 -0.4677  1.2329  0.7318
 7574SOL    HW223824   5.930   4.305   5.609 -0.9167 -0.4276  0.3215
 7575SOL     OW23825   7.190   2.438   5.348 -0.1146  0.9222  0.0300
 7575SOL    HW123826   7.235   2.353   5.347 -0.1846  0.8850  0.0200
 7575SOL    HW223827   7.114   2.423   5.404 -1.0335  0.5218 -1.2811
 7576SOL     OW23828   3.768   4.898   5.329 -0.2110 -0.3776 -0.7071
 7576SOL    HW123829   3.814   4.940   5.257 -0.9408  0.0735 -0.9159
 7576SOL    HW223830   3.730   4.819   5.290 -0.1852 -0.3977 -0.6919
 7577SOL     OW23831   9.051   8.775   6.809  0.3702 -0.7436  1.0606
 7577SOL    HW123832   9.060   8.757   6.715 -0.8288  1.3043  0.5003
 7577SOL    HW223833   9.142   8.778   6.841  0.9775  1.2392 -0.6267
 7578SOL     OW23834   3.115   6.494   7.402 -0.4421 -0.4106 -0.2247
 7578SOL    HW123835   3.148   6.456   7.320 -1.9754 -1.3467 -0.4520
 7578SOL    HW223836   3.184   6.478   7.465 -0.1413 -1.6848 -0.8379
 7579SOL     OW23837   2.039   6.498   9.025  0.0148  0.3110  0.4270
 7579SOL    HW123838   2.069   6.504   9.116  0.3572  0.2523  0.3186
 7579SOL    HW223839   2.022   6.588   8.999  1.6600  0.5144 -0.0329
 7580SOL     OW23840   6.908   4.564   0.695 -0.3106  0.6476 -0.1124
 7580SOL    HW123841   6.903   4.653   0.658  1.1684  1.1417  0.7911
 7580SOL    HW223842   6.937   4.578   0.785 -0.1989 -0.7542  0.0782
 7581SOL     OW23843   1.086   6.358   2.319 -0.2637  0.1993  0.1683
 7581SOL    HW123844   1.060   6.266   2.320  0.2953  0.0273 -0.5046
 7581SOL    HW223845   1.081   6.384   2.411  0.8714 -0.8892  0.5786
 7582SOL     OW23846   7.023   2.414   2.096 -0.1833  1.0450 -0.1075
 7582SOL    HW123847   7.076   2.438   2.172  0.9063  0.1072 -0.5417
 7582SOL    HW223848   6.974   2.494   2.075 -0.9955  1.1277  1.9509
 7583SOL     OW23849   5.535   8.158   5.467 -0.5043 -0.6097 -0.3396
 7583SOL    HW123850   5.446   8.167   5.502  0.2153 -1.9847  2.0903
 7583SOL    HW223851   5.592   8.175   5.542  1.2029 -2.6697 -1.0786
 7584SOL     OW23852   7.337   6.648   6.815  0.1933  0.1567 -0.3050
 7584SOL    HW123853   7.422   6.652   6.772  0.5029  0.9872  0.3631
 7584SOL    HW223854   7.312   6.740   6.828  0.2544 -0.0551  1.5543
 7585SOL     OW23855   2.358   7.783   0.575 -0.2838  0.1275 -1.2745
 7585SOL    HW123856   2.305   7.704   0.566  1.0457 -0.7003 -2.2714
 7585SOL    HW223857   2.319   7.846   0.514 -1.2265  0.1887 -0.6235
 7586SOL     OW23858   8.927   7.744   3.947 -0.0167  0.1830 -0.0012
 7586SOL    HW123859   8.931   7.775   4.037  1.8493  0.4860 -0.1517
 7586SOL    HW223860   8.887   7.657   3.953 -1.3263  0.8222  0.9131
 7587SOL     OW23861   4.644   2.946   8.830  0.7755 -0.1465 -0.0103
 7587SOL    HW123862   4.628   2.872   8.888  0.3347  0.6974  0.9754
 7587SOL    HW223863   4.569   2.949   8.772  0.8102 -0.4889 -0.0716
 7588SOL     OW23864   4.452   5.153   1.898  0.3044  0.1014 -0.3639
 7588SOL    HW123865   4.474   5.183   1.810  0.1373  1.8826  0.1581
 7588SOL    HW223866   4.489   5.220   1.956  1.9545 -1.8801  1.0667
 7589SOL     OW23867   4.983   8.319   2.515 -0.5227  0.2751 -0.0448
 7589SOL    HW123868   4.983   8.284   2.604 -1.2357 -1.8168 -0.7845
 7589SOL    HW223869   5.070   8.300   2.481 -1.0404 -1.3081 -0.5857
 7590SOL     OW23870   1.163   4.145   5.902 -0.5547  0.1146 -0.3071
 7590SOL    HW123871   1.146   4.214   5.839  0.0439  0.0393 -0.5496
 7590SOL    HW223872   1.199   4.190   5.979 -0.5973  0.1223 -0.2912
 7591SOL     OW23873   5.967   6.042   3.531 -0.5556  0.0636 -0.0331
 7591SOL    HW123874   6.039   6.053   3.469  0.4881  1.2161  1.3317
 7591SOL    HW223875   5.900   6.105   3.503 -0.1961  0.4008 -0.1355
 7592SOL     OW23876   7.545   0.036   4.000  0.3755  0.2170  0.3734
 7592SOL    HW123877   7.480  -0.002   4.059  2.4763  0.4286  3.0267
 7592SOL    HW223878   7.498   0.104   3.952 -1.4844  0.0012  1.7889
 7593SOL     OW23879   5.203   2.766   6.143 -0.5017 -1.0341  0.2004
 7593SOL    HW123880   5.191   2.755   6.237  1.7939 -2.2479  0.4304
 7593SOL    HW223881   5.253   2.847   6.134 -0.3077 -1.1694  0.0627
 7594SOL     OW23882   7.604   1.583   7.957 -0.2785 -0.3628 -0.3788
 7594SOL    HW123883   7.651   1.505   7.984 -0.2128 -0.2678 -0.2130
 7594SOL    HW223884   7.627   1.595   7.865  2.8803  1.6536  0.5078
 7595SOL     OW23885   7.931   6.327   2.559  0.4901  0.1213  0.1563
 7595SOL    HW123886   8.023   6.333   2.586  0.0938 -0.5600  1.8104
 7595SOL    HW223887   7.933   6.289   2.471  1.7639 -0.4763  0.4300
 7596SOL     OW23888   2.164   9.083   2.723  0.1059 -0.7203  0.2647
 7596SOL    HW123889   2.102   9.011   2.734 -1.1288  0.3149  0.3362
 7596SOL    HW223890   2.126   9.155   2.774 -0.4127  0.9943 -2.3134
 7597SOL     OW23891   4.876   6.974   4.403  0.3148  0.0175 -0.5567
 7597SOL    HW123892   4.904   6.902   4.346  1.3079 -0.9863  1.1076
 7597SOL    HW223893   4.781   6.963   4.410  0.1284  0.3268 -2.1789
 7598SOL     OW23894   1.394   6.252   8.106  0.0209  0.3129 -0.3897
 7598SOL    HW123895   1.373   6.335   8.150 -1.5604  0.3722 -1.1843
 7598SOL    HW223896   1.351   6.185   8.160 -1.5378  0.3441 -1.5507
 7599SOL     OW23897   4.664   2.702   8.987 -0.0441  0.2736 -0.0748
 7599SOL    HW123898   4.750   2.685   9.024 -0.0142  1.3364  0.3834
 7599SOL    HW223899   4.624   2.616   8.978  0.5603 -0.1292  0.9341
 7600SOL     OW23900   2.727   3.715   1.025  0.7907 -0.2211 -0.0813
 7600SOL    HW123901   2.742   3.656   1.098  0.2674  0.9888  1.0589
 7600SOL    HW223902   2.684   3.662   0.958 -1.8534 -0.6347  1.8220
 7601SOL     OW23903   3.586   3.032   0.401  0.4666  0.2607  0.2316
 7601SOL    HW123904   3.585   3.037   0.496 -1.9451  0.0749  0.2577
 7601SOL    HW223905   3.671   2.993   0.380  0.2093 -1.6641  2.4321
 7602SOL     OW23906   4.686   7.798   1.661  0.1410  0.3548 -0.3275
 7602SOL    HW123907   4.684   7.709   1.696  0.4712 -0.1997 -1.6815
 7602SOL    HW223908   4.663   7.853   1.736 -0.5357 -0.8970  0.4196
 7603SOL     OW23909   4.814   2.378   8.222 -0.2262  0.6049  0.0994
 7603SOL    HW123910   4.891   2.415   8.264  0.6673 -0.6493 -0.3585
 7603SOL    HW223911   4.783   2.447   8.162  1.3868  0.6415 -0.7482
 7604SOL     OW23912   2.488   1.052   8.539 -0.3449  0.3028 -0.0210
 7604SOL    HW123913   2.406   1.010   8.565  0.2645 -0.9964 -0.1449
 7604SOL    HW223914   2.479   1.065   8.445  0.6328 -2.3783 -0.5791
 7605SOL     OW23915   4.480   3.039   8.630 -0.0293  0.0360  0.9765
 7605SOL    HW123916   4.511   3.127   8.611 -0.0181  0.3101  2.1803
 7605SOL    HW223917   4.388   3.050   8.656 -1.2639 -0.7599 -2.4776
 7606SOL     OW23918   3.588   7.967   1.988  0.4266 -0.2451 -0.1432
 7606SOL    HW123919   3.618   8.057   1.976  0.7061 -0.2813  0.2674
 7606SOL    HW223920   3.667   7.917   2.008  0.0039 -0.1580  1.9928
 7607SOL     OW23921   7.717   6.281   7.729 -0.4735  0.2461  0.0720
 7607SOL    HW123922   7.630   6.293   7.692 -1.1529  1.0857  1.8488
 7607SOL    HW223923   7.702   6.267   7.823  1.3359  1.3614  0.5768
 7608SOL     OW23924   3.465   9.120   0.146  0.4795  0.3000 -0.7129
 7608SOL    HW123925   3.485   9.204   0.189 -0.4680 -0.8940  2.3581
 7608SOL    HW223926   3.372   9.125   0.126 -0.0885 -0.7223  1.4334
 7609SOL     OW23927   8.558   0.158   0.447  0.1596 -0.0300  0.2268
 7609SOL    HW123928   8.556   0.106   0.527 -3.2335  2.0870  1.7151
 7609SOL    HW223929   8.502   0.110   0.386  1.0776 -0.5968 -0.1846
 7610SOL     OW23930   0.547   8.062   7.461  0.6653 -0.4405 -0.3127
 7610SOL    HW123931   0.607   8.121   7.416  1.7136 -1.4340 -0.2807
 7610SOL    HW223932   0.555   8.085   7.554 -0.0311  0.3053 -0.4198
 7611SOL     OW23933   3.515   4.918   1.396  0.0041  0.4725 -0.3972
 7611SOL    HW123934   3.567   4.848   1.356 -0.3310 -0.5735  0.9078
 7611SOL    HW223935   3.563   4.998   1.376  1.4380 -0.3286 -0.3156
 7612SOL     OW23936   7.008   3.072   5.662  0.3633 -0.1403  0.4392
 7612SOL    HW123937   6.914   3.051   5.664  0.6051 -1.2076  1.3272
 7612SOL    HW223938   7.035   3.051   5.573 -0.3607  0.7655 -0.0092
 7613SOL     OW23939   5.512   7.814   3.274 -0.1448 -0.0767  0.2040
 7613SOL    HW123940   5.453   7.748   3.310  0.4200  0.1775  1.6487
 7613SOL    HW223941   5.529   7.873   3.347  2.1080 -0.2829 -0.1003
 7614SOL     OW23942   8.799   3.552   3.651  0.7610 -0.2950 -0.2972
 7614SOL    HW123943   8.780   3.645   3.665  1.3409 -0.2326  0.1238
 7614SOL    HW223944   8.825   3.520   3.737 -0.8516 -1.2071 -0.1065
 7615SOL     OW23945   7.475   8.460   7.292  0.3328  0.0562 -0.0586
 7615SOL    HW123946   7.406   8.444   7.228  1.1804  0.9696 -1.2444
 7615SOL    HW223947   7.432   8.512   7.360 -0.0810  0.9325 -0.9632
 7616SOL     OW23948   7.568   5.669   3.823 -0.7594 -0.0696 -0.4654
 7616SOL    HW123949   7.600   5.655   3.912  1.8608 -0.2609 -1.3461
 7616SOL    HW223950   7.509   5.596   3.807  0.2935 -1.1658  0.4513
 7617SOL     OW23951   0.817   3.621   1.412  0.2441 -0.5505 -0.0718
 7617SOL    HW123952   0.753   3.595   1.478 -0.4059  0.1508 -0.4072
 7617SOL    HW223953   0.808   3.717   1.406 -1.2875 -0.7688 -2.7240
 7618SOL     OW23954   3.669   1.099   5.424  1.2053  0.5211  0.0189
 7618SOL    HW123955   3.752   1.136   5.454  1.0666  0.4328  0.5232
 7618SOL    HW223956   3.607   1.172   5.429  1.4347  0.8291 -1.2073
 7619SOL     OW23957   7.656   1.549   4.980 -0.7157 -0.1715  0.1086
 7619SOL    HW123958   7.693   1.462   4.995 -0.8179 -0.1510  0.5072
 7619SOL    HW223959   7.610   1.541   4.896  0.6363 -0.0379 -0.6634
 7620SOL     OW23960   2.284   1.952   3.945 -0.2074  0.7841  0.0407
 7620SOL    HW123961   2.262   2.020   3.881 -1.7664 -0.8093 -1.2091
 7620SOL    HW223962   2.210   1.954   4.007 -0.1865  0.3290  0.0789
 7621SOL     OW23963   3.486   6.988   0.225  0.3290 -0.5150 -0.1844
 7621SOL    HW123964   3.414   6.926   0.241 -0.3173  0.2218 -0.1705
 7621SOL    HW223965   3.454   7.071   0.260  0.6883  0.1177 -1.3274
 7622SOL     OW23966   5.899   8.271   0.228 -1.1654 -0.0042  0.5370
 7622SOL    HW123967   5.878   8.358   0.262 -0.2091 -0.0028  1.1762
 7622SOL    HW223968   5.923   8.286   0.137  0.1312  0.5992  0.9535
 7623SOL     OW23969   6.366   5.433   2.664  0.0971 -0.0176  0.4502
 7623SOL    HW123970   6.367   5.488   2.586  0.1404 -0.1843  0.3338
 7623SOL    HW223971   6.458   5.414   2.681 -0.0194 -2.2682 -1.0701
 7624SOL     OW23972   2.241   4.024   0.692  0.7481  0.3472  0.2600
 7624SOL    HW123973   2.277   3.937   0.675  0.8693  0.3917  0.2917
 7624SOL    HW223974   2.153   4.007   0.727  1.1370  0.2099  1.2036
 7625SOL     OW23975   3.916   5.964   4.940 -0.0429  0.5948  0.3327
 7625SOL    HW123976   3.934   5.872   4.923  0.3033  0.7975 -0.4716
 7625SOL    HW223977   3.828   5.979   4.906  0.9501  1.1854 -2.1577
 7626SOL     OW23978   4.033   6.528   3.558  0.2580  0.6257 -0.3364
 7626SOL    HW123979   4.011   6.604   3.613  0.4475  0.6026 -0.2292
 7626SOL    HW223980   3.948   6.493   3.531  0.1233 -0.2875  1.2020
 7627SOL     OW23981   0.814   6.785   9.085  0.4985  0.0531 -0.2224
 7627SOL    HW123982   0.826   6.720   9.154  0.6894 -0.0514 -0.3542
 7627SOL    HW223983   0.778   6.862   9.130 -0.6734 -0.4772 -0.2146
 7628SOL     OW23984   0.027   5.377   3.931 -0.5346  0.2443 -0.2099
 7628SOL    HW123985   0.064   5.312   3.871 -0.8581  0.5300 -0.7324
 7628SOL    HW223986   0.101   5.433   3.954 -0.6661  0.9788 -1.4648
 7629SOL     OW23987   0.919   7.983   8.782  0.8604  0.1807  0.0955
 7629SOL    HW123988   0.901   7.915   8.848 -0.3878  0.9747  0.6134
 7629SOL    HW223989   0.980   8.043   8.826  1.1031 -0.0202  0.0333
 7630SOL     OW23990   0.973   8.423   8.806  0.1760 -0.4694 -0.1339
 7630SOL    HW123991   1.038   8.398   8.871 -0.3752 -1.2371  0.1332
 7630SOL    HW223992   0.973   8.351   8.743 -0.0600 -0.2358 -0.4044
 7631SOL     OW23993   5.541   7.911   5.869 -0.2160 -0.1535 -0.2059
 7631SOL    HW123994   5.531   7.885   5.777  0.2391 -2.8607  0.4458
 7631SOL    HW223995   5.528   8.006   5.868  0.8475  0.0663 -3.2141
 7632SOL     OW23996   6.597   5.447   5.231 -0.3008  0.0703 -0.4535
 7632SOL    HW123997   6.571   5.539   5.230  0.7717  0.4275  1.1599
 7632SOL    HW223998   6.657   5.438   5.157 -0.9061  0.4903 -1.0070
 7633SOL     OW23999   0.180   8.697   5.829  0.4000 -0.4793 -0.5824
 7633SOL    HW124000   0.110   8.748   5.869  0.2378 -0.0085 -1.4360
 7633SOL    HW224001   0.205   8.634   5.896  0.6234  0.7326  0.5091
 7634SOL     OW24002   0.124   1.975   1.734  0.2612 -0.2926 -0.4423
 7634SOL    HW124003   0.088   1.896   1.775 -0.6314  0.6497  0.6527
 7634SOL    HW224004   0.168   2.021   1.805  0.3507  0.4362 -0.9617
 7635SOL     OW24005   1.642   0.326   3.012 -0.4990 -0.0027  0.3680
 7635SOL    HW124006   1.695   0.402   2.989 -0.1050 -0.5901 -0.7343
 7635SOL    HW224007   1.586   0.356   3.084  0.5575  0.9465  0.8232
 7636SOL     OW24008   3.221   8.915   0.652 -0.0063  0.1233 -0.1467
 7636SOL    HW124009   3.153   8.964   0.698 -1.0998 -1.7287  0.3057
 7636SOL    HW224010   3.301   8.967   0.665 -0.8971  1.2265  1.1853
 7637SOL     OW24011   4.930   1.944   4.005  0.0566 -0.2958 -0.9019
 7637SOL    HW124012   5.010   1.912   3.963 -0.6193 -0.8254 -1.8090
 7637SOL    HW224013   4.886   1.995   3.938  0.9055  2.3092  0.3868
 7638SOL     OW24014   9.124   5.897   0.364 -0.3988  0.3247 -0.0073
 7638SOL    HW124015   9.147   5.904   0.271 -0.2544  0.0263  0.0062
 7638SOL    HW224016   9.196   5.942   0.409  0.2129 -0.6745  0.0394
 7639SOL     OW24017   2.606   2.909   7.816 -0.7589  0.2248 -0.9435
 7639SOL    HW124018   2.600   2.846   7.888  0.1300  1.1569 -0.0209
 7639SOL    HW224019   2.684   2.882   7.768  0.0841  1.0686 -0.0796
 7640SOL     OW24020   5.537   6.450   2.482 -0.2589  0.3349 -0.4080
 7640SOL    HW124021   5.625   6.486   2.471  0.2210 -0.9007 -0.7931
 7640SOL    HW224022   5.551   6.356   2.495 -1.3608  0.4632  2.1946
 7641SOL     OW24023   5.476   5.076   7.441  0.3511 -0.4022  0.5448
 7641SOL    HW124024   5.481   5.018   7.517  0.5656 -2.2673 -0.8362
 7641SOL    HW224025   5.386   5.065   7.408  0.2761  0.3486  0.4826
 7642SOL     OW24026   1.981   4.352   7.409  0.0738  0.7216 -0.5444
 7642SOL    HW124027   1.966   4.267   7.367  1.2502  0.4492 -0.4713
 7642SOL    HW224028   1.914   4.357   7.477  0.1762 -0.3132 -0.3350
 7643SOL     OW24029   4.009   6.544   5.059  0.0055  0.2556 -0.3309
 7643SOL    HW124030   4.088   6.572   5.107  0.5301  0.1273 -1.1052
 7643SOL    HW224031   4.038   6.468   5.008 -1.1796 -1.2552  1.0941
 7644SOL     OW24032   7.075   1.228   4.786  0.0941 -0.7754  0.2579
 7644SOL    HW124033   7.129   1.196   4.859 -0.2233  1.4021  1.5497
 7644SOL    HW224034   7.015   1.156   4.768  4.4107 -4.2028 -2.5872
 7645SOL     OW24035   8.012   1.967   2.220 -0.2302  0.0804 -0.0819
 7645SOL    HW124036   8.077   1.965   2.149 -1.3206  1.1776 -1.1622
 7645SOL    HW224037   8.043   2.036   2.278  1.7256 -2.0962  1.6534
 7646SOL     OW24038   1.125   8.108   8.938 -0.6655  0.5703 -0.3967
 7646SOL    HW124039   1.196   8.045   8.929  0.0275  1.6330 -3.8014
 7646SOL    HW224040   1.163   8.181   8.986 -0.2460  0.0995 -0.0079
 7647SOL     OW24041   9.106   8.610   3.236  0.2079 -0.0503 -0.0536
 7647SOL    HW124042   9.145   8.627   3.322 -0.0777 -0.1874  0.1056
 7647SOL    HW224043   9.013   8.599   3.254  0.2357 -0.7477 -0.2861
 7648SOL     OW24044   4.443   4.646   4.738 -0.2541  0.0289 -0.0646
 7648SOL    HW124045   4.376   4.583   4.711  0.3940 -1.1020  0.8692
 7648SOL    HW224046   4.459   4.699   4.660 -1.3751 -0.4592 -0.6461
 7649SOL     OW24047   0.155   7.159   5.745  0.4500  0.1091 -0.1744
 7649SOL    HW124048   0.194   7.238   5.782  3.3622 -0.6061 -1.4707
 7649SOL    HW224049   0.090   7.192   5.683  0.1618  1.4024  0.7546
 7650SOL     OW24050   0.052   8.768   1.186  0.3844 -0.5671  0.3706
 7650SOL    HW124051   0.041   8.674   1.180 -1.5536 -0.3647  0.0945
 7650SOL    HW224052   0.107   8.791   1.111  0.7587 -1.4508  0.3690
 7651SOL     OW24053   2.435   2.294   8.559 -0.2835 -0.0068 -0.7219
 7651SOL    HW124054   2.526   2.279   8.534 -0.2376  0.5399 -0.9040
 7651SOL    HW224055   2.436   2.292   8.655  0.0102  0.4489 -0.7101
 7652SOL     OW24056   3.082   0.951   4.830 -0.2124  0.3770 -0.0590
 7652SOL    HW124057   3.052   0.865   4.799 -0.1298  0.0722  0.6875
 7652SOL    HW224058   3.002   0.997   4.855 -0.3829  1.0205 -1.6486
 7653SOL     OW24059   3.051   5.519   6.689  0.0109 -0.2441  0.1617
 7653SOL    HW124060   3.018   5.605   6.714  0.6638  0.6555 -1.8431
 7653SOL    HW224061   2.980   5.479   6.639  0.6116  0.2326 -1.1159
 7654SOL     OW24062   1.933   3.506   5.608  0.0046 -0.1296  0.4231
 7654SOL    HW124063   1.989   3.506   5.530  1.6124 -1.4484  1.5157
 7654SOL    HW224064   1.903   3.415   5.616 -2.4774  0.5411 -0.1817
 7655SOL     OW24065   1.933   4.439   1.442 -0.1833 -0.3891  0.0366
 7655SOL    HW124066   1.843   4.454   1.470  0.3820  1.5328  1.0950
 7655SOL    HW224067   1.927   4.423   1.348 -1.6701 -0.9615  0.2044
 7656SOL     OW24068   0.225   1.322   4.944 -0.1322  0.1174  0.0616
 7656SOL    HW124069   0.290   1.302   4.876  0.6453  1.4838  0.3566
 7656SOL    HW224070   0.197   1.237   4.977 -0.3981 -0.5807 -1.8350
 7657SOL     OW24071   7.621   5.820   0.422 -0.1427  0.7810  0.2804
 7657SOL    HW124072   7.534   5.853   0.398 -0.4792  0.3219  0.8465
 7657SOL    HW224073   7.669   5.898   0.450 -0.3045  1.0663 -0.2191
 7658SOL     OW24074   7.736   9.064   6.160  0.6250 -0.3228 -0.0900
 7658SOL    HW124075   7.708   9.085   6.071 -1.5218  0.5121  0.7097
 7658SOL    HW224076   7.755   9.149   6.200 -0.4944 -0.4921  0.8557
 7659SOL     OW24077   0.671   3.647   7.027 -0.2722 -0.2699 -0.3849
 7659SOL    HW124078   0.636   3.730   7.059 -0.5716  0.4238 -2.3895
 7659SOL    HW224079   0.605   3.582   7.053 -0.8382  0.3584 -0.2058
 7660SOL     OW24080   4.507   6.774   7.936 -0.2576 -0.2942  0.1222
 7660SOL    HW124081   4.509   6.832   7.860  1.1726  1.2285  1.2460
 7660SOL    HW224082   4.418   6.783   7.971 -1.4556 -2.2177 -2.1671
 7661SOL     OW24083   3.620   0.618   8.854  0.0471 -0.3196  0.0411
 7661SOL    HW124084   3.543   0.586   8.807  0.0026  0.2982 -0.3154
 7661SOL    HW224085   3.690   0.619   8.789 -0.3520  1.8952 -0.4352
 7662SOL     OW24086   3.311   7.003   6.282  0.3962 -0.2691  0.8024
 7662SOL    HW124087   3.293   7.092   6.252  1.9039 -0.0679  0.4492
 7662SOL    HW224088   3.254   6.992   6.358 -0.8496  0.4759  0.0179
 7663SOL     OW24089   4.964   3.489   1.510  0.0836  0.0523 -0.8401
 7663SOL    HW124090   4.957   3.581   1.534  0.8253 -0.0633 -0.1226
 7663SOL    HW224091   4.885   3.471   1.459  0.0774  1.1596 -1.2609
 7664SOL     OW24092   8.650   4.775   6.864  0.0748 -0.1039 -0.4582
 7664SOL    HW124093   8.640   4.704   6.928 -1.9623  0.9666  0.4818
 7664SOL    HW224094   8.718   4.831   6.901  0.0607 -0.3479 -0.0558
 7665SOL     OW24095   5.245   8.241   2.464  0.1931 -0.3914 -0.3746
 7665SOL    HW124096   5.301   8.232   2.541 -0.5405 -1.2079  0.0786
 7665SOL    HW224097   5.278   8.178   2.401  3.9461  3.4545 -2.8076
 7666SOL     OW24098   5.326   5.414   1.673  0.3067 -0.3964  0.4417
 7666SOL    HW124099   5.373   5.387   1.594  1.0002 -1.1119  1.0812
 7666SOL    HW224100   5.261   5.476   1.642  0.4829 -0.7645 -0.7135
 7667SOL     OW24101   5.212   3.611   5.473  0.0526  0.2873 -0.8768
 7667SOL    HW124102   5.207   3.555   5.396  1.0617 -1.4520  0.2611
 7667SOL    HW224103   5.145   3.578   5.532  1.6931 -0.8650  0.4562
 7668SOL     OW24104   0.879   3.751   8.204 -0.1720  0.8800 -0.3752
 7668SOL    HW124105   0.795   3.792   8.184 -0.0786  1.2107 -0.0887
 7668SOL    HW224106   0.913   3.801   8.278 -1.3218 -1.3527  1.8256
 7669SOL     OW24107   0.328   5.704   8.196 -0.0853  1.0757  0.5024
 7669SOL    HW124108   0.364   5.615   8.193  0.2800  1.2498 -0.3867
 7669SOL    HW224109   0.233   5.692   8.203 -0.5839  0.4951 -4.0727
 7670SOL     OW24110   6.965   0.340   6.888  0.0107  0.1390 -0.3293
 7670SOL    HW124111   6.990   0.261   6.839 -0.1584  0.1674 -0.4635
 7670SOL    HW224112   7.047   0.388   6.900  0.3432 -0.6883  0.9009
 7671SOL     OW24113   5.455   5.792   4.771  0.6117 -0.2091 -0.6214
 7671SOL    HW124114   5.434   5.877   4.811 -2.5377 -1.1895  0.0747
 7671SOL    HW224115   5.519   5.753   4.830 -0.4240  0.3388  0.9384
 7672SOL     OW24116   7.342   5.146   8.751  0.0542 -0.0324  0.2806
 7672SOL    HW124117   7.397   5.139   8.829  2.4484  0.2836 -1.2748
 7672SOL    HW224118   7.336   5.240   8.735 -0.9255 -0.0688  0.3792
 7673SOL     OW24119   1.096   8.815   8.551 -0.6591 -0.0913 -0.1628
 7673SOL    HW124120   1.181   8.773   8.555 -0.6665 -0.0681  0.3043
 7673SOL    HW224121   1.109   8.892   8.495 -0.2725  0.1438  0.2398
 7674SOL     OW24122   0.241   5.221   6.174 -0.4825 -0.0095  0.1849
 7674SOL    HW124123   0.324   5.228   6.222  0.3762 -1.3071 -1.0247
 7674SOL    HW224124   0.174   5.232   6.241  0.6553 -2.8249  1.9680
 7675SOL     OW24125   0.670   0.952   8.178 -0.4344 -0.0286  0.0942
 7675SOL    HW124126   0.639   0.879   8.232 -0.8145  0.5281  0.6389
 7675SOL    HW224127   0.594   0.977   8.125  0.1633 -1.1050 -1.3270
 7676SOL     OW24128   3.978   6.248   3.794  0.1498  0.0862 -0.0661
 7676SOL    HW124129   3.946   6.236   3.705  1.2809  1.2622 -0.6512
 7676SOL    HW224130   4.073   6.252   3.786  0.2831  0.1010  1.2153
 7677SOL     OW24131   7.592   5.317   3.099 -0.1282  0.1337  0.5372
 7677SOL    HW124132   7.631   5.240   3.140  0.6344 -0.5701 -1.4213
 7677SOL    HW224133   7.506   5.325   3.141  0.3662 -0.9043  1.8022
 7678SOL     OW24134   5.793   5.397   6.262  0.5855 -0.7761 -0.2922
 7678SOL    HW124135   5.819   5.306   6.273  1.3350 -0.3674  1.7073
 7678SOL    HW224136   5.875   5.446   6.266  0.2363 -0.0069 -1.7430
 7679SOL     OW24137   3.940   3.779   1.851 -0.5362  0.3432 -0.6988
 7679SOL    HW124138   3.918   3.719   1.779 -0.0992  1.4788 -1.8352
 7679SOL    HW224139   3.997   3.845   1.809  0.5755  0.4676  0.9259
 7680SOL     OW24140   0.547   7.672   5.415  0.3231  0.1217 -0.2429
 7680SOL    HW124141   0.521   7.659   5.323  1.9234  0.2097 -0.7385
 7680SOL    HW224142   0.625   7.727   5.410 -1.3086  2.7812  1.3537
 7681SOL     OW24143   4.135   7.169   5.099  0.5645  0.2657 -0.0558
 7681SOL    HW124144   4.140   7.194   5.191  0.3164 -0.0905  0.0582
 7681SOL    HW224145   4.209   7.109   5.086  1.7037  1.7221 -0.5542
 7682SOL     OW24146   7.931   6.151   4.558  0.1122 -0.0218  0.0208
 7682SOL    HW124147   7.903   6.060   4.553  0.3396 -0.0692 -0.3178
 7682SOL    HW224148   7.905   6.190   4.475 -0.0613  0.2464  0.1949
 7683SOL     OW24149   9.065   1.109   1.824  0.4760 -0.2279  0.0583
 7683SOL    HW124150   9.086   1.201   1.838  0.2611  0.1773 -1.9631
 7683SOL    HW224151   9.104   1.064   1.899  1.2650  1.4055  0.6882
 7684SOL     OW24152   6.873   4.791   1.184  0.3863 -0.7522 -0.1775
 7684SOL    HW124153   6.816   4.715   1.193 -1.8676  0.8493 -0.2449
 7684SOL    HW224154   6.863   4.839   1.266  2.8970 -1.1525  0.4613
 7685SOL     OW24155   1.524   8.880   7.166 -0.3093 -0.1955 -0.4456
 7685SOL    HW124156   1.577   8.954   7.198 -0.9428 -0.1870  0.6298
 7685SOL    HW224157   1.462   8.920   7.105 -0.1518  0.0446 -0.4499
 7686SOL     OW24158   8.572   6.853   2.185  1.0742 -0.1178 -0.4691
 7686SOL    HW124159   8.522   6.852   2.103  1.5764 -2.1799 -0.7905
 7686SOL    HW224160   8.663   6.843   2.158  1.4955  1.5147  0.2427
 7687SOL     OW24161   4.438   8.715   6.729  0.2399 -0.4062  0.0628
 7687SOL    HW124162   4.363   8.659   6.748  0.5252 -0.8765 -0.1693
 7687SOL    HW224163   4.406   8.777   6.663  0.9474 -2.8009 -2.7685
 7688SOL     OW24164   3.601   1.433   8.887  0.1234  0.1430  0.4685
 7688SOL    HW124165   3.653   1.492   8.832 -0.1411  1.5729  1.6696
 7688SOL    HW224166   3.663   1.399   8.952  0.5882 -2.0813 -1.0471
 7689SOL     OW24167   0.437   3.787   5.521 -0.4787 -0.4490 -0.0933
 7689SOL    HW124168   0.412   3.845   5.593 -1.0334  1.2711 -1.5699
 7689SOL    HW224169   0.532   3.788   5.521 -0.4599  1.2244 -0.5932
 7690SOL     OW24170   0.208   2.824   6.395  0.0980  0.5024  0.1641
 7690SOL    HW124171   0.175   2.745   6.437  0.4045  0.6837  0.7693
 7690SOL    HW224172   0.130   2.875   6.375 -0.2717 -0.8454 -2.1529
 7691SOL     OW24173   0.140   5.426   6.548  0.8674  0.3285  0.3669
 7691SOL    HW124174   0.075   5.408   6.616 -0.6867 -2.5504 -1.6712
 7691SOL    HW224175   0.210   5.362   6.563 -0.2270 -1.4283 -1.5051
 7692SOL     OW24176   6.656   1.236   7.045  0.0405 -0.2519  0.0770
 7692SOL    HW124177   6.632   1.144   7.039  0.3223 -0.2881 -0.6249
 7692SOL    HW224178   6.572   1.282   7.049 -0.1239 -0.4950 -0.4225
 7693SOL     OW24179   5.498   5.589   0.798 -0.4601 -0.4890  0.0629
 7693SOL    HW124180   5.583   5.632   0.805  0.1829 -1.4895 -1.2314
 7693SOL    HW224181   5.476   5.566   0.889  0.7479 -0.4230  0.3898
 7694SOL     OW24182   1.029   0.489   5.412  0.2747  0.7427 -0.1766
 7694SOL    HW124183   1.046   0.541   5.490  1.4587  0.5873 -0.3159
 7694SOL    HW224184   0.977   0.546   5.355 -0.2483  0.9956  0.5431
 7695SOL     OW24185   4.669   6.524   6.448  0.0557  0.3695 -0.1431
 7695SOL    HW124186   4.634   6.613   6.456 -0.3839  0.1233  0.9555
 7695SOL    HW224187   4.627   6.489   6.370 -1.2732  0.4952  0.4771
 7696SOL     OW24188   3.750   6.155   4.247  0.5010 -0.5200  0.1023
 7696SOL    HW124189   3.835   6.175   4.287 -0.7215  1.6425  1.8017
 7696SOL    HW224190   3.715   6.240   4.221 -1.4645 -1.2798  0.1091
 7697SOL     OW24191   8.293   6.976   2.593 -0.0600 -0.2517  0.0695
 7697SOL    HW124192   8.335   6.988   2.508  1.6072 -1.6798  0.6245
 7697SOL    HW224193   8.313   6.885   2.617  0.6133  0.4558  2.5343
 7698SOL     OW24194   0.843   3.834   3.721  0.4386 -0.1255  0.4940
 7698SOL    HW124195   0.908   3.787   3.669  0.2505  0.7390 -0.5567
 7698SOL    HW224196   0.769   3.774   3.728  1.1668 -0.9642  1.3578
 7699SOL     OW24197   1.713   5.161   5.432  0.3156 -0.2665  0.4412
 7699SOL    HW124198   1.738   5.119   5.514  2.6051  0.0207 -0.0401
 7699SOL    HW224199   1.736   5.254   5.445  1.7127 -0.3897 -0.8353
 7700SOL     OW24200   3.773   5.602   6.153 -0.2229 -0.1660 -0.3978
 7700SOL    HW124201   3.824   5.655   6.214  1.0184 -0.3462 -1.2313
 7700SOL    HW224202   3.805   5.629   6.066 -0.6355 -1.2086 -0.8862
 7701SOL     OW24203   1.623   7.004   8.133 -0.0452  0.1030 -0.1764
 7701SOL    HW124204   1.667   7.013   8.048  1.1394 -0.6855  0.3334
 7701SOL    HW224205   1.576   6.921   8.127  0.0670  0.0305 -0.0463
 7702SOL     OW24206   8.155   2.787   6.085  0.2792  0.1158 -0.2289
 7702SOL    HW124207   8.157   2.838   6.003  0.5760 -0.0611 -0.3311
 7702SOL    HW224208   8.161   2.853   6.154 -0.5780  0.3166 -0.3331
 7703SOL     OW24209   4.478   3.482   8.834  0.1458  0.2287  0.1522
 7703SOL    HW124210   4.560   3.489   8.785 -0.6724 -1.8790 -1.6993
 7703SOL    HW224211   4.451   3.573   8.848  0.8118  0.9804 -2.7251
 7704SOL     OW24212   2.108   4.098   8.265 -0.2540 -0.8868  0.1534
 7704SOL    HW124213   2.058   4.150   8.201  1.0703  0.1882 -0.0512
 7704SOL    HW224214   2.062   4.113   8.348  0.2977  0.9689  0.1707
 7705SOL     OW24215   5.533   1.608   5.763 -0.2969  0.2903 -0.2260
 7705SOL    HW124216   5.512   1.651   5.846  0.8872 -0.7736  0.6543
 7705SOL    HW224217   5.468   1.538   5.756 -0.2235  0.2034 -0.0483
 7706SOL     OW24218   8.012   3.598   1.244 -0.4146  0.1235 -0.4314
 7706SOL    HW124219   7.944   3.560   1.188 -0.4601 -0.0372 -0.2658
 7706SOL    HW224220   8.056   3.523   1.282 -0.7094  0.2394  0.1462
 7707SOL     OW24221   7.188   8.807   8.195  0.0555  0.3142  0.3366
 7707SOL    HW124222   7.268   8.825   8.145  1.3830  1.3584  2.6355
 7707SOL    HW224223   7.209   8.728   8.245 -0.0904  0.9419  1.4158
 7708SOL     OW24224   8.499   7.208   3.787 -0.1076  0.5017  0.0809
 7708SOL    HW124225   8.445   7.264   3.731 -0.0926  1.5063  1.0358
 7708SOL    HW224226   8.443   7.134   3.807 -1.0759  1.4146  0.8631
 7709SOL     OW24227   3.534   6.182   8.028 -0.4213 -0.3412 -0.3137
 7709SOL    HW124228   3.558   6.252   8.089 -0.2679  0.7534 -1.5950
 7709SOL    HW224229   3.555   6.101   8.075 -1.8257  0.3897  1.7407
 7710SOL     OW24230   3.734   0.010   0.037 -0.5010 -0.5024 -0.3265
 7710SOL    HW124231   3.645  -0.006   0.067 -0.5214  0.6103  0.2970
 7710SOL    HW224232   3.725   0.080  -0.028 -0.0485 -0.1067  0.0316
 7711SOL     OW24233   4.215   5.921   2.709  0.4085  0.1309  0.3632
 7711SOL    HW124234   4.231   5.972   2.630 -0.1334 -0.3323 -0.0580
 7711SOL    HW224235   4.299   5.919   2.754  0.5883  0.8729  0.0848
 7712SOL     OW24236   6.228   4.682   5.622  0.1648 -0.4027  0.1579
 7712SOL    HW124237   6.242   4.717   5.534 -0.1152 -1.3654 -0.2776
 7712SOL    HW224238   6.138   4.650   5.621 -0.2809  0.7671  1.2155
 7713SOL     OW24239   6.398   1.065   2.375 -0.1028  0.0695 -0.1739
 7713SOL    HW124240   6.465   0.998   2.357  0.2289 -0.0218  1.2802
 7713SOL    HW224241   6.402   1.124   2.300 -0.6259 -1.7068 -1.6684
 7714SOL     OW24242   2.058   2.904   7.545 -0.0950 -0.3925 -0.2832
 7714SOL    HW124243   2.099   2.819   7.533  1.5134  0.1468  1.0821
 7714SOL    HW224244   2.073   2.926   7.637  1.2112  2.1762 -0.9945
 7715SOL     OW24245   1.164   2.353   3.169 -0.0167  0.2769 -0.4102
 7715SOL    HW124246   1.244   2.382   3.214 -0.6771 -2.6093  3.1024
 7715SOL    HW224247   1.194   2.328   3.082  2.3606  1.8427 -0.1409
 7716SOL     OW24248   4.667   9.028   3.410 -0.8814  0.3470  0.1711
 7716SOL    HW124249   4.732   9.086   3.370 -0.0257  0.4850  1.6927
 7716SOL    HW224250   4.609   9.004   3.338 -0.5387  2.1157 -0.7498
 7717SOL     OW24251   8.058   0.839   3.664 -0.6113  0.7804  0.3370
 7717SOL    HW124252   8.027   0.813   3.577  0.3227  0.6874  0.0260
 7717SOL    HW224253   8.038   0.933   3.668 -0.7902  0.7562  0.0825
 7718SOL     OW24254   0.447   0.550   0.967 -0.9648  0.2662  0.3046
 7718SOL    HW124255   0.451   0.470   1.020  0.7468  1.1923  1.6830
 7718SOL    HW224256   0.354   0.563   0.949 -1.3309 -1.6803  0.5516
 7719SOL     OW24257   0.486   0.174   5.353  0.3077 -0.2311  0.8349
 7719SOL    HW124258   0.440   0.124   5.285  0.1371  0.9668  0.0327
 7719SOL    HW224259   0.481   0.265   5.323  3.4973 -0.0485  0.5261
 7720SOL     OW24260   3.598   0.426   3.673  0.7075 -0.2981  0.2507
 7720SOL    HW124261   3.646   0.444   3.754  1.3623 -0.4552 -0.0913
 7720SOL    HW224262   3.604   0.331   3.663  2.3317 -0.1107 -0.9820
 7721SOL     OW24263   2.220   6.288   6.813  0.0280 -0.2088  0.1500
 7721SOL    HW124264   2.168   6.208   6.808 -0.2994  0.0493 -1.1064
 7721SOL    HW224265   2.299   6.262   6.860 -1.2646 -0.5605  2.2400
 7722SOL     OW24266   4.637   1.396   3.630 -0.4452  0.5669 -0.0870
 7722SOL    HW124267   4.625   1.463   3.563  0.9945 -0.2904 -1.2632
 7722SOL    HW224268   4.561   1.339   3.621  0.1480 -0.0213 -1.5959
 7723SOL     OW24269   8.842   9.112   7.032 -0.0163  0.0812  0.3374
 7723SOL    HW124270   8.844   9.199   7.073  0.6692 -0.0172  0.5256
 7723SOL    HW224271   8.923   9.070   7.060  1.0371  0.3973 -1.9612
 7724SOL     OW24272   3.180   3.831   0.032 -0.7231 -0.4511 -0.0644
 7724SOL    HW124273   3.127   3.897  -0.012 -0.6138 -0.2409  0.1196
 7724SOL    HW224274   3.150   3.832   0.122  1.4607  1.6390  0.7388
 7725SOL     OW24275   9.095   6.140   1.873  0.3644  1.0986  0.1112
 7725SOL    HW124276   9.087   6.054   1.831  1.2250  1.3128 -0.5230
 7725SOL    HW224277   9.127   6.121   1.961 -2.2302  0.5784  1.0437
 7726SOL     OW24278   2.221   1.777   8.186  0.0362 -0.3544 -0.1868
 7726SOL    HW124279   2.135   1.794   8.225 -0.3012 -0.8878 -0.6701
 7726SOL    HW224280   2.219   1.684   8.164  0.8680 -0.4489  0.1000
 7727SOL     OW24281   8.465   1.168   3.901 -0.3573 -0.2666 -1.0092
 7727SOL    HW124282   8.487   1.261   3.901  1.3856 -0.6404 -0.2803
 7727SOL    HW224283   8.539   1.126   3.858 -0.2623 -1.4809  0.2802
 7728SOL     OW24284   8.350   8.435   6.124 -0.9581 -0.4811 -0.2356
 7728SOL    HW124285   8.334   8.527   6.104  0.0380  0.3042  2.1913
 7728SOL    HW224286   8.264   8.394   6.121 -1.5180  0.6808 -0.5966
 7729SOL     OW24287   4.561   5.507   9.091 -0.4931 -0.0802  0.8188
 7729SOL    HW124288   4.640   5.546   9.127 -0.1684 -0.5206  0.5861
 7729SOL    HW224289   4.590   5.427   9.049 -1.1666 -0.6502  1.4064
 7730SOL     OW24290   1.588   6.818   6.226  0.0670  0.4529  0.0241
 7730SOL    HW124291   1.614   6.909   6.231  0.3709  0.3352  0.7629
 7730SOL    HW224292   1.509   6.812   6.281  0.3447  0.1758  0.4009
 7731SOL     OW24293   3.217   2.229   0.417 -0.1043  0.0352 -0.1880
 7731SOL    HW124294   3.264   2.146   0.427 -1.8904 -1.1328 -1.0118
 7731SOL    HW224295   3.137   2.217   0.469  0.3686  1.9153  1.0794
 7732SOL     OW24296   8.612   1.870   1.380 -0.1710  0.1861 -0.0208
 7732SOL    HW124297   8.688   1.819   1.354  0.8425 -0.1960  3.2006
 7732SOL    HW224298   8.637   1.961   1.363 -0.0913 -0.0764 -1.4056
 7733SOL     OW24299   6.447   3.468   5.499 -0.1286 -0.1338 -0.6443
 7733SOL    HW124300   6.356   3.455   5.473 -0.7769  1.1822  0.8203
 7733SOL    HW224301   6.471   3.387   5.544 -1.3174  0.3326  0.9022
 7734SOL     OW24302   2.956   2.285   6.019 -0.1787  0.3833 -0.1698
 7734SOL    HW124303   2.914   2.371   6.009 -0.5080  0.0507 -1.9178
 7734SOL    HW224304   2.995   2.268   5.933  2.4526  0.0851  0.9965
 7735SOL     OW24305   0.235   3.371   7.685  0.1794 -0.3613  0.0453
 7735SOL    HW124306   0.277   3.290   7.655  0.2716  0.5155 -2.4276
 7735SOL    HW224307   0.145   3.364   7.654  0.0300  0.2429  0.3256
 7736SOL     OW24308   8.438   0.439   1.860  0.0016  0.0821  0.5391
 7736SOL    HW124309   8.429   0.350   1.893  0.0651 -0.4161 -0.7336
 7736SOL    HW224310   8.362   0.453   1.804  0.8329  0.2028 -0.6089
 7737SOL     OW24311   9.058   4.868   2.914  0.0644 -0.3523  0.7759
 7737SOL    HW124312   8.970   4.832   2.901  0.3164 -0.7142  0.0290
 7737SOL    HW224313   9.115   4.814   2.860  0.6174  0.4668  0.5137
 7738SOL     OW24314   4.186   5.573   1.815  0.0909  0.2189 -0.2493
 7738SOL    HW124315   4.205   5.490   1.770  1.5211  0.8010 -0.7927
 7738SOL    HW224316   4.252   5.577   1.884 -1.4816 -0.2032  1.3359
 7739SOL     OW24317   4.391   4.890   1.517  0.4141  0.6467 -0.0379
 7739SOL    HW124318   4.398   4.900   1.423  0.0885  1.1813 -0.0121
 7739SOL    HW224319   4.314   4.942   1.541 -1.3921 -1.9586  0.1444
 7740SOL     OW24320   3.892   6.689   6.054  0.1061 -0.0722 -0.3303
 7740SOL    HW124321   3.946   6.719   5.981  0.3232  0.8147  0.1712
 7740SOL    HW224322   3.933   6.608   6.084  1.1721  0.5880  0.0474
 7741SOL     OW24323   1.312   3.524   5.659  0.5806  0.0249  0.3033
 7741SOL    HW124324   1.359   3.452   5.617 -0.1088 -1.0681  1.3354
 7741SOL    HW224325   1.242   3.481   5.708 -2.3162  1.6384 -2.0906
 7742SOL     OW24326   4.188   0.721   4.912  0.2746 -0.6302  0.0612
 7742SOL    HW124327   4.278   0.716   4.945  0.4279 -1.0495 -0.4032
 7742SOL    HW224328   4.195   0.697   4.820 -0.3436 -0.8803  0.0748
 7743SOL     OW24329   7.476   8.834   1.864  0.4592 -0.5987 -0.3381
 7743SOL    HW124330   7.560   8.814   1.822  0.4165  2.1921 -2.0426
 7743SOL    HW224331   7.411   8.819   1.796  0.0875  1.3879 -0.4761
 7744SOL     OW24332   5.355   5.720   7.613 -0.2166 -0.4323 -0.1147
 7744SOL    HW124333   5.411   5.715   7.536 -2.2161 -1.9902 -1.5968
 7744SOL    HW224334   5.320   5.809   7.611  1.0078  0.0650 -0.0287
 7745SOL     OW24335   1.374   5.560   3.747  0.0978 -0.2896  0.0658
 7745SOL    HW124336   1.369   5.654   3.726  0.7250 -0.6529 -1.8733
 7745SOL    HW224337   1.409   5.557   3.836  2.2364  1.2912 -0.6555
 7746SOL     OW24338   0.220   2.192   4.233  0.9403 -0.4070 -0.3532
 7746SOL    HW124339   0.257   2.254   4.170 -1.2326  0.9595 -0.3769
 7746SOL    HW224340   0.127   2.216   4.239  0.0681 -3.4052 -0.0503
 7747SOL     OW24341   0.324   8.738   5.597 -0.0435  0.0576 -0.3247
 7747SOL    HW124342   0.274   8.704   5.671  0.7146  0.9499  0.6321
 7747SOL    HW224343   0.325   8.832   5.610  1.1923  0.1263 -0.7525
 7748SOL     OW24344   6.343   3.781   2.686  0.2257  0.0405  0.5444
 7748SOL    HW124345   6.298   3.825   2.614 -0.6429 -1.8287 -0.1276
 7748SOL    HW224346   6.273   3.754   2.746  0.9024  1.2216  1.9263
 7749SOL     OW24347   7.033   7.067   4.253 -0.2076 -0.1918 -0.0248
 7749SOL    HW124348   7.010   7.141   4.309  1.2341  1.7718 -1.8491
 7749SOL    HW224349   7.128   7.056   4.266 -0.4512 -2.0497  0.5151
 7750SOL     OW24350   4.909   6.828   1.275 -0.3753 -0.9970 -0.7381
 7750SOL    HW124351   4.934   6.841   1.183 -0.3237  0.6741 -0.5251
 7750SOL    HW224352   4.971   6.763   1.307  2.2425  1.2128 -0.8860
 7751SOL     OW24353   5.324   4.292   0.345  0.7419 -0.4123 -0.6944
 7751SOL    HW124354   5.370   4.344   0.279 -1.2978  3.1429  0.4154
 7751SOL    HW224355   5.343   4.336   0.428 -1.8939 -0.8144  0.2188
 7752SOL     OW24356   0.657   2.449   8.619  0.0486  0.2417  0.5691
 7752SOL    HW124357   0.677   2.490   8.534 -1.1825 -1.6517 -0.7222
 7752SOL    HW224358   0.729   2.387   8.632  0.6029  1.0184  1.2857
 7753SOL     OW24359   5.306   7.102   8.334  0.0731  0.5704  0.2328
 7753SOL    HW124360   5.281   7.038   8.267  1.9991 -0.1700  0.1392
 7753SOL    HW224361   5.335   7.049   8.408 -0.2018  1.3686  0.9226
 7754SOL     OW24362   0.164   2.854   1.435  0.1674  0.2456 -0.8553
 7754SOL    HW124363   0.082   2.886   1.398 -0.4002 -1.4065 -1.1326
 7754SOL    HW224364   0.138   2.809   1.515  0.8931  0.3183 -0.5742
 7755SOL     OW24365   0.244   3.783   7.054 -0.4070  0.2438 -0.3921
 7755SOL    HW124366   0.292   3.848   7.003 -0.3220 -0.0330 -0.6680
 7755SOL    HW224367   0.208   3.832   7.127 -2.2116  1.0620 -1.7559
 7756SOL     OW24368   6.648   5.299   5.996  0.5826  0.6042 -0.4488
 7756SOL    HW124369   6.705   5.242   5.943  0.6894  0.3232 -0.0373
 7756SOL    HW224370   6.683   5.291   6.085 -0.1654  0.3538 -0.1725
 7757SOL     OW24371   6.835   8.860   5.144 -0.2181 -0.2332  0.3930
 7757SOL    HW124372   6.831   8.953   5.119 -0.1150 -0.0992  0.8594
 7757SOL    HW224373   6.879   8.861   5.229  0.1107 -0.7453  0.2298
 7758SOL     OW24374   5.385   5.086   4.491 -0.2259  0.3090 -0.2540
 7758SOL    HW124375   5.328   5.106   4.417 -0.8872  0.0837  0.1925
 7758SOL    HW224376   5.353   5.141   4.562 -0.6549 -0.6890  0.3472
 7759SOL     OW24377   4.027   6.512   7.914  0.4505 -0.0497  0.2417
 7759SOL    HW124378   4.053   6.475   7.999  0.3347  2.0034  1.2358
 7759SOL    HW224379   3.959   6.576   7.936  1.2113  1.3393 -1.2519
 7760SOL     OW24380   7.925   1.226   0.595 -0.2451 -0.2355 -0.2074
 7760SOL    HW124381   7.898   1.183   0.514 -0.2637  0.0888 -0.3735
 7760SOL    HW224382   8.009   1.186   0.616 -0.4686 -0.6650 -0.1255
 7761SOL     OW24383   8.158   6.473   2.886 -0.4245 -0.4694 -0.1837
 7761SOL    HW124384   8.091   6.409   2.911 -0.4201 -1.1698 -1.8571
 7761SOL    HW224385   8.191   6.505   2.970 -3.3739  0.5175  0.7415
 7762SOL     OW24386   1.588   7.854   2.492 -0.2516 -0.5543 -0.2414
 7762SOL    HW124387   1.521   7.864   2.559  1.2143 -0.9394  1.3376
 7762SOL    HW224388   1.608   7.943   2.464  0.3439 -0.2498  1.1034
 7763SOL     OW24389   4.761   7.374   1.885  0.3062 -0.0086  0.5025
 7763SOL    HW124390   4.725   7.361   1.973 -0.2071 -0.1086  0.2805
 7763SOL    HW224391   4.817   7.298   1.871  0.2790 -0.0632  0.6865
 7764SOL     OW24392   6.723   3.070   0.569  0.3772  0.8776 -0.1422
 7764SOL    HW124393   6.719   3.012   0.645 -0.6095 -1.9001 -2.1585
 7764SOL    HW224394   6.724   3.158   0.606  2.4626 -0.3462  3.1370
 7765SOL     OW24395   8.880   2.493   1.130  0.3219  0.0007  0.5265
 7765SOL    HW124396   8.966   2.463   1.160  1.9151  1.9157 -1.6986
 7765SOL    HW224397   8.886   2.490   1.034 -2.6205 -1.0417  0.2710
 7766SOL     OW24398   5.743   0.731   6.646  0.6658  0.6110  0.2222
 7766SOL    HW124399   5.837   0.738   6.632  0.7620  1.0828  1.0900
 7766SOL    HW224400   5.720   0.806   6.700 -0.6154  1.8888 -1.9236
 7767SOL     OW24401   2.521   0.563   6.789  0.6924  0.1875 -0.0006
 7767SOL    HW124402   2.491   0.492   6.732  0.4791  1.0556 -0.9936
 7767SOL    HW224403   2.441   0.609   6.814  0.7115 -0.5181  1.5133
 7768SOL     OW24404   7.365   5.134   5.936  0.2207 -0.1011  0.0654
 7768SOL    HW124405   7.306   5.115   5.863  0.5125 -0.3102 -0.1173
 7768SOL    HW224406   7.453   5.120   5.900  0.3560 -0.5313  0.5504
 7769SOL     OW24407   0.366   6.895   6.131  0.0456 -0.2636 -0.5351
 7769SOL    HW124408   0.420   6.969   6.102  1.6532 -0.7423  1.0404
 7769SOL    HW224409   0.280   6.934   6.148  0.1082  0.7099 -2.2196
 7770SOL     OW24410   3.599   3.789   6.594 -0.2328  0.3652  0.1325
 7770SOL    HW124411   3.561   3.707   6.561  0.2794 -0.0788  0.6457
 7770SOL    HW224412   3.558   3.857   6.539 -2.0515 -0.0572  0.8908
 7771SOL     OW24413   4.350   3.880   3.368 -0.1046  0.3201 -0.0341
 7771SOL    HW124414   4.339   3.809   3.304  0.3514 -0.4903  0.7505
 7771SOL    HW224415   4.288   3.947   3.341  0.5394  0.2849 -1.7102
 7772SOL     OW24416   6.184   4.069   3.422 -0.7390 -0.0585 -0.6900
 7772SOL    HW124417   6.261   4.126   3.429 -1.4121  0.6609  1.4670
 7772SOL    HW224418   6.213   3.985   3.458 -0.1311 -0.7759 -2.6880
 7773SOL     OW24419   2.451   0.266   5.053  0.7314 -0.4995  0.0973
 7773SOL    HW124420   2.518   0.333   5.039 -1.3341  1.6334 -0.1430
 7773SOL    HW224421   2.469   0.233   5.141  1.2794  1.0269  0.5838
 7774SOL     OW24422   7.937   8.107   6.601 -0.0847 -0.6249 -0.4262
 7774SOL    HW124423   7.874   8.102   6.673 -1.1264  1.7576 -1.0837
 7774SOL    HW224424   8.022   8.116   6.645 -0.6332  0.1677  0.5207
 7775SOL     OW24425   0.669   1.836   3.482 -0.1153  0.4647 -0.5971
 7775SOL    HW124426   0.670   1.874   3.394  1.5999  2.5973  0.2736
 7775SOL    HW224427   0.603   1.887   3.529 -0.2852  0.0109 -0.3340
 7776SOL     OW24428   6.066   0.027   8.041 -0.0497  0.2695  0.0734
 7776SOL    HW124429   6.122   0.052   8.115 -0.1770  2.3129 -0.4659
 7776SOL    HW224430   5.979   0.060   8.066 -0.3868 -0.2634 -0.3901
 7777SOL     OW24431   1.031   7.131   0.571 -0.1071  1.1892  0.1883
 7777SOL    HW124432   1.033   7.043   0.610  1.8658  0.3874 -1.5450
 7777SOL    HW224433   0.943   7.138   0.534 -0.4594  0.1450  0.7611
 7778SOL     OW24434   4.947   8.767   3.833 -0.2297  0.3865 -0.0689
 7778SOL    HW124435   4.895   8.804   3.762 -1.1149 -0.5170  0.0729
 7778SOL    HW224436   5.018   8.829   3.847 -0.8590  1.2864 -0.7789
 7779SOL     OW24437   7.440   1.341   8.416  0.0412 -0.0936 -0.5986
 7779SOL    HW124438   7.528   1.346   8.453  0.3728 -0.1676 -1.3570
 7779SOL    HW224439   7.454   1.322   8.324 -0.7801 -0.3280 -0.6841
 7780SOL     OW24440   3.648   5.454   2.919 -0.0463  1.1197  0.1218
 7780SOL    HW124441   3.669   5.506   2.842  1.1147  0.1461 -0.2562
 7780SOL    HW224442   3.712   5.383   2.918 -1.2605 -0.0351  0.8904
 7781SOL     OW24443   4.279   4.589   1.402  0.9519  0.0071  0.3626
 7781SOL    HW124444   4.208   4.532   1.433 -0.4223  1.8944  0.8703
 7781SOL    HW224445   4.352   4.570   1.460  0.7727 -1.6962  0.0867
 7782SOL     OW24446   5.756   5.229   3.879  0.3174  0.1741 -0.1794
 7782SOL    HW124447   5.661   5.220   3.887  0.5225 -0.1060  3.3941
 7782SOL    HW224448   5.772   5.323   3.878  0.0440  0.2202 -0.6979
 7783SOL     OW24449   0.734   5.338   7.717 -0.0658 -0.5688  0.2252
 7783SOL    HW124450   0.720   5.389   7.797  0.8680 -0.2098  0.1701
 7783SOL    HW224451   0.760   5.251   7.749  2.3332  0.1160  0.3840
 7784SOL     OW24452   1.760   7.808   6.694  0.0459 -0.2798 -0.3752
 7784SOL    HW124453   1.791   7.885   6.647 -0.8213 -1.5547 -3.2915
 7784SOL    HW224454   1.675   7.789   6.656 -0.2514 -2.0568  1.0266
 7785SOL     OW24455   1.393   4.976   9.067 -0.3695 -0.1155  0.3126
 7785SOL    HW124456   1.440   4.895   9.050 -1.2555 -0.3850 -1.0504
 7785SOL    HW224457   1.304   4.949   9.088 -1.0768  0.4830 -1.6089
 7786SOL     OW24458   7.212   5.061   1.105  0.2623  0.0624 -0.2418
 7786SOL    HW124459   7.224   5.144   1.151 -0.5785 -1.0526  2.1546
 7786SOL    HW224460   7.297   5.017   1.112  0.0446 -0.2452  0.6147
 7787SOL     OW24461   8.973   1.062   4.467  0.4494  0.0022  0.7084
 7787SOL    HW124462   8.948   0.970   4.475 -0.6587  0.1834 -0.3499
 7787SOL    HW224463   8.924   1.094   4.391 -1.2326  2.1624  2.5614
 7788SOL     OW24464   3.494   3.989   8.617 -0.0950 -0.7083  0.3144
 7788SOL    HW124465   3.567   3.977   8.557 -1.4831 -2.3484 -1.1705
 7788SOL    HW224466   3.512   3.930   8.690  1.3577  0.9274  1.3412
 7789SOL     OW24467   0.597   5.840   7.031 -0.6621 -0.0475 -0.3712
 7789SOL    HW124468   0.643   5.886   6.961  1.1210 -1.8958 -0.4938
 7789SOL    HW224469   0.505   5.865   7.019 -0.0104  2.1059 -1.4155
 7790SOL     OW24470   5.139   0.544   0.984 -0.4209 -0.1502  0.0874
 7790SOL    HW124471   5.142   0.467   1.041 -1.1481 -0.5109 -0.3467
 7790SOL    HW224472   5.197   0.607   1.026  0.2486 -0.9574  0.4140
 7791SOL     OW24473   5.291   3.582   0.107  0.3868  0.4393  0.1530
 7791SOL    HW124474   5.354   3.579   0.179  0.6857 -0.2930 -0.1324
 7791SOL    HW224475   5.345   3.594   0.029  0.2493 -0.9797 -0.1823
 7792SOL     OW24476   0.428   2.886   2.820  0.6238  0.0784 -0.3356
 7792SOL    HW124477   0.388   2.899   2.734 -0.7476 -2.8407 -0.2525
 7792SOL    HW224478   0.355   2.873   2.880  1.5783  1.3649  1.2023
 7793SOL     OW24479   4.917   1.015   2.583 -0.8352 -0.1546  0.2087
 7793SOL    HW124480   4.874   1.090   2.626 -2.6717 -1.9111  1.6158
 7793SOL    HW224481   4.987   1.055   2.532 -1.8635  2.5589  0.7089
 7794SOL     OW24482   5.360   1.629   2.308 -0.0908 -0.5540  0.1547
 7794SOL    HW124483   5.337   1.541   2.278  0.5080 -1.4412  2.1086
 7794SOL    HW224484   5.425   1.615   2.377 -2.2963  1.1485  2.8135
 7795SOL     OW24485   5.141   2.990   3.734 -0.9400  0.3154  0.0613
 7795SOL    HW124486   5.198   2.974   3.659  1.1993  1.5532  1.3104
 7795SOL    HW224487   5.102   2.905   3.754 -0.9954 -0.1814 -1.9530
 7796SOL     OW24488   2.868   0.489   1.050  0.4349  0.6023  0.1764
 7796SOL    HW124489   2.909   0.564   1.007 -0.0691  0.8870  0.1888
 7796SOL    HW224490   2.780   0.485   1.013  0.9728 -0.9716 -1.0558
 7797SOL     OW24491   2.229   2.787   7.240 -0.1334 -0.0397 -0.1779
 7797SOL    HW124492   2.307   2.732   7.232 -0.2761 -0.2714  0.0192
 7797SOL    HW224493   2.181   2.750   7.314 -0.1883  0.4013  0.0068
 7798SOL     OW24494   7.910   5.694   8.544 -0.1147 -0.0913  0.0366
 7798SOL    HW124495   7.908   5.644   8.626 -0.0834 -1.2802 -0.6573
 7798SOL    HW224496   7.834   5.751   8.548 -0.5415 -0.6910  0.5681
 7799SOL     OW24497   7.152   4.905   1.471  0.2252  0.2353  0.1108
 7799SOL    HW124498   7.225   4.951   1.428  0.2830 -1.7185 -2.0523
 7799SOL    HW224499   7.155   4.816   1.436 -2.6136 -0.2004  0.7246
 7800SOL     OW24500   2.120   4.002   5.276 -0.9411  0.4362 -0.1328
 7800SOL    HW124501   2.205   3.989   5.319 -0.1697  2.2961 -0.9673
 7800SOL    HW224502   2.110   3.924   5.220  0.5838  0.5050 -0.5634
 7801SOL     OW24503   3.054   9.121   8.136  0.5404 -0.3689 -0.0454
 7801SOL    HW124504   2.997   9.157   8.068  0.1159 -1.7141 -0.4318
 7801SOL    HW224505   3.093   9.044   8.096 -0.5811 -1.8397  1.5508
 7802SOL     OW24506   3.073   3.872   0.286 -0.0914 -0.5058  0.3800
 7802SOL    HW124507   3.066   3.965   0.261  0.2411 -1.2445 -2.9118
 7802SOL    HW224508   3.133   3.872   0.360  0.9715  1.8179 -0.3869
 7803SOL     OW24509   1.560   1.246   2.763 -0.1883 -0.1297  0.0568
 7803SOL    HW124510   1.539   1.175   2.823 -0.5262 -0.4048 -0.3793
 7803SOL    HW224511   1.495   1.239   2.693  0.4972 -0.1255 -0.5998
 7804SOL     OW24512   5.423   7.922   4.336  0.7200  0.3501 -0.2663
 7804SOL    HW124513   5.427   8.002   4.388 -2.3144  0.6077 -0.2765
 7804SOL    HW224514   5.351   7.937   4.274 -0.3693 -2.5829  0.1295
 7805SOL     OW24515   3.017   3.348   2.553  0.4202 -0.4244  0.0159
 7805SOL    HW124516   3.031   3.331   2.460 -0.0698  0.6445 -0.2763
 7805SOL    HW224517   3.098   3.319   2.596  0.6065 -1.0226 -0.7221
 7806SOL     OW24518   1.413   5.660   2.074  0.1392  0.9466  0.1218
 7806SOL    HW124519   1.508   5.651   2.087  0.1587  1.6276  0.4812
 7806SOL    HW224520   1.378   5.574   2.095  0.6000  0.9016  0.7219
 7807SOL     OW24521   6.947   4.132   3.507  0.8388 -0.5718 -0.2948
 7807SOL    HW124522   6.893   4.129   3.428  1.3029  0.7443 -0.6889
 7807SOL    HW224523   6.937   4.045   3.546 -1.0459 -0.5859 -0.6853
 7808SOL     OW24524   7.785   7.590   5.794  0.6014  0.0725  0.1719
 7808SOL    HW124525   7.752   7.658   5.853  0.5526  0.5665 -0.4215
 7808SOL    HW224526   7.855   7.632   5.745  0.8059 -0.4069  0.0425
 7809SOL     OW24527   9.072   2.281   1.701 -0.2831  0.7058 -0.0969
 7809SOL    HW124528   8.978   2.272   1.712 -0.0965  0.3332  1.4861
 7809SOL    HW224529   9.082   2.358   1.644 -1.5199  2.0141  1.3483
 7810SOL     OW24530   4.613   8.870   1.972  0.1589 -0.2599 -0.2515
 7810SOL    HW124531   4.617   8.935   1.902 -0.6769  0.6301  0.5013
 7810SOL    HW224532   4.586   8.919   2.049 -0.1005 -1.4355  0.4330
 7811SOL     OW24533   7.385   1.845   7.642 -0.0256  0.2913 -0.0607
 7811SOL    HW124534   7.345   1.927   7.614 -0.0485  0.6667  1.0377
 7811SOL    HW224535   7.345   1.779   7.586 -0.9557  0.8669 -0.1013
 7812SOL     OW24536   4.048   3.080   1.440 -0.1386  0.2960  0.6390
 7812SOL    HW124537   4.065   3.170   1.413  1.5404 -0.0444  0.4113
 7812SOL    HW224538   4.066   3.028   1.361 -2.1152 -0.1806  0.4608
 7813SOL     OW24539   3.167   6.267   5.889 -0.0556  0.4275  0.2590
 7813SOL    HW124540   3.075   6.254   5.866  0.3814 -1.0015 -0.8160
 7813SOL    HW224541   3.172   6.245   5.982 -0.7173  0.0269  0.2058
 7814SOL     OW24542   6.850   8.526   2.848  0.2090  0.4809  0.3030
 7814SOL    HW124543   6.911   8.510   2.776 -1.4136 -1.8704 -0.6625
 7814SOL    HW224544   6.893   8.593   2.901  3.0483 -0.1934 -0.9644
 7815SOL     OW24545   7.060   5.243   2.108  0.3322 -0.5033 -0.3558
 7815SOL    HW124546   7.074   5.176   2.175 -1.9038  1.3111  2.1639
 7815SOL    HW224547   6.973   5.223   2.072 -1.1982  1.8369  1.7044
 7816SOL     OW24548   6.311   1.613   5.475  0.0596  0.0509  0.9254
 7816SOL    HW124549   6.339   1.533   5.518  0.0147  0.4379  1.6842
 7816SOL    HW224550   6.229   1.589   5.431  0.4759 -0.5290  0.4515
 7817SOL     OW24551   5.763   6.504   0.765 -0.7148 -0.3193 -0.0160
 7817SOL    HW124552   5.745   6.596   0.748 -0.4882 -0.3006 -0.1542
 7817SOL    HW224553   5.847   6.504   0.811 -2.1740 -0.2154  2.8459
 7818SOL     OW24554   1.708   0.430   0.667  0.4605  0.2350 -0.2745
 7818SOL    HW124555   1.710   0.335   0.665  4.5139  0.1562 -1.2116
 7818SOL    HW224556   1.717   0.453   0.759 -1.1361 -0.1968  0.0204
 7819SOL     OW24557   1.562   3.463   7.046 -0.2322 -0.2555 -0.5502
 7819SOL    HW124558   1.640   3.434   6.998  0.2049 -0.7912  0.4486
 7819SOL    HW224559   1.488   3.428   6.996  0.0520  1.6971 -2.4784
 7820SOL     OW24560   1.923   3.633   1.165  0.2946 -0.3847 -0.4575
 7820SOL    HW124561   1.994   3.619   1.228  0.5861 -0.2267 -0.7449
 7820SOL    HW224562   1.924   3.728   1.149  0.1485 -0.4087 -0.6100
 7821SOL     OW24563   2.516   7.742   4.446  0.2603  0.4533 -0.0216
 7821SOL    HW124564   2.450   7.802   4.412  0.7478  2.3818  2.2076
 7821SOL    HW224565   2.535   7.774   4.534  2.1156 -1.7411  0.4655
 7822SOL     OW24566   4.586   1.289   8.926 -0.3128  0.4314  0.0649
 7822SOL    HW124567   4.669   1.254   8.959  0.0040 -0.1284 -1.2344
 7822SOL    HW224568   4.537   1.211   8.899 -1.3890  0.7389  1.0389
 7823SOL     OW24569   1.833   7.040   8.298 -0.5256  0.4768  0.0792
 7823SOL    HW124570   1.764   7.026   8.233  0.1392 -1.6171 -0.2556
 7823SOL    HW224571   1.789   7.086   8.370 -1.4393  2.1899 -1.4890
 7824SOL     OW24572   0.501   2.778   1.560 -0.3350  0.0550  0.2498
 7824SOL    HW124573   0.427   2.753   1.616 -0.5566 -1.9032 -0.8190
 7824SOL    HW224574   0.496   2.718   1.486  1.2592  1.1089 -0.7762
 7825SOL     OW24575   5.058   4.674   2.561 -0.3063  0.6194  0.5015
 7825SOL    HW124576   4.986   4.707   2.508 -0.3038 -1.1874 -0.7076
 7825SOL    HW224577   5.054   4.579   2.551  1.5616  0.4117  1.3106
 7826SOL     OW24578   6.594   5.403   7.834 -0.4368 -0.1158  0.3934
 7826SOL    HW124579   6.647   5.379   7.758 -2.5919 -1.7472 -0.6806
 7826SOL    HW224580   6.526   5.460   7.798 -0.4185  0.6120  1.4647
 7827SOL     OW24581   1.537   6.510   4.701 -0.5213  0.8927  0.2116
 7827SOL    HW124582   1.458   6.562   4.688 -0.5086  0.8908  0.1273
 7827SOL    HW224583   1.541   6.495   4.795  0.3099  2.3759  0.4457
 7828SOL     OW24584   4.078   6.332   8.157  0.6178 -0.3547  0.3400
 7828SOL    HW124585   4.116   6.399   8.212 -1.1412  0.2454  0.8929
 7828SOL    HW224586   4.037   6.270   8.218 -0.0370 -0.4941 -0.2168
 7829SOL     OW24587   5.381   6.725   3.137 -0.0736 -0.3682  0.4209
 7829SOL    HW124588   5.403   6.787   3.206  2.2269 -2.1371  1.4103
 7829SOL    HW224589   5.285   6.721   3.138 -0.2023 -1.4929  4.7116
 7830SOL     OW24590   3.451   8.870   2.730 -0.4935  0.3133  0.0757
 7830SOL    HW124591   3.442   8.924   2.809 -1.3581 -0.0364  0.2323
 7830SOL    HW224592   3.365   8.828   2.720  0.5225 -2.0352  0.6740
 7831SOL     OW24593   4.661   4.382   5.243  0.0766  0.0194 -0.0338
 7831SOL    HW124594   4.628   4.431   5.168  1.6309  1.9788  0.4768
 7831SOL    HW224595   4.634   4.433   5.319  3.9459  1.7326  0.4214
 7832SOL     OW24596   2.869   1.980   0.992  0.4524 -1.0436  0.2084
 7832SOL    HW124597   2.879   1.895   0.949  0.5471  0.7328 -3.6945
 7832SOL    HW224598   2.958   2.017   0.994  0.2785 -0.6355  1.0599
 7833SOL     OW24599   6.358   0.022   3.717  0.5078  0.0159 -0.2563
 7833SOL    HW124600   6.344   0.112   3.748 -1.3837 -0.5082  0.5696
 7833SOL    HW224601   6.304   0.016   3.638 -0.5026 -0.7784  0.4762
 7834SOL     OW24602   8.422   8.873   5.165 -0.3404 -0.2251  0.6135
 7834SOL    HW124603   8.337   8.839   5.193  0.0581 -1.2884  0.5606
 7834SOL    HW224604   8.461   8.802   5.114 -0.5283  1.2117 -1.6643
 7835SOL     OW24605   1.527   5.324   0.179  1.1459 -0.0018 -0.6569
 7835SOL    HW124606   1.572   5.262   0.237 -0.6995 -1.1726 -0.4014
 7835SOL    HW224607   1.486   5.387   0.238  0.8573 -0.0660 -0.7888
 7836SOL     OW24608   4.940   4.366   0.949  0.1691 -0.1563  0.4239
 7836SOL    HW124609   4.971   4.278   0.971  3.1530  0.5682 -0.4020
 7836SOL    HW224610   4.949   4.415   1.030  1.6618  0.1186  0.1273
 7837SOL     OW24611   7.875   3.289   5.775 -0.6737  0.3296  0.2437
 7837SOL    HW124612   7.883   3.378   5.808  0.3470  0.4640 -0.3130
 7837SOL    HW224613   7.929   3.237   5.835 -0.4817  0.2495  0.0041
 7838SOL     OW24614   6.768   0.927   6.096  0.8535 -0.3665  0.6324
 7838SOL    HW124615   6.756   1.012   6.139  0.8305 -0.6045  1.1129
 7838SOL    HW224616   6.814   0.947   6.015  0.2407  0.1785  0.4111
 7839SOL     OW24617   0.387   6.372   5.065  0.2846 -0.4358 -0.4485
 7839SOL    HW124618   0.358   6.463   5.075  2.6044  0.5426 -1.8208
 7839SOL    HW224619   0.472   6.379   5.021  1.0012 -3.2379  0.3240
 7840SOL     OW24620   6.297   0.374   9.034 -0.1598 -0.3914 -0.6216
 7840SOL    HW124621   6.212   0.417   9.040 -0.5082 -1.2287  1.8182
 7840SOL    HW224622   6.330   0.397   8.948 -2.6840  0.2803 -1.5048
 7841SOL     OW24623   4.522   4.807   5.245 -0.4270  0.0661  0.1351
 7841SOL    HW124624   4.466   4.802   5.168  0.0019  1.3503 -0.2946
 7841SOL    HW224625   4.473   4.763   5.314 -0.4997 -1.7725 -1.0262
 7842SOL     OW24626   0.518   7.523   5.979  0.5314 -0.5371  0.2253
 7842SOL    HW124627   0.578   7.538   5.906  1.1245  1.4427  1.0549
 7842SOL    HW224628   0.563   7.459   6.034  0.2503 -1.7563 -0.9057
 7843SOL     OW24629   2.051   3.423   0.974 -0.6150  0.5293  0.3076
 7843SOL    HW124630   2.010   3.465   1.050 -0.1554  0.4543  0.5993
 7843SOL    HW224631   2.106   3.492   0.936 -0.9404  0.6034 -0.0304
 7844SOL     OW24632   2.672   7.143   4.629 -0.3946 -0.1101 -0.4779
 7844SOL    HW124633   2.581   7.150   4.599 -0.5810  0.7470  0.2306
 7844SOL    HW224634   2.666   7.143   4.724  0.3218 -0.6312 -0.4246
 7845SOL     OW24635   0.693   7.797   2.820 -0.1317  0.6628 -0.9671
 7845SOL    HW124636   0.669   7.716   2.776  0.9541  0.2923 -0.8915
 7845SOL    HW224637   0.651   7.866   2.768 -0.5049  0.1081 -1.4142
 7846SOL     OW24638   7.948   0.465   4.879  0.0868  0.2534  0.0185
 7846SOL    HW124639   7.932   0.370   4.883 -1.0746  0.4100 -0.4137
 7846SOL    HW224640   7.923   0.497   4.965 -0.5241  0.2913 -0.1657
 7847SOL     OW24641   4.543   7.955   5.645  0.4206 -0.3653  1.2505
 7847SOL    HW124642   4.610   7.998   5.592  0.0745  0.1662  1.2314
 7847SOL    HW224643   4.592   7.901   5.706  0.8595 -0.1770  1.0694
 7848SOL     OW24644   3.688   3.239   2.314 -0.1443 -0.1532 -0.1759
 7848SOL    HW124645   3.699   3.299   2.240 -1.2758  1.5165  0.9309
 7848SOL    HW224646   3.655   3.294   2.385  0.5215 -1.7748  1.4726
 7849SOL     OW24647   5.141   7.562   1.101 -0.2509 -0.3594  0.4637
 7849SOL    HW124648   5.135   7.631   1.166 -0.1165 -0.9369  1.0960
 7849SOL    HW224649   5.054   7.520   1.102 -0.3213 -0.2319  0.1088
 7850SOL     OW24650   6.257   7.092   4.758 -0.1615  0.2735 -0.2142
 7850SOL    HW124651   6.184   7.149   4.734  0.5159  1.9992  1.6020
 7850SOL    HW224652   6.222   7.036   4.827  1.0290  3.7284  3.5792
 7851SOL     OW24653   2.666   4.167   3.578 -0.3350 -0.5099  0.6841
 7851SOL    HW124654   2.631   4.242   3.626 -1.0537 -1.3829  1.5587
 7851SOL    HW224655   2.614   4.162   3.498  1.8226  1.8536 -1.0368
 7852SOL     OW24656   9.008   8.252   1.730 -0.3915  0.7792  0.2471
 7852SOL    HW124657   9.067   8.323   1.756  0.2428  0.0736  0.7852
 7852SOL    HW224658   8.984   8.273   1.640 -0.6057  1.9289  0.5522
 7853SOL     OW24659   7.767   6.427   5.910  0.1163  0.4889 -0.1263
 7853SOL    HW124660   7.793   6.372   5.836  2.2398  1.1428  0.0878
 7853SOL    HW224661   7.847   6.442   5.959 -1.0179  1.1232  1.6325
 7854SOL     OW24662   9.058   7.277   8.249 -0.6893  0.1670  0.3193
 7854SOL    HW124663   9.056   7.338   8.323  2.0649 -1.0042  1.5042
 7854SOL    HW224664   9.126   7.311   8.191 -1.0957 -0.2805 -0.4390
 7855SOL     OW24665   8.167   3.571   3.213  0.1783  0.3611 -0.3889
 7855SOL    HW124666   8.160   3.634   3.142 -1.7294  1.3171  0.5745
 7855SOL    HW224667   8.260   3.571   3.236  0.4550  1.6897 -1.4045
 7856SOL     OW24668   0.514   7.944   5.954 -0.0492  0.0795 -0.4080
 7856SOL    HW124669   0.603   7.968   5.928  0.5478 -1.9307 -0.4569
 7856SOL    HW224670   0.472   8.026   5.978  2.0013  1.0191  0.1532
 7857SOL     OW24671   8.044   0.243   3.607 -0.1934  0.2827  0.1286
 7857SOL    HW124672   8.040   0.156   3.568 -0.4344 -0.1217  1.0300
 7857SOL    HW224673   8.130   0.277   3.583  1.4563 -1.6659  2.7386
 7858SOL     OW24674   3.774   4.663   5.036 -0.1002  0.4227  0.0439
 7858SOL    HW124675   3.710   4.712   4.984  0.2051  1.2384  0.4377
 7858SOL    HW224676   3.859   4.689   5.001  0.1091  0.9802  0.9368
 7859SOL     OW24677   4.755   5.944   2.236 -0.4906  0.0649  0.0362
 7859SOL    HW124678   4.721   6.033   2.226 -1.8380 -0.4585 -0.1538
 7859SOL    HW224679   4.845   5.949   2.202 -0.1640  1.5889  1.0146
 7860SOL     OW24680   3.496   8.560   1.544  0.0116 -0.3534 -0.4755
 7860SOL    HW124681   3.443   8.493   1.588  0.0624  0.2698  0.5844
 7860SOL    HW224682   3.538   8.608   1.616  0.6193  0.2945 -1.2417
 7861SOL     OW24683   2.477   0.404   3.385 -0.0220  0.3740 -0.5395
 7861SOL    HW124684   2.541   0.364   3.444  0.5385  1.9196 -0.0395
 7861SOL    HW224685   2.509   0.494   3.372 -1.4641  0.8240 -1.2257
 7862SOL     OW24686   4.594   3.936   2.459 -0.2565  0.8401  0.2795
 7862SOL    HW124687   4.658   3.901   2.521 -0.6620 -0.4710 -0.0055
 7862SOL    HW224688   4.513   3.942   2.509  0.0653  2.5293  0.6494
 7863SOL     OW24689   8.815   6.127   1.823  0.3415  0.5290  0.0466
 7863SOL    HW124690   8.883   6.187   1.854  1.1549 -0.0853 -0.5193
 7863SOL    HW224691   8.838   6.043   1.862 -0.2503  0.3708  0.0650
 7864SOL     OW24692   3.910   2.785   0.947  0.3349 -0.2043 -0.0318
 7864SOL    HW124693   3.927   2.864   0.896 -1.1443  0.5880  0.6306
 7864SOL    HW224694   3.817   2.792   0.972  0.9007 -0.7004  2.4797
 7865SOL     OW24695   0.882   8.680   2.717 -0.0192 -0.1205  0.0867
 7865SOL    HW124696   0.955   8.671   2.779 -0.5790 -1.4388  0.5932
 7865SOL    HW224697   0.908   8.627   2.642 -0.2229 -0.1613  0.0448
 7866SOL     OW24698   8.409   8.356   7.533 -0.0230  0.1111 -0.4260
 7866SOL    HW124699   8.390   8.264   7.514 -1.2043  0.2765 -0.1245
 7866SOL    HW224700   8.474   8.353   7.604 -1.9318 -0.5389  1.3883
 7867SOL     OW24701   1.683   6.860   6.959 -0.0232 -0.1966  0.1259
 7867SOL    HW124702   1.757   6.847   6.899  1.4402  0.8788  1.6161
 7867SOL    HW224703   1.671   6.955   6.962 -1.4201 -0.3373  0.0346
 7868SOL     OW24704   6.381   5.287   0.441  0.0618 -0.2721 -0.2963
 7868SOL    HW124705   6.310   5.245   0.490  0.9814 -1.5439 -0.0069
 7868SOL    HW224706   6.393   5.372   0.484 -0.7362 -0.3788  0.1594
 7869SOL     OW24707   0.888   2.771   2.531 -0.3060 -0.7475 -0.3510
 7869SOL    HW124708   0.839   2.821   2.597 -0.3694 -1.4566  0.1597
 7869SOL    HW224709   0.824   2.752   2.463 -0.6058 -1.1797  0.0431
 7870SOL     OW24710   8.051   8.049   1.495 -0.3035 -0.3801 -0.7144
 7870SOL    HW124711   8.004   8.127   1.466 -0.7713 -0.3928 -0.0323
 7870SOL    HW224712   8.142   8.066   1.473 -0.3239  0.5871 -0.1241
 7871SOL     OW24713   6.526   1.257   7.995  0.0302 -0.2140  0.8865
 7871SOL    HW124714   6.523   1.339   7.946 -2.1296  0.0364  1.3404
 7871SOL    HW224715   6.592   1.205   7.950 -0.0748  0.9639 -0.7136
 7872SOL     OW24716   4.379   7.617   2.683  0.6358 -0.1301  0.1174
 7872SOL    HW124717   4.323   7.607   2.760  0.7540 -0.6574  0.1394
 7872SOL    HW224718   4.449   7.554   2.697  2.0427  1.5025  0.7876
 7873SOL     OW24719   1.597   3.099   2.773 -0.4647 -0.2377  0.0012
 7873SOL    HW124720   1.600   3.046   2.693 -2.5338 -0.4173 -0.0023
 7873SOL    HW224721   1.610   3.036   2.844  1.3139 -0.0862 -0.1318
 7874SOL     OW24722   5.992   4.343   3.208 -0.0415 -0.0190  0.1932
 7874SOL    HW124723   5.971   4.280   3.277 -0.5720 -0.7125 -0.5780
 7874SOL    HW224724   6.076   4.381   3.234 -0.2788 -0.1933  1.2620
 7875SOL     OW24725   4.367   3.320   8.633  0.0174  0.2621  0.7317
 7875SOL    HW124726   4.388   3.377   8.708 -0.5459  2.2753 -0.5585
 7875SOL    HW224727   4.272   3.314   8.635 -0.0111  0.5027  0.0568
 7876SOL     OW24728   8.168   3.620   7.323  0.5358  0.5328 -0.9106
 7876SOL    HW124729   8.080   3.624   7.286 -0.7796 -1.7951  1.6032
 7876SOL    HW224730   8.208   3.542   7.284  0.8799  0.6911 -0.8814
 7877SOL     OW24731   8.770   2.866   1.934  0.8044 -0.4153  0.2515
 7877SOL    HW124732   8.700   2.814   1.894 -0.5408  0.6856  1.0749
 7877SOL    HW224733   8.843   2.805   1.944  0.0202 -1.5704 -0.7563
 7878SOL     OW24734   1.731   0.201   2.403  0.0700  0.0412 -0.4801
 7878SOL    HW124735   1.636   0.211   2.403  0.0838  0.2375  0.2871
 7878SOL    HW224736   1.751   0.162   2.489  0.5623 -1.2447 -1.1457
 7879SOL     OW24737   4.176   0.518   8.841  0.6316 -0.0481  0.1533
 7879SOL    HW124738   4.090   0.477   8.838  1.8634 -2.7455 -1.8034
 7879SOL    HW224739   4.164   0.602   8.798 -1.0237 -0.3665 -0.0719
 7880SOL     OW24740   5.818   8.133   5.138 -0.4629 -0.4070  0.2415
 7880SOL    HW124741   5.798   8.222   5.109 -0.5473 -0.8160 -0.9905
 7880SOL    HW224742   5.908   8.118   5.108 -1.2457 -1.5703 -1.7330
 7881SOL     OW24743   2.139   3.117   4.515 -0.1392 -0.1500 -0.4104
 7881SOL    HW124744   2.177   3.032   4.538  1.7869  0.6193 -0.5404
 7881SOL    HW224745   2.141   3.118   4.419  0.8715  0.4623 -0.3903
 7882SOL     OW24746   6.365   1.488   2.434  0.0905  0.0220  0.4335
 7882SOL    HW124747   6.452   1.529   2.437 -0.2701  0.7438  1.7124
 7882SOL    HW224748   6.325   1.510   2.518 -1.3292 -0.3277 -0.1216
 7883SOL     OW24749   3.549   6.303   8.899  0.2030  0.2104 -0.2764
 7883SOL    HW124750   3.538   6.341   8.812 -0.4550  0.9546  0.1175
 7883SOL    HW224751   3.572   6.377   8.955  1.1740 -0.3558  0.0808
 7884SOL     OW24752   3.043   7.737   7.985  1.1065 -0.3188 -0.4443
 7884SOL    HW124753   3.031   7.643   7.979  2.0552 -0.5331  0.6349
 7884SOL    HW224754   3.135   7.748   8.012 -0.0033  0.7396  3.4957
 7885SOL     OW24755   4.491   4.258   0.253  0.0340  0.2545  0.2097
 7885SOL    HW124756   4.544   4.204   0.194  1.8467  2.5756 -0.4214
 7885SOL    HW224757   4.424   4.296   0.196  0.2846  0.5829  0.1296
 7886SOL     OW24758   2.088   0.994   3.005 -0.0704 -0.4890 -0.0138
 7886SOL    HW124759   2.041   1.025   3.083 -0.7034  2.1584 -1.3092
 7886SOL    HW224760   2.087   1.069   2.945 -0.7178 -2.7365 -3.0942
 7887SOL     OW24761   2.848   4.215   2.470  0.2948 -0.2488 -0.2228
 7887SOL    HW124762   2.898   4.222   2.551 -0.4770  0.9394  0.1725
 7887SOL    HW224763   2.776   4.277   2.480 -0.2079 -0.5725 -1.5443
 7888SOL     OW24764   3.384   1.237   8.562  0.1702  0.4512  0.3071
 7888SOL    HW124765   3.353   1.242   8.472 -0.1821 -1.6755  0.2550
 7888SOL    HW224766   3.446   1.164   8.562  0.1424  0.3978  1.8042
 7889SOL     OW24767   6.605   7.267   1.563 -0.4106 -0.1908 -0.5431
 7889SOL    HW124768   6.564   7.297   1.482 -2.8438  0.4613  0.8362
 7889SOL    HW224769   6.631   7.177   1.546  0.8813  0.5213 -2.6210
 7890SOL     OW24770   0.656   0.630   1.946 -0.0929 -0.0494 -0.3190
 7890SOL    HW124771   0.580   0.676   1.981  0.0354 -0.5580  0.6551
 7890SOL    HW224772   0.632   0.537   1.949 -0.2354 -0.0971 -1.9907
 7891SOL     OW24773   4.225   2.925   8.022 -0.1102 -0.1984  0.2561
 7891SOL    HW124774   4.299   2.966   7.978 -0.3052 -0.7529 -0.6241
 7891SOL    HW224775   4.263   2.853   8.072  0.1990  0.8560  1.5908
 7892SOL     OW24776   6.685   4.863   6.005 -0.3975 -0.5673 -0.0852
 7892SOL    HW124777   6.635   4.926   6.058  0.6762 -0.7175  1.1546
 7892SOL    HW224778   6.618   4.805   5.968 -1.2747  0.3132  0.0617
 7893SOL     OW24779   3.077   3.700   4.563 -0.3185 -0.0656 -0.7238
 7893SOL    HW124780   3.033   3.761   4.504  0.0430 -0.7438 -1.7216
 7893SOL    HW224781   3.142   3.657   4.508  0.2434 -0.4900  0.2558
 7894SOL     OW24782   8.259   6.628   6.557  0.1202  0.9062 -0.2835
 7894SOL    HW124783   8.324   6.567   6.591 -1.2346  0.5982  1.9544
 7894SOL    HW224784   8.202   6.574   6.501 -0.2357  0.3914  0.5546
 7895SOL     OW24785   6.931   5.995   8.810  0.8188  0.0789 -0.7652
 7895SOL    HW124786   6.940   5.914   8.860 -2.8191  0.0135  0.0101
 7895SOL    HW224787   6.926   5.967   8.719 -0.4477 -0.6196 -0.4975
 7896SOL     OW24788   7.801   3.404   2.676 -0.4742  0.2575 -0.1037
 7896SOL    HW124789   7.739   3.333   2.660  1.0427 -1.1742  0.0603
 7896SOL    HW224790   7.861   3.400   2.602  1.2707 -0.4859  1.2850
 7897SOL     OW24791   0.473   2.978   1.862  0.2564  0.0763  1.3527
 7897SOL    HW124792   0.406   3.009   1.922 -1.7327  0.3696 -0.8497
 7897SOL    HW224793   0.425   2.957   1.782  2.8017  0.1701 -0.3153
 7898SOL     OW24794   4.177   2.215   0.873 -0.0070  0.1057  0.2088
 7898SOL    HW124795   4.230   2.284   0.913  0.7546  0.5444 -1.4896
 7898SOL    HW224796   4.239   2.162   0.822 -0.9600 -0.2929 -0.5776
 7899SOL     OW24797   5.889   3.807   1.492 -0.0830  0.0789 -0.3623
 7899SOL    HW124798   5.852   3.788   1.578  0.3152 -0.3405 -0.2768
 7899SOL    HW224799   5.935   3.890   1.505 -1.6832  1.0521 -0.6931
 7900SOL     OW24800   6.455   5.578   7.686 -0.3281  0.2238  0.2611
 7900SOL    HW124801   6.381   5.617   7.732 -1.2076 -0.7738 -0.2480
 7900SOL    HW224802   6.450   5.613   7.597 -0.0480  0.3426  0.2925
 7901SOL     OW24803   7.425   2.028   7.846  0.3454  0.5195 -0.1355
 7901SOL    HW124804   7.444   1.959   7.783 -0.5469  0.0248  0.1233
 7901SOL    HW224805   7.417   2.107   7.793 -1.4071 -0.0623 -0.7819
 7902SOL     OW24806   4.749   8.512   8.820  0.0968 -0.5673  0.0284
 7902SOL    HW124807   4.688   8.541   8.889  1.4562 -0.5101  1.2610
 7902SOL    HW224808   4.785   8.430   8.853  1.2398 -0.2195 -0.2926
 7903SOL     OW24809   6.678   8.603   8.256 -0.0096 -0.2275 -0.1264
 7903SOL    HW124810   6.680   8.619   8.351 -0.3817 -1.8587  0.1829
 7903SOL    HW224811   6.734   8.671   8.219  0.0611  0.4993  1.2553
 7904SOL     OW24812   6.226   4.887   0.121 -0.4505  0.3550  0.0874
 7904SOL    HW124813   6.310   4.880   0.166 -0.3353  0.2753 -0.1385
 7904SOL    HW224814   6.188   4.799   0.127 -1.5795  0.9266  2.2280
 7905SOL     OW24815   8.734   5.148   2.672 -0.2909 -0.4965  0.1077
 7905SOL    HW124816   8.795   5.076   2.655  0.3674 -0.3415  1.6044
 7905SOL    HW224817   8.659   5.107   2.715  0.4129 -0.2494  1.6608
 7906SOL     OW24818   6.876   0.839   3.792  0.4636 -0.5565 -0.3982
 7906SOL    HW124819   6.816   0.857   3.865 -1.7928  1.3992 -2.5022
 7906SOL    HW224820   6.955   0.887   3.814 -0.6917  1.1956  0.2062
 7907SOL     OW24821   2.282   0.041   1.065 -0.2584 -0.1624 -0.1634
 7907SOL    HW124822   2.211  -0.022   1.081 -1.1446  0.8057 -0.1338
 7907SOL    HW224823   2.289   0.045   0.969  1.2613 -1.8453 -0.1792
 7908SOL     OW24824   5.582   7.200   7.652  0.0701 -0.1866 -0.0837
 7908SOL    HW124825   5.659   7.143   7.645  0.8497  0.7930  0.3781
 7908SOL    HW224826   5.591   7.260   7.579  0.8396  1.2132  1.1134
 7909SOL     OW24827   6.312   3.838   4.438 -0.3785  0.0328  0.4210
 7909SOL    HW124828   6.225   3.853   4.402  0.1730 -0.7855 -1.3632
 7909SOL    HW224829   6.372   3.870   4.371  0.7077 -2.3635  0.1514
 7910SOL     OW24830   4.123   6.987   3.977  0.2867  0.1856  0.1935
 7910SOL    HW124831   4.050   7.020   4.029  0.2487  0.5617 -0.0938
 7910SOL    HW224832   4.200   7.001   4.031 -0.2004 -4.6577  2.7502
 7911SOL     OW24833   7.144   1.172   2.327  0.1620  0.8958 -0.0677
 7911SOL    HW124834   7.149   1.150   2.234  1.1514 -0.6209  0.3118
 7911SOL    HW224835   7.208   1.242   2.338  0.1029  1.0234 -0.5148
 7912SOL     OW24836   3.785   8.560   0.176 -0.6336 -0.3790  0.2599
 7912SOL    HW124837   3.780   8.564   0.272 -2.4350 -0.5624  0.1942
 7912SOL    HW224838   3.733   8.635   0.147  1.3763  0.7613 -0.5968
 7913SOL     OW24839   1.153   6.741   2.039  0.6363  0.7124  0.8118
 7913SOL    HW124840   1.237   6.777   2.068  0.4845  1.7412  0.0553
 7913SOL    HW224841   1.170   6.709   1.951  0.6920 -0.8662  1.3767
 7914SOL     OW24842   3.039   6.612   8.685 -0.2864  0.2270 -0.0268
 7914SOL    HW124843   2.943   6.622   8.690 -0.1395  1.3324  3.5298
 7914SOL    HW224844   3.073   6.676   8.748  2.9380  0.7575 -2.0749
 7915SOL     OW24845   4.697   1.954   2.968  0.0748  0.0435  0.2169
 7915SOL    HW124846   4.627   1.890   2.984 -1.1658  1.0459 -0.9246
 7915SOL    HW224847   4.771   1.922   3.020 -1.4468 -0.6670  2.1007
 7916SOL     OW24848   6.560   1.695   8.393 -0.2893  0.7571 -0.5507
 7916SOL    HW124849   6.513   1.778   8.380 -1.3857  0.1825 -0.3718
 7916SOL    HW224850   6.546   1.674   8.485  0.6262  0.7345 -0.4029
 7917SOL     OW24851   0.207   6.236   0.609 -0.0383  0.1563  0.1912
 7917SOL    HW124852   0.297   6.264   0.627  0.2547  0.0681 -1.0936
 7917SOL    HW224853   0.159   6.259   0.689  1.2206 -0.2738  1.1099
 7918SOL     OW24854   8.585   7.619   5.544  0.3368 -0.0733 -0.2899
 7918SOL    HW124855   8.602   7.677   5.470  0.4495  0.0793 -0.1465
 7918SOL    HW224856   8.672   7.599   5.579  0.3586 -1.0178 -0.8586
 7919SOL     OW24857   2.933   8.124   2.890  0.3484  0.2520 -0.1624
 7919SOL    HW124858   2.893   8.197   2.843  2.0178  0.4902 -1.2655
 7919SOL    HW224859   2.880   8.116   2.970 -0.5741  1.8995 -0.5549
 7920SOL     OW24860   3.496   8.798   6.694  0.1905  0.5636  0.0353
 7920SOL    HW124861   3.461   8.858   6.761 -0.8767  0.0631 -0.0472
 7920SOL    HW224862   3.566   8.847   6.652  0.1962  1.2712  0.8414
 7921SOL     OW24863   8.252   2.126   7.975  0.0959  0.9621 -0.3646
 7921SOL    HW124864   8.239   2.051   7.917 -1.5869 -0.6286  1.9176
 7921SOL    HW224865   8.169   2.173   7.972  0.6271  1.9122 -0.5953
 7922SOL     OW24866   5.805   3.938   4.635 -0.0915 -0.3679  0.1282
 7922SOL    HW124867   5.752   3.900   4.704  0.0039 -0.6390  0.0544
 7922SOL    HW224868   5.867   3.995   4.680 -0.0504 -0.5192  0.2614
 7923SOL     OW24869   9.097   1.488   2.795  0.3395 -0.3131 -0.3626
 7923SOL    HW124870   9.067   1.430   2.865  1.1257 -1.1949 -0.7330
 7923SOL    HW224871   9.190   1.500   2.814 -0.0550  1.9279  0.4630
 7924SOL     OW24872   6.819   5.174   7.340  0.1399 -0.5771 -0.8192
 7924SOL    HW124873   6.908   5.202   7.317 -0.1402 -0.8969 -2.4448
 7924SOL    HW224874   6.762   5.231   7.289 -0.6654  0.3865  1.0749
 7925SOL     OW24875   1.546   2.468   2.243  0.1994 -0.3840 -0.0032
 7925SOL    HW124876   1.513   2.439   2.328 -0.7678  1.6516  0.3830
 7925SOL    HW224877   1.489   2.424   2.179 -0.3210 -0.4261  0.4806
 7926SOL     OW24878   7.960   1.699   6.191  0.4005  0.0863  0.4332
 7926SOL    HW124879   7.946   1.787   6.155 -1.8955  0.0740  1.1193
 7926SOL    HW224880   7.960   1.711   6.285  0.5954 -0.5943  0.5250
 7927SOL     OW24881   7.215   2.037   5.602  0.6274  0.6896  0.7127
 7927SOL    HW124882   7.170   2.103   5.653 -2.0616 -0.9549  0.6692
 7927SOL    HW224883   7.163   1.957   5.614  0.9491 -0.2775 -2.9600
 7928SOL     OW24884   4.131   8.438   1.925 -0.5576 -0.3871 -0.0823
 7928SOL    HW124885   4.226   8.423   1.928 -0.5469 -0.2982  0.0305
 7928SOL    HW224886   4.096   8.361   1.879 -0.1179  1.0780 -3.1467
 7929SOL     OW24887   4.075   1.681   1.113  0.2793 -0.1133  0.6151
 7929SOL    HW124888   4.055   1.708   1.024 -0.1692 -1.4292  0.2953
 7929SOL    HW224889   4.152   1.733   1.138 -0.5848  1.4752  0.0846
 7930SOL     OW24890   0.238   2.066   3.740 -0.1013  0.5849  0.1755
 7930SOL    HW124891   0.274   2.071   3.828 -1.9537  1.1352  0.9552
 7930SOL    HW224892   0.298   2.117   3.686  0.7009  0.7955  1.2547
 7931SOL     OW24893   4.209   6.964   6.026 -0.0336 -0.4483  0.3978
 7931SOL    HW124894   4.254   7.043   5.994  0.6034 -0.5381  1.0578
 7931SOL    HW224895   4.148   6.997   6.091 -0.2117 -0.4364  0.2260
 7932SOL     OW24896   7.737   4.003   7.582 -0.0318 -0.2295  0.2481
 7932SOL    HW124897   7.770   4.091   7.598 -0.5853 -0.3486  2.5392
 7932SOL    HW224898   7.677   4.012   7.508  0.8906  1.0419 -0.3762
 7933SOL     OW24899   7.477   3.645   6.323  0.5165  0.1845 -0.1113
 7933SOL    HW124900   7.532   3.717   6.292  0.4022  1.0714  1.6360
 7933SOL    HW224901   7.387   3.676   6.311  0.4666  0.7575  1.4562
 7934SOL     OW24902   6.614   1.952   6.867 -0.2617  0.1270  0.2285
 7934SOL    HW124903   6.698   1.906   6.863  0.5415  1.3472  1.8337
 7934SOL    HW224904   6.610   2.003   6.787  0.1950 -0.4799 -0.1921
 7935SOL     OW24905   2.474   4.105   5.095 -0.0924 -0.5850 -0.6101
 7935SOL    HW124906   2.441   4.039   5.155 -1.2687  0.2935 -0.2412
 7935SOL    HW224907   2.400   4.165   5.082  1.7347  2.4918  1.6207
 7936SOL     OW24908   4.480   0.707   4.981 -0.6347  0.0604 -0.2027
 7936SOL    HW124909   4.470   0.626   4.931 -2.4087 -1.0158  1.7240
 7936SOL    HW224910   4.530   0.765   4.924 -2.2629 -1.1581 -3.0824
 7937SOL     OW24911   6.943   4.335   3.176 -0.3412 -0.1373 -0.0757
 7937SOL    HW124912   6.909   4.249   3.150  2.5117 -1.2008 -0.7128
 7937SOL    HW224913   6.947   4.385   3.095  0.0036 -0.1650 -0.0752
 7938SOL     OW24914   0.150   6.957   2.815  0.0367 -0.0357  0.6702
 7938SOL    HW124915   0.121   6.867   2.833  0.8296  0.0520  2.6037
 7938SOL    HW224916   0.108   6.979   2.732 -0.2130 -2.1757  0.1562
 7939SOL     OW24917   4.969   4.061   4.137  0.3306 -0.2843 -0.4039
 7939SOL    HW124918   4.921   4.004   4.196 -0.4079  0.8088  0.0941
 7939SOL    HW224919   5.002   4.003   4.068  0.7361 -1.4967  0.7683
 7940SOL     OW24920   5.354   2.596   3.321  0.2636  0.9552  0.2078
 7940SOL    HW124921   5.389   2.544   3.249 -0.0670 -0.4815  1.0580
 7940SOL    HW224922   5.428   2.650   3.350  1.3492 -0.8630  0.9285
 7941SOL     OW24923   0.101   8.593   2.995 -1.0964 -0.8089  0.2726
 7941SOL    HW124924   0.160   8.664   2.969 -0.4477 -0.9532  1.3160
 7941SOL    HW224925   0.062   8.622   3.077 -1.9151 -1.0530 -0.0185
 7942SOL     OW24926   5.040   7.305   3.887 -0.0359  0.1636  0.1829
 7942SOL    HW124927   5.134   7.312   3.870  0.2474 -0.7846  1.2196
 7942SOL    HW224928   5.009   7.396   3.884  0.9493  0.5161  0.0440
 7943SOL     OW24929   6.040   1.242   3.482 -0.2275 -0.6202  0.3622
 7943SOL    HW124930   5.961   1.193   3.505 -0.0298 -1.0822  0.0783
 7943SOL    HW224931   6.046   1.234   3.386  0.6375 -1.3388  0.4673
 7944SOL     OW24932   3.757   1.921   7.302  0.3090 -0.1483  0.1155
 7944SOL    HW124933   3.836   1.867   7.312  0.0014 -1.6543 -3.8551
 7944SOL    HW224934   3.787   2.002   7.261 -0.1659 -1.1739 -2.4583
 7945SOL     OW24935   0.384   4.758   4.805  0.1708  0.2951 -0.4201
 7945SOL    HW124936   0.330   4.787   4.879  1.6706  2.0808  0.0523
 7945SOL    HW224937   0.403   4.666   4.824 -1.2665  0.1056  0.2585
 7946SOL     OW24938   8.174   8.544   4.579 -0.0062  0.0793 -0.0772
 7946SOL    HW124939   8.094   8.582   4.614  0.9461  2.1514  0.0083
 7946SOL    HW224940   8.154   8.451   4.568 -2.7104  0.6773 -0.9628
 7947SOL     OW24941   0.693   0.041   2.050  0.5567 -0.6159 -0.5578
 7947SOL    HW124942   0.739  -0.043   2.046  1.5967 -0.3343  2.7518
 7947SOL    HW224943   0.763   0.107   2.053 -0.0938  0.0379  1.2815
 7948SOL     OW24944   4.087   8.949   2.349 -0.1275 -0.0099 -0.3619
 7948SOL    HW124945   4.029   8.973   2.421  0.1983 -0.5113  0.0714
 7948SOL    HW224946   4.043   8.982   2.271 -1.3149 -0.9349 -0.1074
 7949SOL     OW24947   5.591   3.903   6.002  0.6647  0.0013 -0.1375
 7949SOL    HW124948   5.578   3.850   6.081 -0.2458 -0.4672 -0.5795
 7949SOL    HW224949   5.600   3.839   5.932  0.8753  0.4203 -0.4925
 7950SOL     OW24950   0.026   7.013   3.619 -0.3376  0.0977 -0.7012
 7950SOL    HW124951  -0.010   6.929   3.648 -0.1119  0.5174  0.8714
 7950SOL    HW224952  -0.047   7.057   3.575 -0.2612 -1.1925 -2.2034
 7951SOL     OW24953   3.401   4.856   2.915 -0.5888 -0.2441 -0.1418
 7951SOL    HW124954   3.460   4.889   2.983  1.1496  1.5396 -2.3561
 7951SOL    HW224955   3.364   4.935   2.875  1.0090 -0.9315 -3.3632
 7952SOL     OW24956   6.039   5.231   7.892  0.2492  0.4065 -0.7076
 7952SOL    HW124957   6.065   5.139   7.884 -0.1522  0.1015  1.0341
 7952SOL    HW224958   6.071   5.272   7.812  0.9352 -1.1313 -1.2637
 7953SOL     OW24959   6.131   4.586   2.905 -0.5767  0.4956 -0.1390
 7953SOL    HW124960   6.059   4.649   2.907 -2.0067 -1.0445 -0.1419
 7953SOL    HW224961   6.157   4.576   2.997 -1.1369  0.2609  0.0010
 7954SOL     OW24962   0.684   5.281   2.580 -0.8504  0.2424  0.2904
 7954SOL    HW124963   0.682   5.212   2.514  1.0232  1.0611 -0.6952
 7954SOL    HW224964   0.611   5.260   2.639 -0.5999 -2.3200 -0.1955
 7955SOL     OW24965   6.023   7.218   4.369 -0.3778  0.1264  0.0075
 7955SOL    HW124966   5.980   7.303   4.360  2.1193  1.5888  0.8869
 7955SOL    HW224967   6.112   7.239   4.397  0.9705 -2.7042 -1.7116
 7956SOL     OW24968   7.533   1.728   8.157 -0.6874  0.1203 -0.2991
 7956SOL    HW124969   7.476   1.689   8.223 -0.8583  0.0879 -0.4655
 7956SOL    HW224970   7.545   1.658   8.092  1.1347 -0.5638  0.7047
 7957SOL     OW24971   6.230   2.041   4.564 -0.0420  0.3771  0.0649
 7957SOL    HW124972   6.261   2.035   4.474  0.4768 -0.6344  0.3001
 7957SOL    HW224973   6.236   2.135   4.586  0.8687  0.4747 -0.5803
 7958SOL     OW24974   0.209   2.479   7.934 -0.3710 -0.3301  0.6680
 7958SOL    HW124975   0.141   2.475   7.866 -1.1836  1.8028  1.2811
 7958SOL    HW224976   0.204   2.394   7.978  0.2635 -1.8102 -1.9540
 7959SOL     OW24977   4.894   6.087   1.379  0.1955  0.0501 -0.1068
 7959SOL    HW124978   4.870   6.180   1.380  2.0947  0.5709  0.0787
 7959SOL    HW224979   4.989   6.087   1.384  0.2320 -1.9235 -0.2589
 7960SOL     OW24980   1.236   1.152   9.117  0.5991 -0.3099 -0.2676
 7960SOL    HW124981   1.326   1.135   9.146  0.2788 -0.9477  0.3963
 7960SOL    HW224982   1.185   1.082   9.157 -0.1623 -0.0912 -0.8372
 7961SOL     OW24983   8.263   0.340   2.115  0.0874 -0.8152 -0.3438
 7961SOL    HW124984   8.221   0.257   2.137  1.5077 -0.7715  3.0325
 7961SOL    HW224985   8.344   0.315   2.071  0.4704 -1.2490  0.5849
 7962SOL     OW24986   8.955   0.930   5.805  0.5170 -0.4848  0.1430
 7962SOL    HW124987   8.908   0.966   5.730 -0.4699 -0.2174  0.8657
 7962SOL    HW224988   8.887   0.898   5.863  1.2610 -0.6256  0.9655
 7963SOL     OW24989   3.946   2.872   3.614  0.3797  0.2042  0.1071
 7963SOL    HW124990   4.020   2.817   3.588 -0.2115 -0.5776  0.0420
 7963SOL    HW224991   3.950   2.873   3.710  1.1202  1.0838  0.0811
 7964SOL     OW24992   2.915   4.104   3.446 -0.2695  0.3078 -0.1446
 7964SOL    HW124993   2.836   4.145   3.481 -1.2148  0.0109 -1.8246
 7964SOL    HW224994   2.938   4.036   3.509 -1.6204  0.1170  0.1617
 7965SOL     OW24995   6.045   1.087   6.450  0.2541 -0.0442  0.2686
 7965SOL    HW124996   6.074   1.178   6.455 -0.1323  0.1410 -0.7326
 7965SOL    HW224997   6.127   1.037   6.442  0.4054  0.3995 -1.4247
 7966SOL     OW24998   2.311   3.488   0.559 -0.2060 -0.4347  0.0520
 7966SOL    HW124999   2.405   3.505   0.559 -0.2227 -0.3356  0.3211
 7966SOL    HW225000   2.294   3.445   0.643 -0.3516 -0.7350 -0.1257
 7967SOL     OW25001   2.958   0.279   8.335  0.5348 -0.8519  0.2392
 7967SOL    HW125002   2.919   0.276   8.248 -0.6217  1.9878  0.5338
 7967SOL    HW225003   2.923   0.202   8.380 -0.6287 -1.1624 -1.1178
 7968SOL     OW25004   2.385   0.740   2.076 -0.5154  0.3352 -0.7871
 7968SOL    HW125005   2.298   0.708   2.053  1.0211 -3.1919 -2.5251
 7968SOL    HW225006   2.442   0.704   2.008  2.3296  2.6136  0.2035
 7969SOL     OW25007   0.161   3.862   4.808 -0.0424 -0.3673  0.1719
 7969SOL    HW125008   0.077   3.907   4.821 -0.2286  0.0644 -2.1057
 7969SOL    HW225009   0.201   3.908   4.735  3.1248  0.6746  2.3426
 7970SOL     OW25010   4.925   1.467   7.365  0.3888  0.4798  0.0817
 7970SOL    HW125011   4.879   1.459   7.282  0.9290  0.4054 -0.2172
 7970SOL    HW225012   4.882   1.540   7.409  3.1693  3.9298 -2.3543
 7971SOL     OW25013   5.487   5.808   8.837 -0.3333 -0.1650  0.1214
 7971SOL    HW125014   5.557   5.760   8.793 -0.9291  0.1665 -1.2276
 7971SOL    HW225015   5.508   5.900   8.822 -0.4447 -0.0416  0.7057
 7972SOL     OW25016   7.284   9.008   6.728 -0.3228 -0.1049  0.0136
 7972SOL    HW125017   7.346   9.073   6.761 -0.9641  0.5548 -0.0548
 7972SOL    HW225018   7.209   9.059   6.699 -0.9023 -0.8884  0.0931
 7973SOL     OW25019   4.733   6.753   0.988  0.1168 -0.1580  0.4612
 7973SOL    HW125020   4.715   6.676   0.935  0.0722  0.5210 -0.5503
 7973SOL    HW225021   4.688   6.825   0.943  0.1371  0.4577  1.3848
 7974SOL     OW25022   8.138   0.210   3.915 -0.7816  0.0476 -0.0934
 7974SOL    HW125023   8.133   0.305   3.920 -0.4363  0.0639 -0.0335
 7974SOL    HW225024   8.048   0.182   3.896 -0.6057  0.5000 -1.7600
 7975SOL     OW25025   0.607   5.342   0.001  0.2435  0.3634  0.2430
 7975SOL    HW125026   0.548   5.391   0.059  0.7476  0.7608  0.4194
 7975SOL    HW225027   0.550   5.276  -0.039 -0.4220  0.9942  0.1059
 7976SOL     OW25028   8.137   3.737   6.982 -0.4871  0.1331 -0.4706
 7976SOL    HW125029   8.131   3.833   6.992 -0.2677  0.1188 -0.1825
 7976SOL    HW225030   8.050   3.711   6.950 -0.0256  0.6166 -2.2196
 7977SOL     OW25031   1.492   0.971   0.570 -0.6686 -0.1923  0.2263
 7977SOL    HW125032   1.483   1.006   0.658  0.4248  3.4195 -0.9100
 7977SOL    HW225033   1.586   0.956   0.559 -0.5057  1.4069 -0.9188
 7978SOL     OW25034   1.970   7.134   1.206  0.2467 -0.0797  0.0513
 7978SOL    HW125035   2.006   7.122   1.118  0.2029 -0.0312  0.0273
 7978SOL    HW225036   2.033   7.191   1.250  0.5791 -0.5816  0.2397
 7979SOL     OW25037   6.886   8.897   3.273 -0.0829 -0.3622 -0.1395
 7979SOL    HW125038   6.959   8.873   3.330  0.5492  0.2519 -0.6701
 7979SOL    HW225039   6.859   8.983   3.305  0.5135  0.1491 -0.9813
 7980SOL     OW25040   3.674   8.337   1.698 -0.3475  0.4690 -0.2181
 7980SOL    HW125041   3.650   8.279   1.626  1.8373 -1.2669  0.3091
 7980SOL    HW225042   3.738   8.397   1.659 -1.5402  1.6400 -0.4237
 7981SOL     OW25043   6.798   3.700   0.269 -0.2362 -0.1778  0.3863
 7981SOL    HW125044   6.732   3.696   0.338  0.9110 -1.8654  1.4698
 7981SOL    HW225045   6.835   3.788   0.276 -1.0340  0.1140  1.0468
 7982SOL     OW25046   1.810   3.190   3.077 -0.6020  0.2411 -0.1986
 7982SOL    HW125047   1.835   3.129   3.147 -1.6846  0.2475  0.2189
 7982SOL    HW225048   1.872   3.262   3.085 -1.6028  0.9784  1.7837
 7983SOL     OW25049   1.947   3.670   5.850 -0.3038 -0.4767 -0.3221
 7983SOL    HW125050   1.923   3.620   5.772 -0.4724  0.7077 -1.0566
 7983SOL    HW225051   1.885   3.744   5.851 -0.3873 -0.5339  1.0105
 7984SOL     OW25052   3.963   2.644   8.253 -0.1118  0.3786 -0.2370
 7984SOL    HW125053   4.030   2.576   8.247 -1.5267 -1.9522  4.7920
 7984SOL    HW225054   4.002   2.711   8.308 -0.8680  0.4717  0.2023
 7985SOL     OW25055   5.273   8.616   8.896 -0.6096  0.0486  0.1167
 7985SOL    HW125056   5.217   8.564   8.954 -0.2540  1.3804  1.7477
 7985SOL    HW225057   5.317   8.677   8.955  0.5241  0.8282 -1.4755
 7986SOL     OW25058   5.959   3.387   4.628  0.0589  0.0099  0.1456
 7986SOL    HW125059   6.054   3.396   4.621  0.0876 -0.7010 -0.4951
 7986SOL    HW225060   5.925   3.477   4.622  0.6644  0.2315  0.0434
 7987SOL     OW25061   0.353   1.783   8.162  0.0311 -0.2943  0.4102
 7987SOL    HW125062   0.298   1.707   8.143 -2.0450  0.8413  1.4934
 7987SOL    HW225063   0.347   1.838   8.083 -1.0844  0.1689  0.7866
 7988SOL     OW25064   1.431   1.162   7.469 -0.4922 -0.2643  0.3961
 7988SOL    HW125065   1.509   1.152   7.523 -0.0158  1.7675  0.1566
 7988SOL    HW225066   1.390   1.243   7.500 -1.7864 -0.6044 -0.3572
 7989SOL     OW25067   4.742   2.297   0.751 -0.3069 -0.1543 -0.0061
 7989SOL    HW125068   4.679   2.234   0.717  1.5053 -2.1617  0.1020
 7989SOL    HW225069   4.791   2.326   0.674  0.1324 -0.4082  0.1706
 7990SOL     OW25070   1.309   4.492   5.847 -0.6711  0.0554 -0.4739
 7990SOL    HW125071   1.379   4.436   5.881 -0.9373  0.7310  1.3216
 7990SOL    HW225072   1.247   4.431   5.807 -0.9683 -0.9817  1.4441
 7991SOL     OW25073   7.895   2.172   1.668  0.5991  0.0277  0.1651
 7991SOL    HW125074   7.889   2.086   1.709  0.5885  0.3294  0.8125
 7991SOL    HW225075   7.848   2.230   1.727  0.4275  0.4440 -0.3718
 7992SOL     OW25076   3.900   3.704   7.745  0.2723 -0.3683  0.3344
 7992SOL    HW125077   3.815   3.682   7.783 -0.4399  0.7181 -0.5694
 7992SOL    HW225078   3.879   3.751   7.664  1.7051  1.5925  1.0393
 7993SOL     OW25079   4.799   7.886   4.758  0.0221 -0.4296  0.1721
 7993SOL    HW125080   4.885   7.864   4.722  1.3782  2.4773  1.3810
 7993SOL    HW225081   4.808   7.873   4.852 -0.7272  0.3020  0.3539
 7994SOL     OW25082   0.790   1.031   3.860  0.5831  0.2661  0.3443
 7994SOL    HW125083   0.726   1.000   3.924 -1.0263  1.6526 -0.5003
 7994SOL    HW225084   0.845   0.955   3.841 -0.3860 -0.7919  1.6083
 7995SOL     OW25085   0.541   3.089   1.368  0.0289  0.3520 -0.2464
 7995SOL    HW125086   0.479   3.080   1.440 -1.3457  0.0147 -1.4257
 7995SOL    HW225087   0.503   3.156   1.311  0.0045 -0.8179 -1.6784
 7996SOL     OW25088   2.256   6.072   2.507 -0.3198  0.3740 -0.4603
 7996SOL    HW125089   2.258   6.130   2.583 -1.4069  0.4976 -0.5110
 7996SOL    HW225090   2.335   6.018   2.516  1.5411  2.7815 -1.1814
 7997SOL     OW25091   1.865   5.466   6.377 -0.0466 -0.7914  0.6118
 7997SOL    HW125092   1.874   5.548   6.328  2.6042 -1.1365  0.3676
 7997SOL    HW225093   1.868   5.398   6.310  1.5578 -1.1889  1.0447
 7998SOL     OW25094   3.529   0.783   6.821 -0.0600 -0.3990  0.0520
 7998SOL    HW125095   3.612   0.739   6.803 -0.2543 -0.0484 -1.9629
 7998SOL    HW225096   3.548   0.841   6.895  1.4380 -0.4634 -0.2567
 7999SOL     OW25097   5.969   1.104   0.136 -0.1076 -0.1262 -0.0057
 7999SOL    HW125098   5.921   1.172   0.183 -1.3332 -0.4426 -0.7665
 7999SOL    HW225099   5.927   1.022   0.164 -1.9822 -0.2380 -2.8285
 8000SOL     OW25100   1.311   0.254   1.057  0.4369 -0.4819 -0.0598
 8000SOL    HW125101   1.283   0.345   1.055  0.4913 -0.4020  1.6372
 8000SOL    HW225102   1.352   0.240   0.972 -0.5094  0.7547 -0.7654
 8001SOL     OW25103   5.222   6.692   6.942 -0.3320  0.2305 -0.1371
 8001SOL    HW125104   5.157   6.748   6.898 -1.0173  0.8308  1.5245
 8001SOL    HW225105   5.235   6.734   7.027  1.7102 -0.3035 -0.1324
 8002SOL     OW25106   4.726   3.956   5.795 -0.2045 -0.2578 -0.2620
 8002SOL    HW125107   4.783   4.006   5.736  1.0008 -2.1313 -0.7633
 8002SOL    HW225108   4.766   3.967   5.881 -0.6425  0.5874 -0.1528
 8003SOL     OW25109   6.072   2.999   6.448  0.2869  0.2189 -0.2173
 8003SOL    HW125110   6.108   3.030   6.365 -1.5591 -0.4715 -1.3531
 8003SOL    HW225111   6.136   2.936   6.481  0.8015  0.1158 -1.3841
 8004SOL     OW25112   0.572   6.459   8.497  0.0561 -0.6464 -0.4251
 8004SOL    HW125113   0.533   6.524   8.555 -0.9223 -1.5787 -0.0039
 8004SOL    HW225114   0.644   6.505   8.454 -0.3108  0.5632  0.2176
 8005SOL     OW25115   7.777   8.915   0.463  0.4527  0.4530  0.4631
 8005SOL    HW125116   7.684   8.912   0.443  0.0713 -0.7814  2.1303
 8005SOL    HW225117   7.809   8.994   0.420 -1.1657  0.4129 -0.9017
 8006SOL     OW25118   5.424   2.011   8.221 -0.0855 -0.1338  0.1838
 8006SOL    HW125119   5.501   2.033   8.273 -1.0268 -0.1004  1.6282
 8006SOL    HW225120   5.383   1.938   8.268 -1.4861  0.5155  0.0231
 8007SOL     OW25121   4.935   8.308   9.039  0.0866  0.2790  0.0495
 8007SOL    HW125122   4.842   8.286   9.034  0.2120 -0.0850 -0.8444
 8007SOL    HW225123   4.966   8.265   9.119 -0.3159 -0.3421 -0.1267
 8008SOL     OW25124   0.121   1.674   8.943  0.2352  0.0912  0.2770
 8008SOL    HW125125   0.045   1.693   8.997  0.1902 -0.9490  0.5887
 8008SOL    HW225126   0.196   1.684   9.002  0.1844 -1.0670  0.5577
 8009SOL     OW25127   1.202   4.656   2.295 -0.1256 -0.3098  0.1746
 8009SOL    HW125128   1.243   4.640   2.380  0.2574 -0.5206 -0.0505
 8009SOL    HW225129   1.217   4.576   2.245  1.3079  0.4939 -0.7552
 8010SOL     OW25130   2.386   6.000   5.078  0.0425  0.6186  0.0240
 8010SOL    HW125131   2.313   5.953   5.037  0.4990  0.9196 -1.1453
 8010SOL    HW225132   2.359   6.008   5.170 -1.0011 -0.0457 -0.1987
 8011SOL     OW25133   7.751   2.499   7.308 -0.0834 -0.7074 -0.1847
 8011SOL    HW125134   7.699   2.572   7.342 -0.5699 -1.2803  0.3201
 8011SOL    HW225135   7.834   2.539   7.282  0.0588 -0.1359  1.0659
 8012SOL     OW25136   0.045   5.199   8.485  0.0803 -0.6801  0.7508
 8012SOL    HW125137  -0.009   5.126   8.455 -1.4514  1.1816 -1.4250
 8012SOL    HW225138   0.005   5.226   8.568  0.2305 -1.8425  1.2119
 8013SOL     OW25139   8.000   4.544   2.443  0.9492  0.2729 -0.1802
 8013SOL    HW125140   8.032   4.631   2.421  0.2796  0.7630  0.6862
 8013SOL    HW225141   8.021   4.534   2.536  1.5617 -0.7404 -0.4245
 8014SOL     OW25142   5.149   0.610   1.726  0.0429  0.2714  0.3321
 8014SOL    HW125143   5.071   0.561   1.698 -1.2419  2.4381 -0.0859
 8014SOL    HW225144   5.212   0.542   1.751 -1.7980 -1.5751  0.2342
 8015SOL     OW25145   0.415   2.839   0.652  0.6219  0.2681  0.6000
 8015SOL    HW125146   0.481   2.790   0.701  1.3187  0.0284 -0.5482
 8015SOL    HW225147   0.462   2.875   0.577  0.1753  2.8187  1.4133
 8016SOL     OW25148   0.255   6.674   7.104 -0.2790 -0.2542 -0.2723
 8016SOL    HW125149   0.180   6.708   7.153  0.1345 -1.7214  1.4767
 8016SOL    HW225150   0.230   6.684   7.012 -2.9773 -1.4402  0.2451
 8017SOL     OW25151   6.875   7.870   3.336  0.1201  0.3542  0.8195
 8017SOL    HW125152   6.951   7.815   3.317  1.4669  1.1612  3.3440
 8017SOL    HW225153   6.808   7.808   3.368 -0.4843 -0.3934 -1.6707
 8018SOL     OW25154   0.787   5.307   0.977  0.2858  0.2174 -0.5753
 8018SOL    HW125155   0.853   5.251   1.018  0.7150  0.9240 -0.2889
 8018SOL    HW225156   0.832   5.389   0.960 -0.9087  1.2471  1.0061
 8019SOL     OW25157   3.088   2.299   7.774  0.2313 -0.3472 -0.7950
 8019SOL    HW125158   3.043   2.374   7.735 -0.3038 -0.7173 -0.9072
 8019SOL    HW225159   3.112   2.244   7.699  0.3019 -0.4595 -0.6908
 8020SOL     OW25160   6.078   8.196   8.332  0.4097 -0.3527  0.9384
 8020SOL    HW125161   6.156   8.142   8.339  1.2618  0.8000  0.6266
 8020SOL    HW225162   6.105   8.282   8.365 -0.7419  0.0459  0.8862
 8021SOL     OW25163   0.803   5.033   6.451  0.1706 -0.7275  0.3697
 8021SOL    HW125164   0.872   5.099   6.455  0.0931 -0.5183 -1.1683
 8021SOL    HW225165   0.770   5.038   6.361 -1.2334 -1.4533  0.8156
 8022SOL     OW25166   0.309   7.079   1.789 -0.2273  0.2719  0.6636
 8022SOL    HW125167   0.268   7.029   1.860  0.0633 -0.0954  0.5720
 8022SOL    HW225168   0.385   7.027   1.763 -0.8676 -0.0827 -0.5739
 8023SOL     OW25169   7.853   0.629   0.147  0.3455 -0.5794  0.3024
 8023SOL    HW125170   7.936   0.622   0.099  0.8804  1.7907  0.7624
 8023SOL    HW225171   7.876   0.612   0.238 -0.3346 -3.1596  0.0827
 8024SOL     OW25172   5.002   6.423   4.002 -0.0265 -0.1890  0.5099
 8024SOL    HW125173   4.963   6.345   3.961 -0.4833 -0.1129  0.7927
 8024SOL    HW225174   5.046   6.389   4.079 -1.9920  0.0596  1.8205
 8025SOL     OW25175   6.152   3.292   4.176 -0.4801  0.0600 -0.1949
 8025SOL    HW125176   6.059   3.284   4.196 -0.9032  0.7019 -1.7062
 8025SOL    HW225177   6.195   3.223   4.227 -2.0547 -1.6694 -1.0864
 8026SOL     OW25178   1.215   8.814   3.830  0.1757 -0.1907  0.6063
 8026SOL    HW125179   1.172   8.857   3.904 -0.4028 -2.9734  2.0072
 8026SOL    HW225180   1.173   8.853   3.753 -0.4428  1.5547  1.7433
 8027SOL     OW25181   2.167   6.440   3.802  0.1240 -0.1674 -0.3701
 8027SOL    HW125182   2.108   6.443   3.877  1.6760  1.0596  0.8634
 8027SOL    HW225183   2.196   6.349   3.799  0.0520 -0.2305  0.5325
 8028SOL     OW25184   6.231   4.573   8.970  0.3290  0.0343  0.4343
 8028SOL    HW125185   6.322   4.589   8.998  0.2635 -0.1678  0.7669
 8028SOL    HW225186   6.236   4.493   8.917  0.4638  0.4529 -0.1939
 8029SOL     OW25187   1.091   1.691   1.730  0.2987 -0.4607  0.0809
 8029SOL    HW125188   1.030   1.638   1.782 -0.0040  0.4896  0.7305
 8029SOL    HW225189   1.159   1.717   1.793  0.6948 -0.4653 -0.3412
 8030SOL     OW25190   0.218   7.456   2.260 -0.2064  0.2163  0.0383
 8030SOL    HW125191   0.291   7.508   2.224 -0.0633 -1.2996 -2.0883
 8030SOL    HW225192   0.140   7.494   2.219 -0.4251  0.6394  0.8380
 8031SOL     OW25193   8.690   2.131   7.625 -0.0576  0.0069 -0.4603
 8031SOL    HW125194   8.685   2.078   7.704  1.3422 -0.9586 -0.9808
 8031SOL    HW225195   8.622   2.198   7.637 -1.9546 -1.9036  0.1880
 8032SOL     OW25196   6.835   2.316   7.775  0.2771  0.2342 -0.1305
 8032SOL    HW125197   6.812   2.338   7.865  0.4244 -0.6092  0.1173
 8032SOL    HW225198   6.928   2.297   7.778  0.1508 -0.4194 -0.3408
 8033SOL     OW25199   0.109   3.764   2.716 -0.4881 -0.3180 -0.4313
 8033SOL    HW125200   0.080   3.699   2.652 -0.6287 -0.1826 -0.5085
 8033SOL    HW225201   0.162   3.826   2.664  1.8989 -1.7809  0.0940
 8034SOL     OW25202   8.724   0.463   0.019 -0.0351 -0.0242  0.2688
 8034SOL    HW125203   8.632   0.487   0.026 -0.5441 -2.1342  1.9883
 8034SOL    HW225204   8.728   0.401  -0.054 -0.1631 -0.5138  0.6646
 8035SOL     OW25205   6.575   0.700   0.397  0.2995 -0.2409 -0.1013
 8035SOL    HW125206   6.624   0.748   0.330  0.2439  0.3458  0.2733
 8035SOL    HW225207   6.636   0.692   0.471 -0.3845  1.1282  0.6451
 8036SOL     OW25208   8.075   4.854   0.978 -0.0768 -0.1682 -0.3860
 8036SOL    HW125209   7.995   4.879   1.024  0.8019  1.7132  0.2386
 8036SOL    HW225210   8.048   4.785   0.917 -2.5971  1.8578 -1.7188
 8037SOL     OW25211   8.058   4.728   3.620  0.2426 -0.1911  0.2531
 8037SOL    HW125212   7.984   4.788   3.605 -0.5680 -1.3837 -0.8303
 8037SOL    HW225213   8.113   4.773   3.683 -0.0481  1.9389 -0.8932
 8038SOL     OW25214   8.660   2.469   7.588  0.3591 -0.4800 -0.0114
 8038SOL    HW125215   8.661   2.474   7.493 -1.1863  1.2595  0.0108
 8038SOL    HW225216   8.568   2.461   7.611  0.5213  1.0693  1.3723
 8039SOL     OW25217   8.774   6.618   5.162  0.0111  0.5809  0.1746
 8039SOL    HW125218   8.779   6.644   5.253  1.3180 -2.8924  1.2483
 8039SOL    HW225219   8.864   6.625   5.130 -0.1692  0.3518 -0.3935
 8040SOL     OW25220   3.438   7.526   0.321 -0.0890 -0.5854  0.0210
 8040SOL    HW125221   3.390   7.570   0.251 -1.1703 -1.6302  0.0752
 8040SOL    HW225222   3.504   7.473   0.275 -0.1980 -0.5727 -0.1516
 8041SOL     OW25223   3.118   6.078   6.096  0.1941 -0.2161  0.2722
 8041SOL    HW125224   3.212   6.096   6.099 -0.0704  1.3315  0.1639
 8041SOL    HW225225   3.104   6.039   6.010  0.2694  2.8748 -1.2821
 8042SOL     OW25226   4.029   8.977   3.430 -0.1582 -0.4662 -0.0610
 8042SOL    HW125227   4.012   9.039   3.500  0.1427  0.0437 -0.4361
 8042SOL    HW225228   4.057   9.031   3.356 -1.2625 -0.9161 -0.8379
 8043SOL     OW25229   3.017   3.260   1.140 -0.8669  0.5119  0.0790
 8043SOL    HW125230   3.095   3.275   1.086 -0.4936  0.7101  0.6701
 8043SOL    HW225231   2.945   3.255   1.076 -0.2582 -0.6704 -0.5582
 8044SOL     OW25232   8.422   3.362   3.030 -0.2477  0.0412  0.2754
 8044SOL    HW125233   8.423   3.271   3.058  0.6336 -0.3598 -0.9993
 8044SOL    HW225234   8.457   3.411   3.105 -0.2141 -0.7221  0.7634
 8045SOL     OW25235   0.786   7.118   8.593 -0.2119  0.2770  0.3923
 8045SOL    HW125236   0.696   7.148   8.606  0.5158  2.1313  1.5816
 8045SOL    HW225237   0.800   7.055   8.664 -1.0654 -1.3508 -0.8224
 8046SOL     OW25238   0.604   7.230   5.759 -0.1921  0.4907 -0.7332
 8046SOL    HW125239   0.665   7.279   5.814  0.8309  0.5470 -1.8854
 8046SOL    HW225240   0.559   7.296   5.708 -0.1938  0.3605 -0.9029
 8047SOL     OW25241   6.512   2.098   5.488  0.1359 -0.1172 -0.2046
 8047SOL    HW125242   6.452   2.024   5.474 -3.0929  1.7794  2.2295
 8047SOL    HW225243   6.547   2.085   5.576  0.4933  0.6580 -0.2227
 8048SOL     OW25244   2.604   0.039   7.663 -0.0994  0.7367 -0.4481
 8048SOL    HW125245   2.570   0.119   7.704  1.4444  0.2655  1.9923
 8048SOL    HW225246   2.548   0.024   7.587 -3.7780  1.2140  1.9741
 8049SOL     OW25247   5.687   7.334   4.975  0.1687 -0.2739  0.3079
 8049SOL    HW125248   5.610   7.338   5.032 -0.5708  0.5429 -0.7284
 8049SOL    HW225249   5.732   7.417   4.990  0.3599 -0.3626  0.2292
 8050SOL     OW25250   4.148   2.399   2.692 -0.4206 -0.2078  0.1775
 8050SOL    HW125251   4.086   2.369   2.626 -2.0798  0.8138  1.2063
 8050SOL    HW225252   4.154   2.327   2.755 -0.6641 -0.2618  0.1392
 8051SOL     OW25253   2.715   4.982   2.114 -0.6211  0.3050  0.0321
 8051SOL    HW125254   2.680   4.927   2.044 -1.9164 -1.4979  1.9741
 8051SOL    HW225255   2.806   4.954   2.122 -0.5276  0.3529 -0.7211
 8052SOL     OW25256   7.607   7.814   6.132  0.0352  0.3299  0.2511
 8052SOL    HW125257   7.534   7.753   6.118 -0.3199  1.0175 -0.9865
 8052SOL    HW225258   7.570   7.900   6.112  0.7861  0.8598  1.0965
 8053SOL     OW25259   4.593   2.966   3.252 -0.0024 -0.2591  0.0809
 8053SOL    HW125260   4.633   2.931   3.172  0.6759 -1.0563  0.7481
 8053SOL    HW225261   4.663   2.962   3.317 -0.7944 -0.4289  0.9405
 8054SOL     OW25262   6.940   4.613   0.985 -0.4979  0.3703  0.0993
 8054SOL    HW125263   6.944   4.687   1.045 -0.9411 -1.2030  2.2092
 8054SOL    HW225264   7.010   4.555   1.014  0.6697  0.4638 -2.3148
 8055SOL     OW25265   1.500   2.526   0.990  0.1403  0.3995 -0.1731
 8055SOL    HW125266   1.526   2.525   0.898 -1.7561 -3.0446 -0.8055
 8055SOL    HW225267   1.463   2.614   1.003  2.4454  1.7757 -1.9700
 8056SOL     OW25268   5.609   0.130   1.517  0.4653 -0.1994  0.6546
 8056SOL    HW125269   5.589   0.218   1.486  0.2153 -1.2142 -2.3672
 8056SOL    HW225270   5.526   0.097   1.551  0.3109  0.3541  0.8224
 8057SOL     OW25271   0.050   2.218   7.819  0.3733 -0.3122  0.1348
 8057SOL    HW125272   0.046   2.134   7.773 -0.9690 -0.5878  0.7275
 8057SOL    HW225273  -0.029   2.221   7.872  0.6282  1.1347  0.4819
 8058SOL     OW25274   7.396   8.391   2.751 -0.6659 -0.4550  0.1275
 8058SOL    HW125275   7.467   8.454   2.766 -0.2600 -0.7532 -0.4793
 8058SOL    HW225276   7.440   8.311   2.724 -1.2406 -0.5750 -0.4872
 8059SOL     OW25277   2.511   4.704   4.511 -0.3733 -0.2862  0.0689
 8059SOL    HW125278   2.582   4.641   4.524  0.4965  0.6081 -0.3266
 8059SOL    HW225279   2.538   4.782   4.558 -1.8120 -0.4333  1.2258
 8060SOL     OW25280   0.115   4.490   4.638  0.6982 -0.2597  0.6910
 8060SOL    HW125281   0.167   4.569   4.622  0.1071 -0.1102 -0.5594
 8060SOL    HW225282   0.179   4.421   4.651  1.2567  0.5574  2.7771
 8061SOL     OW25283   4.640   0.787   2.878 -0.2368 -0.3231 -0.2963
 8061SOL    HW125284   4.565   0.760   2.825 -0.9588 -0.7989  0.9240
 8061SOL    HW225285   4.602   0.843   2.946  0.8322  1.2794 -0.9674
 8062SOL     OW25286   0.904   5.114   2.129  0.0037 -0.7113  0.4818
 8062SOL    HW125287   0.908   5.036   2.074 -0.0702 -0.1255 -0.3613
 8062SOL    HW225288   0.990   5.117   2.172  0.3819 -0.6872 -0.2691
 8063SOL     OW25289   0.662   6.130   2.510  0.2968 -0.4943  0.0483
 8063SOL    HW125290   0.734   6.193   2.514  0.0200 -0.2246  0.9574
 8063SOL    HW225291   0.673   6.076   2.588 -0.5593 -0.3809  0.2560
 8064SOL     OW25292   0.947   1.090   7.275  0.5440 -0.2552 -0.2548
 8064SOL    HW125293   0.854   1.070   7.268  1.0912 -2.4859 -2.8624
 8064SOL    HW225294   0.990   1.005   7.269  2.7854  0.7428  0.6505
 8065SOL     OW25295   1.463   8.099   4.095  0.4596 -0.6221  0.6254
 8065SOL    HW125296   1.409   8.092   4.173  2.2059  1.9796  2.2410
 8065SOL    HW225297   1.519   8.021   4.097 -1.3034 -1.9568  0.3925
 8066SOL     OW25298   2.003   5.697   0.170 -0.1790  0.2920 -0.2776
 8066SOL    HW125299   1.996   5.728   0.260  1.5983 -1.0106  0.3431
 8066SOL    HW225300   1.967   5.609   0.172  1.6925 -0.5085 -0.3810
 8067SOL     OW25301   3.566   0.921   3.215  0.4641  0.4360  0.3352
 8067SOL    HW125302   3.538   0.907   3.306  1.2503 -1.4819  0.3110
 8067SOL    HW225303   3.511   0.862   3.164 -0.0321  1.5659 -0.4903
 8068SOL     OW25304   1.029   2.854   5.265  0.0663 -0.5548 -0.3288
 8068SOL    HW125305   1.088   2.901   5.207  0.1169 -0.5481 -0.2715
 8068SOL    HW225306   0.942   2.865   5.225 -0.2371  1.2443  0.7051
 8069SOL     OW25307   7.856   8.814   6.885  0.1945  0.1217 -0.2488
 8069SOL    HW125308   7.813   8.729   6.881  3.1726 -1.4536 -0.9773
 8069SOL    HW225309   7.829   8.857   6.803 -1.3052 -0.0703  0.1105
 8070SOL     OW25310   2.776   4.366   1.644  0.4807  0.1992  0.0451
 8070SOL    HW125311   2.706   4.303   1.630 -0.0659  0.8608 -0.2541
 8070SOL    HW225312   2.849   4.334   1.591  0.2979 -0.3129  0.0986
 8071SOL     OW25313   2.103   3.192   6.828  0.2904 -0.1310  0.1905
 8071SOL    HW125314   2.104   3.200   6.924  2.9031 -0.2407  0.2375
 8071SOL    HW225315   2.091   3.282   6.797  1.3706  0.1787  0.6456
 8072SOL     OW25316   5.772   2.564   5.335  0.1253 -0.1695 -0.2508
 8072SOL    HW125317   5.715   2.640   5.346 -0.2544 -0.6984  1.7547
 8072SOL    HW225318   5.727   2.510   5.270  0.0600  0.9702 -1.1877
 8073SOL     OW25319   8.507   7.871   3.424  0.5798 -0.4072  0.4095
 8073SOL    HW125320   8.454   7.802   3.384  0.9634 -0.0302 -0.8000
 8073SOL    HW225321   8.468   7.884   3.510 -1.2637 -0.1937 -0.4004
 8074SOL     OW25322   6.979   1.876   2.066 -0.3639 -0.0355 -0.1457
 8074SOL    HW125323   6.980   1.821   1.988 -0.7283 -0.5338  0.1988
 8074SOL    HW225324   6.887   1.875   2.095 -0.1771 -0.0820  0.4531
 8075SOL     OW25325   6.100   8.542   6.064  0.4213 -0.1751 -0.4586
 8075SOL    HW125326   6.108   8.491   6.145  0.1157 -0.8050 -0.8194
 8075SOL    HW225327   6.190   8.555   6.034  0.5221 -0.1384 -0.1447
 8076SOL     OW25328   6.471   0.985   0.171  0.5510  0.0806 -0.0505
 8076SOL    HW125329   6.508   1.067   0.203  1.2395 -0.7269  1.3388
 8076SOL    HW225330   6.384   0.981   0.211 -0.5624  1.2942 -2.1665
 8077SOL     OW25331   1.377   1.304   0.477 -0.1996 -0.6520 -0.0199
 8077SOL    HW125332   1.286   1.276   0.486 -0.1395 -1.6924 -2.1318
 8077SOL    HW225333   1.373   1.400   0.477 -1.6096 -0.6405 -2.2613
 8078SOL     OW25334   7.346   6.081   5.175  0.6291  0.1324  0.2772
 8078SOL    HW125335   7.288   6.078   5.099  0.1592  1.6436  0.5458
 8078SOL    HW225336   7.431   6.053   5.141  0.4133  0.7155 -0.7866
 8079SOL     OW25337   1.247   5.149   4.782  0.5759  0.0393  0.0995
 8079SOL    HW125338   1.339   5.155   4.806  0.5479 -3.4683  1.6915
 8079SOL    HW225339   1.200   5.153   4.866 -0.5325 -0.2447 -0.4807
 8080SOL     OW25340   7.755   6.060   5.832 -0.6470 -0.2402  0.0832
 8080SOL    HW125341   7.755   6.139   5.778  0.7860  0.2261  0.6897
 8080SOL    HW225342   7.732   6.091   5.920 -0.1672 -0.4894  0.3068
 8081SOL     OW25343   6.717   2.229   1.390 -0.0999 -1.1090 -0.5503
 8081SOL    HW125344   6.707   2.218   1.485 -0.9895  0.6887 -0.3951
 8081SOL    HW225345   6.627   2.224   1.356 -0.2040  1.4862 -0.8598
 8082SOL     OW25346   7.304   9.126   4.219 -0.0179 -0.3303  0.8233
 8082SOL    HW125347   7.257   9.196   4.174  0.6320  0.3130  1.1373
 8082SOL    HW225348   7.277   9.046   4.173  0.6563  0.3096 -0.7859
 8083SOL     OW25349   1.058   5.859   5.677 -0.2217 -0.3373 -0.2583
 8083SOL    HW125350   1.002   5.807   5.619  0.9707  0.7604 -2.5206
 8083SOL    HW225351   1.014   5.854   5.762 -0.7543 -4.0883 -0.5522
 8084SOL     OW25352   0.123   8.902   7.576  0.0994 -0.2379 -0.2042
 8084SOL    HW125353   0.149   8.987   7.614  0.5814 -0.0745 -0.8699
 8084SOL    HW225354   0.028   8.899   7.587  0.0491  0.4860 -0.3427
 8085SOL     OW25355   2.488   1.724   8.689  0.1503  1.1180 -0.0713
 8085SOL    HW125356   2.408   1.686   8.725 -0.1917  0.5632 -1.3734
 8085SOL    HW225357   2.457   1.791   8.627  0.6489  0.3472 -1.1928
 8086SOL     OW25358   3.816   5.136   4.574 -0.3411 -0.5438 -0.5189
 8086SOL    HW125359   3.831   5.097   4.661  1.1015 -0.0436 -0.5158
 8086SOL    HW225360   3.753   5.207   4.590  1.0021  0.4838  0.4011
 8087SOL     OW25361   0.789   0.770   0.110  0.1193  0.3453 -0.5172
 8087SOL    HW125362   0.721   0.716   0.149  0.1119  1.1758  0.6670
 8087SOL    HW225363   0.789   0.851   0.162  3.2726 -0.3485  0.8417
 8088SOL     OW25364   2.925   7.996   5.754  0.1471 -0.4039 -0.0246
 8088SOL    HW125365   3.012   8.035   5.747  0.1863 -0.4308  0.2720
 8088SOL    HW225366   2.934   7.933   5.826  0.4876 -2.0021 -1.3800
 8089SOL     OW25367   3.213   3.375   0.428  0.0830 -0.3126 -0.0579
 8089SOL    HW125368   3.242   3.345   0.514  0.1629 -2.0434 -0.6425
 8089SOL    HW225369   3.218   3.297   0.373  0.3007  0.8317 -1.7107
 8090SOL     OW25370   0.316   6.558   1.420  0.5052 -0.4538 -0.1427
 8090SOL    HW125371   0.341   6.466   1.424  2.5387  0.0422 -0.1816
 8090SOL    HW225372   0.393   6.602   1.386 -1.3773  0.9461 -2.9516
 8091SOL     OW25373   7.274   7.480   3.363  0.5444  0.8354 -0.3167
 8091SOL    HW125374   7.188   7.440   3.376  1.0253 -0.6585 -1.4306
 8091SOL    HW225375   7.335   7.407   3.367  1.3358  1.1359 -3.9032
 8092SOL     OW25376   4.271   4.493   8.566  0.2722 -0.0698  0.6980
 8092SOL    HW125377   4.181   4.462   8.572  0.3195 -0.4907 -0.5050
 8092SOL    HW225378   4.320   4.437   8.626 -0.1991 -0.0714  1.0878
 8093SOL     OW25379   3.745   8.508   3.344 -0.3669  0.0287  0.0166
 8093SOL    HW125380   3.721   8.555   3.264 -2.8516  0.4260  0.8762
 8093SOL    HW225381   3.749   8.577   3.411  0.0367 -0.4868  0.5291
 8094SOL     OW25382   4.346   5.461   0.974 -0.4083  0.2788 -0.6335
 8094SOL    HW125383   4.418   5.502   0.926 -0.4057  0.8036 -0.1934
 8094SOL    HW225384   4.383   5.380   1.009  0.3493  1.1088  0.5903
 8095SOL     OW25385   6.817   1.816   6.433 -0.0762  0.4448  0.1248
 8095SOL    HW125386   6.781   1.799   6.520  0.3844  0.4464  0.3197
 8095SOL    HW225387   6.905   1.852   6.450 -0.2341  1.0686 -0.3211
 8096SOL     OW25388   8.422   7.922   1.603 -0.2240  0.1692  0.6392
 8096SOL    HW125389   8.342   7.894   1.558  1.4130 -2.0519 -1.1155
 8096SOL    HW225390   8.441   7.852   1.665  0.5590  0.5254  0.8103
 8097SOL     OW25391   8.519   6.493   5.447 -0.0926  0.1958 -0.1698
 8097SOL    HW125392   8.525   6.412   5.398 -0.5780  0.3203 -0.4418
 8097SOL    HW225393   8.492   6.466   5.535 -1.5789  0.1619 -0.6136
 8098SOL     OW25394   2.962   5.714   4.367 -0.0757 -0.2407 -0.3465
 8098SOL    HW125395   2.915   5.749   4.292 -2.1762 -1.7000  0.1819
 8098SOL    HW225396   2.899   5.656   4.410  1.3672 -0.2259  1.9954
 8099SOL     OW25397   6.015   4.306   1.658  0.5474 -0.0652 -0.0873
 8099SOL    HW125398   5.998   4.399   1.674 -1.0124  0.0389 -1.9808
 8099SOL    HW225399   5.947   4.260   1.706  0.8742 -0.1935  0.2545
 8100SOL     OW25400   0.445   8.178   6.070 -0.0809 -0.4479  0.0883
 8100SOL    HW125401   0.376   8.235   6.035  0.0867 -0.5753 -0.4621
 8100SOL    HW225402   0.454   8.204   6.161 -1.0225 -0.5799  0.2319
 8101SOL     OW25403   8.291   7.905   5.634  0.2677  0.1624  0.1652
 8101SOL    HW125404   8.240   7.980   5.663  0.8959  0.3224  0.8643
 8101SOL    HW225405   8.237   7.865   5.565 -0.4894  0.7104  0.4281
 8102SOL     OW25406   7.483   0.206   8.872  0.5156  0.8284 -0.0552
 8102SOL    HW125407   7.439   0.154   8.805 -1.0442 -1.3549  2.4571
 8102SOL    HW225408   7.414   0.261   8.909  1.2736  1.7679 -0.0037
 8103SOL     OW25409   4.704   7.970   3.303 -0.2159 -0.5805  0.2796
 8103SOL    HW125410   4.672   7.883   3.279  1.6077 -1.0361 -0.6197
 8103SOL    HW225411   4.734   8.008   3.221 -1.3289  1.0899  0.5945
 8104SOL     OW25412   5.601   6.941   6.723  0.1981  0.1124  0.2578
 8104SOL    HW125413   5.525   6.968   6.773 -0.5837 -2.2938  0.4805
 8104SOL    HW225414   5.671   7.001   6.751 -1.4076  1.9798  0.4854
 8105SOL     OW25415   5.913   2.758   6.614 -0.2355  0.0299 -1.1342
 8105SOL    HW125416   5.900   2.810   6.694 -0.2968  0.0025 -1.1265
 8105SOL    HW225417   6.006   2.739   6.613 -0.3815 -0.7559 -0.5779
 8106SOL     OW25418   0.607   7.735   8.145  0.0679  0.3918  0.2059
 8106SOL    HW125419   0.675   7.668   8.150  0.1096  0.4135 -0.0302
 8106SOL    HW225420   0.576   7.745   8.235  1.5706  1.6033  0.6454
 8107SOL     OW25421   3.539   6.197   1.035 -0.0712  0.0882 -0.4058
 8107SOL    HW125422   3.572   6.150   0.959  2.1255 -1.1835  1.2182
 8107SOL    HW225423   3.477   6.137   1.076 -2.4311  1.3543 -1.8811
 8108SOL     OW25424   7.158   7.655   1.011  0.1234  0.0812  0.2495
 8108SOL    HW125425   7.072   7.671   1.050  0.7010 -1.0752  2.1514
 8108SOL    HW225426   7.197   7.588   1.067  2.5779  1.1137 -0.1099
 8109SOL     OW25427   2.159   0.924   6.771  0.3298  0.8067  0.5252
 8109SOL    HW125428   2.063   0.930   6.764  0.1651 -0.5208  1.2238
 8109SOL    HW225429   2.184   0.866   6.700  0.7094  1.6889 -0.0731
 8110SOL     OW25430   0.394   5.512   1.234 -0.3057 -0.4061 -0.7908
 8110SOL    HW125431   0.413   5.453   1.307 -1.0054  1.2506  0.7888
 8110SOL    HW225432   0.439   5.593   1.256 -1.8006  0.6436 -1.4171
 8111SOL     OW25433   2.589   7.612   2.545 -0.4603  0.8914  0.2625
 8111SOL    HW125434   2.678   7.603   2.513 -1.0549  1.9634 -1.8618
 8111SOL    HW225435   2.580   7.704   2.568 -0.7524  0.5975  1.4009
 8112SOL     OW25436   6.356   3.468   1.174 -0.2809  0.0317 -0.1927
 8112SOL    HW125437   6.285   3.506   1.226  1.6316  1.6825  1.3777
 8112SOL    HW225438   6.331   3.377   1.162 -1.6416  0.0170  2.1951
 8113SOL     OW25439   2.729   3.793   4.345  0.0324 -0.1294 -0.2599
 8113SOL    HW125440   2.746   3.794   4.250 -0.4751  2.7958 -0.3831
 8113SOL    HW225441   2.785   3.861   4.380 -1.1664  0.1020  1.3005
 8114SOL     OW25442   0.505   5.836   8.867 -0.2394  0.6944  0.1539
 8114SOL    HW125443   0.424   5.852   8.818  0.8532  1.0081 -1.6508
 8114SOL    HW225444   0.512   5.911   8.926 -0.4057  1.5967 -0.9223
 8115SOL     OW25445   2.808   8.240   5.869 -0.1567 -0.3403  0.3371
 8115SOL    HW125446   2.851   8.189   5.801  0.4388 -0.1760  0.5846
 8115SOL    HW225447   2.857   8.323   5.872 -0.3079 -0.2650  0.8162
 8116SOL     OW25448   8.655   2.500   8.434 -0.0821 -0.5770  0.5686
 8116SOL    HW125449   8.648   2.493   8.529 -2.1995  0.1859  0.5210
 8116SOL    HW225450   8.570   2.471   8.401 -0.5337  2.0011 -0.8625
 8117SOL     OW25451   0.214   2.225   0.131 -0.2811  0.3057 -0.1804
 8117SOL    HW125452   0.254   2.174   0.061  1.0869  0.1628  0.6641
 8117SOL    HW225453   0.129   2.251   0.097 -0.3028 -1.1103 -1.2809
 8118SOL     OW25454   7.079   8.399   3.640 -0.3696  0.3972  0.4428
 8118SOL    HW125455   7.133   8.414   3.562  0.1763 -1.0861  0.5140
 8118SOL    HW225456   7.019   8.474   3.641  0.1178  0.8532 -0.9610
 8119SOL     OW25457   9.064   1.009   1.539  0.0816 -0.4275 -0.3123
 8119SOL    HW125458   9.000   0.946   1.508  0.5968 -1.3048  0.3530
 8119SOL    HW225459   9.058   1.005   1.634 -1.0162  1.7391 -0.2308
 8120SOL     OW25460   6.135   6.271   3.127 -0.2470 -0.0888 -0.1383
 8120SOL    HW125461   6.206   6.329   3.097 -1.6966  0.3925 -3.0522
 8120SOL    HW225462   6.066   6.283   3.061 -3.1599 -0.3934  2.6526
 8121SOL     OW25463   1.197   4.061   3.201 -0.8828 -0.4704  0.4569
 8121SOL    HW125464   1.176   4.085   3.291 -0.8814 -0.4243  0.4449
 8121SOL    HW225465   1.147   4.123   3.148 -2.2016 -1.5403  0.3965
 8122SOL     OW25466   7.837   0.619   5.468  0.1951  0.2730  0.6541
 8122SOL    HW125467   7.779   0.580   5.403  0.8542  2.6025 -1.4857
 8122SOL    HW225468   7.818   0.571   5.549 -3.6266 -0.0715 -0.2467
 8123SOL     OW25469   4.693   1.761   0.350  0.0659 -0.2973 -0.0364
 8123SOL    HW125470   4.617   1.818   0.350  0.6998  0.5754  0.6658
 8123SOL    HW225471   4.668   1.687   0.406  1.0349  1.9084  3.6691
 8124SOL     OW25472   4.053   8.721   6.260  0.1347 -0.3516 -0.0959
 8124SOL    HW125473   3.983   8.771   6.303  0.2880 -0.3905  0.1998
 8124SOL    HW225474   4.013   8.636   6.242  0.7170 -1.1635  2.0265
 8125SOL     OW25475   3.250   4.586   2.183  0.0332  0.1456  0.5463
 8125SOL    HW125476   3.338   4.622   2.168 -0.0211 -0.0702 -0.3936
 8125SOL    HW225477   3.229   4.540   2.101 -0.3633 -1.0590  1.3041
 8126SOL     OW25478   5.295   8.044   2.117  0.5328  0.5643  0.7406
 8126SOL    HW125479   5.383   8.014   2.094  0.0649  0.3705 -0.9019
 8126SOL    HW225480   5.261   8.085   2.038 -1.1599 -0.0917  1.0762
 8127SOL     OW25481   5.372   3.433   5.653 -0.3640  0.1258  0.0990
 8127SOL    HW125482   5.388   3.526   5.666  1.9196  0.0425 -1.4849
 8127SOL    HW225483   5.449   3.390   5.691 -0.2675 -0.9407 -1.2443
 8128SOL     OW25484   6.936   8.634   4.904  1.0733 -0.4116  0.4775
 8128SOL    HW125485   6.851   8.641   4.861  1.1333 -0.7276  0.3018
 8128SOL    HW225486   6.963   8.724   4.922  1.0146 -0.2825 -0.0849
 8129SOL     OW25487   6.379   8.961   6.662  0.4430 -0.2593  0.5672
 8129SOL    HW125488   6.467   8.926   6.680  1.2724  2.1007  1.5410
 8129SOL    HW225489   6.389   9.055   6.673 -1.9828  0.1784 -0.4873
 8130SOL     OW25490   2.915   0.494   3.607 -0.4029 -0.1433 -0.0704
 8130SOL    HW125491   2.986   0.448   3.651 -0.9310 -1.9213 -1.0124
 8130SOL    HW225492   2.958   0.546   3.539  0.2659  1.4757  1.4916
 8131SOL     OW25493   8.218   6.023   6.980  0.1023  0.4505 -0.3154
 8131SOL    HW125494   8.141   6.006   6.926  1.2784 -1.1232 -1.5910
 8131SOL    HW225495   8.240   6.115   6.963  0.1905  0.1118 -2.2226
 8132SOL     OW25496   6.345   3.820   1.536  0.7185 -0.7274  0.1234
 8132SOL    HW125497   6.398   3.779   1.468  1.5559  1.7363 -0.8464
 8132SOL    HW225498   6.286   3.879   1.488 -0.0563 -0.3882  1.4440
 8133SOL     OW25499   0.906   5.733   3.200 -0.3501 -0.1172 -0.4695
 8133SOL    HW125500   0.986   5.687   3.176 -1.3588 -2.2973  0.0782
 8133SOL    HW225501   0.905   5.810   3.144  0.7560 -1.4903 -2.5239
 8134SOL     OW25502   0.067   4.773   0.656 -0.4373  0.3002  0.4122
 8134SOL    HW125503   0.138   4.816   0.609 -0.1845 -0.1011  0.4214
 8134SOL    HW225504   0.065   4.817   0.741 -1.6288  1.7999 -0.3395
 8135SOL     OW25505   3.094   1.324   0.036 -0.3515 -0.1512  0.2199
 8135SOL    HW125506   3.071   1.240  -0.003 -2.8845  0.6402 -0.1227
 8135SOL    HW225507   3.124   1.302   0.124 -2.6052 -1.3408  0.7679
 8136SOL     OW25508   1.116   8.657   2.851 -0.0235 -0.2383  0.3219
 8136SOL    HW125509   1.124   8.672   2.946  1.7226 -0.7190  0.2813
 8136SOL    HW225510   1.200   8.686   2.815 -1.1153  1.1937 -1.2852
 8137SOL     OW25511   6.778   1.867   8.555  0.6549  0.5819  0.4232
 8137SOL    HW125512   6.829   1.793   8.588 -0.2130  0.1209  0.7720
 8137SOL    HW225513   6.783   1.861   8.460 -0.4320 -0.6788  0.4202
 8138SOL     OW25514   6.409   8.557   8.489  0.0647  0.2769 -0.7065
 8138SOL    HW125515   6.390   8.651   8.489  0.6262  0.4246  1.0102
 8138SOL    HW225516   6.348   8.520   8.553  2.3115  0.0971  1.4851
 8139SOL     OW25517   4.965   2.271   7.788 -0.2068  0.5676  0.5124
 8139SOL    HW125518   5.039   2.333   7.786  0.1347  0.1718  0.7052
 8139SOL    HW225519   4.991   2.206   7.853 -1.5981  1.4992  2.0746
 8140SOL     OW25520   0.657   6.469   5.772 -0.8736 -0.0978 -0.1973
 8140SOL    HW125521   0.600   6.471   5.849 -1.7220 -0.6687 -0.7922
 8140SOL    HW225522   0.678   6.376   5.760  1.6352  0.2344  1.0252
 8141SOL     OW25523   1.423   7.797   9.010  0.3450 -0.0492  0.3394
 8141SOL    HW125524   1.469   7.725   8.968 -0.8309 -0.8565  0.4111
 8141SOL    HW225525   1.472   7.875   8.983  1.8182 -0.8781  0.5100
 8142SOL     OW25526   6.374   2.370   0.723  0.0004  0.5109 -0.7884
 8142SOL    HW125527   6.420   2.315   0.661  0.0136 -0.4839  0.0686
 8142SOL    HW225528   6.283   2.372   0.692  0.3625  1.5466 -1.8463
 8143SOL     OW25529   2.555   6.049   0.570  0.4080  0.4620 -0.4816
 8143SOL    HW125530   2.567   5.963   0.530 -2.6471  0.1982 -1.0615
 8143SOL    HW225531   2.543   6.108   0.496 -1.1979  0.6827 -0.0786
 8144SOL     OW25532   4.445   4.585   2.781  0.7208  0.1926  0.3163
 8144SOL    HW125533   4.445   4.650   2.852  1.4002  0.5847 -0.0265
 8144SOL    HW225534   4.376   4.614   2.722  0.8787  0.4924  0.2728
 8145SOL     OW25535   5.084   8.817   8.750  0.3062 -1.0350 -0.3660
 8145SOL    HW125536   4.989   8.805   8.752  0.2673 -0.8748 -0.9831
 8145SOL    HW225537   5.119   8.734   8.780 -0.0236 -1.2831 -0.6589
 8146SOL     OW25538   0.057   7.077   8.888 -0.1140  0.8868  0.1645
 8146SOL    HW125539   0.118   7.150   8.879  0.9483  0.1935  1.4213
 8146SOL    HW225540   0.018   7.068   8.801  3.7992 -0.5644 -1.7135
 8147SOL     OW25541   8.764   2.876   1.452  0.1724  0.0959 -0.0137
 8147SOL    HW125542   8.732   2.930   1.524  1.9888  1.3709 -0.1084
 8147SOL    HW225543   8.708   2.900   1.378 -1.2288 -0.6901  0.7508
 8148SOL     OW25544   3.939   0.336   0.821 -0.1397  0.0212 -0.2481
 8148SOL    HW125545   3.917   0.275   0.750  0.2611 -0.8973  0.3855
 8148SOL    HW225546   3.892   0.302   0.897  0.0686  0.5234  0.1096
 8149SOL     OW25547   2.639   3.636   4.969 -0.7851  0.2056  0.2792
 8149SOL    HW125548   2.672   3.725   4.983  1.3475 -0.5623  0.5416
 8149SOL    HW225549   2.562   3.630   5.024 -0.6133  1.6959  0.7295
 8150SOL     OW25550   6.622   4.670   6.256  0.1978 -0.2364 -0.2475
 8150SOL    HW125551   6.650   4.579   6.262  1.9531  0.2756 -0.3579
 8150SOL    HW225552   6.702   4.721   6.265 -0.9940  1.4132  2.0054
 8151SOL     OW25553   5.808   1.400   3.129 -0.0114 -0.6547 -0.3597
 8151SOL    HW125554   5.742   1.428   3.192  0.4736 -0.8918  0.2590
 8151SOL    HW225555   5.825   1.477   3.075 -0.3247 -0.4135 -0.1157
 8152SOL     OW25556   8.309   6.221   7.863  0.0065 -0.3289 -1.0781
 8152SOL    HW125557   8.279   6.158   7.929  0.2259 -1.1632 -1.7548
 8152SOL    HW225558   8.242   6.290   7.864  1.0090  0.7475  1.4321
 8153SOL     OW25559   5.934   4.558   4.727 -0.5125 -0.1156 -0.4142
 8153SOL    HW125560   5.936   4.462   4.728  0.6872 -0.1047  0.0034
 8153SOL    HW225561   5.995   4.584   4.797 -1.2977  0.9521 -0.0976
 8154SOL     OW25562   1.023   0.797   7.182 -0.2024  0.0570  0.1152
 8154SOL    HW125563   1.069   0.805   7.099  1.9273 -1.7956  0.9755
 8154SOL    HW225564   0.939   0.757   7.160  1.9596 -4.5979 -0.9612
 8155SOL     OW25565   5.564   3.668   1.126 -0.0520 -0.2895 -0.2680
 8155SOL    HW125566   5.526   3.694   1.210 -0.8182 -0.3856 -0.5791
 8155SOL    HW225567   5.654   3.641   1.148  0.2421  1.0897  0.2921
 8156SOL     OW25568   0.845   5.743   5.540 -0.0662 -0.3739  0.1799
 8156SOL    HW125569   0.753   5.767   5.530 -0.1912 -0.1619  1.5898
 8156SOL    HW225570   0.842   5.655   5.579  0.3130 -0.3432  0.2789
 8157SOL     OW25571   4.358   1.313   7.895  0.6677  0.1629 -0.4318
 8157SOL    HW125572   4.263   1.314   7.887  0.8015  1.0321 -2.3530
 8157SOL    HW225573   4.384   1.227   7.864  0.4512 -0.6707  1.5576
 8158SOL     OW25574   5.000   0.545   6.087  0.0490  0.5089  0.7621
 8158SOL    HW125575   4.925   0.603   6.070  0.5513  1.1700  0.7484
 8158SOL    HW225576   4.961   0.465   6.121 -0.7957  0.2202 -0.7699
 8159SOL     OW25577   1.336   6.383   2.627 -0.2416  0.1211  0.4371
 8159SOL    HW125578   1.344   6.390   2.722  0.0229  0.2429  0.4063
 8159SOL    HW225579   1.243   6.397   2.610  0.0671  2.8172  0.4781
 8160SOL     OW25580   5.558   5.751   7.388  0.5652  0.3019 -0.3924
 8160SOL    HW125581   5.601   5.831   7.356  2.0361 -0.6908 -1.0365
 8160SOL    HW225582   5.624   5.710   7.444  0.2268 -0.9407 -0.8693
 8161SOL     OW25583   6.896   6.448   5.757  0.0749 -0.2000  0.1559
 8161SOL    HW125584   6.947   6.384   5.806  0.9267 -0.5892 -1.1879
 8161SOL    HW225585   6.961   6.497   5.706 -0.8991 -1.2208 -2.1977
 8162SOL     OW25586   6.829   6.190   3.802 -0.2809  0.3409 -0.6569
 8162SOL    HW125587   6.923   6.201   3.797 -0.2232  0.5181  0.5192
 8162SOL    HW225588   6.800   6.183   3.711  0.9125 -0.1513 -1.0119
 8163SOL     OW25589   6.280   6.546   2.459 -0.0665  0.0282  0.0143
 8163SOL    HW125590   6.251   6.596   2.535  0.1033  0.6718 -0.3407
 8163SOL    HW225591   6.262   6.455   2.482 -1.3069  0.3190  0.2622
 8164SOL     OW25592   0.837   6.007   2.010  0.8373  0.2433 -0.5287
 8164SOL    HW125593   0.847   6.102   2.001  1.6781  0.1286 -0.9355
 8164SOL    HW225594   0.766   5.996   2.073  1.0914  1.1480 -0.0689
 8165SOL     OW25595   5.964   2.155   0.841 -0.1103 -0.4927  0.2047
 8165SOL    HW125596   5.909   2.165   0.763  1.9219 -1.5839 -1.4608
 8165SOL    HW225597   6.019   2.079   0.823 -1.7959 -2.9796  4.1672
 8166SOL     OW25598   4.654   3.428   4.852  0.0504 -0.2676  0.1230
 8166SOL    HW125599   4.655   3.411   4.758  1.8650 -0.3141  0.1246
 8166SOL    HW225600   4.740   3.466   4.870 -0.9983  1.6485  1.4290
 8167SOL     OW25601   6.858   1.399   1.979 -0.3643  0.4217  0.5202
 8167SOL    HW125602   6.915   1.474   1.963  0.8838 -0.6850 -0.5468
 8167SOL    HW225603   6.870   1.379   2.072  0.1380  0.8852  0.5581
 8168SOL     OW25604   0.336   1.199   6.047  0.3745  0.5911  0.5241
 8168SOL    HW125605   0.388   1.119   6.038  1.3497  1.1264  1.1223
 8168SOL    HW225606   0.292   1.188   6.131  1.2237  1.0553  1.0462
 8169SOL     OW25607   1.353   8.118   2.092 -0.4003 -0.2303 -0.2625
 8169SOL    HW125608   1.304   8.149   2.015  0.2786  0.7467 -0.3198
 8169SOL    HW225609   1.356   8.023   2.081  1.3522 -0.0360 -2.5470
 8170SOL     OW25610   3.937   2.071   0.529 -0.1996  0.1314 -0.0017
 8170SOL    HW125611   4.033   2.068   0.525 -0.2290 -0.9736 -0.1335
 8170SOL    HW225612   3.912   1.989   0.571 -1.0881  0.5421  0.3005
 8171SOL     OW25613   5.927   3.978   2.320 -0.0792  0.6660  0.5419
 8171SOL    HW125614   5.904   3.996   2.228  0.0051 -0.0369  0.3787
 8171SOL    HW225615   5.924   4.064   2.362 -0.0776  1.0073 -0.1285
 8172SOL     OW25616   8.904   1.956   6.004 -0.1921 -0.3372 -0.3211
 8172SOL    HW125617   8.841   1.998   6.063 -0.2379 -0.3873 -0.3344
 8172SOL    HW225618   8.905   1.864   6.030 -0.4579 -0.4249 -0.6108
 8173SOL     OW25619   5.683   6.248   0.753  0.3387 -0.0339 -0.8184
 8173SOL    HW125620   5.703   6.342   0.747  1.2947 -0.0755  0.9824
 8173SOL    HW225621   5.727   6.220   0.833 -2.6131 -1.3560  0.4582
 8174SOL     OW25622   8.354   5.728   6.411  0.2105 -0.4431 -0.3786
 8174SOL    HW125623   8.318   5.648   6.373 -0.2469 -0.5919  0.3505
 8174SOL    HW225624   8.392   5.700   6.495  0.0210  0.1012 -0.1048
 8175SOL     OW25625   2.551   5.973   2.004 -0.0741 -0.3966 -0.6489
 8175SOL    HW125626   2.555   6.011   2.092 -0.6797 -2.0856  0.1453
 8175SOL    HW225627   2.477   6.017   1.962  1.2415  1.6548 -0.9805
 8176SOL     OW25628   8.878   0.829   1.467  0.0196  0.3731 -0.1459
 8176SOL    HW125629   8.824   0.895   1.422 -1.9264 -0.9778  0.0682
 8176SOL    HW225630   8.879   0.754   1.407 -0.6198 -0.5881  0.9925
 8177SOL     OW25631   3.400   6.309   1.901  0.5339  0.1565 -0.7432
 8177SOL    HW125632   3.437   6.336   1.817 -1.4056  1.4841 -1.2369
 8177SOL    HW225633   3.333   6.374   1.920 -0.9677 -1.6396  0.4955
 8178SOL     OW25634   5.881   8.277   0.792 -0.1447 -0.0215 -0.1994
 8178SOL    HW125635   5.858   8.279   0.885  0.3372  1.6500 -0.0924
 8178SOL    HW225636   5.976   8.263   0.792  0.0280  1.0665 -0.3851
 8179SOL     OW25637   7.658   7.333   7.892 -0.2510 -0.2200 -0.2581
 8179SOL    HW125638   7.577   7.321   7.943 -0.0292  3.6511  1.3550
 8179SOL    HW225639   7.728   7.318   7.955  0.1457  0.5372 -0.5057
 8180SOL     OW25640   3.404   6.507   6.238 -0.1322  0.4457 -0.3503
 8180SOL    HW125641   3.323   6.535   6.194  0.1731 -0.5532 -1.6113
 8180SOL    HW225642   3.473   6.557   6.195  0.0621  0.2645 -0.2474
 8181SOL     OW25643   0.620   0.885   2.247  0.2744 -0.2294  0.5675
 8181SOL    HW125644   0.598   0.795   2.272  0.5406 -0.6178 -0.5717
 8181SOL    HW225645   0.693   0.877   2.186  0.4243  0.7779  0.5865
 8182SOL     OW25646   9.036   8.797   7.938 -0.2804 -0.4419  0.8841
 8182SOL    HW125647   9.031   8.804   7.843  0.2189  1.6701  0.9531
 8182SOL    HW225648   8.972   8.862   7.969  0.6887  0.0406  1.9461
 8183SOL     OW25649   3.959   7.497   4.192  0.4622 -0.2913  0.1818
 8183SOL    HW125650   3.898   7.424   4.181  2.0683 -1.9658  1.4872
 8183SOL    HW225651   3.993   7.514   4.104 -1.7692  0.6512 -0.5487
 8184SOL     OW25652   2.032   5.867   5.547  0.2603  0.0232  0.1423
 8184SOL    HW125653   2.081   5.904   5.621 -0.0774 -0.5754  0.6748
 8184SOL    HW225654   1.988   5.943   5.508  0.4248  0.3473  0.5663
 8185SOL     OW25655   7.550   8.327   6.266  0.2340  0.3844 -0.5029
 8185SOL    HW125656   7.586   8.359   6.349 -2.2718  0.1123  0.7822
 8185SOL    HW225657   7.477   8.386   6.247 -0.3556 -0.6504 -1.5602
 8186SOL     OW25658   5.880   8.055   2.549  0.0144 -0.1711  0.5355
 8186SOL    HW125659   5.834   7.985   2.595 -1.4969  1.1668  1.1452
 8186SOL    HW225660   5.911   8.013   2.468 -0.2153 -1.7042  1.1974
 8187SOL     OW25661   2.406   6.551   1.007 -0.8015  0.0872 -0.4667
 8187SOL    HW125662   2.396   6.541   0.913  1.8950  1.2578 -0.9911
 8187SOL    HW225663   2.418   6.462   1.041 -0.6303 -0.2614 -1.4240
 8188SOL     OW25664   8.633   4.943   1.909  0.0378 -1.1664  0.8038
 8188SOL    HW125665   8.576   4.988   1.846  2.8249  1.3895 -0.1265
 8188SOL    HW225666   8.668   4.869   1.859 -0.6981 -1.4371  0.6643
 8189SOL     OW25667   9.037   0.603   6.401 -0.1183 -0.2342  0.1114
 8189SOL    HW125668   9.127   0.595   6.370  0.6757  2.4229  1.4371
 8189SOL    HW225669   9.005   0.513   6.404  2.0974 -1.1719 -1.4330
 8190SOL     OW25670   6.073   6.587   6.971  0.0079 -0.0678 -0.1172
 8190SOL    HW125671   6.156   6.543   6.953  0.9735  1.6860 -0.1865
 8190SOL    HW225672   6.026   6.585   6.888 -0.1102 -1.2195 -0.0352
 8191SOL     OW25673   5.038   8.419   4.619  0.0253  0.0286  0.2010
 8191SOL    HW125674   5.019   8.343   4.563 -0.1196 -0.1791  0.5289
 8191SOL    HW225675   5.031   8.385   4.708 -1.5349  0.7625  0.3868
 8192SOL     OW25676   8.286   6.035   8.662 -0.2795  0.2306 -0.1757
 8192SOL    HW125677   8.209   6.036   8.605 -1.1731 -2.0935  0.8720
 8192SOL    HW225678   8.251   6.009   8.748  1.5370  0.1149  0.5585
 8193SOL     OW25679   1.731   8.525   5.050 -0.4316 -0.2170  0.2225
 8193SOL    HW125680   1.709   8.456   5.113 -0.6058 -1.6495 -1.3137
 8193SOL    HW225681   1.657   8.525   4.989  0.7358 -0.4643 -1.2423
 8194SOL     OW25682   5.947   0.619   0.988  0.1937 -0.7053 -0.1741
 8194SOL    HW125683   5.965   0.586   0.900 -0.1297 -1.9661  0.2195
 8194SOL    HW225684   5.854   0.604   1.001 -0.0389  0.6831 -0.0936
 8195SOL     OW25685   2.274   6.884   3.126  0.2223 -0.1597 -0.1058
 8195SOL    HW125686   2.341   6.944   3.158 -0.2595 -0.8189  2.3840
 8195SOL    HW225687   2.323   6.812   3.086  1.1667 -1.2002  2.7131
 8196SOL     OW25688   3.172   5.403   8.889 -0.4487 -0.1210  0.1975
 8196SOL    HW125689   3.264   5.377   8.892 -0.7764 -1.3097  0.5785
 8196SOL    HW225690   3.155   5.444   8.974 -0.1439  0.6140 -0.0865
 8197SOL     OW25691   4.785   5.238   8.479 -0.8737  0.1460  0.6024
 8197SOL    HW125692   4.828   5.240   8.394 -3.2234 -0.3546 -0.6907
 8197SOL    HW225693   4.853   5.208   8.540  0.5529 -0.6975 -1.2993
 8198SOL     OW25694   4.194   3.993   1.504  0.1111 -0.1235  0.1524
 8198SOL    HW125695   4.278   4.040   1.509  0.9723 -1.6603  0.7296
 8198SOL    HW225696   4.143   4.026   1.578 -0.1823  1.4919 -0.7298
 8199SOL     OW25697   5.953   1.896   4.725 -1.0196  0.0127  0.3293
 8199SOL    HW125698   6.023   1.832   4.741 -1.0604 -0.2667 -0.5581
 8199SOL    HW225699   5.969   1.928   4.636 -1.3237  0.8409  0.5615
 8200SOL     OW25700   5.053   5.905   1.986  0.6199 -0.0146  0.0477
 8200SOL    HW125701   5.132   5.854   1.968  0.3093 -0.4815 -0.0081
 8200SOL    HW225702   5.035   5.952   1.904  2.4233  2.3149  0.8693
 8201SOL     OW25703   8.236   7.683   6.061  0.1649 -0.2446 -0.6374
 8201SOL    HW125704   8.286   7.610   6.025 -1.2887 -1.8310  0.4038
 8201SOL    HW225705   8.176   7.707   5.991  0.5462 -0.1411 -0.9322
 8202SOL     OW25706   4.540   4.902   4.093  0.4571 -0.6975  0.0473
 8202SOL    HW125707   4.587   4.941   4.019 -0.2859 -0.1898 -0.1761
 8202SOL    HW225708   4.546   4.808   4.079  1.0481 -0.6254 -0.2002
 8203SOL     OW25709   2.941   7.086   0.691 -0.2691 -0.1904  0.0849
 8203SOL    HW125710   3.024   7.039   0.693 -1.1405 -1.8484 -0.9119
 8203SOL    HW225711   2.955   7.157   0.629  0.3072 -0.6553 -0.3219
 8204SOL     OW25712   3.766   0.101   1.537  0.4022  0.5474 -0.1735
 8204SOL    HW125713   3.783   0.098   1.631  1.1529  1.6467 -0.2629
 8204SOL    HW225714   3.833   0.160   1.502 -1.7394  2.6411 -0.9815
 8205SOL     OW25715   1.893   8.089   7.787  0.4210  0.2508 -0.6542
 8205SOL    HW125716   1.905   8.041   7.869  2.4068  1.0477 -0.4346
 8205SOL    HW225717   1.816   8.144   7.802 -1.0188 -1.6913 -0.4025
 8206SOL     OW25718   8.054   4.103   8.653  0.8344 -0.2429 -0.4592
 8206SOL    HW125719   8.074   4.157   8.729  1.4454 -0.0437 -0.7491
 8206SOL    HW225720   8.004   4.029   8.688  0.0508  0.4688 -0.0548
 8207SOL     OW25721   3.087   2.134   8.865  0.0468 -0.0557  0.0245
 8207SOL    HW125722   3.073   2.113   8.958  2.6733  2.7746  1.2110
 8207SOL    HW225723   3.162   2.080   8.840  1.5355  1.6649  0.6340
 8208SOL     OW25724   4.379   1.454   0.953 -0.0310 -0.2446 -0.2242
 8208SOL    HW125725   4.292   1.417   0.972  0.1893 -0.4276  0.4751
 8208SOL    HW225726   4.372   1.488   0.864 -0.2175 -2.0263 -0.9227
 8209SOL     OW25727   5.666   8.163   4.490  0.1323  0.0453 -0.2589
 8209SOL    HW125728   5.756   8.183   4.468  0.2917  0.4982  0.7643
 8209SOL    HW225729   5.667   8.143   4.584 -0.7559 -0.3726 -0.3195
 8210SOL     OW25730   4.863   1.216   2.761 -0.5695  0.4178  0.0426
 8210SOL    HW125731   4.925   1.255   2.822 -0.8325  1.4726 -0.3560
 8210SOL    HW225732   4.779   1.217   2.807 -0.5221  0.0421  0.1426
 8211SOL     OW25733   4.081   4.424   6.378  0.6177 -0.0204  0.1931
 8211SOL    HW125734   4.175   4.417   6.366  0.7884  2.7194 -0.7156
 8211SOL    HW225735   4.061   4.515   6.360 -1.8961  0.0820  2.7101
 8212SOL     OW25736   1.916   5.526   7.704  0.3984  0.0017 -0.3053
 8212SOL    HW125737   1.864   5.490   7.776  1.0283  0.0634  0.1972
 8212SOL    HW225738   1.858   5.588   7.660 -0.4774 -1.0958 -0.7480
 8213SOL     OW25739   2.026   5.114   1.604  0.3423 -0.5594  0.7437
 8213SOL    HW125740   1.992   5.029   1.630 -1.8186 -0.0099 -0.0847
 8213SOL    HW225741   2.115   5.096   1.574  0.4205 -2.2741  1.8428
 8214SOL     OW25742   4.879   6.091   5.816  0.3131 -0.1604 -0.1527
 8214SOL    HW125743   4.968   6.120   5.798  0.2488  0.7916  0.9223
 8214SOL    HW225744   4.859   6.028   5.747  1.8203 -0.4006 -0.3838
 8215SOL     OW25745   2.141   6.516   1.058  0.0615 -0.5737  0.2662
 8215SOL    HW125746   2.117   6.594   1.109  1.2101  0.4495 -0.6950
 8215SOL    HW225747   2.234   6.528   1.039  0.1809 -2.0348 -0.2024
 8216SOL     OW25748   8.323   6.721   3.089  0.1812  0.2557 -0.3690
 8216SOL    HW125749   8.384   6.774   3.140  0.4612 -0.0420 -0.3897
 8216SOL    HW225750   8.239   6.766   3.097  0.3732  0.5932 -0.2252
 8217SOL     OW25751   3.361   5.120   7.885  0.0311 -0.5290 -0.4156
 8217SOL    HW125752   3.370   5.092   7.794  0.8225 -1.8395  0.0239
 8217SOL    HW225753   3.267   5.126   7.900 -0.1266 -1.1716 -1.0827
 8218SOL     OW25754   6.002   1.275   5.491 -0.5976 -0.3200 -0.5231
 8218SOL    HW125755   5.971   1.192   5.527  0.5918 -1.3875 -1.8481
 8218SOL    HW225756   6.092   1.257   5.463 -0.3867  1.3607 -1.0426
 8219SOL     OW25757   1.180   6.489   7.163  0.1066  0.0451 -0.1050
 8219SOL    HW125758   1.127   6.498   7.242  0.1601 -1.4949  0.1404
 8219SOL    HW225759   1.241   6.562   7.167  0.8199 -0.5984  1.8561
 8220SOL     OW25760   2.638   2.569   3.898  0.1670 -0.0523 -0.8547
 8220SOL    HW125761   2.706   2.539   3.838 -0.2300  0.1027 -1.3939
 8220SOL    HW225762   2.683   2.581   3.982  0.4556 -1.5771 -0.7686
 8221SOL     OW25763   3.514   3.907   2.738  0.1478 -0.2999 -0.0711
 8221SOL    HW125764   3.519   3.939   2.828  1.5504  0.2102 -0.2983
 8221SOL    HW225765   3.601   3.869   2.721 -0.0899 -0.3833 -1.2126
 8222SOL     OW25766   1.171   7.589   4.605  0.8327  0.0060 -0.2707
 8222SOL    HW125767   1.261   7.558   4.589  0.0019 -2.3188 -0.9056
 8222SOL    HW225768   1.128   7.584   4.520  0.0702  1.0124  0.0420
 8223SOL     OW25769   3.471   2.656   1.261  0.3352  0.2322 -0.3594
 8223SOL    HW125770   3.467   2.561   1.279 -0.3783  0.2014 -0.6779
 8223SOL    HW225771   3.529   2.690   1.330 -0.0270 -0.3234  0.2333
 8224SOL     OW25772   6.302   3.926   2.455 -0.0345  0.0007  0.5745
 8224SOL    HW125773   6.288   3.981   2.378  0.0942 -0.0910  0.4851
 8224SOL    HW225774   6.386   3.883   2.439  0.9281  1.4015  1.6091
 8225SOL     OW25775   9.109   1.997   7.049 -0.3688  0.3013 -0.6474
 8225SOL    HW125776   9.032   1.971   7.101  0.8474  0.9506  1.6364
 8225SOL    HW225777   9.150   1.914   7.024 -0.2523 -0.0616  0.6476
 8226SOL     OW25778   8.070   5.944   7.336  0.1892 -0.8614 -0.2441
 8226SOL    HW125779   8.099   6.025   7.294 -0.5481 -1.8083 -2.7816
 8226SOL    HW225780   8.027   5.972   7.416  1.4168  1.1146 -0.2075
 8227SOL     OW25781   5.312   5.090   5.904 -0.6306 -0.2496  0.3365
 8227SOL    HW125782   5.231   5.111   5.858 -1.8186  1.1752  2.8660
 8227SOL    HW225783   5.333   5.170   5.952 -0.3716 -2.0187  3.4163
 8228SOL     OW25784   6.662   3.980   1.345  0.4468 -0.1966  0.2892
 8228SOL    HW125785   6.705   4.047   1.398  0.5787  0.6656 -0.8846
 8228SOL    HW225786   6.692   3.897   1.383  0.2511  0.3811  1.7830
 8229SOL     OW25787   2.096   4.169   2.653  0.4886 -0.3010 -0.3956
 8229SOL    HW125788   2.021   4.194   2.707  1.2451 -0.2533  0.6601
 8229SOL    HW225789   2.086   4.220   2.573 -0.8461 -0.6320 -0.4584
 8230SOL     OW25790   3.339   7.101   2.799 -0.9373  0.2844  0.0815
 8230SOL    HW125791   3.277   7.175   2.796 -0.7327  0.5107  0.9996
 8230SOL    HW225792   3.419   7.139   2.834 -0.2917 -0.0361 -1.0033
 8231SOL     OW25793   8.923   3.987   2.569  0.1725  0.4451 -0.4844
 8231SOL    HW125794   8.960   4.025   2.649  0.6108  3.0386 -1.7986
 8231SOL    HW225795   8.828   3.988   2.584  0.3104 -1.6386  0.9816
 8232SOL     OW25796   1.489   6.279   0.978 -0.2957  0.1157 -0.0331
 8232SOL    HW125797   1.456   6.203   0.931  1.3239 -1.0406  0.6159
 8232SOL    HW225798   1.524   6.337   0.910  0.2226 -0.6295 -0.4140
 8233SOL     OW25799   3.977   3.252   1.010 -0.1163 -0.3276 -0.2063
 8233SOL    HW125800   3.990   3.161   1.038  1.3090  0.2687  1.1506
 8233SOL    HW225801   4.063   3.292   1.016 -0.8095  1.2525 -0.3854
 8234SOL     OW25802   7.223   8.143   3.527  0.4046  0.3555 -0.7908
 8234SOL    HW125803   7.136   8.116   3.556  0.6485  0.0412 -0.3412
 8234SOL    HW225804   7.278   8.135   3.605  0.7302  1.0468 -0.9383
 8235SOL     OW25805   7.525   1.385   5.594 -0.3373 -0.8134 -0.2077
 8235SOL    HW125806   7.504   1.342   5.512 -0.3211 -1.2397  0.0095
 8235SOL    HW225807   7.517   1.479   5.575 -0.0883 -0.9021 -0.7553
 8236SOL     OW25808   4.845   6.304   1.923 -0.3696  0.3437 -0.2834
 8236SOL    HW125809   4.774   6.345   1.874 -1.3923  0.5130  1.2607
 8236SOL    HW225810   4.923   6.353   1.899 -0.8351  0.4079 -1.7153
 8237SOL     OW25811   1.648   6.684   8.986  0.0949  0.4078  0.0675
 8237SOL    HW125812   1.649   6.590   9.001  2.3375  0.2285 -0.7720
 8237SOL    HW225813   1.646   6.722   9.074 -1.5741 -0.3828  0.3982
 8238SOL     OW25814   5.580   1.080   4.396 -0.7008 -0.0922  0.3146
 8238SOL    HW125815   5.523   1.004   4.383  0.2522 -0.6475 -0.7880
 8238SOL    HW225816   5.616   1.069   4.484 -0.8576 -0.7133  0.3041
 8239SOL     OW25817   4.721   1.716   3.748 -0.1351 -0.1042  0.0060
 8239SOL    HW125818   4.667   1.668   3.686  1.6933 -1.2985 -0.7448
 8239SOL    HW225819   4.700   1.808   3.732 -0.5629 -0.4449 -1.5785
 8240SOL     OW25820   4.582   1.997   4.480 -0.0138 -0.5252  0.1572
 8240SOL    HW125821   4.588   2.002   4.575 -0.3428  0.0555  0.1450
 8240SOL    HW225822   4.663   2.037   4.449 -0.4875  0.4460  0.1655
 8241SOL     OW25823   8.912   5.446   3.710 -0.2122 -0.3335 -0.3192
 8241SOL    HW125824   8.958   5.365   3.686  0.1637  0.0686 -0.9729
 8241SOL    HW225825   8.965   5.484   3.780 -1.5438 -1.7325  1.5692
 8242SOL     OW25826   4.367   2.816   1.984 -0.0450 -0.8028 -0.6224
 8242SOL    HW125827   4.315   2.753   2.035 -2.5298  0.6050 -1.2288
 8242SOL    HW225828   4.310   2.893   1.976  2.6923  1.4156 -0.2488
 8243SOL     OW25829   4.577   7.459   2.755 -0.5644  0.0485  0.8625
 8243SOL    HW125830   4.573   7.428   2.845  0.0448  0.5022  1.0485
 8243SOL    HW225831   4.668   7.445   2.729 -0.5966  0.4785  0.5177
 8244SOL     OW25832   6.993   4.950   0.965  0.3612 -0.5016  0.0586
 8244SOL    HW125833   7.061   4.983   1.023 -0.0669  2.1502 -0.8105
 8244SOL    HW225834   6.915   5.000   0.988 -0.3896 -0.9965 -1.2819
 8245SOL     OW25835   5.621   7.046   0.890 -0.1994  0.5488 -0.3592
 8245SOL    HW125836   5.687   7.114   0.900  0.9714 -0.7596  1.4874
 8245SOL    HW225837   5.579   7.040   0.976  0.4145 -1.6786 -0.1371
 8246SOL     OW25838   9.082   2.044   6.517  0.5628  0.2435  0.5614
 8246SOL    HW125839   9.103   1.955   6.488  0.7507  0.7562 -1.0159
 8246SOL    HW225840   9.002   2.034   6.568 -0.2345 -0.7005 -0.7868
 8247SOL     OW25841   4.077   5.852   0.142 -0.4264  0.0539 -0.1525
 8247SOL    HW125842   4.104   5.760   0.142  1.0677  0.3931 -2.7849
 8247SOL    HW225843   4.159   5.901   0.156 -0.2130  1.0064 -3.7151
 8248SOL     OW25844   4.610   2.024   2.344  0.2149 -0.3827  0.5178
 8248SOL    HW125845   4.553   1.978   2.406 -0.3146 -0.1976  0.1820
 8248SOL    HW225846   4.692   2.037   2.391 -0.0202 -0.6623  1.0126
 8249SOL     OW25847   6.898   2.271   7.365 -0.3004 -0.5566  0.1770
 8249SOL    HW125848   6.844   2.350   7.361  0.1733 -0.2857 -1.1806
 8249SOL    HW225849   6.896   2.246   7.458  0.2395  1.5310  0.7994
 8250SOL     OW25850   1.325   1.967   2.464  0.2842  0.1340  0.6139
 8250SOL    HW125851   1.382   2.008   2.398  0.1485 -0.5126  0.0863
 8250SOL    HW225852   1.251   1.934   2.414 -0.1215  0.1843  1.1826
 8251SOL     OW25853   3.247   2.001   8.203 -0.4391  0.4294 -0.9606
 8251SOL    HW125854   3.332   2.002   8.247 -0.2015 -1.1413 -1.3426
 8251SOL    HW225855   3.191   2.057   8.258  0.9857  2.0671 -1.0905
 8252SOL     OW25856   6.457   2.843   4.517 -0.3051  0.4045 -0.3314
 8252SOL    HW125857   6.434   2.849   4.425 -1.1064  1.2145 -0.0902
 8252SOL    HW225858   6.375   2.854   4.564  0.3046  1.6131  0.5115
 8253SOL     OW25859   5.203   2.894   4.903 -0.1140 -0.4661 -0.1035
 8253SOL    HW125860   5.209   2.897   4.999  0.3516 -0.8351 -0.1171
 8253SOL    HW225861   5.292   2.912   4.873 -0.2917 -0.1889 -0.4748
 8254SOL     OW25862   2.052   2.897   6.557  0.1806 -0.0808 -0.3444
 8254SOL    HW125863   2.042   2.926   6.466 -0.8823  1.7284  0.2921
 8254SOL    HW225864   1.963   2.872   6.583  0.4755 -0.5444  0.2170
 8255SOL     OW25865   2.733   1.890   3.417 -0.5718  0.4759  0.4290
 8255SOL    HW125866   2.752   1.879   3.510  0.0715  0.3610  0.2856
 8255SOL    HW225867   2.648   1.847   3.405  0.0024 -0.7472  0.6830
 8256SOL     OW25868   6.222   1.026   0.265  0.2625  0.1329 -0.2005
 8256SOL    HW125869   6.180   1.055   0.184  3.5045  1.1061 -1.6895
 8256SOL    HW225870   6.190   1.087   0.331  2.2381  3.5231 -2.0878
 8257SOL     OW25871   6.121   0.928   6.762 -0.2321 -0.3768  0.1267
 8257SOL    HW125872   6.087   1.010   6.724 -0.7002 -0.9309 -0.6915
 8257SOL    HW225873   6.196   0.906   6.707 -0.1132 -0.5044  0.3396
 8258SOL     OW25874   0.415   1.104   3.504  0.0655 -0.6902  0.0301
 8258SOL    HW125875   0.424   1.078   3.596 -1.4447  0.6538  0.6024
 8258SOL    HW225876   0.329   1.071   3.477 -0.0959  0.1013 -0.4686
 8259SOL     OW25877   0.843   4.067   6.075  0.4508 -0.7158  0.0681
 8259SOL    HW125878   0.756   4.107   6.070  0.1319 -1.4332 -0.2519
 8259SOL    HW225879   0.903   4.141   6.070 -0.1404 -0.2263  0.0882
 8260SOL     OW25880   1.916   7.603   1.603  0.3903  0.3517 -0.1100
 8260SOL    HW125881   1.830   7.596   1.646  0.7908 -0.5604  0.5639
 8260SOL    HW225882   1.933   7.515   1.569  0.6564  0.7575 -1.0462
 8261SOL     OW25883   8.069   4.329   0.848 -0.1782 -0.0334 -0.1862
 8261SOL    HW125884   8.062   4.295   0.937  2.7899  1.4905  0.7717
 8261SOL    HW225885   8.114   4.259   0.799 -1.0191 -0.5150 -0.2863
 8262SOL     OW25886   1.303   7.639   8.217 -0.5173 -0.0875 -0.0861
 8262SOL    HW125887   1.318   7.589   8.137 -0.4756  0.9989 -0.7743
 8262SOL    HW225888   1.367   7.709   8.214  1.0706 -1.3133  2.0551
 8263SOL     OW25889   4.170   6.712   6.849  0.5329 -0.7281  0.2158
 8263SOL    HW125890   4.209   6.720   6.936 -1.3185 -0.7203  1.0998
 8263SOL    HW225891   4.133   6.798   6.830  0.9938 -0.7005 -0.6510
 8264SOL     OW25892   4.710   6.902   3.318 -0.5334 -0.2012  0.0787
 8264SOL    HW125893   4.778   6.858   3.369 -0.1274 -1.0836 -1.1565
 8264SOL    HW225894   4.725   6.995   3.332  1.2686 -0.3538 -0.5484
 8265SOL     OW25895   6.827   0.698   0.958  0.2320 -0.4850 -0.2213
 8265SOL    HW125896   6.786   0.726   1.039 -2.7368 -2.2162 -0.9675
 8265SOL    HW225897   6.800   0.763   0.893  1.4198  0.1151 -0.1473
 8266SOL     OW25898   0.235   7.859   4.289 -0.2735  0.4658 -0.1740
 8266SOL    HW125899   0.187   7.786   4.327 -1.0421  1.9865  1.9703
 8266SOL    HW225900   0.288   7.893   4.361  5.0424 -1.6542 -2.5306
 8267SOL     OW25901   2.484   6.288   4.059 -0.1646  0.2413  0.2354
 8267SOL    HW125902   2.503   6.290   3.965  0.4937  0.1638  0.3610
 8267SOL    HW225903   2.542   6.355   4.097  1.5151 -1.4882  0.9019
 8268SOL     OW25904   8.506   6.145   5.783 -0.3007 -0.0586  0.6619
 8268SOL    HW125905   8.600   6.127   5.781 -0.4428 -0.9515  1.5478
 8268SOL    HW225906   8.469   6.083   5.720 -0.2059  1.1023 -0.6112
 8269SOL     OW25907   8.503   2.970   8.032 -0.1344  0.2121 -0.3676
 8269SOL    HW125908   8.483   2.922   7.951  0.4622  0.2444 -0.5382
 8269SOL    HW225909   8.424   3.021   8.049 -0.5428 -0.3564 -0.5272
 8270SOL     OW25910   6.506   1.422   2.859  0.0398  0.2209  0.1641
 8270SOL    HW125911   6.568   1.491   2.835  0.0444  0.5041  0.9733
 8270SOL    HW225912   6.430   1.469   2.892 -0.1696 -0.1497  0.2138
 8271SOL     OW25913   8.360   5.840   7.109  0.0830 -0.3305  0.2461
 8271SOL    HW125914   8.284   5.894   7.088  0.3857 -0.2148 -0.6026
 8271SOL    HW225915   8.339   5.799   7.193 -0.2276  0.9447  0.8044
 8272SOL     OW25916   5.412   6.508   8.431 -0.4101  0.2545  0.5659
 8272SOL    HW125917   5.412   6.600   8.460  0.0733  0.1358  0.9621
 8272SOL    HW225918   5.394   6.513   8.337  0.1664  0.8047  0.4692
 8273SOL     OW25919   0.214   8.730   6.844 -0.2361  0.3784  0.0638
 8273SOL    HW125920   0.212   8.741   6.939  1.8312 -0.6026  0.2679
 8273SOL    HW225921   0.238   8.638   6.830 -0.9878  0.3666 -1.4259
 8274SOL     OW25922   4.441   1.893   2.566 -0.5148 -0.1310  0.9087
 8274SOL    HW125923   4.392   1.865   2.643 -0.3037  0.7213  1.3565
 8274SOL    HW225924   4.517   1.940   2.601 -0.9281  1.1157  0.1843
 8275SOL     OW25925   3.395   7.835   4.684  0.2274  0.3978 -0.1440
 8275SOL    HW125926   3.425   7.910   4.735  0.2756 -0.8042  1.7348
 8275SOL    HW225927   3.304   7.822   4.712  0.5401 -0.8408  0.4017
 8276SOL     OW25928   0.113   3.531   2.097  0.2668 -0.0491 -0.2213
 8276SOL    HW125929   0.032   3.499   2.137 -0.6398  0.0248 -1.9003
 8276SOL    HW225930   0.136   3.608   2.148 -0.6257 -0.1707  0.3992
 8277SOL     OW25931   3.599   6.703   8.781 -0.1095  0.1298  0.2628
 8277SOL    HW125932   3.518   6.724   8.827 -0.1794 -0.8373  0.5997
 8277SOL    HW225933   3.571   6.666   8.698 -0.0434 -0.6912  0.5914
 8278SOL     OW25934   7.345   0.520   6.431  0.0432  0.0293 -0.0467
 8278SOL    HW125935   7.352   0.521   6.527 -0.1764  0.0471 -0.0297
 8278SOL    HW225936   7.367   0.430   6.406 -3.9817 -1.2435  0.3541
 8279SOL     OW25937   7.134   6.424   2.533 -0.0516 -0.6072 -0.5297
 8279SOL    HW125938   7.164   6.509   2.503  1.3584 -0.2487  1.6548
 8279SOL    HW225939   7.148   6.366   2.459  3.1003  0.2346 -0.7421
 8280SOL     OW25940   3.477   4.419   1.080 -0.0962 -0.0024  0.4939
 8280SOL    HW125941   3.490   4.509   1.110  0.1898  0.1725 -0.1273
 8280SOL    HW225942   3.566   4.383   1.074 -0.2257 -0.4031  0.9700
 8281SOL     OW25943   7.642   3.222   8.717 -0.0035  0.3007 -0.3113
 8281SOL    HW125944   7.558   3.250   8.752  0.4540  0.5923  0.5800
 8281SOL    HW225945   7.646   3.128   8.736 -0.5187  0.0946 -1.1860
 8282SOL     OW25946   6.854   7.360   1.298  0.1363  0.5870  0.6010
 8282SOL    HW125947   6.792   7.378   1.227  0.6348 -1.0558 -0.2887
 8282SOL    HW225948   6.801   7.365   1.377 -0.8944  0.3480 -0.0515
 8283SOL     OW25949   3.654   2.270   1.144 -0.4669 -0.4365  0.4834
 8283SOL    HW125950   3.661   2.281   1.050 -0.6024 -2.0496  0.2683
 8283SOL    HW225951   3.586   2.333   1.170 -0.2652  0.1783 -0.4481
 8284SOL     OW25952   8.481   2.138   3.768 -0.4496  0.1670  0.0480
 8284SOL    HW125953   8.553   2.198   3.753  1.1702 -1.8267 -0.6414
 8284SOL    HW225954   8.477   2.129   3.863 -0.3910  0.9636  0.1316
 8285SOL     OW25955   2.149   2.295   1.987 -0.1334 -0.0889 -0.4550
 8285SOL    HW125956   2.186   2.364   2.041  0.8845 -1.5755  0.8326
 8285SOL    HW225957   2.100   2.240   2.049  0.9930 -1.7862 -1.0064
 8286SOL     OW25958   3.316   5.901   5.442  0.3989 -0.2934 -0.1760
 8286SOL    HW125959   3.247   5.841   5.470 -0.0405  0.4018  0.2424
 8286SOL    HW225960   3.342   5.947   5.522  0.6084  0.2000 -0.5225
 8287SOL     OW25961   8.163   0.658   7.389  0.1666 -0.3594  0.5041
 8287SOL    HW125962   8.070   0.683   7.393  0.5904  1.1276  2.1400
 8287SOL    HW225963   8.210   0.741   7.389  1.5262 -1.0731 -1.0116
 8288SOL     OW25964   0.400   5.269   6.582  0.2789 -0.2908 -0.1131
 8288SOL    HW125965   0.441   5.235   6.662 -0.3069  0.2725  0.4293
 8288SOL    HW225966   0.474   5.285   6.523  0.8383  0.4954  0.7718
 8289SOL     OW25967   6.459   3.116   0.373  0.2705  0.4459  0.0144
 8289SOL    HW125968   6.372   3.146   0.397 -0.1804 -1.0303  0.3444
 8289SOL    HW225969   6.506   3.110   0.456  0.3759  0.3377 -0.0520
 8290SOL     OW25970   1.988   1.995   4.644  0.2306  0.1365  0.0505
 8290SOL    HW125971   2.051   1.997   4.572  0.8111  0.8232  0.5544
 8290SOL    HW225972   2.016   1.922   4.698 -0.4072 -0.5907 -0.5817
 8291SOL     OW25973   4.154   5.328   6.074  0.6549 -0.1612 -0.3769
 8291SOL    HW125974   4.192   5.304   6.159  0.9698  2.0633  0.1679
 8291SOL    HW225975   4.116   5.414   6.088 -2.4454 -1.1916 -1.5980
 8292SOL     OW25976   8.140   7.606   8.328  0.9256  0.2376  0.0190
 8292SOL    HW125977   8.148   7.610   8.424  0.0868  1.9351  0.0521
 8292SOL    HW225978   8.067   7.545   8.313 -0.2006  1.3807  0.5840
 8293SOL     OW25979   6.358   1.032   5.682  0.0095 -0.2397 -0.1216
 8293SOL    HW125980   6.411   1.083   5.744  1.3027 -0.2750 -1.1548
 8293SOL    HW225981   6.307   0.973   5.737  0.4624  0.3427  0.9574
 8294SOL     OW25982   0.199   1.330   1.629 -0.5557 -0.2354  0.5311
 8294SOL    HW125983   0.231   1.341   1.719  2.8211  2.6820 -0.7965
 8294SOL    HW225984   0.140   1.404   1.615 -0.7859 -0.4737  0.2098
 8295SOL     OW25985   8.802   3.041   5.922  0.0883  0.7776 -0.6068
 8295SOL    HW125986   8.865   3.061   5.853  1.0640  0.0958  0.0576
 8295SOL    HW225987   8.726   3.004   5.877  0.9701 -0.2653 -1.2537
 8296SOL     OW25988   5.702   2.626   7.123  0.6948 -0.7795  0.3075
 8296SOL    HW125989   5.633   2.582   7.074  0.5428 -0.8918  0.6222
 8296SOL    HW225990   5.744   2.557   7.174  1.2643 -0.7716 -0.1398
 8297SOL     OW25991   0.860   2.456   5.194  0.1790 -0.1465 -0.1859
 8297SOL    HW125992   0.821   2.397   5.129  0.7570 -1.0685  0.2904
 8297SOL    HW225993   0.933   2.498   5.148  1.0789 -1.3839  0.0745
 8298SOL     OW25994   6.323   9.042   5.955  0.5482  0.3794  0.6718
 8298SOL    HW125995   6.228   9.043   5.951  0.4828  0.1925  1.7357
 8298SOL    HW225996   6.346   8.950   5.970  0.7708  0.6601  2.2530
 8299SOL     OW25997   7.686   8.000   8.187 -0.0636 -0.3783  0.0008
 8299SOL    HW125998   7.724   8.085   8.163  0.2818 -0.3062  0.8022
 8299SOL    HW225999   7.660   8.010   8.279 -1.6234 -0.5600 -0.3840
 8300SOL     OW26000   4.900   0.686   4.194  0.0682  0.0859  0.3203
 8300SOL    HW126001   4.875   0.594   4.205  0.0162  0.0313 -0.2270
 8300SOL    HW226002   4.883   0.704   4.102  1.4639  0.2277  0.0666
 8301SOL     OW26003   5.770   4.560   6.353 -0.4207 -0.2922 -0.1693
 8301SOL    HW126004   5.751   4.480   6.401 -0.3627 -0.0062  0.3487
 8301SOL    HW226005   5.746   4.630   6.414  1.2501  0.0889  0.0946
 8302SOL     OW26006   7.398   0.554   1.173  0.0528  0.3156  0.4891
 8302SOL    HW126007   7.362   0.508   1.249  0.8734  2.1294  2.0563
 8302SOL    HW226008   7.493   0.548   1.183  0.1887  1.9195  0.5392
 8303SOL     OW26009   8.148   8.774   0.895  0.2896  0.0754 -0.0328
 8303SOL    HW126010   8.124   8.809   0.809 -0.1282 -0.1465 -0.0101
 8303SOL    HW226011   8.141   8.679   0.885 -1.4111  0.0917  0.7056
 8304SOL     OW26012   2.002   6.781   2.578 -0.4034  0.2024  0.1542
 8304SOL    HW126013   2.026   6.787   2.671  1.7454  0.6060 -0.3852
 8304SOL    HW226014   1.949   6.701   2.573  0.4595 -0.5099  1.5276
 8305SOL     OW26015   4.186   8.900   5.372  0.4255  0.3955 -0.0796
 8305SOL    HW126016   4.149   8.987   5.388  1.5905  1.1670 -1.3793
 8305SOL    HW226017   4.234   8.879   5.452  4.2187  3.1503 -1.3479
 8306SOL     OW26018   8.337   2.862   3.060 -0.1425 -0.5155 -0.2977
 8306SOL    HW126019   8.414   2.914   3.083 -0.6224 -0.1277  0.4871
 8306SOL    HW226020   8.327   2.874   2.966 -1.7074  2.9246  0.1602
 8307SOL     OW26021   1.377   4.299   2.737  0.1780 -0.3989  0.4677
 8307SOL    HW126022   1.338   4.373   2.783  0.0213 -1.2048  1.6848
 8307SOL    HW226023   1.302   4.244   2.713  0.3591 -0.5683  0.2848
 8308SOL     OW26024   8.288   5.512   6.958  0.4037 -0.1313 -0.3371
 8308SOL    HW126025   8.206   5.511   7.007  0.8847 -0.3910  0.4846
 8308SOL    HW226026   8.282   5.435   6.901 -0.8943  1.1186 -1.9780
 8309SOL     OW26027   8.420   3.447   1.827  0.1181 -0.0850  0.3430
 8309SOL    HW126028   8.373   3.389   1.767 -1.2680  1.0638  0.2815
 8309SOL    HW226029   8.426   3.398   1.909 -2.1704  0.1250  0.6969
 8310SOL     OW26030   5.742   8.130   6.507 -0.2639 -0.1526  0.0681
 8310SOL    HW126031   5.771   8.039   6.514  0.6762  0.2523  2.0872
 8310SOL    HW226032   5.651   8.123   6.478 -0.0390 -1.7042 -0.3788
 8311SOL     OW26033   2.817   5.480   4.496  0.2906  0.0901  0.3296
 8311SOL    HW126034   2.804   5.414   4.428 -0.1871 -0.4728  0.9542
 8311SOL    HW226035   2.886   5.444   4.551  0.5276  0.4474  0.2699
 8312SOL     OW26036   5.641   5.343   4.491  0.5140 -0.5970 -0.3553
 8312SOL    HW126037   5.563   5.398   4.490  1.6729  1.0965 -1.0179
 8312SOL    HW226038   5.608   5.256   4.514 -1.2753  0.4795  1.4543
 8313SOL     OW26039   7.144   4.280   3.354 -0.1917  0.8115 -0.3590
 8313SOL    HW126040   7.064   4.279   3.302 -0.6206  2.4536  0.2057
 8313SOL    HW226041   7.133   4.355   3.413  1.2126  0.3000  0.6074
 8314SOL     OW26042   8.195   5.648   2.677  0.0813  0.1368  0.6325
 8314SOL    HW126043   8.249   5.720   2.642  1.5278 -0.8025  0.8659
 8314SOL    HW226044   8.114   5.691   2.704  1.0928  1.7748  1.2342
 8315SOL     OW26045   5.575   2.859   8.259 -0.6101 -0.1651  0.6229
 8315SOL    HW126046   5.648   2.798   8.258 -0.1310  0.3972 -0.2888
 8315SOL    HW226047   5.545   2.862   8.167 -0.1585  1.5040  0.4968
 8316SOL     OW26048   1.065   5.595   4.570 -0.1160  0.3394  0.5320
 8316SOL    HW126049   1.019   5.588   4.486  1.3209  1.0391 -0.3509
 8316SOL    HW226050   1.072   5.505   4.601 -0.8878  0.0958  0.0374
 8317SOL     OW26051   4.254   0.812   2.844 -0.1553  0.2653  0.2530
 8317SOL    HW126052   4.309   0.822   2.767 -0.2646  0.2338  0.1697
 8317SOL    HW226053   4.284   0.732   2.886  0.2893  0.5897  0.5617
 8318SOL     OW26054   7.181   6.593   5.409  0.2341 -0.2129 -0.2003
 8318SOL    HW126055   7.159   6.502   5.389 -1.7154  0.1313  0.1590
 8318SOL    HW226056   7.257   6.613   5.354  0.1193 -1.7770 -0.9625
 8319SOL     OW26057   8.548   7.151   0.886  0.3672  0.5079  0.2044
 8319SOL    HW126058   8.524   7.238   0.916  0.3249  0.0268  1.6186
 8319SOL    HW226059   8.622   7.125   0.941  1.3905  0.2414 -1.2230
 8320SOL     OW26060   8.898   3.435   4.591  0.3585  0.5026 -0.2315
 8320SOL    HW126061   8.956   3.388   4.650 -0.1725 -0.9297 -0.8143
 8320SOL    HW226062   8.813   3.434   4.635  0.6371  2.2290  0.4258
 8321SOL     OW26063   5.295   6.336   2.068  0.0489 -0.2809  0.7623
 8321SOL    HW126064   5.260   6.412   2.113  0.3436 -0.5081  1.3816
 8321SOL    HW226065   5.269   6.348   1.976 -2.1549 -0.7140  1.2650
 8322SOL     OW26066   0.552   3.377   8.772 -0.0000  0.6492 -0.2686
 8322SOL    HW126067   0.633   3.405   8.814 -0.1929 -0.2348  0.7378
 8322SOL    HW226068   0.570   3.288   8.742 -0.8660  0.0862  0.7957
 8323SOL     OW26069   2.724   2.443   2.078 -0.2024  0.4599  0.2294
 8323SOL    HW126070   2.717   2.364   2.132  0.4561 -0.3077 -0.7861
 8323SOL    HW226071   2.738   2.514   2.142  1.4768 -0.5482  1.0419
 8324SOL     OW26072   4.608   2.282   9.067 -0.5567  0.4729  0.3967
 8324SOL    HW126073   4.648   2.303   9.151 -0.1123  0.9425  0.0770
 8324SOL    HW226074   4.667   2.320   9.002 -0.1047 -1.1608 -0.1948
 8325SOL     OW26075   2.250   5.826   3.379 -0.2453 -0.2179  0.7007
 8325SOL    HW126076   2.216   5.790   3.298  1.9994 -1.9262  0.4151
 8325SOL    HW226077   2.315   5.891   3.352  0.5863 -0.8620  1.0803
 8326SOL     OW26078   1.347   7.270   6.815  0.5176 -0.3577 -0.0985
 8326SOL    HW126079   1.407   7.295   6.886  1.1673  0.2340 -0.8404
 8326SOL    HW226080   1.358   7.175   6.808  0.0117 -0.5069  0.9743
 8327SOL     OW26081   1.268   2.663   6.791  0.2167  0.4298  0.1786
 8327SOL    HW126082   1.239   2.663   6.699 -0.7106  1.2904  0.4561
 8327SOL    HW226083   1.208   2.603   6.835  0.1187  0.6820  0.3873
 8328SOL     OW26084   2.595   1.899   1.893  1.0897 -0.4186 -0.0232
 8328SOL    HW126085   2.520   1.839   1.903  2.3682 -2.6802 -2.5466
 8328SOL    HW226086   2.558   1.975   1.849  0.2163 -1.6003 -1.4679
 8329SOL     OW26087   6.089   6.262   7.421 -0.2475  0.0322 -0.3071
 8329SOL    HW126088   6.130   6.348   7.419  0.5913 -0.3684 -1.0119
 8329SOL    HW226089   6.009   6.275   7.473  0.0990  1.1177 -0.0089
 8330SOL     OW26090   3.778   7.364   6.356  0.3116  0.1150  0.9841
 8330SOL    HW126091   3.778   7.374   6.452 -2.9872  0.7728  1.0300
 8330SOL    HW226092   3.811   7.447   6.323 -0.4365  0.6493  1.5589
 8331SOL     OW26093   6.067   6.367   3.416  0.3015  0.6599 -0.0888
 8331SOL    HW126094   5.988   6.395   3.462 -0.2093  0.1448 -0.6331
 8331SOL    HW226095   6.097   6.444   3.369 -0.2469  0.6919 -0.3931
 8332SOL     OW26096   4.127   7.309   5.753  0.1683  0.3746  0.0803
 8332SOL    HW126097   4.129   7.214   5.762 -0.5226  0.4430  1.1320
 8332SOL    HW226098   4.184   7.327   5.679 -0.0757 -0.8954 -0.4510
 8333SOL     OW26099   1.490   6.617   8.572 -0.4202  0.1281  0.2094
 8333SOL    HW126100   1.498   6.541   8.513  1.0374 -1.2853  2.1029
 8333SOL    HW226101   1.398   6.616   8.599 -0.9245  0.3360 -1.4006
 8334SOL     OW26102   1.515   0.891   4.245  0.2198 -0.0013 -0.1322
 8334SOL    HW126103   1.554   0.829   4.307  2.0269  1.3512  0.1532
 8334SOL    HW226104   1.434   0.849   4.217 -0.5347 -0.8275  2.9181
 8335SOL     OW26105   0.970   7.011   5.256  0.3263 -0.7778  0.0876
 8335SOL    HW126106   1.048   7.017   5.311 -0.1125  0.7594  0.6065
 8335SOL    HW226107   0.968   7.094   5.208  1.2747 -2.4146 -3.1427
 8336SOL     OW26108   8.456   8.172   0.652  0.0431  0.2963  0.4906
 8336SOL    HW126109   8.365   8.197   0.666  0.1873  0.5142  1.0710
 8336SOL    HW226110   8.476   8.202   0.564  0.0196  1.6931  0.9392
 8337SOL     OW26111   8.755   4.722   7.394  0.4631  0.0466 -0.2478
 8337SOL    HW126112   8.836   4.684   7.361  0.2329  0.7521 -1.6923
 8337SOL    HW226113   8.755   4.812   7.360 -0.6387  0.2422  0.2358
 8338SOL     OW26114   7.097   4.216   1.619  0.1267 -0.3404  0.2407
 8338SOL    HW126115   7.086   4.144   1.681  0.6922  0.2384  1.0196
 8338SOL    HW226116   7.170   4.267   1.653  0.3500  0.0795 -0.8203
 8339SOL     OW26117   2.384   1.557   5.452  0.2672  0.0332  0.4735
 8339SOL    HW126118   2.387   1.599   5.538  0.7011  0.6526  0.1623
 8339SOL    HW226119   2.298   1.580   5.417 -0.0934 -0.5934  0.9152
 8340SOL     OW26120   3.747   0.910   4.552  0.3750  0.3729  0.2887
 8340SOL    HW126121   3.718   0.819   4.551  0.6777  0.2750  0.2771
 8340SOL    HW226122   3.667   0.961   4.563  0.4203  0.0125  2.7073
 8341SOL     OW26123   4.435   5.992   0.515 -0.3408 -0.7383 -0.5179
 8341SOL    HW126124   4.439   6.016   0.423 -3.3285 -4.3479 -1.8533
 8341SOL    HW226125   4.342   5.974   0.532  0.0205  0.1427  3.3623
 8342SOL     OW26126   7.064   4.377   1.127  0.1203  0.3660  0.5959
 8342SOL    HW126127   7.055   4.397   1.220  2.5084  1.0144  0.7392
 8342SOL    HW226128   7.153   4.344   1.118  0.0724  0.7030 -1.5329
 8343SOL     OW26129   8.454   3.551   3.244 -1.1106 -0.6530  0.7252
 8343SOL    HW126130   8.499   3.606   3.180 -0.8635 -1.9976 -0.2817
 8343SOL    HW226131   8.520   3.533   3.311 -0.8344 -0.7145  0.4359
 8344SOL     OW26132   3.241   3.056   7.816 -0.0862 -0.3425 -0.4634
 8344SOL    HW126133   3.312   3.086   7.759  0.8046  0.7002  1.1242
 8344SOL    HW226134   3.274   2.975   7.856  0.7497  0.7535  1.1639
 8345SOL     OW26135   5.182   4.526   5.618  0.2681 -0.4899 -0.0088
 8345SOL    HW126136   5.175   4.490   5.530 -1.7963 -0.1677 -0.0049
 8345SOL    HW226137   5.208   4.617   5.605 -2.9042  0.4446 -0.5183
 8346SOL     OW26138   7.238   7.339   6.564 -0.0089  0.1281 -0.5488
 8346SOL    HW126139   7.325   7.350   6.527  0.3894  1.3045  0.6432
 8346SOL    HW226140   7.178   7.348   6.490  0.8652 -0.7229 -1.3804
 8347SOL     OW26141   6.940   5.364   8.838 -0.4855  0.2703  0.1818
 8347SOL    HW126142   6.882   5.287   8.832 -0.8016  0.4568  0.7776
 8347SOL    HW226143   6.929   5.408   8.753 -1.2608  0.3289  0.2994
 8348SOL     OW26144   3.415   1.529   8.542  0.1750  0.0008  0.0610
 8348SOL    HW126145   3.462   1.449   8.517  1.4176  0.6132  0.3516
 8348SOL    HW226146   3.379   1.562   8.459 -0.0429 -0.6693 -0.1141
 8349SOL     OW26147   8.568   3.626   2.960  0.1126 -0.1826  0.4361
 8349SOL    HW126148   8.629   3.590   2.896  1.9399 -0.5764  2.2891
 8349SOL    HW226149   8.495   3.563   2.961 -0.0870 -0.0279 -1.3819
 8350SOL     OW26150   8.357   9.004   4.192 -0.4558 -0.4242  0.4690
 8350SOL    HW126151   8.362   9.091   4.152 -0.1406 -0.5587  0.2105
 8350SOL    HW226152   8.378   9.019   4.285  0.4004 -0.3290  0.2761
 8351SOL     OW26153   7.401   1.813   3.391 -0.3024  0.0754 -0.0463
 8351SOL    HW126154   7.444   1.833   3.308 -0.3350  0.6941  0.0795
 8351SOL    HW226155   7.358   1.728   3.377 -1.7441  0.9573 -1.2292
 8352SOL     OW26156   0.493   8.484   7.940  0.2314  0.1096  0.5238
 8352SOL    HW126157   0.585   8.504   7.928  0.4902 -1.6599 -0.7378
 8352SOL    HW226158   0.448   8.531   7.870  0.2855  0.1490  0.5162
 8353SOL     OW26159   9.098   0.825   7.686  0.4605  0.0516  0.3921
 8353SOL    HW126160   9.184   0.795   7.656  0.5698  0.4288  0.3276
 8353SOL    HW226161   9.036   0.780   7.629  0.5548 -1.0366  1.1027
 8354SOL     OW26162   6.840   2.188   8.281  0.2168 -0.2068  0.4136
 8354SOL    HW126163   6.914   2.239   8.249  1.0316 -1.3281  0.4241
 8354SOL    HW226164   6.832   2.214   8.373  0.1986  0.3799  0.2473
 8355SOL     OW26165   0.095   1.801   5.130  0.1798 -0.4071 -0.0030
 8355SOL    HW126166   0.001   1.818   5.120  0.2970 -0.4055 -1.4176
 8355SOL    HW226167   0.118   1.839   5.214 -1.4541 -2.0597  1.2725
 8356SOL     OW26168   2.103   7.747   1.773  0.3297  0.2405  0.4534
 8356SOL    HW126169   2.178   7.690   1.791  0.4482  0.2121 -0.1266
 8356SOL    HW226170   2.051   7.700   1.709 -0.1222  0.3224  0.7561
 8357SOL     OW26171   6.509   7.720   1.728  0.2382  0.4564 -0.0197
 8357SOL    HW126172   6.496   7.625   1.732  2.8469 -0.0557 -1.4509
 8357SOL    HW226173   6.591   7.735   1.774  0.6145  1.7949 -1.0628
 8358SOL     OW26174   0.188   4.253   2.119  0.0277 -0.1058  0.1266
 8358SOL    HW126175   0.144   4.325   2.164  0.2634 -0.5980  1.1740
 8358SOL    HW226176   0.264   4.294   2.077 -0.8139  0.5567 -0.8172
 8359SOL     OW26177   0.194   8.214   1.183  0.0782  0.1000  0.2338
 8359SOL    HW126178   0.155   8.227   1.097  0.7269 -4.3263 -0.9940
 8359SOL    HW226179   0.119   8.204   1.242 -0.6544 -2.2705 -0.9667
 8360SOL     OW26180   0.524   1.445   5.131  0.3855 -0.5625 -0.1236
 8360SOL    HW126181   0.461   1.454   5.202 -0.9021 -0.1203 -1.2754
 8360SOL    HW226182   0.536   1.534   5.098  1.2610 -0.7114 -0.2205
 8361SOL     OW26183   5.276   7.233   1.815 -0.3871 -0.5963 -0.0887
 8361SOL    HW126184   5.359   7.270   1.843 -0.5670 -0.3707  0.1475
 8361SOL    HW226185   5.276   7.244   1.720 -0.8108  0.7952  0.0531
 8362SOL     OW26186   2.794   8.553   4.258  0.1122 -0.0976  0.4239
 8362SOL    HW126187   2.843   8.474   4.239  1.3643  0.2780  1.9187
 8362SOL    HW226188   2.718   8.549   4.199  0.6293 -1.9203 -0.1762
 8363SOL     OW26189   1.174   6.322   3.630  0.7826  0.3044 -0.2037
 8363SOL    HW126190   1.081   6.313   3.610  0.7288  0.5306 -0.0612
 8363SOL    HW226191   1.189   6.417   3.631  0.2665  0.4468  3.2287
 8364SOL     OW26192   7.976   8.358   5.675 -0.0210  0.0484  0.4337
 8364SOL    HW126193   7.922   8.295   5.627  0.0387 -0.2246  0.7183
 8364SOL    HW226194   7.914   8.411   5.724 -0.1479  0.9209 -0.6197
 8365SOL     OW26195   2.666   3.563   1.459 -0.0364  0.0042 -0.4901
 8365SOL    HW126196   2.595   3.627   1.455 -1.1716 -0.9847  1.8457
 8365SOL    HW226197   2.652   3.507   1.383 -1.1260  0.4765 -0.6589
 8366SOL     OW26198   7.937   2.680   7.979 -0.2021 -1.1098  0.1491
 8366SOL    HW126199   7.894   2.739   8.041  1.4215  0.2930  0.0437
 8366SOL    HW226200   7.866   2.645   7.925 -1.2260  1.3366 -0.2444
 8367SOL     OW26201   7.428   2.918   7.009 -0.0292 -0.5416 -0.4999
 8367SOL    HW126202   7.423   2.882   6.921  0.9138 -1.8447 -0.0577
 8367SOL    HW226203   7.464   3.006   6.997  0.5096 -0.8678 -1.3943
 8368SOL     OW26204   3.723   1.466   8.335 -0.3085  0.0292  0.1397
 8368SOL    HW126205   3.744   1.538   8.395 -1.9205  0.8141 -0.2090
 8368SOL    HW226206   3.706   1.508   8.251 -1.8348 -0.6739  0.0652
 8369SOL     OW26207   6.551   1.579   0.516 -0.1013  0.0273  0.0273
 8369SOL    HW126208   6.536   1.641   0.444  0.3132 -0.7568 -0.7550
 8369SOL    HW226209   6.646   1.578   0.526  0.0266 -1.6247 -1.0266
 8370SOL     OW26210   3.984   6.105   4.673  0.7843  0.3220 -0.1317
 8370SOL    HW126211   3.958   6.018   4.704  0.9019  0.3559  0.0636
 8370SOL    HW226212   3.923   6.124   4.602  0.0461  0.5424  0.5389
 8371SOL     OW26213   1.828   1.677   3.535 -0.5888 -0.3344  0.1011
 8371SOL    HW126214   1.835   1.751   3.595 -0.3897  0.7427 -1.2052
 8371SOL    HW226215   1.845   1.714   3.448  1.4279 -2.2277 -0.4229
 8372SOL     OW26216   2.806   9.078   8.706 -0.1561 -0.2962 -0.2145
 8372SOL    HW126217   2.854   9.028   8.772  1.4598  1.2940 -0.1168
 8372SOL    HW226218   2.782   9.160   8.750  0.8876  0.7679 -1.5276
 8373SOL     OW26219   5.054   5.251   9.059 -0.3855 -0.5764 -0.5602
 8373SOL    HW126220   5.100   5.259   9.143 -2.8064  2.6457  0.6975
 8373SOL    HW226221   5.103   5.308   9.000  0.1770 -1.2620 -0.7621
 8374SOL     OW26222   6.562   8.249   6.346 -0.6609 -0.3418 -0.3434
 8374SOL    HW126223   6.589   8.177   6.288 -0.8924  0.9750 -2.1497
 8374SOL    HW226224   6.490   8.212   6.396 -0.3802 -1.5636 -0.7918
 8375SOL     OW26225   6.437   5.943   4.198  0.4313 -0.9035 -0.4191
 8375SOL    HW126226   6.347   5.937   4.166  0.0664 -1.1504  0.6375
 8375SOL    HW226227   6.429   5.975   4.288  1.5111  1.2001 -0.9982
 8376SOL     OW26228   1.782   1.509   0.900  0.0524  0.2775 -0.5902
 8376SOL    HW126229   1.732   1.525   0.820 -0.5593 -0.7901 -0.4404
 8376SOL    HW226230   1.717   1.481   0.964  0.5915  0.7419  0.1805
 8377SOL     OW26231   3.735   7.519   7.317  0.0253  0.1728  0.4165
 8377SOL    HW126232   3.803   7.553   7.376 -1.1125  2.0933  0.7168
 8377SOL    HW226233   3.661   7.500   7.375  0.0453 -1.2907  0.0083
 8378SOL     OW26234   6.300   3.483   5.897  0.0844  0.1964  0.1301
 8378SOL    HW126235   6.272   3.532   5.975 -2.0599 -1.1844  0.3160
 8378SOL    HW226236   6.237   3.508   5.830 -0.0636 -1.0705 -0.2198
 8379SOL     OW26237   1.185   0.246   8.542 -0.3213 -0.0115  0.0377
 8379SOL    HW126238   1.226   0.331   8.527  0.1108 -0.2862 -0.3543
 8379SOL    HW226239   1.257   0.184   8.541 -0.6484 -0.4000  0.2182
 8380SOL     OW26240   2.048   7.947   6.560  0.3639  0.0466 -0.4420
 8380SOL    HW126241   2.029   7.868   6.510 -0.4952  0.6161 -1.0219
 8380SOL    HW226242   1.964   7.993   6.566  0.1818 -0.4534  2.3355
 8381SOL     OW26243   5.550   4.727   0.306 -0.0972 -0.1081 -0.3564
 8381SOL    HW126244   5.566   4.798   0.368  1.6131  0.5501 -1.4748
 8381SOL    HW226245   5.464   4.693   0.330  0.3208  0.3714  2.0980
 8382SOL     OW26246   2.769   4.526   4.496 -0.1174  0.0562 -0.4611
 8382SOL    HW126247   2.798   4.617   4.490 -1.7115  0.5528 -0.9064
 8382SOL    HW226248   2.841   4.482   4.543  1.3891  1.1874 -1.5988
 8383SOL     OW26249   5.570   8.408   6.325 -0.2130  0.7090  0.5269
 8383SOL    HW126250   5.564   8.390   6.419 -0.6065  1.4225  0.6490
 8383SOL    HW226251   5.512   8.345   6.284  2.1374 -1.6079  0.4594
 8384SOL     OW26252   7.175   6.457   4.617  0.2697  0.4923 -0.1707
 8384SOL    HW126253   7.138   6.515   4.550 -1.3774 -0.5545 -0.2122
 8384SOL    HW226254   7.102   6.403   4.646  2.0442 -2.9688 -1.5176
 8385SOL     OW26255   5.196   4.756   4.664 -0.4164  0.5668 -0.3238
 8385SOL    HW126256   5.181   4.831   4.722 -1.3268  0.9663 -1.0415
 8385SOL    HW226257   5.234   4.794   4.585 -1.0332  0.3098 -0.7553
 8386SOL     OW26258   4.543   9.052   5.059 -0.3038  0.2636  0.3116
 8386SOL    HW126259   4.586   9.059   5.144  0.7093 -0.9619 -0.0747
 8386SOL    HW226260   4.449   9.049   5.079 -0.0560 -0.4906  1.4073
 8387SOL     OW26261   3.841   8.514   1.590  0.0721 -0.0038 -0.8631
 8387SOL    HW126262   3.890   8.581   1.637 -1.0181 -0.3053  0.8007
 8387SOL    HW226263   3.908   8.460   1.548  0.9726  2.2899 -2.6111
 8388SOL     OW26264   6.687   2.015   3.193  0.6009  0.2614  0.1783
 8388SOL    HW126265   6.770   2.038   3.233  0.0958  1.8919  0.3379
 8388SOL    HW226266   6.621   2.059   3.246 -0.3107 -0.2864 -0.4602
 8389SOL     OW26267   5.433   6.683   5.695 -0.1000  0.2928 -0.1549
 8389SOL    HW126268   5.395   6.762   5.656  0.7219  0.1964 -1.2181
 8389SOL    HW226269   5.507   6.661   5.638 -0.1826 -1.1330  0.2313
 8390SOL     OW26270   8.986   6.792   1.535 -0.5826  0.1375  0.0324
 8390SOL    HW126271   9.039   6.740   1.475 -1.8836 -1.9218  0.5695
 8390SOL    HW226272   9.048   6.853   1.575  1.3481 -1.9354  0.4001
 8391SOL     OW26273   0.942   6.126   4.074  0.3289 -0.2516 -0.4969
 8391SOL    HW126274   0.960   6.136   4.167 -0.3819  0.8689 -0.4564
 8391SOL    HW226275   0.946   6.032   4.058  0.2239 -0.4693  0.7125
 8392SOL     OW26276   6.249   5.435   1.343  0.0896 -0.0972 -0.2531
 8392SOL    HW126277   6.312   5.422   1.272  0.2753 -1.0845  0.0661
 8392SOL    HW226278   6.229   5.346   1.372 -0.0505  0.2915  0.8653
 8393SOL     OW26279   9.119   9.131   8.274  0.2487  0.3215 -0.3890
 8393SOL    HW126280   9.096   9.204   8.216 -0.7982 -0.9259 -1.6254
 8393SOL    HW226281   9.045   9.071   8.268  1.4297 -1.2487 -0.0951
 8394SOL     OW26282   8.384   0.396   8.913 -0.3277 -0.4472 -0.2684
 8394SOL    HW126283   8.390   0.467   8.848 -0.4340 -0.9567 -0.8462
 8394SOL    HW226284   8.452   0.334   8.887 -0.4865 -0.7384  0.0093
 8395SOL     OW26285   2.669   4.605   3.331 -0.3339  0.3890 -0.0204
 8395SOL    HW126286   2.639   4.630   3.418 -0.8950 -0.6501  0.1066
 8395SOL    HW226287   2.610   4.534   3.305  1.3410 -0.9912 -0.2229
 8396SOL     OW26288   5.138   6.510   1.617  0.0231 -0.1057 -1.0241
 8396SOL    HW126289   5.051   6.503   1.658  0.5420 -3.1413 -0.1909
 8396SOL    HW226290   5.199   6.485   1.686  1.4634  0.6783 -1.9717
 8397SOL     OW26291   6.116   5.526   6.549  0.0925 -0.2789 -0.1469
 8397SOL    HW126292   6.208   5.542   6.527  0.4953 -0.0740  1.5347
 8397SOL    HW226293   6.075   5.613   6.546  0.4579 -0.0429  1.1704
 8398SOL     OW26294   6.503   6.215   8.130  0.2916  0.1984  0.1185
 8398SOL    HW126295   6.433   6.150   8.132  0.7496 -0.2995  1.7113
 8398SOL    HW226296   6.472   6.283   8.069 -1.6981  0.1511  1.0146
 8399SOL     OW26297   5.955   8.621   8.950  0.0450 -0.0251 -0.3140
 8399SOL    HW126298   6.042   8.634   8.914  0.8200 -0.5890  1.2670
 8399SOL    HW226299   5.895   8.648   8.880  1.4708  1.9593 -0.8448
 8400SOL     OW26300   8.281   3.557   2.876 -0.1011  0.9292  0.1549
 8400SOL    HW126301   8.338   3.487   2.908  1.7701  1.6499 -1.4363
 8400SOL    HW226302   8.193   3.522   2.886  0.7079 -1.0588  0.8083
 8401SOL     OW26303   4.682   1.654   0.854  0.4559 -0.6167  0.6076
 8401SOL    HW126304   4.762   1.611   0.826  1.2090 -0.5638  2.5145
 8401SOL    HW226305   4.706   1.701   0.934 -1.1289  0.6494  0.3968
 8402SOL     OW26306   0.082   8.454   2.314 -0.3786 -0.5785 -0.4057
 8402SOL    HW126307   0.163   8.480   2.357 -0.3207  0.4766 -1.1102
 8402SOL    HW226308   0.052   8.534   2.269 -1.9040 -0.8821 -0.0089
 8403SOL     OW26309   3.220   4.399   1.152  0.4112 -0.4355 -0.1095
 8403SOL    HW126310   3.292   4.361   1.101 -0.3657 -1.5452 -0.4265
 8403SOL    HW226311   3.192   4.475   1.103  0.0900 -1.1294 -1.0262
 8404SOL     OW26312   0.983   1.287   0.115 -0.3012 -0.1843 -0.1806
 8404SOL    HW126313   0.909   1.349   0.118 -0.0603  0.1718 -1.1627
 8404SOL    HW226314   1.029   1.309   0.034  2.0102  0.8659  1.3348
 8405SOL     OW26315   6.688   5.428   2.786 -0.1774  0.0008  0.1941
 8405SOL    HW126316   6.698   5.446   2.879 -0.8404 -0.3472  0.3382
 8405SOL    HW226317   6.739   5.348   2.771 -0.9805 -0.5885  0.5015
 8406SOL     OW26318   7.680   5.213   7.995  0.2015  0.4937 -0.6733
 8406SOL    HW126319   7.612   5.257   8.047  2.0389  2.5764  0.1221
 8406SOL    HW226320   7.706   5.139   8.049 -0.2306  0.7009 -0.1683
 8407SOL     OW26321   6.294   0.476   3.633  0.6545  0.1409  0.2399
 8407SOL    HW126322   6.326   0.558   3.597  0.4350  0.2921  0.3872
 8407SOL    HW226323   6.316   0.410   3.567  2.4023  0.0254  0.8783
 8408SOL     OW26324   6.735   6.551   3.466  0.1938  0.0123 -0.0968
 8408SOL    HW126325   6.810   6.578   3.413 -1.0585 -1.7017 -2.9602
 8408SOL    HW226326   6.770   6.544   3.555  2.6583  2.0500 -0.7952
 8409SOL     OW26327   4.018   2.085   8.767 -0.1571  0.2194  0.2732
 8409SOL    HW126328   3.969   2.028   8.709 -0.2001  1.2925 -0.7855
 8409SOL    HW226329   3.955   2.153   8.792  0.3636  0.7583  0.1345
 8410SOL     OW26330   0.051   1.745   7.005 -0.5117  0.2247  0.4227
 8410SOL    HW126331   0.062   1.664   6.954  3.4199  0.7022  0.1964
 8410SOL    HW226332  -0.010   1.722   7.074  0.7910 -3.1393  0.6317
 8411SOL     OW26333   5.738   5.053   8.615  0.3106 -0.2657 -0.0156
 8411SOL    HW126334   5.712   4.965   8.643 -0.6452  0.2821  0.8738
 8411SOL    HW226335   5.815   5.039   8.560  1.3587 -1.5008  1.6953
 8412SOL     OW26336   6.162   1.068   5.255  0.6464  0.6483 -0.1072
 8412SOL    HW126337   6.216   1.101   5.327 -0.4237 -0.4119  1.2260
 8412SOL    HW226338   6.089   1.023   5.297 -0.2971  0.4229 -1.8638
 8413SOL     OW26339   5.893   3.852   3.861  0.0264 -0.2983  0.0242
 8413SOL    HW126340   5.872   3.945   3.867  3.3984  0.5696  0.3255
 8413SOL    HW226341   5.881   3.831   3.769  1.2280  1.0339 -0.4677
 8414SOL     OW26342   7.882   5.635   2.684 -0.1737  0.0551  0.9061
 8414SOL    HW126343   7.872   5.646   2.778  0.5906  2.8871  0.7389
 8414SOL    HW226344   7.802   5.672   2.646  0.2228  0.4327  0.4168
 8415SOL     OW26345   4.277   2.191   7.033 -0.0245  0.1091  0.1180
 8415SOL    HW126346   4.357   2.240   7.016 -0.3490  0.4480 -0.4438
 8415SOL    HW226347   4.217   2.217   6.964 -1.4762  1.6973  1.8595
 8416SOL     OW26348   3.005   3.541   0.421 -0.2546  0.0631  0.0506
 8416SOL    HW126349   3.072   3.472   0.417 -0.7445 -0.3799 -0.6225
 8416SOL    HW226350   3.032   3.595   0.495  0.0355 -0.9678  0.7279
 8417SOL     OW26351   5.941   5.099   1.361 -0.1191  0.1909 -0.2475
 8417SOL    HW126352   5.923   5.166   1.295 -0.2075 -0.3619 -0.7977
 8417SOL    HW226353   6.037   5.095   1.365 -0.1132  0.5144 -0.0378
 8418SOL     OW26354   3.319   4.561   0.209  0.3700  0.3829  0.4268
 8418SOL    HW126355   3.395   4.556   0.152  0.2948 -0.0007  0.3591
 8418SOL    HW226356   3.257   4.497   0.173  0.4860 -0.1637  1.1858
 8419SOL     OW26357   7.309   5.410   4.666  0.0601 -0.1576 -0.5731
 8419SOL    HW126358   7.240   5.466   4.631  0.1554  1.9207  2.1840
 8419SOL    HW226359   7.375   5.472   4.698  1.7599 -2.0008 -0.3885
 8420SOL     OW26360   0.916   5.174   4.699 -0.7497  0.0482  0.3013
 8420SOL    HW126361   0.879   5.086   4.712  0.8495 -0.3409  2.9681
 8420SOL    HW226362   0.997   5.173   4.749 -1.9124  3.8417  2.6815
 8421SOL     OW26363   6.278   8.596   6.412  0.2592 -0.5767 -0.2646
 8421SOL    HW126364   6.201   8.562   6.458  0.4104 -1.4769 -0.6715
 8421SOL    HW226365   6.243   8.668   6.359  0.5167  2.6734  3.4987
 8422SOL     OW26366   8.428   3.032   9.096  0.0666  0.5727 -0.4891
 8422SOL    HW126367   8.490   3.096   9.132  1.7420 -1.6777  0.9088
 8422SOL    HW226368   8.465   3.007   9.011 -1.1501  2.1064 -1.5411
 8423SOL     OW26369   3.170   1.521   2.551 -0.0284  0.1536  0.1759
 8423SOL    HW126370   3.222   1.570   2.487  1.0423  1.1290  1.7434
 8423SOL    HW226371   3.086   1.567   2.553 -0.2773 -0.2104 -0.8862
 8424SOL     OW26372   2.556   5.400   0.715  0.1850 -0.4077 -0.4166
 8424SOL    HW126373   2.592   5.315   0.688 -0.1512 -0.7981  0.3507
 8424SOL    HW226374   2.505   5.429   0.639  1.2355 -0.3376 -1.1254
 8425SOL     OW26375   5.499   5.879   2.315 -0.5459  0.1104 -0.5618
 8425SOL    HW126376   5.434   5.812   2.335 -1.6605  1.3472  0.0845
 8425SOL    HW226377   5.458   5.934   2.248  0.0411  0.5953 -0.5382
 8426SOL     OW26378   1.260   6.343   5.333  0.2313 -0.4189  0.7255
 8426SOL    HW126379   1.241   6.426   5.377 -0.8462 -1.2800  1.9451
 8426SOL    HW226380   1.355   6.335   5.339  0.4260  1.0165  0.0131
 8427SOL     OW26381   1.753   6.366   3.653 -0.4293  0.2906  0.1206
 8427SOL    HW126382   1.710   6.336   3.733  1.3745 -1.0665  0.6460
 8427SOL    HW226383   1.820   6.428   3.683 -0.6102  0.7982 -0.4883
 8428SOL     OW26384   2.917   8.118   6.574  0.4304  0.0251 -0.2443
 8428SOL    HW126385   2.933   8.212   6.585  3.2577 -0.6626  2.8240
 8428SOL    HW226386   2.879   8.090   6.657  1.8503 -1.9087 -0.1739
 8429SOL     OW26387   8.793   3.710   8.752 -0.6427  0.1027  0.9589
 8429SOL    HW126388   8.734   3.641   8.782 -1.7177 -0.5023 -2.2260
 8429SOL    HW226389   8.740   3.789   8.751 -1.1323 -0.2133 -0.8036
 8430SOL     OW26390   6.268   6.927   8.307  0.2807  0.1849  0.0948
 8430SOL    HW126391   6.176   6.944   8.290  0.2229  0.9368  1.0264
 8430SOL    HW226392   6.305   7.013   8.328  1.0455 -0.1967  0.3679
 8431SOL     OW26393   3.106   5.719   3.585  0.1852  0.1303 -0.1731
 8431SOL    HW126394   3.067   5.691   3.502  2.8853 -2.4328 -0.7395
 8431SOL    HW226395   3.126   5.638   3.631  2.1539  1.3580  1.2933
 8432SOL     OW26396   0.524   2.546   6.185  0.4870  0.0563 -0.0763
 8432SOL    HW126397   0.588   2.500   6.131  2.0663  0.6530  1.1919
 8432SOL    HW226398   0.505   2.626   6.137 -0.2416 -0.6512 -1.0165
 8433SOL     OW26399   2.458   5.078   6.585 -0.7074 -0.0590 -0.1029
 8433SOL    HW126400   2.410   5.052   6.664 -2.0419  1.4206 -0.3573
 8433SOL    HW226401   2.521   5.143   6.616  1.3515 -2.0814  0.2494
 8434SOL     OW26402   2.886   4.708   6.974 -0.1336  0.5385 -0.0308
 8434SOL    HW126403   2.876   4.672   7.062 -1.2528  0.5185 -0.1454
 8434SOL    HW226404   2.796   4.717   6.941  0.2778 -0.0727 -1.4197
 8435SOL     OW26405   1.211   6.993   5.870 -0.3657  0.1272 -0.4905
 8435SOL    HW126406   1.126   6.955   5.893 -0.2472 -0.0349 -0.3189
 8435SOL    HW226407   1.190   7.070   5.817 -0.7041  1.4777  1.5206
 8436SOL     OW26408   6.875   1.546   7.393 -0.1524  0.5815 -0.3156
 8436SOL    HW126409   6.942   1.527   7.460 -1.0070  1.5718  0.8766
 8436SOL    HW226410   6.897   1.488   7.320  2.2289  1.1168 -0.1217
 8437SOL     OW26411   2.588   8.132   8.083  0.6511 -0.2342  0.9605
 8437SOL    HW126412   2.546   8.115   7.999 -0.8604 -0.1925  1.6636
 8437SOL    HW226413   2.548   8.069   8.143 -0.0469  1.2418  2.1338
 8438SOL     OW26414   8.842   0.340   4.003 -0.5160 -0.0924  0.4163
 8438SOL    HW126415   8.826   0.434   4.003 -2.7011 -0.3852 -0.9270
 8438SOL    HW226416   8.781   0.305   4.068  0.1522 -0.6202  0.7736
 8439SOL     OW26417   9.096   0.196   0.613 -0.4904  0.8304 -0.3752
 8439SOL    HW126418   9.084   0.110   0.572 -1.5113  1.3481 -1.1941
 8439SOL    HW226419   9.178   0.187   0.662 -1.5159 -1.1923  1.1000
 8440SOL     OW26420   4.366   0.727   8.863  0.2172  0.2249  0.3148
 8440SOL    HW126421   4.381   0.645   8.910  1.0822  1.4756  2.3726
 8440SOL    HW226422   4.277   0.752   8.886 -0.5239 -0.6886 -1.3354
 8441SOL     OW26423   0.979   4.822   2.300  0.7541  0.0620 -0.1313
 8441SOL    HW126424   0.970   4.852   2.210 -0.5675 -0.4240 -0.1839
 8441SOL    HW226425   1.048   4.756   2.298  1.3530  0.6980 -0.6149
 8442SOL     OW26426   8.905   0.964   7.383  0.1400 -0.2457  0.4499
 8442SOL    HW126427   8.864   0.995   7.302  2.7042  1.0765 -0.4547
 8442SOL    HW226428   8.949   1.041   7.418  3.4695 -1.9008  0.2429
 8443SOL     OW26429   0.959   7.506   7.391 -0.6138 -0.4601 -0.4338
 8443SOL    HW126430   0.939   7.519   7.298 -1.8128 -1.3122 -0.3217
 8443SOL    HW226431   0.915   7.579   7.435 -0.6188 -0.4394 -0.4724
 8444SOL     OW26432   5.793   4.115   8.045 -0.0116  0.6961  0.3502
 8444SOL    HW126433   5.870   4.087   7.995  0.8662 -1.7479  2.8132
 8444SOL    HW226434   5.723   4.123   7.979  1.3742 -1.0268 -1.4511
 8445SOL     OW26435   5.597   3.602   0.076 -0.0619  0.1117 -0.6334
 8445SOL    HW126436   5.544   3.545   0.020  0.4658 -1.7379  0.6234
 8445SOL    HW226437   5.584   3.566   0.164 -0.7920  2.8407  0.4592
 8446SOL     OW26438   7.399   4.001   8.742  0.2920  0.2214 -0.2368
 8446SOL    HW126439   7.473   3.983   8.683 -0.6895 -0.9427 -1.1562
 8446SOL    HW226440   7.324   4.009   8.685 -0.8509 -1.7934  0.8505
 8447SOL     OW26441   8.431   4.500   7.700 -0.3886  0.1267 -0.1551
 8447SOL    HW126442   8.461   4.591   7.703 -1.0353  0.4042 -1.4816
 8447SOL    HW226443   8.444   4.468   7.789  1.6704  0.9133 -0.1244
 8448SOL     OW26444   3.843   0.279   6.399 -0.2678 -0.2456 -0.4899
 8448SOL    HW126445   3.923   0.324   6.426 -0.1436 -1.1196  0.6981
 8448SOL    HW226446   3.859   0.253   6.309  0.8672 -0.5774 -0.2054
 8449SOL     OW26447   8.427   6.759   4.585 -0.8273 -0.3059 -0.5082
 8449SOL    HW126448   8.495   6.752   4.517  0.1922 -1.8355  0.6003
 8449SOL    HW226449   8.476   6.766   4.667 -2.0205 -0.7080  0.2618
 8450SOL     OW26450   4.468   5.909   8.330 -0.0905  0.0580  0.3090
 8450SOL    HW126451   4.545   5.896   8.385  0.2149 -0.1200 -0.1579
 8450SOL    HW226452   4.486   5.860   8.250 -0.0307  1.2146 -0.4223
 8451SOL     OW26453   1.632   8.236   1.020 -0.3080 -0.2664  0.0785
 8451SOL    HW126454   1.606   8.181   1.094  0.4079  1.0915  1.3924
 8451SOL    HW226455   1.552   8.284   0.997  0.0609  1.3005  1.8031
 8452SOL     OW26456   5.189   6.934   7.888  0.3250  0.0223 -0.2680
 8452SOL    HW126457   5.260   6.991   7.919 -0.4858  0.4285  0.9649
 8452SOL    HW226458   5.109   6.984   7.907 -0.2893 -0.1369 -2.2295
 8453SOL     OW26459   0.921   4.693   2.927  0.1135  0.0533 -0.2791
 8453SOL    HW126460   0.887   4.672   3.014 -1.9675  1.8425 -0.5546
 8453SOL    HW226461   0.966   4.777   2.938 -0.0980  0.2562 -0.8966
 8454SOL     OW26462   2.603   3.662   0.283  0.3835 -0.0960 -0.3347
 8454SOL    HW126463   2.560   3.737   0.242  0.6359  0.6571  0.7111
 8454SOL    HW226464   2.693   3.667   0.251  0.8491  1.1012  1.0230
 8455SOL     OW26465   4.868   8.417   6.411  0.1373 -0.3241 -0.7533
 8455SOL    HW126466   4.958   8.435   6.438 -0.9200  0.4529  2.6458
 8455SOL    HW226467   4.834   8.503   6.385  0.4553 -0.7141 -2.6742
 8456SOL     OW26468   1.707   8.278   5.276 -0.2484  0.1125 -0.7426
 8456SOL    HW126469   1.669   8.249   5.193 -1.1211 -2.3583  0.4362
 8456SOL    HW226470   1.633   8.280   5.337  0.5485  0.9699  0.2328
 8457SOL     OW26471   7.351   5.216   0.494  0.1673 -0.0499  0.4342
 8457SOL    HW126472   7.425   5.172   0.452  0.5373  1.4526 -0.5790
 8457SOL    HW226473   7.287   5.147   0.508  0.8206 -0.9697 -0.8526
 8458SOL     OW26474   6.932   8.751   4.585 -0.1867 -0.1366  0.4138
 8458SOL    HW126475   6.972   8.818   4.530  0.6850 -1.0389 -0.0895
 8458SOL    HW226476   6.901   8.799   4.662  1.4231  0.6902  0.5913
 8459SOL     OW26477   0.692   8.273   6.943  0.3693  0.1832  0.5044
 8459SOL    HW126478   0.778   8.262   6.901  1.1216  0.6396  1.8477
 8459SOL    HW226479   0.707   8.340   7.010 -0.5498 -1.1434  2.1089
 8460SOL     OW26480   8.014   8.955   8.233  0.1201  0.2637 -0.3147
 8460SOL    HW126481   8.103   8.919   8.231  0.0057 -0.0646  0.2766
 8460SOL    HW226482   8.021   9.040   8.190  0.9136  0.6738  0.5951
 8461SOL     OW26483   5.928   7.104   6.547  0.1085 -0.1252  0.5356
 8461SOL    HW126484   6.016   7.066   6.552 -0.0411 -0.6050 -0.2018
 8461SOL    HW226485   5.940   7.186   6.499  0.2132 -0.0006  0.7766
 8462SOL     OW26486   0.709   3.898   6.267 -0.3363  0.3778  0.0121
 8462SOL    HW126487   0.724   3.807   6.242  2.2213  0.2826  1.5783
 8462SOL    HW226488   0.755   3.950   6.202  1.5798  0.3313  1.2490
 8463SOL     OW26489   1.405   8.851   0.062  0.0056 -0.4728 -0.3009
 8463SOL    HW126490   1.421   8.779  -0.000  1.7125  0.5504 -1.1272
 8463SOL    HW226491   1.311   8.865   0.058 -0.0304 -0.9310 -2.1275
 8464SOL     OW26492   8.999   0.480   4.252  0.1911  0.1211  0.2454
 8464SOL    HW126493   9.091   0.471   4.230  0.0627 -1.2523  0.1693
 8464SOL    HW226494   8.957   0.506   4.171  0.3850 -0.2507  0.0215
 8465SOL     OW26495   0.891   1.871   1.669  0.4505  0.1838  0.2532
 8465SOL    HW126496   0.966   1.812   1.683  0.3346  0.5793  3.4043
 8465SOL    HW226497   0.831   1.821   1.614  0.5336 -2.5931  2.4449
 8466SOL     OW26498   6.972   4.938   4.545 -0.1158  0.0500 -0.0934
 8466SOL    HW126499   6.960   4.967   4.454 -1.1330  1.2086  0.3864
 8466SOL    HW226500   6.885   4.949   4.585 -0.3594 -2.8561  0.3844
 8467SOL     OW26501   5.467   3.783   2.669 -0.4025 -0.5268 -0.2522
 8467SOL    HW126502   5.381   3.741   2.675 -1.0132  0.3851 -2.0155
 8467SOL    HW226503   5.473   3.837   2.748 -1.5357 -0.4627 -0.1926
 8468SOL     OW26504   3.237   7.232   0.771  0.5322 -0.4457  0.0050
 8468SOL    HW126505   3.251   7.250   0.864  0.4529  0.3552 -0.1305
 8468SOL    HW226506   3.177   7.301   0.743  1.2278 -0.1718 -0.8416
 8469SOL     OW26507   4.713   1.564   2.665 -0.0070  0.1350  0.0928
 8469SOL    HW126508   4.647   1.564   2.735  0.2306  1.9514  0.3495
 8469SOL    HW226509   4.776   1.630   2.692  0.2878  0.5973 -1.6556
 8470SOL     OW26510   6.613   2.316   7.108 -0.3507  0.3957 -0.7196
 8470SOL    HW126511   6.682   2.356   7.056  0.2272  0.5942  0.1846
 8470SOL    HW226512   6.653   2.238   7.146 -0.1335  1.2857  0.9938
 8471SOL     OW26513   6.445   4.111   7.822  0.1013 -0.1935  0.4617
 8471SOL    HW126514   6.398   4.181   7.867 -1.5627  0.5818 -2.2142
 8471SOL    HW226515   6.385   4.083   7.752  1.8426 -2.3833 -0.2829
 8472SOL     OW26516   6.449   4.101   4.287  0.1185 -0.3294 -0.0518
 8472SOL    HW126517   6.482   4.188   4.263  0.9346 -0.0383  1.9526
 8472SOL    HW226518   6.354   4.108   4.275  0.2236  0.6645 -0.4384
 8473SOL     OW26519   4.866   5.137   5.019 -0.4036 -0.0842  0.2125
 8473SOL    HW126520   4.951   5.093   5.018  0.1751  0.9828  0.8846
 8473SOL    HW226521   4.804   5.069   5.044  0.5056 -0.4725  1.5009
 8474SOL     OW26522   6.371   6.065   5.532 -0.1319  0.3428  0.1867
 8474SOL    HW126523   6.450   6.029   5.490 -0.4954 -0.4901  0.1919
 8474SOL    HW226524   6.319   6.099   5.460 -0.4285 -0.4354  0.0265
 8475SOL     OW26525   8.217   5.500   6.301 -0.0284 -0.3656 -0.1560
 8475SOL    HW126526   8.259   5.443   6.236 -1.1538  0.2305 -1.4696
 8475SOL    HW226527   8.125   5.474   6.300 -0.4310  0.9664 -0.2771
 8476SOL     OW26528   4.776   4.147   7.483 -0.5302 -0.1437  0.1597
 8476SOL    HW126529   4.775   4.091   7.405 -1.3232 -2.0054  1.4472
 8476SOL    HW226530   4.786   4.086   7.556 -1.8433  1.3495  1.6654
 8477SOL     OW26531   5.376   7.096   8.047 -0.6639 -0.1115  0.2678
 8477SOL    HW126532   5.380   7.134   8.134 -0.1970  3.0132 -0.9924
 8477SOL    HW226533   5.391   7.169   7.988 -3.2020 -1.6249 -2.5475
 8478SOL     OW26534   7.873   5.728   6.009  1.4461  0.0604  0.0718
 8478SOL    HW126535   7.920   5.646   6.026  1.7897  0.2453  0.0270
 8478SOL    HW226536   7.849   5.761   6.096 -0.4459 -1.0781  0.0354
 8479SOL     OW26537   4.916   6.740   4.272  0.1078  0.2683  0.2536
 8479SOL    HW126538   4.868   6.718   4.192 -1.3033 -3.1373  1.8095
 8479SOL    HW226539   4.996   6.686   4.267 -1.1071 -1.8809  2.0346
 8480SOL     OW26540   3.479   6.934   6.008  0.4966 -0.4754 -0.6468
 8480SOL    HW126541   3.460   7.027   5.995  1.7152 -0.0983  0.1147
 8480SOL    HW226542   3.445   6.914   6.095  0.1370 -0.7762 -0.8547
 8481SOL     OW26543   6.050   0.262   3.294  0.2133  0.1659  0.0387
 8481SOL    HW126544   6.055   0.218   3.379 -1.8443 -0.5903 -0.1725
 8481SOL    HW226545   5.965   0.236   3.258  1.2210  0.0259 -2.4934
 8482SOL     OW26546   6.237   6.184   4.159  0.3149  0.3455 -0.0896
 8482SOL    HW126547   6.292   6.195   4.082  0.9386 -1.8507 -0.0141
 8482SOL    HW226548   6.196   6.098   4.148  2.1347 -1.0776  2.9897
 8483SOL     OW26549   1.435   7.890   3.771  0.0168 -0.5557  0.4402
 8483SOL    HW126550   1.529   7.873   3.778  0.5764  1.6463 -0.7557
 8483SOL    HW226551   1.410   7.854   3.687  0.2655  0.5756 -0.1422
 8484SOL     OW26552   6.184   0.918   3.620  0.1413  0.2877 -0.1520
 8484SOL    HW126553   6.134   0.850   3.665 -0.5129  1.1711  0.4902
 8484SOL    HW226554   6.140   0.929   3.536 -1.8618  2.2367  1.0591
 8485SOL     OW26555   3.241   1.097   6.637 -0.2091  0.4635 -0.4135
 8485SOL    HW126556   3.283   1.070   6.719 -0.7813 -1.1459 -0.6201
 8485SOL    HW226557   3.231   1.015   6.587  0.5454  1.4510 -2.3047
 8486SOL     OW26558   6.085   6.768   5.785  0.7159 -0.0395 -0.2684
 8486SOL    HW126559   6.178   6.775   5.808  0.1579  0.5391  2.0618
 8486SOL    HW226560   6.039   6.796   5.864 -1.4539  0.3302 -1.5951
 8487SOL     OW26561   2.272   2.589   2.965  0.0252  0.3778 -0.2180
 8487SOL    HW126562   2.187   2.589   3.008 -0.4662 -1.4601 -1.0948
 8487SOL    HW226563   2.279   2.677   2.926 -0.5306  1.2548  1.5593
 8488SOL     OW26564   1.142   7.809   2.166  0.0382 -0.4825 -0.4822
 8488SOL    HW126565   1.075   7.808   2.098  0.1527 -0.3913 -0.5974
 8488SOL    HW226566   1.099   7.772   2.244 -0.0958 -0.5758 -0.6007
 8489SOL     OW26567   5.960   3.519   1.451 -0.1852  0.2388 -0.6086
 8489SOL    HW126568   5.919   3.598   1.488 -0.1570  0.9257 -2.0039
 8489SOL    HW226569   5.925   3.448   1.505  0.7582  1.2664  1.5104
 8490SOL     OW26570   7.381   1.419   7.359 -0.5863 -0.2105  0.9492
 8490SOL    HW126571   7.358   1.348   7.420 -0.2418  0.4729  1.8846
 8490SOL    HW226572   7.476   1.413   7.350 -0.6237 -0.2363  0.5656
 8491SOL     OW26573   1.900   0.867   4.031 -0.2689  0.0533 -0.3771
 8491SOL    HW126574   1.822   0.821   4.002 -0.9540  1.2503 -0.5183
 8491SOL    HW226575   1.880   0.960   4.017  0.2709  0.5457  1.7325
 8492SOL     OW26576   6.095   2.466   5.778  0.2231  0.2469  0.0509
 8492SOL    HW126577   6.079   2.372   5.780  1.0369  0.1214  0.7807
 8492SOL    HW226578   6.033   2.499   5.712 -1.3646 -0.5435  1.0768
 8493SOL     OW26579   4.681   8.890   7.956  0.2386 -0.0511  0.2986
 8493SOL    HW126580   4.623   8.868   7.883  1.3982 -0.9189 -0.3777
 8493SOL    HW226581   4.708   8.806   7.992  1.2064  0.3380  0.5084
 8494SOL     OW26582   0.397   3.609   2.280  0.2013  0.1234  0.5576
 8494SOL    HW126583   0.420   3.608   2.372 -0.4843  0.3223  0.7400
 8494SOL    HW226584   0.353   3.694   2.267 -0.3452 -0.2039  0.2181
 8495SOL     OW26585   0.780   8.764   5.143 -0.6178  0.0836 -0.0423
 8495SOL    HW126586   0.776   8.669   5.138 -1.0366  0.0914  0.0817
 8495SOL    HW226587   0.833   8.782   5.221  0.1601 -0.0430 -0.5347
 8496SOL     OW26588   0.296   4.831   2.258  0.0215 -0.7992  0.2024
 8496SOL    HW126589   0.335   4.784   2.331 -1.4373  1.5671  2.7125
 8496SOL    HW226590   0.310   4.924   2.278 -2.7136  0.0241 -1.1211
 8497SOL     OW26591   5.689   1.725   6.329  0.2199  0.4007  0.2318
 8497SOL    HW126592   5.770   1.740   6.281  0.4909 -0.6322  0.3441
 8497SOL    HW226593   5.672   1.808   6.374 -0.8155  1.9000 -2.7250
 8498SOL     OW26594   2.131   4.620   7.414 -0.8046 -0.5254 -0.0247
 8498SOL    HW126595   2.186   4.623   7.336 -1.4894  1.6612 -0.5190
 8498SOL    HW226596   2.065   4.688   7.399 -0.3893  0.6755  2.8554
 8499SOL     OW26597   5.767   8.900   0.255 -0.0851 -0.1069 -0.2932
 8499SOL    HW126598   5.823   8.833   0.294  0.4264  0.3174 -0.2847
 8499SOL    HW226599   5.728   8.858   0.178 -0.3849 -0.6567  0.1495
 8500SOL     OW26600   4.727   0.959   3.323 -0.2718  0.4955  0.4417
 8500SOL    HW126601   4.777   1.023   3.373 -0.2265  1.1709 -0.4294
 8500SOL    HW226602   4.764   0.875   3.346  1.0781  0.9561  0.0490
 8501SOL     OW26603   3.091   1.942   3.152 -0.1614  0.3706  0.6442
 8501SOL    HW126604   3.044   1.920   3.072  0.3864 -0.3670  0.5116
 8501SOL    HW226605   3.145   2.017   3.128  1.9572 -1.4008 -0.4668
 8502SOL     OW26606   0.436   5.636   5.920  0.7429 -0.3847  0.2424
 8502SOL    HW126607   0.482   5.621   6.002  2.6259  1.5954 -0.3578
 8502SOL    HW226608   0.449   5.556   5.869 -0.3193 -1.5774  1.7519
 8503SOL     OW26609   3.050   3.648   3.651  0.2916 -0.2178 -0.4215
 8503SOL    HW126610   3.022   3.568   3.695  0.5156 -0.7704 -1.2474
 8503SOL    HW226611   3.130   3.623   3.605 -0.6308 -0.0762 -2.2173
 8504SOL     OW26612   7.175   7.005   5.319  0.9621 -0.3613 -0.0653
 8504SOL    HW126613   7.081   7.022   5.330  0.6845 -2.7420  2.2741
 8504SOL    HW226614   7.214   7.091   5.304 -1.5552  0.6888 -1.1171
 8505SOL     OW26615   7.727   5.370   1.185  0.0367 -0.1645  0.1620
 8505SOL    HW126616   7.645   5.412   1.157 -0.2265  0.1679  1.3817
 8505SOL    HW226617   7.715   5.354   1.278  1.0473 -0.8736  0.1801
 8506SOL     OW26618   8.164   6.353   1.780 -0.9856  0.0614 -0.1957
 8506SOL    HW126619   8.121   6.438   1.770 -1.3525  0.3018  2.6319
 8506SOL    HW226620   8.093   6.289   1.773 -0.9320  0.0573 -0.8249
 8507SOL     OW26621   2.823   0.810   4.716 -0.3804 -0.4006  0.2064
 8507SOL    HW126622   2.849   0.780   4.629 -1.7416  2.0563 -1.1764
 8507SOL    HW226623   2.728   0.811   4.713 -0.4798 -1.1564  2.1027
 8508SOL     OW26624   1.137   7.952   0.550 -0.1066 -0.9728  0.1710
 8508SOL    HW126625   1.054   7.913   0.576 -0.0986 -0.4325  1.0459
 8508SOL    HW226626   1.202   7.883   0.567 -0.3269 -1.2650 -0.1624
 8509SOL     OW26627   8.882   8.912   5.751  0.2684  0.2922  0.5274
 8509SOL    HW126628   8.810   8.923   5.688 -0.0635  1.7828  1.1139
 8509SOL    HW226629   8.960   8.939   5.702 -0.0135  1.6295  0.7748
 8510SOL     OW26630   7.294   1.064   0.104 -0.0981 -0.2819 -0.0886
 8510SOL    HW126631   7.285   1.036   0.013 -1.6977  0.4277 -0.1805
 8510SOL    HW226632   7.341   1.148   0.099  0.6849 -0.7155 -0.1655
 8511SOL     OW26633   8.935   7.203   2.235 -0.1991 -0.2442  0.1701
 8511SOL    HW126634   8.921   7.284   2.186 -0.4490 -0.1272  0.4306
 8511SOL    HW226635   8.905   7.133   2.177  0.7150 -0.2131 -0.3473
 8512SOL     OW26636   5.003   4.548   8.676 -0.0393  0.2627 -0.4640
 8512SOL    HW126637   5.087   4.508   8.654  0.1031 -0.4626  1.2274
 8512SOL    HW226638   4.944   4.473   8.690 -0.5085  0.7109  0.0257
 8513SOL     OW26639   8.200   4.310   3.682  0.1635 -0.1586 -0.3802
 8513SOL    HW126640   8.150   4.230   3.698  0.3505  0.2490  2.7822
 8513SOL    HW226641   8.259   4.317   3.757  1.6445  1.8630 -1.6519
 8514SOL     OW26642   3.672   5.518   7.616  0.4099 -0.4821  0.5640
 8514SOL    HW126643   3.753   5.498   7.663  0.7642  1.0039  0.6316
 8514SOL    HW226644   3.625   5.578   7.675 -0.0600 -0.1839 -0.1053
 8515SOL     OW26645   2.907   4.080   1.710  0.7296 -0.4123  0.0579
 8515SOL    HW126646   2.959   4.068   1.790  1.8532 -1.0694 -0.7457
 8515SOL    HW226647   2.949   4.153   1.664 -0.0405  0.1009  0.1469
 8516SOL     OW26648   6.642   3.059   2.306  0.0935  0.1967 -0.2787
 8516SOL    HW126649   6.689   3.117   2.367  1.1884 -0.3680 -0.5620
 8516SOL    HW226650   6.573   3.114   2.269 -2.4817 -0.0998  3.4668
 8517SOL     OW26651   7.106   6.268   5.837  0.1966 -0.0268 -0.3421
 8517SOL    HW126652   7.157   6.223   5.905 -1.9429 -2.5860 -0.2628
 8517SOL    HW226653   7.170   6.287   5.768  2.5988  3.2297  2.4312
 8518SOL     OW26654   3.986   5.767   0.421  0.2384  0.2216 -0.3906
 8518SOL    HW126655   4.020   5.804   0.340  2.4928  0.7982  0.7418
 8518SOL    HW226656   3.962   5.677   0.399  0.1858  0.5657 -1.8201
 8519SOL     OW26657   0.913   5.322   2.766 -0.0870  0.2068  0.1297
 8519SOL    HW126658   0.919   5.381   2.841 -1.7384 -1.0513  1.3170
 8519SOL    HW226659   0.837   5.352   2.717  0.3540  0.3640 -0.4714
 8520SOL     OW26660   8.466   0.651   0.683 -0.1288  0.4199 -0.2811
 8520SOL    HW126661   8.512   0.640   0.600 -1.0468  0.6988 -0.8378
 8520SOL    HW226662   8.401   0.581   0.684  0.4430 -0.1281  0.6133
 8521SOL     OW26663   3.914   0.987   5.652  0.3080 -0.1021  0.0864
 8521SOL    HW126664   4.008   0.966   5.657 -0.0314 -2.0658 -0.8002
 8521SOL    HW226665   3.911   1.068   5.602  1.5406 -0.1047 -0.0390
 8522SOL     OW26666   1.970   1.072   3.288 -0.5780  0.3926  0.2150
 8522SOL    HW126667   2.001   1.037   3.371 -0.7742  0.4448  0.3093
 8522SOL    HW226668   1.989   1.166   3.293  0.3620  0.2374 -0.2193
 8523SOL     OW26669   1.632   2.625   7.962  0.0179 -0.1290 -0.3985
 8523SOL    HW126670   1.587   2.700   8.000 -1.0132 -1.1363  0.4180
 8523SOL    HW226671   1.568   2.586   7.903  1.0678  0.4954 -2.0260
 8524SOL     OW26672   8.545   5.510   7.684  0.3155 -0.4419  0.2136
 8524SOL    HW126673   8.519   5.603   7.678  0.8019 -0.2993  0.3074
 8524SOL    HW226674   8.511   5.472   7.603 -1.8694 -0.6967  1.1694
 8525SOL     OW26675   6.950   7.051   6.657 -0.0074 -0.1525 -0.1227
 8525SOL    HW126676   6.894   7.004   6.719 -0.2993  1.0288  0.5368
 8525SOL    HW226677   7.035   7.058   6.700 -0.4863  1.5566  0.6294
 8526SOL     OW26678   1.380   2.432   7.091 -0.2571  0.1239  0.0698
 8526SOL    HW126679   1.413   2.393   7.172  1.9959 -2.2994 -1.8358
 8526SOL    HW226680   1.459   2.451   7.039 -1.6078 -2.0104 -3.0721
 8527SOL     OW26681   7.887   2.561   4.631  0.2028 -0.7406  0.0694
 8527SOL    HW126682   7.924   2.473   4.642 -0.5514 -1.2847 -1.4091
 8527SOL    HW226683   7.941   2.617   4.687 -0.0954 -2.3274  2.0421
 8528SOL     OW26684   5.515   6.189   8.172 -0.6462  0.1557 -0.5185
 8528SOL    HW126685   5.559   6.115   8.130 -0.7471 -0.1539 -0.0959
 8528SOL    HW226686   5.427   6.188   8.136 -1.1796 -0.9835  0.7017
 8529SOL     OW26687   2.666   6.086   3.142 -0.0311  0.7740 -0.2407
 8529SOL    HW126688   2.716   6.055   3.218 -1.2048  1.1479  0.7183
 8529SOL    HW226689   2.732   6.106   3.076  1.1315  1.6816  1.1362
 8530SOL     OW26690   0.706   5.776   3.962  0.7590  0.1676  0.4808
 8530SOL    HW126691   0.665   5.840   3.904  0.7781 -0.1887  0.0703
 8530SOL    HW226692   0.704   5.694   3.912 -0.3080 -0.4231  1.4406
 8531SOL     OW26693   6.622   4.907   8.453  0.3652  0.6069 -0.5266
 8531SOL    HW126694   6.654   4.836   8.508 -0.7824  0.1507 -0.4051
 8531SOL    HW226695   6.700   4.953   8.424  0.9840  1.4413  2.2221
 8532SOL     OW26696   2.870   0.098   5.515 -0.0991 -0.2675  0.5609
 8532SOL    HW126697   2.874   0.100   5.419  0.4309 -0.4648  0.5721
 8532SOL    HW226698   2.823   0.178   5.539  0.9894  0.5165  0.1824
 8533SOL     OW26699   2.281   4.357   0.036 -0.1150 -0.3311 -0.3410
 8533SOL    HW126700   2.189   4.365   0.009  0.6302 -0.6333 -3.3393
 8533SOL    HW226701   2.301   4.440   0.078 -1.9726 -0.6265  1.2782
 8534SOL     OW26702   4.010   5.343   2.322 -0.0786 -0.5400  0.7566
 8534SOL    HW126703   4.079   5.379   2.379  0.0939 -0.7382  0.6742
 8534SOL    HW226704   4.044   5.356   2.233  0.4094 -1.7479  0.7490
 8535SOL     OW26705   8.533   5.333   0.685 -0.6957 -0.0452 -0.1018
 8535SOL    HW126706   8.605   5.380   0.644  0.2621 -1.3275  0.0513
 8535SOL    HW226707   8.499   5.393   0.750 -2.0865  1.9581 -2.5110
 8536SOL     OW26708   0.046   5.866   2.759 -0.5874 -0.2038 -0.7565
 8536SOL    HW126709   0.132   5.885   2.721  0.0721  1.3702  1.3466
 8536SOL    HW226710  -0.016   5.882   2.688  0.6930  1.0460 -1.6453
 8537SOL     OW26711   5.655   4.382   3.833 -0.4838  0.4427  0.3729
 8537SOL    HW126712   5.603   4.373   3.912  0.8793  1.5455  1.4468
 8537SOL    HW226713   5.638   4.302   3.783 -0.1386 -1.0511  2.5286
 8538SOL     OW26714   2.386   4.120   2.181  0.6868  0.5575 -0.1691
 8538SOL    HW126715   2.344   4.202   2.207  1.1283  0.5796  0.4965
 8538SOL    HW226716   2.313   4.061   2.164  0.2994  0.0839  2.5728
 8539SOL     OW26717   1.031   8.262   0.716  0.5775  0.1258 -0.1575
 8539SOL    HW126718   1.030   8.210   0.796 -2.2612  0.0542 -0.1419
 8539SOL    HW226719   0.971   8.217   0.657  1.5296  0.9460 -1.8393
 8540SOL     OW26720   5.394   3.893   6.419  0.3651 -0.6701  0.0441
 8540SOL    HW126721   5.445   3.830   6.367  1.1312  0.1603 -0.2533
 8540SOL    HW226722   5.409   3.977   6.375 -1.2789 -0.3971 -0.0343
 8541SOL     OW26723   7.926   8.957   2.475 -0.7347  0.1691  0.2006
 8541SOL    HW126724   7.839   8.991   2.457 -0.4817 -0.3502 -2.4276
 8541SOL    HW226725   7.913   8.894   2.546 -2.0990  1.6106  1.3073
 8542SOL     OW26726   0.505   2.939   8.248  0.4800  0.2171 -0.1962
 8542SOL    HW126727   0.583   2.947   8.302  0.4879 -0.8385 -0.0233
 8542SOL    HW226728   0.468   2.854   8.273 -2.5223  2.0090  2.0657
 8543SOL     OW26729   5.891   6.717   6.069  0.4593  0.1364  0.3120
 8543SOL    HW126730   5.884   6.681   6.157  1.0786  0.9313  0.7060
 8543SOL    HW226731   5.909   6.810   6.083 -1.3072  0.6855 -0.6550
 8544SOL     OW26732   7.916   4.370   9.075 -0.4370 -0.0286  0.4155
 8544SOL    HW126733   7.956   4.428   9.139 -1.5519  0.7315  0.4627
 8544SOL    HW226734   7.827   4.405   9.063 -0.5009 -0.5823 -0.9929
 8545SOL     OW26735   5.989   8.011   1.367  0.2956 -0.2820 -0.4466
 8545SOL    HW126736   5.924   7.993   1.298  0.9420  0.0713 -1.1659
 8545SOL    HW226737   5.962   7.956   1.440 -1.6578  0.9279 -0.1893
 8546SOL     OW26738   3.611   5.061   5.127  0.2087  0.3274  0.6520
 8546SOL    HW126739   3.687   5.112   5.100  0.6985 -0.6586  0.0970
 8546SOL    HW226740   3.621   5.051   5.222 -0.6199  2.3704  1.0213
 8547SOL     OW26741   0.585   1.220   0.687  0.4517  0.3467  0.4917
 8547SOL    HW126742   0.611   1.310   0.668  0.5290  0.2786  0.2659
 8547SOL    HW226743   0.490   1.223   0.690  0.4482  0.4148  0.3578
 8548SOL     OW26744   5.015   2.923   6.727 -0.2689  0.2810  0.1411
 8548SOL    HW126745   5.056   2.946   6.644 -0.2086  0.5683  0.2507
 8548SOL    HW226746   5.021   3.002   6.780  0.0374 -0.0166  0.5574
 8549SOL     OW26747   2.755   6.866   6.431 -0.0632 -0.2521 -0.2407
 8549SOL    HW126748   2.741   6.775   6.455 -4.3462 -0.1001 -1.3555
 8549SOL    HW226749   2.830   6.894   6.484 -2.0491 -2.8391  4.5619
 8550SOL     OW26750   6.182   4.565   2.219 -0.3499 -0.1632  0.1960
 8550SOL    HW126751   6.166   4.537   2.129  1.4498 -0.6358 -0.0172
 8550SOL    HW226752   6.188   4.483   2.268 -1.2142  0.0893  0.7559
 8551SOL     OW26753   0.164   6.672   0.699 -0.1123 -0.0487 -0.4994
 8551SOL    HW126754   0.170   6.752   0.647  0.6262  0.4909  0.3854
 8551SOL    HW226755   0.083   6.630   0.670 -0.9887  1.4681 -0.3530
 8552SOL     OW26756   1.048   0.236   4.649 -0.4120  0.3060  0.3543
 8552SOL    HW126757   0.970   0.273   4.690 -0.0666  2.2138 -0.5691
 8552SOL    HW226758   1.022   0.149   4.619 -2.8072  1.5579 -1.5638
 8553SOL     OW26759   8.741   8.290   7.125  0.3822  0.3430  0.4364
 8553SOL    HW126760   8.796   8.219   7.093 -0.3143 -1.0122  2.0983
 8553SOL    HW226761   8.803   8.354   7.160  1.1055  1.4425 -2.5625
 8554SOL     OW26762   0.145   3.724   3.946  0.4381 -0.3308  0.0876
 8554SOL    HW126763   0.050   3.717   3.941  0.2894  1.8724 -2.3094
 8554SOL    HW226764   0.161   3.775   4.026 -0.3264 -1.1672  0.7928
 8555SOL     OW26765   7.856   2.528   3.229 -0.0219 -0.5533  0.7007
 8555SOL    HW126766   7.942   2.520   3.189 -0.4182  1.7921 -0.7990
 8555SOL    HW226767   7.870   2.583   3.306  0.0288 -1.4407  1.3444
 8556SOL     OW26768   7.439   5.632   6.515  0.1451 -0.6284  0.5018
 8556SOL    HW126769   7.353   5.642   6.474 -0.1146 -0.6707  1.0197
 8556SOL    HW226770   7.461   5.720   6.545  0.0403 -0.7124  0.8323
 8557SOL     OW26771   9.011   4.259   8.457 -0.2500 -0.3714 -0.3843
 8557SOL    HW126772   9.095   4.224   8.488  0.4451  1.4337 -0.1334
 8557SOL    HW226773   8.980   4.194   8.394  1.9542 -0.5033 -1.4364
 8558SOL     OW26774   6.947   4.600   6.410  0.0045 -0.4529  0.2581
 8558SOL    HW126775   6.985   4.640   6.332  0.6363 -1.0389  0.2643
 8558SOL    HW226776   6.898   4.524   6.378  0.8638 -1.1208  0.4946
 8559SOL     OW26777   2.305   3.834   6.585  0.0965  0.6233 -0.1707
 8559SOL    HW126778   2.314   3.812   6.492 -1.4817  2.1873 -0.7611
 8559SOL    HW226779   2.317   3.929   6.588 -2.2154  0.9476  0.8254
 8560SOL     OW26780   1.828   2.779   5.448 -0.3429  0.2241 -0.5701
 8560SOL    HW126781   1.776   2.702   5.425  1.2915 -1.5085  1.0941
 8560SOL    HW226782   1.775   2.826   5.512  0.1537 -1.7347  1.4218
 8561SOL     OW26783   7.119   1.917   0.184 -0.0155  0.3998 -0.1784
 8561SOL    HW126784   7.145   1.846   0.242  0.5892  2.0794  1.6975
 8561SOL    HW226785   7.046   1.960   0.230  0.5056  1.7939 -0.6116
 8562SOL     OW26786   4.172   1.269   3.460 -0.8324  0.6733  0.3939
 8562SOL    HW126787   4.212   1.356   3.451 -1.7138  0.9993 -0.5850
 8562SOL    HW226788   4.084   1.287   3.494 -0.9402  0.1426  0.3933
 8563SOL     OW26789   8.055   4.061   7.274 -0.4537  0.4156  0.5229
 8563SOL    HW126790   7.959   4.065   7.275 -0.4504  1.7330 -0.8426
 8563SOL    HW226791   8.077   4.036   7.184  0.4920 -0.7490  1.0488
 8564SOL     OW26792   1.964   7.544   2.577 -0.0320 -0.1595 -0.5645
 8564SOL    HW126793   2.018   7.574   2.503 -1.7724  1.4321 -1.2834
 8564SOL    HW226794   1.928   7.460   2.548  0.1390 -0.0613 -1.0736
 8565SOL     OW26795   2.658   5.247   2.973  0.2012  0.4959 -0.0348
 8565SOL    HW126796   2.652   5.307   3.047 -0.5356  1.4044 -0.8113
 8565SOL    HW226797   2.592   5.181   2.990  2.3255 -1.3258  1.8390
 8566SOL     OW26798   5.781   7.820   7.822  0.5359 -0.4637 -0.0669
 8566SOL    HW126799   5.788   7.781   7.909  1.8859 -0.0138  0.0413
 8566SOL    HW226800   5.820   7.756   7.763  1.5431  0.1156 -0.0557
 8567SOL     OW26801   1.202   8.270   8.359 -0.4167  0.3154 -0.3738
 8567SOL    HW126802   1.220   8.261   8.265 -0.5908 -1.3193 -0.2797
 8567SOL    HW226803   1.270   8.218   8.401 -1.3915 -0.4413  0.3070
 8568SOL     OW26804   5.498   6.772   0.810  0.2089 -0.1562 -0.6460
 8568SOL    HW126805   5.560   6.844   0.812  0.2272 -0.1787 -0.3552
 8568SOL    HW226806   5.481   6.758   0.717  1.6869 -1.0447 -0.8179
 8569SOL     OW26807   7.991   1.196   2.642 -0.3953 -0.3221  0.3382
 8569SOL    HW126808   7.978   1.119   2.587 -0.8111  0.6231 -0.9440
 8569SOL    HW226809   8.054   1.250   2.594 -0.9798  0.6613  0.6441
 8570SOL     OW26810   3.401   5.062   4.476  0.4793  0.2107 -0.3339
 8570SOL    HW126811   3.445   5.104   4.402  0.3515 -0.7869 -0.9869
 8570SOL    HW226812   3.338   5.002   4.436 -0.4129  0.4985  0.5902
 8571SOL     OW26813   3.152   2.695   7.585  0.0314  0.0947  0.2970
 8571SOL    HW126814   3.191   2.674   7.670 -0.0798  0.9715  0.5758
 8571SOL    HW226815   3.082   2.631   7.574  0.3818 -0.3528  0.6239
 8572SOL     OW26816   3.088   6.259   3.906  0.4492  0.1364 -0.0246
 8572SOL    HW126817   3.017   6.200   3.932 -0.9662  1.9111  0.3095
 8572SOL    HW226818   3.106   6.310   3.985 -1.5432  3.2541 -1.3833
 8573SOL     OW26819   7.526   1.907   1.619  0.3119 -0.4452 -0.3887
 8573SOL    HW126820   7.543   1.833   1.678 -1.0922 -0.8805 -0.4861
 8573SOL    HW226821   7.478   1.970   1.673  2.3306  0.8678 -0.0358
 8574SOL     OW26822   2.371   1.931   0.115 -0.4315 -0.5411  0.5592
 8574SOL    HW126823   2.411   2.018   0.118  1.9515 -1.4827 -0.6552
 8574SOL    HW226824   2.412   1.883   0.187 -0.0112 -1.2672 -0.1427
 8575SOL     OW26825   2.464   3.030   0.481 -0.1238 -0.0927 -0.5085
 8575SOL    HW126826   2.462   3.110   0.429 -1.2663  0.4381  0.3005
 8575SOL    HW226827   2.388   3.038   0.540 -0.0837 -1.6264 -0.2079
 8576SOL     OW26828   1.739   8.874   3.604  0.3593 -0.5021  0.1617
 8576SOL    HW126829   1.685   8.953   3.600  2.7805  1.3386  1.2768
 8576SOL    HW226830   1.735   8.838   3.515 -2.9800 -0.8148  0.2775
 8577SOL     OW26831   2.395   8.884   8.672 -0.0633 -0.1443 -0.0307
 8577SOL    HW126832   2.324   8.825   8.699  0.9817 -1.1506  0.6069
 8577SOL    HW226833   2.354   8.970   8.669 -1.3343 -0.7126  0.2500
 8578SOL     OW26834   6.807   2.300   8.575 -0.0367  0.1942  0.1271
 8578SOL    HW126835   6.819   2.233   8.642 -0.5283  0.2246  0.2507
 8578SOL    HW226836   6.868   2.369   8.600  1.0987 -0.5592 -0.4829
 8579SOL     OW26837   4.406   8.259   0.207  0.0417 -0.0391 -0.2221
 8579SOL    HW126838   4.333   8.302   0.161 -0.3933  0.1984  0.6722
 8579SOL    HW226839   4.410   8.303   0.292  2.1337  0.9355 -0.7462
 8580SOL     OW26840   9.021   4.565   5.958 -0.1357 -0.3434  0.0607
 8580SOL    HW126841   9.053   4.591   6.045 -1.4294  2.3567 -0.1829
 8580SOL    HW226842   8.929   4.542   5.972  0.4712 -3.3521 -0.0957
 8581SOL     OW26843   5.288   8.017   1.622 -0.2393 -0.0701 -0.1284
 8581SOL    HW126844   5.256   8.057   1.703 -1.4736 -2.0138  0.4247
 8581SOL    HW226845   5.257   8.075   1.553 -1.9963 -0.0502  0.6303
 8582SOL     OW26846   7.729   6.467   2.412 -0.3132 -0.1350  0.0578
 8582SOL    HW126847   7.763   6.437   2.496  0.6781 -0.8460 -0.5674
 8582SOL    HW226848   7.788   6.428   2.347 -0.1727  1.5588 -0.9047
 8583SOL     OW26849   6.960   6.530   4.058  0.3500 -0.0762 -0.3163
 8583SOL    HW126850   6.926   6.619   4.045 -0.2824 -0.2157  0.3478
 8583SOL    HW226851   6.882   6.476   4.071  0.7656  0.0249  4.0963
 8584SOL     OW26852   9.109   3.595   3.600 -0.0150 -0.1127 -0.1162
 8584SOL    HW126853   9.017   3.601   3.573  0.0286  0.1031 -0.2157
 8584SOL    HW226854   9.123   3.502   3.617  0.1561 -0.3573 -1.5240
 8585SOL     OW26855   4.280   2.609   2.484  0.5892  0.3710 -0.5505
 8585SOL    HW126856   4.190   2.591   2.458  0.1597  2.3283 -0.5406
 8585SOL    HW226857   4.275   2.629   2.577  0.9737  0.8915 -0.6380
 8586SOL     OW26858   5.929   2.487   2.214  0.3939  0.0085 -0.1257
 8586SOL    HW126859   5.880   2.567   2.193 -0.7066 -0.4617  0.5698
 8586SOL    HW226860   5.868   2.434   2.265  1.0786 -1.3112 -0.6292
 8587SOL     OW26861   2.454   3.836   3.411  0.7194  0.1438  0.0118
 8587SOL    HW126862   2.441   3.906   3.348 -1.8880 -0.8026 -0.6190
 8587SOL    HW226863   2.506   3.771   3.363 -0.4963 -0.1856 -0.9024
 8588SOL     OW26864   3.722   8.535   6.374  0.1896  0.2063 -0.2673
 8588SOL    HW126865   3.637   8.503   6.344  0.4367  0.8714 -1.7581
 8588SOL    HW226866   3.759   8.461   6.423 -1.6569  0.2577  1.3465
 8589SOL     OW26867   3.964   2.069   2.610 -0.3254 -0.2666  0.0483
 8589SOL    HW126868   4.045   2.094   2.565  0.0280 -1.2567  0.1233
 8589SOL    HW226869   3.970   2.113   2.695 -1.0064  1.6328 -0.8364
 8590SOL     OW26870   1.462   1.189   8.471 -0.1902 -0.3024 -0.6241
 8590SOL    HW126871   1.451   1.096   8.451 -1.6058 -0.3595  0.3031
 8590SOL    HW226872   1.440   1.234   8.389 -2.1856 -0.6952 -0.3686
 8591SOL     OW26873   0.282   8.766   2.877 -0.3145 -0.7816  0.0323
 8591SOL    HW126874   0.251   8.765   2.786  0.7598  0.7137 -0.3811
 8591SOL    HW226875   0.351   8.700   2.880 -0.9219 -1.4410  0.0121
 8592SOL     OW26876   4.925   8.040   6.409  0.0267 -0.7521  0.4197
 8592SOL    HW126877   4.840   8.013   6.445  0.3480 -0.2618  1.5849
 8592SOL    HW226878   4.904   8.111   6.348 -0.2476  1.1649  2.5916
 8593SOL     OW26879   1.394   7.642   1.806 -0.0294 -0.2617 -0.0730
 8593SOL    HW126880   1.375   7.583   1.733  0.1125  1.5769 -1.6919
 8593SOL    HW226881   1.371   7.592   1.884 -2.4700 -1.5244 -1.4532
 8594SOL     OW26882   1.303   0.164   2.837  0.3123  0.0595  0.6668
 8594SOL    HW126883   1.351   0.094   2.792  1.0848  0.3452  1.0188
 8594SOL    HW226884   1.245   0.200   2.771 -1.5827 -2.2037  0.9775
 8595SOL     OW26885   3.179   4.893   4.699  0.4260 -0.6462  0.7319
 8595SOL    HW126886   3.243   4.883   4.628  0.0873  0.6336  0.2133
 8595SOL    HW226887   3.111   4.829   4.678  0.4405 -0.4433  0.0190
 8596SOL     OW26888   6.762   7.296   6.624  0.3042  0.0147  0.1508
 8596SOL    HW126889   6.803   7.210   6.612 -0.1084 -0.0543 -0.8808
 8596SOL    HW226890   6.738   7.298   6.716  1.0858 -0.6295  0.3859
 8597SOL     OW26891   7.364   2.896   4.859  0.2327  0.1551 -0.0180
 8597SOL    HW126892   7.400   2.889   4.771 -1.8420  1.3673 -1.0252
 8597SOL    HW226893   7.342   2.988   4.869  0.4958  0.0525  1.8203
 8598SOL     OW26894   5.932   6.721   3.106  0.2006  0.5655 -0.2726
 8598SOL    HW126895   6.012   6.713   3.159  0.9297  0.7088 -1.3303
 8598SOL    HW226896   5.949   6.795   3.048 -0.9171  0.9256 -0.1656
 8599SOL     OW26897   8.100   8.956   7.306  0.0297  0.2200 -0.0137
 8599SOL    HW126898   8.109   9.049   7.327  1.5939  0.7058 -2.4357
 8599SOL    HW226899   8.189   8.923   7.308 -0.2597 -0.6944 -1.3033
 8600SOL     OW26900   8.846   8.139   4.274 -0.3335 -0.3460  0.3694
 8600SOL    HW126901   8.814   8.198   4.342 -0.2033 -1.2510  1.2340
 8600SOL    HW226902   8.865   8.196   4.199 -2.0361  0.4626  0.5211
 8601SOL     OW26903   9.021   4.131   4.145  0.4892 -0.0191 -0.4324
 8601SOL    HW126904   8.959   4.124   4.217  0.9581 -0.5940 -0.0778
 8601SOL    HW226905   9.101   4.166   4.184  0.0290  1.9098 -1.1149
 8602SOL     OW26906   6.874   3.986   6.230  0.1330  0.3970  0.3979
 8602SOL    HW126907   6.955   3.982   6.281  0.2929 -3.8560  0.1795
 8602SOL    HW226908   6.807   3.951   6.289 -0.0006 -2.9719 -1.4915
 8603SOL     OW26909   8.527   6.152   7.400  0.2322 -0.1703  0.4714
 8603SOL    HW126910   8.510   6.069   7.355 -2.3145  0.2639  0.4751
 8603SOL    HW226911   8.530   6.129   7.493 -0.1927 -0.3087  0.4528
 8604SOL     OW26912   3.016   2.477   2.075  0.0807  0.0256 -0.0628
 8604SOL    HW126913   2.938   2.516   2.113  0.2962  0.7365 -0.3271
 8604SOL    HW226914   2.988   2.445   1.989  0.5123  2.1879 -1.1014
 8605SOL     OW26915   8.996   2.517   3.215  0.0017  0.0523 -0.2872
 8605SOL    HW126916   9.014   2.499   3.122 -0.3738 -0.4920 -0.2612
 8605SOL    HW226917   9.074   2.484   3.260 -0.6071 -1.4156 -0.2577
 8606SOL     OW26918   1.806   8.483   1.656  0.4856  0.5577 -0.1293
 8606SOL    HW126919   1.725   8.524   1.686  0.6272  0.5730  0.2349
 8606SOL    HW226920   1.802   8.394   1.689 -0.3935 -0.1225 -1.9596
 8607SOL     OW26921   8.442   0.129   4.145  0.7357 -0.6254 -0.5332
 8607SOL    HW126922   8.510   0.185   4.181 -0.5997  0.6601  0.0791
 8607SOL    HW226923   8.361   0.158   4.188 -0.0534 -2.9111 -0.3044
 8608SOL     OW26924   2.371   6.441   3.145  0.1367  0.2746 -0.1804
 8608SOL    HW126925   2.393   6.474   3.232  1.1414  1.0249 -0.6956
 8608SOL    HW226926   2.398   6.511   3.085  0.9133 -0.8535 -1.2048
 8609SOL     OW26927   0.789   1.118   4.982  0.5751  0.0233 -0.1565
 8609SOL    HW126928   0.770   1.056   4.912  1.4989  0.8646 -1.1769
 8609SOL    HW226929   0.880   1.145   4.968  0.0622  1.9943 -0.0711
 8610SOL     OW26930   6.062   8.877   3.233  0.2776 -0.2598 -0.0342
 8610SOL    HW126931   5.967   8.869   3.228  0.3066 -0.6699  0.0823
 8610SOL    HW226932   6.085   8.840   3.318  0.5899 -0.5940 -0.2602
 8611SOL     OW26933   4.323   5.795   6.885  0.3933  0.0419 -0.5057
 8611SOL    HW126934   4.318   5.891   6.881 -1.1299 -0.0512 -1.3994
 8611SOL    HW226935   4.262   5.765   6.818 -1.3908 -1.5711  1.6984
 8612SOL     OW26936   8.683   1.904   0.567 -0.0323  0.2966  0.4944
 8612SOL    HW126937   8.730   1.937   0.490 -2.5540  0.3718 -1.1230
 8612SOL    HW226938   8.737   1.831   0.598  2.3520  1.8372  0.2563
 8613SOL     OW26939   7.594   2.366   8.596  0.5589 -0.2332 -0.2220
 8613SOL    HW126940   7.583   2.371   8.501 -1.3008 -2.8000 -0.2235
 8613SOL    HW226941   7.671   2.310   8.609  1.1208  0.5289 -0.1756
 8614SOL     OW26942   8.402   2.151   8.191  0.4702  0.1140  0.1707
 8614SOL    HW126943   8.385   2.079   8.252  0.7998  0.4935  0.7065
 8614SOL    HW226944   8.365   2.120   8.108 -2.0408  0.4917  1.0376
 8615SOL     OW26945   6.542   1.184   4.643 -0.6146  0.0613  0.2957
 8615SOL    HW126946   6.458   1.165   4.602 -1.0877  0.9807  0.8184
 8615SOL    HW226947   6.599   1.111   4.616 -1.7955 -1.0174  0.6204
 8616SOL     OW26948   6.457   3.952   0.140  0.6077 -0.3162 -0.0461
 8616SOL    HW126949   6.502   3.937   0.056  1.1951 -1.7838  0.4947
 8616SOL    HW226950   6.485   3.879   0.195  0.0170  0.4744  1.3535
 8617SOL     OW26951   1.178   0.266   2.634  0.4276  0.1460 -0.5707
 8617SOL    HW126952   1.109   0.331   2.640  1.5990  1.4255 -0.3474
 8617SOL    HW226953   1.225   0.288   2.553  0.7863 -0.4633 -0.5360
 8618SOL     OW26954   7.920   8.321   2.291 -0.0083 -0.3771 -0.8060
 8618SOL    HW126955   7.826   8.302   2.291 -0.4793  1.7471 -0.5927
 8618SOL    HW226956   7.928   8.400   2.344  2.2555 -1.9877  1.4958
 8619SOL     OW26957   7.843   8.500   7.214 -0.1212  0.3548  0.3319
 8619SOL    HW126958   7.802   8.523   7.298 -0.3840 -1.7857  0.8378
 8619SOL    HW226959   7.923   8.453   7.238 -0.0951 -0.1071 -0.6201
 8620SOL     OW26960   4.228   2.818   8.707 -0.1979 -0.1139 -0.0718
 8620SOL    HW126961   4.237   2.908   8.675  4.3346  0.8695  2.9856
 8620SOL    HW226962   4.259   2.764   8.635  1.4822  1.2357 -0.4287
 8621SOL     OW26963   7.075   2.889   8.410 -0.1523 -0.0624  0.3223
 8621SOL    HW126964   7.114   2.855   8.329  1.7640  0.8307  0.7907
 8621SOL    HW226965   7.150   2.918   8.461 -1.3794  0.0647  2.1258
 8622SOL     OW26966   5.455   0.676   5.995  0.0089 -0.7191 -0.1749
 8622SOL    HW126967   5.475   0.672   6.088 -1.6811  0.2832  0.2590
 8622SOL    HW226968   5.536   0.708   5.954  0.1493  0.8196  1.2086
 8623SOL     OW26969   1.290   8.671   4.532 -0.4047 -0.1563 -0.0414
 8623SOL    HW126970   1.286   8.700   4.441 -1.4586  1.9605  0.6164
 8623SOL    HW226971   1.374   8.703   4.564  1.2752 -3.2681 -0.9079
 8624SOL     OW26972   4.419   1.104   8.813 -0.4633 -0.1303 -0.0256
 8624SOL    HW126973   4.435   1.057   8.895  0.1232 -4.6217 -2.3947
 8624SOL    HW226974   4.324   1.105   8.805 -0.6126  1.6033  1.1925
 8625SOL     OW26975   4.671   3.012   3.863 -0.5446 -0.3230 -0.4090
 8625SOL    HW126976   4.752   3.044   3.825 -1.7683  0.7312 -2.2618
 8625SOL    HW226977   4.610   3.085   3.855 -1.3083 -0.5490  2.3382
 8626SOL     OW26978   2.562   1.923   5.253  0.0812 -0.0451  0.1631
 8626SOL    HW126979   2.578   2.011   5.220 -1.2569  0.4692  0.8222
 8626SOL    HW226980   2.528   1.936   5.342  1.2571 -1.2929  0.8396
 8627SOL     OW26981   2.150   0.560   1.482 -0.2877  0.4366  0.5760
 8627SOL    HW126982   2.198   0.590   1.405  1.3122 -1.0346  0.9604
 8627SOL    HW226983   2.183   0.472   1.500 -1.8032  0.0936  1.9822
 8628SOL     OW26984   6.427   4.207   3.447 -0.0002  0.3015 -0.7367
 8628SOL    HW126985   6.439   4.204   3.542 -0.2627  0.9491 -0.6800
 8628SOL    HW226986   6.506   4.251   3.415 -0.8314  1.9521 -0.6221
 8629SOL     OW26987   0.593   2.839   5.569  0.4994  0.1538  0.6755
 8629SOL    HW126988   0.657   2.909   5.561 -0.0100  0.5048 -0.6246
 8629SOL    HW226989   0.643   2.759   5.551  0.6911  0.3699  0.2362
 8630SOL     OW26990   0.921   3.798   6.700 -0.7476  0.0666  0.0689
 8630SOL    HW126991   0.880   3.868   6.649 -0.2929 -0.0667 -0.4923
 8630SOL    HW226992   0.880   3.718   6.669  0.9263 -0.2330 -1.5889
 8631SOL     OW26993   5.636   3.839   6.662 -0.5587 -0.1622 -0.3428
 8631SOL    HW126994   5.557   3.870   6.617 -0.4279 -0.9524 -1.1373
 8631SOL    HW226995   5.653   3.753   6.624  0.4433 -0.1855  0.1342
 8632SOL     OW26996   0.587   4.910   6.922 -0.0253 -0.0706 -0.2332
 8632SOL    HW126997   0.609   4.951   6.838  0.8049  0.8630  0.4114
 8632SOL    HW226998   0.491   4.909   6.924 -0.1841  3.3017  0.3408
 8633SOL     OW26999   5.573   4.494   0.752 -0.2091 -0.0670 -0.5988
 8633SOL    HW127000   5.505   4.506   0.818  0.0086 -0.1614 -0.3529
 8633SOL    HW227001   5.622   4.417   0.782  0.0647  0.0571 -0.7173
 8634SOL     OW27002   6.608   2.982   7.650  0.3826 -0.4300 -0.4567
 8634SOL    HW127003   6.584   2.933   7.728 -0.1158 -0.0712 -0.3811
 8634SOL    HW227004   6.676   3.042   7.679 -0.3884  0.2868 -0.1022
 8635SOL     OW27005   3.879   9.028   4.805 -0.4569 -0.0116  0.0038
 8635SOL    HW127006   3.929   8.947   4.808 -0.0679  0.1612 -1.3864
 8635SOL    HW227007   3.821   9.018   4.730  0.0660  1.2521 -0.6035
 8636SOL     OW27008   4.486   2.229   2.184  0.1301 -0.2266  0.3430
 8636SOL    HW127009   4.472   2.147   2.231 -0.2779 -0.0931  0.4584
 8636SOL    HW227010   4.501   2.294   2.254 -0.4801 -0.0275  0.2986
 8637SOL     OW27011   0.159   7.069   5.419  0.7464 -0.1212  0.1820
 8637SOL    HW127012   0.085   7.055   5.478 -0.0394 -0.6485 -0.9081
 8637SOL    HW227013   0.209   7.139   5.460 -1.2212  1.3846  0.1298
 8638SOL     OW27014   2.139   1.912   3.591  0.2452  0.4546 -0.6593
 8638SOL    HW127015   2.194   1.835   3.579  0.9448  1.1252 -2.0226
 8638SOL    HW227016   2.080   1.912   3.516  1.0409  1.8452 -1.3348
 8639SOL     OW27017   1.443   3.874   0.961  0.3073 -0.5440 -0.2706
 8639SOL    HW127018   1.446   3.779   0.945  0.8145 -0.7350  0.8535
 8639SOL    HW227019   1.487   3.885   1.045  1.0625  0.8060 -0.8212
 8640SOL     OW27020   7.014   2.349   3.969  0.0346 -0.0169  0.1778
 8640SOL    HW127021   6.993   2.328   3.878  1.3234  1.2574 -0.4541
 8640SOL    HW227022   7.016   2.444   3.973 -1.5884  0.0121  1.9662
 8641SOL     OW27023   3.789   8.262   5.835 -0.5677 -0.0914 -0.1409
 8641SOL    HW127024   3.724   8.300   5.775 -0.8802 -1.0997 -0.4640
 8641SOL    HW227025   3.737   8.234   5.911 -0.0176  2.4023  1.2937
 8642SOL     OW27026   2.447   1.216   0.093 -0.4052  0.1994 -0.4822
 8642SOL    HW127027   2.536   1.240   0.118  0.0631 -0.9743 -0.9396
 8642SOL    HW227028   2.404   1.299   0.075  0.5206  0.8004  0.0083
 8643SOL     OW27029   3.386   3.339   5.587  0.3149 -0.1217  0.2208
 8643SOL    HW127030   3.347   3.426   5.589  0.9164  0.2473 -1.6688
 8643SOL    HW227031   3.314   3.279   5.606 -1.1164  0.5716 -2.3921
 8644SOL     OW27032   5.724   4.461   7.781 -0.3993 -0.5419  0.0069
 8644SOL    HW127033   5.662   4.523   7.741 -0.5397 -1.6359 -1.5881
 8644SOL    HW227034   5.692   4.450   7.870 -1.8115 -0.1447 -0.4123
 8645SOL     OW27035   2.293   2.842   8.674  0.4965 -0.0419 -0.1626
 8645SOL    HW127036   2.315   2.926   8.713 -0.4129  0.7605 -1.3113
 8645SOL    HW227037   2.375   2.793   8.676  1.5047  1.5284 -1.0952
 8646SOL     OW27038   8.718   5.281   7.745  0.5041 -0.9296 -0.4309
 8646SOL    HW127039   8.687   5.258   7.832 -2.6074 -2.2362 -1.7351
 8646SOL    HW227040   8.659   5.349   7.715 -0.2844 -2.4110 -2.4737
 8647SOL     OW27041   8.406   0.905   0.096  0.4247  0.3002 -0.4356
 8647SOL    HW127042   8.494   0.942   0.104  1.2767 -0.8315 -3.3497
 8647SOL    HW227043   8.348   0.978   0.119  2.0408  0.7845  2.5649
 8648SOL     OW27044   1.178   3.965   5.308 -0.2208  0.6690  0.4852
 8648SOL    HW127045   1.272   3.982   5.321  0.1212  1.2214 -2.0777
 8648SOL    HW227046   1.138   3.987   5.392  1.9450  0.3033  1.6931
 8649SOL     OW27047   7.825   8.472   5.854 -0.1603 -0.3332 -0.5092
 8649SOL    HW127048   7.870   8.518   5.925 -2.1895 -0.0306  0.6394
 8649SOL    HW227049   7.777   8.402   5.898 -0.9662 -0.5185 -1.6496
 8650SOL     OW27050   2.490   4.097   1.855 -0.2468  0.0105 -0.1548
 8650SOL    HW127051   2.401   4.062   1.863  0.3397 -1.6267 -0.5389
 8650SOL    HW227052   2.496   4.126   1.764 -0.0365 -0.8765 -0.4247
 8651SOL     OW27053   7.685   4.921   5.589  0.1316 -0.2444  0.1534
 8651SOL    HW127054   7.593   4.911   5.615  0.8175 -0.3720  2.8871
 8651SOL    HW227055   7.731   4.853   5.638  1.7564  0.0786 -0.8457
 8652SOL     OW27056   7.411   7.272   2.572 -0.2670  0.2420  0.0085
 8652SOL    HW127057   7.486   7.330   2.585  0.0794  0.1316 -1.3745
 8652SOL    HW227058   7.445   7.185   2.592  0.6737 -0.1212 -2.7515
 8653SOL     OW27059   5.692   2.784   5.717  0.1870  0.5198  0.2311
 8653SOL    HW127060   5.666   2.703   5.672  0.5270  0.6153 -0.1398
 8653SOL    HW227061   5.634   2.788   5.793 -1.1420  0.9202 -0.7821
 8654SOL     OW27062   5.165   0.339   3.940 -0.0237  0.5826 -0.2288
 8654SOL    HW127063   5.202   0.255   3.967  0.3160  1.0279  0.7072
 8654SOL    HW227064   5.216   0.364   3.863 -0.7366 -0.5030 -1.0889
 8655SOL     OW27065   2.777   5.554   7.456 -0.9502 -0.3920 -0.0531
 8655SOL    HW127066   2.850   5.494   7.472 -1.7126 -0.5334  3.8185
 8655SOL    HW227067   2.819   5.639   7.444 -0.0646 -0.6951  0.7169
 8656SOL     OW27068   7.934   1.560   4.753  0.5626  0.1593 -0.2581
 8656SOL    HW127069   8.015   1.509   4.747  1.0407  1.0089 -1.3855
 8656SOL    HW227070   7.926   1.603   4.668  0.5601  2.5103  0.8556
 8657SOL     OW27071   3.070   0.759   2.570  0.3448 -0.3047  0.2229
 8657SOL    HW127072   3.154   0.741   2.528 -0.4994 -1.3482 -1.0894
 8657SOL    HW227073   3.019   0.805   2.504 -0.0438  0.5406  1.0926
 8658SOL     OW27074   6.026   2.066   4.953  0.3853 -0.0772 -0.4306
 8658SOL    HW127075   6.009   2.035   4.864  0.7700 -0.0900 -0.5027
 8658SOL    HW227076   6.038   2.160   4.943 -0.5179  0.0619 -0.2496
 8659SOL     OW27077   5.354   3.335   5.998 -0.4195  0.1767  0.8383
 8659SOL    HW127078   5.335   3.412   5.944 -1.6523 -0.2409  0.6509
 8659SOL    HW227079   5.319   3.356   6.084 -0.6760 -0.1360  0.8116
 8660SOL     OW27080   0.945   8.216   6.388  0.5016 -0.5645 -0.3572
 8660SOL    HW127081   0.925   8.157   6.315 -0.9759 -0.8281  0.2324
 8660SOL    HW227082   0.891   8.183   6.460 -0.4528  1.5526 -0.0415
 8661SOL     OW27083   5.745   3.114   2.343 -0.0395 -0.1465  0.3958
 8661SOL    HW127084   5.697   3.109   2.426 -1.7298  2.2412 -0.3500
 8661SOL    HW227085   5.807   3.186   2.355 -0.1068  0.0372 -0.3313
 8662SOL     OW27086   6.344   9.085   6.274  0.0327  0.0355  0.0439
 8662SOL    HW127087   6.372   9.167   6.233  0.5419  0.4111  1.1116
 8662SOL    HW227088   6.301   9.112   6.355  2.3572 -0.8198  1.6646
 8663SOL     OW27089   5.119   4.946   0.919  0.1971  0.2773  0.0087
 8663SOL    HW127090   5.148   4.921   1.007 -1.6927  1.2900  0.9774
 8663SOL    HW227091   5.166   4.886   0.861 -0.0555 -1.8556  1.8417
 8664SOL     OW27092   7.161   5.389   8.464 -0.2942  0.3590  0.4393
 8664SOL    HW127093   7.216   5.428   8.397 -1.6512  1.5114 -0.0631
 8664SOL    HW227094   7.071   5.409   8.436 -1.0276 -2.0690  0.8260
 8665SOL     OW27095   7.538   0.478   0.083 -0.0605  0.3826  0.8869
 8665SOL    HW127096   7.514   0.567   0.057 -0.4711 -0.0421 -0.2453
 8665SOL    HW227097   7.588   0.444   0.010  2.4077  0.5503  2.3861
 8666SOL     OW27098   5.735   6.439   7.466 -0.2401 -0.8876 -0.0988
 8666SOL    HW127099   5.751   6.347   7.489  0.8813 -0.7988 -0.4429
 8666SOL    HW227100   5.674   6.435   7.392 -1.3131 -1.2876  0.7879
 8667SOL     OW27101   8.168   0.226   4.220 -0.8364 -0.3481 -0.4808
 8667SOL    HW127102   8.115   0.187   4.289 -0.7610  1.0916  0.4135
 8667SOL    HW227103   8.140   0.181   4.140 -2.1088 -0.8625  0.2368
 8668SOL     OW27104   6.390   0.853   6.012  0.3398  0.2589 -0.3254
 8668SOL    HW127105   6.339   0.774   6.029 -2.0247  1.9892  1.1992
 8668SOL    HW227106   6.337   0.904   5.952  1.8842  0.7123 -1.3772
 8669SOL     OW27107   3.290   1.523   7.289  0.5316 -0.6968 -0.0984
 8669SOL    HW127108   3.311   1.538   7.381  1.2410 -0.7014 -0.2548
 8669SOL    HW227109   3.238   1.600   7.264  0.8396 -0.4036  0.1458
 8670SOL     OW27110   0.863   6.725   1.560 -0.3336 -0.0301  0.0229
 8670SOL    HW127111   0.794   6.678   1.513 -0.0981  0.6011 -0.9723
 8670SOL    HW227112   0.944   6.701   1.515  0.0173 -0.1371  0.6915
 8671SOL     OW27113   1.552   1.194   8.041 -0.0199 -0.0469 -0.0562
 8671SOL    HW127114   1.522   1.254   8.110  0.2725  2.1412 -1.6975
 8671SOL    HW227115   1.472   1.170   7.994  0.0814  0.9673 -0.7881
 8672SOL     OW27116   8.466   2.559   3.470  0.7919 -0.0020 -0.6102
 8672SOL    HW127117   8.386   2.602   3.502  1.5576  2.0590 -1.3346
 8672SOL    HW227118   8.439   2.514   3.390  0.5376  1.5374 -1.4184
 8673SOL     OW27119   2.951   1.149   1.144  0.1922  0.6051  0.4282
 8673SOL    HW127120   2.940   1.210   1.070  0.3886 -0.2068 -0.2896
 8673SOL    HW227121   3.045   1.130   1.146  0.1706  0.5296  0.8182
 8674SOL     OW27122   5.828   7.954   8.364  0.2009  0.3234 -0.1626
 8674SOL    HW127123   5.768   7.898   8.414  1.5839 -1.2295 -0.1333
 8674SOL    HW227124   5.791   8.042   8.372 -1.1658 -0.3190  1.2035
 8675SOL     OW27125   4.377   7.836   6.729 -0.4691 -0.1439 -0.2424
 8675SOL    HW127126   4.365   7.747   6.763 -0.4417  0.2432  0.8099
 8675SOL    HW227127   4.468   7.839   6.701 -0.6978 -0.7064 -1.0952
 8676SOL     OW27128   5.517   5.388   2.897 -0.3955  0.2662  0.0567
 8676SOL    HW127129   5.467   5.442   2.836  1.7591  1.9469 -0.3380
 8676SOL    HW227130   5.466   5.389   2.978 -0.4380  3.0321  0.0969
 8677SOL     OW27131   8.203   5.150   2.794  0.0980  0.2574 -0.0078
 8677SOL    HW127132   8.184   5.172   2.703  0.6880  0.9360  0.0208
 8677SOL    HW227133   8.139   5.082   2.817 -0.9552  1.0515 -0.5042
 8678SOL     OW27134   6.312   4.723   3.180 -0.0403  0.0408  0.3044
 8678SOL    HW127135   6.338   4.695   3.268  1.8947 -0.8526 -0.4861
 8678SOL    HW227136   6.221   4.695   3.172 -0.1008 -0.3003  1.8370
 8679SOL     OW27137   2.080   6.029   1.002 -0.1179 -0.4967 -0.1416
 8679SOL    HW127138   2.012   5.975   1.042 -0.5398  0.1928  0.0967
 8679SOL    HW227139   2.129   5.969   0.945 -0.8583 -1.0216 -0.2337
 8680SOL     OW27140   7.855   5.211   6.047  0.2939  0.1589  0.4245
 8680SOL    HW127141   7.925   5.261   6.006 -0.1096  0.2890 -0.1267
 8680SOL    HW227142   7.892   5.180   6.130  1.0460  0.0984  0.0755
 8681SOL     OW27143   6.070   6.768   9.005 -0.2251 -0.0173 -0.3337
 8681SOL    HW127144   6.062   6.711   9.082  1.2155 -0.2072 -0.2932
 8681SOL    HW227145   5.982   6.769   8.966 -0.4917 -1.5321  0.1733
 8682SOL     OW27146   3.462   5.214   2.708  0.2732 -0.3647  0.6154
 8682SOL    HW127147   3.429   5.247   2.625  0.5419 -1.4855  0.0470
 8682SOL    HW227148   3.552   5.247   2.713  0.2612 -0.3071  0.4602
 8683SOL     OW27149   6.095   5.353   5.723  0.2166  0.0324  0.0426
 8683SOL    HW127150   6.177   5.367   5.771  1.2405  0.2047 -1.6844
 8683SOL    HW227151   6.084   5.258   5.723  1.3210 -0.1165 -1.1185
 8684SOL     OW27152   0.421   3.747   5.834 -0.3660  0.0705 -0.0515
 8684SOL    HW127153   0.482   3.808   5.874 -0.4900  0.1691 -0.0141
 8684SOL    HW227154   0.476   3.677   5.799 -0.1522  0.6193 -0.8327
 8685SOL     OW27155   6.142   1.983   5.989  0.6636  0.3262 -0.1303
 8685SOL    HW127156   6.090   1.925   5.933  1.2909 -1.3591  0.9286
 8685SOL    HW227157   6.078   2.036   6.035 -0.1028 -0.9793  0.3696
 8686SOL     OW27158   1.824   4.310   5.445 -0.0525  0.1082 -0.6708
 8686SOL    HW127159   1.851   4.401   5.432 -0.6986  0.3649 -0.2453
 8686SOL    HW227160   1.780   4.310   5.530 -0.0224 -0.6107 -0.6507
 8687SOL     OW27161   0.420   3.450   0.810 -0.1477  0.1402  0.0149
 8687SOL    HW127162   0.458   3.365   0.788  0.5067  0.2606  0.6445
 8687SOL    HW227163   0.483   3.490   0.870 -1.4866  0.1425  1.4876
 8688SOL     OW27164   6.747   4.514   5.949  0.6133 -0.0816  0.8370
 8688SOL    HW127165   6.792   4.571   5.886 -1.0286  1.3195  0.8483
 8688SOL    HW227166   6.815   4.454   5.980  1.9676  0.6053 -0.6355
 8689SOL     OW27167   6.589   2.445   3.324 -0.1292 -0.0161  0.2028
 8689SOL    HW127168   6.664   2.451   3.265 -0.5047 -1.7793 -0.5046
 8689SOL    HW227169   6.625   2.470   3.410  1.2114 -0.5571 -0.1704
 8690SOL     OW27170   0.186   1.112   1.473 -0.3449 -0.1216 -0.0113
 8690SOL    HW127171   0.207   1.190   1.523 -1.0594  1.2778 -1.7885
 8690SOL    HW227172   0.091   1.103   1.480 -0.0763 -2.3147  2.1697
 8691SOL     OW27173   8.280   1.612   7.137 -0.2662  0.2963  0.2712
 8691SOL    HW127174   8.286   1.566   7.053 -2.0572  0.8997 -0.2357
 8691SOL    HW227175   8.205   1.573   7.181 -1.2476  2.0363  0.2367
 8692SOL     OW27176   6.927   2.329   2.408 -0.1216  0.0939  0.1332
 8692SOL    HW127177   6.981   2.277   2.348 -1.2555 -3.5807  2.0122
 8692SOL    HW227178   6.983   2.341   2.486  0.0889  1.7290 -0.2349
 8693SOL     OW27179   6.136   3.965   3.970 -0.1933 -0.5768  0.5843
 8693SOL    HW127180   6.077   4.031   3.933 -0.3545 -0.0316  1.7463
 8693SOL    HW227181   6.103   3.881   3.936  1.5419 -0.0020 -2.9864
 8694SOL     OW27182   3.441   5.647   7.445  0.2016 -0.4897  0.1711
 8694SOL    HW127183   3.377   5.701   7.397 -0.6910  1.3510  3.2026
 8694SOL    HW227184   3.525   5.669   7.405 -0.6255 -0.4132 -1.6784
 8695SOL     OW27185   1.986   0.423   2.152 -0.0627 -0.3896  0.3333
 8695SOL    HW127186   2.024   0.364   2.216 -1.9071 -1.7917  0.2402
 8695SOL    HW227187   1.905   0.454   2.193  0.0161  0.7483 -0.3127
 8696SOL     OW27188   3.128   2.961   6.570  0.1960  0.4590 -0.0853
 8696SOL    HW127189   3.042   3.001   6.581 -0.6367 -0.8243 -1.5324
 8696SOL    HW227190   3.110   2.877   6.528  2.1651  0.1955 -0.4936
 8697SOL     OW27191   5.977   4.781   7.241  0.2970  0.4853  0.2055
 8697SOL    HW127192   5.999   4.698   7.200  0.7884  0.3601  0.7049
 8697SOL    HW227193   5.916   4.823   7.181  0.2915 -0.0985 -0.1981
 8698SOL     OW27194   9.067   5.048   6.629  0.4581  0.0482 -0.4181
 8698SOL    HW127195   9.029   5.103   6.561 -1.6366 -1.2328 -0.4007
 8698SOL    HW227196   9.031   5.082   6.711 -0.8033 -1.1983 -0.4018
 8699SOL     OW27197   6.286   2.792   8.647  0.4806  0.1427  0.2527
 8699SOL    HW127198   6.269   2.793   8.553 -0.8819  1.7283  0.4655
 8699SOL    HW227199   6.373   2.752   8.655  1.2414  1.2040 -1.7848
 8700SOL     OW27200   3.435   5.071   7.592 -0.1673 -0.0310 -0.2964
 8700SOL    HW127201   3.495   5.129   7.639 -0.3708  0.8632 -1.1042
 8700SOL    HW227202   3.490   5.001   7.558  0.2897  0.3501 -0.3553
 8701SOL     OW27203   8.783   3.334   1.259 -0.6462  0.0814  0.2073
 8701SOL    HW127204   8.800   3.394   1.331  0.8997  0.8437 -0.7666
 8701SOL    HW227205   8.687   3.324   1.258 -0.8602  1.8539  0.9080
 8702SOL     OW27206   1.508   6.110   5.355 -0.1321 -0.3758  0.4285
 8702SOL    HW127207   1.485   6.060   5.277 -1.0614 -0.2224  0.5899
 8702SOL    HW227208   1.603   6.100   5.363  0.1075  0.2798 -1.1783
 8703SOL     OW27209   7.073   3.892   8.230 -0.0429 -0.4426 -0.4557
 8703SOL    HW127210   7.025   3.818   8.195 -2.2202  1.0832 -0.8764
 8703SOL    HW227211   7.118   3.930   8.155  1.1647 -1.3412 -0.2207
 8704SOL     OW27212   1.431   4.341   3.572  0.4311 -0.0694 -0.4812
 8704SOL    HW127213   1.436   4.257   3.617  0.3210 -0.5337 -1.3053
 8704SOL    HW227214   1.400   4.402   3.638 -1.6934 -1.1339 -0.3928
 8705SOL     OW27215   8.759   5.454   6.743  0.2476  0.4246 -0.5106
 8705SOL    HW127216   8.707   5.464   6.823  1.0577 -0.1305  0.1037
 8705SOL    HW227217   8.810   5.535   6.738 -0.3801  0.7944 -0.8912
 8706SOL     OW27218   5.896   0.484   0.498  0.0319  0.5969 -0.5336
 8706SOL    HW127219   5.928   0.394   0.494 -0.7326  0.2918  0.0670
 8706SOL    HW227220   5.932   0.525   0.419  1.5951  0.1791 -0.0752
 8707SOL     OW27221   9.124   2.554   5.288  0.3921 -0.0015  0.3703
 8707SOL    HW127222   9.070   2.485   5.326 -1.4376  1.2460  0.1494
 8707SOL    HW227223   9.190   2.507   5.236 -1.0250 -1.5826 -0.0949
 8708SOL     OW27224   4.412   7.232   0.510 -0.5490 -0.6598  0.6829
 8708SOL    HW127225   4.387   7.285   0.434 -2.5569 -3.1026 -0.5355
 8708SOL    HW227226   4.466   7.163   0.473  0.2396 -0.6946  1.8714
 8709SOL     OW27227   6.855   0.770   4.886 -0.2225  0.4465  0.2869
 8709SOL    HW127228   6.811   0.774   4.971 -0.5624 -0.9233  0.2068
 8709SOL    HW227229   6.830   0.685   4.851 -0.6389  1.2807 -1.5128
 8710SOL     OW27230   6.369   1.893   3.039  0.3160 -0.1063  0.7895
 8710SOL    HW127231   6.362   1.988   3.043  3.3464  0.3661 -1.2962
 8710SOL    HW227232   6.401   1.867   3.125  0.2794  0.8895  1.1093
 8711SOL     OW27233   3.542   4.145   5.994 -0.4598  0.3205  0.4668
 8711SOL    HW127234   3.608   4.079   5.971 -0.7294 -0.4122  1.7002
 8711SOL    HW227235   3.575   4.226   5.957  0.6794 -0.2132  0.2753
 8712SOL     OW27236   6.464   3.025   5.417  0.1299 -0.3104 -0.8475
 8712SOL    HW127237   6.510   2.943   5.436  2.1023  0.8455 -0.3545
 8712SOL    HW227238   6.481   3.040   5.324 -1.0048 -0.8911 -1.1645
 8713SOL     OW27239   5.960   0.796   4.216 -0.3126 -0.0893 -1.0146
 8713SOL    HW127240   5.875   0.780   4.256  0.9799  0.8151  2.4984
 8713SOL    HW227241   6.018   0.730   4.254  0.7278 -0.3641 -2.9220
 8714SOL     OW27242   2.373   5.888   7.958 -0.0630  0.1698 -0.4712
 8714SOL    HW127243   2.375   5.815   8.020  0.9601  0.7282  0.1876
 8714SOL    HW227244   2.307   5.863   7.894 -0.1117 -1.0886  0.0334
 8715SOL     OW27245   7.037   3.973   5.183 -0.3751  0.2847  0.7259
 8715SOL    HW127246   7.104   3.911   5.152 -0.0980  0.4121  1.0527
 8715SOL    HW227247   7.071   4.003   5.268 -0.6647  0.6414  0.7160
 8716SOL     OW27248   2.531   0.919   0.068  0.1169  0.2382 -0.0328
 8716SOL    HW127249   2.491   1.006   0.075  1.6921  1.0076 -0.1482
 8716SOL    HW227250   2.562   0.900   0.156 -1.6069 -0.9592  0.3771
 8717SOL     OW27251   8.167   2.370   0.117  0.1930 -0.5851  0.4861
 8717SOL    HW127252   8.126   2.318   0.186  1.5494 -1.8352  0.4089
 8717SOL    HW227253   8.249   2.401   0.157 -0.7904  2.0344  0.7253
 8718SOL     OW27254   2.018   4.767   5.868 -0.0013 -0.0383  0.0651
 8718SOL    HW127255   1.928   4.740   5.853  0.3441 -0.7677 -0.8714
 8718SOL    HW227256   2.069   4.687   5.854  0.7707  0.3029  0.8329
 8719SOL     OW27257   5.651   5.620   6.212 -0.2931  0.1527 -0.0484
 8719SOL    HW127258   5.668   5.529   6.236 -0.7400  0.0491 -0.0983
 8719SOL    HW227259   5.735   5.654   6.182 -0.0534 -0.1461  0.2856
 8720SOL     OW27260   3.757   2.736   6.450  0.8648  0.5145 -0.0066
 8720SOL    HW127261   3.717   2.671   6.508  1.9145  0.8532  1.1276
 8720SOL    HW227262   3.819   2.685   6.397 -0.9367 -0.0067 -1.7507
 8721SOL     OW27263   2.407   2.583   7.160 -0.2892  0.0504  0.1142
 8721SOL    HW127264   2.371   2.521   7.097 -0.3666 -0.6937  0.8721
 8721SOL    HW227265   2.445   2.528   7.229 -0.3308  0.8409  0.7856
 8722SOL     OW27266   1.505   8.033   1.180 -0.1322 -0.9017  0.0756
 8722SOL    HW127267   1.520   7.939   1.169  2.3326 -0.5427 -0.2122
 8722SOL    HW227268   1.470   8.041   1.269  1.5796 -1.9712  0.9100
 8723SOL     OW27269   4.886   3.607   4.908 -0.1154  0.5005  0.4684
 8723SOL    HW127270   4.856   3.677   4.851  1.6010  0.9707  0.0677
 8723SOL    HW227271   4.942   3.553   4.851 -1.0304 -0.9441  0.8849
 8724SOL     OW27272   6.772   2.242   0.646  0.2697 -0.0411  0.1029
 8724SOL    HW127273   6.795   2.163   0.597  0.5854 -0.1055  0.3532
 8724SOL    HW227274   6.691   2.273   0.605 -0.0935 -0.7339  0.2891
 8725SOL     OW27275   1.004   5.708   8.519 -0.4713 -0.7566 -0.1924
 8725SOL    HW127276   0.974   5.769   8.586  0.2071 -1.2410  0.5788
 8725SOL    HW227277   0.927   5.653   8.500 -1.7174  1.5588 -2.3859
 8726SOL     OW27278   3.162   5.088   2.466 -0.4073  0.3427  0.0021
 8726SOL    HW127279   3.182   5.179   2.488  1.1542  0.1258 -0.4553
 8726SOL    HW227280   3.216   5.068   2.390  0.3366 -1.3922  0.9310
 8727SOL     OW27281   6.465   8.638   2.033 -0.1635 -0.2138  0.3006
 8727SOL    HW127282   6.551   8.670   2.061 -0.3660  0.1564  0.5031
 8727SOL    HW227283   6.465   8.546   2.058  0.3817 -0.3567 -0.1877
 8728SOL     OW27284   6.722   6.308   6.261 -0.1113  0.2364  0.3026
 8728SOL    HW127285   6.784   6.290   6.332  0.8851 -1.8194 -0.9873
 8728SOL    HW227286   6.764   6.379   6.211  0.2591  0.1701  0.5138
 8729SOL     OW27287   8.954   5.581   4.491 -0.3097  0.0687  1.0684
 8729SOL    HW127288   8.894   5.655   4.478  0.2383  0.3471 -0.0474
 8729SOL    HW227289   8.998   5.571   4.406 -0.3024 -1.4844  1.2348
 8730SOL     OW27290   0.180   6.123   4.561  0.3738  0.1945  0.4246
 8730SOL    HW127291   0.119   6.114   4.634 -0.2215 -0.4640 -0.1379
 8730SOL    HW227292   0.245   6.187   4.591 -0.0464  0.1751  1.3972
 8731SOL     OW27293   8.808   0.062   3.823 -0.3832  1.0324 -0.1642
 8731SOL    HW127294   8.775   0.079   3.911  0.7210  1.1726  0.2335
 8731SOL    HW227295   8.880  -0.000   3.836 -1.3948 -0.4078 -1.1504
 8732SOL     OW27296   3.208   1.939   6.789 -0.2703  0.0541 -0.1157
 8732SOL    HW127297   3.265   1.973   6.720  0.1223  0.4271  0.3852
 8732SOL    HW227298   3.123   1.980   6.773  0.1830  1.2608  0.4587
 8733SOL     OW27299   1.146   2.485   8.988 -0.1224  0.2985 -0.0749
 8733SOL    HW127300   1.081   2.534   9.037  0.6314  1.3174 -0.0474
 8733SOL    HW227301   1.144   2.523   8.900 -0.3634 -0.4413 -0.3942
 8734SOL     OW27302   5.076   3.475   5.704 -0.1162 -0.1167 -0.5428
 8734SOL    HW127303   5.167   3.484   5.734 -0.3578  1.6384 -0.2080
 8734SOL    HW227304   5.037   3.411   5.764  0.2855  0.8979  0.8591
 8735SOL     OW27305   3.593   0.385   5.997  0.2447  0.4117 -0.0997
 8735SOL    HW127306   3.529   0.329   5.954 -0.5961 -0.2221  1.8609
 8735SOL    HW227307   3.670   0.330   6.008  0.4279  0.5459 -0.6605
 8736SOL     OW27308   6.410   4.507   1.394  0.3706 -0.0316  0.0479
 8736SOL    HW127309   6.337   4.447   1.380  0.5711 -0.0823 -0.8327
 8736SOL    HW227310   6.481   4.473   1.339  0.3191  1.2767 -0.8925
 8737SOL     OW27311   8.247   8.826   3.337  0.1069 -0.1257 -0.6067
 8737SOL    HW127312   8.285   8.856   3.254 -0.5060 -1.0937 -1.2525
 8737SOL    HW227313   8.162   8.789   3.313 -0.4357  0.2969  0.5687
 8738SOL     OW27314   7.579   2.250   7.704  0.2971  0.3733  0.0477
 8738SOL    HW127315   7.559   2.338   7.672 -0.1386  0.8968  1.6561
 8738SOL    HW227316   7.574   2.195   7.626  0.5145  1.7479 -0.9846
 8739SOL     OW27317   0.672   3.635   3.825 -0.4586  0.4630  0.5890
 8739SOL    HW127318   0.734   3.627   3.897 -1.3067 -0.2062  1.2693
 8739SOL    HW227319   0.589   3.660   3.866 -0.8552  0.4957 -0.1991
 8740SOL     OW27320   5.439   4.317   1.658 -0.0586  0.6849  0.5995
 8740SOL    HW127321   5.369   4.374   1.625  0.1098  0.6847  0.2436
 8740SOL    HW227322   5.395   4.234   1.678  0.0511  0.2578 -0.8192
 8741SOL     OW27323   4.693   2.811   4.058  0.4469 -0.5724 -0.0678
 8741SOL    HW127324   4.669   2.875   3.991  1.2533 -0.3679 -0.1677
 8741SOL    HW227325   4.611   2.767   4.080  0.1260 -0.4203 -0.9513
 8742SOL     OW27326   8.427   2.396   4.854 -0.0420  0.0809 -0.4642
 8742SOL    HW127327   8.381   2.430   4.931 -0.3415  1.8242 -1.3787
 8742SOL    HW227328   8.519   2.416   4.869  0.2449 -1.7366  0.5010
 8743SOL     OW27329   6.129   1.913   0.845  0.7700  0.1992  0.2107
 8743SOL    HW127330   6.219   1.917   0.879 -0.1513 -0.1029  2.8428
 8743SOL    HW227331   6.111   1.820   0.835  0.8300  0.2684 -0.6528
 8744SOL     OW27332   2.774   8.225   8.876  0.1005  0.2344  0.0694
 8744SOL    HW127333   2.750   8.140   8.912 -1.2012 -0.0675 -1.4375
 8744SOL    HW227334   2.736   8.288   8.937 -3.6866 -0.2455 -1.5323
 8745SOL     OW27335   8.137   1.972   4.246 -0.0452 -0.5455 -0.2809
 8745SOL    HW127336   8.058   1.985   4.193  1.2728 -0.3069 -2.3303
 8745SOL    HW227337   8.168   2.061   4.265  0.1446 -0.6380 -0.1573
 8746SOL     OW27338   5.611   4.316   2.963  0.4154  0.3544  0.4263
 8746SOL    HW127339   5.529   4.359   2.937  0.4468 -0.3066 -0.8591
 8746SOL    HW227340   5.675   4.387   2.968 -0.3133  0.9541  1.9295
 8747SOL     OW27341   4.140   1.638   1.647 -0.2214 -0.2670  0.0341
 8747SOL    HW127342   4.207   1.620   1.713 -0.6669 -1.0222  0.3024
 8747SOL    HW227343   4.059   1.605   1.687 -1.1109  2.1899  0.4699
 8748SOL     OW27344   1.636   7.573   5.486  0.1023  0.7836 -0.6256
 8748SOL    HW127345   1.602   7.505   5.427 -0.5295  0.2648  0.3092
 8748SOL    HW227346   1.708   7.613   5.437  0.2263 -0.2818 -1.3614
 8749SOL     OW27347   2.584   1.307   4.991  0.0402  0.4880  0.0042
 8749SOL    HW127348   2.524   1.343   5.056  0.5444  0.5545  0.4322
 8749SOL    HW227349   2.656   1.270   5.041 -1.0928 -2.4263 -0.3147
 8750SOL     OW27350   0.330   7.731   0.515 -0.4969 -0.2468 -0.4727
 8750SOL    HW127351   0.305   7.816   0.553  0.5189  0.7755 -2.0002
 8750SOL    HW227352   0.267   7.717   0.445 -2.4393 -2.1923  1.4773
 8751SOL     OW27353   5.769   4.190   5.967 -0.0077 -0.2786 -0.5024
 8751SOL    HW127354   5.744   4.249   6.038 -2.5185 -1.2047 -0.5330
 8751SOL    HW227355   5.710   4.211   5.895 -1.2484 -2.9761 -0.4061
 8752SOL     OW27356   2.699   7.697   2.840 -0.0577 -0.3720 -0.1110
 8752SOL    HW127357   2.731   7.757   2.773 -0.0202 -0.7827 -0.4620
 8752SOL    HW227358   2.696   7.750   2.920  1.2609 -0.2419 -0.1168
 8753SOL     OW27359   0.274   8.935   6.633  0.4231  0.8449  0.1579
 8753SOL    HW127360   0.286   9.001   6.702  1.9879  1.2033 -0.4166
 8753SOL    HW227361   0.272   8.851   6.680 -1.6595  1.2545  0.9005
 8754SOL     OW27362   7.019   1.890   4.437 -0.1226  0.4097 -0.5427
 8754SOL    HW127363   7.005   1.822   4.372  2.5266  0.3598 -1.2050
 8754SOL    HW227364   7.016   1.844   4.521  1.0993 -0.4753 -0.9494
 8755SOL     OW27365   0.371   5.500   2.400 -0.1939 -0.2601  0.0422
 8755SOL    HW127366   0.322   5.451   2.465  1.3689 -0.7141  0.9290
 8755SOL    HW227367   0.382   5.439   2.327  0.1137 -0.5756  0.3534
 8756SOL     OW27368   3.576   0.265   1.236  0.3421  0.3853  0.5901
 8756SOL    HW127369   3.535   0.242   1.153 -0.1488 -2.4815  1.5296
 8756SOL    HW227370   3.665   0.291   1.212 -0.0065  0.2718 -0.9000
 8757SOL     OW27371   8.405   3.781   6.897 -0.0483  0.1038  0.5019
 8757SOL    HW127372   8.436   3.836   6.969  0.4861 -0.3784  0.6470
 8757SOL    HW227373   8.327   3.738   6.931 -0.7921  1.1730  0.2042
 8758SOL     OW27374   1.803   3.608   5.026 -0.5691  0.1951  0.0115
 8758SOL    HW127375   1.770   3.588   5.114 -0.0274 -0.8607 -0.0029
 8758SOL    HW227376   1.739   3.568   4.967 -0.6156  0.3773 -0.0598
 8759SOL     OW27377   2.573   4.111   4.726 -0.4597 -0.6116  0.3499
 8759SOL    HW127378   2.510   4.048   4.759 -1.5939 -0.0504 -0.6632
 8759SOL    HW227379   2.622   4.139   4.804 -1.6065 -0.8892  1.1986
 8760SOL     OW27380   5.499   1.379   6.249  0.1121  0.0007 -0.2434
 8760SOL    HW127381   5.576   1.346   6.203  0.2415  1.1564 -0.8809
 8760SOL    HW227382   5.445   1.302   6.264  0.7867 -0.6215 -0.9582
 8761SOL     OW27383   2.445   2.386   0.010  0.6455 -0.1569  0.1291
 8761SOL    HW127384   2.476   2.380  -0.080  1.4807 -0.7689  0.4418
 8761SOL    HW227385   2.364   2.437   0.005  0.1111 -1.0910 -1.1006
 8762SOL     OW27386   3.573   6.656   1.426 -0.1449 -0.2658 -0.8942
 8762SOL    HW127387   3.483   6.666   1.458 -0.2125  0.2695 -1.2333
 8762SOL    HW227388   3.587   6.732   1.371  0.9996  0.3792  0.2422
 8763SOL     OW27389   3.046   4.354   7.031 -0.0055  0.1274 -0.0412
 8763SOL    HW127390   3.125   4.397   7.064  0.2840 -0.4144 -0.0213
 8763SOL    HW227391   3.071   4.319   6.945  0.1154 -1.0047  0.4367
 8764SOL     OW27392   0.662   7.833   2.010 -0.5306 -0.5188  0.1213
 8764SOL    HW127393   0.706   7.767   1.956  1.6849  1.1099 -0.2306
 8764SOL    HW227394   0.637   7.901   1.948 -1.2028 -0.2348  0.6928
 8765SOL     OW27395   7.929   2.671   4.385  0.0219  0.2971 -0.0214
 8765SOL    HW127396   7.899   2.627   4.465  1.7476  2.0958  1.7201
 8765SOL    HW227397   8.023   2.652   4.381 -0.3649 -1.7632 -3.0649
 8766SOL     OW27398   3.964   1.665   1.971  0.3942  0.4890 -0.2266
 8766SOL    HW127399   3.965   1.706   2.057  0.8024  2.5310 -1.1504
 8766SOL    HW227400   4.025   1.717   1.918  0.1531 -0.6927 -1.7648
 8767SOL     OW27401   4.312   2.991   3.739  0.2635 -0.7636  0.2974
 8767SOL    HW127402   4.283   3.057   3.801  1.7058 -1.9203  2.3369
 8767SOL    HW227403   4.304   3.032   3.653 -1.3924  1.0597  1.2677
 8768SOL     OW27404   0.372   1.719   3.177 -0.2109  0.1711 -0.1136
 8768SOL    HW127405   0.335   1.785   3.236 -0.9307  0.4842 -0.8978
 8768SOL    HW227406   0.427   1.665   3.233  0.6062  1.5992  0.4976
 8769SOL     OW27407   7.638   5.349   8.722  0.0577 -0.0296 -0.6559
 8769SOL    HW127408   7.719   5.401   8.716 -0.4021  0.6688 -0.9458
 8769SOL    HW227409   7.580   5.402   8.777  0.4606 -1.4209  1.2001
 8770SOL     OW27410   6.490   7.710   7.461  1.2099 -0.3376  0.1967
 8770SOL    HW127411   6.420   7.646   7.472  0.8267  0.0145 -0.1753
 8770SOL    HW227412   6.509   7.741   7.549  0.9791 -0.5212  0.3090
 8771SOL     OW27413   2.271   5.420   3.583  0.2257  0.2246 -0.1988
 8771SOL    HW127414   2.322   5.474   3.643  0.5198 -1.2858  0.9768
 8771SOL    HW227415   2.337   5.380   3.526  0.0427  0.7836 -0.8160
 8772SOL     OW27416   3.672   8.639   0.856  0.6153 -0.0676 -1.0075
 8772SOL    HW127417   3.612   8.713   0.865 -1.0119 -1.2092 -1.9751
 8772SOL    HW227418   3.622   8.564   0.886  3.2315 -0.5057  2.9327
 8773SOL     OW27419   2.896   0.873   5.075  0.2714 -0.3484 -0.1916
 8773SOL    HW127420   2.884   0.921   4.992 -1.5496  0.5102  0.5115
 8773SOL    HW227421   2.808   0.846   5.099  0.8229 -0.8541  1.3226
 8774SOL     OW27422   1.075   6.131   7.997 -0.4710  0.0737 -0.3768
 8774SOL    HW127423   1.064   6.211   8.048  1.1479 -0.5760  1.0661
 8774SOL    HW227424   1.140   6.081   8.045  0.9439 -0.7047 -2.9670
 8775SOL     OW27425   7.846   5.684   5.545  0.3255 -0.6787 -0.2482
 8775SOL    HW127426   7.770   5.626   5.543 -1.1170  1.1304 -1.4710
 8775SOL    HW227427   7.844   5.729   5.460  1.2401  1.2838  0.7011
 8776SOL     OW27428   1.776   6.456   5.156 -0.8908  0.0510 -0.0606
 8776SOL    HW127429   1.771   6.544   5.195  1.9010  0.2244  0.1069
 8776SOL    HW227430   1.815   6.470   5.070 -0.1746 -1.0316  0.0700
 8777SOL     OW27431   5.606   9.062   6.293 -0.0421  0.3292 -0.3831
 8777SOL    HW127432   5.533   9.090   6.238  0.5270  0.4844 -1.0720
 8777SOL    HW227433   5.626   9.138   6.348  1.4650  1.3212 -2.2094
 8778SOL     OW27434   1.871   6.443   1.743  0.4308 -0.2563  0.6862
 8778SOL    HW127435   1.794   6.417   1.693  1.2468  0.4618 -1.0175
 8778SOL    HW227436   1.882   6.374   1.808 -0.4769 -1.4223 -0.3516
 8779SOL     OW27437   2.880   3.701   0.212  0.0003 -0.4400 -0.0199
 8779SOL    HW127438   2.900   3.645   0.287 -0.9411  0.1640  0.6997
 8779SOL    HW227439   2.924   3.784   0.232  0.8047 -0.6765 -0.7516
 8780SOL     OW27440   3.815   7.843   3.643 -0.0552  0.2466  0.1368
 8780SOL    HW127441   3.825   7.901   3.567  0.1224 -0.6119 -0.5122
 8780SOL    HW227442   3.727   7.862   3.676  0.9824  2.9839  1.7542
 8781SOL     OW27443   0.386   5.845   0.095  0.2612 -0.2377  0.3503
 8781SOL    HW127444   0.415   5.908   0.161  1.2654  0.3764 -0.6450
 8781SOL    HW227445   0.406   5.760   0.133 -1.0652  0.0029  1.6920
 8782SOL     OW27446   1.466   7.377   4.834 -0.9608  0.2985 -0.2863
 8782SOL    HW127447   1.417   7.377   4.916 -0.5095  0.2605 -0.0080
 8782SOL    HW227448   1.552   7.340   4.858 -0.3376  1.5643 -0.4786
 8783SOL     OW27449   5.175   2.146   3.878 -0.0061  0.1795  0.1247
 8783SOL    HW127450   5.234   2.123   3.949 -0.0809 -0.1222  0.0928
 8783SOL    HW227451   5.108   2.201   3.919  0.0270  0.1194  0.2607
 8784SOL     OW27452   2.884   2.832   2.603 -0.2049 -0.3150 -0.2969
 8784SOL    HW127453   2.917   2.904   2.656  0.8057 -0.9101 -0.0895
 8784SOL    HW227454   2.909   2.855   2.513  1.8683 -1.2758 -0.0353
 8785SOL     OW27455   1.341   8.165   1.009  0.6718 -0.6846 -0.1712
 8785SOL    HW127456   1.361   8.103   0.939  1.1089 -0.1110 -0.5652
 8785SOL    HW227457   1.394   8.137   1.083  1.8778 -0.0312 -0.7563
 8786SOL     OW27458   3.330   6.131   3.085  0.4225 -0.2821  0.0965
 8786SOL    HW127459   3.268   6.183   3.136  2.0103  0.7985  1.0040
 8786SOL    HW227460   3.338   6.048   3.133  2.4056  0.9697  2.1087
 8787SOL     OW27461   2.774   7.969   4.930  0.5812 -0.0705  0.1834
 8787SOL    HW127462   2.686   7.961   4.965  1.0330  0.1837  1.4021
 8787SOL    HW227463   2.798   8.060   4.946  1.5956 -0.4953  1.1381
 8788SOL     OW27464   8.424   2.586   1.529  0.0871 -0.1599  0.0914
 8788SOL    HW127465   8.416   2.671   1.572 -0.7720  0.2830 -0.9157
 8788SOL    HW227466   8.497   2.543   1.575  1.5535  1.7077 -0.3880
 8789SOL     OW27467   0.349   2.444   0.449  0.1413 -0.0452 -0.2667
 8789SOL    HW127468   0.329   2.436   0.542  0.3631  1.0871 -0.1135
 8789SOL    HW227469   0.266   2.472   0.409 -0.0138 -0.7414 -0.4597
 8790SOL     OW27470   4.674   8.002   6.103  0.0556 -0.4040 -0.2533
 8790SOL    HW127471   4.613   8.001   6.029  0.3306  0.3217 -0.5053
 8790SOL    HW227472   4.743   7.941   6.078 -0.3232 -0.8757 -0.1731
 8791SOL     OW27473   0.499   3.929   3.447  0.2853 -0.0832 -0.5047
 8791SOL    HW127474   0.493   3.932   3.543  2.1625  0.8167 -0.3676
 8791SOL    HW227475   0.454   4.008   3.418  0.8165  0.3008 -0.2856
 8792SOL     OW27476   5.886   1.327   0.300 -0.2506 -0.3336 -0.5741
 8792SOL    HW127477   5.798   1.346   0.333  0.0725 -0.8191  0.6592
 8792SOL    HW227478   5.939   1.316   0.379  1.3781  1.8545 -1.2753
 8793SOL     OW27479   8.384   6.046   1.842  0.1403 -0.1065 -0.2447
 8793SOL    HW127480   8.392   6.122   1.899 -0.4049  0.9655 -1.5584
 8793SOL    HW227481   8.290   6.038   1.826  0.3580  0.4529 -2.0434
 8794SOL     OW27482   1.212   4.659   6.528 -0.4615  0.2815 -0.2657
 8794SOL    HW127483   1.188   4.636   6.439 -0.6266 -0.4804 -0.0257
 8794SOL    HW227484   1.137   4.633   6.582 -0.9800  2.0460 -0.0602
 8795SOL     OW27485   3.378   3.728   5.357  0.2184 -0.0656  0.6153
 8795SOL    HW127486   3.283   3.722   5.349  0.2185  1.8685 -2.5238
 8795SOL    HW227487   3.393   3.816   5.394  0.8105 -0.7700  2.1210
 8796SOL     OW27488   2.385   8.325   8.136  0.4015 -0.3820 -1.0697
 8796SOL    HW127489   2.376   8.306   8.229  0.0461  3.0553 -0.2573
 8796SOL    HW227490   2.436   8.251   8.101 -2.2974 -3.5161  1.0329
 8797SOL     OW27491   3.837   8.143   3.820  0.4777 -0.0051  0.4120
 8797SOL    HW127492   3.860   8.185   3.737  1.0357 -0.6917  0.2046
 8797SOL    HW227493   3.822   8.216   3.880  1.0234  0.4945 -0.0433
 8798SOL     OW27494   7.730   6.956   5.235  0.5353  0.3069 -0.1462
 8798SOL    HW127495   7.800   6.965   5.301 -0.1258 -0.4926  0.6853
 8798SOL    HW227496   7.712   7.046   5.208  2.1103  0.5175 -0.6326
 8799SOL     OW27497   8.598   7.006   3.486 -0.0207 -0.0515 -0.1679
 8799SOL    HW127498   8.600   6.941   3.556  0.6792 -0.1410 -0.2609
 8799SOL    HW227499   8.686   7.044   3.487 -1.0958  2.6654  1.5059
 8800SOL     OW27500   6.747   7.754   6.994  0.5900  0.0502 -0.2367
 8800SOL    HW127501   6.767   7.838   6.952  1.8835 -0.6018 -1.0035
 8800SOL    HW227502   6.816   7.744   7.060 -1.3556  1.0059  2.0779
 8801SOL     OW27503   3.917   4.958   5.114 -0.1782 -0.6245 -0.0569
 8801SOL    HW127504   3.972   5.035   5.132 -0.4472 -0.6994  1.1407
 8801SOL    HW227505   3.975   4.898   5.068  0.2409  0.0094 -0.3784
 8802SOL     OW27506   0.360   1.323   0.876 -0.3604 -0.0818  0.7168
 8802SOL    HW127507   0.331   1.234   0.899 -0.8625  0.2431  1.3749
 8802SOL    HW227508   0.302   1.349   0.804 -0.2839 -0.2489  0.5951
 8803SOL     OW27509   5.109   3.134   8.883  0.8667  0.1967 -0.3831
 8803SOL    HW127510   5.029   3.180   8.910  1.5063  0.6041  0.8889
 8803SOL    HW227511   5.084   3.090   8.802 -0.8745 -0.3194  0.3762
 8804SOL     OW27512   0.011   7.546   2.796 -0.5285 -0.3754 -0.2573
 8804SOL    HW127513   0.062   7.470   2.823 -0.4680 -0.5333 -0.7999
 8804SOL    HW227514   0.018   7.547   2.701 -1.7835 -0.5867 -0.3805
 8805SOL     OW27515   4.525   3.206   3.751 -0.0613  0.1455  0.1317
 8805SOL    HW127516   4.478   3.217   3.834 -1.9928 -0.7070 -0.7941
 8805SOL    HW227517   4.457   3.183   3.687  1.6523 -1.3555 -1.2599
 8806SOL     OW27518   0.314   2.181   2.258  0.0964 -0.3328  0.7467
 8806SOL    HW127519   0.402   2.158   2.230  0.1108 -0.7685  1.1230
 8806SOL    HW227520   0.291   2.259   2.208  0.0411 -1.1852 -0.5916
 8807SOL     OW27521   0.198   5.362   1.516 -0.5601  0.0740 -0.6282
 8807SOL    HW127522   0.150   5.366   1.599  0.4506  0.1161 -0.0298
 8807SOL    HW227523   0.144   5.411   1.454 -0.7574  1.0588  0.3026
 8808SOL     OW27524   3.074   2.052   2.182 -0.3260  0.2849  0.1404
 8808SOL    HW127525   2.990   2.010   2.163 -0.2939 -0.2721  1.1917
 8808SOL    HW227526   3.081   2.121   2.116 -1.0150 -0.4782 -0.7574
 8809SOL     OW27527   2.430   7.128   1.233 -0.0658 -0.4313  0.3661
 8809SOL    HW127528   2.409   7.095   1.320  1.4796 -0.3008  0.8204
 8809SOL    HW227529   2.520   7.158   1.240 -1.0931  3.3642 -0.1372
 8810SOL     OW27530   2.460   7.486   6.967  0.3635 -0.1640 -0.6826
 8810SOL    HW127531   2.462   7.467   6.873  1.3496  2.2956 -1.2180
 8810SOL    HW227532   2.400   7.560   6.975  1.4114  0.6001  0.4146
 8811SOL     OW27533   6.457   3.102   5.119 -0.0477 -0.1384  0.1860
 8811SOL    HW127534   6.490   3.012   5.120 -0.4086 -0.2743  0.7873
 8811SOL    HW227535   6.474   3.133   5.031 -0.4972 -1.0260 -0.2307
 8812SOL     OW27536   6.629   5.557   6.760 -0.2586 -0.1374 -0.1415
 8812SOL    HW127537   6.533   5.561   6.754 -0.3760 -0.3694  1.2842
 8812SOL    HW227538   6.648   5.463   6.766 -0.0341 -0.0356  0.7990
 8813SOL     OW27539   1.820   3.905   5.801  0.1801 -0.2128  0.1578
 8813SOL    HW127540   1.883   3.933   5.735 -1.2273  1.9963 -0.3672
 8813SOL    HW227541   1.829   3.970   5.871 -0.3416 -0.8454  0.8270
 8814SOL     OW27542   0.693   2.331   0.121  0.7090  0.2209  0.9077
 8814SOL    HW127543   0.644   2.402   0.164  2.2614  1.3061  0.9532
 8814SOL    HW227544   0.689   2.259   0.184  3.6565  2.0296  3.4956
 8815SOL     OW27545   5.354   6.754   8.967  0.9381  0.2457 -0.5456
 8815SOL    HW127546   5.364   6.663   8.940  1.3466  0.4193 -1.0139
 8815SOL    HW227547   5.266   6.778   8.940  0.5915 -0.2062  0.1819
 8816SOL     OW27548   4.908   5.041   0.568 -0.0342  0.3709  0.5376
 8816SOL    HW127549   4.886   4.977   0.499  0.7888  1.3714 -0.7010
 8816SOL    HW227550   4.995   5.014   0.597  0.7320  1.4289 -0.6594
 8817SOL     OW27551   2.229   8.209   5.301 -0.2528  0.6561  0.2119
 8817SOL    HW127552   2.265   8.205   5.390  1.1038  0.8332 -0.3037
 8817SOL    HW227553   2.138   8.235   5.313  0.1327  1.4969  1.5149
 8818SOL     OW27554   1.854   8.092   8.961  0.1055 -0.0201  0.6248
 8818SOL    HW127555   1.905   8.147   8.902  0.7246 -1.5788 -0.3654
 8818SOL    HW227556   1.906   8.012   8.971 -0.7771 -0.4693  1.9590
 8819SOL     OW27557   5.737   6.762   3.830 -0.7906 -0.3294 -0.2750
 8819SOL    HW127558   5.815   6.718   3.796 -1.0374 -1.0427  0.0526
 8819SOL    HW227559   5.755   6.775   3.923 -0.5416  0.6812 -0.4532
 8820SOL     OW27560   8.570   1.476   8.242  0.0745 -0.5689 -0.0946
 8820SOL    HW127561   8.625   1.473   8.163 -0.7467 -1.3923 -0.6633
 8820SOL    HW227562   8.489   1.517   8.213  0.0237 -0.2534  0.4939
 8821SOL     OW27563   6.449   5.687   5.674 -0.3385  0.5222  0.0535
 8821SOL    HW127564   6.479   5.604   5.711 -1.1720  0.5376  0.7994
 8821SOL    HW227565   6.447   5.672   5.579  0.5836  0.0614  0.1018
 8822SOL     OW27566   4.886   0.652   8.788  0.7678 -0.5577 -0.3472
 8822SOL    HW127567   4.979   0.650   8.811  1.2263  0.3271 -1.9392
 8822SOL    HW227568   4.885   0.643   8.692 -0.8394 -1.2887 -0.2946
 8823SOL     OW27569   6.292   0.421   4.619 -0.5033  0.4331 -0.5202
 8823SOL    HW127570   6.303   0.514   4.639  2.1652 -0.0908  0.9097
 8823SOL    HW227571   6.379   0.384   4.627 -1.5392 -2.2997 -0.6809
 8824SOL     OW27572   1.655   4.809   2.398 -0.2003  0.5442  0.2999
 8824SOL    HW127573   1.679   4.853   2.317 -0.7890  1.0283  0.3843
 8824SOL    HW227574   1.647   4.879   2.463 -1.3924  0.3714  0.3747
 8825SOL     OW27575   3.764   0.444   1.697 -0.3184 -0.1193  0.1096
 8825SOL    HW127576   3.820   0.458   1.773  0.7555  0.4688 -0.7536
 8825SOL    HW227577   3.696   0.383   1.727 -1.1751  1.7259  2.1216
 8826SOL     OW27578   3.926   7.575   6.241  0.3743 -0.1322  0.1090
 8826SOL    HW127579   3.934   7.661   6.284  3.1248 -0.1697 -0.1757
 8826SOL    HW227580   3.959   7.589   6.152  0.8989 -1.4790  0.0674
 8827SOL     OW27581   1.583   4.087   4.481 -0.1898  0.3292 -0.1936
 8827SOL    HW127582   1.493   4.109   4.505 -0.3323  1.0301 -1.3147
 8827SOL    HW227583   1.582   3.993   4.469 -0.1034 -0.0978  2.4867
 8828SOL     OW27584   2.796   6.902   2.399  0.8042  0.3924  0.1245
 8828SOL    HW127585   2.875   6.855   2.372  0.5465  0.1916 -0.2991
 8828SOL    HW227586   2.793   6.979   2.341 -0.0617 -0.3438 -0.8441
 8829SOL     OW27587   1.982   3.201   1.350  0.0028  0.3836  0.0019
 8829SOL    HW127588   1.952   3.124   1.399 -0.8081  0.9422  0.4108
 8829SOL    HW227589   2.038   3.165   1.281 -0.4099 -0.5778  0.1462
 8830SOL     OW27590   2.275   8.744   8.876 -0.2222 -0.6043 -0.0753
 8830SOL    HW127591   2.234   8.803   8.940  0.2389  0.9873 -1.1893
 8830SOL    HW227592   2.355   8.790   8.850  1.5327 -2.9381  0.9188
 8831SOL     OW27593   1.605   0.288   6.275 -0.0272 -0.0228  0.6372
 8831SOL    HW127594   1.591   0.331   6.359 -0.4539  0.1072  0.5034
 8831SOL    HW227595   1.678   0.228   6.291  1.6931  1.9225  0.3856
 8832SOL     OW27596   3.003   5.485   0.361 -0.3786 -0.0555 -0.3794
 8832SOL    HW127597   2.908   5.475   0.350 -0.2917 -2.4357  0.3930
 8832SOL    HW227598   3.013   5.554   0.426 -1.6859 -0.8283  0.6932
 8833SOL     OW27599   5.185   3.642   6.935  0.0179 -0.4878  0.4209
 8833SOL    HW127600   5.217   3.714   6.988  2.1747 -0.3271 -0.9984
 8833SOL    HW227601   5.141   3.684   6.861 -2.0936 -0.7078  1.4759
 8834SOL     OW27602   7.325   5.004   5.156 -0.0500  0.1408 -0.7844
 8834SOL    HW127603   7.242   4.959   5.173 -0.6417  1.7546  0.9915
 8834SOL    HW227604   7.335   5.002   5.061 -0.6321 -2.5955 -0.8646
 8835SOL     OW27605   6.563   0.587   7.965 -0.9470  0.2798  0.6966
 8835SOL    HW127606   6.560   0.503   7.920 -0.6568  0.7779 -0.2834
 8835SOL    HW227607   6.613   0.570   8.045  3.4663  0.4541 -1.7123
 8836SOL     OW27608   5.153   1.776   3.825  0.4239  0.0305  0.4439
 8836SOL    HW127609   5.142   1.805   3.734 -2.0675 -0.7425  0.4298
 8836SOL    HW227610   5.102   1.695   3.831  2.6225 -1.3491  1.9231
 8837SOL     OW27611   1.895   7.374   4.484 -0.0457 -0.1456  0.0566
 8837SOL    HW127612   1.964   7.352   4.547 -0.0053 -2.5228 -0.7255
 8837SOL    HW227613   1.929   7.343   4.400 -1.2882  0.3748 -0.6603
 8838SOL     OW27614   5.645   3.250   6.169 -0.1237  0.3014  0.1237
 8838SOL    HW127615   5.711   3.183   6.190 -0.8567  0.0319  1.6576
 8838SOL    HW227616   5.562   3.204   6.178 -0.6690  1.5320  1.7457
 8839SOL     OW27617   6.513   6.382   9.074  0.4931  0.4067  0.2049
 8839SOL    HW127618   6.480   6.460   9.118  1.0446  0.2135  0.9592
 8839SOL    HW227619   6.446   6.363   9.008 -0.6506  0.3422  1.3476
 8840SOL     OW27620   5.249   4.802   7.071  0.2978 -0.6625 -0.2488
 8840SOL    HW127621   5.155   4.784   7.063  0.3004 -2.6823  2.8384
 8840SOL    HW227622   5.254   4.898   7.078 -1.4929 -0.4931 -0.7351
 8841SOL     OW27623   1.398   7.053   7.106  0.1661  0.0206  0.6884
 8841SOL    HW127624   1.355   7.124   7.153  0.9083  0.7565  0.2795
 8841SOL    HW227625   1.475   7.033   7.159  1.2810  1.1906 -0.4233
 8842SOL     OW27626   1.112   8.848   5.126 -0.1225  0.2628  0.2447
 8842SOL    HW127627   1.178   8.841   5.195 -3.0756 -1.7705  3.1718
 8842SOL    HW227628   1.119   8.765   5.079 -0.2131  0.2723  0.2145
 8843SOL     OW27629   4.381   5.400   8.606 -0.0872  0.1115 -0.1335
 8843SOL    HW127630   4.442   5.336   8.642  0.0782  1.0186  1.2716
 8843SOL    HW227631   4.425   5.433   8.528  0.4012 -0.5413 -0.1456
 8844SOL     OW27632   2.324   3.894   8.221  0.0844  0.0012 -0.0302
 8844SOL    HW127633   2.269   3.926   8.150 -0.8049  0.8660  1.0082
 8844SOL    HW227634   2.408   3.938   8.208  0.3237 -0.7870 -1.2264
 8845SOL     OW27635   1.408   5.687   2.962 -0.1797 -0.5287  0.3678
 8845SOL    HW127636   1.441   5.777   2.955  1.1918 -0.9658  0.8522
 8845SOL    HW227637   1.440   5.644   2.882 -1.0997 -0.5135 -0.0144
 8846SOL     OW27638   4.399   8.417   1.207 -0.2891 -0.5216 -0.1182
 8846SOL    HW127639   4.316   8.370   1.213 -0.3296 -0.3674  0.7819
 8846SOL    HW227640   4.413   8.451   1.296  0.2031  0.3674 -0.5292
 8847SOL     OW27641   3.926   7.393   7.157 -0.1466  0.0561  0.0342
 8847SOL    HW127642   3.955   7.334   7.227 -1.2159 -2.6958 -1.6955
 8847SOL    HW227643   3.847   7.434   7.191  0.2186 -0.0324  1.0230
 8848SOL     OW27644   0.111   1.268   1.953 -0.4294  1.4978 -0.5422
 8848SOL    HW127645   0.202   1.293   1.937 -0.4014  1.4617 -0.4433
 8848SOL    HW227646   0.110   1.240   2.045 -0.6179  1.8393 -0.4401
 8849SOL     OW27647   0.825   3.205   4.838  0.1222  0.2041  0.2449
 8849SOL    HW127648   0.840   3.279   4.779  0.4436 -0.6912 -0.8184
 8849SOL    HW227649   0.761   3.151   4.793  0.4118 -0.5234  0.6897
 8850SOL     OW27650   8.508   2.912   2.372 -0.3191  0.2501 -0.3336
 8850SOL    HW127651   8.503   2.960   2.290 -0.4308  1.1933  0.2122
 8850SOL    HW227652   8.428   2.936   2.418  0.0829  0.2944  0.3502
 8851SOL     OW27653   8.605   1.140   1.820  0.4524 -0.2726  0.0041
 8851SOL    HW127654   8.601   1.055   1.775 -2.1340 -0.5377  0.5385
 8851SOL    HW227655   8.517   1.151   1.856  0.3655  3.1287 -0.9305
 8852SOL     OW27656   8.137   3.200   7.030  0.2666 -0.8225 -0.1062
 8852SOL    HW127657   8.174   3.191   7.118  0.7620  1.1398 -0.0650
 8852SOL    HW227658   8.204   3.164   6.972  0.1594 -1.6553  0.2719
 8853SOL     OW27659   3.430   2.980   6.643 -0.6276 -0.3572 -0.5024
 8853SOL    HW127660   3.353   2.980   6.587 -1.3905  0.1173  0.5285
 8853SOL    HW227661   3.504   2.979   6.582 -1.4401 -0.3514 -1.5036
 8854SOL     OW27662   6.289   1.422   6.170  0.3278 -0.0611  0.3044
 8854SOL    HW127663   6.355   1.451   6.233  0.0147 -1.0893  1.1336
 8854SOL    HW227664   6.221   1.489   6.174  0.4951  0.0842  0.7794
 8855SOL     OW27665   5.857   5.787   5.789 -0.4569 -0.2724 -0.0917
 8855SOL    HW127666   5.938   5.822   5.752 -1.4326  1.4639 -0.7105
 8855SOL    HW227667   5.864   5.692   5.778  2.1389 -0.3444  1.2790
 8856SOL     OW27668   4.620   6.267   8.381  0.2665  0.6058  0.2566
 8856SOL    HW127669   4.650   6.189   8.428 -0.7308  0.5095  0.7478
 8856SOL    HW227670   4.612   6.238   8.290  1.5519  0.6111  0.1199
 8857SOL     OW27671   8.359   1.951   7.769  0.5914 -0.2779  0.1172
 8857SOL    HW127672   8.331   1.882   7.708  1.4049 -0.9949  0.5405
 8857SOL    HW227673   8.441   1.919   7.806  1.2429  1.1470 -0.0313
 8858SOL     OW27674   7.278   8.175   1.898  0.5158  0.1645 -0.5669
 8858SOL    HW127675   7.235   8.156   1.814 -0.5074 -0.9429  0.1698
 8858SOL    HW227676   7.313   8.090   1.926  0.5751  0.4592  0.2694
 8859SOL     OW27677   3.348   1.582   1.577  0.3863  0.2320  0.6950
 8859SOL    HW127678   3.340   1.492   1.611  2.6122 -0.2408  0.1297
 8859SOL    HW227679   3.267   1.595   1.527 -0.8478 -0.7363  2.3170
 8860SOL     OW27680   1.695   4.693   8.003  0.1698 -0.0908 -0.3819
 8860SOL    HW127681   1.676   4.739   7.922 -0.0598  0.8640  0.1944
 8860SOL    HW227682   1.695   4.600   7.979  1.4882  0.2293 -1.7404
 8861SOL     OW27683   8.057   2.502   8.259 -0.4290  0.2330 -0.4704
 8861SOL    HW127684   7.975   2.522   8.212 -0.2079  1.5518 -0.3516
 8861SOL    HW227685   8.113   2.461   8.193 -0.1021  2.1083 -1.4429
 8862SOL     OW27686   0.538   2.124   2.140 -0.4606  0.4922 -0.4696
 8862SOL    HW127687   0.608   2.149   2.201 -1.1262  2.3376 -0.3765
 8862SOL    HW227688   0.577   2.133   2.053 -0.8043  2.5519 -0.4678
 8863SOL     OW27689   1.621   1.448   1.076 -0.3434 -0.0627 -0.4798
 8863SOL    HW127690   1.526   1.443   1.074 -0.3367 -0.2179 -0.4009
 8863SOL    HW227691   1.640   1.524   1.132 -0.4024 -0.7898  0.5439
 8864SOL     OW27692   8.336   0.487   2.497  0.2159 -0.2044 -0.2361
 8864SOL    HW127693   8.428   0.482   2.470  0.2431  0.2886 -0.2517
 8864SOL    HW227694   8.293   0.535   2.426 -0.3342 -1.6037 -0.8943
 8865SOL     OW27695   6.541   5.732   8.414  0.6448  0.0580 -0.7703
 8865SOL    HW127696   6.565   5.768   8.329 -0.1714  0.2027 -0.9479
 8865SOL    HW227697   6.604   5.662   8.430  0.6767 -0.1046 -1.5875
 8866SOL     OW27698   1.809   0.061   2.660 -0.2206 -0.1843  0.0151
 8866SOL    HW127699   1.758   0.124   2.711  0.9138 -0.1023  1.0853
 8866SOL    HW227700   1.794  -0.023   2.703 -0.0073 -0.2739 -0.0820
 8867SOL     OW27701   5.804   1.690   4.071  0.5160  0.8938  0.0234
 8867SOL    HW127702   5.897   1.670   4.086  0.0334 -1.0433  0.6028
 8867SOL    HW227703   5.806   1.766   4.013  2.4695  0.5100 -0.4925
 8868SOL     OW27704   2.220   4.210   4.807  0.1681 -0.0413  0.5653
 8868SOL    HW127705   2.292   4.274   4.815 -0.0439  0.2811 -0.0600
 8868SOL    HW227706   2.190   4.197   4.897  1.2247 -0.4282  0.8749
 8869SOL     OW27707   4.187   6.356   3.059  0.0624 -0.3229  0.0659
 8869SOL    HW127708   4.202   6.325   2.970 -0.4112  0.7547 -0.4090
 8869SOL    HW227709   4.252   6.310   3.112  4.3293  3.0771 -1.6355
 8870SOL     OW27710   2.575   8.906   4.933 -0.2503  0.0663  0.2438
 8870SOL    HW127711   2.542   8.947   5.013  2.7855  0.8588  1.2348
 8870SOL    HW227712   2.632   8.972   4.893 -0.0280 -1.0585 -1.4531
 8871SOL     OW27713   7.583   0.335   3.524  0.2302  0.0740 -0.3475
 8871SOL    HW127714   7.649   0.351   3.456  2.9139 -0.1670  2.0040
 8871SOL    HW227715   7.629   0.284   3.590 -2.8758 -1.5720  0.7289
 8872SOL     OW27716   7.894   1.935   6.071  0.0789  0.4443  0.1958
 8872SOL    HW127717   7.902   2.019   6.024  0.2335  0.6342  0.5608
 8872SOL    HW227718   7.878   1.871   6.001  3.0291  0.2807 -0.4969
 8873SOL     OW27719   3.857   4.656   0.566 -0.1099 -0.0331  0.2568
 8873SOL    HW127720   3.823   4.587   0.510  2.3422 -1.1291 -0.0249
 8873SOL    HW227721   3.951   4.638   0.571  0.4974  2.8563  0.8128
 8874SOL     OW27722   5.535   1.090   3.571  0.2125 -0.0207  0.1144
 8874SOL    HW127723   5.450   1.092   3.615 -0.3900 -0.0099 -1.0165
 8874SOL    HW227724   5.557   0.997   3.567  1.2829  0.0870  2.2756
 8875SOL     OW27725   4.471   8.275   3.052 -0.3511 -0.2721 -0.5499
 8875SOL    HW127726   4.506   8.267   2.963 -0.9214 -0.1655 -0.7886
 8875SOL    HW227727   4.463   8.184   3.082  1.7706 -0.2761  0.1828
 8876SOL     OW27728   1.963   7.967   3.486  0.1563 -0.1188 -0.0484
 8876SOL    HW127729   2.025   8.002   3.422  0.3469 -1.2711 -0.5178
 8876SOL    HW227730   2.017   7.923   3.551 -0.1334 -0.8365 -0.2788
 8877SOL     OW27731   0.983   2.095   1.440 -0.3819 -0.2375 -0.1239
 8877SOL    HW127732   0.974   2.183   1.404  1.0077 -0.4656 -1.0803
 8877SOL    HW227733   0.920   2.093   1.512  0.0251  1.7764  0.3706
 8878SOL     OW27734   3.948   7.737   7.950  0.5289 -0.2116  0.0397
 8878SOL    HW127735   3.908   7.802   8.008  1.1825 -1.0124  1.4300
 8878SOL    HW227736   3.888   7.663   7.953 -0.2734  0.3281 -1.6342
 8879SOL     OW27737   2.638   6.133   1.154  0.0665 -0.2595  0.2947
 8879SOL    HW127738   2.580   6.107   1.227 -1.8502 -0.8955 -1.3672
 8879SOL    HW227739   2.680   6.051   1.127 -2.2665 -0.8900 -1.7913
 8880SOL     OW27740   3.912   7.535   0.956 -0.0996 -0.1019  0.5472
 8880SOL    HW127741   3.833   7.556   0.906  0.5620 -1.9422 -1.4172
 8880SOL    HW227742   3.909   7.440   0.967  2.3635 -0.3928 -0.6166
 8881SOL     OW27743   6.388   5.183   5.692  0.0057 -0.2746 -0.4626
 8881SOL    HW127744   6.381   5.174   5.597 -0.6413 -0.8808 -0.3576
 8881SOL    HW227745   6.376   5.095   5.726  1.4356 -0.2757  0.1290
 8882SOL     OW27746   7.810   1.876   5.813 -0.1289  0.2566  0.1485
 8882SOL    HW127747   7.718   1.891   5.790  0.7177  2.9125 -2.1385
 8882SOL    HW227748   7.844   1.823   5.742  0.3868  0.4262  0.2657
 8883SOL     OW27749   5.980   0.664   0.287 -0.8763  0.9009  0.8811
 8883SOL    HW127750   6.061   0.695   0.248 -0.1737  0.3888  1.8963
 8883SOL    HW227751   5.956   0.731   0.350 -0.1516  0.1257  2.0126
 8884SOL     OW27752   8.673   4.964   1.588 -0.1806  0.1874 -0.5730
 8884SOL    HW127753   8.733   4.952   1.514  0.8249  0.6569  0.1381
 8884SOL    HW227754   8.677   4.881   1.635  0.8586  0.5994  0.1197
 8885SOL     OW27755   8.730   4.979   7.633  0.1946 -0.2418  0.2736
 8885SOL    HW127756   8.719   5.074   7.632 -0.2822 -0.2915 -0.6562
 8885SOL    HW227757   8.691   4.950   7.550 -0.9504 -1.3891  1.1872
 8886SOL     OW27758   4.660   0.345   1.206  0.5601  0.3054  0.4189
 8886SOL    HW127759   4.571   0.366   1.177 -0.6895  1.4370  4.4033
 8886SOL    HW227760   4.707   0.428   1.199  1.1437 -0.1069 -0.9245
 8887SOL     OW27761   3.768   4.505   1.126 -0.1024  0.5131 -0.1208
 8887SOL    HW127762   3.850   4.549   1.102 -0.4655  1.8912  1.0133
 8887SOL    HW227763   3.790   4.452   1.202 -0.6910  2.6831  1.6490
 8888SOL     OW27764   6.781   1.574   8.748  0.2800  0.4846  0.5733
 8888SOL    HW127765   6.790   1.479   8.751  0.7279  0.3304 -2.4236
 8888SOL    HW227766   6.808   1.603   8.834 -0.9542 -2.1431  1.9792
 8889SOL     OW27767   2.758   4.540   0.900  0.1755 -0.2846 -0.0888
 8889SOL    HW127768   2.749   4.610   0.966 -0.5459 -0.1544 -0.3218
 8889SOL    HW227769   2.697   4.473   0.928 -0.6342  0.0565 -0.9867
 8890SOL     OW27770   8.047   5.763   6.453 -0.7653 -0.0655 -0.5202
 8890SOL    HW127771   8.075   5.739   6.541 -0.6469  0.9913 -0.2522
 8890SOL    HW227772   8.110   5.830   6.425 -0.2729 -1.0234 -1.7665
 8891SOL     OW27773   2.536   0.337   1.668  0.1436  0.4716 -0.4747
 8891SOL    HW127774   2.524   0.423   1.628  1.9598  0.7834 -0.4569
 8891SOL    HW227775   2.466   0.330   1.732 -1.8150  0.6876 -2.4630
 8892SOL     OW27776   0.552   2.942   4.156 -0.2103  0.4765  0.0298
 8892SOL    HW127777   0.597   2.892   4.088 -1.4101  0.7090 -0.9605
 8892SOL    HW227778   0.484   2.991   4.110 -0.5207  1.2942  1.2850
 8893SOL     OW27779   4.401   3.484   1.926 -0.0179 -0.1329  0.4053
 8893SOL    HW127780   4.475   3.512   1.980  1.1107  0.5848 -1.4291
 8893SOL    HW227781   4.409   3.388   1.923  1.2946 -0.0167 -0.3684
 8894SOL     OW27782   0.695   2.633   3.772  0.1402 -0.0750 -0.0184
 8894SOL    HW127783   0.772   2.577   3.761  0.1063  0.1091 -1.2590
 8894SOL    HW227784   0.705   2.701   3.706  0.4955  1.7915  1.8441
 8895SOL     OW27785   5.277   5.022   8.231 -0.4466 -0.7821  0.4899
 8895SOL    HW127786   5.371   5.015   8.216 -0.1407 -1.9490  2.5098
 8895SOL    HW227787   5.269   5.082   8.305 -1.4781  0.8617 -0.8819
 8896SOL     OW27788   1.192   2.422   6.897 -0.8806 -0.7352  0.1652
 8896SOL    HW127789   1.249   2.436   6.973 -0.9548  1.3906 -0.1007
 8896SOL    HW227790   1.249   2.384   6.831 -0.0897  0.0594  0.3698
 8897SOL     OW27791   4.111   7.298   1.129  0.4380  0.2163 -0.0884
 8897SOL    HW127792   4.044   7.263   1.070  0.3403 -0.7182  0.5530
 8897SOL    HW227793   4.171   7.345   1.072 -0.4687  0.6200 -0.7468
 8898SOL     OW27794   7.034   0.991   4.365 -0.3255 -0.2473 -0.0134
 8898SOL    HW127795   7.073   1.067   4.408 -1.4512  0.0680  0.4856
 8898SOL    HW227796   6.940   1.000   4.380 -0.4400 -2.1511  0.7804
 8899SOL     OW27797   5.768   1.112   4.192 -0.0635  0.1062 -0.1474
 8899SOL    HW127798   5.718   1.078   4.266 -0.5806  2.7926  0.8471
 8899SOL    HW227799   5.702   1.129   4.125 -0.1791  1.2161  0.2185
 8900SOL     OW27800   6.848   4.566   0.347 -0.5423  0.5481 -0.1372
 8900SOL    HW127801   6.823   4.592   0.436 -1.3950 -0.6847  0.0074
 8900SOL    HW227802   6.773   4.516   0.315 -0.0348  0.5497 -1.3711
 8901SOL     OW27803   3.845   6.761   4.762 -0.6785  0.3339  0.0597
 8901SOL    HW127804   3.853   6.666   4.755  0.6999  0.4344  0.0310
 8901SOL    HW227805   3.802   6.787   4.680  0.1349 -0.1564 -0.5457
 8902SOL     OW27806   5.055   4.033   1.625  0.0228 -0.1311  0.3019
 8902SOL    HW127807   5.096   4.066   1.546  0.4717 -0.6824  0.3025
 8902SOL    HW227808   4.963   4.058   1.616  0.0369 -0.3532 -0.4742
 8903SOL     OW27809   0.870   2.257   7.776  0.5957  0.0347  0.6856
 8903SOL    HW127810   0.783   2.260   7.816  0.0310  0.9432 -0.5559
 8903SOL    HW227811   0.918   2.192   7.828 -1.7796 -2.8943 -0.5259
 8904SOL     OW27812   3.999   8.768   4.738  0.0172 -0.2969 -0.1522
 8904SOL    HW127813   4.079   8.759   4.791  0.3930 -1.7142 -0.8996
 8904SOL    HW227814   4.028   8.748   4.649 -0.0581  4.3902 -1.4569
 8905SOL     OW27815   8.263   3.478   5.963  0.1315 -0.2255  0.4400
 8905SOL    HW127816   8.248   3.466   6.057  0.1892  0.2146  0.5091
 8905SOL    HW227817   8.335   3.541   5.959  1.3740 -1.5935  0.1136
 8906SOL     OW27818   1.924   3.486   8.121  0.0206  0.6455 -0.5473
 8906SOL    HW127819   1.849   3.456   8.069 -0.6627  2.8031 -0.9101
 8906SOL    HW227820   1.894   3.482   8.212 -0.5572  1.5072 -0.6923
 8907SOL     OW27821   0.239   5.929   3.269  0.5464 -0.0154 -0.1594
 8907SOL    HW127822   0.262   5.898   3.181  0.8661 -2.8937  0.8359
 8907SOL    HW227823   0.315   5.980   3.297  1.1625 -0.4942 -0.9049
 8908SOL     OW27824   0.423   4.547   8.708  0.5871 -0.1432 -0.9089
 8908SOL    HW127825   0.507   4.552   8.753  0.5128  0.2055 -0.8077
 8908SOL    HW227826   0.362   4.514   8.774  0.7548 -0.9454 -1.1398
 8909SOL     OW27827   1.296   6.389   5.686  0.2248 -0.3061 -0.7109
 8909SOL    HW127828   1.267   6.476   5.713  1.4995  0.0660 -0.4862
 8909SOL    HW227829   1.236   6.329   5.731  0.8663  0.3788  1.1604
 8910SOL     OW27830   4.980   0.377   1.192  0.0084 -0.0607  0.7293
 8910SOL    HW127831   4.925   0.328   1.131  0.5468 -2.0380  1.7589
 8910SOL    HW227832   4.933   0.459   1.206  0.0932  0.7143 -2.6663
 8911SOL     OW27833   8.955   0.063   5.416  0.2144  0.0187  0.1373
 8911SOL    HW127834   8.935   0.037   5.326 -0.7787 -0.5137  0.4950
 8911SOL    HW227835   8.910   0.147   5.427  1.0035  0.4843 -0.1028
 8912SOL     OW27836   6.119   0.516   1.461  0.3144 -0.4700 -0.6147
 8912SOL    HW127837   6.106   0.567   1.540  3.2737 -1.3196  0.5605
 8912SOL    HW227838   6.075   0.567   1.392 -0.6260  1.3229  1.2096
 8913SOL     OW27839   0.454   3.443   6.881  0.2650 -0.1524  0.2466
 8913SOL    HW127840   0.375   3.388   6.873 -0.2331  0.5267  0.4365
 8913SOL    HW227841   0.471   3.473   6.791  1.9000 -2.4354 -0.3079
 8914SOL     OW27842   1.521   4.937   2.083 -0.0594 -0.0897  0.5745
 8914SOL    HW127843   1.540   5.029   2.101  0.3139 -0.2121  0.8255
 8914SOL    HW227844   1.432   4.925   2.117  0.0889  0.0500  1.0273
 8915SOL     OW27845   1.474   6.613   3.939 -0.2083  0.3969  0.3532
 8915SOL    HW127846   1.459   6.563   4.019 -1.2926  1.7363  1.0327
 8915SOL    HW227847   1.564   6.644   3.946 -0.0959 -0.0182  0.7439
 8916SOL     OW27848   9.114   3.380   6.064 -0.0996 -0.7905 -0.0414
 8916SOL    HW127849   9.122   3.387   6.159 -0.0605 -0.2447 -0.0803
 8916SOL    HW227850   9.200   3.405   6.031 -0.3925 -0.0521 -0.2552
 8917SOL     OW27851   7.512   5.469   0.196 -0.1839 -0.3640  0.2879
 8917SOL    HW127852   7.506   5.486   0.102  2.2800 -1.0389 -0.0722
 8917SOL    HW227853   7.597   5.506   0.221 -1.6988  1.8508  2.7895
 8918SOL     OW27854   2.909   8.560   0.331 -0.8027  0.4493 -0.4440
 8918SOL    HW127855   2.817   8.549   0.355 -1.0072  2.3254 -0.2339
 8918SOL    HW227856   2.910   8.633   0.269  0.6792  1.3832  0.6114
 8919SOL     OW27857   1.937   7.931   6.079  0.1922  0.5184  0.6417
 8919SOL    HW127858   1.996   7.945   6.005 -0.8151 -0.0020 -0.2985
 8919SOL    HW227859   1.918   7.837   6.076  2.4767 -0.1470  3.4089
 8920SOL     OW27860   0.742   3.492   1.872 -0.2708  0.1573  0.1879
 8920SOL    HW127861   0.824   3.490   1.922  1.3121  1.2315 -2.1996
 8920SOL    HW227862   0.718   3.399   1.864  1.3887 -0.2991 -0.0624
 8921SOL     OW27863   5.818   6.687   7.386 -0.6617 -0.5383  0.0129
 8921SOL    HW127864   5.806   6.594   7.406  1.3500 -1.0888 -1.0252
 8921SOL    HW227865   5.897   6.712   7.434  0.2760 -0.0828 -1.6607
 8922SOL     OW27866   0.899   1.175   4.089  0.5284 -0.2847 -0.8133
 8922SOL    HW127867   0.865   1.130   4.012 -0.3374 -1.4432  0.2124
 8922SOL    HW227868   0.822   1.216   4.129  0.4609 -1.9011  0.8485
 8923SOL     OW27869   8.853   7.488   2.738 -0.3977 -0.0822 -0.5415
 8923SOL    HW127870   8.800   7.566   2.753 -0.9894 -0.7627  1.1629
 8923SOL    HW227871   8.936   7.507   2.780  0.3026  0.4749 -2.0955
 8924SOL     OW27872   6.009   6.768   5.329  0.1542 -0.3434  0.2501
 8924SOL    HW127873   5.929   6.785   5.280  0.4662 -0.5278 -0.3264
 8924SOL    HW227874   5.996   6.813   5.413 -1.3926 -2.0458  0.9850
 8925SOL     OW27875   3.217   2.150   8.588 -0.1753 -0.0288  0.4609
 8925SOL    HW127876   3.126   2.149   8.619  0.0632 -0.7013  1.1661
 8925SOL    HW227877   3.257   2.074   8.630  0.7228  0.2815  0.1777
 8926SOL     OW27878   8.837   3.353   6.141 -0.2681 -1.0345  0.3950
 8926SOL    HW127879   8.791   3.271   6.122  0.3835 -1.2302 -0.3815
 8926SOL    HW227880   8.917   3.348   6.090 -0.5922  0.4603 -0.3069
 8927SOL     OW27881   4.002   8.581   8.732  0.4131  0.6447  0.1579
 8927SOL    HW127882   3.925   8.578   8.789  0.7655  0.4529  0.6363
 8927SOL    HW227883   3.990   8.508   8.671  0.0418  0.8388 -0.0084
 8928SOL     OW27884   3.011   2.606   2.748  0.4050 -0.2952 -0.4813
 8928SOL    HW127885   2.962   2.665   2.691 -0.4970 -1.4560 -0.9436
 8928SOL    HW227886   2.962   2.605   2.830  0.8861  0.2362 -0.1823
 8929SOL     OW27887   8.350   2.512   1.245  0.2291 -0.7258  0.7812
 8929SOL    HW127888   8.354   2.495   1.340 -0.3110  0.7978  1.1131
 8929SOL    HW227889   8.347   2.607   1.238 -1.6029 -0.8199 -0.6706
 8930SOL     OW27890   2.386   3.911   3.669 -0.9755 -0.6694  0.2380
 8930SOL    HW127891   2.433   3.918   3.586 -1.6608 -1.2029 -0.2061
 8930SOL    HW227892   2.370   3.818   3.681 -1.1890 -0.5689  0.7924
 8931SOL     OW27893   3.161   2.624   5.412 -0.2519  0.8873 -0.2388
 8931SOL    HW127894   3.087   2.629   5.351 -0.3357  0.5670 -0.1686
 8931SOL    HW227895   3.227   2.682   5.374 -0.8549  1.8455  0.1482
 8932SOL     OW27896   7.262   4.838   7.052  0.1038  0.5972  0.3896
 8932SOL    HW127897   7.171   4.850   7.080 -0.1315 -1.0414  0.4368
 8932SOL    HW227898   7.256   4.778   6.978  1.0362  1.8429 -0.7476
 8933SOL     OW27899   7.945   1.225   5.983  0.6928 -0.4525  0.2375
 8933SOL    HW127900   7.866   1.188   5.942 -0.4443 -1.0437  2.7683
 8933SOL    HW227901   7.924   1.317   5.996  0.5273 -0.5405  0.6154
 8934SOL     OW27902   6.511   5.661   3.135  0.2946 -0.6555  0.3922
 8934SOL    HW127903   6.576   5.596   3.108  1.1173 -0.3862  1.6914
 8934SOL    HW227904   6.490   5.638   3.226 -1.4958 -0.7828 -0.0109
 8935SOL     OW27905   4.199   5.360   8.205  0.1755  0.2036 -0.4950
 8935SOL    HW127906   4.269   5.318   8.155 -1.2092 -1.8822 -0.7776
 8935SOL    HW227907   4.235   5.447   8.227  1.9435  0.0894 -2.5758
 8936SOL     OW27908   6.322   5.515   1.720  0.1824 -0.2760  0.2772
 8936SOL    HW127909   6.416   5.511   1.739  0.1542 -0.2696  0.4165
 8936SOL    HW227910   6.293   5.424   1.727 -0.1194 -0.0954  1.7479
 8937SOL     OW27911   7.482   3.219   7.168 -0.4973  0.4452 -0.1048
 8937SOL    HW127912   7.504   3.161   7.241 -0.3670  1.7543  0.9330
 8937SOL    HW227913   7.397   3.189   7.138  0.5805 -1.7816 -1.1818
 8938SOL     OW27914   5.652   7.105   8.690 -0.6048  0.3001 -0.4762
 8938SOL    HW127915   5.677   7.067   8.606 -2.8579 -1.5164 -0.4181
 8938SOL    HW227916   5.734   7.109   8.739  0.3280 -1.0466 -1.8300
 8939SOL     OW27917   0.175   6.445   5.448 -0.2589 -0.2288 -0.1947
 8939SOL    HW127918   0.216   6.413   5.528  0.0878  0.8768  0.0945
 8939SOL    HW227919   0.249   6.471   5.392 -0.5150  1.1156  0.0482
 8940SOL     OW27920   6.744   1.859   5.277 -0.5690  0.0409 -0.1529
 8940SOL    HW127921   6.696   1.802   5.218  1.9803 -1.5374 -0.8586
 8940SOL    HW227922   6.730   1.821   5.364  1.1518 -1.7968 -0.6268
 8941SOL     OW27923   7.161   1.487   3.047 -0.6458  0.3879  0.7643
 8941SOL    HW127924   7.071   1.511   3.028 -0.2078  0.2715 -1.7376
 8941SOL    HW227925   7.200   1.566   3.085 -1.1830  1.2175 -0.3638
 8942SOL     OW27926   7.687   5.755   3.025  0.6657 -0.2612 -0.3538
 8942SOL    HW127927   7.776   5.722   3.020  0.1295 -1.8404 -0.1942
 8942SOL    HW227928   7.656   5.728   3.112  0.6945  2.1520  0.4962
 8943SOL     OW27929   5.133   6.983   7.596  0.0316  0.6213 -0.1990
 8943SOL    HW127930   5.124   6.949   7.685 -1.2705 -0.3365 -0.6546
 8943SOL    HW227931   5.201   7.050   7.602  1.3180 -0.7161  1.1378
 8944SOL     OW27932   2.494   7.032   7.978 -0.1634  0.1980  0.1669
 8944SOL    HW127933   2.461   7.091   7.910  3.0303  1.4158 -0.4939
 8944SOL    HW227934   2.503   6.948   7.934  2.9120  1.2097 -1.4445
 8945SOL     OW27935   1.163   2.905   7.784 -0.2332  0.6218 -0.3187
 8945SOL    HW127936   1.068   2.897   7.771 -0.2545  1.1741 -0.5409
 8945SOL    HW227937   1.180   2.999   7.778  0.2758  0.5628  0.1260
 8946SOL     OW27938   2.427   0.570   1.576 -0.4180  0.5920 -0.4814
 8946SOL    HW127939   2.392   0.544   1.491  0.4073  1.1877 -1.0308
 8946SOL    HW227940   2.476   0.651   1.557  0.6366  0.1769  0.3589
 8947SOL     OW27941   7.313   8.353   8.267 -0.0603 -0.4482 -0.3466
 8947SOL    HW127942   7.256   8.419   8.306  0.3359 -0.3663  0.0891
 8947SOL    HW227943   7.295   8.359   8.173  0.9435  1.1884 -0.4525
 8948SOL     OW27944   6.066   8.694   7.160  0.0900 -0.0794 -0.4268
 8948SOL    HW127945   6.112   8.612   7.179  0.5220  0.2025 -0.2394
 8948SOL    HW227946   6.123   8.762   7.196 -0.1571  0.3189 -0.7826
 8949SOL     OW27947   7.074   4.335   8.359 -0.2539  0.2691  0.5059
 8949SOL    HW127948   7.140   4.403   8.341 -0.5508  0.3012 -0.5269
 8949SOL    HW227949   7.107   4.290   8.437  0.6296  0.7467  0.4245
 8950SOL     OW27950   5.513   6.841   8.134 -0.0556 -0.2249  0.8894
 8950SOL    HW127951   5.421   6.842   8.161 -0.1535  0.4749  0.5549
 8950SOL    HW227952   5.511   6.861   8.040  0.3837 -1.1230  0.6776
 8951SOL     OW27953   2.968   5.288   0.637  0.0157  0.4487 -0.1713
 8951SOL    HW127954   2.952   5.294   0.542  1.0155  1.6281 -0.2936
 8951SOL    HW227955   2.963   5.379   0.667 -0.2317  0.0868  0.9123
 8952SOL     OW27956   2.362   6.980   3.577 -0.4382  0.4156  0.3572
 8952SOL    HW127957   2.427   7.013   3.514  0.3162  0.9588  1.3810
 8952SOL    HW227958   2.414   6.931   3.641 -1.0572  0.6766  1.0742
 8953SOL     OW27959   7.685   1.013   6.090  0.4563  0.0325 -0.3267
 8953SOL    HW127960   7.758   0.996   6.149  0.4190  0.3952 -0.1773
 8953SOL    HW227961   7.632   0.933   6.094 -0.2827  0.5722  1.1882
 8954SOL     OW27962   8.131   5.091   5.930 -0.0650 -0.1995 -0.0206
 8954SOL    HW127963   8.222   5.114   5.912  0.1354  0.1590  1.3272
 8954SOL    HW227964   8.083   5.124   5.854  0.9732 -0.8830 -1.0112
 8955SOL     OW27965   2.320   3.405   7.749 -0.2302  0.4277 -1.1114
 8955SOL    HW127966   2.336   3.360   7.832  0.1996  0.0386 -1.4026
 8955SOL    HW227967   2.291   3.335   7.689 -0.7939  0.7481 -1.2179
 8956SOL     OW27968   7.841   4.327   1.279  0.4381  0.6736  0.0449
 8956SOL    HW127969   7.921   4.310   1.228 -0.6897  1.6408 -2.1861
 8956SOL    HW227970   7.827   4.246   1.329  1.6252 -0.3410 -1.1860
 8957SOL     OW27971   1.670   6.069   3.992 -0.1110 -0.5484 -0.2923
 8957SOL    HW127972   1.629   6.054   3.907 -0.5124 -1.2614  0.0103
 8957SOL    HW227973   1.708   6.156   3.986 -2.3535  0.4886 -0.3516
 8958SOL     OW27974   3.493   7.317   8.098  0.3005  0.2964 -0.4822
 8958SOL    HW127975   3.475   7.410   8.085 -1.1667  0.0525 -0.3598
 8958SOL    HW227976   3.516   7.309   8.191  0.0273  0.4805 -0.3989
 8959SOL     OW27977   1.721   0.833   8.861  0.1690 -0.2367 -0.0648
 8959SOL    HW127978   1.765   0.914   8.835  0.4044 -0.3049  0.1127
 8959SOL    HW227979   1.636   0.836   8.817  0.0849  0.2137  0.1266
 8960SOL     OW27980   4.538   1.643   2.446 -0.7440  0.0710  0.2304
 8960SOL    HW127981   4.494   1.715   2.492 -4.2530 -1.6959 -0.0043
 8960SOL    HW227982   4.554   1.577   2.514 -1.1293 -0.4362 -0.1546
 8961SOL     OW27983   3.554   7.739   5.797 -0.3882 -0.3948  0.1982
 8961SOL    HW127984   3.594   7.818   5.761  1.5237 -1.2227  0.4151
 8961SOL    HW227985   3.592   7.667   5.746 -1.1051 -1.2741  0.8559
 8962SOL     OW27986   0.605   8.421   3.364 -0.2659  0.1839  0.6063
 8962SOL    HW127987   0.625   8.350   3.425 -1.8795 -0.0169  0.9538
 8962SOL    HW227988   0.674   8.486   3.378  0.7000 -0.8942  0.9563
 8963SOL     OW27989   3.587   4.957   3.101  0.4368  0.8913 -0.2375
 8963SOL    HW127990   3.647   4.885   3.086 -0.1650  0.6058 -1.4275
 8963SOL    HW227991   3.611   4.992   3.187  2.4924  0.9994 -0.8089
 8964SOL     OW27992   4.570   6.038   1.840 -0.3092 -0.0895 -0.1986
 8964SOL    HW127993   4.603   6.089   1.767  0.3559 -0.3226 -0.0658
 8964SOL    HW227994   4.571   5.948   1.809 -0.8021 -0.1068 -0.1817
 8965SOL     OW27995   8.873   0.039   2.220  0.2426 -0.5853  0.0107
 8965SOL    HW127996   8.804  -0.012   2.261 -1.8401  2.0233  0.0089
 8965SOL    HW227997   8.925  -0.025   2.172 -0.6573 -2.9631  2.0410
 8966SOL     OW27998   8.382   5.976   0.587 -0.5689 -0.2523  0.6337
 8966SOL    HW127999   8.351   6.066   0.580 -0.8038 -0.3287  0.6730
 8966SOL    HW228000   8.303   5.924   0.602 -0.3886 -0.4155  1.0512
 8967SOL     OW28001   7.106   4.545   3.417 -0.3031 -0.0933  0.8558
 8967SOL    HW128002   7.151   4.523   3.335 -0.4678 -0.1988  0.7935
 8967SOL    HW228003   7.159   4.615   3.455  0.0716 -0.4061  0.9196
 8968SOL     OW28004   2.885   7.890   4.004  0.2485 -0.4026  0.0074
 8968SOL    HW128005   2.844   7.899   4.090 -0.5002  2.6946 -0.5460
 8968SOL    HW228006   2.909   7.979   3.979 -1.0010 -0.9189 -3.6641
 8969SOL     OW28007   3.498   1.754   2.963 -0.1891 -0.0739  0.0828
 8969SOL    HW128008   3.517   1.802   3.044 -0.3634 -1.9588  1.3256
 8969SOL    HW228009   3.421   1.797   2.927 -0.6126  0.3270  1.3889
 8970SOL     OW28010   0.222   2.964   8.147  0.5869  0.0072  0.2446
 8970SOL    HW128011   0.172   3.021   8.205  0.3426 -0.2051  0.2444
 8970SOL    HW228012   0.313   2.991   8.159  0.5037  0.1831  0.4809
 8971SOL     OW28013   7.588   1.005   7.256  0.2035  0.1799  0.0948
 8971SOL    HW128014   7.535   0.926   7.246 -0.8828  0.9446 -0.3098
 8971SOL    HW228015   7.554   1.046   7.336  0.1369  0.7214 -0.2123
 8972SOL     OW28016   8.448   7.731   0.139  0.3199  0.4402  0.1788
 8972SOL    HW128017   8.490   7.647   0.119 -1.2368 -0.0543 -1.2573
 8972SOL    HW228018   8.403   7.715   0.222 -1.7076 -0.9287 -1.0698
 8973SOL     OW28019   4.921   5.657   7.104 -0.3895 -0.0343 -0.0911
 8973SOL    HW128020   4.997   5.715   7.094  1.0418 -1.8645 -0.6921
 8973SOL    HW228021   4.862   5.682   7.033 -0.4680  1.5801  0.5238
 8974SOL     OW28022   3.651   8.357   2.342  0.6309  0.0779 -0.1110
 8974SOL    HW128023   3.571   8.303   2.343 -0.6195  1.8296  0.0655
 8974SOL    HW228024   3.722   8.295   2.357 -0.8301 -1.3650  1.3418
 8975SOL     OW28025   2.898   0.107   4.476 -0.2785 -0.0278 -0.1272
 8975SOL    HW128026   2.921   0.021   4.440 -2.5454 -0.2409 -1.2329
 8975SOL    HW228027   2.914   0.099   4.570 -0.5969 -1.7125 -0.1922
 8976SOL     OW28028   6.645   1.565   4.374  0.3755 -0.4096  0.3073
 8976SOL    HW128029   6.733   1.545   4.344 -0.9096 -1.7846 -2.9610
 8976SOL    HW228030   6.609   1.623   4.308 -1.3017 -0.0954  1.4318
 8977SOL     OW28031   7.829   6.024   8.331 -0.1925  0.3345  0.5917
 8977SOL    HW128032   7.841   6.115   8.302  0.7770 -0.0091 -0.1381
 8977SOL    HW228033   7.911   5.981   8.309 -0.0760 -0.3868  2.3051
 8978SOL     OW28034   7.320   6.686   2.592 -0.4666  0.1241 -0.0869
 8978SOL    HW128035   7.308   6.735   2.673 -1.2455  1.2837 -0.8592
 8978SOL    HW228036   7.415   6.686   2.578 -0.4539  1.8251 -0.2620
 8979SOL     OW28037   1.652   7.072   0.413 -0.2110  0.3242  0.3003
 8979SOL    HW128038   1.623   7.006   0.476 -1.6022  2.3070  1.8601
 8979SOL    HW228039   1.585   7.070   0.344  1.5007 -2.1016 -1.4834
 8980SOL     OW28040   0.644   7.536   2.160 -0.1327  0.1448 -0.7201
 8980SOL    HW128041   0.579   7.576   2.102  0.2865  1.1075 -0.5553
 8980SOL    HW228042   0.714   7.601   2.165  1.1844 -1.1490 -1.4574
 8981SOL     OW28043   4.501   0.956   3.784  0.2198  1.2910  0.1644
 8981SOL    HW128044   4.499   0.957   3.689  0.1314  2.5920  0.1600
 8981SOL    HW228045   4.409   0.948   3.810  0.3783 -1.6402  0.1950
 8982SOL     OW28046   3.943   3.052   7.073 -0.3303 -0.4160 -0.1667
 8982SOL    HW128047   3.940   3.148   7.075  0.9927 -0.3384 -0.9918
 8982SOL    HW228048   4.001   3.028   7.145  1.2624 -0.4397 -1.3941
 8983SOL     OW28049   0.609   6.196   6.897 -0.0928  1.0796  0.3483
 8983SOL    HW128050   0.617   6.281   6.855 -0.5930  0.4291 -1.1166
 8983SOL    HW228051   0.617   6.215   6.991  3.5181  2.3000 -0.0523
 8984SOL     OW28052   3.059   2.192   8.281 -0.2381  0.0728  0.5349
 8984SOL    HW128053   3.119   2.263   8.304 -0.0828  0.7064 -1.5731
 8984SOL    HW228054   3.008   2.227   8.208 -1.2013 -1.4770  0.4240
 8985SOL     OW28055   6.606   9.115   5.746  0.0702  0.5995  0.3443
 8985SOL    HW128056   6.595   9.024   5.775 -1.7609  1.0134  1.0823
 8985SOL    HW228057   6.618   9.164   5.827 -1.3303  1.3035  0.1414
 8986SOL     OW28058   3.376   1.172   0.100 -0.4353 -0.1288 -0.2588
 8986SOL    HW128059   3.293   1.146   0.140 -0.4393 -0.7173 -0.6448
 8986SOL    HW228060   3.378   1.126   0.016 -0.1410  0.6048 -0.6654
 8987SOL     OW28061   5.593   1.174   5.129  0.1734  0.1490  0.5462
 8987SOL    HW128062   5.589   1.080   5.113 -0.1783  0.4498 -1.4194
 8987SOL    HW228063   5.505   1.196   5.162  0.2346 -0.1904  0.9423
 8988SOL     OW28064   5.534   5.269   2.505 -0.3819  0.1668 -0.0847
 8988SOL    HW128065   5.596   5.299   2.571  1.0967 -2.5057 -0.1188
 8988SOL    HW228066   5.588   5.243   2.431 -1.8291  0.7217 -1.3977
 8989SOL     OW28067   8.634   6.837   8.623  0.1672 -0.2338 -0.2269
 8989SOL    HW128068   8.685   6.890   8.683  1.4584 -0.9139 -0.6983
 8989SOL    HW228069   8.573   6.898   8.582  0.4816  0.5562  0.4668
 8990SOL     OW28070   0.723   6.433   6.578 -0.2502  0.0865 -0.9863
 8990SOL    HW128071   0.814   6.405   6.591 -0.3518  0.5963  1.1488
 8990SOL    HW228072   0.677   6.353   6.552  0.1713 -0.9715  1.3113
 8991SOL     OW28073   2.773   7.292   5.654  0.2504  0.0384 -0.4903
 8991SOL    HW128074   2.756   7.201   5.629 -2.4187 -0.4161  2.5127
 8991SOL    HW228075   2.703   7.342   5.613  0.4335  0.4357 -0.3269
 8992SOL     OW28076   7.194   3.150   7.092  0.4195  0.1443  0.6812
 8992SOL    HW128077   7.131   3.084   7.120 -1.0941  1.8099  1.4489
 8992SOL    HW228078   7.181   3.157   6.997 -0.5665  0.4419  0.8260
 8993SOL     OW28079   2.776   6.673   8.704  0.0953 -0.1273  0.0518
 8993SOL    HW128080   2.697   6.693   8.654  0.4584  1.3746  0.0098
 8993SOL    HW228081   2.766   6.725   8.784  1.9910  1.8609 -0.8961
 8994SOL     OW28082   6.279   8.830   6.902  0.1199  0.1151 -0.2137
 8994SOL    HW128083   6.291   8.914   6.945 -0.6805  0.7871 -1.2471
 8994SOL    HW228084   6.300   8.846   6.810 -1.8009 -0.3190 -0.7935
 8995SOL     OW28085   1.001   2.992   4.849  0.1989 -0.1726  0.2354
 8995SOL    HW128086   0.946   3.065   4.876 -0.5116 -0.4562 -0.4141
 8995SOL    HW228087   0.942   2.917   4.847  0.3313 -0.2751 -1.5266
 8996SOL     OW28088   1.425   2.241   9.062  0.5868 -0.9942 -0.4809
 8996SOL    HW128089   1.502   2.261   9.117  1.0755 -1.3444 -1.0258
 8996SOL    HW228090   1.445   2.282   8.978 -0.4916  0.1782 -0.2005
 8997SOL     OW28091   7.487   8.633   1.319 -0.1829  0.1818  0.3660
 8997SOL    HW128092   7.551   8.647   1.249  1.1454 -0.6587  1.3573
 8997SOL    HW228093   7.414   8.691   1.297  0.6040  0.6316 -1.1962
 8998SOL     OW28094   3.541   3.778   5.095 -0.3255 -0.0847  0.5703
 8998SOL    HW128095   3.458   3.793   5.142 -0.0558  1.2366  0.6634
 8998SOL    HW228096   3.597   3.736   5.160 -1.1922 -1.8470  0.2342
 8999SOL     OW28097   5.770   6.419   9.057 -0.3131  0.0555 -0.0072
 8999SOL    HW128098   5.695   6.369   9.089 -0.6335  0.2831 -0.3933
 8999SOL    HW228099   5.753   6.509   9.085  0.5606 -0.1277  1.2246
 9000SOL     OW28100   1.616   6.753   5.575  0.3176  0.1174  0.0944
 9000SOL    HW128101   1.527   6.751   5.610 -0.3907 -0.0112 -1.5936
 9000SOL    HW228102   1.620   6.836   5.526  0.7706 -0.3452 -0.6747
 9001SOL     OW28103   2.970   5.559   0.655 -0.4045 -0.2028  0.4244
 9001SOL    HW128104   2.892   5.613   0.648 -0.2422  0.4213  2.5726
 9001SOL    HW228105   3.042   5.621   0.663  0.2918 -0.7730 -1.0429
 9002SOL     OW28106   1.976   3.859   0.071 -0.3404  0.3919  0.6280
 9002SOL    HW128107   1.894   3.902   0.048 -0.1599 -0.1872 -1.3076
 9002SOL    HW228108   1.950   3.776   0.111 -0.7057  0.2453  0.0929
 9003SOL     OW28109   0.129   3.100   0.050  0.4527  0.4948 -0.4181
 9003SOL    HW128110   0.114   3.075   0.141 -0.3347 -0.1475 -0.7120
 9003SOL    HW228111   0.126   3.196   0.050  1.1214  0.5271  0.3323
 9004SOL     OW28112   2.993   7.489   0.974  0.3597  0.1544 -0.4395
 9004SOL    HW128113   2.986   7.432   0.896  0.2817  0.9873 -1.0522
 9004SOL    HW228114   3.040   7.566   0.943  0.1004  0.6089  0.2866
 9005SOL     OW28115   6.150   6.862   4.931 -0.3691 -0.4296 -0.2348
 9005SOL    HW128116   6.063   6.886   4.965 -0.4242 -1.7645  0.6611
 9005SOL    HW228117   6.186   6.803   4.997  0.7485 -0.8142 -1.1517
 9006SOL     OW28118   0.204   5.030   6.633  0.1261  0.2160  0.3996
 9006SOL    HW128119   0.178   5.118   6.605  0.6451  0.4858  0.7517
 9006SOL    HW228120   0.122   4.983   6.644 -0.1281 -0.1110 -2.2055
 9007SOL     OW28121   4.068   2.615   7.054  0.3315  0.1624  0.5286
 9007SOL    HW128122   4.056   2.699   7.009  0.2888 -0.6908 -1.1340
 9007SOL    HW228123   4.154   2.623   7.096  1.3707  0.2679 -1.4854
 9008SOL     OW28124   4.111   4.689   2.958 -0.2582  0.3991 -0.2306
 9008SOL    HW128125   4.203   4.664   2.965 -0.3964 -0.7014 -1.7903
 9008SOL    HW228126   4.105   4.774   3.002  1.3611  0.1830  0.4552
 9009SOL     OW28127   1.340   1.164   4.722 -0.4455  0.1098 -0.4628
 9009SOL    HW128128   1.287   1.085   4.727 -1.1918  0.5678 -0.8999
 9009SOL    HW228129   1.333   1.192   4.630 -1.1355  1.2896 -0.0835
 9010SOL     OW28130   4.371   3.126   1.432  0.1724 -0.6087  0.4784
 9010SOL    HW128131   4.410   3.071   1.364 -0.8867  1.1251 -1.6315
 9010SOL    HW228132   4.300   3.073   1.468  0.0210 -1.1296 -0.5492
 9011SOL     OW28133   6.543   9.115   4.632 -0.1183  0.7037 -0.7263
 9011SOL    HW128134   6.570   9.091   4.544  0.1693 -0.9620 -0.2160
 9011SOL    HW228135   6.463   9.065   4.647  0.8446 -0.5089  0.6117
 9012SOL     OW28136   1.968   1.486   3.707  0.4171 -0.7399 -0.2874
 9012SOL    HW128137   1.958   1.567   3.756  1.4534  1.3631 -3.2510
 9012SOL    HW228138   1.911   1.497   3.630  1.2300 -2.4374 -1.2067
 9013SOL     OW28139   5.937   0.410   8.798 -0.1007  0.6722  0.0599
 9013SOL    HW128140   5.971   0.327   8.830  1.2653  0.8714 -0.7845
 9013SOL    HW228141   5.848   0.390   8.768  0.4239 -0.6272 -0.7034
 9014SOL     OW28142   0.675   4.048   0.735 -0.4911  0.2351 -0.1000
 9014SOL    HW128143   0.709   4.025   0.649 -1.5518 -3.8521  0.3262
 9014SOL    HW228144   0.734   4.003   0.796 -0.6588  1.7682  1.2413
 9015SOL     OW28145   4.583   5.228   8.669  0.0344 -0.4575 -0.1538
 9015SOL    HW128146   4.668   5.232   8.627  0.1237 -1.8490 -0.1503
 9015SOL    HW228147   4.569   5.134   8.686 -0.6967 -0.0898  1.4594
 9016SOL     OW28148   3.179   6.605   3.625  0.6584 -0.4179  0.3098
 9016SOL    HW128149   3.157   6.597   3.718  1.7811  1.0854  0.7497
 9016SOL    HW228150   3.275   6.605   3.624  0.6672 -1.2157 -0.9527
 9017SOL     OW28151   7.459   5.010   2.828 -0.1531 -0.1637 -0.1819
 9017SOL    HW128152   7.500   4.927   2.806 -0.7766 -0.2088 -1.2378
 9017SOL    HW228153   7.524   5.077   2.807  0.7305 -0.3977  1.5966
 9018SOL     OW28154   0.669   6.397   5.067  0.4379 -0.0233 -0.3042
 9018SOL    HW128155   0.667   6.481   5.113 -1.2050 -1.0281  1.5376
 9018SOL    HW228156   0.739   6.348   5.110 -1.9468 -1.4629  2.2404
 9019SOL     OW28157   4.555   4.677   7.155 -0.1949 -0.0482 -0.8027
 9019SOL    HW128158   4.484   4.664   7.219 -1.0696  1.3555 -1.4404
 9019SOL    HW228159   4.611   4.744   7.194  1.3506 -1.7684  0.1032
 9020SOL     OW28160   2.396   6.819   2.290 -0.7446 -0.2148  0.1263
 9020SOL    HW128161   2.446   6.738   2.275 -1.3223 -0.5952  0.2582
 9020SOL    HW228162   2.312   6.804   2.247 -0.2971  0.9222 -1.2260
 9021SOL     OW28163   6.455   3.662   9.055 -0.2314  0.3675  0.1122
 9021SOL    HW128164   6.492   3.628   9.136 -1.6306 -0.1363  0.5512
 9021SOL    HW228165   6.488   3.752   9.050  0.1053  0.3071  1.0786
 9022SOL     OW28166   4.181   2.251   3.414  0.3948  0.1713 -0.0046
 9022SOL    HW128167   4.174   2.201   3.495  0.1711 -0.4921 -0.4221
 9022SOL    HW228168   4.201   2.185   3.347 -0.8552  0.5008 -0.7338
 9023SOL     OW28169   4.627   7.342   3.784  0.1600 -0.2606  0.2751
 9023SOL    HW128170   4.674   7.324   3.866 -1.4503 -1.0831  1.0720
 9023SOL    HW228171   4.567   7.413   3.807 -1.0658 -1.2221  0.1424
 9024SOL     OW28172   1.684   4.375   8.384 -0.0157  0.7878 -0.0908
 9024SOL    HW128173   1.591   4.395   8.390 -0.2034 -0.1663  0.5011
 9024SOL    HW228174   1.725   4.429   8.452 -0.3550  0.0904  0.6945
 9025SOL     OW28175   8.969   5.352   5.177  0.3614  0.0549 -0.2168
 9025SOL    HW128176   8.905   5.308   5.121 -0.6938 -0.8322  1.5919
 9025SOL    HW228177   8.998   5.284   5.239  2.5354  0.6305 -0.5189
 9026SOL     OW28178   7.579   5.172   1.951 -0.2223 -0.1902  0.0709
 9026SOL    HW128179   7.487   5.195   1.940 -0.3059  0.8508  2.3630
 9026SOL    HW228180   7.587   5.145   2.042  1.7761 -0.0190  0.0017
 9027SOL     OW28181   3.933   5.541   5.718 -0.3045 -0.0812  0.0049
 9027SOL    HW128182   3.946   5.455   5.758 -2.0059 -0.1969  0.4026
 9027SOL    HW228183   3.893   5.522   5.633 -0.2025  0.2960 -0.1307
 9028SOL     OW28184   7.207   4.747   4.262  0.2170  0.3312  0.0414
 9028SOL    HW128185   7.235   4.828   4.305  1.7883  0.2934 -0.8357
 9028SOL    HW228186   7.197   4.770   4.169 -1.0659 -0.0852  0.0460
 9029SOL     OW28187   7.220   6.328   0.248  0.3506  0.3581  0.3750
 9029SOL    HW128188   7.207   6.342   0.341 -1.5911 -0.8536  0.3318
 9029SOL    HW228189   7.295   6.269   0.242  0.0419 -0.1170  1.1952
 9030SOL     OW28190   6.669   2.444   8.363 -0.0318 -0.1757 -0.3509
 9030SOL    HW128191   6.734   2.513   8.377 -0.7458  0.5964 -0.6986
 9030SOL    HW228192   6.694   2.374   8.422  2.0142 -0.5453 -1.5843
 9031SOL     OW28193   3.350   8.307   2.143  0.6440 -0.3956 -0.2556
 9031SOL    HW128194   3.362   8.300   2.049 -0.7330 -3.2897 -0.3386
 9031SOL    HW228195   3.343   8.401   2.160  2.5248  0.2991 -2.7490
 9032SOL     OW28196   3.605   7.694   0.114  0.4523  0.0716 -0.3536
 9032SOL    HW128197   3.597   7.632   0.041 -1.5231 -0.6346  0.3972
 9032SOL    HW228198   3.615   7.779   0.071 -0.1388 -0.3859 -1.4564
 9033SOL     OW28199   2.520   1.420   6.278 -0.3009 -0.4294 -0.6890
 9033SOL    HW128200   2.542   1.438   6.370 -1.7964  1.1572 -0.5775
 9033SOL    HW228201   2.470   1.338   6.281  0.0737 -0.6449 -0.1525
 9034SOL     OW28202   2.891   6.230   5.816 -0.2420  0.1152 -0.3082
 9034SOL    HW128203   2.911   6.296   5.750  0.2914  0.2274 -0.0441
 9034SOL    HW228204   2.872   6.151   5.765 -0.4488  0.3597 -0.6116
 9035SOL     OW28205   0.617   7.532   7.893 -0.6112  0.1863 -0.1408
 9035SOL    HW128206   0.605   7.573   7.808  4.2783  1.1331 -0.6861
 9035SOL    HW228207   0.645   7.603   7.951  2.7622 -1.3212  0.3121
 9036SOL     OW28208   2.200   3.670   4.879  0.0880 -0.5337 -0.0464
 9036SOL    HW128209   2.147   3.599   4.842 -2.0646  0.6177  0.6406
 9036SOL    HW228210   2.218   3.728   4.805 -2.4897  0.7216  0.1832
 9037SOL     OW28211   7.339   4.463   5.875 -0.4819 -0.4052  0.0843
 9037SOL    HW128212   7.300   4.450   5.789  0.8757 -1.5396 -0.3961
 9037SOL    HW228213   7.363   4.556   5.877 -0.5732 -0.3582 -0.7210
 9038SOL     OW28214   8.321   8.243   7.032 -0.2275  0.2754 -0.0181
 9038SOL    HW128215   8.275   8.205   7.107  0.0914 -0.6840 -0.2911
 9038SOL    HW228216   8.384   8.176   7.006  0.2784  0.9552 -0.5993
 9039SOL     OW28217   0.626   2.112   5.505  0.2516  0.0097 -0.4951
 9039SOL    HW128218   0.656   2.021   5.512 -0.6788 -0.2513  0.2595
 9039SOL    HW228219   0.673   2.147   5.428  1.0054 -0.9418 -0.4887
 9040SOL     OW28220   8.678   7.991   0.396  0.2636  0.0153  0.1078
 9040SOL    HW128221   8.621   8.008   0.471 -0.5272 -1.3735 -0.1467
 9040SOL    HW228222   8.696   8.078   0.360 -2.7357  0.4608 -0.5528
 9041SOL     OW28223   1.408   3.351   2.790  0.2757 -0.7364 -0.1970
 9041SOL    HW128224   1.487   3.372   2.740  0.2963 -2.2974 -0.8785
 9041SOL    HW228225   1.412   3.256   2.802 -1.2632 -0.7807  0.1628
 9042SOL     OW28226   0.832   1.136   2.026 -0.3029  0.7639 -0.3005
 9042SOL    HW128227   0.884   1.055   2.029  1.8534  2.1050  0.4811
 9042SOL    HW228228   0.864   1.181   1.948 -3.1697 -0.0921 -2.1369
 9043SOL     OW28229   3.472   6.706   1.055  0.7268  0.5111  0.0102
 9043SOL    HW128230   3.462   6.611   1.058  1.0440  0.4957  1.6419
 9043SOL    HW228231   3.566   6.722   1.061  0.6168  0.9228  0.9327
 9044SOL     OW28232   6.420   3.921   7.403 -0.3653  0.0625  0.0085
 9044SOL    HW128233   6.505   3.933   7.445  0.7683  1.9616 -2.5546
 9044SOL    HW228234   6.364   3.987   7.443  0.6704  1.7822 -1.2279
 9045SOL     OW28235   6.702   3.814   5.343  0.4052 -0.2328 -0.4485
 9045SOL    HW128236   6.610   3.820   5.369  0.5111  0.6274 -0.2445
 9045SOL    HW228237   6.736   3.740   5.394 -0.8938 -2.6710 -2.8180
 9046SOL     OW28238   7.000   5.504   0.481 -0.1770  0.7691 -0.3693
 9046SOL    HW128239   6.956   5.440   0.536 -2.0335  1.7315 -0.6406
 9046SOL    HW228240   7.093   5.485   0.491 -0.5721 -0.5117  1.2950
 9047SOL     OW28241   0.298   4.275   4.579 -0.0687  0.7072  0.1924
 9047SOL    HW128242   0.371   4.252   4.636  0.3982 -1.8532 -1.2693
 9047SOL    HW228243   0.339   4.299   4.496 -0.8272  1.2006 -0.0507
 9048SOL     OW28244   3.777   0.384   8.234  0.3086  0.2927 -0.5977
 9048SOL    HW128245   3.813   0.353   8.151 -1.1766 -0.3680 -1.0375
 9048SOL    HW228246   3.815   0.327   8.301 -0.0002 -0.4763 -1.0618
 9049SOL     OW28247   0.563   0.211   1.292  0.4400 -0.2535  0.1366
 9049SOL    HW128248   0.602   0.206   1.380  1.4784 -0.6090 -0.3238
 9049SOL    HW228249   0.628   0.170   1.235 -0.2210 -0.0211 -0.8072
 9050SOL     OW28250   1.925   1.932   3.365 -0.2396 -0.1222 -0.3210
 9050SOL    HW128251   1.974   1.907   3.287  0.4657 -0.5701  0.2488
 9050SOL    HW228252   1.918   2.027   3.360  0.7363 -0.0480 -0.3960
 9051SOL     OW28253   5.099   6.748   5.385 -0.3709 -0.5203 -0.4644
 9051SOL    HW128254   5.184   6.758   5.341 -0.2230  1.8939  0.2086
 9051SOL    HW228255   5.037   6.731   5.314  0.3840 -0.3058 -1.1919
 9052SOL     OW28256   1.977   5.869   1.318  0.5631 -0.1113  0.7626
 9052SOL    HW128257   2.018   5.955   1.325 -0.8709  0.6363  0.4137
 9052SOL    HW228258   1.896   5.885   1.269  0.2025 -1.6402  0.8099
 9053SOL     OW28259   2.746   2.885   8.550 -0.4541 -0.0867 -0.0501
 9053SOL    HW128260   2.780   2.862   8.464  0.8478 -0.4746  0.5389
 9053SOL    HW228261   2.742   2.981   8.550  1.3976  0.0302  0.0925
 9054SOL     OW28262   3.405   4.398   8.128 -0.1144 -0.1259 -0.1808
 9054SOL    HW128263   3.384   4.308   8.153 -0.8184 -0.5423 -2.0739
 9054SOL    HW228264   3.486   4.390   8.076 -0.5219  0.2288 -0.8832
 9055SOL     OW28265   3.542   1.927   0.321  0.1886  0.2386  0.0772
 9055SOL    HW128266   3.611   1.869   0.288 -0.2249  0.4431 -1.2076
 9055SOL    HW228267   3.539   1.999   0.258 -1.6821 -0.1467 -0.3605
 9056SOL     OW28268   4.987   6.921   8.387  0.0115  0.4201  0.2647
 9056SOL    HW128269   4.892   6.911   8.381 -0.0428  0.7223  0.5644
 9056SOL    HW228270   4.999   6.992   8.449  0.4502 -0.2534  0.9718
 9057SOL     OW28271   3.360   1.486   3.330 -0.5573 -0.2011 -0.0570
 9057SOL    HW128272   3.431   1.513   3.389 -1.1858  0.9481  0.1966
 9057SOL    HW228273   3.359   1.551   3.261 -0.0736 -1.3393 -1.1768
 9058SOL     OW28274   4.436   4.479   0.822  0.3805 -0.4298  0.0460
 9058SOL    HW128275   4.496   4.445   0.756 -0.2912 -1.3957 -0.0834
 9058SOL    HW228276   4.439   4.414   0.892 -0.0269 -0.1478  0.3272
 9059SOL     OW28277   3.812   3.378   4.310 -0.4081 -0.7417 -0.3099
 9059SOL    HW128278   3.720   3.368   4.332 -0.7046  2.4195  0.2673
 9059SOL    HW228279   3.826   3.472   4.304  2.9913 -1.0492  0.5486
 9060SOL     OW28280   6.894   1.277   5.984  0.2617 -0.0656 -0.0791
 9060SOL    HW128281   6.842   1.266   6.063 -0.2375 -0.4419 -0.4531
 9060SOL    HW228282   6.927   1.189   5.965 -1.9617 -0.5963 -1.8699
 9061SOL     OW28283   1.554   7.678   3.442  0.2806 -0.0058  0.0714
 9061SOL    HW128284   1.548   7.734   3.519  0.5772 -0.0517  0.1281
 9061SOL    HW228285   1.634   7.707   3.397  0.0973  0.0366 -0.2308
 9062SOL     OW28286   3.217   8.750   2.965  0.5256 -0.2842 -0.6121
 9062SOL    HW128287   3.232   8.729   2.873  1.6711 -0.1778 -0.4568
 9062SOL    HW228288   3.176   8.837   2.963 -2.3431 -1.5236 -1.1468
 9063SOL     OW28289   6.545   4.842   4.549 -0.0499  0.1309  0.0489
 9063SOL    HW128290   6.630   4.885   4.560 -0.7109  1.1577  1.4114
 9063SOL    HW228291   6.523   4.810   4.636 -1.0320 -0.2056 -0.3129
 9064SOL     OW28292   8.626   4.104   4.430  0.1895  0.0889  0.1135
 9064SOL    HW128293   8.682   4.140   4.362  1.4332  0.0434  1.0890
 9064SOL    HW228294   8.539   4.139   4.411  0.5238  0.1206 -1.4498
 9065SOL     OW28295   6.127   6.361   7.857  1.1355  0.2207  0.0516
 9065SOL    HW128296   6.154   6.269   7.868  2.6389  0.2994 -2.2405
 9065SOL    HW228297   6.190   6.396   7.794 -0.8856  2.1596 -1.0039
 9066SOL     OW28298   5.745   8.250   8.860  0.1577  0.6700 -0.1945
 9066SOL    HW128299   5.831   8.256   8.819  0.8197  0.6424  1.1696
 9066SOL    HW228300   5.684   8.246   8.786  1.1504  2.6898 -1.1947
 9067SOL     OW28301   4.613   0.833   8.807 -0.2038  0.4669 -0.2539
 9067SOL    HW128302   4.667   0.754   8.809 -0.2675  0.3660 -1.5941
 9067SOL    HW228303   4.529   0.806   8.844 -0.6070 -0.4305 -1.7153
 9068SOL     OW28304   7.269   3.242   1.274  0.3489 -0.5791 -0.2132
 9068SOL    HW128305   7.245   3.172   1.214 -0.2989 -0.6094  0.0816
 9068SOL    HW228306   7.319   3.303   1.220 -0.0534 -0.7084 -0.7340
 9069SOL     OW28307   8.593   2.354   7.171 -0.1077 -0.0224  0.0774
 9069SOL    HW128308   8.560   2.444   7.165  1.0363  0.3129 -3.4538
 9069SOL    HW228309   8.536   2.303   7.114 -1.4047 -1.9121  2.8435
 9070SOL     OW28310   8.236   1.188   1.258  0.5205  0.1988 -0.3060
 9070SOL    HW128311   8.309   1.217   1.311  0.5776 -0.0192 -0.2657
 9070SOL    HW228312   8.271   1.116   1.205  0.2959 -0.0087 -0.1753
 9071SOL     OW28313   1.630   2.077   3.067  0.6244 -0.2466 -0.0361
 9071SOL    HW128314   1.725   2.078   3.065  0.6965  2.8590 -0.0848
 9071SOL    HW228315   1.606   2.139   3.135 -1.3646 -0.3860 -0.5265
 9072SOL     OW28316   4.760   2.547   8.687  0.4013 -0.0204 -0.7661
 9072SOL    HW128317   4.786   2.632   8.651 -0.0143  0.0198 -0.9843
 9072SOL    HW228318   4.785   2.484   8.619 -1.9106  0.2159 -1.9265
 9073SOL     OW28319   2.800   7.565   0.696 -0.1956 -0.0606  0.7389
 9073SOL    HW128320   2.787   7.565   0.601 -0.5856  3.2065  0.6917
 9073SOL    HW228321   2.737   7.501   0.729 -2.1694  0.8765 -1.0303
 9074SOL     OW28322   4.834   3.126   8.529 -0.0963  0.5453  0.2984
 9074SOL    HW128323   4.908   3.178   8.562 -0.1240 -0.0378  1.3315
 9074SOL    HW228324   4.757   3.165   8.570 -0.0972 -0.4131  1.2490
 9075SOL     OW28325   4.830   7.071   5.360 -0.3265 -0.0822  0.0930
 9075SOL    HW128326   4.816   7.079   5.454  1.8262 -0.7128  0.5250
 9075SOL    HW228327   4.917   7.110   5.345 -0.1892 -0.9049 -1.4575
 9076SOL     OW28328   5.147   5.783   3.799  0.0171 -0.1935 -0.0156
 9076SOL    HW128329   5.091   5.825   3.733 -1.0988  0.7260  1.4288
 9076SOL    HW228330   5.176   5.702   3.758 -0.1569  0.6009 -1.8367
 9077SOL     OW28331   4.945   5.832   0.898  0.4891  0.5147  0.1982
 9077SOL    HW128332   4.905   5.774   0.832 -0.8887  0.8881  0.6822
 9077SOL    HW228333   5.039   5.820   0.885  0.2743  0.5692 -1.8487
 9078SOL     OW28334   7.279   4.764   6.369 -0.0933 -0.0744  0.4131
 9078SOL    HW128335   7.306   4.679   6.334  1.4845  1.3561 -2.1721
 9078SOL    HW228336   7.190   4.777   6.337 -0.1546 -0.5333  0.4009
 9079SOL     OW28337   5.645   4.811   2.831  0.1460  0.3850 -0.4383
 9079SOL    HW128338   5.722   4.784   2.782  0.9692  0.2905  0.8518
 9079SOL    HW228339   5.660   4.904   2.850 -1.2348  1.0498 -2.2388
 9080SOL     OW28340   5.091   5.509   1.503 -0.4087 -0.2469 -0.2946
 9080SOL    HW128341   5.043   5.428   1.518  0.2151 -0.3636  1.2605
 9080SOL    HW228342   5.074   5.531   1.411 -3.3060 -0.3132  0.1521
 9081SOL     OW28343   8.456   7.833   8.688 -0.9192 -0.1339  0.7641
 9081SOL    HW128344   8.367   7.863   8.669 -0.4647  2.7849  2.6132
 9081SOL    HW228345   8.449   7.791   8.773 -0.6121 -0.4350  0.6415
 9082SOL     OW28346   5.130   5.860   5.611  0.1225  0.1718  0.1406
 9082SOL    HW128347   5.168   5.792   5.666  1.0849 -0.2119 -0.9519
 9082SOL    HW228348   5.153   5.942   5.655 -1.3537 -0.1755  1.6610
 9083SOL     OW28349   6.298   8.389   7.671  0.2495  0.2989  0.0988
 9083SOL    HW128350   6.302   8.294   7.680  0.9975  0.0838 -1.9559
 9083SOL    HW228351   6.383   8.413   7.633 -0.7141  1.4867 -1.4505
 9084SOL     OW28352   3.377   4.561   4.902  0.1876 -0.3974  0.4543
 9084SOL    HW128353   3.346   4.552   4.812  0.7394 -1.8765  0.3840
 9084SOL    HW228354   3.316   4.509   4.954  0.1254  0.0954  0.8838
 9085SOL     OW28355   2.688   7.810   8.638 -0.2526  0.3183  0.0640
 9085SOL    HW128356   2.640   7.858   8.571 -0.5213  1.8174  1.2666
 9085SOL    HW228357   2.635   7.732   8.654 -0.7689  0.5039 -0.6704
 9086SOL     OW28358   7.028   7.354   5.220  0.4640  0.2939  0.0889
 9086SOL    HW128359   7.121   7.343   5.200  0.4578  0.6268 -0.1328
 9086SOL    HW228360   7.015   7.308   5.303  0.5763 -0.7580 -0.4702
 9087SOL     OW28361   6.192   1.326   1.695 -0.3515 -0.2021  0.4921
 9087SOL    HW128362   6.177   1.324   1.789 -0.2829 -0.0606  0.5046
 9087SOL    HW228363   6.253   1.254   1.679  0.0447  0.1044  0.6233
 9088SOL     OW28364   2.448   7.751   3.232  0.7979 -0.2381  0.2869
 9088SOL    HW128365   2.514   7.746   3.302 -0.5480 -2.8993  1.5075
 9088SOL    HW228366   2.383   7.812   3.266  2.0405  1.6227 -0.4930
 9089SOL     OW28367   1.440   8.193   1.685  0.5103  0.1694 -0.0891
 9089SOL    HW128368   1.529   8.194   1.720  1.0361  2.0323 -1.3563
 9089SOL    HW228369   1.441   8.255   1.613 -2.0412  0.9335  0.4096
 9090SOL     OW28370   4.413   8.357   1.902  0.8271  0.2536  0.1340
 9090SOL    HW128371   4.410   8.340   1.808  1.8458 -1.7769  0.4159
 9090SOL    HW228372   4.490   8.413   1.913  0.9516  0.1514 -0.1932
 9091SOL     OW28373   0.254   5.093   1.435 -0.4775 -0.0119  0.1766
 9091SOL    HW128374   0.325   5.106   1.373  0.7235 -1.4034  1.2282
 9091SOL    HW228375   0.245   5.178   1.478 -0.7454  0.7161 -1.2455
 9092SOL     OW28376   3.814   4.620   2.173  0.1440  0.0930 -0.0409
 9092SOL    HW128377   3.858   4.640   2.255 -0.1959 -2.1437  0.7451
 9092SOL    HW228378   3.871   4.556   2.130  0.2105  1.0696 -1.4758
 9093SOL     OW28379   3.970   6.525   3.038 -0.1492 -0.5182 -0.1002
 9093SOL    HW128380   3.914   6.466   2.988 -0.0607 -1.9365  1.3983
 9093SOL    HW228381   4.048   6.473   3.058  0.3794  0.4407  0.4048
 9094SOL     OW28382   6.974   3.631   5.822 -0.4886 -0.5218 -0.3323
 9094SOL    HW128383   6.977   3.552   5.770  1.8245  1.6472 -3.9421
 9094SOL    HW228384   7.062   3.638   5.860 -0.4397  0.5601 -0.5994
 9095SOL     OW28385   6.751   8.280   5.927 -0.0451 -0.1208 -0.0533
 9095SOL    HW128386   6.724   8.296   5.836 -3.0569 -2.7947  0.2043
 9095SOL    HW228387   6.758   8.185   5.934 -2.5421 -0.2281  3.0812
 9096SOL     OW28388   3.177   9.070   3.250 -0.0673  0.2538 -0.0680
 9096SOL    HW128389   3.240   9.111   3.310 -1.2798  0.8022  0.8808
 9096SOL    HW228390   3.220   9.070   3.165  0.7631  1.6564  0.3293
 9097SOL     OW28391   0.978   4.247   4.943  0.5105 -0.0545  0.3386
 9097SOL    HW128392   1.013   4.257   4.855 -2.5621  2.8220 -0.7690
 9097SOL    HW228393   1.015   4.320   4.992 -0.8656  0.7806  0.1970
 9098SOL     OW28394   7.926   7.051   5.423 -0.4909  0.2647  0.1586
 9098SOL    HW128395   7.870   7.027   5.497 -0.1018 -3.8843 -0.6378
 9098SOL    HW228396   8.015   7.033   5.453  0.1300  2.7010 -0.0064
 9099SOL     OW28397   4.883   4.579   5.059  0.0903  0.1956  0.3612
 9099SOL    HW128398   4.909   4.660   5.013 -0.2681 -0.4774 -1.1060
 9099SOL    HW228399   4.799   4.555   5.019  1.2194 -2.0683 -0.8514
 9100SOL     OW28400   2.958   3.999   1.991 -0.0521 -0.6729  0.1072
 9100SOL    HW128401   2.867   4.028   1.996 -0.9838 -2.9119 -2.0039
 9100SOL    HW228402   3.004   4.056   2.052 -2.8666  0.4736  1.3547
 9101SOL     OW28403   0.787   6.516   7.593  0.0853  0.2841  0.5417
 9101SOL    HW128404   0.818   6.566   7.669  0.1453  0.2034  0.5702
 9101SOL    HW228405   0.816   6.427   7.610 -0.6192  0.1098  0.8196
 9102SOL     OW28406   5.807   3.454   2.819  0.1712 -0.0710  0.0093
 9102SOL    HW128407   5.770   3.518   2.878 -0.2921 -0.1691 -0.1736
 9102SOL    HW228408   5.739   3.388   2.808  0.3281 -0.1637 -0.4644
 9103SOL     OW28409   8.035   5.514   7.145 -0.3165  0.1760 -0.1472
 9103SOL    HW128410   8.083   5.565   7.209  0.4296 -0.6771  0.0009
 9103SOL    HW228411   7.946   5.510   7.178 -0.9101  3.0024 -1.1455
 9104SOL     OW28412   4.657   4.934   5.006  0.1107 -0.2750  0.2271
 9104SOL    HW128413   4.631   4.872   5.074 -0.3090 -0.0656  0.2581
 9104SOL    HW228414   4.579   4.986   4.989  0.4568  0.2429  0.1974
 9105SOL     OW28415   3.312   1.476   0.665 -0.0694 -0.4684  0.1223
 9105SOL    HW128416   3.294   1.515   0.580 -0.8265 -2.6960 -0.8126
 9105SOL    HW228417   3.235   1.423   0.684  1.3592 -2.4412  0.7227
 9106SOL     OW28418   8.192   2.391   2.951  0.3389 -0.0819 -0.3193
 9106SOL    HW128419   8.149   2.385   3.037  0.1258  2.0797 -0.2274
 9106SOL    HW228420   8.122   2.417   2.891  1.0133  1.1355 -0.6133
 9107SOL     OW28421   5.088   6.500   8.650  0.1066  0.1126 -0.8836
 9107SOL    HW128422   5.169   6.448   8.652 -1.3828 -2.3519  0.1421
 9107SOL    HW228423   5.030   6.451   8.592 -1.2428  0.8761 -0.2148
 9108SOL     OW28424   2.665   6.961   5.860  0.2380 -0.4437 -0.2054
 9108SOL    HW128425   2.742   6.992   5.907 -0.6535  2.3001 -0.3658
 9108SOL    HW228426   2.689   6.875   5.827  3.4521  0.5410 -0.7327
 9109SOL     OW28427   8.471   6.899   3.243 -0.3268 -0.1011  0.3362
 9109SOL    HW128428   8.536   6.922   3.309 -0.3637  1.8703 -0.2467
 9109SOL    HW228429   8.516   6.911   3.159 -0.8925 -0.5270 -0.0335
 9110SOL     OW28430   6.073   3.052   7.655 -0.3596 -0.1535  0.1642
 9110SOL    HW128431   6.137   3.093   7.714 -0.0505 -2.1348  1.2836
 9110SOL    HW228432   6.047   2.972   7.700 -0.5259 -1.4756 -2.1594
 9111SOL     OW28433   2.748   6.624   4.465 -0.2716 -0.3229 -0.1661
 9111SOL    HW128434   2.659   6.641   4.495  0.0511  0.6667  0.2694
 9111SOL    HW228435   2.749   6.654   4.374 -0.0041  1.0377  0.2682
 9112SOL     OW28436   7.027   6.131   8.218 -0.9195 -0.2710  0.1946
 9112SOL    HW128437   7.034   6.044   8.178 -0.8803 -0.0756 -0.2281
 9112SOL    HW228438   7.069   6.122   8.303 -0.4603 -0.5369 -0.0579
 9113SOL     OW28439   0.817   0.102   4.870 -0.2070  0.0882  0.0677
 9113SOL    HW128440   0.910   0.081   4.879 -0.4075 -0.8526 -0.0297
 9113SOL    HW228441   0.772   0.029   4.911 -0.9016  0.8363  0.6721
 9114SOL     OW28442   1.686   5.259   7.156  0.0717  0.0146  0.3908
 9114SOL    HW128443   1.612   5.300   7.111  0.1021 -0.0358  0.2957
 9114SOL    HW228444   1.650   5.176   7.189 -0.3247  0.6374  1.6003
 9115SOL     OW28445   8.083   9.043   5.114 -0.2132 -0.1568  0.9192
 9115SOL    HW128446   8.114   9.015   5.028 -2.0296  0.7167 -0.0909
 9115SOL    HW228447   8.119   8.979   5.175 -0.7668 -2.1719 -0.7683
 9116SOL     OW28448   0.398   7.272   6.862 -0.1288  0.1951  0.4397
 9116SOL    HW128449   0.425   7.219   6.937  0.2239  0.3465  0.4257
 9116SOL    HW228450   0.443   7.356   6.876  0.7390 -0.0987 -0.4448
 9117SOL     OW28451   8.240   6.098   3.388 -0.0872 -0.1993 -0.4888
 9117SOL    HW128452   8.193   6.114   3.470 -2.2592  1.7247 -1.9945
 9117SOL    HW228453   8.333   6.104   3.413 -0.6258 -0.9228  2.0174
 9118SOL     OW28454   5.010   7.404   4.982 -0.0966 -0.1054  0.5084
 9118SOL    HW128455   5.098   7.442   4.977 -0.2831  0.4992  1.5743
 9118SOL    HW228456   4.968   7.430   4.900  0.6183 -0.1503  0.1210
 9119SOL     OW28457   3.787   2.333   8.464  0.2867  0.0286 -0.3152
 9119SOL    HW128458   3.771   2.427   8.472 -0.7751  0.0462 -2.1009
 9119SOL    HW228459   3.712   2.292   8.507  0.0620  0.0179 -0.7144
 9120SOL     OW28460   8.701   7.844   5.392  0.1870  0.1134 -0.1063
 9120SOL    HW128461   8.791   7.825   5.417  0.3009 -1.1447 -1.3225
 9120SOL    HW228462   8.703   7.850   5.296 -1.1775 -0.9628 -0.2367
 9121SOL     OW28463   2.564   1.023   1.107 -0.4055  0.0919  0.8476
 9121SOL    HW128464   2.602   1.078   1.176 -0.9770  1.0587  0.4132
 9121SOL    HW228465   2.587   0.934   1.133  0.7335  0.5346  1.4579
 9122SOL     OW28466   6.845   8.283   1.634  0.3227 -0.0197 -0.3369
 9122SOL    HW128467   6.802   8.284   1.548 -0.8756  1.2479  0.2343
 9122SOL    HW228468   6.777   8.313   1.695  1.7598  1.1952  0.7386
 9123SOL     OW28469   7.709   4.143   5.527  0.5331  0.3366  0.2794
 9123SOL    HW128470   7.622   4.143   5.567  0.0230 -0.8613 -0.7571
 9123SOL    HW228471   7.735   4.051   5.525  0.7342  0.3788 -1.6535
 9124SOL     OW28472   8.430   6.031   1.551 -0.4800 -0.3549  0.1301
 9124SOL    HW128473   8.417   6.012   1.644 -1.9427 -1.0065 -0.1883
 9124SOL    HW228474   8.361   6.093   1.528  0.2529  0.2985 -0.3971
 9125SOL     OW28475   2.569   6.932   6.205 -0.1446  0.2934  0.4832
 9125SOL    HW128476   2.598   6.875   6.134  1.4573  0.6966  0.7748
 9125SOL    HW228477   2.638   6.925   6.271 -1.0045  0.8702  1.4862
 9126SOL     OW28478   3.078   1.575   0.298  0.5094  0.7044  0.5486
 9126SOL    HW128479   3.159   1.531   0.274  0.1024  0.0519  0.3382
 9126SOL    HW228480   3.009   1.513   0.276 -0.1195  1.6125 -0.1694
 9127SOL     OW28481   0.066   7.442   5.227 -0.3234  0.5154 -0.0096
 9127SOL    HW128482   0.105   7.526   5.202 -0.9537  1.0549  0.7528
 9127SOL    HW228483   0.076   7.387   5.149 -0.8420  1.6373 -0.8994
 9128SOL     OW28484   4.818   1.949   0.682 -0.9451 -0.0086 -0.1338
 9128SOL    HW128485   4.893   1.899   0.654 -1.4108 -0.8921  0.1641
 9128SOL    HW228486   4.825   2.032   0.635 -0.5677 -0.6321 -1.1934
 9129SOL     OW28487   1.383   5.637   4.416 -0.4441  0.4984  0.0379
 9129SOL    HW128488   1.331   5.691   4.476 -0.1821  0.8680 -0.0608
 9129SOL    HW228489   1.319   5.597   4.358 -0.6654  0.4763  0.2954
 9130SOL     OW28490   1.016   2.502   0.778 -0.5411 -0.3496 -0.1892
 9130SOL    HW128491   1.009   2.408   0.761  1.8367 -0.5726 -0.1663
 9130SOL    HW228492   0.961   2.517   0.855  0.4092 -2.0671  0.8775
 9131SOL     OW28493   1.724   5.910   3.157 -0.0449  0.0312  0.5108
 9131SOL    HW128494   1.758   5.881   3.072  0.7624  0.8211  0.5467
 9131SOL    HW228495   1.802   5.926   3.210 -0.5390 -0.3614  1.3782
 9132SOL     OW28496   7.645   6.163   6.061  0.5030  0.4880  0.3430
 9132SOL    HW128497   7.647   6.177   6.156 -2.0400 -1.0309  0.7497
 9132SOL    HW228498   7.621   6.248   6.024 -0.1633  0.7087  1.2514
 9133SOL     OW28499   2.740   0.352   4.993 -0.6390  0.2702  0.5717
 9133SOL    HW128500   2.816   0.294   4.988 -0.1696  0.9661 -2.1969
 9133SOL    HW228501   2.771   0.435   4.957 -2.9352  0.2096 -1.8568
 9134SOL     OW28502   0.959   6.942   4.772  0.2212 -0.0612  0.1996
 9134SOL    HW128503   0.876   6.901   4.794  0.5106  0.3875  2.4121
 9134SOL    HW228504   1.023   6.871   4.772 -0.0130 -0.2787 -0.6546
 9135SOL     OW28505   8.155   4.389   0.206 -0.2973  0.2432  0.3899
 9135SOL    HW128506   8.210   4.368   0.130  1.6682  1.0659  1.5318
 9135SOL    HW228507   8.091   4.451   0.171  1.2618  1.4723 -0.3984
 9136SOL     OW28508   7.150   3.355   2.518 -0.6022 -0.1562  0.3323
 9136SOL    HW128509   7.175   3.264   2.528 -0.2880  0.1408  2.8632
 9136SOL    HW228510   7.229   3.404   2.541 -1.4669  0.7443  1.4924
 9137SOL     OW28511   1.194   1.229   1.950 -0.0874  0.1564  0.0028
 9137SOL    HW128512   1.121   1.292   1.945 -0.2320 -0.0426 -0.4329
 9137SOL    HW228513   1.254   1.256   1.880  0.0484  0.0555  0.0795
 9138SOL     OW28514   7.084   5.063   6.257 -0.2106 -0.6058 -0.1188
 9138SOL    HW128515   7.073   5.035   6.348 -0.2211 -0.5830 -0.1128
 9138SOL    HW228516   7.059   5.156   6.257  1.4763 -0.1210  0.2137
 9139SOL     OW28517   7.409   7.354   6.126 -0.0437  0.1305 -0.0782
 9139SOL    HW128518   7.455   7.327   6.046  0.7502 -1.6914  0.9198
 9139SOL    HW228519   7.467   7.419   6.166  0.7697 -0.7622  0.2212
 9140SOL     OW28520   2.174   5.206   8.800 -0.3167 -0.2060  0.1520
 9140SOL    HW128521   2.210   5.266   8.734  0.0240 -0.2876  0.2608
 9140SOL    HW228522   2.083   5.233   8.810 -0.3700 -0.1941 -0.3535
 9141SOL     OW28523   1.995   1.724   3.949 -0.1659  0.5119 -0.2343
 9141SOL    HW128524   2.049   1.803   3.952 -1.3227  1.3162  0.0350
 9141SOL    HW228525   1.914   1.753   3.907 -0.9352 -0.3269  0.6403
 9142SOL     OW28526   4.785   4.322   3.129  0.1814 -0.4724  0.8623
 9142SOL    HW128527   4.848   4.302   3.198  0.7048 -0.7232  0.3214
 9142SOL    HW228528   4.800   4.414   3.108 -1.6225  0.3142  2.7355
 9143SOL     OW28529   2.856   7.374   2.746  0.1678  0.2463 -0.6249
 9143SOL    HW128530   2.771   7.355   2.786 -0.0423 -1.3812 -1.7514
 9143SOL    HW228531   2.865   7.469   2.753 -1.3854  0.3671  0.2064
 9144SOL     OW28532   8.574   3.834   1.546 -0.3003 -0.2928 -0.8309
 9144SOL    HW128533   8.501   3.836   1.609 -1.4397 -2.7498 -1.9047
 9144SOL    HW228534   8.533   3.856   1.462  1.0036  1.9791 -0.9390
 9145SOL     OW28535   1.571   6.437   7.819  0.6094  0.4590 -0.2124
 9145SOL    HW128536   1.593   6.520   7.860  1.5915  0.9629 -1.6481
 9145SOL    HW228537   1.523   6.388   7.886  0.4867  1.9567  0.8389
 9146SOL     OW28538   5.563   5.125   1.291  0.1621 -0.0981 -0.3320
 9146SOL    HW128539   5.531   5.162   1.209  1.7574  2.3398  0.0281
 9146SOL    HW228540   5.630   5.062   1.265 -0.6688 -0.7529 -0.9217
 9147SOL     OW28541   6.541   7.121   8.216  0.2955  0.4771 -0.2348
 9147SOL    HW128542   6.447   7.135   8.231  0.2075  0.7478 -0.9953
 9147SOL    HW228543   6.566   7.056   8.282 -0.4456  0.3374 -0.0779
 9148SOL     OW28544   6.984   0.451   4.701  0.3893  0.2742 -0.0379
 9148SOL    HW128545   6.895   0.468   4.734 -0.1611  0.1839 -1.4180
 9148SOL    HW228546   6.999   0.359   4.720  0.3921  0.4014  0.6244
 9149SOL     OW28547   3.467   5.166   0.113  0.0719  0.3658 -0.3668
 9149SOL    HW128548   3.402   5.120   0.060  0.5873 -0.4388 -0.3135
 9149SOL    HW228549   3.551   5.148   0.071  0.2925  1.2600 -0.3371
 9150SOL     OW28550   0.043   6.320   6.574  0.1626  0.9716  0.3485
 9150SOL    HW128551   0.125   6.369   6.579  0.2439  0.7976  0.6804
 9150SOL    HW228552   0.041   6.266   6.653  1.2292 -1.4140 -1.1467
 9151SOL     OW28553   2.305   4.820   2.367 -0.1006 -0.1865  0.6937
 9151SOL    HW128554   2.280   4.804   2.458 -1.0504 -1.8963  0.1743
 9151SOL    HW228555   2.359   4.745   2.343  1.1604  0.8472  0.1789
 9152SOL     OW28556   1.717   4.460   6.555 -0.5639 -0.0209 -0.0005
 9152SOL    HW128557   1.632   4.502   6.570 -0.4837 -0.0270  0.4688
 9152SOL    HW228558   1.735   4.413   6.636 -0.3317 -0.4080 -0.2729
 9153SOL     OW28559   8.935   6.252   2.429 -0.0553  0.7942 -0.2302
 9153SOL    HW128560   8.999   6.233   2.361  1.4258 -0.6915  1.4622
 9153SOL    HW228561   8.979   6.315   2.486 -0.3845  0.3463  0.5353
 9154SOL     OW28562   5.872   1.076   6.655  0.0017  0.1166  0.2461
 9154SOL    HW128563   5.924   1.086   6.575 -2.1714  1.1936 -1.1020
 9154SOL    HW228564   5.864   1.165   6.690  0.9727 -0.3486  1.7408
 9155SOL     OW28565   7.799   4.085   2.643 -0.0860 -0.4673  0.1331
 9155SOL    HW128566   7.802   4.001   2.689  1.3214 -0.3702  0.2447
 9155SOL    HW228567   7.827   4.149   2.708  0.0159 -0.0653 -0.3028
 9156SOL     OW28568   1.247   4.853   4.540  0.1268 -0.3891 -0.2900
 9156SOL    HW128569   1.219   4.762   4.542 -0.9483 -0.0744 -0.0413
 9156SOL    HW228570   1.332   4.852   4.497  0.0802 -1.4944 -0.3670
 9157SOL     OW28571   8.954   7.138   0.906  0.0939  0.0151  0.4225
 9157SOL    HW128572   8.879   7.105   0.956 -0.8742 -0.1997 -1.0981
 9157SOL    HW228573   8.940   7.233   0.902 -2.1510 -0.2932 -2.8348
 9158SOL     OW28574   2.093   6.717   8.638  0.0435  0.2188 -0.1154
 9158SOL    HW128575   2.067   6.799   8.596  0.8569  0.3845 -0.3094
 9158SOL    HW228576   2.017   6.660   8.628 -0.0876  0.5450 -1.0561
 9159SOL     OW28577   6.843   4.602   8.354  0.0531 -0.5040  0.2144
 9159SOL    HW128578   6.935   4.580   8.339  0.1420 -0.3947  0.5877
 9159SOL    HW228579   6.846   4.674   8.417 -0.2834 -0.3995  0.1107
 9160SOL     OW28580   5.282   0.100   6.723  0.4193 -0.1182  0.0014
 9160SOL    HW128581   5.248   0.066   6.806  1.2202 -0.4733  0.1910
 9160SOL    HW228582   5.369   0.133   6.744  0.8144 -0.6259 -0.7784
 9161SOL     OW28583   0.801   6.093   8.075 -0.2981 -0.1219 -0.2794
 9161SOL    HW128584   0.890   6.081   8.042  0.4294  0.0046  1.5032
 9161SOL    HW228585   0.810   6.159   8.143 -1.6348 -0.6007  0.3969
 9162SOL     OW28586   1.251   7.533   2.047 -0.1034 -0.0343 -0.0272
 9162SOL    HW128587   1.167   7.574   2.069 -0.3020 -0.4923  0.0876
 9162SOL    HW228588   1.246   7.446   2.087 -0.9319 -1.3459 -2.7110
 9163SOL     OW28589   7.821   5.688   0.941 -0.1030 -0.1718 -0.0831
 9163SOL    HW128590   7.912   5.696   0.969 -0.0281 -0.9457 -0.0833
 9163SOL    HW228591   7.783   5.622   0.999 -0.4334 -0.4710 -0.6272
 9164SOL     OW28592   6.930   6.381   1.162 -0.5070 -0.2025 -0.3650
 9164SOL    HW128593   6.866   6.314   1.187  0.5068 -1.1861 -0.3530
 9164SOL    HW228594   6.917   6.451   1.226 -2.2111  0.0564 -0.9350
 9165SOL     OW28595   0.833   6.493   1.737 -0.3532  0.2118 -0.2889
 9165SOL    HW128596   0.857   6.579   1.701 -1.1313  0.4089 -0.3412
 9165SOL    HW228597   0.739   6.498   1.751 -0.4418 -0.7180 -0.4964
 9166SOL     OW28598   4.760   1.691   3.220 -0.1873 -0.0653 -0.0691
 9166SOL    HW128599   4.785   1.758   3.284 -0.6404  0.7548 -0.7308
 9166SOL    HW228600   4.668   1.710   3.200 -0.3247 -0.9037 -0.2469
 9167SOL     OW28601   6.894   8.267   2.411  0.1840  0.2043  0.3503
 9167SOL    HW128602   6.927   8.340   2.463 -0.0943 -1.4130  3.0129
 9167SOL    HW228603   6.798   8.273   2.420  0.0522  0.5798 -1.0581
 9168SOL     OW28604   8.582   4.751   6.490 -0.2858 -0.0044  0.0671
 9168SOL    HW128605   8.558   4.804   6.566  0.9126  0.8642 -0.1292
 9168SOL    HW228606   8.642   4.685   6.525 -1.1588 -0.7503  0.1759
 9169SOL     OW28607   7.208   3.814   4.034 -0.2895  0.0845  0.9247
 9169SOL    HW128608   7.208   3.725   4.071 -0.3339 -0.3033  0.0160
 9169SOL    HW228609   7.187   3.871   4.108  0.8040 -0.5574  1.7540
 9170SOL     OW28610   0.968   4.882   4.445 -0.4773  0.4444 -0.6549
 9170SOL    HW128611   1.060   4.890   4.471 -0.4608 -1.1814 -0.0883
 9170SOL    HW228612   0.969   4.885   4.350  0.2602 -0.1952 -0.6803
 9171SOL     OW28613   3.175   7.013   4.289  0.1462  0.1302 -0.0709
 9171SOL    HW128614   3.241   6.968   4.237 -0.6739 -0.3664 -0.7024
 9171SOL    HW228615   3.225   7.061   4.355  1.1899  0.5004 -1.0905
 9172SOL     OW28616   7.818   6.399   6.332 -0.3725  0.0572 -0.7281
 9172SOL    HW128617   7.828   6.305   6.320 -2.6542 -0.2742 -0.4120
 9172SOL    HW228618   7.885   6.422   6.397  0.3389 -1.2817 -0.9509
 9173SOL     OW28619   6.542   1.933   7.144  0.4236  0.0537  0.0470
 9173SOL    HW128620   6.563   1.933   7.050 -1.0085  1.3663 -0.3138
 9173SOL    HW228621   6.623   1.962   7.186  1.3639 -1.3805 -0.6768
 9174SOL     OW28622   0.668   4.128   3.198 -0.6634 -0.1753 -0.1919
 9174SOL    HW128623   0.581   4.146   3.234 -0.6709 -0.3173 -0.1383
 9174SOL    HW228624   0.708   4.067   3.260  0.7961  2.4250  1.6199
 9175SOL     OW28625   6.062   6.765   7.180 -0.3328  0.4576 -0.1812
 9175SOL    HW128626   6.067   6.712   7.101 -0.9137  0.8430 -0.4862
 9175SOL    HW228627   5.968   6.772   7.198 -0.2848  1.5277 -0.2562
 9176SOL     OW28628   8.505   5.205   9.037 -0.4906 -0.1294  0.1999
 9176SOL    HW128629   8.495   5.300   9.047 -0.9307 -0.1535  0.0283
 9176SOL    HW228630   8.473   5.169   9.120  3.1444  0.0162  1.8719
 9177SOL     OW28631   6.963   8.994   6.400 -0.0740 -0.1996  0.1404
 9177SOL    HW128632   7.023   8.939   6.350  2.0365  1.8003  0.2985
 9177SOL    HW228633   6.913   9.042   6.334  0.3305 -0.0197 -0.0406
 9178SOL     OW28634   6.655   6.980   2.333 -0.5284  0.6153  0.2971
 9178SOL    HW128635   6.597   7.054   2.351 -1.2604  0.3675 -0.9080
 9178SOL    HW228636   6.659   6.976   2.237 -0.5791 -0.9596  0.3389
 9179SOL     OW28637   5.589   3.699   6.922 -0.5296 -0.2324 -0.0696
 9179SOL    HW128638   5.529   3.761   6.965 -2.1012 -1.5291 -0.2821
 9179SOL    HW228639   5.561   3.700   6.830  0.9025  0.3700 -0.5247
 9180SOL     OW28640   7.514   5.444   2.249 -0.4345  0.0471 -0.0861
 9180SOL    HW128641   7.550   5.391   2.320 -2.3390 -0.9950  0.1729
 9180SOL    HW228642   7.584   5.505   2.226  0.1837  0.5464  2.7937
 9181SOL     OW28643   4.536   7.255   2.997  0.3122  0.0080  0.3553
 9181SOL    HW128644   4.467   7.268   3.062 -0.9227 -0.0367 -0.9002
 9181SOL    HW228645   4.499   7.191   2.935 -0.0257  2.5964 -2.3348
 9182SOL     OW28646   5.758   7.325   3.578  0.1202  0.2661 -0.1597
 9182SOL    HW128647   5.833   7.308   3.521  0.0601  1.9237 -0.7782
 9182SOL    HW228648   5.794   7.320   3.666  1.0557  1.3613 -0.4539
 9183SOL     OW28649   5.190   0.445   3.489  0.7410 -0.4507 -0.3229
 9183SOL    HW128650   5.243   0.387   3.434  0.0748 -2.6194  1.2129
 9183SOL    HW228651   5.114   0.467   3.434  1.8564  0.5114 -1.5627
 9184SOL     OW28652   0.869   6.603   0.129 -0.1292 -0.5916  0.1023
 9184SOL    HW128653   0.942   6.544   0.115 -1.0372 -2.1824  1.6247
 9184SOL    HW228654   0.884   6.641   0.216 -0.8334 -0.5438  0.2152
 9185SOL     OW28655   8.550   8.508   8.589  0.1775  0.2733 -0.0500
 9185SOL    HW128656   8.519   8.499   8.679  0.2263  0.4736 -0.0118
 9185SOL    HW228657   8.539   8.601   8.569  0.6252  0.3222 -0.0785
 9186SOL     OW28658   5.712   1.822   3.325 -0.5853 -0.3127 -0.8868
 9186SOL    HW128659   5.647   1.756   3.301 -0.6177 -0.1406 -1.2776
 9186SOL    HW228660   5.780   1.814   3.258  0.4904 -1.4294  0.2659
 9187SOL     OW28661   7.695   5.206   4.971  0.2999 -0.1698 -0.0086
 9187SOL    HW128662   7.636   5.229   5.043 -0.0617 -0.9050 -0.0585
 9187SOL    HW228663   7.656   5.248   4.894 -1.4204 -2.3772 -0.4550
 9188SOL     OW28664   3.538   3.228   1.922 -0.2976  0.0877 -0.5292
 9188SOL    HW128665   3.607   3.197   1.863 -0.6362 -0.9624 -0.3834
 9188SOL    HW228666   3.556   3.322   1.931  0.6006 -0.0028 -1.1707
 9189SOL     OW28667   5.886   5.632   7.898  0.2851 -0.3323  0.5161
 9189SOL    HW128668   5.910   5.634   7.805 -0.7541  0.0935  0.2345
 9189SOL    HW228669   5.840   5.715   7.912 -1.8210 -1.4762  0.7468
 9190SOL     OW28670   5.373   8.405   7.415  0.7876 -0.0584  0.0350
 9190SOL    HW128671   5.469   8.406   7.413  0.8235  1.2356  1.1445
 9190SOL    HW228672   5.349   8.349   7.341  2.4063 -1.6695  0.6581
 9191SOL     OW28673   8.187   8.415   2.666 -0.0861 -0.3009 -0.1103
 9191SOL    HW128674   8.195   8.390   2.574  0.3043 -1.3362  0.2007
 9191SOL    HW228675   8.276   8.415   2.699  0.1969  3.1738 -0.4835
 9192SOL     OW28676   1.312   6.766   3.437  0.2067  0.0045  0.3556
 9192SOL    HW128677   1.243   6.816   3.392  1.0140  1.0840  0.2805
 9192SOL    HW228678   1.266   6.690   3.472 -0.9942  0.5938  0.1465
 9193SOL     OW28679   6.582   8.956   0.979 -1.0065 -0.0822 -0.4403
 9193SOL    HW128680   6.674   8.931   0.992 -1.1530  0.2308  1.5663
 9193SOL    HW228681   6.586   9.037   0.928 -0.0450  0.8017  0.9684
 9194SOL     OW28682   6.935   6.255   1.841 -0.0546 -0.4347  0.7680
 9194SOL    HW128683   6.965   6.287   1.756  1.3697  1.0693  1.7930
 9194SOL    HW228684   6.997   6.186   1.864 -1.3875 -2.0154 -0.0760
 9195SOL     OW28685   2.310   6.106   1.141 -0.4028 -0.1466 -0.2889
 9195SOL    HW128686   2.226   6.146   1.120 -0.1716  0.5458  0.0805
 9195SOL    HW228687   2.316   6.030   1.083 -1.1299 -0.0126 -0.5476
 9196SOL     OW28688   7.891   4.748   0.307  0.1610 -0.0847  0.6511
 9196SOL    HW128689   7.885   4.837   0.271 -1.3326 -0.5757 -0.4052
 9196SOL    HW228690   7.910   4.761   0.400 -1.4418  1.3945  0.8121
 9197SOL     OW28691   0.406   7.808   5.750 -0.4938 -0.7447  0.3053
 9197SOL    HW128692   0.450   7.885   5.786 -0.1525  0.2938 -2.1517
 9197SOL    HW228693   0.328   7.798   5.805 -0.4890  1.2977  0.7646
 9198SOL     OW28694   2.020   2.571   7.705  0.2255  0.4527  0.1468
 9198SOL    HW128695   2.014   2.548   7.797  1.9264 -0.9829 -0.0453
 9198SOL    HW228696   1.936   2.545   7.667  0.1515 -0.5533  0.9763
 9199SOL     OW28697   2.599   4.438   7.052 -0.0086  0.1910 -0.9958
 9199SOL    HW128698   2.587   4.510   6.989 -0.7563  0.8126 -0.1779
 9199SOL    HW228699   2.672   4.467   7.107 -0.2489  0.2986 -0.7264
 9200SOL     OW28700   2.825   0.953   0.067 -0.5206 -0.1461  0.2228
 9200SOL    HW128701   2.766   1.020   0.033  0.2593  1.2235  1.4367
 9200SOL    HW228702   2.908   0.968   0.021 -0.3110 -0.2045  0.5756
 9201SOL     OW28703   1.457   2.970   8.304 -0.0286 -0.0892 -0.6920
 9201SOL    HW128704   1.408   2.900   8.348  0.8073 -0.2924 -0.0512
 9201SOL    HW228705   1.516   3.004   8.372  1.0058 -0.1277 -1.5457
 9202SOL     OW28706   8.300   6.623   1.742  0.1659 -0.3351 -0.2251
 9202SOL    HW128707   8.307   6.603   1.649 -0.8509 -1.4213 -0.0831
 9202SOL    HW228708   8.371   6.574   1.783  0.8670  0.4588 -0.4486
 9203SOL     OW28709   3.999   7.229   2.939  0.0563  0.0084  0.1709
 9203SOL    HW128710   4.087   7.194   2.955 -1.4447 -4.0376  0.7645
 9203SOL    HW228711   3.978   7.200   2.850 -0.2175  2.2945 -0.5845
 9204SOL     OW28712   2.658   8.703   7.933  0.2714 -0.5066  0.4061
 9204SOL    HW128713   2.714   8.780   7.946  0.5453 -0.8327  1.2639
 9204SOL    HW228714   2.705   8.632   7.978 -0.3170 -1.0166  0.2207
 9205SOL     OW28715   5.511   6.605   5.340  0.0941  0.1331  0.3252
 9205SOL    HW128716   5.446   6.651   5.288 -0.1780  0.8417  1.2877
 9205SOL    HW228717   5.463   6.534   5.382  0.3372 -0.5112 -0.4422
 9206SOL     OW28718   6.255   8.238   3.169 -0.5996  0.5263  0.5483
 9206SOL    HW128719   6.214   8.323   3.149 -0.9873  0.3396  0.5449
 9206SOL    HW228720   6.349   8.255   3.163 -0.6465  1.1956  1.4863
 9207SOL     OW28721   2.529   8.748   0.695  0.0138  0.3655  0.0766
 9207SOL    HW128722   2.470   8.759   0.769 -0.6659  0.4663 -0.4722
 9207SOL    HW228723   2.522   8.830   0.646  0.6526  0.4000  0.0393
 9208SOL     OW28724   0.808   2.244   6.662  0.3374 -0.0177  0.1922
 9208SOL    HW128725   0.888   2.196   6.685 -0.9253 -1.8581  0.9032
 9208SOL    HW228726   0.737   2.186   6.686 -1.2865  1.9429  0.3895
 9209SOL     OW28727   3.428   1.362   4.973  0.1595 -0.1227  0.5471
 9209SOL    HW128728   3.372   1.372   5.050  0.3991  1.6317  0.5223
 9209SOL    HW228729   3.498   1.302   5.002 -0.3015 -0.2719  1.3767
 9210SOL     OW28730   4.085   1.349   5.603 -0.5470  0.2295 -0.3602
 9210SOL    HW128731   4.155   1.283   5.606  0.4079  1.2220  0.1284
 9210SOL    HW228732   4.131   1.433   5.612 -1.7766  0.9404 -0.4377
 9211SOL     OW28733   7.868   7.304   7.308 -0.0595 -0.2387  0.0701
 9211SOL    HW128734   7.903   7.383   7.348 -0.3103 -0.0413 -0.0959
 9211SOL    HW228735   7.904   7.305   7.219  0.5094 -0.6829  0.2904
 9212SOL     OW28736   4.639   2.357   1.014  0.7145  0.2529 -0.2160
 9212SOL    HW128737   4.575   2.286   1.020 -0.0257  0.9971  1.2294
 9212SOL    HW228738   4.683   2.343   0.930 -0.8506 -0.7015 -0.9254
 9213SOL     OW28739   4.930   1.164   2.020  0.1324 -0.4049  0.2327
 9213SOL    HW128740   4.998   1.102   1.994 -0.3380 -0.4458 -0.9758
 9213SOL    HW228741   4.858   1.110   2.050  0.0574 -0.4142  0.0371
 9214SOL     OW28742   4.582   3.299   4.012 -0.1494  0.0123 -0.5831
 9214SOL    HW128743   4.672   3.271   3.997 -0.8933 -1.7405 -2.2025
 9214SOL    HW228744   4.580   3.392   3.988  0.9550 -0.2477 -1.7308
 9215SOL     OW28745   7.439   6.480   3.898 -0.0450 -0.1409 -0.4185
 9215SOL    HW128746   7.489   6.440   3.969 -1.2576 -3.7531 -1.4165
 9215SOL    HW228747   7.474   6.442   3.818 -0.7046  1.5681 -1.5886
 9216SOL     OW28748   1.581   7.640   4.834  0.0930  0.0385 -0.5646
 9216SOL    HW128749   1.653   7.581   4.855 -0.7444 -0.6341  0.5101
 9216SOL    HW228750   1.503   7.584   4.833 -0.3201  0.5441 -2.7447
 9217SOL     OW28751   4.022   0.564   7.910 -0.2457 -0.3275 -0.3999
 9217SOL    HW128752   4.003   0.508   7.985  0.7386  1.3064  1.1436
 9217SOL    HW228753   4.111   0.541   7.884 -0.4811 -0.6913 -0.9031
 9218SOL     OW28754   6.537   0.408   2.794 -0.1845 -0.5484 -0.6322
 9218SOL    HW128755   6.523   0.370   2.707  0.3688  0.8243 -1.3393
 9218SOL    HW228756   6.493   0.493   2.791  2.1733  0.7403 -0.5397
 9219SOL     OW28757   2.797   2.840   1.337  0.0919 -0.1563 -0.0742
 9219SOL    HW128758   2.775   2.770   1.399 -1.5127 -0.0143 -0.4268
 9219SOL    HW228759   2.846   2.904   1.388  0.8410 -1.1327  0.4571
 9220SOL     OW28760   1.292   7.038   4.145  0.2080  0.0956 -0.7937
 9220SOL    HW128761   1.378   6.999   4.163 -0.2754  0.0941  1.9148
 9220SOL    HW228762   1.291   7.119   4.197 -1.7808 -0.4273  0.0715
 9221SOL     OW28763   6.634   7.279   4.564 -0.0645  0.6858  0.4399
 9221SOL    HW128764   6.673   7.193   4.548  0.5164  1.1617 -0.7999
 9221SOL    HW228765   6.567   7.263   4.631  0.2291 -0.6694  0.4342
 9222SOL     OW28766   1.999   0.989   4.883  0.0783 -0.2264  0.2458
 9222SOL    HW128767   2.095   0.981   4.883  0.0752 -0.4710 -1.2410
 9222SOL    HW228768   1.969   0.913   4.833 -0.8401  0.3208 -0.0499
 9223SOL     OW28769   7.767   4.361   7.080  0.2674  0.0697  0.4090
 9223SOL    HW128770   7.701   4.420   7.115 -0.5700  0.9932 -2.4811
 9223SOL    HW228771   7.838   4.419   7.051  1.0675 -0.6735  0.8429
 9224SOL     OW28772   8.435   5.559   4.943  0.2199  0.0126  0.1836
 9224SOL    HW128773   8.457   5.598   4.858  0.4737 -0.5530 -0.0136
 9224SOL    HW228774   8.455   5.466   4.933  1.4130  0.1175  1.2469
 9225SOL     OW28775   5.346   8.170   5.228 -0.3866 -0.4059  0.3671
 9225SOL    HW128776   5.288   8.097   5.250  0.3124 -1.1685 -0.2472
 9225SOL    HW228777   5.429   8.128   5.203 -0.3078  0.5275 -1.0477
 9226SOL     OW28778   8.001   6.889   9.105  0.0164  0.1210  0.2109
 9226SOL    HW128779   7.981   6.974   9.144  1.2221  1.0618 -1.1093
 9226SOL    HW228780   8.074   6.855   9.156 -0.5670 -0.2109  0.8361
 9227SOL     OW28781   8.917   7.738   5.527  0.1331 -0.2384  0.1283
 9227SOL    HW128782   8.947   7.665   5.474  0.1464  0.0437 -0.2626
 9227SOL    HW228783   8.933   7.711   5.617  0.7648 -0.4384 -0.0380
 9228SOL     OW28784   4.166   0.838   7.662  0.2739 -0.0516  0.1429
 9228SOL    HW128785   4.190   0.798   7.578  1.0254  0.6663 -0.0014
 9228SOL    HW228786   4.089   0.790   7.690  1.1562 -1.6241 -0.0046
 9229SOL     OW28787   7.111   4.852   8.659 -0.1281  0.3536 -0.2366
 9229SOL    HW128788   7.119   4.947   8.659  0.3751  0.3179  0.8310
 9229SOL    HW228789   7.188   4.821   8.706 -0.4271 -0.5692 -0.3382
 9230SOL     OW28790   6.039   7.229   4.687  0.4881  0.3114 -0.0295
 9230SOL    HW128791   5.964   7.210   4.743 -0.1228 -5.7785 -2.2194
 9230SOL    HW228792   6.002   7.274   4.611 -0.5388 -0.3853  0.0489
 9231SOL     OW28793   4.153   7.138   1.980  0.0915  1.0561  0.1448
 9231SOL    HW128794   4.141   7.174   1.892  0.4518  1.3311  0.2077
 9231SOL    HW228795   4.247   7.142   1.996  0.6211 -2.6235 -0.9936
 9232SOL     OW28796   8.664   4.907   5.488 -0.2930 -0.2173  0.1068
 9232SOL    HW128797   8.757   4.888   5.476  0.1617  1.0991  1.2680
 9232SOL    HW228798   8.656   5.001   5.476 -1.4675 -0.2899  0.1504
 9233SOL     OW28799   6.133   1.344   1.961 -0.1620 -0.1941  0.0941
 9233SOL    HW128800   6.183   1.312   2.036  1.4110  1.8061 -0.0135
 9233SOL    HW228801   6.090   1.423   1.994 -1.6577 -0.7523 -0.4104
 9234SOL     OW28802   3.218   0.734   0.363 -0.3439  0.1204 -0.1375
 9234SOL    HW128803   3.299   0.784   0.373  1.2613 -1.6650 -2.9118
 9234SOL    HW228804   3.192   0.749   0.273 -1.2093 -1.9658 -0.2891
 9235SOL     OW28805   4.131   3.090   6.463 -0.7399  0.5933 -0.2976
 9235SOL    HW128806   4.059   3.128   6.513 -0.5586  1.8408 -0.9290
 9235SOL    HW228807   4.138   3.146   6.385  0.2669 -0.0957 -0.7241
 9236SOL     OW28808   3.751   5.680   0.644 -0.3353  0.2236 -0.3088
 9236SOL    HW128809   3.707   5.728   0.574  0.8290  0.7605 -0.7122
 9236SOL    HW228810   3.843   5.676   0.615  0.2932  0.9930  1.4643
 9237SOL     OW28811   0.519   9.054   3.459  0.5474  0.1542  0.1368
 9237SOL    HW128812   0.450   9.112   3.493 -1.1638 -2.3059  1.1344
 9237SOL    HW228813   0.599   9.088   3.498 -0.2598  2.2725  0.0925
 9238SOL     OW28814   4.968   1.034   0.966 -0.5993 -0.2701  0.0081
 9238SOL    HW128815   4.917   0.992   0.898 -0.7339 -0.8029  0.4301
 9238SOL    HW228816   4.997   1.117   0.928 -0.2859 -0.7702 -0.8533
 9239SOL     OW28817   4.674   6.167   1.630  0.4573  0.3363 -0.0558
 9239SOL    HW128818   4.724   6.088   1.609  1.1771  0.4897  0.9794
 9239SOL    HW228819   4.700   6.231   1.564  2.0098  0.5543  0.7311
 9240SOL     OW28820   8.088   7.631   4.855 -0.1968  0.2957  0.0974
 9240SOL    HW128821   8.068   7.549   4.809 -0.8857  0.8518 -0.6173
 9240SOL    HW228822   8.180   7.622   4.881 -0.1869 -0.5903 -0.2106
 9241SOL     OW28823   6.931   7.573   7.468  0.1496 -0.4755  0.1835
 9241SOL    HW128824   6.977   7.609   7.392 -0.1757  0.8898  0.6087
 9241SOL    HW228825   6.945   7.637   7.537  0.1918 -1.5585  1.2040
 9242SOL     OW28826   2.724   5.406   8.896  0.2756  0.0667  0.2710
 9242SOL    HW128827   2.800   5.462   8.880  0.9669 -1.3870 -1.8919
 9242SOL    HW228828   2.732   5.383   8.989  0.8865  2.1621  0.7924
 9243SOL     OW28829   2.116   4.154   3.310  0.2713  0.0793  0.5519
 9243SOL    HW128830   2.134   4.075   3.362 -0.8657 -2.3664 -2.4356
 9243SOL    HW228831   2.024   4.175   3.329 -0.1393 -0.8028 -0.3938
 9244SOL     OW28832   5.035   8.819   6.411 -0.3848  0.3868 -0.0540
 9244SOL    HW128833   5.046   8.755   6.481  1.2685 -0.1396 -0.7488
 9244SOL    HW228834   4.947   8.854   6.424  0.4721  1.6357  3.3709
 9245SOL     OW28835   4.406   7.418   7.482  0.3032  0.4596  0.1506
 9245SOL    HW128836   4.413   7.448   7.573 -0.3571 -0.0182  0.3662
 9245SOL    HW228837   4.355   7.486   7.439  2.4127  1.7946 -0.4113
 9246SOL     OW28838   5.319   8.155   4.464  0.4280  0.6855 -0.2049
 9246SOL    HW128839   5.359   8.205   4.535 -0.8343 -0.8752  1.6952
 9246SOL    HW228840   5.307   8.220   4.394  2.5445  2.0685  0.6037
 9247SOL     OW28841   6.403   6.525   5.320 -0.1945  0.1968  0.1791
 9247SOL    HW128842   6.484   6.543   5.272 -0.0805  0.5280  0.4952
 9247SOL    HW228843   6.367   6.447   5.278  1.4955 -1.3862  1.5736
 9248SOL     OW28844   4.127   6.793   4.414 -0.7603 -0.0478 -0.0821
 9248SOL    HW128845   4.036   6.767   4.428 -0.3961 -2.1225 -1.1220
 9248SOL    HW228846   4.155   6.742   4.338  0.8605  1.6233 -0.6813
 9249SOL     OW28847   7.885   8.811   0.216  0.3808  0.2882 -0.0316
 9249SOL    HW128848   7.861   8.829   0.307 -1.0996  0.8395 -0.5018
 9249SOL    HW228849   7.961   8.866   0.199  0.7869  0.0368  0.9155
 9250SOL     OW28850   7.408   7.393   0.847  0.3375  0.6930 -0.0581
 9250SOL    HW128851   7.454   7.468   0.810 -0.4119  0.9391 -0.5201
 9250SOL    HW228852   7.448   7.317   0.804  1.0238  0.8208  0.3334
 9251SOL     OW28853   1.712   7.991   3.421 -0.5073  0.1135 -0.7916
 9251SOL    HW128854   1.804   7.982   3.445 -0.7659 -0.3058  0.1044
 9251SOL    HW228855   1.706   7.956   3.332 -0.1517 -1.8171 -0.1051
 9252SOL     OW28856   6.410   1.982   4.045 -0.4352  0.0499 -0.4656
 9252SOL    HW128857   6.459   2.064   4.036  0.4876 -0.2224  1.4386
 9252SOL    HW228858   6.332   1.994   3.991  0.5847  1.4355 -1.7041
 9253SOL     OW28859   8.861   6.865   6.162  0.0356 -0.0120  0.0603
 9253SOL    HW128860   8.855   6.846   6.068  2.3011 -0.2192 -0.1174
 9253SOL    HW228861   8.848   6.780   6.204  0.0887 -0.1175 -0.1319
 9254SOL     OW28862   0.624   2.721   6.759 -0.1850  0.5314 -0.5930
 9254SOL    HW128863   0.662   2.633   6.767 -1.9760 -0.2255  0.3213
 9254SOL    HW228864   0.695   2.780   6.785  1.0980 -0.6240 -1.3444
 9255SOL     OW28865   2.320   4.719   1.648 -0.3823  0.1268  0.6326
 9255SOL    HW128866   2.229   4.688   1.649 -0.2036 -0.4021  0.7874
 9255SOL    HW228867   2.319   4.794   1.589 -0.6866 -0.5972 -0.3059
 9256SOL     OW28868   3.384   2.481   6.473 -0.4195 -0.5104 -0.3338
 9256SOL    HW128869   3.380   2.574   6.498 -1.0971 -0.6361  0.0615
 9256SOL    HW228870   3.464   2.449   6.514 -0.6306 -0.3014  0.2509
 9257SOL     OW28871   0.805   3.281   8.044  0.4148 -0.0650  0.6249
 9257SOL    HW128872   0.721   3.249   8.011 -0.9936  2.7354  1.1460
 9257SOL    HW228873   0.864   3.275   7.969 -0.7371 -0.4404 -0.2808
 9258SOL     OW28874   7.983   2.704   1.943 -0.4459  0.2759 -0.3818
 9258SOL    HW128875   7.945   2.694   1.856 -0.3773 -3.6457 -0.1381
 9258SOL    HW228876   8.077   2.700   1.928 -0.2886  2.4062 -0.2834
 9259SOL     OW28877   3.218   0.639   1.036  0.2472 -0.2512 -1.0449
 9259SOL    HW128878   3.274   0.683   1.099 -0.1586  1.1471 -1.6375
 9259SOL    HW228879   3.160   0.707   1.002 -3.1170 -1.9070  0.8438
 9260SOL     OW28880   4.825   7.957   9.108  0.5372 -0.1274 -0.2359
 9260SOL    HW128881   4.868   8.041   9.123  0.9958 -0.3629 -0.2280
 9260SOL    HW228882   4.896   7.894   9.101  0.1571 -0.6909  0.8118
 9261SOL     OW28883   1.949   7.378   5.587 -0.4497  0.2728  0.3141
 9261SOL    HW128884   1.929   7.342   5.500 -0.7063  1.5871 -0.2037
 9261SOL    HW228885   1.971   7.302   5.640 -1.7285 -0.7234 -0.5150
 9262SOL     OW28886   8.156   8.912   6.563  0.8106 -0.1888 -0.7214
 9262SOL    HW128887   8.231   8.907   6.623  1.5191  0.7034 -1.5195
 9262SOL    HW228888   8.164   8.834   6.507  1.0133 -0.2006 -0.6736
 9263SOL     OW28889   6.569   8.234   8.604 -0.4368  0.4400  0.4901
 9263SOL    HW128890   6.525   8.304   8.652  1.7701  1.2917  1.4031
 9263SOL    HW228891   6.553   8.255   8.512 -1.2489  1.1502  0.7800
 9264SOL     OW28892   4.429   0.794   2.286  0.2198  0.7987  0.3085
 9264SOL    HW128893   4.334   0.795   2.269  0.2767  0.0721 -0.1129
 9264SOL    HW228894   4.468   0.799   2.198  0.6573  4.8343  0.5527
 9265SOL     OW28895   5.041   5.266   0.458  0.2329  0.1105 -0.3154
 9265SOL    HW128896   4.969   5.305   0.408 -0.5460 -1.3397 -0.3828
 9265SOL    HW228897   4.998   5.208   0.520  1.3606 -1.0916 -0.6228
 9266SOL     OW28898   3.585   7.904   2.454 -0.2805  0.0381  0.4293
 9266SOL    HW128899   3.538   7.842   2.398  1.2959  0.0378 -0.9743
 9266SOL    HW228900   3.668   7.861   2.473  0.9655  1.7447 -0.7951
 9267SOL     OW28901   8.539   0.166   8.353 -0.2028 -0.6266 -0.4115
 9267SOL    HW128902   8.466   0.105   8.369  0.4497 -1.4270 -0.3884
 9267SOL    HW228903   8.614   0.109   8.334  0.6377  0.1389  0.4878
 9268SOL     OW28904   5.880   2.315   0.258  0.2141  0.2532 -0.3377
 9268SOL    HW128905   5.868   2.270   0.341  1.3833 -1.6580 -1.1450
 9268SOL    HW228906   5.793   2.319   0.219  0.0172 -0.9179 -0.0353
 9269SOL     OW28907   8.414   1.785   8.137  0.0717 -0.9505 -0.4282
 9269SOL    HW128908   8.393   1.692   8.132  0.1269 -1.0138  0.4098
 9269SOL    HW228909   8.331   1.827   8.159  0.6393 -1.1778  2.6456
 9270SOL     OW28910   0.846   3.386   0.141 -0.7683 -0.0182  0.3259
 9270SOL    HW128911   0.841   3.357   0.232  1.1872  0.1125  0.5049
 9270SOL    HW228912   0.849   3.305   0.090  0.5004 -0.1412  0.5594
 9271SOL     OW28913   6.224   2.306   2.494 -0.2547 -0.5218 -0.2630
 9271SOL    HW128914   6.149   2.253   2.467  1.1689 -1.3441 -2.9386
 9271SOL    HW228915   6.200   2.395   2.467 -0.7880 -0.5517  0.0866
 9272SOL     OW28916   4.847   2.111   2.457  0.2514 -0.1438  0.5969
 9272SOL    HW128917   4.889   2.175   2.515  1.1779 -1.7632  1.8167
 9272SOL    HW228918   4.881   2.131   2.370  1.7008  0.1322  1.1932
 9273SOL     OW28919   2.860   0.448   6.822 -0.0978 -0.9140 -0.3233
 9273SOL    HW128920   2.934   0.495   6.785 -0.2403  0.0481  0.5491
 9273SOL    HW228921   2.898   0.368   6.859  0.5495 -0.3424  0.2791
 9274SOL     OW28922   3.876   7.972   2.528 -0.6628  0.3080  0.3448
 9274SOL    HW128923   3.916   7.888   2.502 -1.2019 -0.5055  1.9762
 9274SOL    HW228924   3.903   8.033   2.460  1.4773 -0.7166  0.1836
 9275SOL     OW28925   4.707   0.229   2.489 -0.0126  0.0765  0.5495
 9275SOL    HW128926   4.795   0.212   2.456  0.2000 -1.2763  1.7590
 9275SOL    HW228927   4.658   0.149   2.470 -0.1985 -0.2794  2.3982
 9276SOL     OW28928   2.424   6.911   2.672  0.2008  0.5290 -0.2387
 9276SOL    HW128929   2.363   6.973   2.632  0.4262  1.8242  1.3464
 9276SOL    HW228930   2.367   6.845   2.713 -0.0357 -0.3506 -1.8613
 9277SOL     OW28931   1.882   3.001   0.513 -0.5495  0.1159 -0.0903
 9277SOL    HW128932   1.858   3.015   0.605 -0.3921 -0.5850  0.0616
 9277SOL    HW228933   1.876   3.088   0.474 -0.6801  0.4139  0.5690
 9278SOL     OW28934   3.182   0.923   4.095  0.3279  0.0789 -0.6322
 9278SOL    HW128935   3.253   0.944   4.034  2.4939  0.3197  1.7949
 9278SOL    HW228936   3.136   1.006   4.108  1.4194  0.6207 -0.0834
 9279SOL     OW28937   7.419   5.767   4.176  0.1475  0.0693  0.0823
 9279SOL    HW128938   7.381   5.682   4.199  1.0499 -0.8003 -1.5205
 9279SOL    HW228939   7.344   5.820   4.150 -0.2791 -0.6786 -0.2312
 9280SOL     OW28940   5.941   1.452   0.805  0.1550 -0.3600  0.3077
 9280SOL    HW128941   6.000   1.390   0.763 -0.9554 -1.0886 -0.2076
 9280SOL    HW228942   5.881   1.479   0.736  0.9464  1.7517  0.3694
 9281SOL     OW28943   1.164   2.987   5.062  0.2761  0.0427 -0.1032
 9281SOL    HW128944   1.097   2.996   4.994 -0.3030 -1.0602  0.2944
 9281SOL    HW228945   1.235   2.939   5.020 -0.2845 -1.0709  0.1742
 9282SOL     OW28946   1.247   7.345   6.355 -0.3049 -0.4330 -0.4050
 9282SOL    HW128947   1.315   7.314   6.415  0.4148 -1.9935 -1.9432
 9282SOL    HW228948   1.292   7.408   6.298 -0.3079 -0.9323 -0.9683
 9283SOL     OW28949   7.835   0.765   6.226 -0.7549 -0.0811 -0.6520
 9283SOL    HW128950   7.865   0.856   6.227 -1.0807  0.0226 -0.2107
 9283SOL    HW228951   7.827   0.741   6.318 -1.0756 -0.4234 -0.7670
 9284SOL     OW28952   5.929   6.736   4.287 -0.0298  0.2770 -0.0959
 9284SOL    HW128953   5.968   6.804   4.342 -0.0530  0.9437 -0.8676
 9284SOL    HW228954   5.985   6.734   4.209  1.3061 -2.1793  0.8269
 9285SOL     OW28955   2.040   4.641   6.699  0.4032 -0.0604  0.5581
 9285SOL    HW128956   1.990   4.647   6.618 -0.9945  0.5908  1.4389
 9285SOL    HW228957   2.115   4.699   6.686 -0.2152  0.6281  0.0175
 9286SOL     OW28958   3.376   8.437   6.548  0.2725  0.3578 -0.0224
 9286SOL    HW128959   3.306   8.404   6.492 -0.4924  0.6576  0.7344
 9286SOL    HW228960   3.435   8.483   6.488 -0.2491  0.2138 -0.6531
 9287SOL     OW28961   3.720   8.564   0.485 -0.0899 -0.4595 -0.3481
 9287SOL    HW128962   3.728   8.492   0.547  0.3662  0.1550  0.3217
 9287SOL    HW228963   3.767   8.637   0.526  0.5459 -0.1517 -1.5794
 9288SOL     OW28964   1.992   2.883   5.167  0.1275  0.7752 -0.5071
 9288SOL    HW128965   1.975   2.961   5.220  2.0978  1.5599 -0.9443
 9288SOL    HW228966   1.991   2.811   5.230  0.1948  1.4055  0.2292
 9289SOL     OW28967   7.850   8.360   4.502 -0.1001 -0.3169  0.4958
 9289SOL    HW128968   7.871   8.402   4.419 -1.6145 -1.2749 -0.4160
 9289SOL    HW228969   7.817   8.431   4.557  0.9439  0.3286  0.3077
 9290SOL     OW28970   6.933   5.003   6.003  0.3356  0.1526  0.5071
 9290SOL    HW128971   6.869   4.932   6.008  0.7495 -0.2903 -0.3895
 9290SOL    HW228972   6.989   4.990   6.080  2.1476 -2.2184 -1.0899
 9291SOL     OW28973   4.040   2.129   7.949  0.2818 -0.2755 -0.7112
 9291SOL    HW128974   3.999   2.215   7.941 -0.8862 -0.8116 -0.6749
 9291SOL    HW228975   4.024   2.087   7.864  1.1851 -0.3249 -0.8666
 9292SOL     OW28976   0.258   5.131   4.811 -0.1047  0.2196  0.2618
 9292SOL    HW128977   0.213   5.053   4.780  1.3577 -0.1162 -1.0848
 9292SOL    HW228978   0.238   5.198   4.746 -0.3193  0.6454  0.7527
 9293SOL     OW28979   7.063   9.007   2.941 -0.4828  0.1913 -0.0886
 9293SOL    HW128980   7.097   9.086   2.982 -0.9691 -0.0139  0.7308
 9293SOL    HW228981   7.134   8.943   2.950 -0.6898  0.0575  0.7356
 9294SOL     OW28982   5.742   0.744   2.260  0.1396  0.2652  0.2588
 9294SOL    HW128983   5.650   0.735   2.233  0.3786 -1.3046 -0.1117
 9294SOL    HW228984   5.746   0.831   2.301 -1.4817  0.4001  0.2082
 9295SOL     OW28985   5.971   1.913   5.400  0.0720  0.4956 -0.0119
 9295SOL    HW128986   6.021   1.836   5.373  0.4901  0.5152  0.6830
 9295SOL    HW228987   5.915   1.882   5.470  0.6985  0.9469  0.7088
 9296SOL     OW28988   6.114   8.450   3.106  0.0341 -0.8303  0.5752
 9296SOL    HW128989   6.037   8.479   3.058 -0.2046  0.3158  1.5907
 9296SOL    HW228990   6.187   8.495   3.064  0.2058 -2.1543 -0.5812
 9297SOL     OW28991   1.194   2.978   0.020 -0.1464  0.1882  0.0740
 9297SOL    HW128992   1.157   2.892   0.039  2.5490 -0.9510  0.6321
 9297SOL    HW228993   1.189   3.025   0.103 -0.4726  0.0870  0.1110
 9298SOL     OW28994   0.727   5.154   5.184 -0.5007 -0.1409 -0.5341
 9298SOL    HW128995   0.743   5.240   5.144 -1.7797  1.1044  1.4407
 9298SOL    HW228996   0.803   5.102   5.160 -0.2216  1.1584 -2.7432
 9299SOL     OW28997   5.703   8.861   7.512 -0.2690 -0.3843  0.1201
 9299SOL    HW128998   5.709   8.870   7.607 -1.3423  0.5479  0.1210
 9299SOL    HW228999   5.757   8.932   7.478  1.5696 -1.7923 -0.0065
 9300SOL     OW29000   2.828   1.328   6.007  0.7103  0.2142  0.3073
 9300SOL    HW129001   2.743   1.362   5.979  1.3801  1.3483 -0.4924
 9300SOL    HW229002   2.825   1.235   5.986 -0.0081  0.4176 -0.5890
 9301SOL     OW29003   1.879   4.886   8.172 -0.0263  0.7175 -0.1698
 9301SOL    HW129004   1.812   4.835   8.126  0.6567  0.0072 -0.4042
 9301SOL    HW229005   1.832   4.925   8.246 -0.8741  0.8979 -0.7876
 9302SOL     OW29006   6.934   6.222   7.843 -0.4573  0.5255  0.0206
 9302SOL    HW129007   6.897   6.135   7.827 -0.0586  0.1716  0.9032
 9302SOL    HW229008   6.915   6.239   7.936  0.9764  0.6246  0.3209
 9303SOL     OW29009   8.577   8.063   8.813 -0.2521 -0.1201  0.0204
 9303SOL    HW129010   8.514   8.063   8.885 -1.2237 -0.3338 -0.8040
 9303SOL    HW229011   8.552   7.988   8.760 -0.0155  0.4633 -0.9396
 9304SOL     OW29012   8.028   5.951   0.952 -0.0632  0.2820 -0.4848
 9304SOL    HW129013   7.990   5.942   1.040 -2.1316  0.0323 -1.3474
 9304SOL    HW229014   8.097   5.885   0.949 -0.2447  0.0103  0.8010
 9305SOL     OW29015   4.634   4.883   0.794 -0.3681  0.0996  0.5263
 9305SOL    HW129016   4.572   4.884   0.866 -0.3185  1.0490  0.5700
 9305SOL    HW229017   4.700   4.949   0.818  0.4511 -0.6162  0.3069
 9306SOL     OW29018   8.776   5.088   0.105  0.0925 -0.1999 -0.2933
 9306SOL    HW129019   8.736   5.171   0.079 -0.5224 -0.4769 -0.2499
 9306SOL    HW229020   8.726   5.060   0.181 -0.0257 -0.8606 -0.6069
 9307SOL     OW29021   4.120   6.242   0.102 -0.7243 -0.2469  0.3837
 9307SOL    HW129022   4.164   6.231   0.186 -0.9812  0.6049  0.6372
 9307SOL    HW229023   4.187   6.276   0.043 -1.0548  1.2772  0.8296
 9308SOL     OW29024   0.321   3.146   3.101 -0.3358 -0.5300 -0.3532
 9308SOL    HW129025   0.371   3.227   3.114  2.3110 -1.9632 -0.9355
 9308SOL    HW229026   0.247   3.172   3.046  1.3527  1.2268 -1.9396
 9309SOL     OW29027   8.140   3.554   0.857 -0.2701 -0.1063  0.3154
 9309SOL    HW129028   8.106   3.541   0.945  0.3682  1.2120  0.7973
 9309SOL    HW229029   8.206   3.486   0.846 -1.4746 -1.2868  0.2159
 9310SOL     OW29030   6.800   5.168   1.281 -0.4721 -0.9066 -0.5184
 9310SOL    HW129031   6.833   5.087   1.321  0.8994 -0.0048  0.2526
 9310SOL    HW229032   6.736   5.202   1.343 -0.7668 -1.1844 -0.6640
 9311SOL     OW29033   0.022   5.275   6.320 -0.5915  0.3944 -0.4768
 9311SOL    HW129034  -0.049   5.226   6.363 -1.1704  2.7613  1.5010
 9311SOL    HW229035   0.065   5.322   6.391  0.9145  1.5503 -2.0712
 9312SOL     OW29036   4.643   7.460   0.526  0.1371  0.3645  1.0322
 9312SOL    HW129037   4.583   7.388   0.543 -0.4560  0.8650  1.0867
 9312SOL    HW229038   4.588   7.538   0.527  0.7114  0.7843  0.5983
 9313SOL     OW29039   4.903   2.747   8.155 -0.7318 -0.2532 -0.3084
 9313SOL    HW129040   4.838   2.676   8.162 -0.3837 -0.6987 -1.4053
 9313SOL    HW229041   4.986   2.702   8.145 -0.4035  0.3177 -0.1694
 9314SOL     OW29042   1.704   4.993   6.947  0.6392  0.0170 -0.0338
 9314SOL    HW129043   1.705   5.084   6.916  1.6040 -0.0814 -0.3110
 9314SOL    HW229044   1.753   4.944   6.881 -0.3805 -0.8273 -0.1980
 9315SOL     OW29045   8.663   7.293   8.049 -0.1332 -0.1940 -0.0899
 9315SOL    HW129046   8.586   7.348   8.061  1.1006  1.6468 -0.2951
 9315SOL    HW229047   8.708   7.296   8.133 -1.0035 -2.5157  0.5335
 9316SOL     OW29048   1.688   1.608   6.310 -0.6963 -0.0050  0.4525
 9316SOL    HW129049   1.661   1.537   6.251 -1.1889  1.4341 -1.1434
 9316SOL    HW229050   1.609   1.630   6.359 -0.8040  0.0724  0.2465
 9317SOL     OW29051   4.040   0.786   7.088 -0.4292 -0.3690 -0.3761
 9317SOL    HW129052   4.092   0.866   7.100 -1.1996 -0.1809  2.5248
 9317SOL    HW229053   4.104   0.715   7.090 -0.0524 -0.0536  1.8111
 9318SOL     OW29054   3.720   0.844   2.087 -0.8647  0.0216 -0.3478
 9318SOL    HW129055   3.760   0.927   2.115  0.1285 -0.4450 -0.3393
 9318SOL    HW229056   3.648   0.870   2.029  1.1331  0.8796 -2.6048
 9319SOL     OW29057   7.402   3.919   1.022 -0.2307 -0.1066  0.1872
 9319SOL    HW129058   7.324   3.968   0.997  0.3398  1.4482  1.3431
 9319SOL    HW229059   7.434   3.882   0.940 -1.7888 -0.2301 -0.4076
 9320SOL     OW29060   3.596   4.333   6.844 -0.1755 -1.0829  0.1702
 9320SOL    HW129061   3.525   4.361   6.786  1.3433  1.5380 -0.6260
 9320SOL    HW229062   3.653   4.279   6.789 -0.1173 -0.8145 -0.0378
 9321SOL     OW29063   8.648   5.003   2.312  0.2299 -0.1146 -0.0154
 9321SOL    HW129064   8.637   4.944   2.387  1.7663 -1.1192 -0.5355
 9321SOL    HW229065   8.702   5.074   2.346 -1.2504  0.8116  0.4912
 9322SOL     OW29066   2.035   5.339   2.260  0.2878 -0.2325  0.6353
 9322SOL    HW129067   2.072   5.428   2.253 -1.2153  0.3225 -1.3587
 9322SOL    HW229068   2.109   5.282   2.241  0.8156  0.7177 -0.3291
 9323SOL     OW29069   3.650   8.859   5.456 -0.5461 -0.1029  1.2555
 9323SOL    HW129070   3.728   8.854   5.401  0.2164 -0.5611  2.3617
 9323SOL    HW229071   3.582   8.890   5.396  0.3614 -0.1308  0.1613
 9324SOL     OW29072   1.147   0.786   4.861  0.1071  0.1929  0.0726
 9324SOL    HW129073   1.090   0.720   4.821  1.8303 -0.2423 -1.8747
 9324SOL    HW229074   1.149   0.763   4.954 -0.6156 -1.5315 -0.2949
 9325SOL     OW29075   5.633   3.034   2.598 -0.3801 -0.2027  0.0183
 9325SOL    HW129076   5.547   3.004   2.626 -0.2333 -1.2609 -0.5775
 9325SOL    HW229077   5.690   3.014   2.672 -0.4161 -0.7836 -0.0996
 9326SOL     OW29078   7.193   2.266   0.303 -0.6947  0.4834 -0.2782
 9326SOL    HW129079   7.173   2.358   0.283 -0.8388  0.3023 -1.0094
 9326SOL    HW229080   7.281   2.252   0.267  0.1030  0.8086  1.4229
 9327SOL     OW29081   0.930   5.265   6.595 -0.2195 -0.3013  0.4625
 9327SOL    HW129082   0.999   5.331   6.586  0.5384 -1.1097  0.2292
 9327SOL    HW229083   0.968   5.199   6.652 -0.9532 -0.5705  0.6490
 9328SOL     OW29084   5.907   5.480   3.627 -0.3640 -0.3294 -0.2337
 9328SOL    HW129085   5.821   5.446   3.602  0.5070 -1.7852 -1.4160
 9328SOL    HW229086   5.957   5.482   3.546  0.2095  2.2288  0.1020
 9329SOL     OW29087   0.757   0.924   5.973  0.2301  0.5010 -0.0154
 9329SOL    HW129088   0.741   0.832   5.993 -0.4254  0.7000  0.4115
 9329SOL    HW229089   0.797   0.959   6.052  0.3325  0.6226 -0.1203
 9330SOL     OW29090   1.590   8.943   2.459 -0.1979 -0.8542 -0.2865
 9330SOL    HW129091   1.532   9.014   2.487 -0.4814 -1.2855  0.2067
 9330SOL    HW229092   1.551   8.910   2.378 -2.8263 -3.6622  1.9147
 9331SOL     OW29093   7.539   4.282   5.958 -0.0390 -1.2686 -0.4241
 9331SOL    HW129094   7.624   4.325   5.965  0.5472 -2.5422  0.8021
 9331SOL    HW229095   7.478   4.353   5.937  1.0077  0.0185  0.6667
 9332SOL     OW29096   8.728   2.711   0.381  0.2972 -1.0177  0.3460
 9332SOL    HW129097   8.768   2.724   0.295 -0.4109  0.4302  0.2082
 9332SOL    HW229098   8.640   2.679   0.362 -0.6393  1.3243  0.3917
 9333SOL     OW29099   4.504   2.449   0.281 -0.5049  0.4693 -0.2154
 9333SOL    HW129100   4.533   2.450   0.373 -0.8538 -0.1858 -0.0939
 9333SOL    HW229101   4.409   2.450   0.286 -0.5575  2.7246 -0.6191
 9334SOL     OW29102   3.195   0.492   3.990  0.5462 -0.3345  0.0248
 9334SOL    HW129103   3.155   0.575   3.965  1.9853  0.0938 -1.0180
 9334SOL    HW229104   3.289   0.508   3.979  0.9897 -1.4413  1.8653
 9335SOL     OW29105   0.324   8.116   3.281 -0.1222 -0.1935  0.3431
 9335SOL    HW129106   0.238   8.081   3.259 -0.9732  2.1413 -0.3019
 9335SOL    HW229107   0.317   8.210   3.264  2.7111  0.0078 -0.2162
 9336SOL     OW29108   3.511   6.513   0.391 -0.5069 -0.1672  0.1502
 9336SOL    HW129109   3.539   6.422   0.405  0.3350  0.1572  0.6772
 9336SOL    HW229110   3.438   6.525   0.452  0.2886 -0.0858  1.1119
 9337SOL     OW29111   8.680   4.923   7.885  0.4942 -0.8622 -0.2221
 9337SOL    HW129112   8.729   4.919   7.803 -0.4894 -2.2327 -0.7851
 9337SOL    HW229113   8.589   4.906   7.860 -0.1990  0.8889  0.8890
 9338SOL     OW29114   2.329   0.658   5.672  0.5523 -0.1306  0.4536
 9338SOL    HW129115   2.335   0.609   5.754 -0.0500 -0.1408  0.4949
 9338SOL    HW229116   2.339   0.749   5.697  2.6615 -0.2641  0.2689
 9339SOL     OW29117   5.495   7.594   2.416 -0.9055 -0.3931 -0.3964
 9339SOL    HW129118   5.552   7.561   2.485 -0.4110  0.5591 -0.3350
 9339SOL    HW229119   5.546   7.584   2.336 -1.4633 -1.4609 -0.6351
 9340SOL     OW29120   7.860   3.360   4.622 -0.3008 -0.7735  0.0071
 9340SOL    HW129121   7.825   3.372   4.710 -0.1729 -1.8064  0.2088
 9340SOL    HW229122   7.801   3.298   4.580  0.8389 -1.9776  0.1119
 9341SOL     OW29123   2.121   1.535   7.465  0.4849  0.0258 -0.0761
 9341SOL    HW129124   2.211   1.555   7.489  0.2876 -0.0501  0.7620
 9341SOL    HW229125   2.126   1.448   7.424  0.8910  0.3668 -0.7723
 9342SOL     OW29126   0.171   9.114   3.739 -0.4496 -0.0102 -0.1235
 9342SOL    HW129127   0.173   9.019   3.748 -1.0303  0.1125  1.7361
 9342SOL    HW229128   0.170   9.129   3.645 -1.4187 -1.8701 -0.4561
 9343SOL     OW29129   5.249   0.999   4.415  0.5263  0.2525 -0.2424
 9343SOL    HW129130   5.269   0.958   4.499 -1.4842 -1.7890 -0.6416
 9343SOL    HW229131   5.173   1.055   4.433  1.2457  1.3013 -0.3648
 9344SOL     OW29132   7.545   0.460   7.751  0.8005  0.7687 -0.2020
 9344SOL    HW129133   7.571   0.524   7.817 -1.1889 -0.4854  1.9663
 9344SOL    HW229134   7.473   0.502   7.704  0.7174  0.8123 -0.0350
 9345SOL     OW29135   3.711   2.904   1.331 -0.4191 -0.4532 -0.0721
 9345SOL    HW129136   3.792   2.863   1.361 -0.2666  1.4891  2.5075
 9345SOL    HW229137   3.643   2.864   1.384 -0.7246  0.0835 -0.0518
 9346SOL     OW29138   7.196   0.543   2.514  0.0659  0.1353 -0.0545
 9346SOL    HW129139   7.126   0.596   2.553  1.5199  1.5147  0.8140
 9346SOL    HW229140   7.212   0.583   2.429  0.4915  0.4891  0.1870
 9347SOL     OW29141   2.998   6.256   7.611 -0.6545 -0.5448 -0.5671
 9347SOL    HW129142   2.965   6.323   7.670  0.1994 -0.8838  0.3181
 9347SOL    HW229143   3.093   6.256   7.625 -0.5320 -1.2319 -1.3044
 9348SOL     OW29144   5.708   4.132   4.475 -0.6139  0.1283 -0.2121
 9348SOL    HW129145   5.735   4.200   4.537  2.0652  0.2925 -1.4285
 9348SOL    HW229146   5.756   4.054   4.504 -0.7601 -0.2555 -0.9872
 9349SOL     OW29147   7.195   7.860   6.163  0.4172 -0.0119 -0.1111
 9349SOL    HW129148   7.210   7.942   6.115  1.8694 -1.1747 -1.7430
 9349SOL    HW229149   7.182   7.794   6.095 -0.2012 -1.2672  1.1679
 9350SOL     OW29150   2.562   4.400   8.991  0.4351 -0.4225  0.4422
 9350SOL    HW129151   2.608   4.483   8.979 -2.2359  1.0666 -0.4086
 9350SOL    HW229152   2.591   4.345   8.918 -0.7963  1.3366 -1.4889
 9351SOL     OW29153   0.306   7.910   2.623 -0.1436 -0.1149  0.0705
 9351SOL    HW129154   0.332   7.928   2.713 -0.8836 -0.9375  0.4688
 9351SOL    HW229155   0.210   7.912   2.625 -0.2222 -1.7584 -0.3098
 9352SOL     OW29156   7.669   6.014   7.165 -0.1510  0.3170  0.0474
 9352SOL    HW129157   7.758   6.036   7.137  0.0522 -1.3547 -0.7515
 9352SOL    HW229158   7.624   6.099   7.171  1.5985  1.2248  0.9252
 9353SOL     OW29159   9.116   5.418   2.719  0.2492 -0.1324 -0.3150
 9353SOL    HW129160   9.186   5.404   2.782 -0.5331  1.6924  1.0393
 9353SOL    HW229161   9.059   5.341   2.728  1.1490 -0.7916 -0.1955
 9354SOL     OW29162   7.103   6.225   2.334 -0.7813  0.5389  0.2791
 9354SOL    HW129163   7.044   6.176   2.276  3.0973 -3.3078 -1.0408
 9354SOL    HW229164   7.127   6.303   2.284 -1.8289  0.2025 -0.7964
 9355SOL     OW29165   5.012   7.440   3.207 -0.0181  0.3457 -0.3110
 9355SOL    HW129166   4.917   7.427   3.207  0.1606 -1.4651  1.6886
 9355SOL    HW229167   5.025   7.515   3.265 -0.1873  0.2836 -0.1905
 9356SOL     OW29168   6.881   4.441   7.615 -0.6985 -0.0026 -0.2764
 9356SOL    HW129169   6.884   4.530   7.581 -0.2512 -0.1661 -0.6783
 9356SOL    HW229170   6.796   4.408   7.587 -1.3821  0.6854  0.8997
 9357SOL     OW29171   2.716   7.248   0.273 -0.2198  0.0371  0.4358
 9357SOL    HW129172   2.725   7.271   0.181 -1.7699  0.7360  0.4281
 9357SOL    HW229173   2.698   7.330   0.318 -0.4006 -0.4168  1.2250
 9358SOL     OW29174   4.111   9.074   0.199 -0.3163  0.2558 -0.4829
 9358SOL    HW129175   4.199   9.110   0.189 -0.9679  2.5853  1.2757
 9358SOL    HW229176   4.063   9.141   0.248 -2.8672 -1.2757 -0.6989
 9359SOL     OW29177   7.417   2.995   1.366  0.3373  0.0208 -0.9155
 9359SOL    HW129178   7.343   2.982   1.426 -1.4525  0.5235 -2.8829
 9359SOL    HW229179   7.488   3.027   1.421 -0.0096 -2.9460  1.5175
 9360SOL     OW29180   6.922   7.947   2.860  0.0545  0.5356 -0.1551
 9360SOL    HW129181   6.861   7.913   2.794  1.7460 -0.5946 -1.2061
 9360SOL    HW229182   6.931   7.876   2.923  2.3781 -0.4968 -1.5166
 9361SOL     OW29183   3.790   1.027   1.336  0.2850  0.2757 -0.7799
 9361SOL    HW129184   3.806   1.066   1.422 -1.3701  2.2543 -1.2998
 9361SOL    HW229185   3.849   1.074   1.277  0.2140  0.1003 -0.9912
 9362SOL     OW29186   6.438   5.613   6.256  0.5191 -0.3424 -0.8065
 9362SOL    HW129187   6.350   5.634   6.226  0.1740 -0.8070 -0.1389
 9362SOL    HW229188   6.494   5.635   6.182  0.2207  2.8860 -0.2294
 9363SOL     OW29189   3.182   4.432   1.437 -0.2342 -0.1323  0.3132
 9363SOL    HW129190   3.187   4.409   1.345  0.1334 -0.2270  0.3556
 9363SOL    HW229191   3.213   4.523   1.441  0.2960 -0.3114  0.4129
 9364SOL     OW29192   5.202   2.425   2.151  0.1425  0.1628  0.0636
 9364SOL    HW129193   5.288   2.420   2.111  0.4984 -1.0346  0.9227
 9364SOL    HW229194   5.163   2.505   2.114  1.4139  0.4654 -0.6936
 9365SOL     OW29195   1.674   2.658   1.242 -0.0214  0.4337  0.4414
 9365SOL    HW129196   1.609   2.613   1.296  1.4037 -2.2001  0.1267
 9365SOL    HW229197   1.623   2.716   1.186 -1.9624 -0.5823  1.0650
 9366SOL     OW29198   3.236   2.463   2.757 -0.3201  0.2680 -0.0961
 9366SOL    HW129199   3.166   2.528   2.763 -0.6423 -0.0656 -0.2602
 9366SOL    HW229200   3.245   2.445   2.664 -0.4092 -0.1183 -0.0298
 9367SOL     OW29201   8.216   4.327   8.383  0.0978 -0.3890 -0.0977
 9367SOL    HW129202   8.129   4.344   8.420  0.5988  2.4191  0.0086
 9367SOL    HW229203   8.211   4.361   8.294  1.3461  0.7723  0.2487
 9368SOL     OW29204   7.579   8.064   3.604  0.1425  0.2747  0.4355
 9368SOL    HW129205   7.587   8.129   3.674 -0.8639  0.5138  0.3482
 9368SOL    HW229206   7.582   7.980   3.650 -1.5315  0.4368  0.9307
 9369SOL     OW29207   1.582   1.368   6.163  0.0451 -0.3050  0.0842
 9369SOL    HW129208   1.493   1.336   6.174 -0.3861  0.8286  0.0595
 9369SOL    HW229209   1.618   1.314   6.092 -0.8027 -0.4222 -0.2762
 9370SOL     OW29210   6.516   5.448   5.499  0.5074 -0.1932 -0.2165
 9370SOL    HW129211   6.538   5.437   5.407  0.1654 -1.3676 -0.1756
 9370SOL    HW229212   6.576   5.390   5.545 -0.5149 -0.9962  0.1458
 9371SOL     OW29213   1.818   7.892   0.158  0.0478 -0.3416  0.3285
 9371SOL    HW129214   1.722   7.889   0.168 -0.0191  0.4051 -0.0122
 9371SOL    HW229215   1.833   7.888   0.064  0.4770 -2.7670  0.4438
 9372SOL     OW29216   0.232   5.036   4.316 -0.2581 -0.6689  0.5899
 9372SOL    HW129217   0.317   5.058   4.354 -0.5571 -0.0547  0.9315
 9372SOL    HW229218   0.253   4.989   4.235  0.4168  0.3210  0.1694
 9373SOL     OW29219   2.535   3.334   8.687  0.1998  0.3759  0.0448
 9373SOL    HW129220   2.609   3.274   8.698  1.0352  1.5284  0.8657
 9373SOL    HW229221   2.480   3.319   8.763 -0.5652 -0.6343 -0.6709
 9374SOL     OW29222   5.902   2.883   3.819 -0.6937 -0.0083 -0.1553
 9374SOL    HW129223   5.846   2.809   3.844 -2.8195  2.0789  1.6231
 9374SOL    HW229224   5.843   2.946   3.780  0.5796  1.8862  0.8369
 9375SOL     OW29225   5.112   5.158   5.719 -0.5091 -0.1151  0.5449
 9375SOL    HW129226   5.078   5.246   5.703 -1.3841 -0.7530 -1.2941
 9375SOL    HW229227   5.136   5.125   5.633  0.3506 -1.4962  1.2678
 9376SOL     OW29228   6.119   0.955   7.367 -0.1736  0.2223 -0.1843
 9376SOL    HW129229   6.132   0.876   7.419 -0.9606  1.3017  1.7622
 9376SOL    HW229230   6.207   0.978   7.337  0.3550 -0.3331  0.8752
 9377SOL     OW29231   5.941   2.543   0.486  0.4759  0.1593  0.1323
 9377SOL    HW129232   5.988   2.544   0.403  0.1530  0.5283 -0.0466
 9377SOL    HW229233   5.956   2.455   0.521  0.1749 -0.1785 -0.5628
 9378SOL     OW29234   5.594   1.005   7.144  0.4082  0.3646 -0.6777
 9378SOL    HW129235   5.593   1.094   7.109  2.2549  0.3320 -0.9233
 9378SOL    HW229236   5.580   0.949   7.068 -1.1684  0.4110 -0.4650
 9379SOL     OW29237   4.194   5.972   4.496 -0.3297  0.8110 -0.2691
 9379SOL    HW129238   4.226   5.923   4.421 -1.0912 -1.7310  0.9427
 9379SOL    HW229239   4.132   6.036   4.459 -0.3664 -0.0890 -1.8218
 9380SOL     OW29240   2.409   3.718   2.480  0.2562 -0.1068 -0.6892
 9380SOL    HW129241   2.338   3.741   2.420 -0.3762  2.5231  0.9265
 9380SOL    HW229242   2.418   3.793   2.538  2.7137 -1.3841  0.7807
 9381SOL     OW29243   8.282   5.285   6.816 -0.2925 -0.9531 -0.0588
 9381SOL    HW129244   8.202   5.256   6.860  0.6140 -2.5749  0.6310
 9381SOL    HW229245   8.262   5.280   6.723 -0.5682 -2.8339  0.0544
 9382SOL     OW29246   4.285   3.039   0.792 -0.0368  0.2751  0.2049
 9382SOL    HW129247   4.323   2.965   0.839 -2.8621 -0.5907  1.3825
 9382SOL    HW229248   4.308   3.115   0.845  0.4989 -0.1481  0.5839
 9383SOL     OW29249   8.865   7.381   6.433  0.6813 -0.5973 -0.1189
 9383SOL    HW129250   8.792   7.326   6.407  1.4650 -0.9405 -1.7523
 9383SOL    HW229251   8.928   7.321   6.473  0.3781 -0.4118  0.6576
 9384SOL     OW29252   1.777   4.666   4.420 -0.1988 -0.4810  0.0264
 9384SOL    HW129253   1.865   4.629   4.413 -0.8464 -1.9117 -1.1093
 9384SOL    HW229254   1.771   4.727   4.346  0.5749  1.3737  1.4127
 9385SOL     OW29255   3.119   2.963   0.637  0.0071 -0.0968 -0.1302
 9385SOL    HW129256   3.121   2.873   0.605 -0.4067  0.0011 -0.4303
 9385SOL    HW229257   3.026   2.983   0.648 -0.0099  0.9108 -1.8300
 9386SOL     OW29258   7.574   8.559   5.027 -0.3710 -0.2504 -0.1297
 9386SOL    HW129259   7.553   8.650   5.046  0.5250 -0.0299 -0.1486
 9386SOL    HW229260   7.497   8.510   5.055 -1.4894  0.6392 -1.4965
 9387SOL     OW29261   3.058   6.913   2.864 -0.6236  0.1155  0.1973
 9387SOL    HW129262   3.004   6.894   2.941 -0.3800 -2.0631 -0.0967
 9387SOL    HW229263   2.995   6.929   2.794 -1.0094 -2.5723 -0.1834
 9388SOL     OW29264   0.269   3.328   8.819 -0.2974 -0.5554  0.2612
 9388SOL    HW129265   0.361   3.330   8.792 -0.6844  0.0830 -1.0872
 9388SOL    HW229266   0.271   3.351   8.912  0.8803 -0.2249  0.1642
 9389SOL     OW29267   3.371   1.103   0.840  0.0866 -0.9725 -0.1835
 9389SOL    HW129268   3.429   1.177   0.857 -0.4979  0.0345 -2.2442
 9389SOL    HW229269   3.309   1.105   0.912 -0.8778  1.5832 -0.9611
 9390SOL     OW29270   2.617   4.434   5.697 -0.1445 -0.0493 -0.0087
 9390SOL    HW129271   2.594   4.526   5.711  1.6614  0.6904 -1.6128
 9390SOL    HW229272   2.632   4.427   5.603  2.5802 -1.2637  0.4337
 9391SOL     OW29273   2.374   4.548   6.714  0.6537  0.4923 -0.1168
 9391SOL    HW129274   2.302   4.557   6.778  0.9335  1.7484  0.0579
 9391SOL    HW229275   2.358   4.619   6.651  0.5350 -0.5742 -1.3151
 9392SOL     OW29276   0.598   1.300   1.724 -0.4892 -0.2721  0.3116
 9392SOL    HW129277   0.685   1.267   1.700 -0.4914 -1.3701  1.7106
 9392SOL    HW229278   0.557   1.322   1.640  1.2677  0.6769 -0.3569
 9393SOL     OW29279   0.585   5.168   8.684  0.0670  0.4949 -0.2662
 9393SOL    HW129280   0.548   5.187   8.770 -0.7167 -0.3869 -0.3917
 9393SOL    HW229281   0.517   5.195   8.622  0.1810  0.1406 -0.5527
 9394SOL     OW29282   6.323   4.882   6.000 -0.2671  0.0141 -0.3215
 9394SOL    HW129283   6.343   4.956   6.058  2.2813 -0.1104 -0.9049
 9394SOL    HW229284   6.228   4.871   6.007 -0.2732  0.8906  2.7104
 9395SOL     OW29285   0.019   5.474   6.044  0.2104 -0.2510  0.5265
 9395SOL    HW129286   0.026   5.397   6.101  1.0513 -0.2077  0.5025
 9395SOL    HW229287   0.030   5.440   5.956 -2.2608 -0.4810  0.2447
 9396SOL     OW29288   4.141   1.049   8.797 -0.0155 -0.1313 -0.4107
 9396SOL    HW129289   4.088   1.032   8.720 -0.9525 -0.8413  0.3636
 9396SOL    HW229290   4.095   1.004   8.869  1.1542 -0.0213  0.4478
 9397SOL     OW29291   5.279   6.039   1.611 -0.4948  0.0282  0.0009
 9397SOL    HW129292   5.360   6.023   1.660 -0.7915 -2.3377 -0.1512
 9397SOL    HW229293   5.302   6.105   1.546  0.8202  0.6859  1.0795
 9398SOL     OW29294   5.447   0.954   1.971 -0.0175  0.8006  0.3055
 9398SOL    HW129295   5.542   0.946   1.965 -0.0779 -0.2721  0.5506
 9398SOL    HW229296   5.414   0.918   1.888 -0.3191 -2.1364  1.5693
 9399SOL     OW29297   1.012   6.546   4.948 -0.0764 -0.0802 -0.0408
 9399SOL    HW129298   0.936   6.502   4.910 -0.7106  0.6252  0.3774
 9399SOL    HW229299   0.979   6.632   4.975  0.6277 -0.1391  1.0646
 9400SOL     OW29300   6.180   2.717   5.402 -0.0316  0.7984 -0.2493
 9400SOL    HW129301   6.253   2.656   5.406 -1.8273 -1.6584 -1.7339
 9400SOL    HW229302   6.124   2.693   5.476 -0.0205  1.7259  0.0745
 9401SOL     OW29303   2.776   5.586   1.824 -0.2550 -0.5527 -0.1933
 9401SOL    HW129304   2.845   5.546   1.770  0.2659 -1.1216  0.8613
 9401SOL    HW229305   2.811   5.672   1.846  0.3227 -0.9994  0.6849
 9402SOL     OW29306   8.171   1.172   2.985 -0.1428 -0.2634 -0.2139
 9402SOL    HW129307   8.247   1.122   2.956 -0.0995 -0.6326  0.5107
 9402SOL    HW229308   8.208   1.251   3.025 -0.0770 -0.8857  1.0000
 9403SOL     OW29309   0.746   3.921   2.096  0.0824 -0.3130  0.1814
 9403SOL    HW129310   0.669   3.954   2.142  0.3172  0.1811  0.2218
 9403SOL    HW229311   0.714   3.845   2.047  0.0065 -1.4220  1.8603
 9404SOL     OW29312   6.654   0.728   7.310 -0.0708  0.7030  0.3021
 9404SOL    HW129313   6.608   0.645   7.323 -0.4496  0.7490 -0.6640
 9404SOL    HW229314   6.692   0.748   7.396 -0.4025 -0.2073  0.6757
 9405SOL     OW29315   4.901   8.994   6.118 -0.6419 -0.6815  0.0980
 9405SOL    HW129316   4.932   8.940   6.045 -1.7454 -0.4685 -0.5453
 9405SOL    HW229317   4.967   9.063   6.127 -0.3539 -0.8698 -0.5156
 9406SOL     OW29318   7.800   1.280   2.813  0.0480 -0.1855  0.2616
 9406SOL    HW129319   7.860   1.239   2.750 -0.7472  0.5957 -1.0528
 9406SOL    HW229320   7.839   1.260   2.899  2.1981  0.3195 -0.5188
 9407SOL     OW29321   3.115   0.025   5.155 -0.3226  0.3210  0.2116
 9407SOL    HW129322   3.041  -0.025   5.189 -1.1934  0.5241 -1.3062
 9407SOL    HW229323   3.078   0.111   5.134  0.9914  1.4258  2.0941
 9408SOL     OW29324   9.038   1.398   8.678  0.2438  0.3967  0.0439
 9408SOL    HW129325   9.089   1.337   8.625  0.3603 -0.7297  1.3834
 9408SOL    HW229326   8.953   1.355   8.689  0.1838  0.6616  0.6513
 9409SOL     OW29327   5.665   7.882   0.291 -0.1174  0.0384  0.5344
 9409SOL    HW129328   5.726   7.952   0.316 -0.3952 -0.4501  2.7879
 9409SOL    HW229329   5.621   7.858   0.373  0.8338 -3.6256  0.1282
 9410SOL     OW29330   0.974   4.978   1.569  0.0762  0.0733  0.2458
 9410SOL    HW129331   0.934   5.037   1.632  2.0371 -0.7012  2.3199
 9410SOL    HW229332   1.006   5.035   1.499 -2.1238  0.9434 -0.1133
 9411SOL     OW29333   0.055   6.621   3.108  0.3486  0.7461  0.6293
 9411SOL    HW129334   0.078   6.529   3.115  1.4326  1.0242  0.9307
 9411SOL    HW229335   0.010   6.629   3.024  1.7750  0.2439 -0.2105
 9412SOL     OW29336   3.930   5.432   0.991  0.4161 -0.0434  0.2662
 9412SOL    HW129337   3.943   5.367   0.922  2.0955 -0.1253  0.5971
 9412SOL    HW229338   3.976   5.510   0.958  0.7545  0.0905  1.0293
 9413SOL     OW29339   4.554   8.334   8.626  0.1790  0.7566 -0.1037
 9413SOL    HW129340   4.513   8.314   8.710 -1.3546  0.4090 -0.9055
 9413SOL    HW229341   4.547   8.429   8.617 -1.2907  0.6230 -0.6174
 9414SOL     OW29342   2.999   0.422   8.560  0.0113  0.5104  1.0669
 9414SOL    HW129343   2.912   0.454   8.586  0.5712  2.0287  1.1445
 9414SOL    HW229344   2.984   0.378   8.477 -0.5673  2.3881  0.1159
 9415SOL     OW29345   5.505   0.917   1.592 -0.0186  0.3729 -0.0126
 9415SOL    HW129346   5.582   0.860   1.582 -0.8905 -0.4769 -2.8151
 9415SOL    HW229347   5.436   0.858   1.623 -0.1363  0.6120  0.1836
 9416SOL     OW29348   4.564   5.919   8.879 -0.1457  0.0391  0.5249
 9416SOL    HW129349   4.617   5.904   8.958  1.4879  0.7392 -0.3791
 9416SOL    HW229350   4.478   5.884   8.901  0.0298  0.8742  2.9068
 9417SOL     OW29351   5.851   0.328   9.049 -0.3582 -0.5750 -0.3164
 9417SOL    HW129352   5.903   0.358   9.123 -2.0195  1.5579  0.0790
 9417SOL    HW229353   5.907   0.265   9.004  1.9408  0.5009  0.9018
 9418SOL     OW29354   3.722   0.203   4.246  0.4169  1.0852  0.0685
 9418SOL    HW129355   3.670   0.136   4.201 -0.2572  1.4913  0.2364
 9418SOL    HW229356   3.701   0.193   4.338 -0.2571  1.9936  0.0319
 9419SOL     OW29357   8.439   7.141   2.047 -0.4117  0.0353  0.4459
 9419SOL    HW129358   8.347   7.129   2.022 -1.1030  1.3493  2.1335
 9419SOL    HW229359   8.435   7.167   2.139  1.6930 -0.2322  0.6559
 9420SOL     OW29360   7.553   1.583   6.234  0.3780 -0.1860 -0.0246
 9420SOL    HW129361   7.606   1.585   6.314  0.5709  1.8942 -0.1526
 9420SOL    HW229362   7.530   1.675   6.219  0.7395 -0.4597 -2.6097
 9421SOL     OW29363   5.317   3.081   1.746 -0.0601 -0.4453 -0.1575
 9421SOL    HW129364   5.279   3.012   1.692  2.0213 -0.6379 -1.5007
 9421SOL    HW229365   5.249   3.149   1.749 -0.5462 -0.7416 -2.4617
 9422SOL     OW29366   4.768   7.908   7.781  0.1988 -0.2363  0.3512
 9422SOL    HW129367   4.708   7.907   7.707 -0.9031  0.1794  1.2180
 9422SOL    HW229368   4.812   7.822   7.777  0.2465 -0.1752 -0.8238
 9423SOL     OW29369   8.661   3.223   7.990  0.0211 -0.5882  0.0530
 9423SOL    HW129370   8.640   3.241   7.899 -0.5358  1.1830  0.5009
 9423SOL    HW229371   8.610   3.144   8.011  0.6397 -1.3723 -1.3189
 9424SOL     OW29372   2.673   7.546   3.947  0.2719  0.5472  0.7652
 9424SOL    HW129373   2.684   7.462   3.991  0.4917  0.6943  0.9925
 9424SOL    HW229374   2.762   7.581   3.941  0.3590  0.1615 -0.5157
 9425SOL     OW29375   9.087   5.196   0.886 -0.5832 -0.0595  0.4931
 9425SOL    HW129376   8.995   5.216   0.870 -0.6756 -0.3641  0.6372
 9425SOL    HW229377   9.126   5.192   0.798 -0.5222  0.9060  0.4585
 9426SOL     OW29378   1.821   8.896   0.021  0.1654 -0.2046  0.0713
 9426SOL    HW129379   1.784   8.983   0.004 -0.1422 -0.6110 -1.4255
 9426SOL    HW229380   1.839   8.896   0.115 -2.2305  0.5312  0.5791
 9427SOL     OW29381   0.246   2.878   4.772  0.5049  0.3047  0.5256
 9427SOL    HW129382   0.316   2.935   4.803  2.1267 -0.6130 -1.2185
 9427SOL    HW229383   0.254   2.881   4.676 -0.8858 -0.9947  0.3397
 9428SOL     OW29384   3.877   8.007   3.327  0.1086  0.8704  0.3132
 9428SOL    HW129385   3.829   8.053   3.396 -0.3597  0.8071  0.0328
 9428SOL    HW229386   3.938   8.072   3.292  0.6896  0.7653  1.1085
 9429SOL     OW29387   0.888   4.065   2.708  0.4629 -0.0051 -0.4414
 9429SOL    HW129388   0.804   4.019   2.712  0.6163 -0.2627 -0.2186
 9429SOL    HW229389   0.868   4.153   2.742  0.3158 -0.1108 -0.2532
 9430SOL     OW29390   8.274   6.007   6.212 -0.0866  0.7039 -0.0796
 9430SOL    HW129391   8.295   6.087   6.164  1.6186  0.5881  0.3925
 9430SOL    HW229392   8.337   6.006   6.285  0.2608 -1.2886 -0.3468
 9431SOL     OW29393   2.232   4.254   3.671  0.0020 -0.0098  0.1861
 9431SOL    HW129394   2.290   4.211   3.734  0.3288 -0.3184 -0.3192
 9431SOL    HW229395   2.267   4.230   3.585 -0.8080 -0.1026 -0.1267
 9432SOL     OW29396   0.992   8.926   6.928 -0.0126  0.4813 -0.7949
 9432SOL    HW129397   0.988   9.012   6.969 -0.1122 -0.3175  0.9769
 9432SOL    HW229398   0.923   8.927   6.862 -0.9723  1.3101  0.1773
 9433SOL     OW29399   1.450   1.512   7.196 -0.1390  0.1976  0.0066
 9433SOL    HW129400   1.379   1.569   7.225 -0.0810 -0.4280  1.4244
 9433SOL    HW229401   1.529   1.567   7.202 -0.0740 -0.0253  1.4274
 9434SOL     OW29402   6.530   8.206   9.100  0.1132 -0.1155  0.0489
 9434SOL    HW129403   6.625   8.214   9.098  0.4692 -3.2345 -0.7411
 9434SOL    HW229404   6.499   8.268   9.034  1.6062  0.6124 -0.0039
 9435SOL     OW29405   6.733   2.053   1.996 -0.1420  0.1139 -0.2821
 9435SOL    HW129406   6.661   1.997   2.025  0.6155 -1.2685 -0.9614
 9435SOL    HW229407   6.786   2.067   2.074 -0.0443 -0.5808 -0.2204
 9436SOL     OW29408   6.597   5.077   5.399 -0.3638 -0.1825  0.2430
 9436SOL    HW129409   6.619   4.984   5.391 -2.2817 -0.6034 -0.8787
 9436SOL    HW229410   6.510   5.077   5.439  0.1038  1.2108  1.3344
 9437SOL     OW29411   2.771   7.836   0.352 -0.0933  0.8697  0.1569
 9437SOL    HW129412   2.816   7.918   0.333  1.4570  0.3542  1.3728
 9437SOL    HW229413   2.700   7.861   0.411 -1.3899  1.6693 -1.6542
 9438SOL     OW29414   5.218   8.000   7.535  0.0381 -0.5116  0.2904
 9438SOL    HW129415   5.229   7.960   7.621 -0.0627  1.0290  1.0643
 9438SOL    HW229416   5.274   8.078   7.537  0.9924 -1.0894 -1.5043
 9439SOL     OW29417   1.445   2.126   7.481 -0.3254  0.4417 -0.0458
 9439SOL    HW129418   1.370   2.136   7.540  0.2104  1.0344  0.5557
 9439SOL    HW229419   1.519   2.163   7.530  0.3632 -0.1313 -0.6251
 9440SOL     OW29420   7.322   3.989   7.999 -0.4040 -0.2598  0.0226
 9440SOL    HW129421   7.396   4.023   7.949 -0.8117  3.0135  1.4226
 9440SOL    HW229422   7.247   4.039   7.969 -0.7058  1.7129  3.5516
 9441SOL     OW29423   5.821   5.531   4.096  0.7465  0.0454 -0.4607
 9441SOL    HW129424   5.782   5.489   4.173 -0.1215  2.7884  0.7186
 9441SOL    HW229425   5.756   5.520   4.027 -0.0554  0.5486  0.1967
 9442SOL     OW29426   8.717   6.126   1.328  0.0708 -0.2790  0.5069
 9442SOL    HW129427   8.786   6.100   1.388  0.4546  0.3437  0.3519
 9442SOL    HW229428   8.637   6.090   1.365  0.3476 -0.1688  1.2169
 9443SOL     OW29429   9.084   7.730   6.611  0.0993 -0.2503 -0.1806
 9443SOL    HW129430   9.120   7.817   6.595 -1.9847  0.5252 -0.9995
 9443SOL    HW229431   9.037   7.738   6.694 -0.5926 -0.4151 -0.5508
 9444SOL     OW29432   2.173   8.604   4.605 -0.4188  0.2739  0.7453
 9444SOL    HW129433   2.267   8.619   4.613 -0.4999  1.3509 -0.0495
 9444SOL    HW229434   2.142   8.596   4.696  0.4698 -0.3945  1.0020
 9445SOL     OW29435   3.194   7.531   6.737 -0.1605  0.1556 -0.3719
 9445SOL    HW129436   3.152   7.544   6.652  2.1375  0.8232 -1.4968
 9445SOL    HW229437   3.248   7.609   6.749 -0.2616 -0.0267  1.6299
 9446SOL     OW29438   2.685   7.649   2.251  0.4429 -0.2362 -0.1312
 9446SOL    HW129439   2.593   7.644   2.276  0.6810 -0.0834  0.8329
 9446SOL    HW229440   2.701   7.742   2.235  0.7176 -0.0955  0.9023
 9447SOL     OW29441   6.140   3.007   4.510 -0.1785  0.0680 -0.1831
 9447SOL    HW129442   6.056   3.026   4.553  0.1643 -0.2626  0.6563
 9447SOL    HW229443   6.122   2.931   4.455 -0.0108 -1.2392  1.4669
 9448SOL     OW29444   4.612   0.955   2.339 -0.3984 -0.1264 -0.8248
 9448SOL    HW129445   4.531   0.904   2.336 -1.0145  0.7792 -0.1434
 9448SOL    HW229446   4.591   1.030   2.395  1.3043 -0.5683  0.5075
 9449SOL     OW29447   4.340   2.685   8.947 -0.0313 -0.0214  0.0929
 9449SOL    HW129448   4.399   2.630   8.895 -0.9641 -0.1373 -0.8770
 9449SOL    HW229449   4.300   2.744   8.884  0.2837  1.1863  0.9919
 9450SOL     OW29450   3.393   8.870   1.914  0.2725  0.0625 -0.1740
 9450SOL    HW129451   3.359   8.916   1.990  1.0345  0.6387 -0.1645
 9450SOL    HW229452   3.316   8.835   1.869 -0.1114 -2.4271  2.1414
 9451SOL     OW29453   2.935   8.209   4.982  0.4536  0.0324  0.6634
 9451SOL    HW129454   2.991   8.276   4.943 -0.3055 -0.0693 -0.6770
 9451SOL    HW229455   2.982   8.128   4.969 -0.9810 -0.4321 -2.7983
 9452SOL     OW29456   4.849   2.476   2.231  0.1718  0.1278  0.1835
 9452SOL    HW129457   4.922   2.537   2.242  0.9056 -0.1797 -2.2819
 9452SOL    HW229458   4.807   2.471   2.317  2.2190  1.3812  1.3115
 9453SOL     OW29459   2.635   3.260   1.117 -0.1914  0.2787 -0.5552
 9453SOL    HW129460   2.557   3.220   1.078 -0.0986 -0.9797  0.4764
 9453SOL    HW229461   2.633   3.230   1.208  1.1485  0.7674 -0.3561
 9454SOL     OW29462   1.890   3.085   4.114  0.4611  0.2198 -0.0506
 9454SOL    HW129463   1.874   2.997   4.147  0.9618  0.6398  1.3834
 9454SOL    HW229464   1.819   3.138   4.151  1.2033  0.7609  0.6171
 9455SOL     OW29465   3.819   6.310   0.642  0.2997 -0.1986  0.6582
 9455SOL    HW129466   3.781   6.397   0.652 -0.8050 -0.6854  0.8193
 9455SOL    HW229467   3.796   6.264   0.722 -0.5683 -1.1624 -0.1124
 9456SOL     OW29468   1.960   8.318   8.145  0.7365  0.1815  0.0097
 9456SOL    HW129469   2.022   8.350   8.211 -0.3622 -1.4714  1.9740
 9456SOL    HW229470   1.883   8.375   8.155  1.1067  0.8734 -0.9323
 9457SOL     OW29471   1.850   2.782   9.090  0.6889 -0.2809 -0.8360
 9457SOL    HW129472   1.860   2.827   9.174  0.6119 -0.0763 -0.9357
 9457SOL    HW229473   1.758   2.791   9.069  0.5414 -1.0375 -0.5523
 9458SOL     OW29474   7.561   5.780   5.155 -0.1018 -0.0356 -0.2793
 9458SOL    HW129475   7.551   5.705   5.097 -0.4868 -0.0855 -0.1514
 9458SOL    HW229476   7.540   5.856   5.100 -1.4327 -0.1545  0.0406
 9459SOL     OW29477   3.102   3.542   1.292 -0.3224  0.2267  0.4694
 9459SOL    HW129478   3.088   3.456   1.333 -2.6033  0.1366 -0.3288
 9459SOL    HW229479   3.078   3.605   1.360  1.3640  0.2899  1.0597
 9460SOL     OW29480   1.177   9.062   7.361  0.5454  0.2316  0.0571
 9460SOL    HW129481   1.166   9.150   7.327 -1.6344 -0.0656 -0.1328
 9460SOL    HW229482   1.172   9.005   7.284 -1.9561 -0.2718  0.4983
 9461SOL     OW29483   4.003   4.002   8.704  0.2167  0.0692 -0.1227
 9461SOL    HW129484   4.076   4.063   8.714 -0.2170  0.5197  0.3229
 9461SOL    HW229485   3.966   3.993   8.792  0.5275 -1.1549 -0.1089
 9462SOL     OW29486   5.901   6.399   8.162 -0.4314 -0.2932  0.1866
 9462SOL    HW129487   5.931   6.474   8.213  0.6437 -0.6394  0.0864
 9462SOL    HW229488   5.818   6.374   8.202 -0.1129  0.0793  1.0940
 9463SOL     OW29489   5.578   6.976   1.412 -0.3458  0.3976 -0.1409
 9463SOL    HW129490   5.505   7.026   1.450 -0.8947 -0.0238 -0.6317
 9463SOL    HW229491   5.623   6.939   1.488 -2.2347 -1.5712  0.1261
 9464SOL     OW29492   0.640   5.937   6.541  0.2865  0.1167 -0.3230
 9464SOL    HW129493   0.548   5.909   6.539  0.1389  0.3260  1.5680
 9464SOL    HW229494   0.686   5.870   6.490 -0.6433 -1.2019  0.4930
 9465SOL     OW29495   3.725   7.365   4.099  0.0638  0.4000 -0.5386
 9465SOL    HW129496   3.650   7.320   4.139 -0.8679  1.4112 -1.0705
 9465SOL    HW229497   3.690   7.451   4.074  1.2397  0.6531 -1.3909
 9466SOL     OW29498   1.574   6.970   4.891  0.0234 -0.2239 -0.2706
 9466SOL    HW129499   1.498   6.912   4.900  0.7119 -1.3393 -1.3789
 9466SOL    HW229500   1.563   7.010   4.805  1.7032 -1.9587 -1.3589
 9467SOL     OW29501   7.935   5.402   4.761 -0.1683  0.1207  0.8561
 9467SOL    HW129502   7.981   5.422   4.842 -0.6046 -1.2999  1.4874
 9467SOL    HW229503   7.941   5.306   4.753  2.3099  0.3612 -2.2609
 9468SOL     OW29504   2.462   1.980   7.729 -0.5472 -0.4480  0.3766
 9468SOL    HW129505   2.390   1.945   7.678 -0.2992  1.9808 -1.8730
 9468SOL    HW229506   2.420   2.020   7.805 -1.4118 -0.4252 -0.1019
 9469SOL     OW29507   0.973   6.693   6.470 -0.9960  0.6430 -0.0662
 9469SOL    HW129508   0.982   6.598   6.465  1.1724  0.7690  0.3269
 9469SOL    HW229509   0.983   6.723   6.380 -2.4683  0.4849 -0.3067
 9470SOL     OW29510   5.652   8.827   6.431 -0.1729  0.4542 -0.5474
 9470SOL    HW129511   5.644   8.912   6.387  1.2780  0.7555 -0.2715
 9470SOL    HW229512   5.655   8.763   6.360  1.0208  0.8389 -0.8553
 9471SOL     OW29513   5.548   8.364   6.657  0.1449 -0.2800  0.4788
 9471SOL    HW129514   5.492   8.300   6.702  0.0909 -0.8972 -0.4316
 9471SOL    HW229515   5.631   8.361   6.705 -0.6890  0.9208  2.0766
 9472SOL     OW29516   4.554   2.666   3.477 -0.4237  0.1420  0.1087
 9472SOL    HW129517   4.627   2.694   3.531  0.3563  0.7838 -1.2444
 9472SOL    HW229518   4.511   2.597   3.529  2.2364 -1.6058  0.1648
 9473SOL     OW29519   8.274   7.726   7.458  0.1252  0.4238 -0.1726
 9473SOL    HW129520   8.253   7.771   7.377 -0.7936 -1.2545 -0.9068
 9473SOL    HW229521   8.355   7.678   7.439  0.2287  0.4883  0.0941
 9474SOL     OW29522   3.312   2.999   3.572  0.3613  0.6978  0.3349
 9474SOL    HW129523   3.277   3.050   3.645  0.4355  1.0176  0.1518
 9474SOL    HW229524   3.407   3.003   3.583  0.4221  1.7221 -0.4129
 9475SOL     OW29525   3.117   0.718   0.675  0.2926  0.3962 -0.7706
 9475SOL    HW129526   3.206   0.688   0.660 -0.2573 -0.9536 -1.5366
 9475SOL    HW229527   3.114   0.743   0.767  1.0078 -1.1642 -0.3077
 9476SOL     OW29528   2.789   8.896   2.964 -0.3976 -0.1066  0.2296
 9476SOL    HW129529   2.773   8.881   2.871  1.1991 -0.0136 -0.0879
 9476SOL    HW229530   2.846   8.973   2.966 -0.8390  0.2117  1.3235
 9477SOL     OW29531   2.325   2.850   5.638 -0.1909 -0.0496 -0.5586
 9477SOL    HW129532   2.323   2.892   5.724 -0.6828  2.5130 -1.7304
 9477SOL    HW229533   2.233   2.843   5.611  0.0420  1.8088 -2.0134
 9478SOL     OW29534   8.104   7.453   5.300  0.3726 -0.2688 -0.6325
 9478SOL    HW129535   8.149   7.369   5.302 -0.5844 -0.9806 -3.6536
 9478SOL    HW229536   8.170   7.514   5.268  0.8642  0.0241  0.8771
 9479SOL     OW29537   3.980   8.363   1.405  0.4229 -0.6731  0.6981
 9479SOL    HW129538   4.044   8.291   1.404 -0.3206 -1.3460 -0.1109
 9479SOL    HW229539   3.909   8.332   1.349 -0.1909  0.4532  0.8360
 9480SOL     OW29540   5.447   5.503   6.080  0.3158  0.2136 -0.0088
 9480SOL    HW129541   5.510   5.568   6.111 -0.6167  0.3694  1.6970
 9480SOL    HW229542   5.478   5.420   6.116  0.7530 -0.0648 -1.0247
 9481SOL     OW29543   8.883   4.130   5.421 -0.1095 -0.0508  0.3623
 9481SOL    HW129544   8.836   4.063   5.470 -0.9663  0.4539  0.2647
 9481SOL    HW229545   8.922   4.186   5.489 -2.5472  1.5358  0.6053
 9482SOL     OW29546   5.354   5.553   7.824 -0.0295  0.2185 -0.4009
 9482SOL    HW129547   5.274   5.571   7.873 -1.9991 -2.9502 -2.0642
 9482SOL    HW229548   5.365   5.628   7.767 -1.1486  1.2289  0.6554
 9483SOL     OW29549   4.776   5.415   4.316  0.4187  0.1780  0.5855
 9483SOL    HW129550   4.843   5.440   4.252 -1.8712  1.7600 -1.3787
 9483SOL    HW229551   4.813   5.440   4.400  2.2412  1.1114 -0.4305
 9484SOL     OW29552   2.971   5.360   1.731  0.2096  0.2145  0.3815
 9484SOL    HW129553   2.922   5.279   1.717  0.1008  0.2272  0.6720
 9484SOL    HW229554   2.975   5.369   1.827 -0.9605  1.2510  0.3621
 9485SOL     OW29555   9.086   1.147   3.169 -0.0602 -0.5048 -0.2136
 9485SOL    HW129556   9.115   1.201   3.243  0.3117 -0.9969  0.0084
 9485SOL    HW229557   9.023   1.087   3.207 -1.1170  0.3155 -0.6255
 9486SOL     OW29558   2.268   8.988   8.399  0.0023  0.2212  0.1619
 9486SOL    HW129559   2.325   8.916   8.426 -0.0050 -0.0980 -0.6472
 9486SOL    HW229560   2.233   8.960   8.314 -0.7878  0.7338  0.3120
 9487SOL     OW29561   8.364   5.744   4.085  0.6148 -0.3157  0.2254
 9487SOL    HW129562   8.423   5.695   4.142  3.2815 -0.2855 -2.2752
 9487SOL    HW229563   8.382   5.711   3.997 -0.4114  2.3203 -1.1028
 9488SOL     OW29564   1.573   3.813   4.441 -0.2284  0.2402 -0.2665
 9488SOL    HW129565   1.503   3.749   4.423  0.5866 -0.2354 -1.8475
 9488SOL    HW229566   1.625   3.771   4.510 -1.4773  0.6245  0.9825
 9489SOL     OW29567   5.399   8.415   7.144 -0.0970 -0.2450 -0.5474
 9489SOL    HW129568   5.313   8.420   7.101 -0.3489 -0.9737 -0.1612
 9489SOL    HW229569   5.420   8.505   7.167 -0.8572 -0.0713 -0.4833
 9490SOL     OW29570   1.125   7.674   6.174  0.0761  0.0144  0.1258
 9490SOL    HW129571   1.171   7.614   6.115 -0.3028  1.3141 -1.5656
 9490SOL    HW229572   1.069   7.618   6.227  0.1139 -1.1856 -1.0561
 9491SOL     OW29573   4.995   2.723   3.484 -0.2745  0.5053  0.0007
 9491SOL    HW129574   5.065   2.787   3.479 -1.2439  1.5587 -0.4081
 9491SOL    HW229575   5.029   2.646   3.437  0.8533  0.7421  0.4125
 9492SOL     OW29576   5.344   0.707   1.143  0.7772 -0.4836  0.1288
 9492SOL    HW129577   5.368   0.797   1.165  1.2630 -0.4943 -0.3458
 9492SOL    HW229578   5.299   0.674   1.221 -2.1806  1.1354 -0.7290
 9493SOL     OW29579   3.926   8.707   0.758  0.0830 -0.5773  0.4341
 9493SOL    HW129580   3.845   8.672   0.796 -0.0991  0.8634  1.4295
 9493SOL    HW229581   3.993   8.689   0.823  0.0661  0.5106  0.7678
 9494SOL     OW29582   7.673   4.283   8.765  0.4694  0.2589 -0.7094
 9494SOL    HW129583   7.750   4.252   8.814 -0.0535 -1.2113 -0.7451
 9494SOL    HW229584   7.685   4.248   8.677 -1.4427 -2.3277 -0.0739
 9495SOL     OW29585   6.768   5.980   4.208  0.1744  0.0715  0.1562
 9495SOL    HW129586   6.781   6.068   4.173 -0.4015  0.5028  0.9777
 9495SOL    HW229587   6.781   5.990   4.302 -3.3575  0.0730  0.7800
 9496SOL     OW29588   8.797   5.132   4.035 -0.3415 -0.1111  0.1225
 9496SOL    HW129589   8.795   5.228   4.037  0.1453 -0.0524 -1.2825
 9496SOL    HW229590   8.804   5.107   4.128 -1.3402  1.1657  0.5774
 9497SOL     OW29591   8.824   5.971   0.328  0.0981 -0.7504  0.1708
 9497SOL    HW129592   8.906   5.930   0.354  1.5791  2.7568  1.6587
 9497SOL    HW229593   8.769   5.967   0.405  0.9674  1.4709  0.9920
 9498SOL     OW29594   8.998   1.746   2.790 -0.0820  0.6377  0.3860
 9498SOL    HW129595   8.904   1.728   2.789 -0.2836  1.4488 -2.1091
 9498SOL    HW229596   9.039   1.661   2.778 -0.5952  0.4737 -0.2859
 9499SOL     OW29597   2.810   5.812   5.547  0.3380  0.2672  0.1593
 9499SOL    HW129598   2.905   5.814   5.545  0.3899  0.0236  1.3484
 9499SOL    HW229599   2.789   5.734   5.599 -0.4853  0.6195  0.3784
 9500SOL     OW29600   7.833   5.773   6.306 -0.0229 -0.3336 -0.3403
 9500SOL    HW129601   7.924   5.780   6.336 -0.7251 -0.4172  1.9221
 9500SOL    HW229602   7.804   5.687   6.336 -1.2554  0.2373  0.1509
 9501SOL     OW29603   6.369   0.666   4.272  0.1835 -0.1173  0.1622
 9501SOL    HW129604   6.413   0.596   4.224  0.1199 -1.1109  1.4821
 9501SOL    HW229605   6.441   0.714   4.313  0.2970  1.2635 -1.5468
 9502SOL     OW29606   0.477   9.119   7.491  0.1372 -0.1635 -0.2660
 9502SOL    HW129607   0.487   9.093   7.583  1.6390 -0.1766 -0.3974
 9502SOL    HW229608   0.558   9.090   7.449  0.8275  2.4087 -0.9469
 9503SOL     OW29609   1.196   4.281   4.077 -0.5185  0.3877 -0.0576
 9503SOL    HW129610   1.193   4.348   4.009 -0.1864  0.4752  0.0134
 9503SOL    HW229611   1.272   4.303   4.130  0.3328 -0.7173 -0.7534
 9504SOL     OW29612   1.125   5.369   6.429  0.4038 -0.4010 -0.5355
 9504SOL    HW129613   1.099   5.331   6.345  2.6903 -0.9850 -1.0362
 9504SOL    HW229614   1.201   5.317   6.457  0.9329  1.0569  0.8964
 9505SOL     OW29615   6.027   8.000   8.670  0.3325 -0.3467  0.0539
 9505SOL    HW129616   6.088   7.934   8.638  0.8978 -0.0971  0.6032
 9505SOL    HW229617   5.975   7.956   8.736 -0.1231 -0.5702 -0.4409
 9506SOL     OW29618   8.962   5.339   7.879  0.2670 -0.7023 -0.3910
 9506SOL    HW129619   8.875   5.322   7.842 -0.1293  1.2566 -0.5064
 9506SOL    HW229620   8.991   5.418   7.834  1.1250 -0.0240  1.2747
 9507SOL     OW29621   7.960   7.109   3.395 -0.0858 -0.0175 -0.3571
 9507SOL    HW129622   8.037   7.123   3.340 -0.9145 -0.4204 -1.6657
 9507SOL    HW229623   7.898   7.177   3.369 -0.0045  0.6439  1.0715
 9508SOL     OW29624   8.637   6.901   5.050  0.0579 -0.1867  0.0131
 9508SOL    HW129625   8.623   6.808   5.066 -0.4472 -0.2774 -0.9067
 9508SOL    HW229626   8.732   6.912   5.056  0.2460 -1.0158 -1.1213
 9509SOL     OW29627   7.809   5.812   4.260 -0.2525 -0.1668 -0.2064
 9509SOL    HW129628   7.750   5.867   4.209 -0.3465 -0.1785 -0.1086
 9509SOL    HW229629   7.870   5.873   4.301 -0.0960 -0.1655 -0.4362
 9510SOL     OW29630   4.684   2.972   1.711  0.5688  0.1506 -0.2414
 9510SOL    HW129631   4.717   3.058   1.736 -2.1716  1.1496  0.2390
 9510SOL    HW229632   4.597   2.989   1.675  0.0321 -2.4100 -0.3457
 9511SOL     OW29633   6.054   0.950   2.794  0.0996 -0.1568 -0.1599
 9511SOL    HW129634   6.001   0.952   2.714 -0.3442 -0.7121  0.1079
 9511SOL    HW229635   6.037   1.034   2.836  1.7864  0.9480 -1.5411
 9512SOL     OW29636   7.664   3.618   2.909  0.0214  0.4660  0.2462
 9512SOL    HW129637   7.642   3.525   2.906 -1.2174  0.6131  2.6180
 9512SOL    HW229638   7.696   3.632   2.998 -1.8116  2.6694  0.6486
 9513SOL     OW29639   2.121   3.857   4.231  0.3157 -0.2528  0.1269
 9513SOL    HW129640   2.143   3.871   4.139 -1.0152 -1.9297 -0.4965
 9513SOL    HW229641   2.146   3.939   4.274  1.7086  0.2759 -1.5649
 9514SOL     OW29642   5.023   3.742   1.619  0.2095  0.0763  0.1450
 9514SOL    HW129643   5.102   3.695   1.647 -0.0664 -0.8135 -0.5159
 9514SOL    HW229644   5.051   3.833   1.612  0.3486  0.3687  3.1042
 9515SOL     OW29645   9.028   3.897   4.502 -0.6431  0.2538  0.2810
 9515SOL    HW129646   9.077   3.847   4.437 -0.3632  0.3609  0.4070
 9515SOL    HW229647   8.937   3.873   4.487 -0.4302 -1.3072  1.1587
 9516SOL     OW29648   7.861   9.037   3.763 -0.4900  0.0431 -0.9865
 9516SOL    HW129649   7.869   9.116   3.816  1.9354 -0.4805 -0.4642
 9516SOL    HW229650   7.782   8.993   3.797 -2.2380  2.4613 -1.7017
 9517SOL     OW29651   5.494   1.339   4.370  0.1260  0.1510  0.6082
 9517SOL    HW129652   5.575   1.371   4.331  0.7743 -1.3709  0.6654
 9517SOL    HW229653   5.504   1.244   4.375 -0.9984  0.0580  2.0850
 9518SOL     OW29654   5.550   0.579   3.932  0.1528 -0.1253  0.8082
 9518SOL    HW129655   5.515   0.668   3.938  0.6419  0.1419 -0.0811
 9518SOL    HW229656   5.473   0.523   3.922 -0.0716  0.5009 -1.6315
 9519SOL     OW29657   4.507   1.731   8.364 -0.5253 -0.3002  0.5694
 9519SOL    HW129658   4.454   1.751   8.441 -2.5323  0.4749 -0.8914
 9519SOL    HW229659   4.506   1.636   8.358 -1.5428 -0.3171  0.7607
 9520SOL     OW29660   3.360   0.578   3.265 -0.1139  0.7716  0.5553
 9520SOL    HW129661   3.424   0.647   3.282  0.8045 -0.1877  1.1231
 9520SOL    HW229662   3.318   0.604   3.182  1.0797  1.3713  0.1101
 9521SOL     OW29663   1.758   6.096   5.504  0.6099  0.3881  0.4122
 9521SOL    HW129664   1.783   6.120   5.593  2.0420  0.4505  0.0204
 9521SOL    HW229665   1.839   6.104   5.454 -0.3598  1.2237 -1.0854
 9522SOL     OW29666   8.860   2.042   1.847  0.6610 -0.9464  0.4737
 9522SOL    HW129667   8.933   2.026   1.788  0.1398 -0.8100 -0.2169
 9522SOL    HW229668   8.812   1.960   1.848  1.0298 -1.1624  1.2334
 9523SOL     OW29669   1.054   8.374   9.079 -0.2221  0.6596 -0.2345
 9523SOL    HW129670   0.986   8.434   9.111 -1.2859 -0.5114 -0.1844
 9523SOL    HW229671   1.132   8.428   9.072 -0.6915  1.6640  1.4603
 9524SOL     OW29672   6.314   5.129   0.220 -0.1162  0.2989  0.6408
 9524SOL    HW129673   6.355   5.188   0.284  0.7420  2.4743 -1.6863
 9524SOL    HW229674   6.385   5.111   0.157 -1.6415  0.8956 -1.3533
 9525SOL     OW29675   7.195   4.046   5.731 -0.2801  0.1346  0.2308
 9525SOL    HW129676   7.109   4.081   5.709 -0.4035  0.4594  1.1830
 9525SOL    HW229677   7.198   4.047   5.826 -0.4727 -2.8930  0.3640
 9526SOL     OW29678   2.225   7.044   5.128 -0.5399 -0.2658 -0.4735
 9526SOL    HW129679   2.226   7.135   5.098 -0.5882 -0.6523 -1.7377
 9526SOL    HW229680   2.231   7.049   5.223 -0.1520  1.0465 -0.5509
 9527SOL     OW29681   8.802   5.302   1.309  0.1155 -0.1378 -0.0314
 9527SOL    HW129682   8.890   5.267   1.297 -0.0326 -0.8478  0.9086
 9527SOL    HW229683   8.813   5.376   1.370  0.0551 -0.2435  0.1075
 9528SOL     OW29684   3.574   5.852   1.310  0.1461  0.5402 -0.0655
 9528SOL    HW129685   3.606   5.897   1.231 -0.0950 -1.3598 -1.3059
 9528SOL    HW229686   3.653   5.822   1.354  0.2537  0.9560  0.0337
 9529SOL     OW29687   3.717   1.293   7.949  0.0880  0.0589 -0.4218
 9529SOL    HW129688   3.755   1.267   7.865 -0.0765 -0.2403 -0.4058
 9529SOL    HW229689   3.748   1.227   8.011 -0.2327 -0.0350 -0.3566
 9530SOL     OW29690   3.210   8.992   6.602  0.3740  0.2779  0.3718
 9530SOL    HW129691   3.177   9.016   6.689 -0.0588  1.6477 -0.1481
 9530SOL    HW229692   3.222   9.075   6.556  0.6765 -0.4148 -0.8663
 9531SOL     OW29693   7.086   5.413   3.157 -0.0325  0.2490 -0.4522
 9531SOL    HW129694   7.015   5.351   3.144  0.5060 -0.0008 -2.6130
 9531SOL    HW229695   7.050   5.497   3.128 -0.2360  0.6592  0.9146
 9532SOL     OW29696   4.936   8.974   2.629  0.0473  0.0753  0.1256
 9532SOL    HW129697   4.979   9.041   2.680 -1.9133 -0.3306  2.4854
 9532SOL    HW229698   4.917   9.015   2.545  3.6439  0.6612 -0.5381
 9533SOL     OW29699   3.567   5.027   8.023  0.2537 -0.1216  0.2856
 9533SOL    HW129700   3.512   5.081   7.967 -0.0841 -0.9885 -0.2386
 9533SOL    HW229701   3.530   5.038   8.111  0.3026  0.6272  0.2163
 9534SOL     OW29702   6.508   8.416   4.217 -0.0385 -0.5490  0.5888
 9534SOL    HW129703   6.600   8.432   4.238  0.2014  0.3440 -0.9480
 9534SOL    HW229704   6.470   8.503   4.207 -0.5041 -0.8935 -0.8869
 9535SOL     OW29705   5.781   1.671   8.174  0.1477 -0.6770 -0.0052
 9535SOL    HW129706   5.778   1.628   8.089 -2.5359  0.8344 -0.8268
 9535SOL    HW229707   5.789   1.765   8.153 -2.2245 -0.1172  1.2191
 9536SOL     OW29708   8.209   8.356   2.394 -0.6981 -0.3816  0.1316
 9536SOL    HW129709   8.125   8.326   2.360 -1.1261  2.5669 -1.7287
 9536SOL    HW229710   8.264   8.366   2.317  0.4998  0.2004  1.0325
 9537SOL     OW29711   0.534   8.525   5.646 -0.0050  0.2015 -0.7246
 9537SOL    HW129712   0.570   8.530   5.558 -1.2035  0.0736 -1.2381
 9537SOL    HW229713   0.456   8.580   5.643  1.2639  2.2669  0.9559
 9538SOL     OW29714   7.465   7.543   3.559 -0.0315  0.1606 -0.2624
 9538SOL    HW129715   7.392   7.510   3.507  0.3545  0.4422 -0.9935
 9538SOL    HW229716   7.528   7.471   3.559  0.4683  0.5853 -1.1838
 9539SOL     OW29717   4.732   5.904   0.320  0.1223 -0.5762  0.1318
 9539SOL    HW129718   4.761   5.984   0.278  2.6158 -1.4450  0.0307
 9539SOL    HW229719   4.799   5.886   0.386 -0.0073 -2.9193 -0.2955
 9540SOL     OW29720   6.799   6.815   7.120 -0.0365  0.3132 -0.2913
 9540SOL    HW129721   6.840   6.901   7.103 -1.6291  0.7987 -2.0200
 9540SOL    HW229722   6.843   6.756   7.060 -2.1221  0.9706 -2.6524
 9541SOL     OW29723   1.865   4.128   7.245 -0.3733  0.1369 -0.2694
 9541SOL    HW129724   1.856   4.122   7.150 -0.5674 -2.1300 -0.1609
 9541SOL    HW229725   1.881   4.038   7.273 -0.8441  0.6800  1.9019
 9542SOL     OW29726   1.822   1.451   9.086  0.0483 -0.0696  0.4161
 9542SOL    HW129727   1.844   1.375   9.140 -1.3496 -0.4976  0.4294
 9542SOL    HW229728   1.777   1.511   9.145 -3.1536 -1.3266 -0.5583
 9543SOL     OW29729   8.677   3.045   4.227  0.2496  0.7493  0.0002
 9543SOL    HW129730   8.735   3.112   4.263  2.8386  1.1701 -4.2807
 9543SOL    HW229731   8.589   3.081   4.239  1.1956  2.7073  1.8602
 9544SOL     OW29732   4.289   0.106   3.497 -0.3967  0.2249 -0.0513
 9544SOL    HW129733   4.280   0.186   3.446  1.5047 -0.0480 -0.8822
 9544SOL    HW229734   4.381   0.080   3.487 -0.4869 -1.0253  1.7606
 9545SOL     OW29735   7.694   3.218   4.443 -0.2406  0.0868 -0.1654
 9545SOL    HW129736   7.776   3.216   4.395  0.3260  0.6000  0.7452
 9545SOL    HW229737   7.637   3.274   4.390  0.7723  1.6624  0.3329
 9546SOL     OW29738   1.561   3.775   1.238  0.0427  0.2886 -0.3238
 9546SOL    HW129739   1.482   3.810   1.279 -1.1558 -0.5030 -1.8509
 9546SOL    HW229740   1.539   3.685   1.216  0.8675  0.4550 -1.9968
 9547SOL     OW29741   6.232   8.956   9.064 -0.4419 -1.2903 -0.2944
 9547SOL    HW129742   6.168   8.908   9.116 -2.1389  1.3337  0.2677
 9547SOL    HW229743   6.192   8.962   8.977 -0.8964  0.0892 -0.0249
 9548SOL     OW29744   9.124   3.502   5.558 -0.0132  0.7018 -0.0210
 9548SOL    HW129745   9.110   3.412   5.528 -0.6080  0.8450 -0.1728
 9548SOL    HW229746   9.209   3.498   5.604 -0.8681 -0.3473  1.5688
 9549SOL     OW29747   4.647   4.528   4.895  0.8232 -0.0818 -0.2252
 9549SOL    HW129748   4.571   4.470   4.907 -0.0438  0.9926 -0.3457
 9549SOL    HW229749   4.614   4.599   4.840  2.1419  0.0160 -0.9318
 9550SOL     OW29750   6.618   3.558   0.136 -0.6283 -0.4222 -0.0696
 9550SOL    HW129751   6.695   3.605   0.167 -0.6661 -0.4550  0.0774
 9550SOL    HW229752   6.582   3.517   0.215 -1.8378  1.0768  0.1941
 9551SOL     OW29753   0.281   7.599   4.907  0.0237 -0.8127  0.0562
 9551SOL    HW129754   0.319   7.685   4.892 -0.1719 -0.7716 -0.2149
 9551SOL    HW229755   0.192   7.616   4.936 -0.6732 -0.9333 -1.8587
 9552SOL     OW29756   4.565   0.054   6.906 -0.0420  0.6065 -0.0841
 9552SOL    HW129757   4.575   0.149   6.908  0.6066  0.5378  0.1618
 9552SOL    HW229758   4.643   0.020   6.949 -1.6970  0.0423  2.6814
 9553SOL     OW29759   1.079   7.597   8.673 -0.1819  0.3667  0.4651
 9553SOL    HW129760   1.021   7.525   8.647 -0.6140  0.5960  0.7790
 9553SOL    HW229761   1.100   7.579   8.765  0.3664  0.2111  0.3164
 9554SOL     OW29762   6.271   4.297   7.916 -0.6867  0.1674 -0.1202
 9554SOL    HW129763   6.280   4.391   7.900  1.2810 -0.1537 -1.2960
 9554SOL    HW229764   6.194   4.272   7.866 -0.3944  0.9275 -0.9858
 9555SOL     OW29765   7.658   6.740   3.861  0.3050 -0.2275 -0.1546
 9555SOL    HW129766   7.565   6.727   3.884  0.5963 -0.5722  0.9184
 9555SOL    HW229767   7.689   6.805   3.925  0.8929 -0.3976 -0.2649
 9556SOL     OW29768   0.198   5.333   4.615 -0.0128  0.4035  0.0859
 9556SOL    HW129769   0.153   5.326   4.531  0.7205  1.2889 -0.3960
 9556SOL    HW229770   0.168   5.416   4.652  0.4832  0.5306  0.2085
 9557SOL     OW29771   5.886   6.924   5.017 -0.1588  0.1509  0.6575
 9557SOL    HW129772   5.803   6.878   5.010 -0.8135  1.5202 -1.5420
 9557SOL    HW229773   5.877   6.979   5.095 -0.7939 -0.6042  1.1347
 9558SOL     OW29774   2.356   4.271   3.406  0.3506  0.2473  0.3307
 9558SOL    HW129775   2.274   4.246   3.361 -0.2404 -1.2623  2.1258
 9558SOL    HW229776   2.405   4.319   3.340 -1.0192 -0.7684 -1.5387
 9559SOL     OW29777   0.781   0.871   5.095 -0.8201  0.1435 -0.3449
 9559SOL    HW129778   0.780   0.967   5.090 -1.1555  0.1486 -0.1650
 9559SOL    HW229779   0.690   0.845   5.084 -0.7677 -0.1422 -0.1232
 9560SOL     OW29780   4.348   0.547   5.303 -0.2274  0.0612 -0.0370
 9560SOL    HW129781   4.275   0.579   5.249  0.5108 -0.0938 -1.1719
 9560SOL    HW229782   4.324   0.457   5.324 -1.0512  0.4806  0.8711
 9561SOL     OW29783   6.574   6.389   8.375 -0.6983 -0.7110  0.1310
 9561SOL    HW129784   6.543   6.306   8.338  1.3000 -1.8484  0.8412
 9561SOL    HW229785   6.576   6.449   8.300 -0.7056 -1.7468 -0.7235
 9562SOL     OW29786   2.340   6.660   9.083  0.3259  0.7472 -0.3698
 9562SOL    HW129787   2.271   6.658   9.016  0.7126 -0.1497 -0.7542
 9562SOL    HW229788   2.397   6.587   9.061  1.9679  2.0523 -0.6330
 9563SOL     OW29789   3.194   6.963   6.515 -0.0060  0.0624 -0.1050
 9563SOL    HW129790   3.172   7.009   6.596  3.1350  1.5518  0.0720
 9563SOL    HW229791   3.272   6.913   6.537  1.5030  1.2437 -2.3508
 9564SOL     OW29792   7.321   3.738   3.383  0.1960  0.1220 -0.9880
 9564SOL    HW129793   7.371   3.696   3.313 -0.0219  1.8243 -2.2122
 9564SOL    HW229794   7.247   3.678   3.398 -0.0218 -0.0451 -2.5557
 9565SOL     OW29795   5.609   6.139   5.388  0.2239 -0.4882  0.5914
 9565SOL    HW129796   5.556   6.161   5.465 -1.7355  1.2093 -1.1051
 9565SOL    HW229797   5.633   6.047   5.401 -3.4447 -1.5166  1.4363
 9566SOL     OW29798   9.033   4.960   8.480 -0.3278  0.3129 -0.1514
 9566SOL    HW129799   8.968   4.949   8.411  0.2813  0.6471 -0.7942
 9566SOL    HW229800   9.098   4.892   8.462 -0.6888 -0.2627  0.7089
 9567SOL     OW29801   3.233   5.938   4.756 -0.0425  0.2188  0.3345
 9567SOL    HW129802   3.286   6.018   4.761 -0.3312  0.3258  2.3236
 9567SOL    HW229803   3.143   5.969   4.754 -0.1511 -0.0533  1.0008
 9568SOL     OW29804   3.380   4.444   6.118  0.2040 -0.1864 -0.1322
 9568SOL    HW129805   3.442   4.517   6.122  0.3206 -0.3360  1.7505
 9568SOL    HW229806   3.391   4.407   6.031  3.6464 -0.9438  0.4798
 9569SOL     OW29807   8.638   6.789   3.727 -0.1882  0.2680  0.8870
 9569SOL    HW129808   8.583   6.830   3.794 -1.4617 -0.7005  0.4882
 9569SOL    HW229809   8.655   6.701   3.762 -1.7031 -0.6108 -0.4469
 9570SOL     OW29810   5.268   8.182   0.058  0.2563  0.7691  0.1389
 9570SOL    HW129811   5.356   8.157   0.086 -0.7444  0.1200  2.9607
 9570SOL    HW229812   5.259   8.144  -0.029  1.9386 -1.1937  0.7544
 9571SOL     OW29813   4.185   7.036   3.163  0.0585 -0.4745 -0.1702
 9571SOL    HW129814   4.098   7.010   3.192  0.4405 -1.3107  0.2935
 9571SOL    HW229815   4.239   7.032   3.242  0.6975 -0.8325 -0.6100
 9572SOL     OW29816   3.771   8.035   6.005 -0.3303  0.4629 -0.4700
 9572SOL    HW129817   3.853   8.071   6.038 -0.2332 -0.6651  0.5916
 9572SOL    HW229818   3.743   7.973   6.072 -1.8284  0.4956 -1.0261
 9573SOL     OW29819   3.701   5.913   4.158  0.2261  0.6228 -0.5100
 9573SOL    HW129820   3.623   5.905   4.103 -0.0034 -0.1375 -0.0871
 9573SOL    HW229821   3.713   6.007   4.168 -1.6999  0.7863  0.8648
 9574SOL     OW29822   3.979   4.529   5.572 -0.3890 -0.0654  0.7584
 9574SOL    HW129823   3.963   4.494   5.485  1.7457 -0.9338  0.6496
 9574SOL    HW229824   3.938   4.616   5.572 -0.3534 -0.0276 -1.1257
 9575SOL     OW29825   5.522   4.768   5.579  0.0432 -0.3636 -0.2002
 9575SOL    HW129826   5.574   4.723   5.646 -0.4607 -0.6705 -0.0099
 9575SOL    HW229827   5.520   4.859   5.606 -2.3859 -0.8712  1.7081
 9576SOL     OW29828   8.469   5.032   1.069  0.1288  0.2729  0.2351
 9576SOL    HW129829   8.543   4.975   1.048 -0.9412 -0.7140 -1.0284
 9576SOL    HW229830   8.510   5.112   1.103  1.8338  0.2147 -1.4950
 9577SOL     OW29831   7.206   4.530   2.647  0.2475  0.2285 -0.3260
 9577SOL    HW129832   7.176   4.580   2.723 -0.6478 -0.0496 -0.4918
 9577SOL    HW229833   7.255   4.593   2.595 -0.2788  0.7645 -0.1816
 9578SOL     OW29834   8.662   4.676   7.644 -0.2888 -0.1365  0.5995
 9578SOL    HW129835   8.696   4.683   7.555 -0.0170  0.2526  0.7330
 9578SOL    HW229836   8.739   4.660   7.698 -0.2112  1.4148  0.9890
 9579SOL     OW29837   2.312   3.515   1.790  0.0193 -0.3267  0.0572
 9579SOL    HW129838   2.219   3.540   1.789  0.0148 -0.3263  0.5147
 9579SOL    HW229839   2.329   3.485   1.700 -1.0065 -2.4209  0.5151
 9580SOL     OW29840   0.036   3.620   4.673 -0.1622 -0.4907  0.0413
 9580SOL    HW129841  -0.036   3.624   4.736  0.2477  1.1240  0.4592
 9580SOL    HW229842   0.088   3.699   4.692 -0.2077  0.2414 -2.5491
 9581SOL     OW29843   6.073   3.652   8.635 -0.6813 -0.0374 -0.1188
 9581SOL    HW129844   6.161   3.642   8.671  0.5049  0.7573 -2.5965
 9581SOL    HW229845   6.048   3.563   8.609  0.6866  0.0642 -2.0534
 9582SOL     OW29846   6.252   4.593   1.770  0.2001  0.1320  0.5582
 9582SOL    HW129847   6.282   4.679   1.743  0.0689  0.0670  0.2022
 9582SOL    HW229848   6.208   4.557   1.693  0.9767 -0.5899  0.4303
 9583SOL     OW29849   2.941   7.304   4.745 -0.0069 -0.6114 -0.2978
 9583SOL    HW129850   2.862   7.258   4.775  0.2273 -1.2437 -0.6358
 9583SOL    HW229851   2.993   7.316   4.825 -0.8618  0.6751  0.0989
 9584SOL     OW29852   0.233   0.865   1.578 -0.0831 -0.1374  0.9153
 9584SOL    HW129853   0.183   0.939   1.544 -1.0727 -1.7250 -1.3106
 9584SOL    HW229854   0.320   0.900   1.594 -0.4352  1.4330 -0.3881
 9585SOL     OW29855   9.052   8.416   9.066  1.1429  0.3513 -0.0368
 9585SOL    HW129856   9.020   8.328   9.045  0.0711  0.3933  1.3322
 9585SOL    HW229857   9.148   8.406   9.065  1.0444 -0.7690 -0.1239
 9586SOL     OW29858   5.406   5.885   5.401  0.2233  0.1763  0.1394
 9586SOL    HW129859   5.343   5.940   5.355  0.6903  1.2313  0.7169
 9586SOL    HW229860   5.383   5.895   5.494 -1.0043 -2.2790  0.1743
 9587SOL     OW29861   4.448   2.016   0.165 -0.3755 -0.2021  0.0745
 9587SOL    HW129862   4.537   2.041   0.140 -0.5671  1.3936  0.8353
 9587SOL    HW229863   4.396   2.032   0.086 -0.3603  1.1937  0.3205
 9588SOL     OW29864   0.771   4.762   6.590  0.1175  0.0416  0.4031
 9588SOL    HW129865   0.796   4.843   6.545 -1.4373 -0.1972 -0.9842
 9588SOL    HW229866   0.843   4.746   6.652  1.8895  0.9281 -1.3055
 9589SOL     OW29867   4.251   2.234   1.317  0.2285  0.1847 -0.0234
 9589SOL    HW129868   4.237   2.176   1.392 -0.4072 -0.0303 -0.2999
 9589SOL    HW229869   4.344   2.224   1.296  0.4890  0.4689  0.9091
 9590SOL     OW29870   0.898   8.903   1.043 -0.2636 -0.1377  0.1936
 9590SOL    HW129871   0.899   8.855   1.126  0.6215 -0.1439  0.1839
 9590SOL    HW229872   0.990   8.913   1.019 -0.4438  1.2036 -0.0208
 9591SOL     OW29873   7.681   8.927   5.161 -0.1162  0.2499  0.2255
 9591SOL    HW129874   7.685   8.964   5.073 -0.4770  0.3089  0.2324
 9591SOL    HW229875   7.588   8.909   5.176 -0.1643  1.0013  0.9067
 9592SOL     OW29876   0.149   6.804   7.854  0.1095  0.4018  0.6034
 9592SOL    HW129877   0.071   6.850   7.887 -0.3797 -0.7006  1.0595
 9592SOL    HW229878   0.117   6.754   7.779 -0.2939 -2.0503  2.2550
 9593SOL     OW29879   4.557   5.815   2.409  0.3643  0.2278 -0.6661
 9593SOL    HW129880   4.608   5.882   2.363  1.1939 -0.2004 -0.4073
 9593SOL    HW229881   4.508   5.863   2.476 -0.7822  0.8368 -1.9190
 9594SOL     OW29882   8.528   6.087   2.372  0.7001 -0.6824  0.5694
 9594SOL    HW129883   8.555   6.058   2.285 -1.8318 -1.0933 -0.1589
 9594SOL    HW229884   8.582   6.165   2.389  1.0537 -0.4225 -1.4934
 9595SOL     OW29885   2.967   8.778   5.999  0.2217  0.1658 -0.0137
 9595SOL    HW129886   2.901   8.720   5.961 -0.8709  0.5739  1.1864
 9595SOL    HW229887   3.024   8.721   6.049 -0.9093  0.1035  1.2458
 9596SOL     OW29888   8.929   0.638   1.641 -0.1863 -0.1986 -0.2668
 9596SOL    HW129889   8.855   0.585   1.611  0.9076 -1.8295 -0.2057
 9596SOL    HW229890   8.939   0.706   1.575 -1.0645 -0.6032 -0.8303
 9597SOL     OW29891   0.493   5.214   4.928  0.0895  0.4370  0.1648
 9597SOL    HW129892   0.558   5.144   4.918  0.3098  0.3031  2.2225
 9597SOL    HW229893   0.415   5.180   4.885  1.4970  0.9106 -3.0797
 9598SOL     OW29894   1.766   8.784   4.038 -0.4262 -0.9235 -0.1275
 9598SOL    HW129895   1.794   8.720   3.973  1.1876 -1.2177  0.8028
 9598SOL    HW229896   1.689   8.744   4.080 -0.6047 -1.3657 -0.8690
 9599SOL     OW29897   4.740   8.061   1.788  0.0191 -0.1067  0.5988
 9599SOL    HW129898   4.720   8.122   1.859 -1.2139 -2.1642  2.1476
 9599SOL    HW229899   4.773   8.116   1.717  0.3883  2.1466  2.4146
 9600SOL     OW29900   3.421   5.972   7.612 -0.2971  0.1768  0.3833
 9600SOL    HW129901   3.496   6.020   7.577 -0.3052 -1.3534 -1.9910
 9600SOL    HW229902   3.349   5.994   7.552 -1.4073  0.5143  1.7834
 9601SOL     OW29903   1.622   7.030   3.376  0.1296 -0.3103  0.0330
 9601SOL    HW129904   1.582   6.945   3.394  2.9821 -1.4348  1.5972
 9601SOL    HW229905   1.619   7.077   3.459  0.7176  0.1763 -0.2117
 9602SOL     OW29906   6.503   2.113   5.135  0.3295 -0.2748 -0.2310
 9602SOL    HW129907   6.457   2.047   5.082  1.1523 -0.5003 -0.6826
 9602SOL    HW229908   6.485   2.087   5.225  0.7734 -1.2397 -0.3999
 9603SOL     OW29909   6.232   7.334   9.057 -0.2290 -0.2374  0.1182
 9603SOL    HW129910   6.237   7.337   9.153 -0.8382  1.7272  0.1337
 9603SOL    HW229911   6.155   7.386   9.035  0.5944  0.3961 -1.4713
 9604SOL     OW29912   3.594   8.362   5.672 -0.2819 -0.1101  0.0355
 9604SOL    HW129913   3.499   8.356   5.664 -0.2387 -1.1346  0.0663
 9604SOL    HW229914   3.619   8.436   5.617 -0.7630 -1.9520 -2.8930
 9605SOL     OW29915   4.538   5.808   6.616  0.3347 -0.1880 -0.4561
 9605SOL    HW129916   4.493   5.837   6.695 -0.7518  0.3924 -1.2489
 9605SOL    HW229917   4.568   5.719   6.636  1.7770  0.6335  1.2483
 9606SOL     OW29918   4.924   2.193   0.954  0.1509  0.4799 -0.4702
 9606SOL    HW129919   4.955   2.282   0.935 -2.8134  1.7731  0.1487
 9606SOL    HW229920   4.833   2.193   0.925  0.0735 -2.4083 -0.4754
 9607SOL     OW29921   1.056   5.507   6.788  0.3187 -0.3019 -0.1367
 9607SOL    HW129922   1.012   5.546   6.713 -0.0045  0.5927  0.5043
 9607SOL    HW229923   1.149   5.522   6.773  0.2725 -0.3089 -0.4457
 9608SOL     OW29924   0.808   5.509   8.507  0.2106  0.0235  0.9796
 9608SOL    HW129925   0.728   5.466   8.478  1.5554 -1.6784 -0.4506
 9608SOL    HW229926   0.840   5.454   8.579  0.1855  0.6229  1.4595
 9609SOL     OW29927   1.826   4.952   7.358 -0.8052 -0.2634  0.1053
 9609SOL    HW129928   1.752   4.980   7.304 -0.3757  3.1555  1.0648
 9609SOL    HW229929   1.869   4.885   7.306 -1.8812  1.0241 -2.6213
 9610SOL     OW29930   0.641   6.972   1.196  0.0815 -0.1087 -0.0511
 9610SOL    HW129931   0.661   7.052   1.147  1.6464 -1.2560 -1.4010
 9610SOL    HW229932   0.709   6.968   1.264 -0.9936  0.5353  1.0931
 9611SOL     OW29933   8.557   7.738   8.405  0.2718 -0.0841 -0.2929
 9611SOL    HW129934   8.601   7.808   8.357 -0.6697  0.3585 -0.5397
 9611SOL    HW229935   8.505   7.783   8.471  0.1411 -0.5908 -0.0438
 9612SOL     OW29936   7.991   0.313   7.699  0.6910  0.5488  0.2154
 9612SOL    HW129937   8.051   0.356   7.638  1.0932 -0.0985  0.1426
 9612SOL    HW229938   7.952   0.385   7.749  1.1363  1.0125 -0.0897
 9613SOL     OW29939   8.405   1.823   5.498  0.4495  0.6073 -0.0435
 9613SOL    HW129940   8.409   1.817   5.402 -0.3434  0.7938 -0.0958
 9613SOL    HW229941   8.325   1.776   5.522 -0.8565  2.8200  0.2871
 9614SOL     OW29942   6.952   8.484   2.595 -0.1473 -0.3835 -0.5183
 9614SOL    HW129943   7.042   8.506   2.572  0.4173 -0.7321  1.2388
 9614SOL    HW229944   6.902   8.561   2.571  0.8691  0.4455 -0.0460
 9615SOL     OW29945   7.848   5.956   4.869 -0.1783  1.0625  0.1915
 9615SOL    HW129946   7.932   5.999   4.856 -0.5338  2.0268  0.9572
 9615SOL    HW229947   7.864   5.891   4.938 -0.4065  2.4002  1.5632
 9616SOL     OW29948   1.117   4.649   3.506 -0.3449 -0.1457  0.6202
 9616SOL    HW129949   1.208   4.621   3.495  0.2634  0.8510  2.5782
 9616SOL    HW229950   1.093   4.618   3.594 -0.8335  2.1811  1.3859
 9617SOL     OW29951   4.022   2.360   8.602 -0.3718  0.0205  0.1045
 9617SOL    HW129952   3.929   2.354   8.577 -0.5103  0.7010  0.4132
 9617SOL    HW229953   4.069   2.323   8.528 -0.9161 -0.9350  0.2139
 9618SOL     OW29954   3.103   2.612   3.829  0.0209 -0.2450 -0.1825
 9618SOL    HW129955   3.027   2.628   3.773 -0.7575 -1.9102  0.3292
 9618SOL    HW229956   3.178   2.612   3.770 -0.7903 -2.0218 -1.2754
 9619SOL     OW29957   6.469   6.131   8.594  0.1843 -0.2163 -0.2678
 9619SOL    HW129958   6.443   6.212   8.550 -2.3945 -0.8218 -0.0228
 9619SOL    HW229959   6.532   6.159   8.660 -0.3884  1.5560 -0.4113
 9620SOL     OW29960   2.235   4.469   5.235 -0.0095  0.5217  0.1715
 9620SOL    HW129961   2.277   4.490   5.152  0.0758 -0.4567 -0.0418
 9620SOL    HW229962   2.296   4.500   5.302 -0.6512  2.5122 -0.0794
 9621SOL     OW29963   5.581   3.380   2.509 -0.8230 -0.4732 -0.1511
 9621SOL    HW129964   5.550   3.302   2.556 -0.4596 -0.7511 -0.3681
 9621SOL    HW229965   5.502   3.414   2.467 -1.8331  1.5748  3.0877
 9622SOL     OW29966   6.949   2.867   6.720  0.1741  0.2339  0.3470
 9622SOL    HW129967   7.043   2.879   6.707  0.3272 -1.1470 -0.0691
 9622SOL    HW229968   6.943   2.798   6.787 -0.5529  0.5489  0.6231
 9623SOL     OW29969   4.649   3.520   2.027  0.0968  0.2025  0.8452
 9623SOL    HW129970   4.709   3.568   2.084  0.0215  0.4149  0.7475
 9623SOL    HW229971   4.705   3.469   1.969  0.1621 -0.5606  1.5784
 9624SOL     OW29972   4.484   1.561   7.101  0.5348 -0.5091 -0.4427
 9624SOL    HW129973   4.477   1.628   7.170 -0.5520 -1.0071 -0.0505
 9624SOL    HW229974   4.461   1.479   7.145  1.1795 -1.0485 -1.0838
 9625SOL     OW29975   0.102   2.517   1.871  0.1825  0.5504 -0.2259
 9625SOL    HW129976   0.172   2.545   1.930 -1.9703  1.2475  2.1826
 9625SOL    HW229977   0.097   2.422   1.883  0.5944  0.5301 -0.2278
 9626SOL     OW29978   7.125   2.674   6.490 -0.0630 -0.0550 -0.4325
 9626SOL    HW129979   7.126   2.651   6.583  0.5596 -0.0068 -0.4230
 9626SOL    HW229980   7.197   2.737   6.480 -0.0318 -0.1704 -0.9701
 9627SOL     OW29981   3.203   0.170   6.330  0.0379 -0.6979 -0.3692
 9627SOL    HW129982   3.279   0.118   6.353 -1.1357 -1.4446  2.2232
 9627SOL    HW229983   3.238   0.256   6.305  1.7634 -1.4012 -0.4459
 9628SOL     OW29984   5.231   0.800   3.533 -0.7331 -0.2356 -0.1826
 9628SOL    HW129985   5.150   0.850   3.522 -0.9732 -0.3642  0.9033
 9628SOL    HW229986   5.203   0.709   3.538 -0.8516 -0.1281  2.7912
 9629SOL     OW29987   5.387   0.003   1.905  0.1114  0.4085 -0.4587
 9629SOL    HW129988   5.435   0.065   1.960  0.6221  1.5387 -2.1024
 9629SOL    HW229989   5.305   0.048   1.884  0.4022  0.4904 -1.4995
 9630SOL     OW29990   2.205   6.825   8.225  0.5454  0.5431  0.0436
 9630SOL    HW129991   2.134   6.805   8.164  0.3704 -0.3294  0.5227
 9630SOL    HW229992   2.162   6.873   8.297 -0.0979 -2.0906  1.5678
 9631SOL     OW29993   7.833   2.849   6.735 -0.3409  0.2223 -0.6119
 9631SOL    HW129994   7.847   2.929   6.784  0.4131 -0.4182  0.2511
 9631SOL    HW229995   7.756   2.867   6.681 -0.6956  1.2217  0.2009
 9632SOL     OW29996   0.993   3.156   3.193  0.6832 -0.2278 -0.2823
 9632SOL    HW129997   0.990   3.061   3.181  0.4205 -0.4037  1.0183
 9632SOL    HW229998   1.087   3.177   3.197  0.7418 -0.4196 -0.6471
 9633SOL     OW29999   1.335   3.117   3.129  0.2204 -0.3050  0.7915
 9633SOL    HW130000   1.419   3.154   3.102  0.0920  0.6713  1.6760
 9633SOL    HW230001   1.311   3.057   3.059  1.5951 -0.4935  0.4637
 9634SOL     OW30002   1.572   6.017   2.882  0.8756 -0.3990 -0.0374
 9634SOL    HW130003   1.639   5.954   2.859  1.2165 -0.4549  1.0289
 9634SOL    HW230004   1.612   6.102   2.865  0.6381 -0.4551 -0.8942
 9635SOL     OW30005   0.892   8.292   5.337  0.1823 -0.1559  0.2797
 9635SOL    HW130006   0.927   8.280   5.250  1.3518  0.0234  0.7112
 9635SOL    HW230007   0.914   8.212   5.384  0.8119  0.3200  0.8113
 9636SOL     OW30008   6.329   8.513   2.944 -0.4178  0.3000 -0.1612
 9636SOL    HW130009   6.358   8.604   2.949 -0.2621  0.4651 -2.5527
 9636SOL    HW230010   6.410   8.462   2.937 -0.5402  0.1468 -0.4939
 9637SOL     OW30011   2.106   8.010   2.748 -0.3262  0.1063  0.0877
 9637SOL    HW130012   2.059   8.077   2.699 -0.0042 -0.6192 -1.2699
 9637SOL    HW230013   2.138   7.950   2.681  0.9066 -0.4451  1.1300
 9638SOL     OW30014   5.416   5.199   1.867 -0.0851 -0.7744  0.1513
 9638SOL    HW130015   5.415   5.263   1.796 -1.5413 -1.7769 -0.7694
 9638SOL    HW230016   5.326   5.168   1.873  0.2792 -1.6213  1.6216
 9639SOL     OW30017   1.117   1.166   5.171 -0.0340  0.5378 -0.0372
 9639SOL    HW130018   1.110   1.162   5.075 -2.3854 -0.8137  0.1195
 9639SOL    HW230019   1.160   1.084   5.195  2.0899  1.6097  0.0263
 9640SOL     OW30020   0.010   7.114   0.081  0.3503  0.5057  0.4332
 9640SOL    HW130021  -0.077   7.100   0.042  0.2927  1.1676  0.3197
 9640SOL    HW230022   0.054   7.174   0.021  1.6598 -1.3995 -0.6402
 9641SOL     OW30023   3.761   6.794   0.020  0.6715 -0.6936  0.2589
 9641SOL    HW130024   3.693   6.856  -0.007  1.1955 -0.8128 -1.4217
 9641SOL    HW230025   3.729   6.757   0.102 -1.5757 -1.1840 -0.7743
 9642SOL     OW30026   1.774   1.213   0.634  0.0370 -0.2322  0.4717
 9642SOL    HW130027   1.849   1.172   0.677  0.5331 -1.5718 -1.5608
 9642SOL    HW230028   1.791   1.307   0.641  1.1408 -0.4693  1.3415
 9643SOL     OW30029   8.663   5.906   8.560 -0.3688  0.2968 -0.4953
 9643SOL    HW130030   8.678   5.830   8.616  1.5997  0.5002 -0.6644
 9643SOL    HW230031   8.579   5.889   8.518  0.1212 -1.9224 -0.6956
 9644SOL     OW30032   5.509   6.091   0.346 -0.0441  0.0533 -0.4780
 9644SOL    HW130033   5.484   6.183   0.337  0.4322  0.2154 -0.1862
 9644SOL    HW230034   5.604   6.092   0.344  0.0254 -0.2624  1.0086
 9645SOL     OW30035   3.075   3.296   3.891 -0.0208  0.2020  0.1780
 9645SOL    HW130036   3.044   3.243   3.963 -1.2653  0.5627 -0.0562
 9645SOL    HW230037   2.996   3.335   3.854  0.6063  0.2674 -1.1876
 9646SOL     OW30038   3.579   7.646   4.675  0.1993 -0.8729 -0.4478
 9646SOL    HW130039   3.516   7.715   4.654  1.0495  0.2504  0.5561
 9646SOL    HW230040   3.652   7.692   4.716  0.7133 -2.4050  0.4290
 9647SOL     OW30041   8.802   3.578   9.053  0.5960 -0.6551 -0.2813
 9647SOL    HW130042   8.865   3.576   9.125  0.3963  0.8952 -0.0406
 9647SOL    HW230043   8.841   3.521   8.986  1.2796 -1.2995  0.6290
 9648SOL     OW30044   5.120   2.817   0.187  0.9036 -0.0458 -0.0440
 9648SOL    HW130045   5.029   2.790   0.192  0.6779  0.7938  0.5655
 9648SOL    HW230046   5.118   2.908   0.159  1.4800  0.3467  1.1044
 9649SOL     OW30047   7.110   5.896   6.079 -0.3834 -0.6611  0.1545
 9649SOL    HW130048   7.191   5.846   6.077 -0.5194 -0.8691 -0.4002
 9649SOL    HW230049   7.112   5.943   6.162  0.1653 -0.8938  0.2731
 9650SOL     OW30050   5.337   7.746   1.553  0.0617 -0.0960  0.0897
 9650SOL    HW130051   5.255   7.743   1.504 -1.4073  1.2349  2.3017
 9650SOL    HW230052   5.342   7.835   1.588  1.8837 -0.4769  0.9413
 9651SOL     OW30053   1.772   7.534   0.705  0.4125  0.2579  0.0209
 9651SOL    HW130054   1.702   7.468   0.698 -0.6647  1.3567  0.1387
 9651SOL    HW230055   1.839   7.492   0.759 -0.5090 -0.5419  0.5760
 9652SOL     OW30056   2.022   2.487   7.964  0.8077  0.6212  0.1295
 9652SOL    HW130057   1.945   2.432   7.949  2.6790 -3.0884  2.6439
 9652SOL    HW230058   2.006   2.527   8.050  0.6546  1.9267 -0.4808
 9653SOL     OW30059   3.162   5.845   6.665 -0.4377 -0.0992  0.0263
 9653SOL    HW130060   3.125   5.909   6.604  1.9318  1.1598 -0.2111
 9653SOL    HW230061   3.207   5.782   6.610  1.3913  0.8339  0.3782
 9654SOL     OW30062   6.533   6.892   5.306  0.3042  0.0660  0.2832
 9654SOL    HW130063   6.514   6.817   5.362  1.3111  0.4967  1.2337
 9654SOL    HW230064   6.584   6.951   5.361 -1.8063  2.2049  0.0717
 9655SOL     OW30065   6.026   4.327   8.942 -0.2048  0.0679 -0.9936
 9655SOL    HW130066   6.029   4.388   8.868 -3.9887 -0.4613 -1.7857
 9655SOL    HW230067   6.018   4.241   8.901 -0.2641 -0.4409  0.0616
 9656SOL     OW30068   5.638   4.691   1.650  0.3327  0.1967  0.1856
 9656SOL    HW130069   5.623   4.769   1.703  2.1481  0.0743  0.9341
 9656SOL    HW230070   5.611   4.716   1.562 -1.0089  0.9872  0.7862
 9657SOL     OW30071   4.415   8.055   8.999  0.3272  0.0255 -0.4789
 9657SOL    HW130072   4.477   8.012   9.058  0.1471  1.8358  1.1453
 9657SOL    HW230073   4.468   8.120   8.953 -0.4466  2.6287  1.9923
 9658SOL     OW30074   5.508   5.361   6.581  0.1450  0.0226 -0.1105
 9658SOL    HW130075   5.581   5.300   6.567  0.0945 -0.1615  0.3807
 9658SOL    HW230076   5.537   5.443   6.541 -0.4669 -0.7456 -2.2514
 9659SOL     OW30077   0.039   6.666   1.164  0.2994 -0.3156  0.0627
 9659SOL    HW130078  -0.020   6.633   1.096 -0.9484  1.6841  0.0981
 9659SOL    HW230079   0.127   6.653   1.129 -0.2483 -1.1623 -1.0435
 9660SOL     OW30080   0.397   7.725   6.136 -0.3965 -0.0317  0.5084
 9660SOL    HW130081   0.439   7.673   6.067 -1.5006  0.3893 -0.5184
 9660SOL    HW230082   0.408   7.816   6.108 -2.4485  0.0689 -0.0957
 9661SOL     OW30083   6.555   4.005   2.699 -0.4566  0.1359  0.1657
 9661SOL    HW130084   6.647   3.982   2.688  0.4281  2.3337  2.0025
 9661SOL    HW230085   6.507   3.933   2.660  2.0149 -0.0686 -2.8895
 9662SOL     OW30086   5.476   1.585   1.355 -0.3308  0.1682  0.4616
 9662SOL    HW130087   5.385   1.616   1.350 -0.6484 -0.1310  3.0655
 9662SOL    HW230088   5.468   1.491   1.373  0.5204  0.0422  0.2134
 9663SOL     OW30089   3.350   3.831   3.328  0.5482  0.0897  0.1313
 9663SOL    HW130090   3.443   3.822   3.307  0.3065 -1.9669 -0.2903
 9663SOL    HW230091   3.349   3.871   3.415  1.8019  0.7780 -0.1459
 9664SOL     OW30092   6.720   7.998   8.986 -0.6722  0.4862 -0.4513
 9664SOL    HW130093   6.635   8.016   8.945 -0.5864  1.8522 -0.0685
 9664SOL    HW230094   6.768   8.080   8.980  0.6569 -0.2722 -0.6855
 9665SOL     OW30095   8.820   1.650   4.903  0.6587 -0.4131 -0.2733
 9665SOL    HW130096   8.823   1.672   4.810 -0.6295 -0.5772 -0.3692
 9665SOL    HW230097   8.890   1.703   4.942 -0.0703  1.1768 -1.0315
 9666SOL     OW30098   2.693   7.609   8.123 -0.2774  0.3916 -1.0641
 9666SOL    HW130099   2.669   7.647   8.038 -0.5485 -0.3024 -1.3033
 9666SOL    HW230100   2.751   7.536   8.101  0.8481  1.1101 -0.5711
 9667SOL     OW30101   8.407   0.254   4.973 -0.4088 -0.7875 -0.0144
 9667SOL    HW130102   8.331   0.212   5.014 -2.0534  1.3399 -0.6825
 9667SOL    HW230103   8.455   0.293   5.045 -2.0074  0.9380  0.2018
 9668SOL     OW30104   5.945   3.273   3.638 -0.2126 -0.4958  0.2655
 9668SOL    HW130105   5.920   3.331   3.565 -0.6199 -1.3112 -0.2625
 9668SOL    HW230106   6.040   3.273   3.636 -0.1760  0.7148  0.7368
 9669SOL     OW30107   3.926   6.104   9.028 -0.5335 -0.0929 -0.0416
 9669SOL    HW130108   3.905   6.194   9.003 -1.3340 -0.4266 -0.6364
 9669SOL    HW230109   3.975   6.112   9.110  0.1064  0.9199 -0.5049
 9670SOL     OW30110   4.067   0.510   6.364  0.7452 -0.0007 -0.1081
 9670SOL    HW130111   4.155   0.479   6.384  0.3588 -1.3513 -0.3699
 9670SOL    HW230112   4.060   0.595   6.407  2.2584  0.2476 -0.3166
 9671SOL     OW30113   2.598   7.515   5.585 -0.3306 -0.1750  0.6601
 9671SOL    HW130114   2.584   7.557   5.670  0.4895 -1.5718  1.5255
 9671SOL    HW230115   2.682   7.550   5.554 -1.5440  1.8459 -0.5737
 9672SOL     OW30116   8.757   0.765   8.135 -0.6260 -0.3530  0.1049
 9672SOL    HW130117   8.752   0.836   8.199 -0.3507 -0.8364  0.6768
 9672SOL    HW230118   8.670   0.763   8.095 -1.1040 -0.6237  1.1150
 9673SOL     OW30119   7.914   3.824   0.108  0.1275 -0.1069 -0.2188
 9673SOL    HW130120   7.995   3.866   0.138 -0.1562  0.6513 -0.4975
 9673SOL    HW230121   7.864   3.895   0.067 -1.2959 -0.2721  1.1640
 9674SOL     OW30122   2.696   7.494   0.398  0.2430  0.0639  0.4782
 9674SOL    HW130123   2.774   7.544   0.373  0.4874 -0.3272  0.4506
 9674SOL    HW230124   2.623   7.548   0.371  0.5004  0.7519  1.1153
 9675SOL     OW30125   0.987   4.971   2.947 -0.9363  0.7801 -0.1639
 9675SOL    HW130126   0.910   5.017   2.979 -1.6906 -0.0726 -0.7270
 9675SOL    HW230127   1.014   5.020   2.869 -0.6635  1.2991  0.2460
 9676SOL     OW30128   6.469   6.990   4.629  0.1548 -0.3792  0.5843
 9676SOL    HW130129   6.447   7.045   4.553  1.4647 -1.4630 -0.6374
 9676SOL    HW230130   6.399   7.007   4.692  0.2677  2.3228  0.0957
 9677SOL     OW30131   7.339   8.714   6.726 -0.6568  0.3413 -0.5933
 9677SOL    HW130132   7.354   8.804   6.757 -1.4772  0.1856  0.3072
 9677SOL    HW230133   7.321   8.664   6.805 -1.8436 -0.2800 -1.2192
 9678SOL     OW30134   1.402   7.867   7.655  0.1109 -0.1214 -0.1465
 9678SOL    HW130135   1.315   7.840   7.686  1.0577 -0.5604  2.4240
 9678SOL    HW230136   1.454   7.787   7.658  1.0065  0.4510 -0.0044
 9679SOL     OW30137   5.731   1.422   3.832  0.3033 -0.0178 -0.2779
 9679SOL    HW130138   5.731   1.397   3.924  1.0507 -0.0319 -0.2771
 9679SOL    HW230139   5.643   1.457   3.817 -0.3082 -1.3669  0.0547
 9680SOL     OW30140   4.397   7.441   7.741 -0.0733  0.2867 -0.1256
 9680SOL    HW130141   4.436   7.356   7.723  0.0794 -0.5515  3.4507
 9680SOL    HW230142   4.471   7.500   7.755 -0.1229  0.2313  0.4100
 9681SOL     OW30143   3.132   6.404   2.397  0.2810  0.3119 -0.2276
 9681SOL    HW130144   3.125   6.481   2.340  1.5193  1.1413  0.7024
 9681SOL    HW230145   3.152   6.440   2.483  0.4075 -1.0379  0.3196
 9682SOL     OW30146   6.753   4.515   2.003 -0.4834 -0.2542  0.2686
 9682SOL    HW130147   6.667   4.475   1.994 -2.1452  2.9013  0.4564
 9682SOL    HW230148   6.779   4.498   2.094 -1.9344  0.4422  0.8493
 9683SOL     OW30149   9.053   8.276   4.792 -0.5215  0.4159  0.1792
 9683SOL    HW130150   9.145   8.296   4.774 -0.6948  0.1565 -1.0587
 9683SOL    HW230151   9.033   8.199   4.739 -1.3611  0.2597  0.6973
 9684SOL     OW30152   8.286   4.969   4.126 -0.5607  0.2963 -0.3218
 9684SOL    HW130153   8.364   5.020   4.150  0.0247 -0.5233 -0.4134
 9684SOL    HW230154   8.217   5.034   4.115  0.1499  1.0644 -0.3867
 9685SOL     OW30155   2.049   9.018   6.916  0.2619 -0.1494  0.5005
 9685SOL    HW130156   2.007   8.949   6.864 -0.1299 -0.6369  1.4247
 9685SOL    HW230157   1.987   9.091   6.913 -0.4442 -0.6881  1.4425
 9686SOL     OW30158   0.180   8.130   6.545  0.0001 -0.4916 -0.0227
 9686SOL    HW130159   0.161   8.224   6.555 -0.9519 -0.5508 -1.0055
 9686SOL    HW230160   0.270   8.120   6.577 -0.4534  0.4425  1.6885
 9687SOL     OW30161   6.913   5.591   8.660  0.4346 -0.4285 -0.3408
 9687SOL    HW130162   6.830   5.564   8.699  0.2833  1.3857  0.7205
 9687SOL    HW230163   6.888   5.647   8.587  0.7156 -0.1114 -0.1984
 9688SOL     OW30164   8.697   2.585   2.726  0.2292 -0.1180 -0.3996
 9688SOL    HW130165   8.753   2.525   2.776  0.2064 -0.7326 -1.0886
 9688SOL    HW230166   8.756   2.628   2.665  0.0474 -0.3212 -0.7182
 9689SOL     OW30167   0.726   4.891   3.920  0.2289 -0.0291 -0.1626
 9689SOL    HW130168   0.704   4.983   3.904  1.5301  0.0351 -1.8618
 9689SOL    HW230169   0.784   4.868   3.848 -0.1494 -2.2307  0.1888
 9690SOL     OW30170   6.347   8.406   8.043 -0.1832  0.4053  0.0542
 9690SOL    HW130171   6.407   8.480   8.048 -0.1669  0.3117  1.4522
 9690SOL    HW230172   6.278   8.427   8.106 -1.2527  0.1619 -0.9855
 9691SOL     OW30173   4.787   6.858   7.833 -0.4628 -0.5515  0.3309
 9691SOL    HW130174   4.715   6.883   7.775  0.6586  1.9231 -0.1209
 9691SOL    HW230175   4.797   6.932   7.893  1.4333 -1.0025  0.6364
 9692SOL     OW30176   6.626   1.052   0.874 -0.4572 -0.3406  0.7805
 9692SOL    HW130177   6.662   1.090   0.954  0.0460 -0.8762  0.8108
 9692SOL    HW230178   6.534   1.079   0.874 -0.2985  0.2209  1.1950
 9693SOL     OW30179   5.404   6.046   2.816  0.1093 -0.1105  0.4070
 9693SOL    HW130180   5.433   5.983   2.750 -0.1043  0.3997 -0.1863
 9693SOL    HW230181   5.465   6.034   2.889  0.5385 -0.4770 -0.0021
 9694SOL     OW30182   6.118   5.564   3.804 -0.0156  0.0205 -0.2317
 9694SOL    HW130183   6.122   5.484   3.857  0.7248 -0.2382 -0.6660
 9694SOL    HW230184   6.040   5.554   3.751  0.2665 -0.5821 -0.5368
 9695SOL     OW30185   7.577   1.623   7.619  0.0518  0.4288  0.0946
 9695SOL    HW130186   7.590   1.713   7.588  1.8835  0.5919  1.1795
 9695SOL    HW230187   7.484   1.606   7.606 -0.4543  2.6966  0.3932
 9696SOL     OW30188   5.684   7.619   4.103  0.2331 -0.4559  0.0053
 9696SOL    HW130189   5.643   7.687   4.049  4.3182  0.4730 -2.3799
 9696SOL    HW230190   5.668   7.537   4.055  1.9532  0.0676 -1.5870
 9697SOL     OW30191   8.960   2.705   4.755 -0.3336  0.3882  0.4359
 9697SOL    HW130192   8.870   2.676   4.766 -0.7992  2.0681  1.3359
 9697SOL    HW230193   9.013   2.626   4.769 -1.5799 -0.2974  1.4195
 9698SOL     OW30194   5.650   5.036   4.464 -0.0123 -0.2655  0.1887
 9698SOL    HW130195   5.555   5.026   4.465 -0.0794  0.3413  0.0908
 9698SOL    HW230196   5.679   4.997   4.547 -0.2562 -1.2391 -0.1667
 9699SOL     OW30197   4.612   6.180   4.523 -0.1399 -0.4712 -0.3210
 9699SOL    HW130198   4.586   6.264   4.562  1.1437  0.2897 -1.0066
 9699SOL    HW230199   4.674   6.205   4.454  0.0011 -1.9750 -0.7596
 9700SOL     OW30200   8.496   6.782   6.963  0.0232 -0.1975 -0.2745
 9700SOL    HW130201   8.528   6.857   6.913  1.2161  0.1853  0.9847
 9700SOL    HW230202   8.533   6.706   6.919  0.8917  0.1199 -0.1087
 9701SOL     OW30203   7.908   2.310   6.431 -0.1771  0.1987  0.0052
 9701SOL    HW130204   7.853   2.372   6.479 -0.5019  0.4858 -0.7206
 9701SOL    HW230205   7.856   2.286   6.355  0.5240  0.1438 -0.4705
 9702SOL     OW30206   5.846   5.850   3.171 -0.2358 -0.5991  0.2682
 9702SOL    HW130207   5.788   5.898   3.230  1.0765  0.1430  0.9933
 9702SOL    HW230208   5.933   5.886   3.188  0.1214  0.1602 -2.6169
 9703SOL     OW30209   6.421   5.105   7.824  0.2730 -0.5023  0.5430
 9703SOL    HW130210   6.352   5.059   7.871 -0.5002 -0.0920 -0.1547
 9703SOL    HW230211   6.444   5.179   7.880  0.0725 -0.5765  0.7231
 9704SOL     OW30212   0.491   4.807   3.321  0.2666 -0.3976 -0.2423
 9704SOL    HW130213   0.532   4.880   3.275 -1.0781  0.3733 -0.2597
 9704SOL    HW230214   0.441   4.762   3.254 -1.6379  0.6846  0.3824
 9705SOL     OW30215   6.378   8.742   8.212  0.4754 -0.7692  0.2382
 9705SOL    HW130216   6.426   8.681   8.156 -0.2588 -1.0590 -0.0891
 9705SOL    HW230217   6.384   8.826   8.167  0.8106 -0.7661  0.2842
 9706SOL     OW30218   8.146   3.962   0.197 -0.2447 -0.1450 -0.0589
 9706SOL    HW130219   8.134   4.055   0.212 -0.7005 -0.3637  1.0390
 9706SOL    HW230220   8.236   3.944   0.225  0.0289  0.0508 -0.7833
 9707SOL     OW30221   1.426   4.912   4.288 -0.1055  0.0331  0.4501
 9707SOL    HW130222   1.451   4.850   4.219 -0.3263 -1.5375  1.7121
 9707SOL    HW230223   1.505   4.921   4.341  0.1623  1.4876 -0.1369
 9708SOL     OW30224   0.723   8.953   6.297 -0.6810 -0.3971  0.2095
 9708SOL    HW130225   0.630   8.934   6.288 -0.5459 -0.4167 -1.3106
 9708SOL    HW230226   0.766   8.870   6.279 -0.3586 -0.3636  0.8113
 9709SOL     OW30227   8.253   6.585   5.389 -0.1593  0.1603 -0.4730
 9709SOL    HW130228   8.345   6.604   5.407 -0.0569  0.0312 -0.8486
 9709SOL    HW230229   8.254   6.497   5.351 -0.4012  0.2857 -0.7800
 9710SOL     OW30230   2.786   8.519   8.056  0.0436 -0.2118 -0.1180
 9710SOL    HW130231   2.742   8.485   7.978  1.2773 -0.1167 -0.8937
 9710SOL    HW230232   2.818   8.442   8.102 -1.2458 -0.3032  0.6670
 9711SOL     OW30233   4.817   0.427   4.853  0.1773 -0.0176  0.2408
 9711SOL    HW130234   4.771   0.476   4.784 -0.1155  1.1593  1.2294
 9711SOL    HW230235   4.900   0.474   4.863 -0.7231  1.2657  2.2425
 9712SOL     OW30236   2.669   5.435   0.957 -0.4905 -0.2753  0.1133
 9712SOL    HW130237   2.644   5.426   0.865  0.1617 -0.2690 -0.0712
 9712SOL    HW230238   2.740   5.500   0.956 -0.5439 -0.2098  0.6299
 9713SOL     OW30239   0.617   3.502   0.989 -0.1462 -0.2627  0.4167
 9713SOL    HW130240   0.678   3.480   1.059 -1.2551  0.2355  1.6033
 9713SOL    HW230241   0.642   3.446   0.915  0.1912 -1.8438  1.6761
 9714SOL     OW30242   0.503   7.209   1.973  0.4092  0.3858 -0.5254
 9714SOL    HW130243   0.501   7.152   1.897 -2.3421 -3.1874  1.8774
 9714SOL    HW230244   0.429   7.269   1.960 -0.4432 -0.6237 -0.4855
 9715SOL     OW30245   5.544   1.719   2.530  0.0309  0.5440 -0.8448
 9715SOL    HW130246   5.594   1.743   2.452  0.6467 -1.3772 -1.0842
 9715SOL    HW230247   5.595   1.754   2.603  1.7224 -1.2617 -1.0948
 9716SOL     OW30248   3.536   2.749   1.891 -0.5763 -0.0102  0.1910
 9716SOL    HW130249   3.548   2.744   1.796  0.7485 -0.2967  0.3565
 9716SOL    HW230250   3.510   2.660   1.917  0.3596 -0.2700  0.2550
 9717SOL     OW30251   5.992   8.453   5.818 -0.2724  0.2623  0.2055
 9717SOL    HW130252   6.048   8.414   5.751 -0.7007 -1.8451  0.9717
 9717SOL    HW230253   6.052   8.490   5.882  0.1625  1.0306 -0.6411
 9718SOL     OW30254   5.347   4.349   8.843 -0.3315 -0.1079 -0.1787
 9718SOL    HW130255   5.420   4.408   8.859 -0.9405  0.7150 -0.4120
 9718SOL    HW230256   5.278   4.379   8.902  0.0528 -1.9290  1.3034
 9719SOL     OW30257   2.951   7.266   0.429  0.2689 -0.1287  0.5237
 9719SOL    HW130258   3.038   7.246   0.396  0.0265 -0.0983 -0.1457
 9719SOL    HW230259   2.892   7.242   0.358 -0.1638  1.2719  0.3797
 9720SOL     OW30260   1.007   2.590   6.164 -0.4948  0.0533 -0.1742
 9720SOL    HW130261   0.955   2.523   6.118  0.1976 -0.6315  0.0277
 9720SOL    HW230262   0.962   2.600   6.248  2.1538 -3.9938  2.0788
 9721SOL     OW30263   3.380   1.965   2.412 -0.4546 -0.7052 -0.1743
 9721SOL    HW130264   3.419   2.013   2.486 -1.9031 -2.0466  1.5703
 9721SOL    HW230265   3.354   2.033   2.350  0.8789  0.4704  0.4902
 9722SOL     OW30266   2.460   0.639   3.052  0.1615  0.1354  0.2164
 9722SOL    HW130267   2.499   0.703   2.992 -0.2889 -1.1084 -1.4977
 9722SOL    HW230268   2.366   0.654   3.044 -0.2341 -2.7927 -2.8626
 9723SOL     OW30269   1.266   1.420   0.032  0.2116  0.3295  0.4416
 9723SOL    HW130270   1.257   1.324   0.031  0.1653  0.3331  0.0517
 9723SOL    HW230271   1.209   1.449  -0.039  0.0603  0.6635  0.6993
 9724SOL     OW30272   8.427   1.571   6.305 -0.2701 -0.7441  0.1096
 9724SOL    HW130273   8.447   1.486   6.265 -0.2560  0.2349 -2.1658
 9724SOL    HW230274   8.335   1.586   6.285  0.3824  0.9531 -2.1202
 9725SOL     OW30275   8.242   0.714   0.393  0.0516  0.8600 -0.1912
 9725SOL    HW130276   8.323   0.717   0.342 -0.5294 -1.0686 -1.3345
 9725SOL    HW230277   8.198   0.798   0.374 -0.1299  0.2340 -2.9125
 9726SOL     OW30278   2.281   3.969   6.057  0.1707  0.0966 -0.1113
 9726SOL    HW130279   2.235   3.885   6.052  1.6875 -0.8593  1.1621
 9726SOL    HW230280   2.212   4.032   6.078 -0.6466 -1.2516  1.5123
 9727SOL     OW30281   0.574   6.333   2.861  0.0569  0.4182 -0.1849
 9727SOL    HW130282   0.618   6.380   2.790 -0.6381  1.2349 -0.0788
 9727SOL    HW230283   0.571   6.242   2.830  0.0650  0.7047 -1.0507
 9728SOL     OW30284   6.453   8.149   8.173  0.6515 -0.2029  0.0927
 9728SOL    HW130285   6.429   8.207   8.101 -1.0338 -1.1245 -0.1469
 9728SOL    HW230286   6.500   8.205   8.235 -2.5799  1.9962  0.8275
 9729SOL     OW30287   4.369   4.096   4.617 -0.0073 -0.8700 -0.1969
 9729SOL    HW130288   4.383   4.038   4.542 -0.7103 -1.1238 -0.1348
 9729SOL    HW230289   4.335   4.039   4.685 -1.8834 -0.2035 -0.5085
 9730SOL     OW30290   3.769   4.770   3.029 -0.1160 -0.5100 -0.3322
 9730SOL    HW130291   3.824   4.812   2.962 -1.3854  3.0327  0.6233
 9730SOL    HW230292   3.815   4.787   3.111 -0.5850 -1.2228  0.0870
 9731SOL     OW30293   1.643   7.784   7.259  0.5499 -0.8901  0.1148
 9731SOL    HW130294   1.716   7.766   7.318  0.3998 -1.8919  0.0199
 9731SOL    HW230295   1.570   7.733   7.295 -0.8757  1.9754  1.6294
 9732SOL     OW30296   1.267   2.465   8.158  0.8695 -0.0716  0.5430
 9732SOL    HW130297   1.304   2.405   8.094 -1.9733  0.7543 -2.1668
 9732SOL    HW230298   1.285   2.552   8.123  0.7405  0.4890  1.8042
 9733SOL     OW30299   6.061   0.520   9.015 -0.5830  0.2437  0.2510
 9733SOL    HW130300   6.002   0.496   8.944  0.0760 -2.0384  0.3783
 9733SOL    HW230301   6.028   0.603   9.048 -1.2383  1.0988 -2.3432
 9734SOL     OW30302   7.684   8.501   2.490  0.0334 -0.0356 -0.4169
 9734SOL    HW130303   7.775   8.485   2.465  0.4523  0.6783  0.6408
 9734SOL    HW230304   7.684   8.505   2.585 -0.7073  2.3203 -0.4650
 9735SOL     OW30305   0.841   8.279   8.391  0.2722 -0.3275  0.3891
 9735SOL    HW130306   0.778   8.222   8.435 -0.5701  0.2644 -0.0132
 9735SOL    HW230307   0.908   8.297   8.457  0.4183 -1.5543  0.5983
 9736SOL     OW30308   0.801   4.485   6.934  0.2861 -0.3020  0.5425
 9736SOL    HW130309   0.724   4.537   6.912 -0.8828 -1.2889  2.0964
 9736SOL    HW230310   0.767   4.411   6.984  2.3860  0.2222  2.9874
 9737SOL     OW30311   3.937   1.356   3.863  0.1369  0.2179  0.3204
 9737SOL    HW130312   3.877   1.415   3.908  0.3766  1.3416 -0.7669
 9737SOL    HW230313   3.992   1.321   3.933 -0.9803  0.1119  1.1775
 9738SOL     OW30314   5.087   6.364   3.592  0.2054 -0.0808  0.3126
 9738SOL    HW130315   5.153   6.424   3.558 -0.1200  0.3681  0.4607
 9738SOL    HW230316   5.123   6.334   3.676  0.2485  0.1192  0.3660
 9739SOL     OW30317   7.725   6.640   7.799 -0.6409  0.2492  0.8641
 9739SOL    HW130318   7.642   6.602   7.771 -0.0467  0.9097 -2.1339
 9739SOL    HW230319   7.705   6.731   7.817 -0.8550  0.0271  1.7961
 9740SOL     OW30320   5.282   7.806   1.157 -0.2822 -0.2096  0.0624
 9740SOL    HW130321   5.330   7.737   1.203 -1.5413 -0.4444  1.0838
 9740SOL    HW230322   5.326   7.813   1.072  2.5443  0.6704  1.4666
 9741SOL     OW30323   9.103   6.327   3.303 -0.1836 -0.0455 -0.1556
 9741SOL    HW130324   9.159   6.312   3.379 -1.7490 -0.8191  0.8899
 9741SOL    HW230325   9.116   6.249   3.248  0.0985 -0.0198 -0.1244
 9742SOL     OW30326   4.652   0.591   0.520  0.2075 -0.4112  0.0687
 9742SOL    HW130327   4.694   0.509   0.495  0.1298 -0.4902  0.1978
 9742SOL    HW230328   4.649   0.589   0.615 -1.7646 -1.2685  0.0405
 9743SOL     OW30329   3.538   7.809   8.939 -0.0290  0.3357 -0.3651
 9743SOL    HW130330   3.565   7.717   8.940  0.6555  0.4689 -2.2646
 9743SOL    HW230331   3.593   7.850   9.006  1.9087 -0.1108 -1.5997
 9744SOL     OW30332   8.749   6.995   4.523  0.5279  0.1542 -0.1722
 9744SOL    HW130333   8.823   7.010   4.464  0.0846 -5.0898 -2.6220
 9744SOL    HW230334   8.790   6.983   4.609  2.1208  0.7353 -0.8077
 9745SOL     OW30335   6.196   4.307   1.431 -0.0506 -0.2561 -0.0500
 9745SOL    HW130336   6.210   4.213   1.420 -0.1822 -0.1826 -0.9688
 9745SOL    HW230337   6.134   4.314   1.503  0.1447 -0.8561  0.1862
 9746SOL     OW30338   2.590   1.351   6.809  0.2426  0.0779  0.1707
 9746SOL    HW130339   2.665   1.310   6.852  2.5241  1.6205 -1.9905
 9746SOL    HW230340   2.600   1.445   6.829 -0.5898  0.4075 -0.8707
 9747SOL     OW30341   2.331   2.178   2.562  0.1291 -0.0980  0.0832
 9747SOL    HW130342   2.274   2.199   2.488  0.7417 -0.0198 -0.3806
 9747SOL    HW230343   2.315   2.248   2.625 -1.3074 -0.8276  0.5675
 9748SOL     OW30344   4.801   4.963   6.416 -0.1393 -0.1926 -0.4871
 9748SOL    HW130345   4.729   5.025   6.403 -1.0899 -0.9239  1.0351
 9748SOL    HW230346   4.777   4.887   6.363 -1.3161 -1.0591  1.2329
 9749SOL     OW30347   6.913   6.758   5.420 -0.1175  0.4346  0.2224
 9749SOL    HW130348   6.989   6.741   5.365  0.6394  0.2220  1.2844
 9749SOL    HW230349   6.882   6.671   5.446 -0.1765  0.5387  0.5037
 9750SOL     OW30350   0.306   2.439   5.927 -0.1717  0.2395 -0.0915
 9750SOL    HW130351   0.307   2.488   5.845  1.7797  1.4839  0.6130
 9750SOL    HW230352   0.393   2.398   5.932 -1.2208 -2.1647  0.0632
 9751SOL     OW30353   3.341   2.445   3.052 -0.4214 -0.2857  0.1403
 9751SOL    HW130354   3.315   2.435   2.961 -0.3677 -0.2077  0.1157
 9751SOL    HW230355   3.268   2.491   3.093 -0.8340 -1.1079  0.3407
 9752SOL     OW30356   3.804   8.969   1.081 -0.5699 -0.3364  0.5034
 9752SOL    HW130357   3.875   9.013   1.035 -0.1448  0.0834  1.5163
 9752SOL    HW230358   3.772   9.035   1.143 -1.0310 -0.9230  0.8985
 9753SOL     OW30359   6.416   1.909   4.725  0.3259 -0.5579 -0.3853
 9753SOL    HW130360   6.374   1.921   4.640  2.1839  1.9468 -1.0670
 9753SOL    HW230361   6.358   1.954   4.786  0.6349  0.6016 -0.9085
 9754SOL     OW30362   0.499   9.030   1.094  0.4313 -0.0425  0.3975
 9754SOL    HW130363   0.449   8.980   1.030  0.0635 -0.3006  0.8803
 9754SOL    HW230364   0.571   9.068   1.044 -2.0060  3.0551 -1.0639
 9755SOL     OW30365   5.519   1.822   1.027  0.4406 -0.3833 -0.3175
 9755SOL    HW130366   5.452   1.833   1.095  1.2840  0.2261  0.4355
 9755SOL    HW230367   5.547   1.911   1.007 -0.3071 -0.4802 -2.0308
 9756SOL     OW30368   3.057   3.821   3.292 -0.0726  0.6868 -0.2671
 9756SOL    HW130369   3.072   3.908   3.330 -2.0324  1.5127 -1.2073
 9756SOL    HW230370   3.142   3.778   3.297  0.7019  2.2430  1.2376
 9757SOL     OW30371   6.463   7.414   1.743 -0.3056 -0.2603 -0.0401
 9757SOL    HW130372   6.503   7.379   1.823 -0.2984  1.1197  0.6054
 9757SOL    HW230373   6.501   7.362   1.672  2.7583  0.9800  0.5169
 9758SOL     OW30374   7.289   4.755   8.799  0.1342  0.1710 -0.1644
 9758SOL    HW130375   7.271   4.760   8.893 -1.6974 -1.8854 -0.3426
 9758SOL    HW230376   7.357   4.688   8.791 -0.7977 -0.7804 -0.3736
 9759SOL     OW30377   7.886   6.618   2.022 -0.4340 -0.2853  0.4561
 9759SOL    HW130378   7.853   6.708   2.016 -1.1285 -0.4711  1.2876
 9759SOL    HW230379   7.981   6.627   2.020 -0.4998  0.4490  0.2859
 9760SOL     OW30380   9.093   7.535   0.315  0.2445  0.0705  0.3623
 9760SOL    HW130381   9.047   7.478   0.377 -0.9435  1.6248  0.9938
 9760SOL    HW230382   9.030   7.548   0.244  0.7440  0.0842 -0.0801
 9761SOL     OW30383   0.368   7.843   2.275  0.3236  0.1792 -0.5699
 9761SOL    HW130384   0.446   7.878   2.231 -0.2059  0.4700 -1.3123
 9761SOL    HW230385   0.347   7.908   2.342 -1.0229  1.7120 -2.3505
 9762SOL     OW30386   2.982   2.872   8.887  0.4491  0.0768  0.2701
 9762SOL    HW130387   2.925   2.818   8.941 -1.2230  0.9432 -0.5402
 9762SOL    HW230388   3.002   2.948   8.942  0.8189 -0.2159  0.5454
 9763SOL     OW30389   7.020   1.974   6.541 -0.4983 -0.2389  0.0322
 9763SOL    HW130390   6.982   2.020   6.616 -3.2642 -0.8828 -0.8505
 9763SOL    HW230391   7.053   2.043   6.484  1.3268  0.2703  1.6027
 9764SOL     OW30392   1.884   2.806   6.893 -0.5764 -0.8766 -0.6948
 9764SOL    HW130393   1.862   2.878   6.834 -0.0089  0.7546  0.9814
 9764SOL    HW230394   1.807   2.750   6.893 -0.9713 -0.3797 -2.1683
 9765SOL     OW30395   0.195   4.290   0.298 -0.0312 -0.4578  0.4966
 9765SOL    HW130396   0.121   4.337   0.259  1.3644  1.0831 -0.4356
 9765SOL    HW230397   0.227   4.233   0.227  0.4539 -0.1678  0.4811
 9766SOL     OW30398   7.613   7.268   7.332 -0.4492  0.2388 -0.2273
 9766SOL    HW130399   7.706   7.288   7.347 -0.8955  1.7114  0.8201
 9766SOL    HW230400   7.567   7.319   7.398 -2.1752  1.7089 -2.4062
 9767SOL     OW30401   0.653   3.722   4.705 -0.6163  0.2712 -0.2756
 9767SOL    HW130402   0.742   3.700   4.679 -0.4574  0.8979 -0.2830
 9767SOL    HW230403   0.661   3.806   4.751 -0.7599 -1.1772  2.5743
 9768SOL     OW30404   0.400   5.975   0.319 -0.5211 -0.7454 -0.0004
 9768SOL    HW130405   0.377   5.896   0.368  1.1923 -1.2989  0.0070
 9768SOL    HW230406   0.495   5.982   0.331 -0.5102  0.7686 -0.8290
 9769SOL     OW30407   6.058   3.609   0.208  0.3105 -0.3637  0.4968
 9769SOL    HW130408   6.130   3.588   0.149  0.7242 -1.0249  1.2197
 9769SOL    HW230409   6.079   3.696   0.242  0.2559 -0.1364 -0.0278
 9770SOL     OW30410   4.803   6.326   0.354 -0.0450 -0.4888 -0.6076
 9770SOL    HW130411   4.823   6.244   0.308  1.4267 -0.1119 -0.6996
 9770SOL    HW230412   4.865   6.389   0.318 -0.9972  0.6189 -0.3628
 9771SOL     OW30413   1.674   0.953   5.692  0.0644 -0.3828  0.3635
 9771SOL    HW130414   1.637   0.917   5.773  0.4567 -0.8133  0.3533
 9771SOL    HW230415   1.744   0.893   5.668 -1.3859 -1.4401 -1.4607
 9772SOL     OW30416   7.423   0.789   6.740  0.0901 -0.2610  0.0456
 9772SOL    HW130417   7.504   0.743   6.760 -0.6887 -0.4235  3.4022
 9772SOL    HW230418   7.360   0.719   6.724  0.0231 -0.2245  0.1473
 9773SOL     OW30419   4.171   0.506   8.169  0.6022  0.1749  0.2904
 9773SOL    HW130420   4.196   0.566   8.098  1.4467  0.7715  1.0622
 9773SOL    HW230421   4.134   0.563   8.237 -1.7226 -0.5516 -0.2770
 9774SOL     OW30422   8.208   0.110   0.929  0.9989  0.6158 -1.1946
 9774SOL    HW130423   8.160   0.043   0.880  0.5260 -1.1322  1.3918
 9774SOL    HW230424   8.299   0.100   0.901  0.8233 -0.6672 -1.3862
 9775SOL     OW30425   0.833   3.141   7.613  0.5767  0.1790 -0.4373
 9775SOL    HW130426   0.859   3.116   7.525 -1.2877 -1.0677 -0.6933
 9775SOL    HW230427   0.747   3.182   7.602 -0.6672 -1.8761  0.9538
 9776SOL     OW30428   6.800   7.657   5.027 -1.0142 -0.0375  0.0144
 9776SOL    HW130429   6.887   7.670   4.990 -1.0064  0.9841  0.3533
 9776SOL    HW230430   6.740   7.682   4.957 -1.0009  1.6133  0.5462
 9777SOL     OW30431   8.312   0.489   5.413  0.1463  0.4611  0.2146
 9777SOL    HW130432   8.310   0.488   5.317 -2.7866  3.3036  0.0642
 9777SOL    HW230433   8.227   0.455   5.439  0.5625  0.5571  1.8072
 9778SOL     OW30434   7.545   5.103   1.125  0.2784 -0.1371 -0.5548
 9778SOL    HW130435   7.513   5.174   1.069  1.4227 -0.5259 -1.7581
 9778SOL    HW230436   7.637   5.123   1.140  0.3752 -0.8761 -0.1133
 9779SOL     OW30437   5.183   5.598   6.118 -0.2575  0.0525 -0.5281
 9779SOL    HW130438   5.177   5.686   6.081 -0.4018  0.1633 -0.2470
 9779SOL    HW230439   5.266   5.563   6.085 -0.1616  0.3237 -0.5743
 9780SOL     OW30440   5.975   5.500   6.809 -0.3426 -0.4830  0.1546
 9780SOL    HW130441   5.938   5.431   6.754  1.6639 -0.5284 -1.2490
 9780SOL    HW230442   5.965   5.580   6.758  0.0107 -0.2351  0.4661
 9781SOL     OW30443   8.690   7.704   7.146 -0.1259 -0.0500  0.4792
 9781SOL    HW130444   8.780   7.738   7.147  0.3380 -1.1948  1.3314
 9781SOL    HW230445   8.658   7.722   7.058  1.3641 -0.6259 -0.2273
 9782SOL     OW30446   1.315   0.493   3.252  0.6110  0.5426  0.5361
 9782SOL    HW130447   1.237   0.438   3.260  0.9168 -0.0394 -0.3485
 9782SOL    HW230448   1.333   0.495   3.158 -0.4683  3.7261  0.3020
 9783SOL     OW30449   4.412   6.959   8.741 -0.5347  0.7521 -0.3169
 9783SOL    HW130450   4.353   6.899   8.694 -0.3364 -2.5906  3.1887
 9783SOL    HW230451   4.500   6.925   8.722 -0.4229 -0.2949  1.7453
 9784SOL     OW30452   4.790   6.128   0.154 -0.1555 -1.0220  0.3174
 9784SOL    HW130453   4.758   6.156   0.068 -1.3155 -0.4359  0.9129
 9784SOL    HW230454   4.878   6.096   0.138 -0.1529 -0.4033 -1.0016
 9785SOL     OW30455   0.218   8.259   1.636 -0.2148 -0.0975 -0.2204
 9785SOL    HW130456   0.242   8.262   1.729 -1.8262  1.6799  0.2113
 9785SOL    HW230457   0.265   8.333   1.597 -2.9611  1.9961  0.1794
 9786SOL     OW30458   2.538   6.967   4.890 -0.1481 -0.9426  0.3157
 9786SOL    HW130459   2.460   6.950   4.943 -1.4445  2.7756 -0.1227
 9786SOL    HW230460   2.503   6.979   4.801  0.9372  0.5224  0.0618
 9787SOL     OW30461   3.459   1.710   8.727  0.2136 -0.3383 -0.2810
 9787SOL    HW130462   3.439   1.640   8.663  0.8772  0.7599 -1.7411
 9787SOL    HW230463   3.554   1.721   8.722  0.3663 -0.6288  1.3783
 9788SOL     OW30464   7.483   5.895   8.271  0.4218  0.1610  0.2694
 9788SOL    HW130465   7.489   5.991   8.271  1.3576  0.1347 -1.2409
 9788SOL    HW230466   7.445   5.873   8.187 -0.5377 -0.7882  0.9283
 9789SOL     OW30467   6.554   0.902   2.620 -0.7695  0.0122 -0.0556
 9789SOL    HW130468   6.573   0.820   2.667 -1.1914  0.0351  0.1567
 9789SOL    HW230469   6.493   0.876   2.550  0.5610 -0.1913 -1.1892
 9790SOL     OW30470   5.332   8.703   0.464 -0.3408 -0.2030  0.2144
 9790SOL    HW130471   5.323   8.722   0.370 -0.9724  0.6939  0.4399
 9790SOL    HW230472   5.337   8.607   0.468 -1.5197 -0.3380 -0.6562
 9791SOL     OW30473   2.867   7.840   9.108 -0.1277  0.2487  0.1353
 9791SOL    HW130474   2.812   7.778   9.155 -0.5371  0.5189  0.0217
 9791SOL    HW230475   2.821   7.855   9.025  0.7463 -0.4619 -0.4850
 9792SOL     OW30476   1.075   1.736   1.453 -0.1658 -0.0465  0.1131
 9792SOL    HW130477   1.075   1.705   1.544  0.5646  0.6700  0.3739
 9792SOL    HW230478   1.132   1.813   1.454 -1.2416  0.7851 -0.6951
 9793SOL     OW30479   7.399   2.123   1.964  0.0493 -0.2977  0.6222
 9793SOL    HW130480   7.358   2.066   1.899 -1.3674 -0.9600  2.0537
 9793SOL    HW230481   7.331   2.187   1.985  0.8840  0.6010  0.6501
 9794SOL     OW30482   0.723   8.210   4.151  0.3412  0.1729 -0.3279
 9794SOL    HW130483   0.657   8.159   4.199 -0.7726  0.8933 -1.0397
 9794SOL    HW230484   0.749   8.279   4.212  0.7833 -0.3737  0.1164
 9795SOL     OW30485   7.215   5.879   6.488  0.2064  0.4140 -0.0501
 9795SOL    HW130486   7.212   5.794   6.444 -1.9439  1.0489 -1.2643
 9795SOL    HW230487   7.267   5.863   6.567 -1.0356 -2.3052  0.3282
 9796SOL     OW30488   6.285   4.201   0.817 -0.2689  0.1639  0.3777
 9796SOL    HW130489   6.229   4.251   0.758  0.3394  0.5806  0.1433
 9796SOL    HW230490   6.238   4.118   0.830 -1.4274  0.8889  1.0048
 9797SOL     OW30491   5.538   6.865   7.684  0.5444 -0.0881  0.1153
 9797SOL    HW130492   5.572   6.868   7.774  0.6588 -1.3161  0.1222
 9797SOL    HW230493   5.492   6.949   7.673 -0.1043 -0.2299  1.5639
 9798SOL     OW30494   0.335   2.208   7.835  0.0548 -0.6198 -0.0372
 9798SOL    HW130495   0.373   2.257   7.762 -0.7240 -0.4443 -0.3347
 9798SOL    HW230496   0.241   2.222   7.827 -0.1445 -1.7431  0.1854
 9799SOL     OW30497   3.677   6.010   8.193  0.2600 -0.4895 -0.3283
 9799SOL    HW130498   3.683   5.916   8.210  0.0944 -0.3458  0.5764
 9799SOL    HW230499   3.731   6.050   8.261 -3.3925  0.3297  2.4031
 9800SOL     OW30500   6.872   0.493   7.106 -0.0838  0.2577  0.1053
 9800SOL    HW130501   6.856   0.443   7.026  0.6442 -1.3293  0.8920
 9800SOL    HW230502   6.893   0.581   7.076 -0.8287 -0.0374 -1.3831
 9801SOL     OW30503   6.670   3.907   8.784 -0.8455  0.4211 -0.0323
 9801SOL    HW130504   6.763   3.908   8.761 -0.4074  0.6987  1.6592
 9801SOL    HW230505   6.645   3.815   8.780 -0.0782  0.1530  1.0566
 9802SOL     OW30506   1.124   0.714   1.142  0.2174 -0.1414 -0.2902
 9802SOL    HW130507   1.096   0.805   1.154  1.2638  0.0559  0.9340
 9802SOL    HW230508   1.139   0.706   1.048  0.6983  1.1564 -0.3531
 9803SOL     OW30509   1.665   7.086   6.272 -0.0214 -0.1861  0.0623
 9803SOL    HW130510   1.747   7.082   6.224 -0.6854 -0.4940 -1.0698
 9803SOL    HW230511   1.651   7.180   6.289 -0.4439  0.0766 -1.5561
 9804SOL     OW30512   1.554   1.838   4.361 -0.4739 -0.3135  0.5362
 9804SOL    HW130513   1.462   1.824   4.336  0.0360 -4.0609  0.2172
 9804SOL    HW230514   1.602   1.832   4.278  0.1326  1.3844  0.7347
 9805SOL     OW30515   0.969   7.222   1.652  0.7196 -0.0985  0.5026
 9805SOL    HW130516   0.900   7.187   1.708  0.3526 -0.0184  0.1058
 9805SOL    HW230517   1.013   7.288   1.706  1.1413 -0.8596  1.1040
 9806SOL     OW30518   1.038   2.406   4.531  0.0121 -0.7531  0.8450
 9806SOL    HW130519   1.114   2.371   4.485  0.5087  1.7835 -0.4623
 9806SOL    HW230520   0.963   2.362   4.490  0.5257  0.4635 -1.5973
 9807SOL     OW30521   4.750   6.141   7.992  0.4708 -0.0885  0.5260
 9807SOL    HW130522   4.673   6.194   8.008  0.2722 -0.0714 -0.4588
 9807SOL    HW230523   4.816   6.175   8.053  0.5446  1.7028 -0.4988
 9808SOL     OW30524   0.000   8.633   3.507 -0.3442  0.5893  0.0363
 9808SOL    HW130525  -0.063   8.563   3.488  0.7616 -0.0413 -1.5355
 9808SOL    HW230526   0.001   8.639   3.602 -0.3771 -1.6684  0.2379
 9809SOL     OW30527   7.775   5.677   7.566 -0.1571  0.3339 -0.2954
 9809SOL    HW130528   7.817   5.717   7.642 -2.0209  0.7156  0.5932
 9809SOL    HW230529   7.788   5.741   7.496 -0.6502  1.2081  0.3857
 9810SOL     OW30530   3.754   4.116   6.748  0.4406 -0.2679 -0.3372
 9810SOL    HW130531   3.825   4.085   6.693  0.4348 -0.5008 -0.2155
 9810SOL    HW230532   3.727   4.039   6.798  0.7724  0.0521  0.3495
 9811SOL     OW30533   0.578   6.106   4.975  0.5707 -0.1834  0.5079
 9811SOL    HW130534   0.650   6.077   4.919 -0.1313 -2.1508  0.5690
 9811SOL    HW230535   0.608   6.190   5.009  1.2059  0.8931 -2.4220
 9812SOL     OW30536   7.883   8.159   7.191  0.1656  0.4724 -0.4841
 9812SOL    HW130537   7.911   8.068   7.187 -1.7057 -0.3891  2.8169
 9812SOL    HW230538   7.953   8.204   7.239  0.0732  0.2725 -0.1578
 9813SOL     OW30539   2.747   2.612   2.908  0.2782 -0.0993 -0.2457
 9813SOL    HW130540   2.722   2.553   2.837  1.3619 -0.4864 -0.3227
 9813SOL    HW230541   2.719   2.567   2.987  0.7817 -0.5614 -0.3263
 9814SOL     OW30542   2.315   1.600   8.448  0.2485 -0.3546 -0.2303
 9814SOL    HW130543   2.376   1.672   8.428  0.9511 -1.1932 -1.2395
 9814SOL    HW230544   2.263   1.591   8.368  0.0425 -0.8476 -0.0419
 9815SOL     OW30545   9.052   8.553   8.808 -0.1761  0.6055 -0.2706
 9815SOL    HW130546   9.040   8.528   8.900  1.8493 -0.1137 -0.1567
 9815SOL    HW230547   8.963   8.571   8.777 -1.2173 -1.5457  1.1493
 9816SOL     OW30548   5.626   2.681   4.276 -0.5902  0.2710  0.3078
 9816SOL    HW130549   5.720   2.664   4.283 -0.5556  0.7664  1.2116
 9816SOL    HW230550   5.602   2.648   4.190  0.1939 -0.8795  0.5070
 9817SOL     OW30551   2.592   1.381   3.303  0.5336 -0.0664 -0.1331
 9817SOL    HW130552   2.519   1.329   3.337 -0.8636  0.7446 -1.7438
 9817SOL    HW230553   2.664   1.318   3.293 -0.4642 -1.2447 -0.0573
 9818SOL     OW30554   7.444   4.135   6.890  0.2151 -0.2845 -0.4108
 9818SOL    HW130555   7.407   4.220   6.865 -2.4552 -1.3450 -0.3381
 9818SOL    HW230556   7.537   4.153   6.904 -0.1869  2.5322 -0.7797
 9819SOL     OW30557   7.445   4.479   7.650  0.1946 -0.1758  0.0399
 9819SOL    HW130558   7.380   4.533   7.605  1.9418  1.0229 -1.2026
 9819SOL    HW230559   7.397   4.400   7.676 -1.5809  0.3354 -1.4369
 9820SOL     OW30560   8.629   1.486   0.333 -0.0159  0.6064  0.3360
 9820SOL    HW130561   8.576   1.472   0.412 -0.0893 -0.3458  0.1227
 9820SOL    HW230562   8.568   1.475   0.261  0.2946  0.3513  0.1123
 9821SOL     OW30563   5.470   8.815   8.530 -0.3444 -0.6306 -0.2098
 9821SOL    HW130564   5.411   8.889   8.520  0.3713  0.0416  0.4326
 9821SOL    HW230565   5.417   8.747   8.571 -0.9593 -0.4297 -0.6531
 9822SOL     OW30566   3.446   4.957   1.970  0.0739 -0.4324  0.0063
 9822SOL    HW130567   3.512   4.916   1.914  1.1732  1.0743  0.1393
 9822SOL    HW230568   3.385   4.998   1.909  0.4075 -0.1045 -0.1102
 9823SOL     OW30569   4.071   3.794   2.276  0.1666 -0.4723 -0.0938
 9823SOL    HW130570   4.135   3.723   2.266  0.1710 -0.2477 -2.3194
 9823SOL    HW230571   4.100   3.842   2.353  2.3912 -0.6963 -0.7202
 9824SOL     OW30572   4.989   4.609   4.531  0.1667 -0.0151 -0.1673
 9824SOL    HW130573   4.923   4.672   4.503 -0.1386  0.1511  0.9073
 9824SOL    HW230574   5.047   4.657   4.590  0.9217 -0.3124 -0.6358
 9825SOL     OW30575   3.603   4.550   0.069 -0.0746  0.1107 -0.6555
 9825SOL    HW130576   3.608   4.594  -0.016 -0.9176  3.0426  0.6963
 9825SOL    HW230577   3.683   4.575   0.114 -0.2942 -0.2336 -0.0654
 9826SOL     OW30578   2.055   8.489   2.778  0.4260 -0.4196  0.0754
 9826SOL    HW130579   2.035   8.489   2.685  2.1894  0.7649 -0.3567
 9826SOL    HW230580   2.099   8.405   2.792 -0.1305 -0.7422 -0.0716
 9827SOL     OW30581   2.741   2.433   8.955  0.1718 -0.2495  0.3267
 9827SOL    HW130582   2.809   2.431   8.888 -0.3588  1.3162 -0.2890
 9827SOL    HW230583   2.779   2.383   9.028  1.8027  0.1818 -0.1724
 9828SOL     OW30584   1.180   3.392   0.705 -0.2805 -0.1359 -0.4541
 9828SOL    HW130585   1.148   3.469   0.750  0.8399  1.2799 -1.9276
 9828SOL    HW230586   1.267   3.377   0.742 -0.7377 -1.1197  0.2730
 9829SOL     OW30587   1.673   3.553   5.278  0.0979 -0.1250  0.2432
 9829SOL    HW130588   1.656   3.496   5.352  0.7510 -1.7943 -0.8364
 9829SOL    HW230589   1.607   3.529   5.213 -0.2292  1.0407  0.1158
 9830SOL     OW30590   6.517   1.102   1.938 -0.1725  0.0525 -0.3461
 9830SOL    HW130591   6.586   1.054   1.984 -1.2133 -0.9618  0.2016
 9830SOL    HW230592   6.479   1.039   1.878 -0.1878  0.7974 -1.1383
 9831SOL     OW30593   4.124   3.672   4.231 -0.6809  0.2377  0.2371
 9831SOL    HW130594   4.146   3.762   4.253  0.1410 -0.2222  1.3980
 9831SOL    HW230595   4.207   3.625   4.236 -1.3440 -0.8814  1.2728
 9832SOL     OW30596   0.568   4.680   0.128 -0.0707  0.5304  0.0780
 9832SOL    HW130597   0.546   4.592   0.098 -0.2304  0.7272 -0.3849
 9832SOL    HW230598   0.572   4.672   0.224 -0.5082  0.1161  0.0675
 9833SOL     OW30599   8.161   4.520   1.026 -0.6439 -0.4865  0.8846
 9833SOL    HW130600   8.166   4.452   0.958 -0.4317 -0.1549  0.5643
 9833SOL    HW230601   8.227   4.585   1.000 -0.2545 -0.5646  1.6452
 9834SOL     OW30602   4.915   8.413   0.266  0.5665 -0.1324 -0.0837
 9834SOL    HW130603   4.991   8.471   0.271  0.3487  0.0398  2.3906
 9834SOL    HW230604   4.841   8.472   0.255  0.5098 -0.0861  0.5678
 9835SOL     OW30605   8.984   4.795   7.970 -0.4484 -0.2252  0.0925
 9835SOL    HW130606   8.991   4.784   8.065 -0.3316 -1.4432 -0.0465
 9835SOL    HW230607   9.048   4.864   7.950  1.2482 -1.5635  0.6276
 9836SOL     OW30608   7.463   4.190   5.649 -0.3555 -0.5582 -0.0668
 9836SOL    HW130609   7.382   4.139   5.654 -0.7990  0.2121  1.1542
 9836SOL    HW230610   7.434   4.277   5.623  0.2512 -0.6087 -0.9461
 9837SOL     OW30611   6.421   2.156   3.030  0.3492  0.4928  0.4005
 9837SOL    HW130612   6.515   2.169   3.020  0.2684  0.1227 -1.0810
 9837SOL    HW230613   6.386   2.168   2.941 -0.7453 -1.3298  0.5330
 9838SOL     OW30614   0.335   6.855   5.462  0.0882  0.8956 -0.7027
 9838SOL    HW130615   0.267   6.918   5.441  0.6571  1.6426 -0.3599
 9838SOL    HW230616   0.326   6.839   5.556 -1.9470 -1.8365 -1.2281
 9839SOL     OW30617   7.723   7.652   0.532 -0.2138  0.1782  0.3451
 9839SOL    HW130618   7.771   7.692   0.604 -0.5837  0.7753  0.2591
 9839SOL    HW230619   7.765   7.566   0.521 -0.5741 -0.1972  1.7003
 9840SOL     OW30620   5.501   2.337   7.231  0.0994 -0.0718  0.1659
 9840SOL    HW130621   5.578   2.297   7.192 -0.6388 -1.5577  0.1616
 9840SOL    HW230622   5.485   2.415   7.178  1.3998  0.0975 -0.0115
 9841SOL     OW30623   0.761   0.122   8.983 -0.1567  0.2752 -0.3714
 9841SOL    HW130624   0.836   0.063   8.983 -0.1376  0.3001 -0.5332
 9841SOL    HW230625   0.697   0.079   8.927 -0.8567 -0.4998  0.9568
 9842SOL     OW30626   1.077   7.133   6.275  0.5182 -0.3778 -0.0969
 9842SOL    HW130627   1.140   7.200   6.302 -0.8022  2.5341 -3.3837
 9842SOL    HW230628   1.014   7.129   6.347  2.3478 -0.5659  1.5777
 9843SOL     OW30629   6.389   1.479   3.797 -0.1258 -0.6311  0.2026
 9843SOL    HW130630   6.313   1.521   3.839 -0.9509 -2.2156  0.3644
 9843SOL    HW230631   6.441   1.446   3.870  1.2832  1.2527  0.1447
 9844SOL     OW30632   7.889   1.045   6.287  0.1527  0.4209 -0.0849
 9844SOL    HW130633   7.921   1.133   6.266  1.2456 -0.1172 -0.7466
 9844SOL    HW230634   7.812   1.060   6.343 -2.5286  1.9721 -3.7753
 9845SOL     OW30635   1.008   7.691   2.380 -0.1359 -0.3358 -0.0328
 9845SOL    HW130636   1.013   7.778   2.420  0.3747  0.5945 -2.0267
 9845SOL    HW230637   1.078   7.641   2.423  1.1950  0.9925 -0.5866
 9846SOL     OW30638   1.841   2.247   4.231  0.1069  0.2219  0.5727
 9846SOL    HW130639   1.926   2.255   4.274  0.4539 -0.3574  0.0078
 9846SOL    HW230640   1.778   2.261   4.301  0.6616 -0.9301  1.3472
 9847SOL     OW30641   2.331   6.572   8.689 -0.3063  0.0272 -0.5596
 9847SOL    HW130642   2.277   6.646   8.662 -0.4403 -0.3169 -1.2502
 9847SOL    HW230643   2.271   6.513   8.735 -0.2043  0.3275 -0.0302
 9848SOL     OW30644   7.713   4.684   0.926  0.6999 -0.2010 -0.0302
 9848SOL    HW130645   7.737   4.677   1.018  0.2833  0.9544  0.1824
 9848SOL    HW230646   7.793   4.659   0.879  0.8470 -1.0216  0.6244
 9849SOL     OW30647   8.690   3.937   5.618 -0.0465  0.1518 -0.1966
 9849SOL    HW130648   8.684   3.930   5.522 -1.0542 -1.2038 -0.0576
 9849SOL    HW230649   8.733   3.856   5.645 -1.0603 -0.1325  0.6048
 9850SOL     OW30650   6.186   5.045   6.374  0.4136 -0.4369 -0.5042
 9850SOL    HW130651   6.149   5.083   6.294  0.3662 -1.0134 -0.7616
 9850SOL    HW230652   6.196   4.952   6.354 -1.6517 -1.0406  0.8787
 9851SOL     OW30653   7.142   6.163   8.461 -0.3455 -0.4761  0.1616
 9851SOL    HW130654   7.112   6.253   8.459 -0.1899 -0.4167  0.4529
 9851SOL    HW230655   7.234   6.168   8.487 -0.4431 -0.7406  0.5784
 9852SOL     OW30656   8.803   3.841   7.109  0.4534 -0.3386 -0.1477
 9852SOL    HW130657   8.811   3.764   7.165 -0.3316  0.1886  0.7243
 9852SOL    HW230658   8.798   3.806   7.020  0.2236 -1.2852  0.2314
 9853SOL     OW30659   0.508   6.100   7.226  0.5027  0.0097 -0.3525
 9853SOL    HW130660   0.446   6.161   7.264  1.2826  0.0723  0.8629
 9853SOL    HW230661   0.460   6.058   7.154 -0.8799  0.1636  0.4536
 9854SOL     OW30662   3.304   6.568   5.485 -0.4094 -0.8512 -0.1658
 9854SOL    HW130663   3.290   6.548   5.392  0.8714  0.2731 -0.6284
 9854SOL    HW230664   3.294   6.484   5.529 -2.6081 -1.1636 -1.1014
 9855SOL     OW30665   1.553   0.278   3.290  0.3272 -0.2756  0.2951
 9855SOL    HW130666   1.599   0.226   3.355  2.7847  2.0280  0.5756
 9855SOL    HW230667   1.487   0.219   3.253  0.9739 -2.5828  2.6117
 9856SOL     OW30668   4.475   0.233   5.070 -0.1802  0.4536  0.1704
 9856SOL    HW130669   4.498   0.190   5.152  2.6519  3.4137  1.1617
 9856SOL    HW230670   4.403   0.292   5.093  0.4250  1.0729  0.5432
 9857SOL     OW30671   0.988   2.789   0.993 -0.8979 -0.0895 -0.3929
 9857SOL    HW130672   0.964   2.849   0.923  0.7437  1.5879  0.4017
 9857SOL    HW230673   0.982   2.842   1.073  0.1174 -1.1056  0.3858
 9858SOL     OW30674   2.176   8.441   6.746  0.5781  0.2643  0.0585
 9858SOL    HW130675   2.085   8.462   6.769 -0.6060 -1.0994 -2.8951
 9858SOL    HW230676   2.205   8.517   6.695  0.5839  0.0974 -0.1896
 9859SOL     OW30677   4.565   3.932   3.006  0.2161 -0.0016 -0.1384
 9859SOL    HW130678   4.575   3.906   3.098 -0.1669 -0.4335 -0.2130
 9859SOL    HW230679   4.650   3.913   2.966  0.1773 -0.4342 -0.0193
 9860SOL     OW30680   7.670   8.404   0.229 -0.2922  0.3246  0.1540
 9860SOL    HW130681   7.693   8.328   0.282  1.7290  1.0072  0.3349
 9860SOL    HW230682   7.722   8.394   0.149 -1.5909  0.4687 -0.7329
 9861SOL     OW30683   5.576   2.545   5.635  0.3169  0.2835 -0.1371
 9861SOL    HW130684   5.558   2.452   5.618  0.3631  0.1568  0.4989
 9861SOL    HW230685   5.495   2.589   5.612 -0.1415 -0.0619  0.7859
 9862SOL     OW30686   2.949   7.811   0.764 -0.0605  0.1929  0.0640
 9862SOL    HW130687   2.919   7.729   0.724 -0.3309 -0.0185  0.6961
 9862SOL    HW230688   3.042   7.798   0.778  0.0056  0.2041 -0.3296
 9863SOL     OW30689   4.877   3.779   5.448  0.1883 -0.2178  0.0501
 9863SOL    HW130690   4.890   3.786   5.542 -0.6213  0.2068  0.1407
 9863SOL    HW230691   4.782   3.776   5.437  0.2816 -1.9871 -0.6330
 9864SOL     OW30692   2.773   0.968   7.808 -0.1562  0.7522  0.0599
 9864SOL    HW130693   2.692   1.012   7.832 -0.1630 -0.5436  2.6461
 9864SOL    HW230694   2.842   1.028   7.838 -0.0880  1.4976 -1.4593
 9865SOL     OW30695   5.123   5.752   8.626 -0.5846 -0.5783  0.9724
 9865SOL    HW130696   5.200   5.792   8.668  0.4236 -0.6245 -0.7481
 9865SOL    HW230697   5.103   5.676   8.681  1.7868 -1.6543  0.4844
 9866SOL     OW30698   3.438   1.218   4.078  0.3260  0.4095 -0.0231
 9866SOL    HW130699   3.486   1.161   4.138  1.3863  0.8923 -0.3883
 9866SOL    HW230700   3.361   1.247   4.128 -0.0584 -1.0531  0.2785
 9867SOL     OW30701   8.814   2.436   0.555  0.1382 -0.3182 -0.1321
 9867SOL    HW130702   8.781   2.490   0.483  1.5515  1.9857  0.8359
 9867SOL    HW230703   8.737   2.390   0.587 -0.9111  0.2031 -1.7624
 9868SOL     OW30704   7.203   2.938   6.671 -0.4109 -0.1029  0.4934
 9868SOL    HW130705   7.222   2.941   6.577 -0.5809  1.6669  0.4839
 9868SOL    HW230706   7.282   2.901   6.710  0.4623  0.9977 -0.1766
 9869SOL     OW30707   0.169   7.259   3.590 -0.3005 -0.1758  0.1251
 9869SOL    HW130708   0.151   7.280   3.498  0.4559  2.3474  0.4759
 9869SOL    HW230709   0.144   7.167   3.598  0.2238 -0.6900 -2.7507
 9870SOL     OW30710   7.314   7.637   2.444 -0.3695  0.5258 -0.0567
 9870SOL    HW130711   7.318   7.541   2.436 -0.2185  0.4266  1.0247
 9870SOL    HW230712   7.405   7.666   2.434 -0.4744  0.6052 -0.8302
 9871SOL     OW30713   2.682   5.437   5.028  0.5889 -0.3954 -0.2787
 9871SOL    HW130714   2.638   5.413   5.109  1.6206  1.6785  0.9853
 9871SOL    HW230715   2.613   5.473   4.972 -0.3230 -2.8428 -0.8341
 9872SOL     OW30716   8.720   6.597   0.044  0.1624 -0.1856  0.2037
 9872SOL    HW130717   8.722   6.658  -0.030 -1.3257  0.0291  0.3152
 9872SOL    HW230718   8.663   6.526   0.014  0.3418 -0.5774  0.7896
 9873SOL     OW30719   3.239   5.461   4.660 -1.0721  0.3521  0.0174
 9873SOL    HW130720   3.225   5.550   4.629 -0.4469  0.4152 -0.1002
 9873SOL    HW230721   3.274   5.471   4.749 -1.8367  0.1981  0.3439
 9874SOL     OW30722   2.597   2.683   0.519  0.5067 -0.1842 -0.2542
 9874SOL    HW130723   2.578   2.676   0.426  0.6054  0.7663 -0.3552
 9874SOL    HW230724   2.565   2.601   0.557  0.4344 -0.5588 -1.1117
 9875SOL     OW30725   1.248   6.863   6.964 -0.4608  0.4821  0.2462
 9875SOL    HW130726   1.187   6.847   7.036 -1.0536  0.6734 -0.2145
 9875SOL    HW230727   1.309   6.928   6.999  1.3965 -1.8854  1.8222
 9876SOL     OW30728   5.882   6.053   4.541  0.0855  0.6153  0.5731
 9876SOL    HW130729   5.799   6.036   4.585  0.0728 -1.1781 -0.0838
 9876SOL    HW230730   5.862   6.123   4.479 -1.0650 -0.0940  0.1132
 9877SOL     OW30731   6.496   6.199   5.989 -0.2853 -0.1953  0.4869
 9877SOL    HW130732   6.501   6.151   6.072 -1.2463 -1.7526 -0.3201
 9877SOL    HW230733   6.587   6.218   5.967 -0.0112  0.1665  1.8388
 9878SOL     OW30734   8.831   8.851   2.888  0.0639  0.1343  0.5865
 9878SOL    HW130735   8.917   8.894   2.888 -0.5203  1.3281  0.3361
 9878SOL    HW230736   8.792   8.877   2.971 -0.3918  0.2639  0.3301
 9879SOL     OW30737   0.858   3.647   2.598  0.1501 -0.9479 -0.6772
 9879SOL    HW130738   0.947   3.673   2.623  0.3200  0.0666 -2.1873
 9879SOL    HW230739   0.807   3.728   2.605 -0.1081 -0.9683 -2.0737
 9880SOL     OW30740   3.419   0.690   8.615  0.2290 -0.3121 -0.8253
 9880SOL    HW130741   3.349   0.681   8.551  0.7582 -0.1062 -1.4425
 9880SOL    HW230742   3.438   0.600   8.643 -0.9223 -0.3003  0.0655
 9881SOL     OW30743   0.275   4.068   7.495 -0.3733  0.0301 -0.6023
 9881SOL    HW130744   0.336   4.117   7.439 -0.3153  1.6158  0.7431
 9881SOL    HW230745   0.332   4.018   7.554 -0.4007 -0.0190 -0.6169
 9882SOL     OW30746   3.412   0.343   8.004  0.2527  0.5336  0.0589
 9882SOL    HW130747   3.439   0.252   8.005 -0.5252  0.2919 -0.3459
 9882SOL    HW230748   3.454   0.381   8.082  0.5105 -0.1811  0.2794
 9883SOL     OW30749   8.244   8.844   8.211 -0.7105 -0.1586 -0.0072
 9883SOL    HW130750   8.287   8.793   8.279  0.0638 -2.3313 -2.0103
 9883SOL    HW230751   8.290   8.822   8.131 -0.8514  3.1486 -1.1684
 9884SOL     OW30752   8.667   0.413   5.911  0.3944 -0.0385 -0.7041
 9884SOL    HW130753   8.681   0.430   6.004 -0.5410  0.1157 -0.5736
 9884SOL    HW230754   8.754   0.398   5.875  0.7052 -0.8619  0.3438
 9885SOL     OW30755   1.946   4.278   1.713 -0.1659  0.6591 -0.8546
 9885SOL    HW130756   1.941   4.183   1.715 -1.7480  0.7416  0.3062
 9885SOL    HW230757   2.030   4.296   1.671  2.3537 -1.2702  2.8222
 9886SOL     OW30758   0.884   1.248   0.903 -0.0452  0.1594 -0.0013
 9886SOL    HW130759   0.817   1.181   0.894 -0.6843  0.8102 -0.1712
 9886SOL    HW230760   0.924   1.230   0.989 -1.5403  0.7289  0.8498
 9887SOL     OW30761   7.707   3.885   1.112  0.4333  0.1182 -0.2212
 9887SOL    HW130762   7.703   3.822   1.184 -0.5842 -0.7023 -0.9620
 9887SOL    HW230763   7.615   3.904   1.093  0.7251  2.4826  0.5190
 9888SOL     OW30764   4.480   8.392   6.792  0.1638  0.1101  0.1579
 9888SOL    HW130765   4.554   8.399   6.731 -0.9433  1.5544 -1.1156
 9888SOL    HW230766   4.406   8.367   6.737 -0.6557  0.4122  1.0923
 9889SOL     OW30767   4.962   7.460   8.445 -0.1147  0.1967  0.5797
 9889SOL    HW130768   4.869   7.473   8.426 -0.4260 -2.7017 -0.3538
 9889SOL    HW230769   4.976   7.366   8.436  3.1159  0.6205 -0.2164
 9890SOL     OW30770   3.005   1.534   3.988  0.4822 -0.4508  0.2424
 9890SOL    HW130771   3.021   1.628   3.989 -1.1847 -0.1095  1.6600
 9890SOL    HW230772   3.042   1.503   3.905  1.4493  1.3603 -0.0457
 9891SOL     OW30773   0.268   8.125   7.961  0.3317  0.3706 -0.2357
 9891SOL    HW130774   0.317   8.046   7.940 -1.0300 -0.7650  0.6267
 9891SOL    HW230775   0.310   8.161   8.039  0.2603 -0.1848  0.0652
 9892SOL     OW30776   5.905   8.170   2.858  0.6972 -0.3658 -0.1597
 9892SOL    HW130777   5.844   8.232   2.816  1.1906  1.5159  1.7447
 9892SOL    HW230778   5.986   8.220   2.867  2.1670 -2.3967 -1.4299
 9893SOL     OW30779   3.336   8.981   8.637  0.1070 -0.3223  0.3694
 9893SOL    HW130780   3.254   8.955   8.679 -0.1742  0.1230  0.1055
 9893SOL    HW230781   3.314   9.059   8.587  1.1128  0.9398  1.8042
 9894SOL     OW30782   8.208   1.917   8.250 -0.1518 -0.1806 -0.1570
 9894SOL    HW130783   8.149   1.846   8.277 -1.5806  0.0431 -2.4444
 9894SOL    HW230784   8.158   1.997   8.267 -0.8553 -0.0120 -2.6754
 9895SOL     OW30785   7.014   6.550   7.524  0.1551  0.0673 -0.2823
 9895SOL    HW130786   6.987   6.478   7.581  0.7311 -0.2291 -0.3700
 9895SOL    HW230787   7.050   6.506   7.446  0.1001  0.4554 -0.5286
 9896SOL     OW30788   2.528   5.641   6.302 -0.1062  0.4919 -0.2059
 9896SOL    HW130789   2.605   5.642   6.358 -1.0500  1.3151  1.1510
 9896SOL    HW230790   2.543   5.713   6.240  0.7089 -0.0812 -0.6851
 9897SOL     OW30791   8.199   4.251   5.840  0.6161 -0.4631  0.0298
 9897SOL    HW130792   8.140   4.283   5.772  0.1761 -0.7991  0.2442
 9897SOL    HW230793   8.167   4.163   5.860  0.8128 -0.4180  0.5786
 9898SOL     OW30794   7.612   7.945   0.739  0.1478  0.1981 -0.1764
 9898SOL    HW130795   7.577   7.879   0.798 -1.1417  0.8841 -0.1289
 9898SOL    HW230796   7.707   7.943   0.753  0.0367 -0.9585  0.5084
 9899SOL     OW30797   6.838   6.660   5.095 -0.1490  0.2508  0.0077
 9899SOL    HW130798   6.893   6.600   5.045 -1.5750  0.2336 -1.6552
 9899SOL    HW230799   6.852   6.745   5.054 -2.1783  0.0425 -1.2452
 9900SOL     OW30800   6.156   1.653   6.115  0.0807  0.3735 -0.0716
 9900SOL    HW130801   6.062   1.670   6.121 -0.2699 -1.4291  0.1483
 9900SOL    HW230802   6.172   1.643   6.021 -0.5038 -1.8858  0.0116
 9901SOL     OW30803   3.775   7.544   8.018 -0.2270 -0.2402 -0.0380
 9901SOL    HW130804   3.698   7.584   8.058 -0.0942 -1.1489  1.1560
 9901SOL    HW230805   3.806   7.480   8.082  1.8817  0.5051 -0.2366
 9902SOL     OW30806   0.183   8.851   1.805 -0.1902 -0.2814  0.2974
 9902SOL    HW130807   0.130   8.786   1.760  0.1166  0.6551 -1.5284
 9902SOL    HW230808   0.221   8.904   1.735  0.4531  1.1764  1.6673
 9903SOL     OW30809   6.065   4.299   7.685 -0.7982  0.2825  0.0936
 9903SOL    HW130810   6.026   4.302   7.773 -2.2143 -1.4354 -0.4186
 9903SOL    HW230811   6.040   4.383   7.646  0.7107  1.5187  1.6207
 9904SOL     OW30812   8.230   1.586   4.754  0.5309  0.1663  0.4105
 9904SOL    HW130813   8.235   1.678   4.730 -1.8146  0.0996 -0.5926
 9904SOL    HW230814   8.229   1.586   4.850  0.5179  1.1940  0.4189
 9905SOL     OW30815   4.802   8.650   8.109  0.0234  0.2070 -0.1071
 9905SOL    HW130816   4.851   8.720   8.152 -2.0898  1.2678  0.7219
 9905SOL    HW230817   4.828   8.571   8.155 -3.6788  1.4706  4.9930
 9906SOL     OW30818   8.448   8.774   3.560  0.6162 -0.1792 -0.0693
 9906SOL    HW130819   8.429   8.854   3.609  0.7717 -0.2438  0.0975
 9906SOL    HW230820   8.383   8.773   3.490  0.6649  0.1351 -0.1201
 9907SOL     OW30821   8.699   3.894   5.356  0.6975 -0.3539  0.1520
 9907SOL    HW130822   8.756   3.938   5.293  1.2125 -0.0852  0.7890
 9907SOL    HW230823   8.651   3.829   5.305  0.7571  0.1875 -0.5963
 9908SOL     OW30824   6.037   1.626   5.319 -0.4312 -0.1168  0.0260
 9908SOL    HW130825   6.075   1.615   5.232  0.6385  1.5615  0.2244
 9908SOL    HW230826   5.963   1.566   5.321 -0.7123  0.0766 -2.1848
 9909SOL     OW30827   7.943   2.945   4.419  0.2046 -0.0096 -0.1496
 9909SOL    HW130828   7.980   2.973   4.336  0.3766 -1.1402 -0.4634
 9909SOL    HW230829   7.951   2.850   4.419 -0.9131 -0.1277  0.6272
 9910SOL     OW30830   6.617   3.982   6.016 -0.4056  0.0419 -0.2921
 9910SOL    HW130831   6.681   4.052   6.007 -2.0411  1.3957 -2.0933
 9910SOL    HW230832   6.669   3.902   6.016  1.3615  1.1413 -0.2149
 9911SOL     OW30833   5.456   5.274   5.672 -0.7911  0.8090  0.0226
 9911SOL    HW130834   5.404   5.300   5.748 -1.3589  1.4143 -0.5527
 9911SOL    HW230835   5.392   5.241   5.609 -0.1487 -1.4192  0.4686
 9912SOL     OW30836   2.062   3.199   7.121  0.1964 -0.0572 -0.7777
 9912SOL    HW130837   1.997   3.250   7.171  1.1574  0.1393  0.3091
 9912SOL    HW230838   2.042   3.108   7.144  1.2785  0.0695  0.8600
 9913SOL     OW30839   0.617   2.978   0.922  0.0696  0.4977  0.6277
 9913SOL    HW130840   0.561   2.951   0.995 -2.1479  1.2134 -0.6935
 9913SOL    HW230841   0.634   2.897   0.874 -0.1433  0.3246  0.8370
 9914SOL     OW30842   8.492   7.852   6.074 -0.5223  0.0457  0.7399
 9914SOL    HW130843   8.430   7.912   6.114  0.1007  1.6814 -0.6068
 9914SOL    HW230844   8.465   7.847   5.982  0.8748  0.2478  0.2857
 9915SOL     OW30845   5.916   1.504   3.524  0.7557 -0.7497 -0.7140
 9915SOL    HW130846   5.821   1.490   3.531  0.5092 -0.5147 -2.8244
 9915SOL    HW230847   5.953   1.416   3.533  0.4335 -0.7466  0.9198
 9916SOL     OW30848   3.366   8.681   3.193 -0.2274 -0.2789  0.0278
 9916SOL    HW130849   3.319   8.709   3.115 -1.6320 -0.1920  0.8524
 9916SOL    HW230850   3.355   8.585   3.195 -1.3861 -0.1526  0.8045
 9917SOL     OW30851   5.040   5.378   8.500 -0.7769 -0.3565  0.7979
 9917SOL    HW130852   5.081   5.297   8.470 -1.8110 -0.8431  0.6590
 9917SOL    HW230853   5.074   5.445   8.440  0.5316 -0.5638  1.2725
 9918SOL     OW30854   1.397   1.826   0.904  0.6085 -0.1481  0.0946
 9918SOL    HW130855   1.382   1.895   0.968 -0.0154  0.6095 -0.8485
 9918SOL    HW230856   1.392   1.745   0.955 -1.2791  0.3573  0.7977
 9919SOL     OW30857   1.079   3.028   8.496  0.3946  0.6654  0.1181
 9919SOL    HW130858   1.135   3.099   8.464  0.6510  0.4558  0.1034
 9919SOL    HW230859   1.045   3.060   8.580  0.2052  0.9622 -0.0676
 9920SOL     OW30860   0.034   4.036   5.647 -0.1126  0.4063  0.1303
 9920SOL    HW130861  -0.010   4.117   5.672 -1.9646 -0.7447  0.8255
 9920SOL    HW230862   0.071   4.055   5.561  0.2127  2.2219  0.6249
 9921SOL     OW30863   8.436   3.554   4.851  0.2877 -0.4714  0.2167
 9921SOL    HW130864   8.458   3.630   4.904  1.6269 -0.3809 -0.4109
 9921SOL    HW230865   8.518   3.504   4.845  0.2871 -0.3088 -1.9834
 9922SOL     OW30866   3.526   2.758   8.354  0.2944  0.0211 -0.3523
 9922SOL    HW130867   3.507   2.668   8.325  1.2340  0.3808 -2.2904
 9922SOL    HW230868   3.616   2.773   8.324  1.0941  0.7697  2.1899
 9923SOL     OW30869   2.332   4.664   3.091 -0.5384  0.0723 -0.1411
 9923SOL    HW130870   2.287   4.643   3.009 -1.0491 -0.8048  0.3458
 9923SOL    HW230871   2.423   4.676   3.065 -0.7727  0.2671 -0.9102
 9924SOL     OW30872   6.091   8.841   4.288 -0.2660  0.5505  0.4798
 9924SOL    HW130873   6.001   8.808   4.293  0.2481 -1.5773 -1.8684
 9924SOL    HW230874   6.082   8.932   4.261 -1.7527 -0.0755 -1.3660
 9925SOL     OW30875   4.157   6.054   2.274 -0.0730  0.0844 -0.0133
 9925SOL    HW130876   4.080   5.997   2.269  0.3984 -0.7686  1.5284
 9925SOL    HW230877   4.139   6.125   2.213 -1.9893 -0.2053  0.1484
 9926SOL     OW30878   1.704   5.034   8.336  0.0625 -0.1662 -0.5281
 9926SOL    HW130879   1.617   5.075   8.336 -0.6668 -1.3850  2.5965
 9926SOL    HW230880   1.689   4.947   8.371  2.5053 -0.5887 -0.3686
 9927SOL     OW30881   2.654   5.815   5.848 -0.4529 -0.1387  0.0586
 9927SOL    HW130882   2.617   5.777   5.769 -2.8447 -0.2495  1.1490
 9927SOL    HW230883   2.631   5.908   5.844  0.1026  0.0116  0.2462
 9928SOL     OW30884   0.759   3.860   9.089  0.4772  0.3002 -0.1123
 9928SOL    HW130885   0.685   3.842   9.032 -0.8341  1.6593  1.0685
 9928SOL    HW230886   0.783   3.775   9.126  0.0459 -0.2738 -1.1356
 9929SOL     OW30887   0.417   2.659   5.335 -0.4010 -0.3506 -0.0184
 9929SOL    HW130888   0.373   2.696   5.412  1.3971  0.2383  0.7655
 9929SOL    HW230889   0.444   2.572   5.363 -1.4948 -0.9339 -0.6899
 9930SOL     OW30890   1.252   2.124   7.230  0.1651 -0.0892 -0.2238
 9930SOL    HW130891   1.314   2.093   7.164  1.4877  0.1332  0.8468
 9930SOL    HW230892   1.307   2.143   7.307 -1.3695 -0.8791  1.1404
 9931SOL     OW30893   4.821   4.173   2.145  0.2040  0.1470  0.1871
 9931SOL    HW130894   4.908   4.143   2.118 -0.0751 -1.5403  1.0159
 9931SOL    HW230895   4.797   4.239   2.080  1.5336 -0.3402 -0.8481
 9932SOL     OW30896   4.309   4.255   2.515  0.1393 -0.3252 -0.3582
 9932SOL    HW130897   4.369   4.266   2.589  0.8645  0.8922 -1.1067
 9932SOL    HW230898   4.318   4.335   2.464 -0.1032 -1.2688 -1.9578
 9933SOL     OW30899   4.627   6.993   0.085  0.2876  0.6465 -0.0113
 9933SOL    HW130900   4.663   7.034   0.007  2.0508  0.7299  0.7932
 9933SOL    HW230901   4.646   6.900   0.074 -1.0216  0.4257 -0.4660
 9934SOL     OW30902   0.241   3.289   6.790 -0.2067  0.2125 -0.1112
 9934SOL    HW130903   0.219   3.195   6.793  0.8867 -0.0447  2.6804
 9934SOL    HW230904   0.177   3.330   6.848  0.1238  1.0314 -0.3097
 9935SOL     OW30905   7.482   2.923   8.230  0.1834  0.2283  0.5209
 9935SOL    HW130906   7.505   2.990   8.294  0.0480 -0.0848  0.9060
 9935SOL    HW230907   7.460   2.971   8.151  1.8082  0.5572  0.2343
 9936SOL     OW30908   8.352   5.795   8.536 -0.3726  0.0578  0.0160
 9936SOL    HW130909   8.351   5.889   8.558  3.1228  0.3836 -0.7435
 9936SOL    HW230910   8.372   5.752   8.619 -2.1886 -0.1140  0.4105
 9937SOL     OW30911   4.172   7.472   2.488  0.0620  0.2515  0.3659
 9937SOL    HW130912   4.093   7.446   2.536 -0.6701 -0.7932 -1.3218
 9937SOL    HW230913   4.243   7.422   2.529 -0.6662 -1.1918 -0.0904
 9938SOL     OW30914   4.187   0.352   5.139 -0.1377  0.0014  0.1578
 9938SOL    HW130915   4.152   0.432   5.101 -0.7995 -0.2475  0.2398
 9938SOL    HW230916   4.122   0.325   5.204  0.0919 -0.5922  0.1481
 9939SOL     OW30917   0.200   0.491   4.460 -0.1043  0.8162 -0.2673
 9939SOL    HW130918   0.180   0.536   4.378  0.5802  1.0867 -0.2938
 9939SOL    HW230919   0.121   0.440   4.480  0.0357  0.0434 -1.5598
 9940SOL     OW30920   2.345   3.747   1.285  0.1612  0.2386 -0.3742
 9940SOL    HW130921   2.259   3.723   1.316 -0.2797  1.6523 -0.4081
 9940SOL    HW230922   2.391   3.779   1.362  0.2360  0.5958 -0.5627
 9941SOL     OW30923   0.465   3.335   8.419  0.2646 -0.1137  0.1809
 9941SOL    HW130924   0.401   3.361   8.353 -1.0097 -0.3660  1.2856
 9941SOL    HW230925   0.413   3.311   8.496  1.6823 -0.3170  1.1231
 9942SOL     OW30926   0.598   7.922   4.664 -0.3357 -0.4820 -0.7227
 9942SOL    HW130927   0.665   7.862   4.632 -0.1570 -0.8257  0.2683
 9942SOL    HW230928   0.646   7.999   4.693 -0.3321 -0.8194  0.2008
 9943SOL     OW30929   1.950   2.402   1.379 -0.2575 -0.1408  0.1944
 9943SOL    HW130930   1.875   2.403   1.438  0.4319 -0.4581  1.0986
 9943SOL    HW230931   2.011   2.465   1.417  0.6580 -1.1607  0.4516
 9944SOL     OW30932   1.821   8.646   5.982  0.1479 -0.1815 -0.1654
 9944SOL    HW130933   1.746   8.670   5.928 -0.0521 -0.8655 -0.1891
 9944SOL    HW230934   1.843   8.727   6.029 -1.2226 -0.2108  0.5927
 9945SOL     OW30935   3.228   7.744   8.617  0.3610  0.1168  0.2346
 9945SOL    HW130936   3.259   7.835   8.614 -0.8321  0.5176 -1.1566
 9945SOL    HW230937   3.157   7.741   8.554 -0.6554 -1.4268  1.3727
 9946SOL     OW30938   1.231   0.184   0.081  0.2256 -0.5456  0.4544
 9946SOL    HW130939   1.290   0.200   0.155  1.7226 -2.8252 -0.1598
 9946SOL    HW230940   1.278   0.220   0.005  0.1808 -1.0991  0.1615
 9947SOL     OW30941   0.280   0.216   8.271  0.1287 -0.0914  0.6297
 9947SOL    HW130942   0.204   0.258   8.313 -1.6898 -0.8753 -1.6550
 9947SOL    HW230943   0.280   0.127   8.304 -1.8161 -0.9653 -1.4007
 9948SOL     OW30944   8.025   3.779   2.974 -0.1591  0.1519  0.4799
 9948SOL    HW130945   7.935   3.786   3.007 -0.2122 -1.9643  0.9515
 9948SOL    HW230946   8.019   3.716   2.902  0.6428  1.5881 -0.9035
 9949SOL     OW30947   6.466   3.301   3.170 -0.4702  0.4038  0.6680
 9949SOL    HW130948   6.482   3.237   3.101 -0.5426  1.5446 -0.4493
 9949SOL    HW230949   6.465   3.250   3.251  1.0273 -0.7656 -0.0180
 9950SOL     OW30950   1.086   8.130   2.446 -0.7539  0.8093 -0.1456
 9950SOL    HW130951   1.011   8.156   2.393 -0.8961 -2.1795 -1.6254
 9950SOL    HW230952   1.048   8.101   2.529 -1.3194 -0.6558 -0.8728
 9951SOL     OW30953   5.195   8.621   3.191  0.0669  0.1193 -0.0173
 9951SOL    HW130954   5.260   8.691   3.191 -0.9370  1.0970  0.4558
 9951SOL    HW230955   5.148   8.632   3.274 -2.2643  1.0048 -1.3502
 9952SOL     OW30956   4.149   3.069   7.283 -0.2659  0.1503 -0.0058
 9952SOL    HW130957   4.219   3.113   7.331  1.2230 -0.8142 -1.2059
 9952SOL    HW230958   4.088   3.039   7.351  0.4874  0.9931  1.0671
 9953SOL     OW30959   7.337   1.667   6.676  0.2933 -0.0312  0.5773
 9953SOL    HW130960   7.288   1.596   6.634  1.7131 -0.8658  0.2808
 9953SOL    HW230961   7.417   1.626   6.708  2.0094  1.7231 -1.1404
 9954SOL     OW30962   6.687   6.234   0.505  0.1117  0.3543  0.2674
 9954SOL    HW130963   6.594   6.218   0.525 -0.5634  3.2937 -0.1034
 9954SOL    HW230964   6.724   6.266   0.587  0.0794  1.7784 -0.2403
 9955SOL     OW30965   1.059   7.571   4.887  0.3666 -0.1023  0.5315
 9955SOL    HW130966   1.096   7.607   4.806  0.3875  1.7849  1.3207
 9955SOL    HW230967   0.970   7.547   4.865  0.5759 -0.2145 -0.2142
 9956SOL     OW30968   7.547   8.733   0.926  0.1741 -0.1880  0.0537
 9956SOL    HW130969   7.625   8.709   0.876  0.5611  0.0136  0.5447
 9956SOL    HW230970   7.489   8.657   0.918  0.8188 -0.7411  0.4664
 9957SOL     OW30971   7.686   2.520   0.869 -0.1630  0.3748  0.0856
 9957SOL    HW130972   7.764   2.567   0.899  0.6192 -1.2813  0.7756
 9957SOL    HW230973   7.613   2.566   0.910  0.7410 -0.5584  2.9839
 9958SOL     OW30974   4.512   0.844   0.050  0.2073 -0.4282 -0.0210
 9958SOL    HW130975   4.601   0.877   0.047 -0.0852  0.3252 -0.7958
 9958SOL    HW230976   4.507   0.782  -0.023  0.3166 -1.0646  0.5033
 9959SOL     OW30977   0.169   1.818   8.641 -0.1145 -0.5081  0.1389
 9959SOL    HW130978   0.208   1.742   8.684 -0.3596 -0.7150  0.0054
 9959SOL    HW230979   0.175   1.798   8.547 -0.3205 -0.4335  0.1097
 9960SOL     OW30980   0.361   4.131   2.986 -0.0383 -0.1041 -0.5306
 9960SOL    HW130981   0.305   4.074   2.933  0.7371 -0.0644 -1.4125
 9960SOL    HW230982   0.433   4.074   3.014  0.4477  0.2994 -0.9451
 9961SOL     OW30983   7.159   8.763   2.817  0.8761 -0.1206 -0.1127
 9961SOL    HW130984   7.154   8.700   2.890  1.2647 -0.8954 -0.7321
 9961SOL    HW230985   7.236   8.734   2.767  1.2952  1.1019 -0.1973
 9962SOL     OW30986   6.302   5.929   0.448  0.7363 -0.1477  0.0727
 9962SOL    HW130987   6.377   5.900   0.395  0.5821 -0.7093  0.1496
 9962SOL    HW230988   6.242   5.968   0.386 -0.2109 -2.3257 -0.4745
 9963SOL     OW30989   7.319   8.914   5.832 -0.0588  0.1043 -0.1248
 9963SOL    HW130990   7.317   8.977   5.760  0.0350  0.2698  0.0154
 9963SOL    HW230991   7.232   8.874   5.832 -0.3704  0.7729  0.2578
 9964SOL     OW30992   8.597   1.671   9.065  0.8788 -0.2405 -0.3364
 9964SOL    HW130993   8.508   1.635   9.064  1.4477 -1.7671  0.2743
 9964SOL    HW230994   8.633   1.650   8.979  0.5329  0.7125 -0.7198
 9965SOL     OW30995   6.689   2.300   8.043  0.0529 -0.0047  0.5255
 9965SOL    HW130996   6.607   2.349   8.040 -0.6406 -1.1037  1.0418
 9965SOL    HW230997   6.708   2.291   8.136 -0.1430 -1.2118  0.4613
 9966SOL     OW30998   3.129   6.900   9.131 -0.5354 -0.3471  0.6229
 9966SOL    HW130999   3.095   6.946   9.208 -2.0559  1.6117 -1.1174
 9966SOL    HW231000   3.180   6.827   9.168 -1.6896  0.1359  3.4507
 9967SOL     OW31001   1.590   6.990   5.417 -0.4506  0.1403  0.4265
 9967SOL    HW131002   1.580   7.047   5.494 -0.0612  1.3677 -0.4014
 9967SOL    HW231003   1.666   7.026   5.371 -0.0800 -1.1867 -0.0252
 9968SOL     OW31004   7.511   1.973   0.719 -0.1794 -1.1682  0.3593
 9968SOL    HW131005   7.492   2.067   0.714  2.1697 -0.6035  0.7877
 9968SOL    HW231006   7.441   1.938   0.774 -2.1078 -0.0350 -1.2105
 9969SOL     OW31007   4.531   3.380   7.775 -0.0984  0.4007 -0.1369
 9969SOL    HW131008   4.481   3.328   7.839  0.0669  0.0252 -0.3132
 9969SOL    HW231009   4.472   3.452   7.752 -0.1180  0.6123  0.5287
 9970SOL     OW31010   7.048   3.812   7.919  0.4175 -0.2671 -0.1974
 9970SOL    HW131011   7.013   3.728   7.948  0.2207 -0.7191 -1.6643
 9970SOL    HW231012   6.972   3.872   7.922  0.2519 -0.4677 -0.4292
 9971SOL     OW31013   2.972   4.709   1.308  0.2598  0.3557  0.3801
 9971SOL    HW131014   2.899   4.770   1.300  1.2888  1.4186 -2.0636
 9971SOL    HW231015   3.049   4.762   1.286  1.4879 -1.2695  0.6059
 9972SOL     OW31016   6.178   7.664   1.056  0.0283  0.1393 -0.4019
 9972SOL    HW131017   6.098   7.647   1.106 -0.1212  0.7636 -0.4308
 9972SOL    HW231018   6.153   7.650   0.965 -0.1379  0.6634 -0.4389
 9973SOL     OW31019   8.845   7.656   8.425 -0.3864  0.0572 -0.7873
 9973SOL    HW131020   8.778   7.725   8.418 -0.8134 -0.3738 -1.0268
 9973SOL    HW231021   8.826   7.614   8.509  1.4607  1.8461  0.6336
 9974SOL     OW31022   7.921   4.660   5.016 -0.1689 -0.5365 -0.2857
 9974SOL    HW131023   8.015   4.645   5.027 -0.2467  0.1269  1.7613
 9974SOL    HW231024   7.904   4.639   4.925  2.0643 -0.1993 -0.8435
 9975SOL     OW31025   4.902   6.566   9.099 -0.4320 -0.4050  0.0810
 9975SOL    HW131026   4.834   6.566   9.167  0.3032 -0.1612  0.8379
 9975SOL    HW231027   4.859   6.528   9.022 -2.0540  1.5856 -0.1146
 9976SOL     OW31028   0.069   5.995   0.659 -0.2876  0.1611 -0.2742
 9976SOL    HW131029   0.120   5.921   0.692 -1.9999 -0.4707  1.0793
 9976SOL    HW231030   0.135   6.052   0.619  1.1561 -1.7778 -0.8508
 9977SOL     OW31031   5.559   4.409   4.150 -0.7802  0.1496 -0.7083
 9977SOL    HW131032   5.622   4.337   4.149  0.9341  1.5459 -2.5977
 9977SOL    HW231033   5.612   4.488   4.154 -2.5373  1.3766 -0.0805
 9978SOL     OW31034   7.931   3.687   1.887  0.0781  0.0252  0.1028
 9978SOL    HW131035   7.922   3.774   1.848  1.0072 -0.5847 -1.5865
 9978SOL    HW231036   8.000   3.644   1.836 -0.5868 -1.8358  0.6591
 9979SOL     OW31037   6.933   7.046   5.662  0.1830 -0.1745 -0.1271
 9979SOL    HW131038   6.920   6.952   5.659 -0.4303 -0.0920 -0.2428
 9979SOL    HW231039   6.863   7.078   5.720  1.6836 -0.0040  1.7024
 9980SOL     OW31040   3.507   2.620   3.177 -0.1975 -0.7071 -0.2946
 9980SOL    HW131041   3.465   2.560   3.115 -2.4330 -0.2759  0.7160
 9980SOL    HW231042   3.460   2.703   3.166 -1.4877 -0.8945  2.6651
 9981SOL     OW31043   3.954   8.507   9.084 -0.7176 -0.0395  0.4069
 9981SOL    HW131044   3.900   8.538   9.012 -0.7239 -0.1705  0.3540
 9981SOL    HW231045   3.904   8.527   9.163 -0.0136  1.5640  0.4890
 9982SOL     OW31046   3.053   8.079   1.454 -0.2336  0.0263  0.1632
 9982SOL    HW131047   2.968   8.099   1.413 -0.1910  1.0062  0.5295
 9982SOL    HW231048   3.049   8.121   1.540  0.8337  0.5834 -0.0387
 9983SOL     OW31049   5.374   0.419   1.729 -0.1948  0.1274 -0.0716
 9983SOL    HW131050   5.399   0.405   1.638 -2.1940  0.8901 -0.8118
 9983SOL    HW231051   5.441   0.478   1.764  1.3450 -1.2447 -0.6077
 9984SOL     OW31052   6.618   1.746   4.839  0.2409 -0.0767 -0.5436
 9984SOL    HW131053   6.663   1.701   4.767  1.7789  0.5499 -0.0134
 9984SOL    HW231054   6.534   1.772   4.802  1.4029  1.1619 -2.4830
 9985SOL     OW31055   3.970   2.794   2.822 -0.0953 -0.2756  0.5489
 9985SOL    HW131056   4.038   2.728   2.825 -1.1357 -1.5471 -1.4521
 9985SOL    HW231057   3.900   2.760   2.878 -0.7575 -1.0872 -0.7244
 9986SOL     OW31058   4.623   8.101   0.286  0.0883  0.1242 -0.1449
 9986SOL    HW131059   4.544   8.148   0.259 -2.6537 -2.2056  3.0500
 9986SOL    HW231060   4.677   8.168   0.328 -1.2954  1.3839 -0.2903
 9987SOL     OW31061   0.597   7.716   4.123 -0.4284 -0.2496 -0.1126
 9987SOL    HW131062   0.516   7.748   4.163 -0.0003  1.3011 -0.4290
 9987SOL    HW231063   0.651   7.690   4.198 -0.2686  1.0804  0.2572
 9988SOL     OW31064   8.813   4.440   4.273 -0.2033  0.3917  0.5768
 9988SOL    HW131065   8.894   4.400   4.304 -0.2793 -2.0631 -1.9424
 9988SOL    HW231066   8.841   4.515   4.221  0.4954 -0.3311 -0.1288
 9989SOL     OW31067   3.221   7.592   5.147 -0.3565  0.0689 -0.0132
 9989SOL    HW131068   3.213   7.568   5.055  1.5371 -0.9581  0.0178
 9989SOL    HW231069   3.270   7.674   5.147 -2.3603  1.3109  0.0449
 9990SOL     OW31070   0.006   3.202   4.419 -0.3088  0.0143 -0.4715
 9990SOL    HW131071  -0.046   3.280   4.397 -0.0892  0.2826 -0.0434
 9990SOL    HW231072  -0.059   3.132   4.425 -0.3330 -0.2343 -2.6226
 9991SOL     OW31073   5.847   2.942   1.174  0.1447  0.1269  0.1179
 9991SOL    HW131074   5.873   2.861   1.219 -0.7428 -0.3526 -0.2136
 9991SOL    HW231075   5.772   2.974   1.224 -0.9152 -0.4640 -1.0396
 9992SOL     OW31076   4.225   8.340   5.061 -0.0706 -0.1973  0.4144
 9992SOL    HW131077   4.143   8.294   5.079 -0.6740 -0.4109 -2.4117
 9992SOL    HW231078   4.286   8.309   5.127 -2.2095 -0.1142  2.5400
 9993SOL     OW31079   4.818   4.767   3.884  0.6247 -0.3979 -1.0119
 9993SOL    HW131080   4.912   4.750   3.895  0.3824 -2.6454 -1.7280
 9993SOL    HW231081   4.776   4.684   3.909 -1.1447  0.4612 -1.0074
 9994SOL     OW31082   4.374   0.736   3.479  0.5042  0.4674  0.1948
 9994SOL    HW131083   4.391   0.826   3.451 -1.4914  0.6141 -0.7456
 9994SOL    HW231084   4.295   0.711   3.432  0.2737 -1.3391  1.4333
 9995SOL     OW31085   2.309   8.087   3.090  0.8261  0.3116 -0.5357
 9995SOL    HW131086   2.228   8.139   3.090 -0.9848 -2.3364 -0.7948
 9995SOL    HW231087   2.314   8.051   3.179  2.4630  1.4289 -0.1330
 9996SOL     OW31088   0.810   0.198   8.179 -0.1594  0.0194  0.3079
 9996SOL    HW131089   0.761   0.275   8.206  1.2638  1.1019 -0.0807
 9996SOL    HW231090   0.848   0.163   8.259 -2.8866 -1.9067  0.9278
 9997SOL     OW31091   4.070   5.631   4.545 -0.0559 -0.1491 -0.3689
 9997SOL    HW131092   4.009   5.583   4.489  0.5917 -0.2419 -1.0142
 9997SOL    HW231093   4.148   5.644   4.490 -0.0760  1.3197 -0.0885
 9998SOL     OW31094   1.786   0.629   6.130 -0.8099 -0.0348 -0.0776
 9998SOL    HW131095   1.784   0.656   6.221 -0.0259 -0.0677 -0.0455
 9998SOL    HW231096   1.783   0.534   6.133 -2.1088 -0.0190 -0.1436
 9999SOL     OW31097   8.570   5.644   2.093  0.7461  0.7888  0.3394
 9999SOL    HW131098   8.518   5.574   2.052 -0.9855  0.9972  2.0348
 9999SOL    HW231099   8.589   5.705   2.022 -0.7949  0.3628 -0.4840
10000SOL     OW31100   3.358   6.039   1.820 -0.0411 -0.1259  0.2542
10000SOL    HW131101   3.378   6.128   1.848 -1.3548  0.7988 -1.5595
10000SOL    HW231102   3.440   6.006   1.782 -0.1105  1.1282 -1.0355
10001SOL     OW31103   6.029   6.791   0.329  0.7747  0.4906  0.1624
10001SOL    HW131104   5.966   6.790   0.401  1.4626 -1.1394  0.8029
10001SOL    HW231105   6.110   6.758   0.368  1.7657  1.6167 -0.8714
10002SOL     OW31106   2.677   4.506   5.440  0.0499 -0.0388  0.3021
10002SOL    HW131107   2.700   4.454   5.363 -2.9335  1.4527 -1.7776
10002SOL    HW231108   2.748   4.570   5.448  1.5731 -1.6683  0.2994
10003SOL     OW31109   1.549   6.519   2.006 -0.6811  0.7525 -0.7054
10003SOL    HW131110   1.564   6.575   1.930 -0.5104 -1.5000 -2.4366
10003SOL    HW231111   1.636   6.490   2.031 -0.7037  1.7503  0.6340
10004SOL     OW31112   3.803   2.578   6.865 -0.6609 -0.3097  0.3008
10004SOL    HW131113   3.874   2.517   6.846  0.1026 -0.2415  2.5991
10004SOL    HW231114   3.847   2.664   6.871 -1.1451 -0.0716  0.4831
10005SOL     OW31115   2.663   1.906   9.065  0.0606  0.5298  0.1244
10005SOL    HW131116   2.724   1.846   9.022 -0.0579  1.1399 -0.9275
10005SOL    HW231117   2.591   1.851   9.094  0.1424  0.1074 -0.4641
10006SOL     OW31118   8.450   7.758   1.830 -0.2643  0.4151 -0.0762
10006SOL    HW131119   8.382   7.793   1.887  0.6765  2.5475 -0.1826
10006SOL    HW231120   8.491   7.688   1.881 -2.2203 -0.6521  0.1323
10007SOL     OW31121   1.197   7.314   3.703 -0.0479  0.5310  0.8389
10007SOL    HW131122   1.167   7.334   3.615 -0.2947  1.3775  1.1082
10007SOL    HW231123   1.189   7.219   3.710  0.2927  0.4151 -0.1634
10008SOL     OW31124   2.220   8.552   7.319 -0.4827 -0.0300 -0.3743
10008SOL    HW131125   2.274   8.484   7.360  1.6745  0.9559 -1.4493
10008SOL    HW231126   2.214   8.525   7.227 -0.3740  0.7701 -0.6215
10009SOL     OW31127   7.534   8.157   5.651 -0.4705  0.6263 -0.2438
10009SOL    HW131128   7.527   8.216   5.726 -0.7734  0.7563 -0.3716
10009SOL    HW231129   7.622   8.172   5.617  0.1695 -0.4070  0.8912
10010SOL     OW31130   1.939   7.296   3.423 -0.4736  0.0848 -0.7686
10010SOL    HW131131   2.032   7.288   3.403 -0.3905  0.3018 -0.4796
10010SOL    HW231132   1.929   7.256   3.509 -0.6563  0.0205 -0.8188
10011SOL     OW31133   5.275   5.217   6.536  0.4035  0.0800 -0.0182
10011SOL    HW131134   5.227   5.247   6.613  0.3265 -0.3558  0.1042
10011SOL    HW231135   5.360   5.261   6.542  0.7878 -0.7457  0.8712
10012SOL     OW31136   4.681   8.236   9.060  0.0957  0.0262  0.2509
10012SOL    HW131137   4.641   8.170   9.116 -0.9317  0.4466  0.0264
10012SOL    HW231138   4.608   8.286   9.025  0.7024 -0.2545 -1.5204
10013SOL     OW31139   7.889   4.613   2.832 -1.0019 -0.0132  0.3825
10013SOL    HW131140   7.842   4.623   2.914 -0.7486  1.1484  0.4020
10013SOL    HW231141   7.981   4.617   2.856 -0.9216 -0.2175  0.1088
10014SOL     OW31142   0.975   7.284   8.221 -0.0788 -0.7406 -0.1516
10014SOL    HW131143   0.997   7.371   8.255 -3.5361 -0.3944  1.6224
10014SOL    HW231144   0.949   7.300   8.130 -0.2587  0.0405  0.0236
10015SOL     OW31145   7.209   6.299   8.081  0.3437  0.6512 -0.3650
10015SOL    HW131146   7.165   6.232   8.134  3.0587 -0.1204  1.0784
10015SOL    HW231147   7.262   6.250   8.019  4.0741  1.1806  2.1092
10016SOL     OW31148   7.895   5.453   8.694  0.1294  0.4999 -0.1222
10016SOL    HW131149   7.945   5.385   8.740  1.0684  0.8334 -0.6253
10016SOL    HW231150   7.884   5.419   8.606 -1.5111 -0.0533  0.2688
10017SOL     OW31151   8.846   2.461   0.148 -0.2684 -0.4123 -0.5826
10017SOL    HW131152   8.786   2.404   0.100 -1.7806  0.5971  0.0654
10017SOL    HW231153   8.861   2.536   0.090 -0.4000 -0.2008 -0.3425
10018SOL     OW31154   4.073   5.319   0.199 -0.1692  0.4946  0.1285
10018SOL    HW131155   3.981   5.295   0.190 -0.3079  0.3886  1.6306
10018SOL    HW231156   4.118   5.236   0.215 -0.0719  0.7390  1.1701
10019SOL     OW31157   3.704   6.698   0.265  0.1196 -0.1596 -0.1957
10019SOL    HW131158   3.615   6.663   0.270  0.2123 -0.6304 -1.5001
10019SOL    HW231159   3.757   6.633   0.310  0.0838 -1.0130 -1.3259
10020SOL     OW31160   8.295   5.263   8.850  0.1470 -0.1395 -0.4440
10020SOL    HW131161   8.377   5.227   8.884  0.0490 -0.6015 -0.6924
10020SOL    HW231162   8.271   5.204   8.778 -0.2571  0.1545 -0.5521
10021SOL     OW31163   0.616   8.678   3.607 -0.4716  0.0888  0.4848
10021SOL    HW131164   0.520   8.685   3.607 -0.5740 -1.2027  0.3386
10021SOL    HW231165   0.644   8.723   3.527 -0.7368  2.7700  1.7695
10022SOL     OW31166   3.567   6.898   6.294 -0.0271 -0.3893 -0.2130
10022SOL    HW131167   3.486   6.951   6.292  0.4000  0.3858  1.2041
10022SOL    HW231168   3.629   6.953   6.342  1.3990 -0.9236 -1.4083
10023SOL     OW31169   0.559   4.350   7.892  0.3544  0.2713  0.3762
10023SOL    HW131170   0.479   4.301   7.872  0.7992  0.0160 -0.8061
10023SOL    HW231171   0.625   4.315   7.833  1.1336  1.0851  0.7379
10024SOL     OW31172   2.309   7.510   3.941 -0.3437 -0.0440  0.4291
10024SOL    HW131173   2.357   7.526   3.860  0.1887  0.4002  0.8300
10024SOL    HW231174   2.363   7.548   4.010 -1.4641  0.8361  0.8556
10025SOL     OW31175   1.894   3.923   4.863  0.1473  0.3669  0.7594
10025SOL    HW131176   1.960   3.900   4.928  0.2816  0.6481  0.7250
10025SOL    HW231177   1.811   3.922   4.912  0.1832  0.0653  0.8131
10026SOL     OW31178   1.688   3.878   0.789 -0.1907 -0.0729  0.0466
10026SOL    HW131179   1.656   3.932   0.717 -0.5857 -0.7109 -0.2596
10026SOL    HW231180   1.617   3.879   0.854 -0.9900 -1.6851 -0.7362
10027SOL     OW31181   2.780   2.321   2.705  0.2301 -0.0808 -0.1296
10027SOL    HW131182   2.696   2.368   2.705  0.1640 -0.1839  0.6497
10027SOL    HW231183   2.761   2.239   2.660 -0.0339 -0.0047 -0.1600
10028SOL     OW31184   8.802   2.849   7.484  0.6460 -0.3995 -0.4223
10028SOL    HW131185   8.836   2.775   7.433 -2.3202 -2.4467  0.2973
10028SOL    HW231186   8.833   2.833   7.573  0.5734 -0.4133 -0.3988
10029SOL     OW31187   1.536   6.552   2.511  0.3671 -0.2798  0.0909
10029SOL    HW131188   1.481   6.484   2.549 -0.4820 -0.8433 -2.0104
10029SOL    HW231189   1.513   6.632   2.559 -1.3136 -0.7746  0.1541
10030SOL     OW31190   7.727   6.044   0.140  0.2210 -0.3417  0.1111
10030SOL    HW131191   7.813   6.076   0.115  0.4146 -0.2674  0.8255
10030SOL    HW231192   7.665   6.099   0.093  0.5427 -1.5512 -1.8421
10031SOL     OW31193   8.550   3.909   3.172 -0.2720  0.4676  0.3539
10031SOL    HW131194   8.504   3.992   3.177  0.6529  0.9333  1.8398
10031SOL    HW231195   8.523   3.861   3.250 -0.3681 -0.4075 -0.1991
10032SOL     OW31196   5.104   5.592   7.945  0.1645  0.2242  0.2313
10032SOL    HW131197   5.053   5.647   8.004  1.2640  0.8122  0.6687
10032SOL    HW231198   5.049   5.583   7.867 -0.1166  1.8299  0.2149
10033SOL     OW31199   3.481   6.381   8.249 -0.3644 -0.2930  0.3967
10033SOL    HW131200   3.552   6.409   8.306 -1.2312  0.7522  0.9977
10033SOL    HW231201   3.415   6.347   8.309 -0.9091 -0.0404 -0.0506
10034SOL     OW31202   1.466   8.846   2.844 -0.2235 -0.6215 -0.0613
10034SOL    HW131203   1.450   8.754   2.823 -0.9484 -0.6718  0.6574
10034SOL    HW231204   1.396   8.893   2.798 -0.4657 -0.5292  0.3943
10035SOL     OW31205   3.668   8.660   4.403  0.0919 -0.6732  0.1701
10035SOL    HW131206   3.637   8.674   4.314  2.1829  0.5920 -0.4324
10035SOL    HW231207   3.603   8.601   4.442 -1.3074 -0.6151 -1.9056
10036SOL     OW31208   4.952   5.579   3.308  0.0115  0.4076 -0.0173
10036SOL    HW131209   4.908   5.591   3.224  1.0621  1.8365 -0.4175
10036SOL    HW231210   5.043   5.558   3.285  0.3456  0.9539  0.7405
10037SOL     OW31211   5.188   1.186   5.136 -0.1726  0.1211 -0.7053
10037SOL    HW131212   5.101   1.203   5.100 -0.0946 -0.2665 -1.0941
10037SOL    HW231213   5.235   1.143   5.064  0.7310  1.4209 -0.9178
10038SOL     OW31214   8.316   4.333   8.707 -0.4030 -0.0867 -0.1051
10038SOL    HW131215   8.230   4.328   8.749 -0.7549 -3.0482 -0.9919
10038SOL    HW231216   8.307   4.405   8.644 -2.6664 -1.0438 -0.9929
10039SOL     OW31217   8.779   1.531   6.304  0.3365 -0.0699 -0.1089
10039SOL    HW131218   8.845   1.462   6.305  0.7615  0.2814 -1.5269
10039SOL    HW231219   8.696   1.485   6.299  0.5514 -0.4916  0.1281
10040SOL     OW31220   3.771   6.367   4.534 -0.3826  0.7738 -0.6309
10040SOL    HW131221   3.711   6.440   4.546 -2.3023 -0.4389 -2.1717
10040SOL    HW231222   3.714   6.289   4.537  1.6362 -0.7719  1.6556
10041SOL     OW31223   8.165   8.466   8.459  0.5977  0.0988 -0.0047
10041SOL    HW131224   8.165   8.376   8.491 -2.1616  0.4090  1.1750
10041SOL    HW231225   8.190   8.459   8.367  0.4584 -1.8833  0.0651
10042SOL     OW31226   4.978   5.042   7.448 -0.4845  0.3618 -0.3008
10042SOL    HW131227   4.975   5.138   7.454  1.1670  0.4354 -0.2364
10042SOL    HW231228   4.910   5.012   7.508  0.1674  1.4828  1.0544
10043SOL     OW31229   7.728   9.041   2.116 -0.9122  0.0345  0.0052
10043SOL    HW131230   7.808   9.086   2.089 -1.3213 -0.0116 -1.3408
10043SOL    HW231231   7.669   9.051   2.042 -1.8696 -0.6398  0.6593
10044SOL     OW31232   1.850   8.191   3.648 -0.1251  0.3157  0.5857
10044SOL    HW131233   1.755   8.180   3.639 -0.1439  1.8802 -2.4738
10044SOL    HW231234   1.886   8.109   3.614 -0.3835  0.3557  0.2064
10045SOL     OW31235   4.216   6.468   5.338 -1.5367  0.6471 -0.1305
10045SOL    HW131236   4.129   6.506   5.352 -1.4404  1.7904 -2.2688
10045SOL    HW231237   4.238   6.490   5.248 -0.0664 -1.8142 -0.4659
10046SOL     OW31238   3.312   5.026   4.105  0.3418 -0.0459 -0.1840
10046SOL    HW131239   3.394   5.066   4.132  1.1954 -1.2783 -0.8537
10046SOL    HW231240   3.338   4.949   4.053 -1.2246 -0.2146 -0.7871
10047SOL     OW31241   5.635   7.652   8.613  0.3293  0.0304  0.0106
10047SOL    HW131242   5.620   7.683   8.702 -2.0119  0.0141 -0.3180
10047SOL    HW231243   5.730   7.652   8.604  0.6103  0.7839  2.2279
10048SOL     OW31244   3.233   0.553   3.010 -0.5384  1.0528 -0.1527
10048SOL    HW131245   3.263   0.630   2.962  0.1003  0.9321  0.0541
10048SOL    HW231246   3.224   0.485   2.943  1.4528  0.5510  0.0298
10049SOL     OW31247   8.547   8.586   7.748  0.4823 -0.0578 -0.7816
10049SOL    HW131248   8.566   8.634   7.829  1.3784  1.1283 -1.6441
10049SOL    HW231249   8.484   8.641   7.702 -0.5802 -1.0855 -0.5873
10050SOL     OW31250   6.108   2.607   8.434  0.3862  0.4193  0.3623
10050SOL    HW131251   6.128   2.523   8.392 -0.0525  1.0538 -1.1774
10050SOL    HW231252   6.051   2.584   8.507  0.4647 -0.6449  0.1079
10051SOL     OW31253   8.390   8.208   3.547 -0.1801  0.0407  0.1210
10051SOL    HW131254   8.391   8.301   3.525 -0.0564 -0.2136 -1.0387
10051SOL    HW231255   8.300   8.180   3.531 -0.0922 -0.1496 -0.0485
10052SOL     OW31256   7.663   0.009   5.911 -0.1343 -0.0164 -0.3742
10052SOL    HW131257   7.691  -0.037   5.832  2.5751  0.3706  0.2845
10052SOL    HW231258   7.643   0.098   5.882  1.9365  0.4425 -0.5117
10053SOL     OW31259   3.715   3.976   6.227  0.5613  0.0055 -0.2934
10053SOL    HW131260   3.652   3.924   6.277  1.1977 -0.6046 -0.1146
10053SOL    HW231261   3.793   3.980   6.283  1.1927 -0.4678 -1.1109
10054SOL     OW31262   6.369   4.634   3.417 -0.2551  0.2684  0.7852
10054SOL    HW131263   6.291   4.628   3.472  0.6592  1.2339  2.2234
10054SOL    HW231264   6.442   4.613   3.475  0.7960  1.9041  0.1226
10055SOL     OW31265   8.935   2.426   1.948  0.1537 -0.2987 -0.7017
10055SOL    HW131266   8.974   2.359   2.005 -0.9102 -0.4150 -0.0829
10055SOL    HW231267   8.876   2.377   1.890 -1.0617  0.1386  0.1299
10056SOL     OW31268   3.764   1.338   9.094 -0.3328 -0.0210 -0.1847
10056SOL    HW131269   3.762   1.341   9.189 -1.4782  1.2494 -0.2095
10056SOL    HW231270   3.856   1.324   9.071  0.1148  0.7381  1.0839
10057SOL     OW31271   8.860   5.591   5.251  0.4652  0.2150 -0.2052
10057SOL    HW131272   8.934   5.537   5.222  0.5523  0.3339 -0.2078
10057SOL    HW231273   8.823   5.627   5.171  0.8262  0.6980 -0.1627
10058SOL     OW31274   2.803   0.951   2.626  0.2538  0.1572 -0.3862
10058SOL    HW131275   2.768   1.035   2.596 -1.4776 -1.0004 -1.8273
10058SOL    HW231276   2.875   0.974   2.683 -2.0972  2.7315  1.8223
10059SOL     OW31277   8.843   4.463   0.497 -0.1041 -0.1455  0.3849
10059SOL    HW131278   8.930   4.475   0.458 -0.0744 -2.3555 -0.3615
10059SOL    HW231279   8.828   4.544   0.546  0.9214  1.7335 -2.1593
10060SOL     OW31280   4.066   4.963   6.612 -0.1851 -0.2055 -0.7154
10060SOL    HW131281   4.018   5.024   6.668  0.6339  1.0260 -1.3040
10060SOL    HW231282   4.078   4.885   6.666  0.4903  0.9030  0.7949
10061SOL     OW31283   5.213   7.003   0.084 -1.0831  0.0634 -0.0577
10061SOL    HW131284   5.297   7.048   0.075  0.0468 -1.9890 -0.4022
10061SOL    HW231285   5.148   7.073   0.082  0.5674  1.6582 -0.5247
10062SOL     OW31286   4.636   2.773   2.600 -0.3664  0.1707 -0.0860
10062SOL    HW131287   4.562   2.764   2.540 -0.9162 -2.8440  0.8689
10062SOL    HW231288   4.600   2.822   2.675 -0.6237  0.9902 -0.7321
10063SOL     OW31289   5.696   4.413   2.583 -0.0180  0.0498 -0.3785
10063SOL    HW131290   5.676   4.322   2.562  1.7288 -0.1333 -1.3880
10063SOL    HW231291   5.655   4.463   2.512 -2.7531  0.3040  1.2317
10064SOL     OW31292   8.219   9.005   1.655 -0.2620  0.5769  0.0856
10064SOL    HW131293   8.228   9.100   1.643  1.1966  0.3785 -0.6813
10064SOL    HW231294   8.240   8.969   1.569  1.4690 -0.5400  0.9304
10065SOL     OW31295   0.071   3.739   6.565  0.2189 -0.7061  0.1745
10065SOL    HW131296   0.083   3.833   6.553 -1.4053 -0.5576 -0.4681
10065SOL    HW231297   0.062   3.727   6.659  0.8656 -0.2874  0.2951
10066SOL     OW31298   8.010   4.137   5.603 -0.3850 -0.0518  0.1796
10066SOL    HW131299   7.925   4.167   5.570 -0.1772 -0.4269 -0.7175
10066SOL    HW231300   7.991   4.054   5.647 -0.5924  0.2315  0.6342
10067SOL     OW31301   0.527   1.642   1.164 -0.2038 -0.2115  0.0494
10067SOL    HW131302   0.472   1.720   1.158 -0.7242 -0.4435  1.3748
10067SOL    HW231303   0.616   1.676   1.175  0.0787  0.1700 -2.7218
10068SOL     OW31304   8.872   4.083   3.271 -0.3373  0.3165 -0.3192
10068SOL    HW131305   8.813   4.120   3.204 -0.4675 -0.7185 -0.7955
10068SOL    HW231306   8.887   4.155   3.331  0.8569  1.7103 -2.1663
10069SOL     OW31307   6.095   0.816   8.814 -0.5559 -0.1718  0.2602
10069SOL    HW131308   6.068   0.754   8.746 -1.1444  0.3733 -0.0181
10069SOL    HW231309   6.013   0.844   8.855 -0.1277 -1.6704  2.2776
10070SOL     OW31310   3.261   3.523   2.475 -0.0230 -0.0049  0.6960
10070SOL    HW131311   3.304   3.505   2.392 -0.8540  1.0382  0.0111
10070SOL    HW231312   3.168   3.529   2.453 -0.1506  1.3434  1.4926
10071SOL     OW31313   2.439   1.166   6.276 -0.5741  0.2548  0.4886
10071SOL    HW131314   2.440   1.115   6.358  0.7837 -0.2697  0.1808
10071SOL    HW231315   2.472   1.105   6.210 -0.0562  1.1734 -0.1277
10072SOL     OW31316   7.545   3.120   3.826 -0.3531  0.2369 -0.2706
10072SOL    HW131317   7.562   3.029   3.851 -0.8473  0.2544  0.1384
10072SOL    HW231318   7.625   3.148   3.781  0.5545  0.1920  1.2362
10073SOL     OW31319   0.737   5.844   8.625  0.2772  0.2818 -0.0518
10073SOL    HW131320   0.715   5.770   8.681 -3.7001  1.1476 -0.1387
10073SOL    HW231321   0.678   5.835   8.550 -0.0512  3.2260 -0.2688
10074SOL     OW31322   1.467   6.748   2.732  0.0667  0.1279 -0.4705
10074SOL    HW131323   1.447   6.778   2.821 -0.4482 -0.0599 -0.5233
10074SOL    HW231324   1.550   6.791   2.711  0.3637 -0.0930  0.2262
10075SOL     OW31325   8.655   9.055   5.913 -0.4212  0.3027  0.3396
10075SOL    HW131326   8.686   9.136   5.873 -0.6238 -0.0185 -0.4865
10075SOL    HW231327   8.715   8.988   5.882 -1.1467 -0.1095 -0.2203
10076SOL     OW31328   6.490   6.188   6.274  0.2749 -0.1480 -0.5628
10076SOL    HW131329   6.575   6.232   6.275 -0.2141  0.8138 -0.0964
10076SOL    HW231330   6.485   6.142   6.357  0.0874  0.3110 -0.3154
10077SOL     OW31331   3.750   2.483   2.818 -0.0796 -0.2304  0.0110
10077SOL    HW131332   3.805   2.467   2.895 -0.7815  0.0557  0.5794
10077SOL    HW231333   3.696   2.558   2.842  0.1087  0.2507 -0.9912
10078SOL     OW31334   3.125   8.907   7.980 -0.0889  0.9489  0.0017
10078SOL    HW131335   3.203   8.902   7.924  0.4003  1.4447  0.6257
10078SOL    HW231336   3.054   8.930   7.920  0.0111 -0.6152 -0.7679
10079SOL     OW31337   1.795   7.128   1.458 -0.2316  0.5734 -0.5407
10079SOL    HW131338   1.724   7.084   1.507 -0.5024  0.1723 -1.2795
10079SOL    HW231339   1.829   7.060   1.400  0.4018  0.9194 -0.5784
10080SOL     OW31340   8.543   5.407   5.528 -0.0158  0.5158 -0.6135
10080SOL    HW131341   8.632   5.424   5.498  0.1385  0.1287 -0.3807
10080SOL    HW231342   8.535   5.459   5.609 -0.1154  0.8137 -0.8137
10081SOL     OW31343   3.680   4.783   7.142 -0.5271 -0.0203  0.0462
10081SOL    HW131344   3.667   4.691   7.167  0.3981 -0.1735 -0.0309
10081SOL    HW231345   3.744   4.816   7.205 -1.0077  0.6361  0.2007
10082SOL     OW31346   7.600   7.536   0.293  0.1263 -0.1196 -0.3001
10082SOL    HW131347   7.560   7.519   0.378  1.4455  0.8669  0.5563
10082SOL    HW231348   7.556   7.475   0.234 -1.8321  0.1583  0.7813
10083SOL     OW31349   0.525   3.085   3.348  0.4406 -0.1720  0.3657
10083SOL    HW131350   0.620   3.073   3.355  0.9151 -2.4375 -4.8818
10083SOL    HW231351   0.513   3.140   3.270 -2.5309 -0.8866  0.1886
10084SOL     OW31352   1.449   3.080   8.595 -0.1604 -0.5949 -0.0643
10084SOL    HW131353   1.453   3.090   8.690  0.4190  1.1919 -0.2558
10084SOL    HW231354   1.392   3.151   8.566  1.5827  0.3806 -1.2507
10085SOL     OW31355   0.076   8.415   1.405 -0.3438  0.2209  0.0045
10085SOL    HW131356   0.129   8.440   1.330 -0.3478 -2.1213 -0.8324
10085SOL    HW231357   0.139   8.383   1.470 -0.6067 -2.0558 -0.7885
10086SOL     OW31358   0.026   3.993   8.092  0.1327 -0.3689 -0.1406
10086SOL    HW131359  -0.039   3.998   8.162  1.2924 -1.4689  1.0868
10086SOL    HW231360   0.027   3.900   8.068  2.0327 -0.6285  0.7189
10087SOL     OW31361   7.645   2.001   4.796 -0.2634 -0.1273 -0.4620
10087SOL    HW131362   7.578   2.033   4.855  0.5298  0.4522  0.1445
10087SOL    HW231363   7.675   1.919   4.836  0.3923  0.3511  0.0447
10088SOL     OW31364   2.831   8.382   6.922 -0.0175  0.1894 -0.3344
10088SOL    HW131365   2.887   8.443   6.875  0.1453  0.1797 -0.1549
10088SOL    HW231366   2.874   8.370   7.006 -2.4444  3.5004  1.5879
10089SOL     OW31367   2.946   5.406   5.914  0.1099  0.3411 -0.0863
10089SOL    HW131368   2.995   5.329   5.884  0.3582 -0.0939  1.3345
10089SOL    HW231369   2.920   5.451   5.834  0.9120 -0.6306 -0.9246
10090SOL     OW31370   6.621   0.743   8.596 -0.4869  0.5603 -0.1198
10090SOL    HW131371   6.531   0.733   8.567 -1.1298  0.0962  1.8987
10090SOL    HW231372   6.646   0.830   8.568 -0.3370 -0.4865 -3.7154
10091SOL     OW31373   9.054   8.367   2.100  0.4811 -0.3355  0.0700
10091SOL    HW131374   8.972   8.341   2.141  0.1067 -0.1673 -0.5558
10091SOL    HW231375   9.114   8.381   2.173 -0.2656  0.3044  0.5803
10092SOL     OW31376   5.049   2.509   8.867 -0.3237  0.5496 -0.4831
10092SOL    HW131377   5.065   2.588   8.814 -0.3111  1.0507  0.2495
10092SOL    HW231378   5.131   2.494   8.912 -0.7881  1.0446  0.5704
10093SOL     OW31379   7.614   3.113   6.936 -0.5006  0.0334 -0.0800
10093SOL    HW131380   7.621   3.194   6.987 -0.9015 -0.9279  1.5868
10093SOL    HW231381   7.700   3.072   6.944 -0.0169  0.6577 -1.6504
10094SOL     OW31382   6.133   2.394   6.599  0.4627 -0.2592  0.2919
10094SOL    HW131383   6.044   2.359   6.597 -0.0026  0.9539 -0.8786
10094SOL    HW231384   6.158   2.388   6.692 -1.9544  2.1349  1.2236
10095SOL     OW31385   5.734   3.220   4.084 -0.7308  0.1003 -0.3894
10095SOL    HW131386   5.688   3.257   4.008  0.3632  1.9951 -0.1824
10095SOL    HW231387   5.824   3.209   4.055 -0.3665  0.5572  0.5416
10096SOL     OW31388   6.410   3.035   1.491  0.1875  0.2308 -0.0741
10096SOL    HW131389   6.482   3.088   1.457 -1.4921  1.7130 -1.5102
10096SOL    HW231390   6.419   2.951   1.446 -0.1655  1.1177 -1.9147
10097SOL     OW31391   1.354   4.406   7.567 -0.5486 -0.6588  0.2497
10097SOL    HW131392   1.381   4.348   7.497  0.2395 -0.2178  0.1807
10097SOL    HW231393   1.357   4.352   7.646  0.7700 -0.5602  0.2784
10098SOL     OW31394   4.780   1.221   0.457  0.0952 -0.2269 -0.0120
10098SOL    HW131395   4.864   1.176   0.452 -0.9435 -2.1045 -1.5662
10098SOL    HW231396   4.796   1.306   0.416  2.0652  1.0172  2.9387
10099SOL     OW31397   8.908   8.242   2.723 -0.6567  0.2043  0.3563
10099SOL    HW131398   8.927   8.293   2.802  2.0255 -1.4915  0.9224
10099SOL    HW231399   8.985   8.253   2.668 -0.5013 -2.2225 -0.0108
10100SOL     OW31400   1.038   8.857   4.315 -0.2711 -0.2879  0.4791
10100SOL    HW131401   0.952   8.897   4.302 -0.7407 -1.5363 -0.5708
10100SOL    HW231402   1.100   8.929   4.311 -1.0699  0.3485 -1.3820
10101SOL     OW31403   5.288   2.655   6.469 -0.2587 -0.2744  0.2983
10101SOL    HW131404   5.369   2.677   6.423 -0.9209  0.8486 -0.3632
10101SOL    HW231405   5.267   2.733   6.520 -0.4990 -0.8589  1.1197
10102SOL     OW31406   8.591   3.021   1.183  0.0030  0.3158  0.5174
10102SOL    HW131407   8.615   3.114   1.185  0.8813  0.1229 -0.2202
10102SOL    HW231408   8.523   3.015   1.116  0.7120  0.2774 -0.2179
10103SOL     OW31409   8.947   4.183   6.822 -0.6204 -0.7162  0.2443
10103SOL    HW131410   8.995   4.221   6.895 -0.6536 -1.5102  0.6878
10103SOL    HW231411   8.857   4.176   6.853 -1.3494  1.8832 -0.9968
10104SOL     OW31412   7.534   0.147   4.490 -0.3790 -0.1990 -0.1860
10104SOL    HW131413   7.441   0.126   4.477 -0.5048  0.7985 -1.0967
10104SOL    HW231414   7.545   0.149   4.585 -0.7759 -2.3762 -0.0436
10105SOL     OW31415   6.816   8.218   4.960 -0.2582  0.4923  0.1513
10105SOL    HW131416   6.797   8.259   5.044 -1.2844  0.8267 -0.2312
10105SOL    HW231417   6.899   8.259   4.932  0.4398 -0.0978  1.2755
10106SOL     OW31418   8.151   4.884   8.968 -0.0254  0.1875 -1.1851
10106SOL    HW131419   8.241   4.886   9.000 -0.5010  0.1922  0.2137
10106SOL    HW231420   8.115   4.968   8.994 -0.5457  0.0390 -1.4145
10107SOL     OW31421   8.962   5.092   2.245  0.0472 -0.2666 -0.3745
10107SOL    HW131422   8.914   5.103   2.163  0.3735 -0.4269 -0.5878
10107SOL    HW231423   8.982   4.998   2.248 -1.3928 -0.5846  0.6807
10108SOL     OW31424   3.217   6.862   5.354 -0.3721  0.3280 -0.4610
10108SOL    HW131425   3.280   6.794   5.376  0.9292  1.7280  0.3699
10108SOL    HW231426   3.132   6.826   5.380  0.2268 -1.1229 -0.4485
10109SOL     OW31427   2.618   4.748   3.844  0.3742  0.4124  0.7221
10109SOL    HW131428   2.638   4.829   3.892 -2.0670  0.6485  1.4845
10109SOL    HW231429   2.586   4.688   3.911  0.8985 -0.7452 -0.0403
10110SOL     OW31430   4.529   0.677   8.013 -0.5994  0.5302  0.6678
10110SOL    HW131431   4.505   0.747   8.073 -2.5346  0.5068  0.0051
10110SOL    HW231432   4.520   0.597   8.064  2.3407  0.7300  1.6439
10111SOL     OW31433   1.124   1.099   4.228  0.2057 -0.9543  0.7664
10111SOL    HW131434   1.155   1.146   4.151 -0.2028 -0.1523  1.0797
10111SOL    HW231435   1.031   1.085   4.212  0.4601 -2.3001  0.3619
10112SOL     OW31436   4.865   3.154   7.198  0.2122 -0.0512  0.0228
10112SOL    HW131437   4.869   3.072   7.149 -2.5488 -0.1430 -0.1754
10112SOL    HW231438   4.848   3.221   7.131  1.2061  0.5285  0.3325
10113SOL     OW31439   4.712   1.751   1.454 -0.4824  0.0387  0.1713
10113SOL    HW131440   4.725   1.728   1.362 -0.2082  2.1085 -0.3582
10113SOL    HW231441   4.624   1.719   1.475 -1.2257  0.9903 -1.3227
10114SOL     OW31442   6.391   5.279   4.703 -0.1900  0.3813 -0.5533
10114SOL    HW131443   6.455   5.227   4.654  0.9846  0.7355  0.5595
10114SOL    HW231444   6.306   5.250   4.670  0.4865 -1.1890 -1.0015
10115SOL     OW31445   1.600   0.873   3.506  0.7365  0.4382  0.7648
10115SOL    HW131446   1.614   0.921   3.424  1.5877 -0.6866  0.2312
10115SOL    HW231447   1.675   0.898   3.561  0.1309  1.2456  1.2496
10116SOL     OW31448   7.444   7.015   8.249  0.2141  0.2271 -0.0641
10116SOL    HW131449   7.411   7.043   8.335  0.2412 -0.8641  0.3271
10116SOL    HW231450   7.384   6.945   8.223  0.3099  0.4383 -0.8601
10117SOL     OW31451   8.682   3.181   2.381 -0.1078  0.3032  0.7682
10117SOL    HW131452   8.719   3.125   2.449  0.4380 -1.0223 -0.5358
10117SOL    HW231453   8.609   3.130   2.346  0.7396  0.1035 -0.8220
10118SOL     OW31454   8.987   1.096   0.029 -0.0533  0.2489 -0.3785
10118SOL    HW131455   9.045   1.145  -0.029 -0.4897  1.4206  0.1550
10118SOL    HW231456   8.899   1.113  -0.005 -0.2142 -0.1888 -0.1953
10119SOL     OW31457   0.474   3.022   2.212  0.1378  0.0620  0.0045
10119SOL    HW131458   0.392   2.994   2.173  0.8004 -1.5466 -0.3157
10119SOL    HW231459   0.459   3.018   2.306 -0.0400 -0.6117 -0.0483
10120SOL     OW31460   8.429   0.247   2.982 -0.3236  0.1734  0.0770
10120SOL    HW131461   8.434   0.314   2.914  0.5648  0.0400  0.0018
10120SOL    HW231462   8.517   0.242   3.019 -0.4194 -0.8043  0.2205
10121SOL     OW31463   2.667   8.497   1.542  0.2897  0.4405 -0.3797
10121SOL    HW131464   2.676   8.503   1.447 -0.2671  1.9463 -0.3696
10121SOL    HW231465   2.756   8.508   1.575  0.9043 -2.4980 -0.7329
10122SOL     OW31466   8.120   6.185   4.057 -0.0843 -0.6232  0.2199
10122SOL    HW131467   8.029   6.165   4.037 -0.5773  0.3235  1.4231
10122SOL    HW231468   8.138   6.266   4.009  0.0128 -0.5970  0.3012
10123SOL     OW31469   5.353   6.517   1.822 -0.1303 -0.1022  0.4227
10123SOL    HW131470   5.402   6.519   1.740  0.5235  2.3723  0.7666
10123SOL    HW231471   5.392   6.587   1.874 -1.6840 -0.4469  2.1481
10124SOL     OW31472   2.110   6.807   1.142  0.5000 -0.0896 -0.1600
10124SOL    HW131473   2.016   6.791   1.150  0.1980  1.9241  1.2469
10124SOL    HW231474   2.117   6.877   1.077  0.9876 -0.0252 -0.0445
10125SOL     OW31475   6.785   2.751   3.038 -0.2831 -0.2707 -0.6055
10125SOL    HW131476   6.823   2.775   2.954  2.4994 -2.1593 -0.0270
10125SOL    HW231477   6.781   2.833   3.088 -3.8441  1.3004 -3.0474
10126SOL     OW31478   5.020   0.077   5.739  0.2540  0.2271 -0.3593
10126SOL    HW131479   5.077   0.043   5.807 -2.9614 -2.2437  1.3921
10126SOL    HW231480   5.037   0.021   5.663  0.7896  0.1042 -0.1498
10127SOL     OW31481   0.121   7.376   8.087  0.3898 -0.4839  0.7306
10127SOL    HW131482   0.198   7.371   8.143  0.5114  0.6784  0.6988
10127SOL    HW231483   0.153   7.358   7.999  0.7895  0.7373  0.6070
10128SOL     OW31484   6.228   8.247   1.418  0.0897  0.4400 -0.0090
10128SOL    HW131485   6.317   8.278   1.403 -0.2528  0.8314 -1.4233
10128SOL    HW231486   6.202   8.207   1.335 -0.3225 -1.5942  1.0446
10129SOL     OW31487   1.302   5.572   0.968 -0.8446  0.3690 -0.0518
10129SOL    HW131488   1.276   5.484   0.995  0.1895 -0.1074 -0.5457
10129SOL    HW231489   1.219   5.620   0.958 -1.3908 -0.3822  0.7393
10130SOL     OW31490   0.587   4.072   4.137  0.3212 -0.5317  0.1208
10130SOL    HW131491   0.626   4.157   4.156  0.0801 -0.4452  0.2301
10130SOL    HW231492   0.648   4.009   4.175 -1.4319 -0.3229  3.7159
10131SOL     OW31493   7.848   6.767   1.230 -0.2375 -0.2373 -0.1768
10131SOL    HW131494   7.924   6.743   1.283 -0.6037  0.8343  0.8755
10131SOL    HW231495   7.868   6.733   1.143  2.5235  1.9283 -0.5558
10132SOL     OW31496   7.828   0.602   1.527  0.1735 -0.1229  0.6786
10132SOL    HW131497   7.869   0.566   1.447 -1.9704  0.4604 -0.7591
10132SOL    HW231498   7.754   0.544   1.543 -0.0561  0.4306  1.6229
10133SOL     OW31499   7.314   0.009   7.644  0.3077 -0.4852  0.1694
10133SOL    HW131500   7.253   0.029   7.715  0.2669  1.4165 -0.3453
10133SOL    HW231501   7.385   0.072   7.656  1.7739 -2.0697  0.2303
10134SOL     OW31502   2.023   2.346   6.400 -0.3153  0.4073 -0.3056
10134SOL    HW131503   2.096   2.284   6.398  0.3049  1.1307 -1.4228
10134SOL    HW231504   2.012   2.374   6.309  0.4072  2.9815  0.2896
10135SOL     OW31505   1.896   4.356   4.151 -0.1729 -0.0637  0.0886
10135SOL    HW131506   1.949   4.346   4.231 -0.2849 -2.0225 -0.0303
10135SOL    HW231507   1.960   4.354   4.080 -0.2893 -1.2102  0.0046
10136SOL     OW31508   1.564   6.559   4.410  0.4887  0.1249  0.4259
10136SOL    HW131509   1.602   6.578   4.496  0.1568 -1.2654  0.9124
10136SOL    HW231510   1.484   6.612   4.407 -0.0592 -0.5923  1.4502
10137SOL     OW31511   7.652   5.962   7.657 -0.0779 -0.4894 -0.1239
10137SOL    HW131512   7.606   5.884   7.627 -1.2615 -0.8035  2.2337
10137SOL    HW231513   7.586   6.031   7.658 -0.4881 -0.7901  2.6860
10138SOL     OW31514   2.662   1.773   6.162 -0.2062 -0.2840 -0.1356
10138SOL    HW131515   2.704   1.828   6.227 -0.7666 -0.9723  0.8358
10138SOL    HW231516   2.689   1.684   6.184  0.1080 -0.4821 -1.2393
10139SOL     OW31517   8.029   4.509   5.914 -0.1959  0.2952 -0.0048
10139SOL    HW131518   8.114   4.477   5.945  0.2234  1.1545 -0.2535
10139SOL    HW231519   8.027   4.483   5.821 -0.6804 -0.6820  0.2667
10140SOL     OW31520   8.601   5.159   5.415 -0.4154  0.2142  0.1346
10140SOL    HW131521   8.621   5.224   5.348 -2.3724  0.0134 -0.7257
10140SOL    HW231522   8.594   5.209   5.496  1.1006  0.5956  0.0514
10141SOL     OW31523   0.333   6.896   5.741  0.1960  0.0756  0.5011
10141SOL    HW131524   0.286   6.979   5.742 -2.1425 -1.1264 -0.2625
10141SOL    HW231525   0.298   6.847   5.815 -0.0656 -1.0022 -0.3040
10142SOL     OW31526   5.073   8.437   7.989  0.0762  0.0328  0.5149
10142SOL    HW131527   5.139   8.474   7.930  0.2494 -0.3720  0.4587
10142SOL    HW231528   5.098   8.470   8.075 -0.5036  1.0957  0.2993
10143SOL     OW31529   7.808   7.470   8.581 -0.6636 -0.1353 -0.2088
10143SOL    HW131530   7.801   7.522   8.661  0.5522 -0.1036 -0.1155
10143SOL    HW231531   7.742   7.401   8.592 -2.1768  1.2543 -0.2639
10144SOL     OW31532   3.822   7.916   2.198 -0.1544  0.3572 -1.0953
10144SOL    HW131533   3.890   7.864   2.241 -1.4836 -1.6221 -1.2810
10144SOL    HW231534   3.863   7.947   2.117  2.0784  3.3770  0.9710
10145SOL     OW31535   4.204   7.291   3.768 -0.2784 -0.0163 -0.2589
10145SOL    HW131536   4.247   7.358   3.822  2.5848 -1.3762 -0.6703
10145SOL    HW231537   4.129   7.263   3.819 -1.4869  3.2886  0.0305
10146SOL     OW31538   2.114   3.748   6.080  0.0115  0.1367 -0.1870
10146SOL    HW131539   2.130   3.730   6.172 -0.2533 -0.0769 -0.1797
10146SOL    HW231540   2.019   3.738   6.070 -0.1422  1.5143 -0.2004
10147SOL     OW31541   7.904   7.776   2.189 -0.1326  0.3651  0.2152
10147SOL    HW131542   7.973   7.757   2.253 -0.5277  4.5686  2.2480
10147SOL    HW231543   7.948   7.832   2.124 -0.5216 -1.1812 -1.4431
10148SOL     OW31544   3.378   8.275   5.964 -0.3519 -0.0660 -0.2224
10148SOL    HW131545   3.339   8.253   5.879  2.4911 -1.5832 -1.2494
10148SOL    HW231546   3.346   8.206   6.023 -0.4146 -0.4059 -0.6499
10149SOL     OW31547   5.658   6.964   2.634 -0.2064 -0.0926 -0.2471
10149SOL    HW131548   5.710   6.992   2.709 -1.8628  1.4801  0.3835
10149SOL    HW231549   5.569   6.958   2.667 -1.1643  1.6969 -2.2762
10150SOL     OW31550   0.324   7.903   6.773 -0.5125  0.3974  0.0850
10150SOL    HW131551   0.360   7.977   6.823  0.7361  0.8292 -1.3727
10150SOL    HW231552   0.385   7.891   6.700 -2.0874 -0.3886 -1.1843
10151SOL     OW31553   3.996   6.280   4.921  0.0969  0.1089  0.3557
10151SOL    HW131554   4.056   6.212   4.954 -0.8513 -1.7027 -1.3887
10151SOL    HW231555   3.985   6.259   4.828 -0.7389  2.3306 -0.1105
10152SOL     OW31556   8.885   3.926   1.297 -0.2051 -0.6641 -0.1992
10152SOL    HW131557   8.870   3.841   1.256 -1.3719 -0.8609  0.5798
10152SOL    HW231558   8.800   3.970   1.291 -0.1564 -0.3447  1.1306
10153SOL     OW31559   6.426   7.764   4.560 -0.0070  0.4002 -0.3682
10153SOL    HW131560   6.432   7.811   4.477 -0.6735 -0.0632 -0.6905
10153SOL    HW231561   6.454   7.675   4.539  0.3500  0.4190  0.0286
10154SOL     OW31562   3.628   4.421   8.797 -0.1353 -0.3635  0.1253
10154SOL    HW131563   3.626   4.482   8.724  0.4870 -0.6733 -0.1611
10154SOL    HW231564   3.542   4.428   8.837 -0.3552  0.0782 -0.4150
10155SOL     OW31565   8.137   2.040   6.185 -0.1172  0.1832 -0.2357
10155SOL    HW131566   8.052   2.001   6.166  0.2923 -0.8170 -0.0689
10155SOL    HW231567   8.118   2.132   6.203 -1.4565 -0.4273  1.8487
10156SOL     OW31568   2.376   1.311   4.505 -0.4851 -0.2148 -0.0231
10156SOL    HW131569   2.321   1.361   4.566 -1.4526 -0.8972 -0.3051
10156SOL    HW231570   2.402   1.375   4.438  0.1996  0.4314  0.8292
10157SOL     OW31571   4.753   3.614   3.057  0.3373 -0.3986 -0.3432
10157SOL    HW131572   4.819   3.625   3.124 -2.8207  1.0292  2.8280
10157SOL    HW231573   4.733   3.520   3.057  0.1453 -0.3658  1.0132
10158SOL     OW31574   7.381   8.391   3.024  0.0382  0.3899 -0.8485
10158SOL    HW131575   7.368   8.299   2.999 -1.2658  0.0681  0.7784
10158SOL    HW231576   7.385   8.438   2.941  0.5239 -1.1012 -1.7165
10159SOL     OW31577   1.017   0.259   8.035 -0.2002  0.1118  0.6300
10159SOL    HW131578   0.969   0.330   7.992  0.0403  0.1126  0.3596
10159SOL    HW231579   0.952   0.217   8.092 -0.2223  0.8731  1.1879
10160SOL     OW31580   5.588   4.068   6.816 -0.4479  0.1363  0.0446
10160SOL    HW131581   5.545   3.993   6.777 -2.1232  0.9986  0.1630
10160SOL    HW231582   5.666   4.032   6.859 -0.8879 -1.4154 -0.4125
10161SOL     OW31583   0.341   8.898   6.194  0.3423 -0.1124 -0.1170
10161SOL    HW131584   0.376   8.838   6.129 -1.4340 -2.3660  0.8729
10161SOL    HW231585   0.366   8.859   6.278  0.7254  1.5755  0.6016
10162SOL     OW31586   6.250   2.223   8.857 -0.0977  0.2095 -0.2724
10162SOL    HW131587   6.195   2.250   8.783 -1.4221 -0.0546  0.5782
10162SOL    HW231588   6.188   2.200   8.926  1.0984  0.4507  0.9373
10163SOL     OW31589   7.249   4.197   3.635  0.0786 -0.2913  0.1140
10163SOL    HW131590   7.220   4.268   3.578 -0.3631 -0.8195 -0.3306
10163SOL    HW231591   7.214   4.118   3.595  0.3395 -0.7395  0.7480
10164SOL     OW31592   7.250   6.937   2.002  0.0106  0.1016 -0.0491
10164SOL    HW131593   7.240   7.032   1.998  2.5591  0.5164  1.3874
10164SOL    HW231594   7.248   6.909   1.910 -2.5230  1.2186 -0.4333
10165SOL     OW31595   5.534   8.571   2.609 -0.1704 -0.3107 -0.8802
10165SOL    HW131596   5.520   8.511   2.683 -0.6493 -1.3815 -1.8099
10165SOL    HW231597   5.624   8.553   2.580 -0.0689 -0.0702 -0.7154
10166SOL     OW31598   3.345   3.882   7.508  0.4911  0.0327  0.3677
10166SOL    HW131599   3.303   3.806   7.467  1.6270 -0.4673  0.1068
10166SOL    HW231600   3.368   3.939   7.435 -0.3350  0.6279  0.5615
10167SOL     OW31601   5.220   8.985   7.255  0.1273  0.0459 -0.4614
10167SOL    HW131602   5.296   9.040   7.274 -1.2429  2.2008 -0.8941
10167SOL    HW231603   5.239   8.946   7.169  0.1198  1.8361 -1.3238
10168SOL     OW31604   7.715   3.165   5.241 -0.7069  0.3036 -0.8892
10168SOL    HW131605   7.631   3.178   5.197 -1.5407  1.6043  0.9208
10168SOL    HW231606   7.778   3.218   5.191 -1.1894  0.1806 -1.6363
10169SOL     OW31607   5.053   6.743   5.647 -0.0706  0.9124  0.0143
10169SOL    HW131608   5.025   6.747   5.555 -3.3264  2.2837  0.9234
10169SOL    HW231609   5.068   6.650   5.663 -1.5961  0.3665 -1.4005
10170SOL     OW31610   5.115   7.987   4.537 -0.4658 -0.2161 -0.5474
10170SOL    HW131611   5.083   8.030   4.617  0.1737 -0.5293 -0.1096
10170SOL    HW231612   5.174   8.051   4.497 -0.2413 -0.3251 -0.3931
10171SOL     OW31613   7.311   5.916   9.032  0.1688 -0.4491  0.0338
10171SOL    HW131614   7.370   5.869   9.091  0.2279  0.9848  1.1634
10171SOL    HW231615   7.333   5.883   8.944  2.6147  0.0286  0.4122
10172SOL     OW31616   7.630   7.207   5.190  0.0976  0.3476  0.4662
10172SOL    HW131617   7.559   7.218   5.127  0.7957  0.8107 -0.2610
10172SOL    HW231618   7.647   7.296   5.222  0.6012  0.2971  0.3450
10173SOL     OW31619   0.836   8.706   6.234 -0.4178  0.3038 -0.0261
10173SOL    HW131620   0.911   8.670   6.187 -1.1994 -1.1341 -0.2470
10173SOL    HW231621   0.788   8.629   6.264 -0.7630  1.1803  1.8284
10174SOL     OW31622   0.576   8.196   4.525 -0.5724  0.1300 -0.1398
10174SOL    HW131623   0.652   8.254   4.521 -2.6428  3.1468  0.4205
10174SOL    HW231624   0.583   8.141   4.447  2.2424  0.1127  0.0346
10175SOL     OW31625   0.896   1.877   3.635 -0.0604 -0.0191  0.1236
10175SOL    HW131626   0.813   1.848   3.598  0.6794  0.0868 -1.7118
10175SOL    HW231627   0.893   1.848   3.726 -1.7122 -0.8140 -0.1443
10176SOL     OW31628   7.566   8.283   0.730  0.1738 -0.4223  0.2446
10176SOL    HW131629   7.537   8.242   0.812  0.7514 -0.1440  0.5974
10176SOL    HW231630   7.659   8.260   0.723  0.5872  0.9884  0.5801
10177SOL     OW31631   4.952   7.584   0.235 -0.4466  0.3904  0.2852
10177SOL    HW131632   4.967   7.609   0.326  1.0240 -1.5546  0.6636
10177SOL    HW231633   4.980   7.660   0.184 -3.3115  2.3580  1.4159
10178SOL     OW31634   2.437   8.611   5.543  0.6439 -0.0793 -0.1802
10178SOL    HW131635   2.396   8.687   5.502 -1.8981 -0.7308  0.9824
10178SOL    HW231636   2.493   8.575   5.474 -1.7216  0.1568 -2.3895
10179SOL     OW31637   2.630   1.611   6.896 -0.2531 -0.1009  0.6992
10179SOL    HW131638   2.621   1.652   6.982  0.7343  1.4540  0.1001
10179SOL    HW231639   2.722   1.623   6.873 -0.4055 -0.8570 -0.4012
10180SOL     OW31640   3.752   7.684   5.070  0.2850  0.1812 -0.0240
10180SOL    HW131641   3.838   7.698   5.029  0.7297  0.7538  1.0462
10180SOL    HW231642   3.746   7.589   5.080  0.1950  0.0355 -1.3229
10181SOL     OW31643   5.910   2.990   0.129  0.8424 -0.4963  0.8142
10181SOL    HW131644   6.003   2.983   0.110  0.7813  0.4442  0.1024
10181SOL    HW231645   5.905   3.051   0.203  0.7481  0.2104  0.2382
10182SOL     OW31646   5.281   2.051   9.060  0.4214 -0.0952 -0.5483
10182SOL    HW131647   5.233   1.971   9.039  0.2020  0.3099 -1.6169
10182SOL    HW231648   5.224   2.122   9.032 -0.2382  0.5418  2.1436
10183SOL     OW31649   5.120   8.351   1.476 -0.0641 -0.7170 -0.3831
10183SOL    HW131650   5.094   8.443   1.480  0.8973 -0.2238 -3.0921
10183SOL    HW231651   5.216   8.353   1.474 -0.0378 -1.7198 -1.0220
10184SOL     OW31652   5.765   5.980   0.401  0.4340 -0.3229  0.5875
10184SOL    HW131653   5.800   5.981   0.312  0.7354  1.8521  0.6870
10184SOL    HW231654   5.843   5.983   0.457  0.2058 -0.5778  0.9227
10185SOL     OW31655   5.256   2.516   2.587 -0.1640  0.1590  0.1783
10185SOL    HW131656   5.209   2.444   2.544 -2.4518  0.7919  1.4299
10185SOL    HW231657   5.285   2.572   2.514  0.2297 -1.1867 -0.7275
10186SOL     OW31658   4.794   2.100   1.225  0.3140 -0.2249  0.1446
10186SOL    HW131659   4.858   2.166   1.251 -1.1288  0.6932  1.5591
10186SOL    HW231660   4.817   2.079   1.134  0.7377  2.3600 -0.4324
10187SOL     OW31661   8.175   3.211   5.057  0.1586  0.8814  0.5013
10187SOL    HW131662   8.185   3.141   5.123  1.3148  1.6573  1.1843
10187SOL    HW231663   8.143   3.286   5.108  1.7061  1.6878  0.3267
10188SOL     OW31664   7.006   5.784   2.201  0.8845  0.5673  0.4375
10188SOL    HW131665   7.006   5.759   2.109 -1.8282 -0.7325  0.6806
10188SOL    HW231666   7.076   5.733   2.240  1.3313  0.2750 -0.7083
10189SOL     OW31667   8.135   5.542   4.954 -0.1720 -0.5945  0.1523
10189SOL    HW131668   8.227   5.550   4.928 -0.4304  0.7768 -0.4166
10189SOL    HW231669   8.127   5.451   4.982  1.2894 -0.8236 -0.0510
10190SOL     OW31670   4.446   0.499   5.653 -0.7660 -0.3286 -0.1173
10190SOL    HW131671   4.463   0.579   5.602 -0.0560 -1.0960 -1.1217
10190SOL    HW231672   4.351   0.500   5.668 -1.0222 -0.1651 -1.6122
10191SOL     OW31673   5.433   5.185   0.167  0.0039 -0.3303  0.3820
10191SOL    HW131674   5.345   5.153   0.147  0.3314 -0.3569 -1.1415
10191SOL    HW231675   5.431   5.203   0.261 -2.2285  1.5009  0.0928
10192SOL     OW31676   1.757   7.822   5.747 -0.2899  0.6174  0.1407
10192SOL    HW131677   1.833   7.880   5.742 -1.5382  2.2464 -1.4382
10192SOL    HW231678   1.781   7.747   5.692  0.3680  0.8442  0.1026
10193SOL     OW31679   2.864   2.274   0.042  0.3296 -0.3567 -0.3781
10193SOL    HW131680   2.928   2.309   0.104 -1.9166  0.2534  1.7792
10193SOL    HW231681   2.829   2.196   0.085 -1.6263  0.3421 -0.5669
10194SOL     OW31682   8.091   2.279   5.310 -0.4745  0.8758  0.1123
10194SOL    HW131683   8.071   2.187   5.329 -1.4817  1.0857  0.0989
10194SOL    HW231684   8.173   2.295   5.357 -0.5553  0.1130  0.5428
10195SOL     OW31685   1.370   6.460   2.912 -0.0427 -0.2221 -0.1063
10195SOL    HW131686   1.354   6.379   2.960  0.0131 -1.0316 -1.3938
10195SOL    HW231687   1.362   6.529   2.977 -0.9082 -1.1997  0.8661
10196SOL     OW31688   1.949   4.762   7.215 -0.1428 -0.3493 -0.1824
10196SOL    HW131689   1.915   4.674   7.200  0.7557 -0.5683 -1.0222
10196SOL    HW231690   2.033   4.763   7.170  0.6138  0.4262  1.1686
10197SOL     OW31691   4.782   4.545   2.517  0.2740 -0.0174  0.3671
10197SOL    HW131692   4.832   4.465   2.497 -2.3065 -1.7566  0.4011
10197SOL    HW231693   4.774   4.544   2.612 -0.4843 -0.1897  0.3024
10198SOL     OW31694   5.126   3.758   7.743 -0.1603 -0.0602  0.0256
10198SOL    HW131695   5.032   3.755   7.757 -0.0345 -2.0748  0.9308
10198SOL    HW231696   5.162   3.793   7.825 -0.0595 -0.6203  0.2257
10199SOL     OW31697   5.577   0.366   0.127  0.2666 -0.5152 -0.1771
10199SOL    HW131698   5.535   0.417   0.196  0.0286  0.3382 -0.9402
10199SOL    HW231699   5.648   0.320   0.171 -0.8838 -1.2805  0.9577
10200SOL     OW31700   2.510   3.207   5.043 -0.0722 -0.0173 -0.0439
10200SOL    HW131701   2.477   3.130   5.088  1.4979 -1.1595 -0.7571
10200SOL    HW231702   2.588   3.233   5.091 -0.2450  0.7839 -0.1660
10201SOL     OW31703   1.004   5.395   3.082 -0.6825  0.2165 -0.1460
10201SOL    HW131704   1.071   5.327   3.080 -0.9103 -0.0614  1.1576
10201SOL    HW231705   1.052   5.477   3.070 -0.4188 -0.1536 -1.8373
10202SOL     OW31706   2.544   0.754   7.655 -0.8246  0.2327  0.2110
10202SOL    HW131707   2.600   0.801   7.594  0.8977 -1.4756  0.3561
10202SOL    HW231708   2.455   0.772   7.626 -0.1716  1.9914 -0.8424
10203SOL     OW31709   6.909   3.652   6.940  0.0944 -0.2315 -0.0532
10203SOL    HW131710   6.999   3.622   6.923 -0.0936 -0.3562 -0.8494
10203SOL    HW231711   6.920   3.743   6.969  0.4057  0.1506 -1.3077
10204SOL     OW31712   8.502   1.111   5.206  0.5417 -0.8164 -0.2676
10204SOL    HW131713   8.480   1.033   5.156  0.1436 -0.1015 -1.2476
10204SOL    HW231714   8.572   1.153   5.155 -1.2393  0.9812 -1.3985
10205SOL     OW31715   2.458   7.081   6.776 -0.0021 -0.0043 -0.1233
10205SOL    HW131716   2.422   7.130   6.851  1.2737 -0.0538  0.5501
10205SOL    HW231717   2.415   7.120   6.700 -0.5561  0.7621  0.5541
10206SOL     OW31718   7.052   3.522   4.509 -0.5817  0.0372  0.0719
10206SOL    HW131719   7.117   3.510   4.577  1.2161  0.7057 -1.4388
10206SOL    HW231720   7.004   3.439   4.505  0.4010 -0.5845  1.0025
10207SOL     OW31721   7.475   0.090   2.614  0.2513 -0.2046  0.3106
10207SOL    HW131722   7.475   0.186   2.611  0.4929 -0.2148 -0.5811
10207SOL    HW231723   7.453   0.064   2.524  3.4775 -0.9629 -0.4011
10208SOL     OW31724   0.227   6.176   0.256  0.0102  0.3678  0.0590
10208SOL    HW131725   0.229   6.229   0.335 -2.0699 -1.4108  1.4071
10208SOL    HW231726   0.263   6.091   0.282 -0.9740 -0.3441 -0.7816
10209SOL     OW31727   0.463   8.202   1.189  0.1763  0.1088 -0.1035
10209SOL    HW131728   0.464   8.188   1.094 -1.6149 -1.5341  0.0624
10209SOL    HW231729   0.371   8.212   1.211  0.2694 -2.3256  1.7876
10210SOL     OW31730   6.300   2.696   5.671  0.1720 -0.4311 -0.1102
10210SOL    HW131731   6.232   2.758   5.695  0.4854 -0.9898  2.4536
10210SOL    HW231732   6.291   2.624   5.733  0.6524 -2.3875 -2.1543
10211SOL     OW31733   5.986   7.727   2.708 -0.3653 -0.1732 -0.0307
10211SOL    HW131734   5.920   7.683   2.654 -0.6674  0.8247 -0.5027
10211SOL    HW231735   5.935   7.780   2.769 -0.0700 -2.0148  1.9677
10212SOL     OW31736   7.629   0.636   4.471  0.1436  0.4897 -0.1617
10212SOL    HW131737   7.542   0.662   4.440 -0.1975 -0.8355 -0.3945
10212SOL    HW231738   7.612   0.584   4.550  0.5205 -1.5129 -1.3157
10213SOL     OW31739   3.554   4.596   7.447  0.1681 -0.1165  0.3617
10213SOL    HW131740   3.519   4.507   7.444 -1.1166  0.0479  4.4195
10213SOL    HW231741   3.620   4.594   7.516 -0.2430  2.1299  0.9245
10214SOL     OW31742   5.090   3.825   6.774  0.5210  0.2590 -0.2920
10214SOL    HW131743   5.004   3.809   6.737 -0.4772 -0.3542  2.1028
10214SOL    HW231744   5.116   3.910   6.739 -1.7196  1.1412  0.0244
10215SOL     OW31745   6.649   3.245   1.650 -0.1019 -0.4122  0.2563
10215SOL    HW131746   6.720   3.301   1.616  0.4044 -0.0198  1.8593
10215SOL    HW231747   6.625   3.190   1.576  0.6581  0.6656 -0.8503
10216SOL     OW31748   6.664   5.736   4.379 -0.1282 -0.2223 -0.5314
10216SOL    HW131749   6.619   5.652   4.393 -0.1491 -0.1460 -0.1232
10216SOL    HW231750   6.686   5.736   4.286  1.9575 -1.7405 -0.1179
10217SOL     OW31751   4.995   6.041   6.392 -0.4663  0.3474 -0.0984
10217SOL    HW131752   5.071   6.023   6.447 -0.9753  0.2152  0.5606
10217SOL    HW231753   4.950   6.113   6.436 -0.9675  0.1277 -0.2508
10218SOL     OW31754   8.932   1.862   7.757  0.5982 -0.0133  0.3334
10218SOL    HW131755   8.939   1.942   7.809  0.0413 -0.0748  0.5129
10218SOL    HW231756   9.004   1.807   7.786  0.5893  0.1594  0.6822
10219SOL     OW31757   2.710   0.515   5.668 -0.5448 -0.2939  0.0852
10219SOL    HW131758   2.767   0.591   5.677 -0.7209  0.3038 -2.9698
10219SOL    HW231759   2.667   0.508   5.754 -1.4639  3.8166  0.1846
10220SOL     OW31760   1.017   6.366   6.580 -0.1822 -0.4009  0.4766
10220SOL    HW131761   1.063   6.384   6.662  1.2221  0.7064 -0.5230
10220SOL    HW231762   1.081   6.321   6.525 -1.1984 -1.4143  0.0606
10221SOL     OW31763   3.291   0.006   7.342 -0.2755  0.1859  0.6270
10221SOL    HW131764   3.358  -0.063   7.349  0.9956  1.3478  0.4109
10221SOL    HW231765   3.265   0.022   7.433  1.1486  1.0068  0.9291
10222SOL     OW31766   2.093   7.185   5.729 -0.1271 -0.2097  0.4513
10222SOL    HW131767   2.157   7.130   5.683  0.1895  0.3465  0.2254
10222SOL    HW231768   2.129   7.192   5.818  0.2714  0.3274  0.2514
10223SOL     OW31769   6.661   4.600   6.972  0.1736  0.4795  0.1325
10223SOL    HW131770   6.568   4.611   6.991  0.1269  2.1347 -0.8337
10223SOL    HW231771   6.666   4.609   6.877  1.1241 -1.3692 -0.0274
10224SOL     OW31772   1.903   8.256   4.989  0.0468  0.3309 -0.3204
10224SOL    HW131773   1.989   8.237   4.950  0.8778  0.9605  1.1106
10224SOL    HW231774   1.923   8.308   5.067 -1.6631  0.6585 -0.0578
10225SOL     OW31775   3.611   1.336   4.667 -0.8151  0.1012 -0.1778
10225SOL    HW131776   3.573   1.261   4.622 -0.3848 -0.2873  0.0964
10225SOL    HW231777   3.535   1.386   4.699 -1.0999 -0.5100  0.1191
10226SOL     OW31778   1.399   5.816   3.682  0.1144  0.5554 -0.4046
10226SOL    HW131779   1.415   5.841   3.591 -0.9924  1.8227 -0.2746
10226SOL    HW231780   1.328   5.873   3.711 -2.1569 -2.3008  0.1442
10227SOL     OW31781   8.787   6.578   0.302 -0.4312  0.3857  0.1407
10227SOL    HW131782   8.771   6.584   0.208  1.4752  2.0937 -0.1397
10227SOL    HW231783   8.732   6.647   0.340  0.2999  1.0269  0.0458
10228SOL     OW31784   5.723   2.497   8.006  0.1415  0.4740  0.3666
10228SOL    HW131785   5.632   2.508   7.980 -0.1719  0.5293  1.4224
10228SOL    HW231786   5.723   2.513   8.101  1.1423 -0.1435  0.4884
10229SOL     OW31787   1.510   3.445   3.404 -0.0949  0.6742  0.1975
10229SOL    HW131788   1.473   3.498   3.334 -0.2438  2.2016  1.3985
10229SOL    HW231789   1.435   3.422   3.460  0.2349  0.7397  0.6761
10230SOL     OW31790   0.850   4.401   3.939  0.2228 -0.3157 -0.1999
10230SOL    HW131791   0.852   4.323   3.994 -2.0624 -0.2803  0.0205
10230SOL    HW231792   0.757   4.417   3.922  0.5287  2.8040  0.3850
10231SOL     OW31793   5.969   6.794   8.056 -0.7861 -0.6655  0.2237
10231SOL    HW131794   5.975   6.743   8.136 -1.4010 -0.2970  0.5120
10231SOL    HW231795   5.979   6.885   8.084 -0.3663 -0.5755 -0.1992
10232SOL     OW31796   1.702   7.668   8.098  0.0237  0.0867 -0.2318
10232SOL    HW131797   1.671   7.579   8.080  1.4540 -0.7200  0.9960
10232SOL    HW231798   1.714   7.707   8.011 -1.6214 -0.5309 -0.7731
10233SOL     OW31799   1.070   3.298   2.574 -0.4048 -0.0062  0.1649
10233SOL    HW131800   1.099   3.387   2.556  2.2090 -0.9208 -0.7087
10233SOL    HW231801   1.149   3.253   2.604 -1.2684 -2.4132 -0.9061
10234SOL     OW31802   1.922   0.783   7.108 -0.6489 -0.0508  0.0506
10234SOL    HW131803   1.904   0.782   7.201  0.8458  1.5701  0.4170
10234SOL    HW231804   1.918   0.875   7.083 -0.4242 -0.3902 -1.3483
10235SOL     OW31805   8.825   0.248   0.656 -0.4323  0.2348  0.4527
10235SOL    HW131806   8.761   0.183   0.628 -1.2943  1.3006 -0.1254
10235SOL    HW231807   8.907   0.199   0.665 -1.2521 -1.0840  0.9027
10236SOL     OW31808   4.452   5.266   2.620 -0.3123  0.4059  0.4851
10236SOL    HW131809   4.482   5.357   2.613  0.5432  0.2217  1.4538
10236SOL    HW231810   4.513   5.226   2.683 -0.3856 -0.9572 -0.2766
10237SOL     OW31811   7.700   3.599   3.973 -0.3652 -0.3058 -0.2224
10237SOL    HW131812   7.691   3.666   3.906  0.3891 -0.0348 -0.0603
10237SOL    HW231813   7.612   3.561   3.981 -0.9935  1.1871  0.2422
10238SOL     OW31814   4.366   0.469   7.353 -0.4067 -0.0244  0.0528
10238SOL    HW131815   4.347   0.422   7.272  0.5175 -0.6998  0.2161
10238SOL    HW231816   4.327   0.415   7.422  0.6814 -0.6049  0.2430
10239SOL     OW31817   5.375   2.595   5.460  0.0998  0.0580  0.1508
10239SOL    HW131818   5.406   2.537   5.390 -1.4446 -1.4381  0.6122
10239SOL    HW231819   5.283   2.571   5.471 -0.2035  1.6185  1.3859
10240SOL     OW31820   0.134   6.774   1.459  0.3394 -0.1474 -0.6291
10240SOL    HW131821   0.173   6.693   1.425  1.5596 -0.2895  0.9636
10240SOL    HW231822   0.157   6.774   1.552 -0.5266  1.5382 -0.3758
10241SOL     OW31823   8.982   1.471   5.286  0.0245  0.4315  0.4753
10241SOL    HW131824   9.055   1.476   5.225  1.0834 -0.9538  1.5541
10241SOL    HW231825   8.963   1.377   5.292 -0.4899  0.5985  1.7554
10242SOL     OW31826   3.611   3.860   5.876 -0.1302  0.1829 -0.1599
10242SOL    HW131827   3.621   3.805   5.798 -2.2209 -0.9736  0.3030
10242SOL    HW231828   3.697   3.859   5.918  1.4333  1.8233 -2.9807
10243SOL     OW31829   7.610   0.929   6.437 -0.0939  0.2190  0.5187
10243SOL    HW131830   7.641   0.866   6.501 -1.7766  1.2691  2.4712
10243SOL    HW231831   7.628   1.014   6.477 -2.4999  0.8879  0.3242
10244SOL     OW31832   6.922   7.203   0.308 -0.3182  0.1611  0.1137
10244SOL    HW131833   6.938   7.270   0.374  0.6583  2.0091 -1.8815
10244SOL    HW231834   6.912   7.251   0.226 -2.3372 -1.9606 -1.0359
10245SOL     OW31835   2.534   8.823   7.076 -0.4082 -0.8480 -0.4761
10245SOL    HW131836   2.518   8.827   7.170  0.4302  0.8522 -0.3646
10245SOL    HW231837   2.447   8.821   7.036 -0.7871 -0.1822  0.2961
10246SOL     OW31838   5.021   4.384   3.300 -0.2579  0.2189 -0.4869
10246SOL    HW131839   5.092   4.422   3.351  2.1040 -2.8224 -1.1563
10246SOL    HW231840   4.968   4.336   3.364 -3.2509  4.1348  0.3605
10247SOL     OW31841   6.367   7.551   0.330  0.4787  0.2539 -0.2801
10247SOL    HW131842   6.445   7.548   0.386  0.2433  1.5760  0.1553
10247SOL    HW231843   6.295   7.524   0.387  0.5067 -0.2206 -0.4688
10248SOL     OW31844   5.439   8.816   5.025 -0.3184  0.4090 -0.8695
10248SOL    HW131845   5.403   8.737   4.986  1.0621 -0.0454 -1.2877
10248SOL    HW231846   5.534   8.802   5.023 -0.1318  1.1861  0.9262
10249SOL     OW31847   6.693   2.719   4.057 -0.3012  0.1047 -0.1297
10249SOL    HW131848   6.708   2.632   4.094 -0.1315  0.6210  1.0597
10249SOL    HW231849   6.739   2.779   4.117 -0.5268  1.0230 -0.8533
10250SOL     OW31850   5.968   1.563   2.614 -0.0534  0.1344  0.6801
10250SOL    HW131851   5.901   1.495   2.610 -1.0993  1.1833 -0.9866
10250SOL    HW231852   5.984   1.586   2.523  0.4385  1.9775  1.1945
10251SOL     OW31853   6.153   8.428   8.496 -0.3386  0.2089  0.3186
10251SOL    HW131854   6.157   8.462   8.406  2.3165 -2.4234 -0.7237
10251SOL    HW231855   6.108   8.496   8.545  0.1962  2.8288 -2.5196
10252SOL     OW31856   2.932   5.448   4.151 -0.5836 -0.3399  0.2681
10252SOL    HW131857   2.935   5.533   4.107 -1.8776 -0.5176 -0.2048
10252SOL    HW231858   3.024   5.423   4.160 -0.2279  0.3394 -1.1069
10253SOL     OW31859   8.425   2.416   8.311  0.4432  0.2012 -0.3886
10253SOL    HW131860   8.427   2.323   8.288  0.2376  0.1063 -0.0294
10253SOL    HW231861   8.402   2.460   8.229 -0.3547 -0.1363 -0.3589
10254SOL     OW31862   1.724   8.427   0.520  0.3770 -0.2153  0.0422
10254SOL    HW131863   1.632   8.401   0.521  0.6618 -1.4062  2.2355
10254SOL    HW231864   1.744   8.450   0.611  2.1194  0.5499 -0.4789
10255SOL     OW31865   4.932   6.932   1.985 -0.0168 -0.4235 -0.5685
10255SOL    HW131866   5.009   6.990   1.983 -0.3955  0.1005 -0.2204
10255SOL    HW231867   4.933   6.894   2.073 -0.4247 -0.0350 -0.3890
10256SOL     OW31868   1.335   4.261   0.830  0.3642  0.4718  0.1170
10256SOL    HW131869   1.251   4.256   0.874  0.6205 -1.0081  0.4872
10256SOL    HW231870   1.394   4.300   0.895  0.3950 -0.3140  0.5758
10257SOL     OW31871   5.201   1.268   4.719 -0.0673  0.2995  0.1909
10257SOL    HW131872   5.138   1.331   4.753 -1.0436 -1.3196  1.5671
10257SOL    HW231873   5.166   1.243   4.633 -0.9085 -0.0123  0.6116
10258SOL     OW31874   4.484   8.332   8.879  0.2215 -0.1082 -0.2091
10258SOL    HW131875   4.397   8.349   8.844  1.2797  2.5170 -1.8170
10258SOL    HW231876   4.506   8.410   8.930  1.3751 -1.0383  0.7871
10259SOL     OW31877   2.378   0.455   3.953  0.9016  0.0437 -0.3742
10259SOL    HW131878   2.336   0.369   3.951  0.6430  0.1606 -0.0407
10259SOL    HW231879   2.332   0.506   3.887  0.3505  0.2479  0.1644
10260SOL     OW31880   6.168   7.299   0.453 -0.2334 -0.3509 -0.1242
10260SOL    HW131881   6.185   7.378   0.505  0.6759  0.2448 -1.2716
10260SOL    HW231882   6.108   7.247   0.506 -0.0559  0.6587  1.0951
10261SOL     OW31883   1.051   0.381   8.919  0.4372  0.2199  0.8806
10261SOL    HW131884   1.134   0.382   8.871  0.9561 -1.6185  1.6221
10261SOL    HW231885   1.060   0.448   8.986 -0.0871  2.4568 -1.1615
10262SOL     OW31886   9.103   0.331   5.106 -0.3001 -0.0488 -0.6447
10262SOL    HW131887   9.189   0.373   5.112  0.4665 -1.3034 -2.0294
10262SOL    HW231888   9.113   0.250   5.157 -0.7771 -0.0295 -0.5196
10263SOL     OW31889   0.945   2.285   4.758  0.4215  0.3620  0.4784
10263SOL    HW131890   0.980   2.309   4.672 -0.7909  1.1500  0.1796
10263SOL    HW231891   0.930   2.191   4.752  1.5452  0.1806  0.2855
10264SOL     OW31892   6.020   2.391   1.330 -0.4069  0.3607 -0.2952
10264SOL    HW131893   6.110   2.364   1.350 -0.9310 -1.5419 -0.2814
10264SOL    HW231894   6.010   2.372   1.236 -0.8003  0.5365 -0.2887
10265SOL     OW31895   5.576   6.379   2.047 -0.2682 -0.1176 -0.5159
10265SOL    HW131896   5.595   6.472   2.060 -0.6610 -0.0409 -0.4706
10265SOL    HW231897   5.481   6.373   2.057 -0.2488 -0.5161 -0.5711
10266SOL     OW31898   1.284   4.996   0.940 -0.8045  0.5611  0.1865
10266SOL    HW131899   1.305   5.028   1.027  2.0732  0.8049 -0.4809
10266SOL    HW231900   1.369   4.992   0.895 -1.9893 -0.9700 -2.1229
10267SOL     OW31901   0.890   3.290   3.530  0.2640  0.5267 -0.1026
10267SOL    HW131902   0.851   3.370   3.565 -1.9087 -1.0049  1.1718
10267SOL    HW231903   0.841   3.273   3.450  0.8224  0.5134 -0.4481
10268SOL     OW31904   7.649   1.486   0.361 -0.7841 -0.3218 -0.0118
10268SOL    HW131905   7.650   1.390   0.355  4.4000 -0.4790 -0.6281
10268SOL    HW231906   7.645   1.503   0.455 -4.1492 -0.8504  0.0815
10269SOL     OW31907   0.114   3.492   4.986 -0.4154 -0.5833  0.3245
10269SOL    HW131908   0.079   3.519   5.070  1.8394  0.6601  0.9524
10269SOL    HW231909   0.197   3.540   4.978  0.5645 -2.4286 -1.5436
10270SOL     OW31910   0.781   4.508   2.789  0.3223  0.3833  0.2761
10270SOL    HW131911   0.824   4.590   2.815  0.0230  0.5950  0.1156
10270SOL    HW231912   0.850   4.455   2.751  0.0626  1.6134 -2.1288
10271SOL     OW31913   7.436   5.854   7.301  0.0022  0.2200  0.7027
10271SOL    HW131914   7.519   5.877   7.258 -0.4670  1.4698  0.4232
10271SOL    HW231915   7.406   5.776   7.255 -0.0657  1.0375 -0.7127
10272SOL     OW31916   5.715   5.175   0.240 -0.4775  0.1136  0.0761
10272SOL    HW131917   5.650   5.244   0.256 -0.2131 -0.0801  2.2000
10272SOL    HW231918   5.685   5.132   0.160 -0.7414  2.5499 -1.2551
10273SOL     OW31919   5.274   2.266   3.192  0.1198 -0.6945 -0.3938
10273SOL    HW131920   5.254   2.240   3.102  2.0725 -2.0962 -0.4881
10273SOL    HW231921   5.198   2.239   3.243 -1.3709  0.8680 -1.7008
10274SOL     OW31922   5.592   2.051   0.601 -0.3228  0.1969 -0.0642
10274SOL    HW131923   5.508   2.097   0.613  0.1243  1.1664 -0.5240
10274SOL    HW231924   5.658   2.120   0.605  0.4909 -0.5864  0.5386
10275SOL     OW31925   5.306   1.472   0.119  0.1801 -0.3744  0.3320
10275SOL    HW131926   5.401   1.482   0.124  0.1129  0.4178  0.0811
10275SOL    HW231927   5.292   1.415   0.044  0.4194  0.1973 -0.1552
10276SOL     OW31928   6.477   2.192   2.481 -0.1614 -0.5956 -0.2801
10276SOL    HW131929   6.390   2.231   2.481 -0.9834 -2.3126 -1.4227
10276SOL    HW231930   6.467   2.110   2.531  1.3359  0.1830  1.4323
10277SOL     OW31931   7.424   4.705   4.905  0.3847 -0.0333 -0.3012
10277SOL    HW131932   7.427   4.670   4.994  2.5521  0.8416  0.0401
10277SOL    HW231933   7.502   4.670   4.863 -0.7396 -0.6351 -1.9758
10278SOL     OW31934   2.851   4.179   7.587 -0.6122 -0.0951 -0.2582
10278SOL    HW131935   2.896   4.253   7.546 -1.0281  0.3750  0.1153
10278SOL    HW231936   2.794   4.144   7.518 -0.1190 -0.3216 -0.5540
10279SOL     OW31937   5.289   7.677   5.896  0.2815  0.1495  0.2741
10279SOL    HW131938   5.252   7.598   5.859  1.5920 -0.3831  0.0443
10279SOL    HW231939   5.309   7.654   5.987  0.3258  0.3332  0.3114
10280SOL     OW31940   8.131   9.075   8.921  0.0550 -0.3258 -0.2384
10280SOL    HW131941   8.079   9.123   8.986  0.0016 -0.1755 -0.3924
10280SOL    HW231942   8.080   8.996   8.903  0.5706 -0.8890  0.6863
10281SOL     OW31943   4.699   1.998   3.752  0.0594 -0.5758  0.6174
10281SOL    HW131944   4.654   2.015   3.835  0.0820 -0.5036  0.6148
10281SOL    HW231945   4.757   2.073   3.741 -0.0077 -0.5424  0.4924
10282SOL     OW31946   0.488   6.492   0.283 -0.0315  0.3878 -0.2848
10282SOL    HW131947   0.527   6.520   0.200 -0.6747  0.9799 -0.3981
10282SOL    HW231948   0.395   6.513   0.274 -0.1226  0.3833  0.5545
10283SOL     OW31949   5.960   8.084   7.158  0.3785  0.0556 -0.1951
10283SOL    HW131950   5.977   8.176   7.136  1.4683 -0.0814  0.0135
10283SOL    HW231951   5.935   8.044   7.074 -0.3121  0.5764 -0.2483
10284SOL     OW31952   4.760   1.151   4.427  0.0523 -0.8334  0.5624
10284SOL    HW131953   4.692   1.127   4.490  1.3775  0.0504  2.4354
10284SOL    HW231954   4.795   1.067   4.397 -0.4251 -1.2761  1.2195
10285SOL     OW31955   6.273   2.116   0.615 -0.3610 -0.3891 -0.1544
10285SOL    HW131956   6.234   2.045   0.666 -2.0014  0.5529 -0.0244
10285SOL    HW231957   6.235   2.107   0.528 -0.8979  0.5442 -0.0332
10286SOL     OW31958   7.605   0.914   5.597  0.0539  0.5249  0.2074
10286SOL    HW131959   7.585   0.820   5.601 -0.8332  0.7492  1.2473
10286SOL    HW231960   7.631   0.937   5.686  0.4792  1.2385 -0.0929
10287SOL     OW31961   2.695   5.615   7.083 -0.2313  0.0891 -0.2511
10287SOL    HW131962   2.606   5.627   7.117 -0.3098  2.2799 -1.0519
10287SOL    HW231963   2.740   5.696   7.106  1.6872 -1.0980  0.4046
10288SOL     OW31964   1.285   9.034   1.113  0.8829  0.3389 -0.2159
10288SOL    HW131965   1.374   9.043   1.146  1.0569  1.0918 -0.8600
10288SOL    HW231966   1.229   9.052   1.188  1.2075 -2.6702  0.8999
10289SOL     OW31967   0.215   4.726   5.955  0.2151  0.1091 -0.0901
10289SOL    HW131968   0.166   4.661   6.005  0.0882 -0.9087 -1.4856
10289SOL    HW231969   0.212   4.805   6.009 -1.5744 -0.3807  0.5934
10290SOL     OW31970   5.550   0.011   1.011 -0.0793  0.5466 -0.0356
10290SOL    HW131971   5.477  -0.024   0.959  0.1240  0.1149 -0.0350
10290SOL    HW231972   5.600   0.064   0.950 -0.4984  1.0050  0.0094
10291SOL     OW31973   3.828   7.283   6.084 -0.4539  0.2021  0.1994
10291SOL    HW131974   3.780   7.286   6.167 -0.6207  2.2943  0.0906
10291SOL    HW231975   3.839   7.375   6.060  0.0976 -0.3459 -1.8226
10292SOL     OW31976   3.082   7.792   5.868 -0.4612  0.2559  0.0130
10292SOL    HW131977   3.066   7.724   5.802  1.2686  0.4865 -0.6958
10292SOL    HW231978   3.082   7.745   5.951 -0.4007 -0.4268 -0.3639
10293SOL     OW31979   7.642   6.761   7.096  0.0596  0.2003  0.3418
10293SOL    HW131980   7.558   6.795   7.127 -0.5075 -0.6326 -0.2219
10293SOL    HW231981   7.678   6.831   7.042 -1.5965 -0.4240 -1.7063
10294SOL     OW31982   5.846   8.555   0.947  0.0730 -0.0629  0.5328
10294SOL    HW131983   5.803   8.486   0.996 -0.5609 -1.2016 -1.4866
10294SOL    HW231984   5.807   8.550   0.859  2.0639  0.9548 -0.4844
10295SOL     OW31985   1.598   8.593   1.307 -0.3446 -0.3597  1.0117
10295SOL    HW131986   1.571   8.509   1.345 -0.5541 -0.6544  0.2318
10295SOL    HW231987   1.675   8.618   1.359  0.1119 -1.3552  0.8572
10296SOL     OW31988   4.415   0.917   4.351  0.1596  0.6448 -0.1049
10296SOL    HW131989   4.455   0.835   4.379 -0.2766  0.1708 -0.8481
10296SOL    HW231990   4.332   0.921   4.397  0.9697  1.5761  1.3535
10297SOL     OW31991   5.626   4.648   9.105 -0.0568  0.1892 -0.0198
10297SOL    HW131992   5.683   4.723   9.122  1.8599 -1.5907  2.0873
10297SOL    HW231993   5.686   4.575   9.089 -1.7515 -1.5276  1.0053
10298SOL     OW31994   4.036   8.398   4.509 -0.2009 -0.2873 -0.1135
10298SOL    HW131995   4.000   8.403   4.421 -2.6610 -0.6290  0.8001
10298SOL    HW231996   4.079   8.482   4.522 -2.3531  0.9657 -0.6443
10299SOL     OW31997   4.673   0.794   6.983 -0.1430 -0.0816  0.1975
10299SOL    HW131998   4.603   0.859   6.988 -0.7493 -0.7597  0.7506
10299SOL    HW231999   4.730   0.825   6.912  0.3291  1.7743  1.3085
10300SOL     OW32000   7.661   8.190   0.404  1.2828  0.2230 -0.6832
10300SOL    HW132001   7.627   8.208   0.491 -2.0914 -2.9191 -1.0901
10300SOL    HW232002   7.710   8.108   0.413 -2.1222 -2.1760 -2.0941
10301SOL     OW32003   5.955   8.956   1.225 -0.0248 -0.2023  0.0549
10301SOL    HW132004   5.917   9.026   1.278  0.9937  1.2803 -1.0572
10301SOL    HW232005   5.949   8.989   1.135  1.3655 -1.1098 -0.4050
10302SOL     OW32006   3.102   1.216   5.101 -0.4922  0.1206 -0.7629
10302SOL    HW132007   3.144   1.295   5.135  0.6407 -0.8156  0.1022
10302SOL    HW232008   3.175   1.160   5.073 -0.9969 -2.1022  1.9534
10303SOL     OW32009   3.079   0.105   7.194  0.9104  0.0121 -0.4722
10303SOL    HW132010   3.059   0.187   7.240  0.8459 -0.0731 -0.3468
10303SOL    HW232011   3.158   0.072   7.238  0.3208 -0.5363  0.1925
10304SOL     OW32012   3.392   6.188   2.631 -0.0703  0.6478  0.0109
10304SOL    HW132013   3.358   6.192   2.541 -1.4289  1.5783  0.5337
10304SOL    HW232014   3.328   6.236   2.683  0.9458  0.5375  1.4194
10305SOL     OW32015   8.872   0.709   7.503  0.7669  0.1628  0.1518
10305SOL    HW132016   8.890   0.788   7.452  0.5343 -0.4497 -0.9150
10305SOL    HW232017   8.781   0.718   7.531  0.7370  0.2650  0.0234
10306SOL     OW32018   0.379   0.054   6.276 -0.3971  0.4049 -0.6251
10306SOL    HW132019   0.341  -0.026   6.240  0.9591 -0.2373 -0.6995
10306SOL    HW232020   0.462   0.065   6.229 -1.5773  3.1423 -2.2668
10307SOL     OW32021   7.555   2.002   8.078 -0.1474 -0.2715  0.0041
10307SOL    HW132022   7.544   1.913   8.111  2.2830 -1.0498 -1.0786
10307SOL    HW232023   7.500   2.006   8.000 -0.4815 -0.7360  0.2136
10308SOL     OW32024   4.497   3.973   4.887 -0.1158  0.2106  0.1386
10308SOL    HW132025   4.455   3.887   4.889  1.1493 -0.4617 -0.8491
10308SOL    HW232026   4.508   3.997   4.979  0.0416 -0.9628  0.4407
10309SOL     OW32027   3.491   7.968   4.158 -0.0182  0.1250 -0.0649
10309SOL    HW132028   3.574   7.985   4.113 -0.2666 -0.2015 -0.6593
10309SOL    HW232029   3.463   7.882   4.125  0.7620 -1.0567  2.1735
10310SOL     OW32030   1.263   5.314   8.494  0.1247  0.2211  0.1382
10310SOL    HW132031   1.302   5.251   8.555 -1.2459  0.7193  1.6272
10310SOL    HW232032   1.190   5.266   8.455  0.6341  0.0959 -0.6647
10311SOL     OW32033   8.628   3.805   4.678  0.1705 -0.0162  0.0072
10311SOL    HW132034   8.566   3.798   4.750  0.2240  0.2475  0.0771
10311SOL    HW232035   8.672   3.720   4.676  1.6345  0.6623  1.6034
10312SOL     OW32036   4.085   4.752   7.101 -0.4508 -0.2663 -0.0050
10312SOL    HW132037   4.037   4.695   7.041  0.3953 -0.5860 -0.3992
10312SOL    HW232038   4.090   4.702   7.182 -0.9723 -0.1350  0.1124
10313SOL     OW32039   0.865   3.107   3.756  0.4296 -0.3316 -0.1199
10313SOL    HW132040   0.771   3.117   3.771  0.4170 -1.1455  0.3951
10313SOL    HW232041   0.881   3.152   3.673 -0.5107 -0.6877 -0.5056
10314SOL     OW32042   1.898   7.668   4.467  0.4286  0.0349  0.0214
10314SOL    HW132043   1.845   7.589   4.480 -0.3128  0.4662 -0.2852
10314SOL    HW232044   1.975   7.637   4.419 -0.1992 -0.3962 -0.7401
10315SOL     OW32045   5.910   5.526   5.707  0.3363  0.0072 -0.0581
10315SOL    HW132046   5.862   5.521   5.625  1.2231 -0.2504 -0.5691
10315SOL    HW232047   5.978   5.460   5.700  0.1094 -0.3690  1.1014
10316SOL     OW32048   7.850   1.842   2.065  0.5363  0.2026 -0.0583
10316SOL    HW132049   7.783   1.905   2.037  0.8215 -0.9344 -3.8341
10316SOL    HW232050   7.904   1.892   2.126 -1.4614  2.3772  0.1037
10317SOL     OW32051   8.000   7.610   2.950  0.1506 -0.0623 -0.3496
10317SOL    HW132052   7.959   7.613   3.036  2.3885  1.4168  0.7493
10317SOL    HW232053   8.074   7.550   2.961  0.2434 -0.1524 -1.3702
10318SOL     OW32054   9.110   4.520   0.335 -0.0071  0.0130  0.1641
10318SOL    HW132055   9.176   4.530   0.404  0.2048  0.9876 -0.1606
10318SOL    HW232056   9.084   4.610   0.314  1.5450 -0.0850 -2.6000
10319SOL     OW32057   0.148   7.930   3.252  0.4188 -0.1511 -0.1945
10319SOL    HW132058   0.058   7.933   3.218  0.3927  2.0590 -0.0401
10319SOL    HW232059   0.137   7.930   3.347  0.5116  3.6073 -0.0574
10320SOL     OW32060   0.827   3.661   3.355 -0.5915  0.5859 -0.0732
10320SOL    HW132061   0.795   3.603   3.425 -0.4335 -1.4106 -1.5549
10320SOL    HW232062   0.914   3.626   3.333 -0.1883  1.8339 -0.5773
10321SOL     OW32063   9.050   1.539   4.139 -0.1986 -0.4418  0.3571
10321SOL    HW132064   8.980   1.498   4.089 -0.1625 -0.4026  0.2742
10321SOL    HW232065   9.006   1.575   4.217 -0.5036  0.7887 -0.3619
10322SOL     OW32066   3.349   6.774   0.302 -0.4035 -0.2161 -0.0159
10322SOL    HW132067   3.304   6.710   0.246 -1.0381 -0.0645  0.3118
10322SOL    HW232068   3.419   6.723   0.344  0.7563 -0.1105 -1.6951
10323SOL     OW32069   6.084   3.510   0.865  0.0518  0.8094  0.7526
10323SOL    HW132070   6.130   3.560   0.932  0.0827  0.4303  1.0185
10323SOL    HW232071   6.012   3.567   0.837  0.3622  1.1874  0.7161
10324SOL     OW32072   7.705   1.925   0.981  0.3133  0.0205 -0.0575
10324SOL    HW132073   7.761   1.930   1.058  0.9235  0.7696 -0.5312
10324SOL    HW232074   7.720   1.838   0.945  0.4326 -0.1333  0.3684
10325SOL     OW32075   2.647   8.378   7.519  0.1788 -0.2385  0.0768
10325SOL    HW132076   2.634   8.457   7.468  0.5801 -0.5622 -0.5516
10325SOL    HW232077   2.572   8.374   7.579 -0.2539  0.2020 -0.4274
10326SOL     OW32078   5.620   4.652   4.798  0.1842 -0.0842  0.2291
10326SOL    HW132079   5.641   4.638   4.890  1.1252 -2.0231 -0.2227
10326SOL    HW232080   5.543   4.597   4.783 -1.1366  1.6755  0.2506
10327SOL     OW32081   3.536   4.436   7.129 -0.4118 -0.7647 -0.5179
10327SOL    HW132082   3.580   4.438   7.044  1.3677 -1.4132  0.3388
10327SOL    HW232083   3.600   4.472   7.191 -2.0126  0.5938  0.4412
10328SOL     OW32084   7.599   6.824   2.823  0.1563 -0.3524  0.0906
10328SOL    HW132085   7.504   6.826   2.833  0.1786  0.2254  0.2334
10328SOL    HW232086   7.623   6.734   2.842 -0.1765 -0.1077  1.8646
10329SOL     OW32087   1.474   5.961   3.265  0.3106  0.1127  0.2547
10329SOL    HW132088   1.543   5.951   3.201 -0.6962  0.5972 -0.9455
10329SOL    HW232089   1.519   5.993   3.344  1.4994 -0.0347 -0.3463
10330SOL     OW32090   6.305   2.514   2.865  0.2186 -0.1689 -0.1875
10330SOL    HW132091   6.255   2.561   2.798 -1.7199 -0.0241  1.2648
10330SOL    HW232092   6.392   2.553   2.861  0.0259  0.2040 -2.2187
10331SOL     OW32093   8.588   1.624   5.926 -0.0486  0.2403  0.1693
10331SOL    HW132094   8.679   1.599   5.911 -0.0297  0.6872 -0.5180
10331SOL    HW232095   8.538   1.545   5.908  0.3320 -0.6440  2.6391
10332SOL     OW32096   1.949   3.986   2.397  0.3984 -0.1935  0.4311
10332SOL    HW132097   1.939   4.016   2.307  0.0504  0.3050  0.6325
10332SOL    HW232098   2.040   3.957   2.403  0.7115  0.7260  0.2001
10333SOL     OW32099   6.881   4.236   4.789  0.2639  0.3072 -0.1445
10333SOL    HW132100   6.868   4.150   4.748  0.2711  0.4819 -0.5158
10333SOL    HW232101   6.803   4.247   4.844 -0.0671  0.3496 -0.6096
10334SOL     OW32102   7.732   3.942   3.129 -0.0421  0.1144  0.3063
10334SOL    HW132103   7.819   3.955   3.167 -0.0775  0.7807  0.1667
10334SOL    HW232104   7.677   3.915   3.202 -0.0239  1.0127  0.6602
10335SOL     OW32105   5.583   5.076   3.190  0.0205 -0.1944  0.1884
10335SOL    HW132106   5.604   5.003   3.248  1.1263 -0.2435 -0.2375
10335SOL    HW232107   5.506   5.047   3.141 -1.8377  0.4099  2.5721
10336SOL     OW32108   0.398   8.215   7.263 -0.2745 -0.0971  0.1338
10336SOL    HW132109   0.319   8.210   7.318  0.4557  1.0660  1.3570
10336SOL    HW232110   0.433   8.126   7.265 -0.4200 -0.1502  1.3586
10337SOL     OW32111   1.568   2.406   1.920  0.0369  0.0305 -0.3068
10337SOL    HW132112   1.490   2.400   1.975 -0.7693  1.6346 -1.1779
10337SOL    HW232113   1.545   2.357   1.841  0.0473  0.1821 -0.4051
10338SOL     OW32114   0.565   9.031   1.411  0.0620  0.1577  0.3572
10338SOL    HW132115   0.556   9.045   1.317  2.3932  1.6368  0.2647
10338SOL    HW232116   0.601   8.943   1.418  3.4185  1.3026 -0.5168
10339SOL     OW32117   0.638   4.600   2.582  0.1213 -0.4736  0.0732
10339SOL    HW132118   0.699   4.586   2.654  1.1437 -0.3293 -0.7358
10339SOL    HW232119   0.691   4.638   2.512 -0.8273 -0.6621 -0.7823
10340SOL     OW32120   6.809   4.639   5.030  0.0750 -0.5109  0.4518
10340SOL    HW132121   6.868   4.698   4.984  0.2752  0.0598  1.3987
10340SOL    HW232122   6.833   4.649   5.122 -1.3104 -0.4814  0.8293
10341SOL     OW32123   5.219   0.604   7.067  0.2532 -0.1443 -0.0093
10341SOL    HW132124   5.226   0.623   7.160 -0.3629  1.5395 -0.2672
10341SOL    HW232125   5.125   0.608   7.048  0.4131  0.1775 -0.8117
10342SOL     OW32126   3.744   3.202   8.342  0.0081 -0.7984  0.3319
10342SOL    HW132127   3.681   3.149   8.390 -0.2606 -1.2879 -0.5499
10342SOL    HW232128   3.718   3.293   8.360 -1.4505 -0.9876 -0.6568
10343SOL     OW32129   4.315   8.908   8.008 -0.0905  0.4384 -0.0072
10343SOL    HW132130   4.346   8.926   7.920  0.9807  2.2161  0.6774
10343SOL    HW232131   4.223   8.935   8.007 -0.2396 -0.0601 -0.6966
10344SOL     OW32132   1.521   7.318   0.642  0.3063 -0.0141 -0.0553
10344SOL    HW132133   1.454   7.371   0.599 -1.8219 -1.5068  1.1781
10344SOL    HW232134   1.482   7.230   0.645  1.8922 -0.7133  1.6695
10345SOL     OW32135   5.567   8.049   3.432  0.4385  0.3653 -0.0858
10345SOL    HW132136   5.619   8.082   3.505 -0.4699  2.9396 -0.5204
10345SOL    HW232137   5.599   8.097   3.356 -0.2082 -0.5808 -0.9774
10346SOL     OW32138   2.315   0.154   3.347  0.1494  0.3115 -0.1329
10346SOL    HW132139   2.377   0.225   3.331 -0.6776  1.1083  0.0681
10346SOL    HW232140   2.314   0.145   3.443 -1.6619  1.8479  0.0500
10347SOL     OW32141   8.069   4.822   2.458  0.3647 -0.8488  0.7866
10347SOL    HW132142   8.087   4.916   2.447 -3.0859  0.3616  3.4523
10347SOL    HW232143   8.117   4.797   2.537  1.1220 -1.3163  0.1891
10348SOL     OW32144   7.123   5.250   2.865  0.1084  0.3964 -0.4831
10348SOL    HW132145   7.159   5.335   2.889  0.8513 -0.6687  2.5568
10348SOL    HW232146   7.199   5.198   2.836  0.1173 -0.0544  0.3200
10349SOL     OW32147   5.033   5.342   4.186 -0.2471  0.0655 -0.0735
10349SOL    HW132148   5.040   5.396   4.107 -1.4469  0.6481  0.1918
10349SOL    HW232149   4.967   5.276   4.163 -1.0824  0.6377  0.6494
10350SOL     OW32150   1.983   8.348   0.742 -0.6621  0.6721 -0.0573
10350SOL    HW132151   1.993   8.315   0.831  0.7183  0.8288 -0.1415
10350SOL    HW232152   2.005   8.440   0.747 -0.6741  0.7081 -0.5414
10351SOL     OW32153   4.568   5.505   2.841  0.2831  0.3438  0.0273
10351SOL    HW132154   4.521   5.555   2.907 -2.0931 -0.8439 -0.6451
10351SOL    HW232155   4.637   5.564   2.811 -1.8898  2.9531 -0.2261
10352SOL     OW32156   6.834   6.926   5.025 -0.1720  0.8469 -0.4024
10352SOL    HW132157   6.771   6.946   5.094 -0.4784 -1.6392  0.1314
10352SOL    HW232158   6.781   6.903   4.950 -0.0236 -1.8696  0.2292
10353SOL     OW32159   0.652   1.196   6.188  0.3851  0.6143 -0.1342
10353SOL    HW132160   0.653   1.256   6.263  0.6994 -1.1581  1.3422
10353SOL    HW232161   0.614   1.115   6.222  0.7599 -0.3270 -1.8341
10354SOL     OW32162   5.782   2.707   2.148 -0.4029  0.2729  0.1230
10354SOL    HW132163   5.828   2.781   2.187  0.5883  0.5542 -1.5065
10354SOL    HW232164   5.806   2.709   2.056 -1.9720 -0.8879 -0.3569
10355SOL     OW32165   7.157   4.170   8.604 -0.3751  0.2650  0.7678
10355SOL    HW132166   7.144   4.207   8.692  0.5310 -1.3073  1.6195
10355SOL    HW232167   7.083   4.109   8.593  0.5045 -0.9561  1.2885
10356SOL     OW32168   5.840   1.052   8.295  0.5222  0.1222 -0.4048
10356SOL    HW132169   5.868   0.964   8.320  1.1806  0.3118 -0.4459
10356SOL    HW232170   5.848   1.054   8.199  1.1782  0.4443 -0.3464
10357SOL     OW32171   0.242   6.612   7.446  0.0877 -0.0359  0.2139
10357SOL    HW132172   0.336   6.592   7.445  0.4804  1.3431  2.7050
10357SOL    HW232173   0.237   6.702   7.413 -0.4880 -0.3852 -0.6879
10358SOL     OW32174   1.661   4.508   7.606  0.5106 -0.0666 -0.1132
10358SOL    HW132175   1.632   4.517   7.515  1.7131 -1.4144 -0.6753
10358SOL    HW232176   1.684   4.416   7.615 -0.2204 -0.1151  1.7831
10359SOL     OW32177   6.350   0.564   8.167  0.4841  0.3560  0.3183
10359SOL    HW132178   6.342   0.651   8.206  1.0361  1.1967 -1.3268
10359SOL    HW232179   6.361   0.582   8.073  0.7436 -1.4875 -0.0266
10360SOL     OW32180   7.330   2.960   5.544  0.6226  0.3176  0.0984
10360SOL    HW132181   7.238   2.935   5.541  0.5065  0.8376 -1.1522
10360SOL    HW232182   7.335   3.041   5.492  2.0729 -0.7067 -1.4551
10361SOL     OW32183   8.682   5.366   0.302  0.2876  0.0246  0.2118
10361SOL    HW132184   8.586   5.359   0.301  0.3951 -2.3599  0.2321
10361SOL    HW232185   8.707   5.328   0.387  1.2548  0.7692  0.2719
10362SOL     OW32186   2.403   8.004   5.270  0.0630 -1.0539  0.0994
10362SOL    HW132187   2.432   7.967   5.353  2.7629 -0.9804 -0.7017
10362SOL    HW232188   2.321   8.050   5.291  0.8594 -0.6767  2.7954
10363SOL     OW32189   4.449   5.741   7.752 -0.3294 -0.1742  0.3712
10363SOL    HW132190   4.537   5.705   7.753 -0.5446 -0.8087 -0.8577
10363SOL    HW232191   4.457   5.826   7.795  0.8944 -0.1879  0.2050
10364SOL     OW32192   6.701   2.043   2.738 -0.1668  0.2933  0.0888
10364SOL    HW132193   6.714   1.969   2.798  0.2322  1.2012  1.1629
10364SOL    HW232194   6.613   2.031   2.704  0.2557 -1.2507 -0.5959
10365SOL     OW32195   5.088   1.129   0.021 -0.9143 -0.1432  0.1110
10365SOL    HW132196   5.170   1.177   0.024 -0.2828 -1.1140 -0.8910
10365SOL    HW232197   5.111   1.040   0.051 -1.1580 -0.9569 -1.9532
10366SOL     OW32198   5.658   0.872   7.888  0.2293 -0.8069 -0.1063
10366SOL    HW132199   5.713   0.908   7.958 -0.5267 -0.1105  0.1456
10366SOL    HW232200   5.629   0.949   7.839 -2.0021 -0.9516  0.8586
10367SOL     OW32201   7.574   8.671   8.342  0.3952 -0.3878 -0.2145
10367SOL    HW132202   7.552   8.675   8.436 -1.1295  0.0495 -0.5594
10367SOL    HW232203   7.637   8.600   8.336  0.3733 -0.5615  1.1280
10368SOL     OW32204   7.643   1.642   4.276  0.0919  0.3139  0.3359
10368SOL    HW132205   7.679   1.583   4.343  1.9740  1.9162  0.8063
10368SOL    HW232206   7.680   1.610   4.194  0.9531  0.6892  0.5659
10369SOL     OW32207   2.083   7.628   2.096  0.0760  0.4101 -0.1367
10369SOL    HW132208   2.026   7.562   2.054 -0.5135  1.7907 -1.6463
10369SOL    HW232209   2.027   7.669   2.161 -0.3398  1.0271 -0.8670
10370SOL     OW32210   2.695   6.870   0.259 -0.4118 -0.2566  0.5337
10370SOL    HW132211   2.783   6.845   0.288  0.0864  1.0069  0.1772
10370SOL    HW232212   2.674   6.948   0.310 -1.7969 -1.1486  1.3951
10371SOL     OW32213   1.728   3.222   3.508 -0.0454  0.1511 -0.1935
10371SOL    HW132214   1.641   3.258   3.523 -0.4493 -1.0745  0.5986
10371SOL    HW232215   1.729   3.140   3.557  2.2087  1.0129  1.3770
10372SOL     OW32216   3.684   3.762   1.080  0.5242 -0.4619  0.3140
10372SOL    HW132217   3.669   3.780   0.987  1.5293 -2.8792 -0.3912
10372SOL    HW232218   3.728   3.677   1.082  0.0485 -0.7617  3.0476
10373SOL     OW32219   7.306   3.424   5.208  0.5351 -0.3482 -0.7433
10373SOL    HW132220   7.276   3.470   5.130  0.2458  0.9291  0.1039
10373SOL    HW232221   7.243   3.352   5.219 -0.9455  0.9809 -0.2506
10374SOL     OW32222   2.395   2.585   8.540  0.1907 -0.6455  0.2328
10374SOL    HW132223   2.436   2.499   8.539 -0.7941 -1.1410 -1.4174
10374SOL    HW232224   2.301   2.567   8.532 -0.0571  0.5834  0.1558
10375SOL     OW32225   3.452   0.397   0.825  0.0043 -0.6493  0.0301
10375SOL    HW132226   3.410   0.396   0.739  0.0126 -0.5166  0.0254
10375SOL    HW232227   3.410   0.468   0.872 -0.1733 -0.8802  0.2218
10376SOL     OW32228   6.248   3.027   8.767 -0.1412 -0.2216 -0.3609
10376SOL    HW132229   6.251   2.950   8.709  2.3869  0.2612 -0.9778
10376SOL    HW232230   6.245   2.990   8.855  1.3804 -1.0941 -0.6338
10377SOL     OW32231   6.698   4.615   3.278 -0.3407 -0.0537 -0.4399
10377SOL    HW132232   6.632   4.549   3.299 -0.6200  0.5274  0.5800
10377SOL    HW232233   6.674   4.691   3.332  1.1489  0.1650 -0.0366
10378SOL     OW32234   6.786   1.840   7.381 -0.8981  0.6448 -0.3328
10378SOL    HW132235   6.766   1.750   7.357  1.2657 -0.4416  1.4594
10378SOL    HW232236   6.878   1.852   7.355  0.3900  0.6087  3.5306
10379SOL     OW32237   5.339   1.119   3.793 -0.2374  0.4633  0.2030
10379SOL    HW132238   5.311   1.186   3.856 -0.3097  0.3066  0.3361
10379SOL    HW232239   5.350   1.040   3.845 -1.9435 -0.0978 -0.2434
10380SOL     OW32240   6.918   4.086   4.122  1.0640  0.1152 -0.4033
10380SOL    HW132241   6.865   4.037   4.060 -0.0701  0.6370  0.1349
10380SOL    HW232242   6.924   4.174   4.084 -0.8643  0.8568  0.8839
10381SOL     OW32243   1.734   0.089   7.730  0.2197  0.3924 -0.5245
10381SOL    HW132244   1.748   0.116   7.640  0.0878 -1.3143 -1.0919
10381SOL    HW232245   1.804   0.026   7.747 -1.5750 -1.7214 -0.5400
10382SOL     OW32246   2.506   6.990   1.971  0.5910  0.3299 -0.0719
10382SOL    HW132247   2.520   7.051   1.898 -0.1050  0.9914  0.3269
10382SOL    HW232248   2.411   6.987   1.982  0.7095  1.1400  1.5227
10383SOL     OW32249   2.016   7.247   7.368  0.5032 -0.4848 -0.4463
10383SOL    HW132250   2.101   7.205   7.360  0.0162 -1.4663 -0.6742
10383SOL    HW232251   2.033   7.330   7.413  1.8318  0.1902 -2.0905
10384SOL     OW32252   5.206   5.617   5.698 -0.1633  0.2096  0.4563
10384SOL    HW132253   5.222   5.569   5.779 -1.9811  0.2532  0.8944
10384SOL    HW232254   5.261   5.573   5.633  0.3808 -0.6247  1.4486
10385SOL     OW32255   4.170   5.850   3.285  0.7249 -0.4361 -0.1021
10385SOL    HW132256   4.264   5.838   3.298  0.3489 -1.2533  2.2791
10385SOL    HW232257   4.150   5.798   3.208  2.0996 -0.8684 -0.2041
10386SOL     OW32258   2.958   7.709   3.259 -0.0340 -0.4337  0.2891
10386SOL    HW132259   2.913   7.793   3.262 -0.4888 -0.6504 -0.4859
10386SOL    HW232260   3.040   7.724   3.307  1.0494  1.1624 -1.8760
10387SOL     OW32261   4.634   8.869   2.774  0.3130 -0.8961  0.0380
10387SOL    HW132262   4.607   8.821   2.696 -0.0286 -2.3363  0.9967
10387SOL    HW232263   4.729   8.861   2.776  0.5830  1.1760 -1.4549
10388SOL     OW32264   5.638   4.345   5.759  0.2040 -0.1991  0.8734
10388SOL    HW132265   5.635   4.435   5.792 -1.7206 -0.6605  2.1397
10388SOL    HW232266   5.568   4.341   5.694  1.1149 -0.4767 -0.1179
10389SOL     OW32267   2.848   4.392   6.148 -0.1746  0.2600 -0.1859
10389SOL    HW132268   2.853   4.401   6.053  0.9067  0.7086 -0.1053
10389SOL    HW232269   2.898   4.466   6.181 -1.7272  0.9261  0.7745
10390SOL     OW32270   2.875   2.638   2.249  0.2368  0.1170  0.1000
10390SOL    HW132271   2.926   2.718   2.263  0.9184 -0.5336  1.5237
10390SOL    HW232272   2.897   2.582   2.324  1.5478 -2.3301 -1.9546
10391SOL     OW32273   6.026   8.910   2.808 -0.1071 -0.3726 -0.0908
10391SOL    HW132274   6.042   8.821   2.778 -0.3476  0.5080 -3.1450
10391SOL    HW232275   5.937   8.909   2.842  0.0154 -1.3375  0.2319
10392SOL     OW32276   3.362   0.574   6.021 -0.7283  1.0709 -0.0844
10392SOL    HW132277   3.394   0.663   6.013  1.5427  0.3049 -0.2599
10392SOL    HW232278   3.437   0.519   5.998 -1.6728 -0.9073  1.2408
10393SOL     OW32279   0.071   6.323   7.111  0.1360 -0.0480 -0.0032
10393SOL    HW132280   0.109   6.293   7.193 -0.5377  2.4420  1.3182
10393SOL    HW232281   0.010   6.392   7.137 -1.2655 -0.2450 -2.4923
10394SOL     OW32282   0.559   6.569   7.448  0.5597 -0.0093  0.0920
10394SOL    HW132283   0.576   6.606   7.362  1.2043 -2.2365 -0.8051
10394SOL    HW232284   0.644   6.572   7.493 -0.3320  3.7958  1.8546
10395SOL     OW32285   3.673   8.110   2.651 -0.8667  0.1245  0.0450
10395SOL    HW132286   3.726   8.179   2.692 -0.8425 -0.1456  0.4780
10395SOL    HW232287   3.736   8.053   2.608 -0.8247 -0.0221  0.2948
10396SOL     OW32288   8.230   1.193   8.169  0.1185 -0.0128 -0.0467
10396SOL    HW132289   8.191   1.121   8.219  1.0426 -0.2700  0.3343
10396SOL    HW232290   8.175   1.269   8.190  0.0032 -0.2966  0.7170
10397SOL     OW32291   7.460   4.036   2.658  0.0889 -0.2789 -0.2697
10397SOL    HW132292   7.534   4.002   2.708 -0.1852 -2.1130 -1.0346
10397SOL    HW232293   7.396   4.063   2.724  1.9514  2.7821  0.4553
10398SOL     OW32294   1.059   1.725   7.553  0.3199  0.1133  0.2858
10398SOL    HW132295   1.137   1.671   7.543  0.3558 -0.5345  3.0852
10398SOL    HW232296   1.038   1.719   7.647 -2.1114  1.6184 -0.0711
10399SOL     OW32297   3.921   0.404   2.440 -0.1181 -0.3397  0.5543
10399SOL    HW132298   3.968   0.466   2.495 -0.6993  1.5421 -0.9650
10399SOL    HW232299   3.977   0.394   2.362  0.3699 -2.4341  1.1001
10400SOL     OW32300   0.369   1.162   2.848 -0.7604 -0.4077  0.2681
10400SOL    HW132301   0.407   1.238   2.806  0.2096  0.2110  2.1651
10400SOL    HW232302   0.308   1.198   2.913 -0.7178 -1.2599  0.7989
10401SOL     OW32303   2.710   3.079   5.348 -0.4971  0.3937  0.3142
10401SOL    HW132304   2.687   3.134   5.273  0.7734  0.5807  0.0308
10401SOL    HW232305   2.717   3.140   5.422 -2.2092  0.1462  0.7180
10402SOL     OW32306   2.510   8.958   3.738 -0.2220 -0.1710 -0.2041
10402SOL    HW132307   2.545   8.907   3.811  0.6779 -1.8330 -1.6928
10402SOL    HW232308   2.416   8.941   3.738 -0.0543 -1.1394 -0.1313
10403SOL     OW32309   7.532   5.744   0.989  0.1533 -0.0335 -0.3658
10403SOL    HW132310   7.574   5.702   1.064  3.4113 -1.9650 -3.0035
10403SOL    HW232311   7.604   5.771   0.933 -2.0547  3.3011 -1.9339
10404SOL     OW32312   6.357   6.010   0.706 -0.1162 -0.2153 -0.0505
10404SOL    HW132313   6.400   5.936   0.747 -0.3461 -0.1241  0.3596
10404SOL    HW232314   6.348   5.984   0.614 -0.3242 -0.7553  0.1182
10405SOL     OW32315   5.040   8.752   9.053 -0.3296  0.4960 -0.3649
10405SOL    HW132316   5.130   8.718   9.052 -1.2937 -2.2960 -0.0777
10405SOL    HW232317   5.051   8.846   9.069  2.5546  0.4227 -1.2210
10406SOL     OW32318   8.588   9.047   8.170  0.4380 -0.1143 -0.4836
10406SOL    HW132319   8.554   9.013   8.253  3.1737 -1.0112  0.3825
10406SOL    HW232320   8.512   9.089   8.128 -1.9457 -2.8007  0.7513
10407SOL     OW32321   1.520   6.327   8.787  0.2976  0.4248  0.1700
10407SOL    HW132322   1.592   6.349   8.846  0.1989  0.5185  0.2554
10407SOL    HW232323   1.441   6.358   8.832  0.1945  0.2406  0.1175
10408SOL     OW32324   4.804   8.020   3.042 -0.1612  0.3125  0.0798
10408SOL    HW132325   4.714   8.004   3.012 -0.2042  0.8654 -0.0937
10408SOL    HW232326   4.858   7.962   2.990 -0.2693  1.0328 -0.8551
10409SOL     OW32327   0.117   4.313   3.793 -0.5667 -0.0588 -0.0679
10409SOL    HW132328   0.158   4.399   3.801 -1.1259  0.1483  0.6603
10409SOL    HW232329   0.035   4.330   3.746 -0.1032 -0.3915 -1.0352
10410SOL     OW32330   3.896   6.640   4.439  0.2848 -0.1733  0.2868
10410SOL    HW132331   3.817   6.620   4.490 -0.1978 -0.0267 -0.3987
10410SOL    HW232332   3.864   6.661   4.352  1.0454  0.3715  0.1287
10411SOL     OW32333   8.796   5.816   6.271  0.4797  0.7104 -0.6717
10411SOL    HW132334   8.783   5.815   6.366 -1.0141 -1.2856 -0.8084
10411SOL    HW232335   8.837   5.900   6.252  2.4803  0.4231  1.9265
10412SOL     OW32336   4.310   4.686   1.674  0.0887 -0.2808  0.6623
10412SOL    HW132337   4.345   4.766   1.636  0.7050 -1.6179 -1.7833
10412SOL    HW232338   4.216   4.702   1.681 -0.0881  0.0015 -1.6944
10413SOL     OW32339   0.476   8.593   2.868 -0.6520  0.3432  0.0993
10413SOL    HW132340   0.430   8.509   2.876  3.1607 -2.1507 -0.8895
10413SOL    HW232341   0.508   8.611   2.957  0.2976 -0.5205 -0.0368
10414SOL     OW32342   8.123   8.869   5.303  0.6688  0.1298 -0.0588
10414SOL    HW132343   8.142   8.779   5.276  1.6598  0.7432 -1.5501
10414SOL    HW232344   8.044   8.861   5.357  0.5266 -1.5902 -0.4329
10415SOL     OW32345   2.460   7.653   1.350 -0.0524  0.2671 -0.0975
10415SOL    HW132346   2.542   7.637   1.397  0.1583  2.6651  0.4635
10415SOL    HW232347   2.437   7.568   1.313  1.4907 -0.9800  1.6211
10416SOL     OW32348   7.603   3.581   1.574 -0.2461  0.6644 -0.1604
10416SOL    HW132349   7.554   3.662   1.587 -1.1237  0.0635  0.3933
10416SOL    HW232350   7.541   3.522   1.532 -0.4794 -0.5487  1.7296
10417SOL     OW32351   7.595   1.504   5.339 -0.2437  0.0877  0.0534
10417SOL    HW132352   7.676   1.524   5.294  1.2976 -2.7796  1.2702
10417SOL    HW232353   7.588   1.570   5.408  1.2330  0.1837  0.1337
10418SOL     OW32354   5.620   4.183   0.442 -0.0544 -0.4909 -0.2387
10418SOL    HW132355   5.613   4.207   0.350  0.8022 -0.9243 -0.4308
10418SOL    HW232356   5.703   4.135   0.448  0.4519  0.4683  0.9452
10419SOL     OW32357   0.947   7.259   6.027  0.5690 -0.4095  0.3326
10419SOL    HW132358   0.973   7.183   6.080 -1.5006 -1.0376  0.5256
10419SOL    HW232359   0.988   7.243   5.942  1.3192 -1.0118  0.7876
10420SOL     OW32360   2.764   3.499   1.186 -0.3433  0.1289  0.0321
10420SOL    HW132361   2.853   3.509   1.153 -0.6611  1.3197 -0.4930
10420SOL    HW232362   2.740   3.410   1.162 -0.0580  0.5021 -1.7389
10421SOL     OW32363   4.255   7.447   5.099 -0.2523  0.2739 -0.4047
10421SOL    HW132364   4.332   7.475   5.049  0.7645  0.1759  1.0338
10421SOL    HW232365   4.268   7.353   5.112  0.0939  0.5016  0.9968
10422SOL     OW32366   7.305   7.304   4.198 -0.2079 -0.3953  0.5292
10422SOL    HW132367   7.317   7.377   4.137 -2.5603 -3.0384 -3.5280
10422SOL    HW232368   7.351   7.230   4.158  0.8422 -1.6823  3.7124
10423SOL     OW32369   6.558   6.368   1.757 -0.4375  0.4754 -0.2783
10423SOL    HW132370   6.512   6.332   1.681 -0.5870 -0.4907  0.2502
10423SOL    HW232371   6.560   6.296   1.820  2.7482  0.0355 -0.6824
10424SOL     OW32372   2.918   8.401   3.870  0.1675  0.0138 -0.2467
10424SOL    HW132373   2.978   8.467   3.906  0.1000  0.9855 -1.8445
10424SOL    HW232374   2.837   8.413   3.918  0.5120  0.3009  0.2721
10425SOL     OW32375   8.735   8.865   3.256 -0.3608  0.1055 -0.3969
10425SOL    HW132376   8.709   8.923   3.184 -0.9670 -1.2713 -1.3294
10425SOL    HW232377   8.749   8.923   3.330  0.2664  1.5779 -1.6173
10426SOL     OW32378   0.486   6.243   1.977  0.2564  0.3390  0.1056
10426SOL    HW132379   0.446   6.184   2.042 -0.0655  1.7037  1.1943
10426SOL    HW232380   0.458   6.208   1.892  0.8131 -1.5902  0.6648
10427SOL     OW32381   3.950   3.154   2.429 -0.3349  0.2648 -0.9052
10427SOL    HW132382   3.856   3.135   2.424 -0.3503  0.5299 -2.0810
10427SOL    HW232383   3.989   3.074   2.464 -1.1504  0.7090  1.1310
10428SOL     OW32384   5.988   5.798   7.381 -0.1711 -0.3760  0.1907
10428SOL    HW132385   6.013   5.721   7.331 -2.7013 -0.2313 -1.4753
10428SOL    HW232386   6.020   5.781   7.470  1.9424 -1.9454 -0.7990
10429SOL     OW32387   7.953   0.526   0.852 -0.3619 -0.1514  0.0237
10429SOL    HW132388   7.874   0.514   0.904 -0.0925 -0.7083  0.3083
10429SOL    HW232389   7.938   0.609   0.805 -0.6160  0.3474  0.9603
10430SOL     OW32390   6.286   3.656   1.009  0.3032  0.2004  0.0058
10430SOL    HW132391   6.314   3.577   1.055  0.0910 -0.3810 -0.8448
10430SOL    HW232392   6.366   3.689   0.967  0.0481 -0.5855 -1.1312
10431SOL     OW32393   5.465   3.103   5.006  0.2634 -0.2263  0.2156
10431SOL    HW132394   5.372   3.121   5.022  0.3844  0.6726 -0.0235
10431SOL    HW232395   5.467   3.056   4.923  0.1638  1.8422 -1.0149
10432SOL     OW32396   6.440   8.092   3.377  0.4814 -0.0014 -0.1613
10432SOL    HW132397   6.464   8.004   3.349 -0.8738 -0.2638 -0.5860
10432SOL    HW232398   6.417   8.138   3.296 -1.6239 -0.1776  0.2824
10433SOL     OW32399   1.078   1.713   8.793  0.5619 -0.0870 -0.0068
10433SOL    HW132400   1.109   1.800   8.815 -0.3786 -0.1201  1.5589
10433SOL    HW232401   1.154   1.669   8.754  1.9713  0.3966  2.0644
10434SOL     OW32402   1.541   4.036   3.865  0.3883  0.7261 -0.1259
10434SOL    HW132403   1.619   3.983   3.883 -0.4704 -0.3097  0.7765
10434SOL    HW232404   1.550   4.112   3.922  1.6165  1.5898 -1.3974
10435SOL     OW32405   2.499   5.119   3.800 -0.6287  0.2515 -1.0246
10435SOL    HW132406   2.559   5.061   3.847  1.5434  2.7217 -0.5144
10435SOL    HW232407   2.540   5.131   3.714 -0.7281  1.4202 -0.9257
10436SOL     OW32408   4.402   0.889   8.571  0.1115 -0.1048  0.2166
10436SOL    HW132409   4.449   0.901   8.654  0.7896 -0.0065 -0.1764
10436SOL    HW232410   4.438   0.808   8.535 -0.3959 -0.3055  0.1569
10437SOL     OW32411   6.743   7.747   1.893 -0.1568 -0.9772  0.4420
10437SOL    HW132412   6.749   7.801   1.972 -0.0231 -0.0401 -0.1902
10437SOL    HW232413   6.834   7.726   1.871 -0.0987 -0.1718 -0.1560
10438SOL     OW32414   0.789   0.271   3.306 -0.3479 -0.2554  0.2998
10438SOL    HW132415   0.813   0.320   3.385  0.8329 -0.4728  0.1016
10438SOL    HW232416   0.824   0.324   3.234 -0.4115 -0.6193 -0.0018
10439SOL     OW32417   8.870   5.934   0.067  0.1329  0.1917  0.6691
10439SOL    HW132418   8.829   5.940   0.153  2.4057  1.1805  1.7549
10439SOL    HW232419   8.900   6.023   0.049  0.3540 -0.1578 -0.8309
10440SOL     OW32420   2.442   8.016   3.836  0.0372  0.2916 -0.6312
10440SOL    HW132421   2.408   7.972   3.914 -0.5538  1.5367 -0.1615
10440SOL    HW232422   2.364   8.042   3.787  0.3960  0.0123 -1.3640
10441SOL     OW32423   4.079   4.316   5.732 -0.2923 -0.3806 -0.6552
10441SOL    HW132424   4.048   4.389   5.679  1.1062  0.2449 -0.6641
10441SOL    HW232425   4.079   4.241   5.673 -0.4165 -0.0752 -1.0455
10442SOL     OW32426   1.810   8.657   1.455  0.6576  0.2118 -0.1198
10442SOL    HW132427   1.825   8.593   1.525 -2.5129  1.9841  2.4657
10442SOL    HW232428   1.849   8.738   1.488  0.2483  0.7782 -1.0022
10443SOL     OW32429   4.236   6.007   8.175  0.0071  0.2020 -0.0141
10443SOL    HW132430   4.185   5.932   8.142  1.2543 -1.0976  0.8586
10443SOL    HW232431   4.318   5.968   8.206  0.3003  1.8120  1.3938
10444SOL     OW32432   0.107   4.612   2.385 -0.1759  0.4104 -0.3979
10444SOL    HW132433   0.091   4.559   2.463  0.7516 -1.1415 -1.2221
10444SOL    HW232434   0.197   4.644   2.396 -0.3210  0.8581 -0.4714
10445SOL     OW32435   1.417   3.031   7.413  0.0527  0.0294  0.1710
10445SOL    HW132436   1.415   3.120   7.447  1.1129  0.3141 -0.4529
10445SOL    HW232437   1.500   2.996   7.445 -0.0623 -0.5172 -0.1192
10446SOL     OW32438   3.717   6.940   6.750 -0.2519  0.1504  0.3703
10446SOL    HW132439   3.777   7.011   6.729 -2.2059  2.0563  0.9623
10446SOL    HW232440   3.681   6.913   6.665  0.7658 -0.4561  0.1060
10447SOL     OW32441   5.128   2.364   7.392 -0.1980 -0.3284 -0.4493
10447SOL    HW132442   5.060   2.404   7.446 -0.4644  0.2578 -1.1976
10447SOL    HW232443   5.211   2.391   7.434 -0.4075 -0.4369  0.0418
10448SOL     OW32444   4.850   2.875   1.115 -0.2533 -0.6370  0.5577
10448SOL    HW132445   4.778   2.904   1.171  0.1654  0.3429  0.6016
10448SOL    HW232446   4.816   2.797   1.071 -1.2415 -0.3396  0.7768
10449SOL     OW32447   3.625   7.515   1.894 -0.1090  0.3302  0.0965
10449SOL    HW132448   3.564   7.455   1.851 -0.3968  0.1035  0.7907
10449SOL    HW232449   3.705   7.462   1.907 -0.7187 -0.2702  1.6506
10450SOL     OW32450   8.687   6.524   3.843  0.5375  0.4411 -0.4840
10450SOL    HW132451   8.635   6.449   3.869 -1.4241  1.6748 -0.5876
10450SOL    HW232452   8.778   6.495   3.849  0.1265 -0.6277  3.7108
10451SOL     OW32453   7.038   8.391   4.904  0.3102 -0.5755  0.2053
10451SOL    HW132454   7.007   8.481   4.910  0.0361 -0.6893  0.5089
10451SOL    HW232455   7.134   8.399   4.904  0.2938 -0.2174 -0.8738
10452SOL     OW32456   0.762   1.909   9.120 -0.5074  0.2166 -0.2457
10452SOL    HW132457   0.669   1.891   9.129 -0.6829  1.2138  0.0795
10452SOL    HW232458   0.806   1.828   9.146 -1.2895 -0.4586 -0.9805
10453SOL     OW32459   3.331   3.635   0.345  0.4855  0.7994 -0.0531
10453SOL    HW132460   3.255   3.584   0.373  0.4792 -0.3787 -2.0148
10453SOL    HW232461   3.396   3.570   0.320  1.1416  1.7619 -0.9644
10454SOL     OW32462   7.800   1.970   8.649  1.4846 -0.1556  0.6193
10454SOL    HW132463   7.743   1.908   8.696 -0.0776  1.8975  1.6284
10454SOL    HW232464   7.750   1.994   8.571  1.3837  0.8923  0.9874
10455SOL     OW32465   1.126   4.474   1.836  0.3714  0.1882 -0.1043
10455SOL    HW132466   1.181   4.498   1.910 -1.7929  0.8365  1.4159
10455SOL    HW232467   1.160   4.525   1.763  1.8382  0.4475  0.7299
10456SOL     OW32468   4.663   4.078   7.888  0.1316  0.1416  0.1916
10456SOL    HW132469   4.671   4.173   7.876  2.3255  0.0769  0.7876
10456SOL    HW232470   4.618   4.068   7.972  0.9076  0.6779  0.6813
10457SOL     OW32471   7.070   2.917   8.011  0.6341 -0.0961  0.2037
10457SOL    HW132472   7.139   2.873   8.059  0.0046 -1.8030 -0.3897
10457SOL    HW232473   7.057   3.000   8.058  2.3103 -0.2204  0.9453
10458SOL     OW32474   8.104   1.718   7.989  0.1056 -0.0129 -0.7471
10458SOL    HW132475   8.099   1.643   8.048  0.5958  0.4748 -0.0646
10458SOL    HW232476   8.027   1.770   8.011  0.7760  0.6380  0.1441
10459SOL     OW32477   0.581   1.503   4.782 -0.0775  0.3449  0.4641
10459SOL    HW132478   0.562   1.595   4.764  2.5233  0.8244 -0.1872
10459SOL    HW232479   0.654   1.504   4.844  0.2360 -1.2584  0.1719
10460SOL     OW32480   6.125   7.685   0.056 -1.1668 -0.1989 -0.2143
10460SOL    HW132481   6.122   7.749  -0.016  0.1336  1.7519  1.3654
10460SOL    HW232482   6.192   7.622   0.029 -1.9854 -0.5569 -1.4964
10461SOL     OW32483   0.528   3.278   2.564 -0.1104 -0.1378  0.1210
10461SOL    HW132484   0.584   3.349   2.534 -0.1571 -0.9370 -1.9719
10461SOL    HW232485   0.443   3.296   2.524  0.1598 -1.9106 -1.3718
10462SOL     OW32486   1.239   2.000   4.511  0.2287 -0.0191  0.7607
10462SOL    HW132487   1.275   2.083   4.482 -0.2542 -0.3381 -0.8195
10462SOL    HW232488   1.245   2.003   4.607  0.8965  1.5045  0.6871
10463SOL     OW32489   2.209   5.000   8.975  0.0310 -0.1376 -0.7765
10463SOL    HW132490   2.174   4.934   8.916  1.3186 -1.8876  0.3339
10463SOL    HW232491   2.201   5.082   8.926 -0.7523 -1.2179 -2.5685
10464SOL     OW32492   2.510   4.584   7.496  0.3575  0.3244  0.2147
10464SOL    HW132493   2.544   4.661   7.542 -1.0983  0.9073  0.3791
10464SOL    HW232494   2.460   4.536   7.562  1.3668 -0.8710  0.1532
10465SOL     OW32495   1.885   8.835   0.741 -0.1873  0.1370  0.1849
10465SOL    HW132496   1.791   8.851   0.745 -0.2302 -0.3117  1.2864
10465SOL    HW232497   1.925   8.920   0.757 -0.3527  0.9038 -2.8877
10466SOL     OW32498   7.994   0.463   6.593 -0.1476  0.6913  0.1508
10466SOL    HW132499   8.012   0.472   6.499  0.1087 -1.1921 -0.0258
10466SOL    HW232500   8.054   0.394   6.622  0.4125  1.8506  1.9166
10467SOL     OW32501   5.723   3.406   0.986 -0.6145  0.4059  0.0930
10467SOL    HW132502   5.754   3.487   1.026  1.6435 -0.0095 -0.6441
10467SOL    HW232503   5.788   3.340   1.012 -0.2219 -0.3094 -2.4165
10468SOL     OW32504   1.988   2.677   3.804 -0.2568  0.0187 -0.0996
10468SOL    HW132505   1.966   2.756   3.755  0.1157  0.1152 -0.1182
10468SOL    HW232506   1.973   2.701   3.896 -0.0471  0.1480 -0.0968
10469SOL     OW32507   1.657   0.719   6.999  0.2401 -0.2659 -0.4240
10469SOL    HW132508   1.747   0.732   7.029 -0.3108 -1.4166  2.0023
10469SOL    HW232509   1.622   0.808   6.988  0.8003  0.2654  1.6032
10470SOL     OW32510   3.271   1.889   0.187 -0.3793  0.3467 -0.0559
10470SOL    HW132511   3.320   1.837   0.123 -1.0693  1.4198 -1.5322
10470SOL    HW232512   3.332   1.902   0.259  1.6132  1.7171 -1.8596
10471SOL     OW32513   4.751   3.635   8.391 -0.1687  0.3384 -0.2310
10471SOL    HW132514   4.686   3.590   8.445  0.9818 -1.7194 -0.4618
10471SOL    HW232515   4.724   3.617   8.301  0.4531 -0.1639 -0.3249
10472SOL     OW32516   6.300   2.850   2.191 -0.3038 -0.1303  0.0102
10472SOL    HW132517   6.225   2.812   2.146 -0.2938 -0.3587  0.1836
10472SOL    HW232518   6.333   2.916   2.131  1.5903 -2.4763 -1.7326
10473SOL     OW32519   5.405   1.440   7.640 -0.3050  0.0290  0.5888
10473SOL    HW132520   5.383   1.472   7.727 -2.7173  0.1543 -0.0095
10473SOL    HW232521   5.342   1.370   7.623 -0.7097  0.8362 -1.5275
10474SOL     OW32522   2.210   6.275   6.196  0.0209  0.4397  0.1791
10474SOL    HW132523   2.202   6.278   6.101 -1.2195 -0.2676  0.2432
10474SOL    HW232524   2.193   6.184   6.218  0.0324  0.6554  1.1102
10475SOL     OW32525   6.196   8.686   8.783  0.1044  0.3280  0.4433
10475SOL    HW132526   6.195   8.616   8.718  3.0372  1.4982 -1.0294
10475SOL    HW232527   6.262   8.659   8.846 -0.9660  0.3698  1.6184
10476SOL     OW32528   0.179   7.639   4.117 -0.4395  0.1880  0.4262
10476SOL    HW132529   0.224   7.710   4.164 -0.1240 -0.2218  0.7561
10476SOL    HW232530   0.148   7.680   4.036 -0.5855  0.7938  0.7753
10477SOL     OW32531   3.465   2.496   8.317  0.0162 -0.4652  0.2390
10477SOL    HW132532   3.398   2.430   8.335 -0.3984 -0.1200 -0.0202
10477SOL    HW232533   3.532   2.450   8.267  0.8473 -1.2685  1.9988
10478SOL     OW32534   3.069   6.457   4.394  0.2367 -0.5297  0.4025
10478SOL    HW132535   3.082   6.552   4.387 -1.8830  0.2051  3.7503
10478SOL    HW232536   3.150   6.425   4.433  0.6939  0.0409 -0.0632
10479SOL     OW32537   4.289   1.852   4.087 -0.3591  0.2043  0.6595
10479SOL    HW132538   4.372   1.884   4.122 -0.3392  0.9945 -0.0893
10479SOL    HW232539   4.285   1.760   4.114  1.2378 -0.1408 -0.1709
10480SOL     OW32540   5.690   5.602   1.244  0.0025 -0.1886 -0.0371
10480SOL    HW132541   5.639   5.672   1.286 -0.5260  1.5201 -3.2531
10480SOL    HW232542   5.774   5.643   1.225  1.1911 -1.7417  1.5074
10481SOL     OW32543   8.172   4.739   5.155 -0.0770 -0.0325 -0.3231
10481SOL    HW132544   8.191   4.646   5.140 -0.9253 -0.6806  2.1130
10481SOL    HW232545   8.255   4.776   5.185 -0.5091 -0.9286  2.2385
10482SOL     OW32546   1.156   3.331   6.235  0.4081  0.3789  0.3402
10482SOL    HW132547   1.206   3.264   6.284 -0.5510  0.5986  1.6708
10482SOL    HW232548   1.161   3.302   6.144 -0.4388 -1.8457  0.9360
10483SOL     OW32549   6.071   6.526   7.359  0.0381  0.2631  0.5235
10483SOL    HW132550   6.097   6.594   7.297  0.1814 -0.7217 -0.5343
10483SOL    HW232551   6.056   6.573   7.441 -1.7901  1.8562 -0.6452
10484SOL     OW32552   1.385   6.513   0.197 -0.0980  0.3195 -0.3653
10484SOL    HW132553   1.430   6.560   0.267 -1.9077  1.1649  0.3136
10484SOL    HW232554   1.358   6.431   0.237 -2.3866  1.3912  0.4853
10485SOL     OW32555   6.321   4.695   8.585 -0.4414 -0.3127 -0.4131
10485SOL    HW132556   6.240   4.644   8.592 -0.5086 -0.1470  0.0462
10485SOL    HW232557   6.386   4.632   8.556 -0.3333 -0.8711  0.9672
10486SOL     OW32558   2.486   4.252   4.496  0.2471  0.0390  0.4916
10486SOL    HW132559   2.431   4.182   4.462  2.7834 -1.7872 -0.1507
10486SOL    HW232560   2.522   4.218   4.578 -0.4204  1.6393  1.5038
10487SOL     OW32561   4.745   0.623   3.123 -0.0873  0.1022 -0.6013
10487SOL    HW132562   4.672   0.669   3.082 -0.1805  0.7898  0.3119
10487SOL    HW232563   4.747   0.537   3.080 -2.2509 -0.4277  0.2574
10488SOL     OW32564   6.584   5.468   1.505  0.0356  0.4946 -0.0962
10488SOL    HW132565   6.675   5.480   1.533 -0.4661  0.7061  1.5335
10488SOL    HW232566   6.589   5.463   1.410  1.8310 -0.1651 -0.0074
10489SOL     OW32567   8.992   6.888   0.329  0.6261 -0.4399 -0.1622
10489SOL    HW132568   8.941   6.914   0.252 -0.5244  0.4132  0.8628
10489SOL    HW232569   9.078   6.927   0.315 -0.1521  1.3660 -0.1185
10490SOL     OW32570   6.667   3.713   4.006  0.5632 -0.2360  0.2844
10490SOL    HW132571   6.723   3.658   4.061 -0.9932 -0.8551  1.3060
10490SOL    HW232572   6.606   3.755   4.067  0.9787  1.8040 -0.5955
10491SOL     OW32573   3.473   8.288   3.462 -0.1019  0.0112  0.1054
10491SOL    HW132574   3.383   8.305   3.489 -0.3363 -1.2337  0.1942
10491SOL    HW232575   3.522   8.365   3.491 -0.6834 -0.3917  2.3527
10492SOL     OW32576   1.840   7.552   8.313 -0.2351 -0.3282 -0.1073
10492SOL    HW132577   1.776   7.570   8.245  0.3946 -0.4337 -0.7385
10492SOL    HW232578   1.915   7.608   8.292 -0.5135  0.6049  1.2286
10493SOL     OW32579   1.662   3.244   4.192 -0.2411 -0.5553  0.1830
10493SOL    HW132580   1.583   3.203   4.230 -0.8085  1.3144  1.1725
10493SOL    HW232581   1.672   3.325   4.242  1.3954  0.0261 -1.0265
10494SOL     OW32582   1.354   6.002   5.567  0.5857 -0.0325  0.3076
10494SOL    HW132583   1.281   6.056   5.596 -1.6809 -1.9316 -1.4369
10494SOL    HW232584   1.391   6.049   5.492 -0.0745  0.0593  0.0341
10495SOL     OW32585   1.150   6.970   4.469 -0.2241 -0.7320 -0.3045
10495SOL    HW132586   1.068   6.962   4.517 -1.4442  0.3480 -2.0964
10495SOL    HW232587   1.124   6.995   4.380  2.0835  0.4029 -0.7364
10496SOL     OW32588   6.074   1.716   5.593 -0.6499 -0.3862 -0.6796
10496SOL    HW132589   6.059   1.666   5.512 -0.1407  0.2148 -1.1540
10496SOL    HW232590   6.158   1.760   5.579 -0.3073 -0.6717  0.3886
10497SOL     OW32591   8.422   8.719   5.489 -0.5043 -0.0139  0.0302
10497SOL    HW132592   8.328   8.718   5.507 -0.2318 -0.3575  1.5802
10497SOL    HW232593   8.453   8.632   5.515  0.2959  0.2201 -0.1076
10498SOL     OW32594   5.845   4.575   2.730  0.5910 -0.1297 -0.1334
10498SOL    HW132595   5.791   4.513   2.680 -0.8329  0.2707  0.8417
10498SOL    HW232596   5.835   4.548   2.821  0.9143  0.8201  0.1962
10499SOL     OW32597   1.574   6.541   1.316  0.6317 -0.1986  0.1861
10499SOL    HW132598   1.605   6.462   1.272  0.7800  0.2059 -0.4397
10499SOL    HW232599   1.645   6.563   1.377  0.9559 -0.0803 -0.2301
10500SOL     OW32600   6.914   2.455   4.378 -0.0004 -0.1078  0.0347
10500SOL    HW132601   6.868   2.437   4.459 -0.7433  2.1200  0.1681
10500SOL    HW232602   6.996   2.406   4.385 -1.2884 -2.2862  0.7946
10501SOL     OW32603   3.428   8.093   4.741 -0.0505  0.5611 -0.2199
10501SOL    HW132604   3.464   8.180   4.760 -0.6899  0.8117 -0.1375
10501SOL    HW232605   3.367   8.108   4.669 -0.9859  0.3783  0.5136
10502SOL     OW32606   5.587   6.030   5.963 -0.0821  0.3817 -0.2099
10502SOL    HW132607   5.601   6.005   5.871 -1.0396 -1.6293  0.1399
10502SOL    HW232608   5.644   6.106   5.975  1.7280 -0.5873 -1.8897
10503SOL     OW32609   5.026   7.254   1.913  0.0985  0.0117 -0.4082
10503SOL    HW132610   5.116   7.251   1.880  1.2379 -1.2494  2.4491
10503SOL    HW232611   5.036   7.259   2.008 -2.8182 -3.0461  0.2386
10504SOL     OW32612   7.794   3.250   3.128  0.7071  0.1902 -0.2118
10504SOL    HW132613   7.878   3.290   3.151  1.4599 -2.0801  1.3793
10504SOL    HW232614   7.738   3.264   3.204  0.3370 -0.0373 -0.4383
10505SOL     OW32615   2.268   8.683   8.460 -0.3031  0.4299 -0.4222
10505SOL    HW132616   2.262   8.722   8.373 -0.1722 -0.7102 -0.9512
10505SOL    HW232617   2.197   8.724   8.509 -0.4491  1.0030 -1.0918
10506SOL     OW32618   6.574   8.696   5.046  0.3296  0.0745 -0.0073
10506SOL    HW132619   6.628   8.775   5.043 -0.2184  0.5475  1.4202
10506SOL    HW232620   6.573   8.672   5.139 -0.5560 -0.8713 -0.2474
10507SOL     OW32621   0.212   0.443   8.081  0.9614 -0.0231 -0.4507
10507SOL    HW132622   0.238   0.454   7.990  1.0966  1.2241 -0.2718
10507SOL    HW232623   0.248   0.358   8.106  1.5455 -0.0472 -1.3412
10508SOL     OW32624   6.444   7.079   0.766  0.3114  0.1593 -0.2308
10508SOL    HW132625   6.486   6.993   0.762  0.5794  0.1890  1.4558
10508SOL    HW232626   6.517   7.141   0.766  0.2711  0.2534  1.5465
10509SOL     OW32627   0.897   6.202   0.841 -0.2696 -0.1048 -0.2211
10509SOL    HW132628   0.863   6.174   0.926  0.3672  0.5580  0.2645
10509SOL    HW232629   0.911   6.296   0.850 -2.3722  0.4257 -1.8294
10510SOL     OW32630   4.879   4.712   1.786  0.5111 -0.0162  0.2301
10510SOL    HW132631   4.851   4.710   1.877  2.7969  0.5472  0.9840
10510SOL    HW232632   4.934   4.634   1.776  1.9925  1.0421 -0.0686
10511SOL     OW32633   6.856   3.953   0.088  0.5002 -0.4845  0.6728
10511SOL    HW132634   6.852   4.036   0.039  1.7461 -0.8104 -0.0262
10511SOL    HW232635   6.891   3.978   0.174 -1.7166  0.0926  1.4636
10512SOL     OW32636   1.664   2.406   2.966  0.5638  0.0555 -0.1179
10512SOL    HW132637   1.657   2.316   2.997 -0.3761 -0.3129 -1.3053
10512SOL    HW232638   1.715   2.451   3.034  0.6079 -1.2371  0.7473
10513SOL     OW32639   6.831   6.731   3.943 -0.3812 -0.3406 -0.1642
10513SOL    HW132640   6.851   6.807   3.888  1.0815  1.4609  2.6480
10513SOL    HW232641   6.745   6.751   3.980 -0.3991 -0.5086 -0.1140
10514SOL     OW32642   3.822   3.224   8.651  0.4544  0.6428  0.5587
10514SOL    HW132643   3.851   3.201   8.739 -0.4935  0.1900  0.7703
10514SOL    HW232644   3.840   3.146   8.598  0.8167  0.8320  0.4037
10515SOL     OW32645   3.148   3.076   1.858  0.4003 -0.2838 -0.1582
10515SOL    HW132646   3.203   3.005   1.823  1.1906  0.2253  0.0111
10515SOL    HW232647   3.206   3.152   1.860 -0.4110  0.3515 -0.2505
10516SOL     OW32648   1.975   8.183   2.599  0.1870  0.3863 -0.8151
10516SOL    HW132649   1.902   8.127   2.624  0.7659 -0.0238  0.0299
10516SOL    HW232650   1.935   8.260   2.560 -0.6360 -0.6626 -2.1495
10517SOL     OW32651   9.000   8.299   6.427  0.0378  0.2528  1.0809
10517SOL    HW132652   9.012   8.217   6.378 -3.1462  1.2772 -1.8142
10517SOL    HW232653   8.988   8.272   6.518 -2.2669 -2.7107  0.0371
10518SOL     OW32654   7.379   1.359   7.739  0.1984  0.5560 -0.3268
10518SOL    HW132655   7.449   1.315   7.786 -1.6486 -0.7271  1.3347
10518SOL    HW232656   7.345   1.423   7.801 -2.8253 -1.7287  0.6022
10519SOL     OW32657   7.950   8.691   0.565 -0.6974 -0.0847  0.1839
10519SOL    HW132658   7.896   8.761   0.529 -1.1570 -1.2814 -1.6119
10519SOL    HW232659   8.032   8.733   0.589 -1.5936  1.3673  0.8660
10520SOL     OW32660   2.969   7.167   7.756 -0.3481 -0.5321 -0.2478
10520SOL    HW132661   2.916   7.097   7.794 -0.6989 -1.1695 -1.8091
10520SOL    HW232662   3.049   7.123   7.727 -0.6091 -0.3295 -1.3286
10521SOL     OW32663   3.770   3.912   7.574 -0.0976 -0.0310  0.3065
10521SOL    HW132664   3.720   3.832   7.553  1.7041 -1.1033 -0.0663
10521SOL    HW232665   3.703   3.973   7.605 -1.4896 -1.8216  1.0607
10522SOL     OW32666   0.313   5.167   3.157  0.2580 -0.1176 -0.6756
10522SOL    HW132667   0.283   5.077   3.140  1.9209 -1.4550  2.6731
10522SOL    HW232668   0.233   5.219   3.155 -1.3176 -2.3030  0.8152
10523SOL     OW32669   0.372   1.610   9.032 -0.0203  0.0327  0.2463
10523SOL    HW132670   0.401   1.676   8.969 -0.3822 -1.5078 -1.6085
10523SOL    HW232671   0.433   1.537   9.021 -0.4221 -0.4924  1.3149
10524SOL     OW32672   2.073   7.998   1.865  0.7361  0.1750 -0.3619
10524SOL    HW132673   2.073   7.998   1.961  2.2854 -1.1035 -0.3428
10524SOL    HW232674   2.074   7.906   1.841  2.6130  0.4742 -1.5785
10525SOL     OW32675   7.830   6.609   6.672  0.5221 -0.0704 -0.4701
10525SOL    HW132676   7.794   6.695   6.650 -2.2569 -0.6040  1.4881
10525SOL    HW232677   7.757   6.549   6.659  1.3734 -1.6222  1.5301
10526SOL     OW32678   1.967   1.675   2.215 -0.2152 -0.1899  0.4541
10526SOL    HW132679   1.928   1.592   2.243  0.2645 -1.2472 -1.7979
10526SOL    HW232680   1.913   1.703   2.141  0.5644  0.7151  0.2077
10527SOL     OW32681   3.787   6.874   0.436  0.0528  0.5672  0.3762
10527SOL    HW132682   3.708   6.890   0.488  0.3313 -1.0508  1.3591
10527SOL    HW232683   3.758   6.816   0.366  0.0396  1.3585 -0.2932
10528SOL     OW32684   6.940   3.101   4.176  0.2966 -0.1389 -0.1557
10528SOL    HW132685   6.947   3.191   4.146 -1.8019 -0.0536 -0.4983
10528SOL    HW232686   6.924   3.050   4.097 -0.2492 -0.5793  0.2264
10529SOL     OW32687   4.987   2.809   4.758  0.0511  0.2581  0.5871
10529SOL    HW132688   4.979   2.714   4.764  1.3294  0.0848 -0.0480
10529SOL    HW232689   5.072   2.828   4.797  1.1427  0.7858 -1.8571
10530SOL     OW32690   2.507   4.535   1.330 -0.5756 -0.1225  1.0730
10530SOL    HW132691   2.519   4.630   1.333  0.1691  0.1181 -3.2421
10530SOL    HW232692   2.513   4.508   1.422  2.6127  3.5653  2.2670
10531SOL     OW32693   3.166   7.510   8.391 -0.2449  0.1510 -0.8875
10531SOL    HW132694   3.236   7.575   8.384  0.9028 -1.0397 -0.7395
10531SOL    HW232695   3.088   7.555   8.356  0.1644  2.0775  0.5300
10532SOL     OW32696   1.576   2.898   7.072 -0.1232  0.4193  0.0664
10532SOL    HW132697   1.660   2.858   7.050 -0.2284  0.3456 -0.2136
10532SOL    HW232698   1.537   2.838   7.136  0.0161  0.4279  0.1580
10533SOL     OW32699   6.794   6.237   8.530  0.2737  0.1040 -0.1214
10533SOL    HW132700   6.754   6.232   8.617  0.7201 -1.2172  0.0273
10533SOL    HW232701   6.726   6.275   8.475 -0.0149  0.9609  0.7965
10534SOL     OW32702   5.574   7.954   8.725 -0.4569 -0.3847  0.0582
10534SOL    HW132703   5.500   7.909   8.766 -1.3527  0.4584 -0.6042
10534SOL    HW232704   5.545   8.044   8.715  0.2585 -0.2734 -1.1883
10535SOL     OW32705   7.387   6.674   5.260  0.0664  0.4962 -0.4651
10535SOL    HW132706   7.408   6.726   5.183 -0.6010  1.6478  0.1133
10535SOL    HW232707   7.454   6.698   5.325 -0.9127  1.5579  0.1971
10536SOL     OW32708   1.454   3.933   5.356  0.0057 -0.4266 -0.2536
10536SOL    HW132709   1.531   3.890   5.318  0.5500  0.4474 -0.1503
10536SOL    HW232710   1.435   3.883   5.436  1.6271  0.4834  0.7450
10537SOL     OW32711   7.028   0.189   5.361 -0.4181  0.5215  0.1642
10537SOL    HW132712   6.945   0.143   5.348 -0.2944  0.9229 -2.6136
10537SOL    HW232713   7.013   0.276   5.323  0.9199  0.9970  0.6638
10538SOL     OW32714   2.506   2.434   7.372 -0.3403 -0.5805 -0.5399
10538SOL    HW132715   2.549   2.350   7.386  1.2876  0.3037  0.0576
10538SOL    HW232716   2.488   2.467   7.460  4.0440  2.0729 -0.3234
10539SOL     OW32717   2.909   1.514   1.741 -0.3458  0.0935  0.2962
10539SOL    HW132718   2.909   1.586   1.803 -2.6610  0.1431  0.3199
10539SOL    HW232719   2.823   1.519   1.698  0.1109 -1.5987 -0.9200
10540SOL     OW32720   7.596   3.233   2.589  0.1075  0.3676 -0.2835
10540SOL    HW132721   7.596   3.198   2.500  0.9151  1.1945 -0.6207
10540SOL    HW232722   7.588   3.156   2.645 -0.8426 -0.1264 -1.0710
10541SOL     OW32723   2.495   7.738   7.729 -0.0334  0.0390  0.4713
10541SOL    HW132724   2.459   7.753   7.816  2.2363  1.5311  1.2478
10541SOL    HW232725   2.577   7.691   7.746  0.3435  0.1765 -0.8960
10542SOL     OW32726   7.296   5.583   5.065 -0.0086  0.2075 -0.2599
10542SOL    HW132727   7.385   5.559   5.040  0.6461  2.0605  0.1822
10542SOL    HW232728   7.248   5.500   5.063  2.1887 -1.2152  1.4714
10543SOL     OW32729   6.628   0.427   6.037 -0.0509  0.3054  0.5331
10543SOL    HW132730   6.552   0.446   5.982  0.8594  0.4267 -0.7373
10543SOL    HW232731   6.659   0.513   6.065  0.4968  0.3583 -0.2071
10544SOL     OW32732   4.786   0.388   7.978 -0.5303 -0.2439 -0.5149
10544SOL    HW132733   4.808   0.338   8.057 -0.8805  0.2375 -0.1033
10544SOL    HW232734   4.848   0.356   7.912 -0.6365 -1.0989 -0.2229
10545SOL     OW32735   2.517   3.573   3.400 -0.4284 -0.5514 -0.6422
10545SOL    HW132736   2.483   3.496   3.354 -0.4415 -0.2233 -1.1890
10545SOL    HW232737   2.609   3.554   3.415 -0.3066 -0.4502 -1.2503
10546SOL     OW32738   2.543   5.149   4.491 -0.2441  0.0178  0.1963
10546SOL    HW132739   2.615   5.211   4.476  1.2354 -1.1007  2.1401
10546SOL    HW232740   2.515   5.122   4.403  0.1342  2.2065 -0.6516
10547SOL     OW32741   7.320   5.438   5.674  0.1184  0.2245  0.7559
10547SOL    HW132742   7.291   5.474   5.590 -0.8693 -0.0722  0.9504
10547SOL    HW232743   7.376   5.364   5.650  2.7373  2.1891  0.3415
10548SOL     OW32744   1.599   7.410   7.985  0.4470 -0.0883  0.0308
10548SOL    HW132745   1.640   7.345   7.929 -0.8762 -0.3299 -0.7199
10548SOL    HW232746   1.558   7.360   8.055 -1.9725 -0.3253 -1.4243
10549SOL     OW32747   0.024   6.548   8.127 -0.2175  0.6008 -0.7667
10549SOL    HW132748   0.002   6.599   8.205  1.0640  1.2523 -0.8019
10549SOL    HW232749   0.110   6.510   8.147 -0.9885 -1.2805 -0.8846
10550SOL     OW32750   5.029   3.474   6.199  0.7930 -0.9557  0.0875
10550SOL    HW132751   5.089   3.403   6.222 -1.3942 -2.3574  1.8743
10550SOL    HW232752   4.998   3.507   6.283  1.7111  2.2145 -0.6878
10551SOL     OW32753   5.993   4.646   3.704 -0.3112  0.3463 -0.0535
10551SOL    HW132754   5.990   4.562   3.749 -0.7368 -0.1611 -0.9898
10551SOL    HW232755   6.037   4.705   3.765  0.9414 -0.8108  0.2015
10552SOL     OW32756   3.116   3.102   3.199  0.1684  0.0186  0.0593
10552SOL    HW132757   3.131   3.170   3.133 -1.0706  0.3275  0.0749
10552SOL    HW232758   3.191   3.107   3.257  0.8099  0.3776 -0.7904
10553SOL     OW32759   1.758   5.177   7.591  0.6586 -0.2395  0.0807
10553SOL    HW132760   1.824   5.169   7.522 -0.6418 -2.4357 -1.0564
10553SOL    HW232761   1.701   5.101   7.578 -1.8420  1.2885  1.2617
10554SOL     OW32762   5.707   4.598   7.380 -0.2464  0.3539 -0.3680
10554SOL    HW132763   5.711   4.621   7.287 -3.1174 -0.9259 -0.9349
10554SOL    HW232764   5.701   4.502   7.380  0.4707  0.2895  1.2004
10555SOL     OW32765   2.383   9.015   9.034  0.8826  0.5831  0.3442
10555SOL    HW132766   2.384   9.110   9.033 -2.1607  0.7353 -0.2341
10555SOL    HW232767   2.380   8.991   9.127 -1.2239  1.2873  0.5267
10556SOL     OW32768   0.485   0.434   4.939  0.4047  0.2240 -0.6023
10556SOL    HW132769   0.554   0.489   4.902 -0.7357  1.1735 -1.4096
10556SOL    HW232770   0.481   0.359   4.880  0.9780 -0.0214 -0.3407
10557SOL     OW32771   3.228   0.650   4.298 -0.2503  0.1960  0.3567
10557SOL    HW132772   3.310   0.692   4.273  1.0337 -0.7832  2.6398
10557SOL    HW232773   3.177   0.646   4.217  2.0742  0.5330 -1.2057
10558SOL     OW32774   8.427   0.120   6.503 -0.2991  0.6955  0.2179
10558SOL    HW132775   8.431   0.202   6.551 -0.1819 -0.7489  2.9203
10558SOL    HW232776   8.440   0.053   6.570 -0.9157 -1.5584 -1.7685
10559SOL     OW32777   5.089   7.797   8.176  0.1332  0.4975  0.9783
10559SOL    HW132778   4.997   7.814   8.198  0.2837  0.3457  1.7386
10559SOL    HW232779   5.117   7.878   8.133 -0.9416 -0.2320 -1.2383
10560SOL     OW32780   2.077   5.450   1.908  0.2681 -0.0692  0.1340
10560SOL    HW132781   2.161   5.428   1.948 -0.6140  0.3742  2.4393
10560SOL    HW232782   2.082   5.416   1.819  2.6561 -0.5422  0.3932
10561SOL     OW32783   0.658   0.567   4.111 -0.4353 -0.7614  0.3566
10561SOL    HW132784   0.646   0.472   4.103 -0.7581 -0.5819 -2.1878
10561SOL    HW232785   0.597   0.604   4.046 -2.1151  1.3592  2.9291
10562SOL     OW32786   0.692   3.644   3.113 -0.0014  0.2507 -0.1330
10562SOL    HW132787   0.607   3.648   3.158 -0.1656  1.0453 -0.4948
10562SOL    HW232788   0.756   3.655   3.182 -0.2317  0.6974  0.0159
10563SOL     OW32789   1.446   1.990   8.986  0.2170 -0.4425  0.5131
10563SOL    HW132790   1.414   2.076   9.014  2.7759  0.8558 -0.2794
10563SOL    HW232791   1.539   2.003   8.971  0.2380 -2.7514 -2.0094
10564SOL     OW32792   1.409   5.940   4.018 -0.1508  0.6128  0.2192
10564SOL    HW132793   1.493   5.982   4.033 -0.3832  1.4645 -0.6935
10564SOL    HW232794   1.376   5.982   3.938 -1.0469 -0.3162  0.0842
10565SOL     OW32795   2.677   3.168   7.401  0.0749 -0.1876  0.5396
10565SOL    HW132796   2.646   3.162   7.311 -2.3130  0.3532  1.2377
10565SOL    HW232797   2.597   3.179   7.453  1.3606 -0.5663  2.7393
10566SOL     OW32798   4.056   3.403   1.690  0.1952 -0.3706  0.2626
10566SOL    HW132799   4.054   3.308   1.688  0.9215 -0.3997  0.5736
10566SOL    HW232800   4.149   3.426   1.679  0.0418  0.2951  0.2806
10567SOL     OW32801   6.681   5.854   2.864 -0.4367 -0.4518 -0.0691
10567SOL    HW132802   6.651   5.768   2.836 -0.4641 -0.7209  0.7800
10567SOL    HW232803   6.616   5.882   2.929  1.1417 -1.0558  1.8324
10568SOL     OW32804   4.360   8.983   2.430  0.1241  0.4351 -0.1046
10568SOL    HW132805   4.344   8.941   2.514  0.0789  0.2882 -0.1864
10568SOL    HW232806   4.279   8.969   2.380  0.1286  0.5719 -0.1509
10569SOL     OW32807   5.262   8.706   5.727 -0.2386  0.1210  0.0223
10569SOL    HW132808   5.305   8.705   5.642  0.1745 -0.8091  0.2251
10569SOL    HW232809   5.169   8.696   5.707 -0.2886  1.1991 -0.3703
10570SOL     OW32810   2.208   5.806   7.756 -0.2721 -0.0771 -0.9200
10570SOL    HW132811   2.259   5.849   7.687 -0.9144  0.3646 -1.1265
10570SOL    HW232812   2.214   5.712   7.735  0.0055  0.0158 -1.2547
10571SOL     OW32813   8.375   6.359   1.546  0.1180 -0.5517  0.8331
10571SOL    HW132814   8.321   6.282   1.560  1.5355 -1.4738  1.5066
10571SOL    HW232815   8.447   6.349   1.608  1.1224  0.5601 -0.1037
10572SOL     OW32816   7.596   8.292   3.401 -0.0407  0.1751  0.5127
10572SOL    HW132817   7.559   8.212   3.438  0.3944 -0.1721  0.2139
10572SOL    HW232818   7.690   8.285   3.419  0.4322 -0.7288 -1.9120
10573SOL     OW32819   8.525   7.324   1.608 -0.0805 -0.7148 -0.1572
10573SOL    HW132820   8.572   7.407   1.601 -1.4326  0.2219  1.2845
10573SOL    HW232821   8.484   7.312   1.523 -0.2057  0.3071 -0.2527
10574SOL     OW32822   4.467   6.380   6.213  0.1738  0.0452 -0.3112
10574SOL    HW132823   4.507   6.426   6.140 -1.9047  0.3786 -1.3274
10574SOL    HW232824   4.393   6.332   6.175  0.0331 -1.1502  1.3120
10575SOL     OW32825   5.640   4.967   0.454  0.6204  0.0822 -0.2610
10575SOL    HW132826   5.648   5.039   0.392 -0.7347 -0.3622 -0.9886
10575SOL    HW232827   5.588   5.002   0.526  1.3850  0.3151  0.1860
10576SOL     OW32828   7.704   6.847   4.742 -0.2272  0.2983  0.3054
10576SOL    HW132829   7.767   6.825   4.811 -0.5992  0.2183  0.6165
10576SOL    HW232830   7.744   6.811   4.662 -0.5439 -1.0083  0.7148
10577SOL     OW32831   5.127   7.224   6.868  0.8409 -0.2768 -0.0746
10577SOL    HW132832   5.160   7.199   6.781  1.0241 -1.2223  0.2483
10577SOL    HW232833   5.169   7.162   6.928  1.4669  0.9652  0.8205
10578SOL     OW32834   1.225   6.352   4.898  0.8330  0.0111  0.5901
10578SOL    HW132835   1.305   6.400   4.921  0.6754  0.0233  1.1086
10578SOL    HW232836   1.155   6.417   4.906  1.0270  0.7685 -2.4201
10579SOL     OW32837   6.036   3.269   7.972  0.3294 -0.2112 -0.1364
10579SOL    HW132838   6.088   3.348   7.956  0.5730  0.1627  2.1865
10579SOL    HW232839   5.946   3.300   7.978  0.5997  0.3380  2.7785
10580SOL     OW32840   8.228   6.008   4.269  0.2853  0.6580 -0.1652
10580SOL    HW132841   8.147   5.956   4.275  0.3316  0.7670  1.9374
10580SOL    HW232842   8.206   6.079   4.208 -1.3529  0.9021  0.6541
10581SOL     OW32843   0.090   7.850   8.336  0.3715  0.3791  0.1730
10581SOL    HW132844   0.117   7.796   8.262  0.2098  0.2136  0.2333
10581SOL    HW232845   0.171   7.867   8.384  1.0121  2.9251 -1.5918
10582SOL     OW32846   4.886   4.522   4.082  0.4085  0.3805 -0.1256
10582SOL    HW132847   4.845   4.499   4.165  0.8695  0.3268  0.0933
10582SOL    HW232848   4.979   4.535   4.104  0.6189 -0.0736 -0.7098
10583SOL     OW32849   5.648   1.546   0.680  0.2316  0.4119 -0.0274
10583SOL    HW132850   5.579   1.606   0.655 -0.5682 -0.0805  0.9524
10583SOL    HW232851   5.719   1.602   0.712  0.2337  0.9049 -0.8600
10584SOL     OW32852   0.966   5.648   2.035  0.2557 -0.3319  0.4947
10584SOL    HW132853   1.024   5.659   2.110 -0.0364  2.0355  0.4693
10584SOL    HW232854   0.989   5.720   1.976 -0.1285 -1.6023 -1.3003
10585SOL     OW32855   5.442   7.655   5.424  0.7483 -0.0999 -0.3503
10585SOL    HW132856   5.500   7.585   5.454 -0.8538 -1.1632  0.4089
10585SOL    HW232857   5.481   7.685   5.342  2.2796 -0.8555  0.0653
10586SOL     OW32858   8.771   3.551   0.388  0.2664  1.0992  0.0383
10586SOL    HW132859   8.825   3.529   0.464  0.7578 -1.4527 -0.9601
10586SOL    HW232860   8.696   3.598   0.425 -0.4756 -1.6929  2.3878
10587SOL     OW32861   6.834   5.778   1.244 -0.3356  0.0578  0.3668
10587SOL    HW132862   6.878   5.847   1.195 -0.9681  0.3783  0.2310
10587SOL    HW232863   6.798   5.822   1.321  1.0761 -0.5395  1.4034
10588SOL     OW32864   1.746   3.442   8.314  0.1198 -0.1103  0.0225
10588SOL    HW132865   1.794   3.365   8.284 -0.2373 -0.5804  0.6408
10588SOL    HW232866   1.655   3.424   8.291  0.2483  0.8756 -1.3447
10589SOL     OW32867   3.452   4.785   5.709  0.3500 -0.0089  0.0542
10589SOL    HW132868   3.522   4.833   5.754  0.1359  0.4139 -0.0621
10589SOL    HW232869   3.381   4.783   5.773 -0.1841  1.1400 -0.4817
10590SOL     OW32870   6.589   0.035   3.514 -0.9149  0.4796  0.1385
10590SOL    HW132871   6.538  -0.037   3.476  0.0024 -0.4054  0.5203
10590SOL    HW232872   6.536   0.065   3.588 -1.8962  1.0554 -0.7837
10591SOL     OW32873   0.003   5.627   0.826  0.1485  0.0011 -0.2854
10591SOL    HW132874  -0.076   5.672   0.855 -0.9598  0.1347 -3.1390
10591SOL    HW232875  -0.027   5.572   0.754  2.6275 -0.0444 -1.3700
10592SOL     OW32876   8.271   4.561   3.454  0.4926  0.7782 -0.4366
10592SOL    HW132877   8.355   4.555   3.499  0.3572 -0.4064 -0.3306
10592SOL    HW232878   8.287   4.624   3.383  1.2428  1.1614  0.0642
10593SOL     OW32879   1.500   8.340   6.641  0.3137  0.0265  0.2327
10593SOL    HW132880   1.588   8.377   6.644  1.5013 -2.5782  1.7255
10593SOL    HW232881   1.502   8.283   6.564 -0.6301  1.0886 -0.6041
10594SOL     OW32882   0.993   3.076   1.968  0.2128  0.8797  0.4313
10594SOL    HW132883   0.983   3.153   2.025  1.4616  2.1367 -0.9507
10594SOL    HW232884   0.906   3.065   1.928 -0.1840  1.0846  1.2010
10595SOL     OW32885   7.856   0.556   4.314 -0.4469 -0.3026 -0.5547
10595SOL    HW132886   7.779   0.599   4.349 -0.0905  1.8844 -2.2522
10595SOL    HW232887   7.859   0.582   4.222  2.6997  0.3540 -0.3942
10596SOL     OW32888   4.352   2.369   8.394  0.4993  0.5628  0.5325
10596SOL    HW132889   4.291   2.303   8.427 -0.1229 -1.0646 -3.3288
10596SOL    HW232890   4.437   2.343   8.430 -0.3598  0.3500  2.5701
10597SOL     OW32891   6.927   6.205   5.318  0.6781  0.5353 -0.0636
10597SOL    HW132892   6.920   6.194   5.413  0.1285 -2.6209 -0.3488
10597SOL    HW232893   6.979   6.284   5.307 -0.6497  1.9733  2.8122
10598SOL     OW32894   3.396   1.765   4.252 -0.3055 -0.3610  0.0596
10598SOL    HW132895   3.313   1.766   4.205  0.3276 -1.9409 -1.1950
10598SOL    HW232896   3.378   1.714   4.331 -0.5830 -0.4759 -0.0774
10599SOL     OW32897   7.251   5.393   4.136 -0.5113 -0.0329  0.2949
10599SOL    HW132898   7.269   5.465   4.197 -0.5984 -0.6225  1.0396
10599SOL    HW232899   7.308   5.322   4.167 -1.3002 -0.6673  0.3094
10600SOL     OW32900   4.907   3.351   0.394 -0.1891  0.4510  0.4616
10600SOL    HW132901   4.943   3.266   0.368  0.4771  1.3453 -1.6985
10600SOL    HW232902   4.976   3.414   0.372 -0.8137  1.6208  1.6978
10601SOL     OW32903   2.781   5.889   7.221 -0.3672  0.0722  0.5667
10601SOL    HW132904   2.805   5.974   7.256 -1.9269  0.7828 -0.0265
10601SOL    HW232905   2.697   5.868   7.262 -0.1977 -1.0038  0.4024
10602SOL     OW32906   1.679   2.700   0.432 -0.1193  0.3441  0.1013
10602SOL    HW132907   1.585   2.711   0.417  0.2068  0.7455 -1.8129
10602SOL    HW232908   1.684   2.653   0.516 -2.0385 -0.1898 -0.0405
10603SOL     OW32909   4.483   3.817   5.814  0.0777 -0.1603  0.3195
10603SOL    HW132910   4.562   3.865   5.790 -2.0771  2.5832 -1.9835
10603SOL    HW232911   4.502   3.781   5.901  3.5614  0.8877  0.1481
10604SOL     OW32912   6.760   3.317   7.018 -0.5024 -0.0264  0.1276
10604SOL    HW132913   6.822   3.245   7.032  0.5648  0.3885 -1.9763
10604SOL    HW232914   6.808   3.395   7.045 -0.9091  0.0867  0.5194
10605SOL     OW32915   4.086   5.356   6.732 -0.4904  0.5572  0.1215
10605SOL    HW132916   4.128   5.361   6.817 -0.3669  0.8824  0.0447
10605SOL    HW232917   4.049   5.444   6.719  1.0118  1.0636 -0.9383
10606SOL     OW32918   2.505   3.614   7.665 -0.7236  0.0989 -0.4925
10606SOL    HW132919   2.448   3.551   7.710  0.2168  1.3036  2.6985
10606SOL    HW232920   2.572   3.560   7.624 -0.8835 -1.1042  0.7369
10607SOL     OW32921   2.305   1.857   0.889  0.1501 -0.7463 -0.1261
10607SOL    HW132922   2.309   1.781   0.947  1.6926 -0.2899  0.4108
10607SOL    HW232923   2.352   1.829   0.810  3.8701  0.6602  1.3859
10608SOL     OW32924   6.826   7.591   7.784 -0.1747 -0.3636  0.1585
10608SOL    HW132925   6.910   7.551   7.760  0.0094 -0.9897  1.7574
10608SOL    HW232926   6.821   7.669   7.728  0.4978 -1.3925 -1.4194
10609SOL     OW32927   5.494   3.315   3.695 -0.0310  0.2414  0.5207
10609SOL    HW132928   5.449   3.397   3.677  1.2082  0.7970 -0.1345
10609SOL    HW232929   5.501   3.311   3.790 -0.3279  0.7509  0.5644
10610SOL     OW32930   5.704   2.433   0.030 -0.4320  0.3455 -0.9878
10610SOL    HW132931   5.787   2.415  -0.013 -0.3594 -0.5352 -0.5080
10610SOL    HW232932   5.647   2.360   0.004  0.1974 -1.3078  1.8742
10611SOL     OW32933   1.683   0.997   6.547  0.1631  0.5041 -0.6041
10611SOL    HW132934   1.679   1.028   6.457 -0.0379  1.1494 -0.3869
10611SOL    HW232935   1.654   1.073   6.599 -0.2125 -0.0183 -0.0348
10612SOL     OW32936   4.318   6.113   3.751  0.1158  0.2345  0.2726
10612SOL    HW132937   4.268   6.160   3.684 -2.0186  0.9951  2.2602
10612SOL    HW232938   4.305   6.021   3.730 -1.8111  0.4218  0.4370
10613SOL     OW32939   8.407   7.398   8.145 -0.3430  0.3182  0.3004
10613SOL    HW132940   8.411   7.413   8.239 -0.7708  1.6160  0.1393
10613SOL    HW232941   8.396   7.486   8.108  3.6511  0.3754 -1.2378
10614SOL     OW32942   0.837   4.031   7.525 -0.7334 -0.3259 -0.2924
10614SOL    HW132943   0.890   3.972   7.471 -0.4153 -0.1990 -0.1229
10614SOL    HW232944   0.747   4.014   7.498 -0.5816 -0.3024 -0.8258
10615SOL     OW32945   5.783   1.279   8.403  0.0584  0.2905  0.2199
10615SOL    HW132946   5.800   1.195   8.361 -1.4413 -1.4424  2.8076
10615SOL    HW232947   5.869   1.309   8.432  0.5782 -0.5665 -0.3862
10616SOL     OW32948   4.641   7.925   8.056  0.3266 -0.8499  0.0661
10616SOL    HW132949   4.580   7.994   8.029  1.3909  0.8182  1.6843
10616SOL    HW232950   4.695   7.909   7.978 -1.7334 -1.9552 -1.2069
10617SOL     OW32951   7.458   3.186   4.600 -0.3668 -0.2010 -0.1363
10617SOL    HW132952   7.535   3.230   4.565 -0.1823  1.2416  1.9105
10617SOL    HW232953   7.469   3.094   4.576  0.8652  0.3284 -1.7472
10618SOL     OW32954   7.694   5.108   8.631 -0.3298 -0.1573 -0.0800
10618SOL    HW132955   7.775   5.137   8.588 -1.5303  1.9362 -1.1241
10618SOL    HW232956   7.648   5.190   8.652 -1.7994 -1.2653  1.2801
10619SOL     OW32957   3.026   2.843   3.154  0.0673  0.6319  0.1238
10619SOL    HW132958   3.072   2.915   3.197 -0.3011  0.9014  0.0764
10619SOL    HW232959   3.026   2.866   3.061  2.8016 -1.0170 -0.3870
10620SOL     OW32960   3.530   4.345   0.265 -0.6324 -0.4541 -0.1089
10620SOL    HW132961   3.462   4.288   0.230 -3.0102  1.8978  0.3346
10620SOL    HW232962   3.538   4.415   0.200  0.2478  0.1251  0.6041
10621SOL     OW32963   0.582   1.068   8.446 -0.3357  0.0685  0.5919
10621SOL    HW132964   0.506   1.018   8.417  0.4941 -1.5118  1.0072
10621SOL    HW232965   0.657   1.012   8.425  0.8868  2.2861 -1.3487
10622SOL     OW32966   5.744   5.995   3.802  0.0729  0.4460 -0.0336
10622SOL    HW132967   5.698   6.024   3.723  1.0003 -0.9368 -1.1296
10622SOL    HW232968   5.703   6.044   3.873 -1.0725  1.4233 -1.3161
10623SOL     OW32969   8.514   1.637   4.890 -0.1711 -0.3345  0.1794
10623SOL    HW132970   8.512   1.620   4.796  0.7481 -1.3017  0.3150
10623SOL    HW232971   8.603   1.667   4.908 -0.3254 -0.1924  0.7469
10624SOL     OW32972   2.845   0.603   4.934 -0.8053 -0.0887  0.3068
10624SOL    HW132973   2.858   0.662   4.860 -0.5603 -1.1838 -0.5516
10624SOL    HW232974   2.933   0.590   4.969 -0.5617 -1.4752 -0.7428
10625SOL     OW32975   7.826   3.936   5.363 -0.2561 -0.4900  0.2101
10625SOL    HW132976   7.755   3.985   5.321 -0.5656 -0.3415  0.8925
10625SOL    HW232977   7.901   3.995   5.357 -0.1769 -0.6650 -0.5527
10626SOL     OW32978   7.572   4.972   6.257 -0.1195  0.3975  0.4860
10626SOL    HW132979   7.591   5.059   6.292  0.5691  0.2374  0.5096
10626SOL    HW232980   7.507   4.988   6.189  1.3526  1.1635 -0.7948
10627SOL     OW32981   3.613   2.311   8.199  0.0008  0.1382  0.0380
10627SOL    HW132982   3.647   2.251   8.132  0.8634 -0.5282  1.0282
10627SOL    HW232983   3.684   2.317   8.263 -0.4738  1.4334  0.4768
10628SOL     OW32984   0.486   0.127   0.709  0.0872 -0.8330  0.5789
10628SOL    HW132985   0.569   0.123   0.663  1.2197  0.6309  2.3685
10628SOL    HW232986   0.505   0.172   0.791 -2.8155  1.3952  0.2319
10629SOL     OW32987   4.658   5.367   7.595  0.4372 -0.0187 -0.1033
10629SOL    HW132988   4.641   5.379   7.501  3.6009  0.7110 -0.6984
10629SOL    HW232989   4.574   5.385   7.636 -0.9681  0.0930 -2.7558
10630SOL     OW32990   8.351   4.328   1.699  0.1012 -0.2942 -0.2779
10630SOL    HW132991   8.316   4.385   1.631 -0.8661 -1.5852 -0.9002
10630SOL    HW232992   8.274   4.298   1.747  0.7360  0.2909  1.1754
10631SOL     OW32993   3.088   0.192   5.853 -0.6767 -0.3737  0.1630
10631SOL    HW132994   3.098   0.287   5.848  0.4782 -0.4579  0.7403
10631SOL    HW232995   2.993   0.179   5.860 -0.7729  0.8093  1.4499
10632SOL     OW32996   5.698   8.906   0.624  0.5058 -0.4589  0.3186
10632SOL    HW132997   5.781   8.950   0.604  0.4472 -0.2704  0.4849
10632SOL    HW232998   5.724   8.819   0.653  0.7935  0.2571  2.3885
10633SOL     OW32999   4.571   4.110   1.783  0.1878 -0.1718  0.0843
10633SOL    HW133000   4.598   4.191   1.827 -0.0404 -0.2876  0.4395
10633SOL    HW233001   4.529   4.058   1.851  0.6078 -0.7258 -0.0670
10634SOL     OW33002   8.006   7.703   9.056  0.1763  0.1148 -0.0615
10634SOL    HW133003   8.031   7.792   9.031 -1.0611  1.3965  2.8321
10634SOL    HW233004   7.960   7.713   9.138  0.9907 -3.3679  0.9982
10635SOL     OW33005   3.022   7.859   7.066 -0.3582  0.4391  0.3356
10635SOL    HW133006   2.983   7.819   6.988  1.9782  0.0334 -0.6832
10635SOL    HW233007   2.952   7.914   7.102 -2.3272 -1.3348 -0.5616
10636SOL     OW33008   4.900   3.014   7.451 -0.1275  0.1862  0.5014
10636SOL    HW133009   4.871   3.071   7.379  1.2837 -1.4107 -1.4407
10636SOL    HW233010   4.868   2.927   7.427  1.6926 -0.6675  0.9981
10637SOL     OW33011   3.028   2.855   1.167  0.4317 -0.4359 -0.1859
10637SOL    HW133012   2.942   2.857   1.208  0.0316  1.0431 -1.0227
10637SOL    HW233013   3.027   2.927   1.104  2.6060  0.2694  0.4718
10638SOL     OW33014   3.843   8.851   1.810  0.2132  0.0374 -0.3813
10638SOL    HW133015   3.905   8.779   1.797  0.8798 -0.0881  2.7766
10638SOL    HW233016   3.814   8.874   1.722  0.3982 -3.6790 -1.5550
10639SOL     OW33017   0.469   7.196   4.802  0.4782  0.0131  0.0645
10639SOL    HW133018   0.414   7.118   4.797 -1.1683  1.0829  1.0222
10639SOL    HW233019   0.520   7.194   4.720 -0.0989 -1.6264 -0.2858
10640SOL     OW33020   3.646   2.061   2.137 -0.3399  0.3665 -0.4753
10640SOL    HW133021   3.561   2.104   2.142  0.0224  1.2743 -1.6737
10640SOL    HW233022   3.693   2.092   2.214 -0.9634  0.1172  0.0184
10641SOL     OW33023   8.360   7.503   3.555 -0.3257  0.1726 -0.7723
10641SOL    HW133024   8.340   7.592   3.585  0.8977  0.6553 -1.3269
10641SOL    HW233025   8.315   7.495   3.472 -1.9946 -0.4222  0.1472
10642SOL     OW33026   4.121   4.690   2.049  0.2478 -0.4853 -0.2972
10642SOL    HW133027   4.200   4.649   2.085  0.2147  0.7020  1.2177
10642SOL    HW233028   4.116   4.656   1.959  3.1495  0.3219 -0.8704
10643SOL     OW33029   3.547   7.680   3.336  0.3072 -0.2916 -0.1194
10643SOL    HW133030   3.595   7.597   3.337  1.2304  0.2163 -0.7998
10643SOL    HW233031   3.611   7.744   3.304 -0.8892  0.3655 -1.2776
10644SOL     OW33032   5.838   2.098   3.310  0.3224 -0.0535 -0.2882
10644SOL    HW133033   5.797   2.012   3.307  1.6461 -0.8028  1.7638
10644SOL    HW233034   5.791   2.148   3.243 -1.2431 -2.0012 -0.7535
10645SOL     OW33035   0.948   3.745   6.961  0.4590  0.3333  0.3812
10645SOL    HW133036   0.940   3.787   6.875  0.3465 -1.5735 -0.5931
10645SOL    HW233037   0.860   3.748   6.997 -0.0690 -1.0289 -0.6872
10646SOL     OW33038   1.175   5.700   7.900  0.3964  0.8900 -0.5597
10646SOL    HW133039   1.188   5.648   7.980 -0.3504  2.2579  0.4910
10646SOL    HW233040   1.248   5.762   7.901  1.4628 -0.2771 -1.9742
10647SOL     OW33041   0.597   7.506   3.350  0.1020 -0.2902 -0.6079
10647SOL    HW133042   0.670   7.567   3.359 -0.1157 -0.1646  0.4177
10647SOL    HW233043   0.599   7.454   3.430 -0.4657 -0.8193 -0.9214
10648SOL     OW33044   7.332   2.978   2.710 -0.5337  0.0608  0.2563
10648SOL    HW133045   7.300   3.021   2.789  0.7211  0.2345  0.6922
10648SOL    HW233046   7.427   2.984   2.716 -0.4116  0.1050 -1.2871
10649SOL     OW33047   0.614   7.617   3.869  0.1190  0.0617 -0.3029
10649SOL    HW133048   0.704   7.587   3.879  0.0906  0.3092  0.7421
10649SOL    HW233049   0.589   7.647   3.956 -1.1895 -0.5918 -0.4348
10650SOL     OW33050   0.804   0.852   1.970 -0.0132  0.1439  0.3613
10650SOL    HW133051   0.762   0.774   1.935 -0.9534  0.5259  0.5983
10650SOL    HW233052   0.817   0.908   1.894  0.5522 -0.1878  0.2093
10651SOL     OW33053   8.122   0.008   4.622  0.4694  0.4674  0.1853
10651SOL    HW133054   8.136  -0.012   4.715  1.9057  1.6338  0.2667
10651SOL    HW233055   8.182   0.081   4.605 -0.1784  0.6289 -1.5295
10652SOL     OW33056   2.280   6.074   8.564 -0.4495 -0.0334  0.4151
10652SOL    HW133057   2.232   6.156   8.570  0.5056  0.5373  0.4425
10652SOL    HW233058   2.309   6.069   8.472  0.4621  0.2357  0.6749
10653SOL     OW33059   6.933   0.737   7.012  0.1481 -0.6798  0.0762
10653SOL    HW133060   6.940   0.797   7.086 -0.8413  0.7214 -0.9014
10653SOL    HW233061   7.005   0.763   6.954  0.5816 -1.4002  0.2871
10654SOL     OW33062   8.215   3.802   5.849 -0.0980 -1.0175  0.7273
10654SOL    HW133063   8.260   3.764   5.925  0.0872 -1.5281  0.3719
10654SOL    HW233064   8.285   3.845   5.800 -0.7656  3.0998  2.9691
10655SOL     OW33065   3.010   2.947   8.620  0.0057  0.6268 -0.0256
10655SOL    HW133066   3.016   2.943   8.715  3.0367 -3.7931 -0.1183
10655SOL    HW233067   2.924   2.910   8.600 -0.1093  0.3159  0.9882
10656SOL     OW33068   1.802   4.895   2.166 -0.5154 -0.4103 -0.2679
10656SOL    HW133069   1.794   4.980   2.121  0.6450  0.8926  1.8182
10656SOL    HW233070   1.897   4.882   2.176 -0.7254 -0.9724  1.1731
10657SOL     OW33071   1.347   1.198   6.829 -0.1774  0.3972 -0.2562
10657SOL    HW133072   1.374   1.258   6.760 -1.4877  0.7848 -0.4526
10657SOL    HW233073   1.387   1.234   6.909 -1.6746  2.0869 -0.2113
10658SOL     OW33074   8.533   1.497   5.556  0.7745 -0.3310 -0.1878
10658SOL    HW133075   8.548   1.446   5.636 -3.3938 -2.4961 -0.4922
10658SOL    HW233076   8.538   1.432   5.486  3.2530  1.3379 -1.7344
10659SOL     OW33077   7.139   3.152   6.818 -0.4980 -0.7194  0.5604
10659SOL    HW133078   7.058   3.194   6.788 -0.3511  0.5976  1.8685
10659SOL    HW233079   7.146   3.073   6.765 -1.0018  0.7048 -1.8015
10660SOL     OW33080   4.223   8.661   3.597 -0.3856 -0.0592 -0.2488
10660SOL    HW133081   4.268   8.594   3.649  0.7832 -0.7909 -2.1065
10660SOL    HW233082   4.212   8.735   3.657  0.2278 -1.1390  1.2392
10661SOL     OW33083   6.493   7.843   2.224  0.2742 -0.5214  0.3582
10661SOL    HW133084   6.488   7.761   2.273 -1.3827 -0.0962  0.9572
10661SOL    HW233085   6.418   7.893   2.253  1.0173  1.0585 -0.3182
10662SOL     OW33086   8.803   7.518   6.129  0.5916  0.2670  0.3356
10662SOL    HW133087   8.753   7.598   6.140  0.3678  0.0845  0.6487
10662SOL    HW233088   8.840   7.501   6.216 -2.9668 -2.3844  1.5349
10663SOL     OW33089   6.905   3.521   6.533  0.1970 -0.4752  0.0415
10663SOL    HW133090   6.930   3.462   6.604  3.2331  1.1680  0.5405
10663SOL    HW233091   6.951   3.486   6.457  1.8617  1.0204  0.3006
10664SOL     OW33092   3.917   7.063   7.798  0.4695 -0.1728  0.4659
10664SOL    HW133093   3.913   7.137   7.858  1.4680  0.3041 -0.0226
10664SOL    HW233094   3.847   7.080   7.735  0.8493  0.4936  0.2150
10665SOL     OW33095   6.002   7.412   1.582 -0.1407  0.0622  0.6992
10665SOL    HW133096   5.937   7.357   1.625  1.6415 -2.5164  0.3441
10665SOL    HW233097   6.085   7.389   1.625  0.9241  1.2596 -0.6132
10666SOL     OW33098   8.566   7.217   3.314 -1.1329 -0.3176 -0.4180
10666SOL    HW133099   8.580   7.161   3.391 -1.4597 -3.0702 -2.2125
10666SOL    HW233100   8.471   7.222   3.305 -1.1007 -0.9438 -1.2318
10667SOL     OW33101   5.279   6.567   3.535 -0.3162 -0.0570  0.2523
10667SOL    HW133102   5.251   6.652   3.569 -0.9439  0.0955 -0.6101
10667SOL    HW233103   5.342   6.587   3.466  2.2375 -0.3993  2.2902
10668SOL     OW33104   8.402   2.143   4.775 -0.1650 -0.1187 -0.1642
10668SOL    HW133105   8.450   2.109   4.851  1.5816  1.2433 -0.5698
10668SOL    HW233106   8.417   2.238   4.779 -0.4162  0.0224 -1.9587
10669SOL     OW33107   7.310   3.728   7.924 -0.3065 -0.0131 -0.1142
10669SOL    HW133108   7.345   3.813   7.951 -0.2297  0.3074 -1.1509
10669SOL    HW233109   7.216   3.742   7.916 -0.4221 -0.3000  0.6383
10670SOL     OW33110   2.746   1.049   8.345  0.4924 -0.6187  0.2190
10670SOL    HW133111   2.736   1.129   8.396 -0.7049 -1.3674  1.2163
10670SOL    HW233112   2.802   1.075   8.271  1.6449  0.6653  1.4805
10671SOL     OW33113   7.904   8.377   5.187 -0.3516  0.0334  0.4089
10671SOL    HW133114   7.934   8.444   5.126 -2.3495 -0.5417 -1.3152
10671SOL    HW233115   7.953   8.298   5.161  1.2706  0.5314  1.7987
10672SOL     OW33116   1.742   2.245   7.245  0.2140 -0.0348  0.2771
10672SOL    HW133117   1.739   2.256   7.340  2.0370  1.2608  0.2512
10672SOL    HW233118   1.761   2.153   7.232  1.0912 -0.0041  1.2323
10673SOL     OW33119   3.302   1.975   1.625  0.4715  0.1824 -0.0869
10673SOL    HW133120   3.233   2.042   1.634  0.1158 -0.1335 -0.4282
10673SOL    HW233121   3.276   1.906   1.687  0.5281  0.1007 -0.1549
10674SOL     OW33122   0.642   7.202   7.271 -0.1742 -0.1161  0.1376
10674SOL    HW133123   0.702   7.206   7.346 -3.4820  1.9026  2.9419
10674SOL    HW233124   0.658   7.284   7.224 -1.5520  1.1260  1.7116
10675SOL     OW33125   9.101   3.483   1.296  0.4184 -0.1613 -0.8563
10675SOL    HW133126   9.071   3.446   1.378 -0.5223 -1.5347 -1.7759
10675SOL    HW233127   9.099   3.578   1.309 -0.9779 -0.3252  0.2568
10676SOL     OW33128   0.670   7.992   0.738 -0.3116 -0.6395 -0.1200
10676SOL    HW133129   0.611   7.917   0.747 -0.3404 -0.6027  0.0017
10676SOL    HW233130   0.745   7.970   0.794 -0.3912 -0.5076  0.0401
10677SOL     OW33131   5.413   7.818   0.456  0.0793 -0.2640 -0.0353
10677SOL    HW133132   5.418   7.912   0.439  2.4722 -0.5155 -1.0526
10677SOL    HW233133   5.340   7.787   0.402  1.8533  0.3985 -2.9829
10678SOL     OW33134   7.642   8.070   2.424  0.7643  0.1071  0.2821
10678SOL    HW133135   7.681   8.137   2.369  0.5495  1.6035  1.8492
10678SOL    HW233136   7.716   8.017   2.455  1.0052  0.0039 -0.4561
10679SOL     OW33137   3.228   3.525   4.340 -0.8208  0.2748 -0.3640
10679SOL    HW133138   3.320   3.513   4.366 -0.6786  1.7827 -0.0376
10679SOL    HW233139   3.224   3.492   4.251  0.3567  1.2569 -0.8242
10680SOL     OW33140   3.569   9.098   1.842 -0.1129 -0.3360  0.1026
10680SOL    HW133141   3.543   9.069   1.755 -1.8173  0.3083  0.3591
10680SOL    HW233142   3.524   9.037   1.902  0.7475 -0.5525  0.5441
10681SOL     OW33143   4.501   1.264   1.384 -0.2110 -0.0360 -0.1676
10681SOL    HW133144   4.543   1.300   1.463 -2.3106 -0.7838  1.3888
10681SOL    HW233145   4.463   1.340   1.340 -1.5825  0.1207  1.1989
10682SOL     OW33146   6.763   7.190   7.636  0.0800  0.1834  0.2338
10682SOL    HW133147   6.852   7.224   7.627  0.7995 -1.9475 -1.3047
10682SOL    HW233148   6.708   7.255   7.593  1.3223 -0.1723 -2.0012
10683SOL     OW33149   4.035   2.544   7.349 -0.4036  0.0029 -0.1699
10683SOL    HW133150   4.075   2.627   7.377  0.5301 -0.0007 -1.4289
10683SOL    HW233151   4.046   2.543   7.254 -0.2625 -1.6338 -0.1618
10684SOL     OW33152   6.389   1.121   3.062 -0.1455 -0.3014  0.3259
10684SOL    HW133153   6.389   1.125   2.967  0.6741  1.4169  0.3601
10684SOL    HW233154   6.326   1.052   3.083  1.1270 -2.1308 -1.4815
10685SOL     OW33155   8.672   5.263   8.832 -0.0826  0.5936  0.6676
10685SOL    HW133156   8.627   5.213   8.901 -1.7827  0.5340 -0.4114
10685SOL    HW233157   8.741   5.204   8.802 -1.9868 -1.1999 -0.5271
10686SOL     OW33158   7.157   8.542   8.379 -0.2505 -0.0147 -0.3936
10686SOL    HW133159   7.195   8.572   8.461  0.1971  0.5555 -0.7985
10686SOL    HW233160   7.102   8.468   8.403  0.5197 -0.3690  0.3118
10687SOL     OW33161   3.974   4.935   3.174 -0.1731 -0.6526  0.0921
10687SOL    HW133162   3.999   4.983   3.095 -1.1644 -0.8538 -0.3589
10687SOL    HW233163   4.017   4.982   3.245 -0.3313  0.3203 -0.4370
10688SOL     OW33164   4.483   8.480   7.843  0.5437  0.4683 -0.2407
10688SOL    HW133165   4.455   8.402   7.795 -0.7295  0.3246  0.6794
10688SOL    HW233166   4.518   8.446   7.926 -0.4135  0.8715  0.3452
10689SOL     OW33167   1.808   3.754   2.355  0.5033 -0.2603  0.2527
10689SOL    HW133168   1.862   3.832   2.369 -0.2059  0.6267 -1.6153
10689SOL    HW233169   1.770   3.766   2.268  1.2992 -3.2403 -0.6487
10690SOL     OW33170   5.999   4.065   6.714  0.1924 -0.4277  0.2806
10690SOL    HW133171   5.934   4.035   6.651  0.3597 -0.1442 -0.0290
10690SOL    HW233172   6.076   4.012   6.696  0.5724  0.3614 -0.4410
10691SOL     OW33173   7.922   5.245   2.169 -0.3685 -0.2240  0.1892
10691SOL    HW133174   8.004   5.212   2.205  0.2058 -1.8706 -2.4124
10691SOL    HW233175   7.854   5.203   2.223  0.4742 -0.7118  0.8891
10692SOL     OW33176   7.394   9.132   8.003 -0.5839  0.1432  0.1273
10692SOL    HW133177   7.402   9.044   7.968  0.9685  0.9701 -1.7380
10692SOL    HW233178   7.319   9.170   7.958 -0.7784  0.0420  0.3622
10693SOL     OW33179   2.508   2.515   4.374 -0.2489 -0.8375  0.0208
10693SOL    HW133180   2.603   2.501   4.381 -0.2041 -0.3445  0.5058
10693SOL    HW233181   2.474   2.432   4.341  0.3610 -0.9943 -0.2269
10694SOL     OW33182   2.404   0.485   5.874  0.4208  0.3036  0.6621
10694SOL    HW133183   2.452   0.403   5.868  1.2221  0.8090  0.0588
10694SOL    HW233184   2.320   0.460   5.914 -1.3905 -1.7324 -3.6802
10695SOL     OW33185   7.995   2.002   5.314 -0.3180  0.2361  0.4175
10695SOL    HW133186   7.954   2.017   5.229  1.2815 -1.0658 -0.6626
10695SOL    HW233187   7.959   1.918   5.344  0.9645 -0.5970 -0.2420
10696SOL     OW33188   5.091   2.972   2.064  0.3682 -0.1670 -0.4465
10696SOL    HW133189   5.085   3.062   2.096 -0.3803 -0.0911 -0.7837
10696SOL    HW233190   5.108   2.981   1.970  0.0358 -0.3769 -0.5274
10697SOL     OW33191   8.235   3.824   6.336 -0.5516  0.0291  0.2059
10697SOL    HW133192   8.325   3.837   6.365  0.1970  1.1599 -2.3049
10697SOL    HW233193   8.216   3.732   6.355  0.3023  0.3036  2.7537
10698SOL     OW33194   1.105   8.767   0.021 -0.0474 -0.1727 -0.0356
10698SOL    HW133195   1.086   8.819  -0.057  0.5987 -0.3795 -0.3455
10698SOL    HW233196   1.162   8.696  -0.011 -1.2367 -1.3214  0.2982
10699SOL     OW33197   0.749   8.192   7.359  0.0292 -0.0366 -0.2206
10699SOL    HW133198   0.695   8.248   7.303  0.1998  0.4493  0.0983
10699SOL    HW233199   0.821   8.164   7.303 -0.3130 -0.3256 -0.5193
10700SOL     OW33200   0.280   4.134   3.578  0.0728 -0.5671 -0.7454
10700SOL    HW133201   0.213   4.075   3.614  0.9002 -1.1778 -0.1607
10700SOL    HW233202   0.261   4.219   3.618 -0.1698 -0.8087 -0.3386
10701SOL     OW33203   4.294   4.133   0.681 -0.4266 -0.5717  0.4007
10701SOL    HW133204   4.300   4.174   0.768 -1.4616 -0.4817  0.4441
10701SOL    HW233205   4.376   4.085   0.672 -0.8901 -1.7900  2.0536
10702SOL     OW33206   3.385   0.029   7.045  0.0939 -0.0337 -0.4538
10702SOL    HW133207   3.330  -0.003   7.116  1.3606 -2.5126 -0.4850
10702SOL    HW233208   3.400   0.121   7.066 -2.1255  0.1190  0.7516
10703SOL     OW33209   3.299   1.020   3.313 -0.7964  0.3490 -0.1743
10703SOL    HW133210   3.238   1.077   3.360 -0.1750  0.9278 -0.0543
10703SOL    HW233211   3.366   1.000   3.378 -0.6541  0.0355 -0.4197
10704SOL     OW33212   7.411   7.785   7.967 -0.1698  0.7173 -0.6142
10704SOL    HW133213   7.483   7.773   7.906  0.1569  1.3739 -0.3609
10704SOL    HW233214   7.390   7.878   7.963 -0.9761  0.5477 -0.6510
10705SOL     OW33215   4.110   0.608   5.150  0.1622  0.1335  0.5444
10705SOL    HW133216   4.021   0.636   5.170  0.5073 -0.1665  2.8656
10705SOL    HW233217   4.146   0.678   5.096 -1.4072  0.3403 -0.2647
10706SOL     OW33218   7.694   4.598   8.566  0.1792  0.8095 -0.0861
10706SOL    HW133219   7.605   4.581   8.596  0.9163  0.9421  2.3835
10706SOL    HW233220   7.720   4.678   8.611  1.0136  1.7416 -2.0766
10707SOL     OW33221   3.790   1.434   7.435  0.6144 -0.7914  0.2866
10707SOL    HW133222   3.837   1.394   7.362  1.5088 -0.0857  0.4504
10707SOL    HW233223   3.789   1.528   7.415 -0.7499 -0.7847  0.2913
10708SOL     OW33224   5.059   4.607   3.824  0.4429  0.1198  0.4551
10708SOL    HW133225   5.007   4.553   3.765  2.0049  0.7067 -1.5917
10708SOL    HW233226   5.146   4.568   3.821  0.5722  0.1487  2.4676
10709SOL     OW33227   7.008   5.285   1.615 -0.1070 -0.0429 -0.5949
10709SOL    HW133228   6.963   5.207   1.647 -0.7756  0.6306  0.1592
10709SOL    HW233229   7.055   5.319   1.692 -2.5304  2.1621  0.0733
10710SOL     OW33230   5.412   5.518   1.973 -0.6198 -0.1347 -0.4622
10710SOL    HW133231   5.393   5.466   1.895  0.2489  0.2749 -0.9593
10710SOL    HW233232   5.503   5.499   1.994  0.0158  1.8007 -1.1818
10711SOL     OW33233   5.675   6.473   5.995  0.1425  0.2664 -0.1833
10711SOL    HW133234   5.735   6.536   6.036 -1.6051  2.3724 -0.6766
10711SOL    HW233235   5.591   6.519   5.991 -0.8831 -1.5971 -1.8895
10712SOL     OW33236   3.443   2.889   1.618  0.9023 -0.1236 -0.0065
10712SOL    HW133237   3.427   2.973   1.575  1.2290  0.1559  0.4040
10712SOL    HW233238   3.369   2.877   1.677  0.0464 -0.8851 -1.1951
10713SOL     OW33239   1.862   3.908   1.183 -0.1230 -0.1806 -0.0436
10713SOL    HW133240   1.893   3.988   1.226 -1.7955  0.6209 -0.2544
10713SOL    HW233241   1.767   3.917   1.182 -0.2802 -1.6750 -1.0596
10714SOL     OW33242   5.669   4.092   5.583 -0.5203  0.2969  0.1379
10714SOL    HW133243   5.603   4.087   5.652 -0.4247 -1.3649  0.1564
10714SOL    HW233244   5.653   4.177   5.541 -0.5945  1.3429  2.1506
10715SOL     OW33245   3.903   2.588   6.296  0.1465 -0.3581  0.0552
10715SOL    HW133246   3.850   2.558   6.222  1.2502 -0.3937 -0.7384
10715SOL    HW233247   3.989   2.606   6.258  0.5566  0.2063  1.2250
10716SOL     OW33248   4.614   7.194   2.195 -0.1404 -0.1558  0.0354
10716SOL    HW133249   4.635   7.138   2.120 -1.5187 -1.1926  0.3773
10716SOL    HW233250   4.561   7.265   2.158  2.4948  1.6229 -0.5777
10717SOL     OW33251   1.321   0.259   1.853 -0.9510 -0.3327  0.5989
10717SOL    HW133252   1.287   0.200   1.787 -2.0516  0.7082  0.1876
10717SOL    HW233253   1.398   0.215   1.888 -0.4452 -0.9919 -1.2380
10718SOL     OW33254   6.717   3.079   0.009 -0.1210 -0.2578 -0.2892
10718SOL    HW133255   6.716   3.171  -0.015  0.0734 -0.6295 -1.8538
10718SOL    HW233256   6.740   3.078   0.102  0.1103  1.2414 -0.3082
10719SOL     OW33257   5.057   4.750   0.573  0.3091 -0.1493  0.1645
10719SOL    HW133258   5.038   4.691   0.645 -0.7293 -2.5098 -1.8748
10719SOL    HW233259   4.977   4.748   0.519  0.0085  3.6066  0.2166
10720SOL     OW33260   5.935   5.487   6.012  0.0390 -0.0009  0.3162
10720SOL    HW133261   5.965   5.499   6.102 -1.0092  1.0591  0.5465
10720SOL    HW233262   6.010   5.514   5.958 -0.2167  2.0771  0.8826
10721SOL     OW33263   1.487   7.236   8.179 -0.5295 -0.5223  0.3717
10721SOL    HW133264   1.418   7.237   8.246 -0.5691 -1.0544  0.3375
10721SOL    HW233265   1.527   7.150   8.186 -0.9535 -0.8181 -0.7135
10722SOL     OW33266   6.760   8.042   6.903 -0.2988 -0.2623 -0.4541
10722SOL    HW133267   6.764   8.064   6.996  0.0709 -0.7509 -0.3493
10722SOL    HW233268   6.674   8.073   6.874 -0.4826 -0.2623  0.0878
10723SOL     OW33269   6.264   6.159   7.071  0.2719 -0.9851 -0.6543
10723SOL    HW133270   6.231   6.243   7.040 -1.4022 -1.7523 -1.0881
10723SOL    HW233271   6.216   6.143   7.153  3.0842  0.0211  1.3491
10724SOL     OW33272   5.792   2.896   7.592 -0.7791 -0.6172  0.1710
10724SOL    HW133273   5.787   2.875   7.499  0.3275 -0.5735  0.0818
10724SOL    HW233274   5.886   2.903   7.609 -0.9882 -0.1509  1.1841
10725SOL     OW33275   7.044   1.744   8.112 -0.2283 -0.5380  0.2238
10725SOL    HW133276   7.094   1.756   8.192 -0.0969 -1.2141  0.2505
10725SOL    HW233277   6.969   1.690   8.137 -1.9010  1.7882  0.5223
10726SOL     OW33278   3.955   1.537   3.646  0.4694 -0.4737 -0.3246
10726SOL    HW133279   4.035   1.588   3.656 -0.6384  1.7154 -1.8143
10726SOL    HW233280   3.958   1.474   3.718  2.7653  0.5313  0.5676
10727SOL     OW33281   1.098   5.356   5.716  0.6449  0.1396  0.0635
10727SOL    HW133282   1.169   5.292   5.705  0.1356 -0.3598 -0.3251
10727SOL    HW233283   1.122   5.428   5.658  0.2984 -0.4967 -0.8946
10728SOL     OW33284   0.980   5.481   3.736  0.0749 -0.1705 -0.1039
10728SOL    HW133285   1.028   5.530   3.669  0.6682 -1.3331 -0.5535
10728SOL    HW233286   0.905   5.444   3.690 -0.8559  0.9849  0.4264
10729SOL     OW33287   7.893   0.786   5.759  0.4741 -0.2075 -0.1506
10729SOL    HW133288   7.865   0.704   5.798  0.2883 -0.9705 -1.8089
10729SOL    HW233289   7.816   0.842   5.762 -1.3130 -2.0647 -4.0951
10730SOL     OW33290   1.794   4.873   4.174 -0.4370 -0.0842  0.5825
10730SOL    HW133291   1.811   4.950   4.227  0.5991 -0.4009  0.7348
10730SOL    HW233292   1.850   4.883   4.097 -2.5483  0.8065 -0.9649
10731SOL     OW33293   5.269   0.210   6.267 -0.0335  0.1387 -0.2856
10731SOL    HW133294   5.242   0.231   6.357 -0.3315 -0.8820 -0.1183
10731SOL    HW233295   5.361   0.235   6.264  0.5194 -1.5414  0.9244
10732SOL     OW33296   4.656   9.083   8.587 -0.0141  0.8596 -0.1876
10732SOL    HW133297   4.571   9.111   8.551  0.0865  0.3748 -0.8149
10732SOL    HW233298   4.696   9.164   8.619  0.4754  1.5558 -2.3994
10733SOL     OW33299   2.712   2.075   7.809  0.0002 -0.1043  0.3026
10733SOL    HW133300   2.657   2.007   7.770  1.0185 -0.4033 -0.6761
10733SOL    HW233301   2.800   2.056   7.776  0.2027  2.1047 -0.5656
10734SOL     OW33302   6.128   1.800   8.738  0.2925 -0.1101 -0.1641
10734SOL    HW133303   6.106   1.843   8.655  0.3163  0.4992  0.1428
10734SOL    HW233304   6.195   1.856   8.777  1.7197 -1.4233 -0.6367
10735SOL     OW33305   5.666   5.466   1.986  0.7101  0.2808 -0.5348
10735SOL    HW133306   5.747   5.461   1.934  1.1732 -1.7156  0.2874
10735SOL    HW233307   5.675   5.396   2.051 -1.2699  0.6432  0.1952
10736SOL     OW33308   6.181   0.457   2.027  0.2038  0.1917  0.6749
10736SOL    HW133309   6.246   0.411   2.079  0.1276  0.3213  0.8882
10736SOL    HW233310   6.164   0.538   2.076 -2.3168 -1.1397  2.2352
10737SOL     OW33311   6.055   3.593   6.767 -0.7183 -0.8224 -0.7431
10737SOL    HW133312   6.131   3.577   6.710 -0.2330  0.1898 -0.4068
10737SOL    HW233313   6.092   3.634   6.845 -1.5202 -1.0940 -0.2115
10738SOL     OW33314   1.903   1.268   4.894  0.1840  0.1789 -0.1892
10738SOL    HW133315   1.922   1.324   4.820 -0.3550 -0.6096 -0.9426
10738SOL    HW233316   1.926   1.180   4.865 -1.3086 -0.3250  0.0835
10739SOL     OW33317   0.937   2.576   3.977  0.6342  0.5376 -0.0843
10739SOL    HW133318   0.953   2.633   4.052  0.2048  0.0520  0.3880
10739SOL    HW233319   0.986   2.496   3.997  1.0420  0.6436 -0.6311
10740SOL     OW33320   2.453   1.936   4.950  0.0785  0.9849 -0.1671
10740SOL    HW133321   2.447   1.841   4.952 -0.8439  1.0158 -0.6563
10740SOL    HW233322   2.497   1.959   5.032  2.6615  0.0307 -1.1987
10741SOL     OW33323   2.550   8.371   3.814 -0.1891 -0.6290  0.4988
10741SOL    HW133324   2.507   8.313   3.878 -1.3906  0.0794  0.3738
10741SOL    HW233325   2.547   8.321   3.732  0.0401 -0.9495  0.6830
10742SOL     OW33326   4.061   0.545   3.108 -0.0404  0.0594 -0.3060
10742SOL    HW133327   4.145   0.551   3.062  0.4204  1.4775  0.6485
10742SOL    HW233328   3.995   0.558   3.040  0.5463 -0.0534 -0.9047
10743SOL     OW33329   9.083   4.414   1.883 -0.9547 -0.1492 -0.2196
10743SOL    HW133330   9.145   4.450   1.946 -1.3379 -0.8250  0.5522
10743SOL    HW233331   9.001   4.461   1.899 -0.9800 -0.1302 -0.3961
10744SOL     OW33332   7.660   2.146   5.368 -0.3105  0.3269 -0.5749
10744SOL    HW133333   7.727   2.077   5.373  0.2372  0.8264 -0.8840
10744SOL    HW233334   7.581   2.100   5.338 -0.1576 -0.2987 -0.0505
10745SOL     OW33335   3.872   3.584   6.861 -0.2424 -0.0908 -0.0997
10745SOL    HW133336   3.790   3.562   6.815  0.1406 -2.1664  0.0920
10745SOL    HW233337   3.939   3.532   6.817  0.7783  0.6590  0.5154
10746SOL     OW33338   8.869   2.174   7.428 -0.2895 -0.2192 -0.0684
10746SOL    HW133339   8.888   2.083   7.404 -1.9692 -0.2126 -1.6872
10746SOL    HW233340   8.807   2.167   7.500  0.6093 -0.3064  0.7210
10747SOL     OW33341   6.537   6.823   0.782  0.1719  0.7113  0.1516
10747SOL    HW133342   6.475   6.786   0.844 -0.2375 -1.6037 -1.5296
10747SOL    HW233343   6.619   6.777   0.799  0.4729  1.1830 -0.0034
10748SOL     OW33344   6.859   6.542   0.964  0.0777  0.0680 -0.0354
10748SOL    HW133345   6.763   6.541   0.966  0.0176  0.6995 -1.4349
10748SOL    HW233346   6.885   6.472   1.024 -1.3004 -1.5952 -1.2799
10749SOL     OW33347   1.666   3.319   8.588 -0.1778  0.2578  0.0676
10749SOL    HW133348   1.710   3.404   8.586  1.5648 -0.5586  1.2193
10749SOL    HW233349   1.711   3.266   8.523 -0.6373 -0.0789  0.0136
10750SOL     OW33350   7.116   8.054   7.849  0.3162  0.2000  0.1568
10750SOL    HW133351   7.102   7.963   7.876  0.2205  0.6210  1.6085
10750SOL    HW233352   7.210   8.067   7.856  0.3989  0.0383 -0.6450
10751SOL     OW33353   3.179   7.083   3.332 -0.3901  0.8331  0.2467
10751SOL    HW133354   3.197   7.177   3.341  1.6118  0.7147 -1.8712
10751SOL    HW233355   3.207   7.061   3.244  0.7555 -2.1040  1.2236
10752SOL     OW33356   6.895   2.835   0.584 -0.1867  0.0403 -0.0719
10752SOL    HW133357   6.825   2.879   0.536  0.2700 -1.8512 -2.7481
10752SOL    HW233358   6.850   2.776   0.644 -0.9903 -1.1349 -1.7388
10753SOL     OW33359   1.857   4.649   3.450  0.3969  0.6436  0.5652
10753SOL    HW133360   1.804   4.594   3.391 -0.9719  0.5758  1.7823
10753SOL    HW233361   1.909   4.586   3.500 -0.8544  0.4136  1.6572
10754SOL     OW33362   3.958   4.422   8.027 -0.2031 -0.1553  0.0502
10754SOL    HW133363   3.961   4.331   8.056 -0.0559  0.5489  2.4208
10754SOL    HW233364   3.970   4.417   7.932  0.7352 -2.5331  0.2249
10755SOL     OW33365   3.526   4.510   5.139 -0.9275 -0.7465 -0.0782
10755SOL    HW133366   3.465   4.517   5.065 -1.3802 -3.0949  0.0057
10755SOL    HW233367   3.611   4.534   5.102 -1.7458  2.2932 -0.2723
10756SOL     OW33368   2.040   6.220   1.238 -0.2968 -0.0202  0.7549
10756SOL    HW133369   2.030   6.168   1.159 -0.2579  0.8637  0.1536
10756SOL    HW233370   2.079   6.302   1.208 -0.3865  0.3685  1.6705
10757SOL     OW33371   5.428   3.933   5.219 -0.8751  0.2900 -0.3825
10757SOL    HW133372   5.493   3.916   5.288 -0.4327  2.4543 -0.2025
10757SOL    HW233373   5.416   3.848   5.176  3.4597  0.0446 -1.6197
10758SOL     OW33374   1.383   7.597   5.633  0.4412  0.4044  0.2096
10758SOL    HW133375   1.338   7.558   5.558 -0.2150  2.1425 -0.3520
10758SOL    HW233376   1.460   7.640   5.596 -0.8853  2.9380  0.1304
10759SOL     OW33377   6.397   7.226   5.441  0.0943  0.1099 -0.4703
10759SOL    HW133378   6.362   7.233   5.352 -0.8252  2.5252  0.0082
10759SOL    HW233379   6.354   7.150   5.478 -0.2518 -0.3567 -1.7842
10760SOL     OW33380   6.221   7.782   4.746  0.5727  0.5198 -0.4242
10760SOL    HW133381   6.230   7.865   4.792  0.6473  1.7991 -2.5896
10760SOL    HW233382   6.290   7.784   4.679  1.1283 -1.6909 -0.0003
10761SOL     OW33383   4.536   5.790   1.737 -0.2241  0.1463 -0.0155
10761SOL    HW133384   4.530   5.717   1.799  0.1145 -0.3366 -0.5464
10761SOL    HW233385   4.446   5.807   1.711 -0.2829 -0.2137 -0.0427
10762SOL     OW33386   2.151   6.670   4.606 -0.3012 -0.1083  0.0511
10762SOL    HW133387   2.144   6.574   4.600 -1.6828 -0.0771  0.7315
10762SOL    HW233388   2.238   6.685   4.644 -0.4970 -1.1573  0.9784
10763SOL     OW33389   4.684   7.960   8.823 -0.5073  0.4426 -0.2476
10763SOL    HW133390   4.767   7.926   8.856  0.4951  1.5851 -1.4406
10763SOL    HW233391   4.640   7.884   8.785  0.7802  0.0945 -1.1158
10764SOL     OW33392   2.235   1.477   1.385 -0.1618  0.3539  0.3500
10764SOL    HW133393   2.178   1.552   1.396 -2.9397 -1.3035 -1.5361
10764SOL    HW233394   2.236   1.435   1.471  1.2276  2.2807  1.3572
10765SOL     OW33395   2.256   1.866   2.498 -0.3509  0.1030 -0.2930
10765SOL    HW133396   2.203   1.943   2.518  1.3936  1.4138 -0.5794
10765SOL    HW233397   2.238   1.847   2.406 -1.8389 -0.7380  0.1252
10766SOL     OW33398   6.154   0.611   1.757  0.4520 -0.4877 -0.2230
10766SOL    HW133399   6.138   0.556   1.834 -0.5813  0.3792  0.2126
10766SOL    HW233400   6.219   0.675   1.787 -0.7586  0.5492  0.3331
10767SOL     OW33401   7.012   6.672   8.128  0.0645 -0.3462 -0.4011
10767SOL    HW133402   6.930   6.672   8.077 -0.2942 -0.2622  0.1685
10767SOL    HW233403   7.076   6.633   8.069 -0.5357 -1.0277 -0.6242
10768SOL     OW33404   6.002   0.691   1.274 -0.5951  0.2347 -0.2116
10768SOL    HW133405   5.991   0.658   1.185  1.2790  0.3736 -0.5305
10768SOL    HW233406   6.012   0.785   1.264  0.2945  0.1777  0.0592
10769SOL     OW33407   0.253   2.724   1.220  0.8161  0.2167 -0.4001
10769SOL    HW133408   0.278   2.807   1.179 -0.0208 -0.0279 -1.4449
10769SOL    HW233409   0.204   2.750   1.298 -0.9119  0.7929 -1.5914
10770SOL     OW33410   3.830   6.344   2.909  0.5763  0.3589 -0.0480
10770SOL    HW133411   3.850   6.253   2.926  0.2160  0.0401 -1.2310
10770SOL    HW233412   3.738   6.353   2.935  0.2318  0.0461 -1.0993
10771SOL     OW33413   1.676   0.084   5.797 -0.5996 -0.4245  0.1831
10771SOL    HW133414   1.613   0.147   5.761 -0.4936 -1.1310 -1.3369
10771SOL    HW233415   1.645  -0.001   5.765  1.2344 -0.7694 -0.8256
10772SOL     OW33416   7.815   4.084   4.939 -0.4494 -0.1477  0.1947
10772SOL    HW133417   7.721   4.097   4.953 -0.4842  1.5709 -1.2097
10772SOL    HW233418   7.852   4.172   4.946  0.8876 -0.6444 -0.3871
10773SOL     OW33419   0.999   8.613   1.752  0.2561  0.2233 -0.3424
10773SOL    HW133420   1.062   8.637   1.684 -2.3482 -0.1987 -3.1295
10773SOL    HW233421   0.950   8.693   1.770 -1.0887 -0.3413 -1.3273
10774SOL     OW33422   0.601   5.171   3.113  0.0302 -0.3225 -0.0128
10774SOL    HW133423   0.514   5.135   3.134 -0.2777 -0.5261 -1.5443
10774SOL    HW233424   0.644   5.181   3.199 -1.3873 -0.4879  0.7522
10775SOL     OW33425   2.675   7.257   5.927 -0.3114  0.1549  0.2536
10775SOL    HW133426   2.679   7.279   5.834  0.1408  0.8027  0.4162
10775SOL    HW233427   2.663   7.162   5.929  2.4633 -0.2901 -0.4800
10776SOL     OW33428   1.812   2.850   8.260 -0.1764 -0.0544 -0.2489
10776SOL    HW133429   1.805   2.792   8.336 -1.4810 -1.2293 -1.2007
10776SOL    HW233430   1.895   2.896   8.272  1.2447 -2.5546  0.2775
10777SOL     OW33431   8.711   4.841   6.005  0.0133  0.1360  0.3677
10777SOL    HW133432   8.701   4.749   6.030 -1.5815 -0.0148 -0.6733
10777SOL    HW233433   8.740   4.838   5.914  0.6039  0.6745  0.5301
10778SOL     OW33434   8.125   2.846   0.293 -0.0326 -0.3680  0.8271
10778SOL    HW133435   8.119   2.810   0.381 -1.0104 -1.9664  0.1535
10778SOL    HW233436   8.059   2.915   0.290  0.5261  0.2070  1.5602
10779SOL     OW33437   3.217   5.742   6.959 -0.4813  0.0773 -0.1764
10779SOL    HW133438   3.289   5.733   6.898 -1.2666 -0.1290 -1.0958
10779SOL    HW233439   3.161   5.810   6.922 -1.3189 -0.5266 -0.0573
10780SOL     OW33440   2.656   6.489   2.831  0.1724  0.7103 -0.0127
10780SOL    HW133441   2.746   6.491   2.800  0.3641 -2.1531  0.0860
10780SOL    HW233442   2.603   6.474   2.753 -0.0126  0.5514  0.1385
10781SOL     OW33443   4.850   6.019   3.456 -0.2987  0.6053 -0.1306
10781SOL    HW133444   4.809   6.091   3.503 -1.0277  0.2764 -0.2504
10781SOL    HW233445   4.794   6.007   3.378 -0.3312 -0.2514  0.0201
10782SOL     OW33446   0.753   6.046   8.896 -0.0231 -0.3149 -0.3872
10782SOL    HW133447   0.717   6.044   8.808  1.6418  2.8542 -1.2751
10782SOL    HW233448   0.684   6.084   8.950 -0.7997 -1.6541 -0.3840
10783SOL     OW33449   8.777   2.467   1.606 -0.1316  0.3394 -0.1888
10783SOL    HW133450   8.690   2.463   1.645  1.0047  0.1942  2.5455
10783SOL    HW233451   8.782   2.389   1.550 -1.8352  0.5455 -0.6871
10784SOL     OW33452   4.947   4.195   4.822  0.5125  0.1330  0.3681
10784SOL    HW133453   4.915   4.220   4.909 -0.9321 -0.3483  0.0110
10784SOL    HW233454   4.918   4.267   4.765 -0.1563 -0.4152  0.0016
10785SOL     OW33455   7.801   2.662   2.419  0.1426  0.1440 -0.7328
10785SOL    HW133456   7.869   2.600   2.391  0.6987  0.3461  0.1291
10785SOL    HW233457   7.721   2.610   2.422  0.6933 -0.6987  0.4953
10786SOL     OW33458   3.988   2.396   0.161 -0.2900 -0.2857 -0.3048
10786SOL    HW133459   3.911   2.420   0.110 -0.1503  1.9700  0.4131
10786SOL    HW233460   3.954   2.375   0.248 -0.0928  1.3336  0.1943
10787SOL     OW33461   1.360   6.970   1.822 -0.2177  0.1802 -0.7303
10787SOL    HW133462   1.422   6.900   1.802  0.5086  1.3208 -2.6838
10787SOL    HW233463   1.413   7.037   1.866 -0.5357  0.2616 -0.4685
10788SOL     OW33464   8.421   8.221   8.427  0.0224  0.4695  0.4003
10788SOL    HW133465   8.467   8.292   8.382 -0.8432 -0.1195 -1.5115
10788SOL    HW233466   8.470   8.208   8.508  0.8331  2.5134  0.2901
10789SOL     OW33467   8.064   7.336   1.919 -0.6091  0.4289 -0.1633
10789SOL    HW133468   8.129   7.397   1.884 -1.5714  1.0470 -0.9110
10789SOL    HW233469   8.102   7.306   2.002  0.6395  0.7438 -0.5976
10790SOL     OW33470   7.189   8.552   0.075  0.0360  0.2813  0.3835
10790SOL    HW133471   7.130   8.628   0.081 -0.7047 -0.4100  3.1000
10790SOL    HW233472   7.155   8.490   0.140 -0.8101 -3.4627 -3.2205
10791SOL     OW33473   3.347   0.552   5.380 -0.1176 -0.2516 -0.0232
10791SOL    HW133474   3.316   0.489   5.446  0.6418  0.2356  0.8147
10791SOL    HW233475   3.435   0.576   5.409  0.3378 -0.2146 -1.3598
10792SOL     OW33476   7.141   0.610   4.931 -0.1622 -0.1321 -0.4849
10792SOL    HW133477   7.061   0.623   4.881 -0.6735  0.0244  0.3584
10792SOL    HW233478   7.160   0.517   4.922 -2.2992 -0.9170  1.9944
10793SOL     OW33479   5.652   6.807   4.961 -0.1553 -0.9765  0.4777
10793SOL    HW133480   5.560   6.823   4.941  0.2355  1.1150  0.2108
10793SOL    HW233481   5.694   6.800   4.876  0.3266  0.6930  0.5449
10794SOL     OW33482   8.925   9.087   1.548 -0.7420  0.4969  0.7031
10794SOL    HW133483   8.868   9.062   1.620  0.3316 -0.1717  1.3513
10794SOL    HW233484   9.004   9.120   1.591 -1.1285  2.7195 -0.1502
10795SOL     OW33485   8.235   3.352   8.836  0.3197  0.3460  0.4118
10795SOL    HW133486   8.204   3.321   8.921  0.7797  0.1373  0.5049
10795SOL    HW233487   8.306   3.413   8.858  1.2539 -0.6089  0.1594
10796SOL     OW33488   7.069   6.069   7.504 -0.5235  0.2669 -0.2982
10796SOL    HW133489   7.023   6.004   7.452  1.8556 -1.9919  0.1651
10796SOL    HW233490   7.158   6.071   7.468  1.0172 -0.7924  2.9642
10797SOL     OW33491   7.562   8.972   3.669  0.0919 -0.1948  0.4361
10797SOL    HW133492   7.526   9.026   3.739 -0.7414 -0.2955  0.1018
10797SOL    HW233493   7.550   9.024   3.589  2.9278  0.8365  0.5623
10798SOL     OW33494   2.164   2.643   5.885 -0.3341  0.0834 -0.1948
10798SOL    HW133495   2.260   2.641   5.883 -0.2835  1.1841  0.3032
10798SOL    HW233496   2.140   2.683   5.801 -0.2576  1.6315  0.4952
10799SOL     OW33497   5.900   4.135   3.846  0.6146 -0.5590  0.1221
10799SOL    HW133498   5.910   4.198   3.917  0.8582  0.2848 -0.6486
10799SOL    HW233499   5.833   4.173   3.789  0.6071 -1.1023 -0.2410
10800SOL     OW33500   1.523   1.189   4.953 -0.1485 -0.0271 -0.0206
10800SOL    HW133501   1.596   1.132   4.929  0.4637  1.6431 -2.5890
10800SOL    HW233502   1.457   1.173   4.885  0.1558  2.4001 -1.0038
10801SOL     OW33503   2.189   3.930   2.171 -0.8201  0.2727  0.6955
10801SOL    HW133504   2.108   3.908   2.124  0.2446 -0.3499 -0.9542
10801SOL    HW233505   2.187   3.875   2.249 -2.9541  1.8098  1.8175
10802SOL     OW33506   6.385   3.429   4.153  0.3819  0.4337 -0.4978
10802SOL    HW133507   6.304   3.380   4.161  0.5827  0.0435 -0.8232
10802SOL    HW233508   6.382   3.468   4.065  0.7284  0.0791 -0.6716
10803SOL     OW33509   8.543   2.440   1.743 -0.5747 -0.1986 -0.0029
10803SOL    HW133510   8.602   2.380   1.788 -0.0525  0.3762  0.0894
10803SOL    HW233511   8.460   2.393   1.739 -0.4229 -0.5623  0.8714
10804SOL     OW33512   3.910   5.002   1.593  0.3003  0.0478  0.7072
10804SOL    HW133513   3.818   5.004   1.619  0.4623  0.2701  1.2589
10804SOL    HW233514   3.908   4.969   1.503 -0.3039 -0.1350  0.7818
10805SOL     OW33515   1.576   2.685   8.497 -0.6903 -0.1901 -0.3280
10805SOL    HW133516   1.619   2.740   8.563 -0.3761  0.6626 -1.2066
10805SOL    HW233517   1.492   2.663   8.536 -0.1479 -0.4630  0.7263
10806SOL     OW33518   9.078   1.096   7.745  0.1448 -0.6560  0.0511
10806SOL    HW133519   9.095   1.004   7.724  0.5066 -0.4877 -0.4077
10806SOL    HW233520   9.128   1.145   7.680  1.9514 -0.0999  1.7650
10807SOL     OW33521   4.075   4.449   2.236 -0.0781 -0.0947  0.2900
10807SOL    HW133522   4.118   4.444   2.151 -0.6640  0.1347 -0.0241
10807SOL    HW233523   4.062   4.357   2.262  0.0378 -0.1625  0.1065
10808SOL     OW33524   3.775   4.461   0.398 -0.6966 -0.0419 -0.1348
10808SOL    HW133525   3.706   4.425   0.343 -0.5329  0.2358 -0.5177
10808SOL    HW233526   3.824   4.384   0.428 -0.8289 -0.1967 -0.3170
10809SOL     OW33527   4.083   3.431   6.745  0.3796 -0.2462 -0.0189
10809SOL    HW133528   4.039   3.347   6.761  0.9242 -0.3770  0.8658
10809SOL    HW233529   4.080   3.442   6.650 -0.9681 -0.5639 -0.0251
10810SOL     OW33530   1.724   5.754   6.560 -0.0296  0.5056 -0.0836
10810SOL    HW133531   1.765   5.831   6.599 -1.1688  0.1977  1.8353
10810SOL    HW233532   1.664   5.790   6.494  1.7989  1.0387 -1.5726
10811SOL     OW33533   3.965   5.936   7.467 -0.1761 -0.0433 -0.3393
10811SOL    HW133534   3.977   5.919   7.374 -0.8413 -1.4936 -0.1756
10811SOL    HW233535   4.052   5.961   7.498  1.0907 -3.6024 -0.5532
10812SOL     OW33536   3.064   0.495   9.062  0.6656  0.3822  0.4392
10812SOL    HW133537   3.007   0.458   8.994 -1.7790 -0.8508  2.9910
10812SOL    HW233538   3.122   0.423   9.086 -1.2619 -0.5939  2.4492
10813SOL     OW33539   3.057   0.201   3.307  0.3278  0.0589 -0.3028
10813SOL    HW133540   3.057   0.177   3.399  0.4591 -0.2970 -0.3931
10813SOL    HW233541   3.067   0.118   3.260  2.3110  0.3880 -0.5781
10814SOL     OW33542   6.013   4.000   6.230  0.1105 -0.7180  0.3142
10814SOL    HW133543   5.936   4.038   6.273  1.3119  0.2013  1.7579
10814SOL    HW233544   5.989   3.909   6.213 -1.7342 -0.1444 -0.4172
10815SOL     OW33545   4.048   7.003   5.439 -0.0498  0.3349  0.0733
10815SOL    HW133546   4.123   6.958   5.477 -0.2362 -0.7612 -0.7964
10815SOL    HW233547   3.991   7.023   5.514 -0.4196 -1.7857  0.4173
10816SOL     OW33548   5.547   0.450   0.756  0.6151  0.4143  0.4864
10816SOL    HW133549   5.545   0.355   0.752  1.9433  0.4031 -0.7929
10816SOL    HW233550   5.464   0.477   0.716  2.1719 -0.2300 -3.6792
10817SOL     OW33551   0.461   2.321   1.028  0.2182  0.8080  0.5184
10817SOL    HW133552   0.483   2.414   1.035 -0.4277  0.9039  1.5629
10817SOL    HW233553   0.368   2.316   1.051 -0.0302  0.0267 -0.5970
10818SOL     OW33554   3.291   5.812   6.386  0.2204 -0.2084 -0.0985
10818SOL    HW133555   3.361   5.847   6.330 -1.7919  1.1243 -1.9173
10818SOL    HW233556   3.308   5.718   6.389  2.2688  0.1096 -0.2017
10819SOL     OW33557   8.997   3.412   6.720 -0.7472 -0.4444  0.0655
10819SOL    HW133558   9.057   3.344   6.750  0.8448 -0.0235 -1.9357
10819SOL    HW233559   8.984   3.468   6.796  2.1223 -0.0793  0.4007
10820SOL     OW33560   0.732   6.229   7.163 -0.1982  0.0067 -0.2031
10820SOL    HW133561   0.664   6.185   7.213 -0.0901 -0.1033 -0.1533
10820SOL    HW233562   0.806   6.236   7.223 -0.0807 -0.0927 -0.3340
10821SOL     OW33563   4.413   3.353   2.436  0.6980 -0.1619  0.2476
10821SOL    HW133564   4.347   3.284   2.438  2.8242 -2.3266  0.4159
10821SOL    HW233565   4.437   3.362   2.343  2.7981 -2.1782  0.5120
10822SOL     OW33566   7.978   7.126   0.071  0.0089  0.2129  0.6684
10822SOL    HW133567   7.898   7.174   0.050 -0.7623 -0.3702  2.1343
10822SOL    HW233568   8.045   7.194   0.082 -0.5026  0.7723  0.3710
10823SOL     OW33569   8.476   0.490   3.361  0.1045 -0.2680  0.2117
10823SOL    HW133570   8.568   0.466   3.353 -0.1714 -1.0190 -1.0311
10823SOL    HW233571   8.456   0.536   3.279 -0.5556  0.1502  0.5937
10824SOL     OW33572   5.627   8.434   2.053 -0.0963 -0.2051 -0.0947
10824SOL    HW133573   5.596   8.408   1.966 -0.7836 -0.9888  0.3704
10824SOL    HW233574   5.558   8.490   2.087  0.6849  1.0343 -0.4795
10825SOL     OW33575   6.996   6.770   6.936  0.0731 -0.3041 -0.2014
10825SOL    HW133576   7.088   6.745   6.926 -0.0814 -0.4395 -1.4440
10825SOL    HW233577   6.999   6.865   6.947  0.3614 -0.3033 -0.2607
10826SOL     OW33578   3.254   7.322   1.454 -0.2699  0.0679 -1.0084
10826SOL    HW133579   3.168   7.355   1.481 -0.2791 -0.0321 -0.9148
10826SOL    HW233580   3.242   7.227   1.447  0.2881 -0.1668  0.7533
10827SOL     OW33581   6.715   0.181   0.069  0.4371  0.3725  0.5693
10827SOL    HW133582   6.630   0.210   0.102  0.4220 -0.1275  0.9927
10827SOL    HW233583   6.778   0.244   0.104  0.5477 -0.6660  2.4253
10828SOL     OW33584   7.433   6.808   4.711  0.4364 -0.1438 -0.5103
10828SOL    HW133585   7.526   6.810   4.732  0.3797 -1.0223 -0.1637
10828SOL    HW233586   7.426   6.743   4.641 -0.1391 -1.3332  0.6273
10829SOL     OW33587   2.135   3.686   0.329 -0.4143  0.0938 -0.0190
10829SOL    HW133588   2.046   3.696   0.294 -0.2222  0.5030 -0.3920
10829SOL    HW233589   2.175   3.772   0.320 -0.4742  0.3157  1.5729
10830SOL     OW33590   7.639   6.034   1.082 -0.1938  0.3686  0.1586
10830SOL    HW133591   7.727   6.007   1.057 -0.0056  2.0351 -1.1755
10830SOL    HW233592   7.644   6.048   1.176  1.3971  1.7764 -0.0842
10831SOL     OW33593   1.830   8.306   6.002 -0.0396  0.2384  0.3342
10831SOL    HW133594   1.751   8.251   6.005 -0.3439  0.6868  0.7621
10831SOL    HW233595   1.818   8.361   5.925  0.3675 -0.4343 -0.2193
10832SOL     OW33596   0.307   1.503   5.596  0.1614  0.1325  0.1682
10832SOL    HW133597   0.279   1.594   5.593 -1.4047 -0.3387  0.0790
10832SOL    HW233598   0.360   1.497   5.676 -0.4837  0.9052  0.6663
10833SOL     OW33599   3.792   5.309   0.178  0.1903  0.0980 -0.0102
10833SOL    HW133600   3.770   5.244   0.111  2.0333  1.4667 -2.0800
10833SOL    HW233601   3.755   5.390   0.145  3.0300  1.2605 -0.6063
10834SOL     OW33602   4.132   5.609   6.192  0.2947 -0.1702 -0.0463
10834SOL    HW133603   4.076   5.684   6.212  2.2376  0.7796  2.3004
10834SOL    HW233604   4.204   5.645   6.141 -0.0815 -0.9935 -1.2216
10835SOL     OW33605   7.905   1.482   7.884 -0.0010  0.6481  0.2740
10835SOL    HW133606   7.899   1.524   7.798 -3.3349  0.6642  0.3769
10835SOL    HW233607   7.840   1.412   7.881  2.4684 -1.8511  1.5611
10836SOL     OW33608   0.790   0.849   8.743  0.0729 -0.3618 -0.2622
10836SOL    HW133609   0.852   0.777   8.727  0.9065  0.4297 -0.6927
10836SOL    HW233610   0.816   0.884   8.828 -0.8343 -1.0401  0.3212
10837SOL     OW33611   6.677   3.292   4.381 -0.0702  0.4285 -0.0892
10837SOL    HW133612   6.655   3.231   4.310 -1.9521  1.4232 -0.4322
10837SOL    HW233613   6.692   3.236   4.457  0.7006 -0.5821 -0.9539
10838SOL     OW33614   3.003   5.204   6.152 -0.6932  0.1249  0.0498
10838SOL    HW133615   3.085   5.248   6.131  1.1572 -0.3012  5.0076
10838SOL    HW233616   2.936   5.271   6.141  0.7035  1.3532 -1.3695
10839SOL     OW33617   7.464   0.546   1.824 -0.2043 -0.2271 -0.2130
10839SOL    HW133618   7.399   0.520   1.759 -0.5726  1.8793 -0.7848
10839SOL    HW233619   7.517   0.613   1.779 -0.1315  0.9058  1.4578
10840SOL     OW33620   3.380   5.038   5.558  0.6779  0.5136  0.3391
10840SOL    HW133621   3.293   5.055   5.524  1.1310  2.1243 -0.1076
10840SOL    HW233622   3.382   4.944   5.574 -1.2419  0.5040  0.7029
10841SOL     OW33623   4.502   4.296   2.701 -0.1260  0.9465 -0.6812
10841SOL    HW133624   4.470   4.375   2.744  1.2284 -0.1168  2.5487
10841SOL    HW233625   4.598   4.306   2.701 -0.0122  0.1006 -1.9472
10842SOL     OW33626   4.832   4.617   5.734  0.4757 -0.1007  0.3318
10842SOL    HW133627   4.898   4.631   5.666 -0.3395 -2.9745 -1.2156
10842SOL    HW233628   4.876   4.562   5.799  0.3900  0.3116  0.7514
10843SOL     OW33629   3.670   1.116   2.557  0.0876 -0.0859 -0.1187
10843SOL    HW133630   3.667   1.212   2.562 -2.1246 -0.1621  1.2584
10843SOL    HW233631   3.692   1.088   2.645  1.0259 -0.8626 -0.5893
10844SOL     OW33632   6.163   5.266   0.608 -0.7819  0.3592 -0.0070
10844SOL    HW133633   6.178   5.350   0.651  1.5602 -0.0138  0.0126
10844SOL    HW233634   6.137   5.206   0.678  1.0529  0.2376  0.6106
10845SOL     OW33635   3.740   4.455   6.141 -0.3455 -0.0181 -0.2284
10845SOL    HW133636   3.691   4.473   6.061  1.0254 -0.3394 -1.1850
10845SOL    HW233637   3.774   4.540   6.168 -0.7944  0.0881  0.0024
10846SOL     OW33638   0.819   8.501   7.030  0.5397 -0.3748 -0.1744
10846SOL    HW133639   0.911   8.475   7.028 -0.1718 -3.3768  0.7669
10846SOL    HW233640   0.802   8.521   7.122  0.3220  0.5020 -0.4020
10847SOL     OW33641   0.402   6.442   7.134 -0.0718 -0.8131  0.6497
10847SOL    HW133642   0.485   6.473   7.098 -1.2037  0.4673 -1.0200
10847SOL    HW233643   0.341   6.514   7.119 -1.6482 -1.9799  1.1894
10848SOL     OW33644   7.569   2.962   0.232 -0.1908 -0.0432 -0.1228
10848SOL    HW133645   7.522   3.005   0.303  0.9348  0.1725  0.5133
10848SOL    HW233646   7.646   3.017   0.218 -0.2975 -0.1782 -1.4061
10849SOL     OW33647   0.965   8.136   3.212 -0.2576  0.0377  0.0893
10849SOL    HW133648   0.915   8.143   3.131 -0.3409 -0.6696  0.0749
10849SOL    HW233649   0.915   8.186   3.276  0.6312  1.9769 -0.6619
10850SOL     OW33650   8.313   6.715   7.138  0.1851  0.4932  0.0428
10850SOL    HW133651   8.387   6.756   7.091 -0.4227  3.2441  1.2802
10850SOL    HW233652   8.347   6.698   7.225  0.6490 -2.5636 -0.6446
10851SOL     OW33653   7.386   6.106   3.226 -0.7808  0.2875  0.4342
10851SOL    HW133654   7.418   6.038   3.286 -0.9484  0.7717  1.0834
10851SOL    HW233655   7.453   6.175   3.231 -0.5689  0.1363 -0.2865
10852SOL     OW33656   6.258   8.430   1.075  0.3160  0.3878  0.4877
10852SOL    HW133657   6.231   8.485   1.147 -1.8827 -0.3069  0.2696
10852SOL    HW233658   6.253   8.486   0.998 -0.3031  0.3238  0.4814
10853SOL     OW33659   8.532   6.616   6.334  0.2382 -0.3851 -0.1320
10853SOL    HW133660   8.477   6.693   6.324 -1.8185 -1.8244 -0.6840
10853SOL    HW233661   8.485   6.546   6.288  2.2343 -1.8797 -0.0770
10854SOL     OW33662   5.686   5.873   6.918 -0.6887  0.6154 -0.2736
10854SOL    HW133663   5.657   5.790   6.882 -1.5290  2.1161 -3.4468
10854SOL    HW233664   5.771   5.854   6.957 -1.8282 -2.1084  1.1089
10855SOL     OW33665   8.029   3.762   3.825  0.2041 -0.0670 -0.3941
10855SOL    HW133666   8.088   3.714   3.883  0.2943  0.2090 -0.2567
10855SOL    HW233667   7.976   3.816   3.884 -0.7086 -0.8688 -0.4475
10856SOL     OW33668   8.711   0.192   0.073 -0.5312 -0.0498  0.3201
10856SOL    HW133669   8.727   0.286   0.065 -1.1871  0.0770  0.4438
10856SOL    HW233670   8.635   0.176   0.017  0.6679 -0.8358 -1.1547
10857SOL     OW33671   0.154   2.152   0.500 -0.2960  0.2690  0.5566
10857SOL    HW133672   0.072   2.165   0.452 -0.3043 -0.1488  0.4535
10857SOL    HW233673   0.209   2.101   0.441  0.5728  1.7026  0.0531
10858SOL     OW33674   8.271   6.936   5.095  0.1781 -0.0791  0.6423
10858SOL    HW133675   8.295   6.965   5.007 -0.3606 -1.3637  0.0553
10858SOL    HW233676   8.181   6.967   5.106 -0.4115 -1.4936 -0.0009
10859SOL     OW33677   2.445   8.978   7.786 -0.5929 -0.0686  0.3287
10859SOL    HW133678   2.500   9.027   7.726 -0.6174  0.0311  0.3880
10859SOL    HW233679   2.496   8.972   7.867 -0.0764 -1.1701 -0.0528
10860SOL     OW33680   7.584   5.301   1.710  0.0446 -0.2435 -0.0770
10860SOL    HW133681   7.550   5.389   1.725 -0.1908 -0.0577 -1.5558
10860SOL    HW233682   7.614   5.272   1.797 -0.6179  0.9592  0.5846
10861SOL     OW33683   9.108   7.958   5.568  0.2339 -0.1788 -0.1006
10861SOL    HW133684   9.062   7.876   5.548  1.0812 -0.4495 -0.9843
10861SOL    HW233685   9.110   7.962   5.664  1.5238 -1.9597 -0.0264
10862SOL     OW33686   4.625   5.768   2.095 -0.3527 -0.0135 -0.9793
10862SOL    HW133687   4.685   5.805   2.160  0.4125  1.3233 -2.3917
10862SOL    HW233688   4.545   5.821   2.103 -0.9036 -0.9368 -0.0198
10863SOL     OW33689   5.419   2.813   7.090 -0.6396 -0.0013  1.1673
10863SOL    HW133690   5.339   2.810   7.038 -1.0143  1.9515  1.5555
10863SOL    HW233691   5.490   2.815   7.025 -1.0551  1.2815  0.7152
10864SOL     OW33692   5.503   5.505   4.080 -0.0111 -0.2306  0.2915
10864SOL    HW133693   5.559   5.448   4.133 -0.3520  0.4948  1.4740
10864SOL    HW233694   5.467   5.568   4.143 -0.4267  0.6679 -0.8219
10865SOL     OW33695   3.224   4.798   0.088 -0.3753  0.1105  0.0583
10865SOL    HW133696   3.234   4.890   0.113 -2.2842  0.1584  0.8647
10865SOL    HW233697   3.285   4.751   0.144  2.1184  0.9750 -1.7382
10866SOL     OW33698   4.726   6.159   3.182 -0.9357 -0.1206 -0.0819
10866SOL    HW133699   4.666   6.231   3.161 -1.2022 -0.8055 -1.8851
10866SOL    HW233700   4.813   6.199   3.179 -1.1919  0.5375  0.9317
10867SOL     OW33701   2.321   5.395   0.252  0.0875  0.0689 -0.1225
10867SOL    HW133702   2.352   5.336   0.183 -1.5537  0.4000 -1.1961
10867SOL    HW233703   2.273   5.463   0.205  0.9738  1.6557  1.1929
10868SOL     OW33704   5.540   5.992   2.012  0.6502 -0.1446 -0.0242
10868SOL    HW133705   5.507   5.976   1.923 -0.2541  1.5160 -0.0199
10868SOL    HW233706   5.605   5.923   2.026 -2.9345 -3.8843  0.0655
10869SOL     OW33707   7.322   5.397   8.697 -0.4020 -0.3200 -0.0680
10869SOL    HW133708   7.303   5.378   8.605  0.3148  1.6767 -0.6700
10869SOL    HW233709   7.288   5.485   8.711  0.3493 -0.2272  1.3136
10870SOL     OW33710   7.605   1.468   2.928  0.3951 -0.0059  0.3877
10870SOL    HW133711   7.670   1.404   2.899 -0.8436 -0.8932 -0.5606
10870SOL    HW233712   7.637   1.552   2.893  0.5901 -0.5632 -0.8435
10871SOL     OW33713   0.069   8.309   6.151 -0.3072  0.1114 -0.2604
10871SOL    HW133714   0.092   8.342   6.238 -1.1195 -0.1573  0.0624
10871SOL    HW233715  -0.005   8.250   6.166  0.5818 -1.2279 -0.9222
10872SOL     OW33716   0.622   2.433   6.559  0.2986  0.1313 -0.0272
10872SOL    HW133717   0.563   2.401   6.491 -0.0030  0.3436  0.1296
10872SOL    HW233718   0.671   2.356   6.587  0.1173 -0.0423 -0.1842
10873SOL     OW33719   6.622   6.689   8.307  0.0896 -0.3614  0.7856
10873SOL    HW133720   6.658   6.777   8.302  0.4222 -0.5075  0.5868
10873SOL    HW233721   6.527   6.701   8.308  0.1083 -0.0502 -0.1942
10874SOL     OW33722   4.197   0.641   3.889 -0.1127 -0.3889  0.0300
10874SOL    HW133723   4.182   0.595   3.806 -0.9950  1.0414 -0.6483
10874SOL    HW233724   4.238   0.724   3.863  1.7851 -0.8835  1.2494
10875SOL     OW33725   7.789   8.468   1.245  0.5295  0.2291 -0.1148
10875SOL    HW133726   7.763   8.554   1.212 -0.1680 -0.2177 -0.7547
10875SOL    HW233727   7.778   8.475   1.340 -0.3662  0.5819 -0.2288
10876SOL     OW33728   7.465   7.877   2.435  0.6446  0.8219  0.4570
10876SOL    HW133729   7.460   7.861   2.529 -0.0878 -0.0203  0.2929
10876SOL    HW233730   7.526   7.950   2.426  0.4219  1.1720  1.6109
10877SOL     OW33731   3.275   1.612   2.318  0.4727  0.2012 -0.3960
10877SOL    HW133732   3.269   1.690   2.262  0.2223 -0.0555 -0.7305
10877SOL    HW233733   3.210   1.552   2.282  0.9182 -0.3080 -0.3652
10878SOL     OW33734   1.694   3.068   4.787 -0.0746 -0.2266  0.2156
10878SOL    HW133735   1.789   3.079   4.778 -0.1961 -0.1717 -1.1637
10878SOL    HW233736   1.658   3.095   4.702 -1.3021 -0.5528  0.6106
10879SOL     OW33737   6.399   3.383   3.548 -0.0135  0.0366  0.2035
10879SOL    HW133738   6.465   3.431   3.498 -1.4258  1.4798 -0.3376
10879SOL    HW233739   6.357   3.326   3.484 -0.7526  0.7382  0.0384
10880SOL     OW33740   7.222   4.649   6.854  1.1658  0.2898 -0.1421
10880SOL    HW133741   7.165   4.574   6.836  0.1416  1.3863 -1.6855
10880SOL    HW233742   7.280   4.653   6.779  0.0202  2.0831 -0.9824
10881SOL     OW33743   5.535   5.170   8.399 -0.1898  0.0790  0.3465
10881SOL    HW133744   5.559   5.102   8.336  3.9870  0.1311  1.5769
10881SOL    HW233745   5.520   5.122   8.481  1.2098  0.4361  0.8438
10882SOL     OW33746   7.254   4.570   7.187 -0.0819 -0.0942  0.3154
10882SOL    HW133747   7.169   4.527   7.178 -0.2148  0.1088  0.5949
10882SOL    HW233748   7.264   4.619   7.105 -0.9296  1.1021  0.8981
10883SOL     OW33749   1.545   9.047   6.492 -0.1555 -0.7448  0.4560
10883SOL    HW133750   1.603   8.973   6.475 -0.1804 -0.3620 -1.5961
10883SOL    HW233751   1.603   9.123   6.495 -0.2419 -0.7076  1.5016
10884SOL     OW33752   1.414   3.170   0.744  0.2346 -0.1322 -0.9372
10884SOL    HW133753   1.391   3.177   0.836 -2.0192  3.5606 -1.5749
10884SOL    HW233754   1.488   3.229   0.733  0.4861 -0.5420 -1.5256
10885SOL     OW33755   7.533   2.235   1.059  0.9205 -0.1174 -0.2695
10885SOL    HW133756   7.562   2.262   1.146 -0.4826 -1.6531  0.7334
10885SOL    HW233757   7.444   2.271   1.051  1.0407  0.0298 -1.0946
10886SOL     OW33758   4.019   3.870   1.056  0.4529 -0.4894  0.0851
10886SOL    HW133759   4.112   3.864   1.036  0.8219  1.1592  1.0750
10886SOL    HW233760   3.992   3.954   1.018 -0.2508 -0.2226  1.1364
10887SOL     OW33761   2.673   4.006   6.154  0.0270 -0.0159  0.2238
10887SOL    HW133762   2.684   3.912   6.169 -0.9032  0.0925  1.8915
10887SOL    HW233763   2.587   4.014   6.114  0.1926  0.1139 -0.1081
10888SOL     OW33764   4.385   5.057   2.960 -0.0213  0.5378 -0.8363
10888SOL    HW133765   4.364   5.002   2.884  1.4885  0.6574 -1.3607
10888SOL    HW233766   4.433   5.131   2.924  1.8050 -0.0155  0.3542
10889SOL     OW33767   4.230   7.306   4.813 -0.1362  0.4953  0.4066
10889SOL    HW133768   4.169   7.337   4.880  1.6332  1.2256  1.7553
10889SOL    HW233769   4.265   7.386   4.774  1.3882  0.1481  1.0199
10890SOL     OW33770   8.659   0.091   2.781  0.0979  0.0020  0.3794
10890SOL    HW133771   8.709   0.028   2.728 -0.3731 -0.5054  0.5260
10890SOL    HW233772   8.568   0.066   2.766 -0.0649  0.2922  0.8911
10891SOL     OW33773   5.226   1.566   8.620 -0.4145 -0.0964 -0.2012
10891SOL    HW133774   5.244   1.582   8.712 -1.8243 -1.7617  0.4362
10891SOL    HW233775   5.311   1.544   8.582  0.2476  1.0370  0.5910
10892SOL     OW33776   2.110   3.397   0.389  0.2817 -0.0893 -0.4924
10892SOL    HW133777   2.119   3.481   0.345 -0.1816  0.7988  1.0052
10892SOL    HW233778   2.150   3.411   0.475 -1.1552 -0.9077  0.3474
10893SOL     OW33779   7.557   1.350   2.554 -0.6402  0.1085  0.6726
10893SOL    HW133780   7.530   1.332   2.644  2.9679 -3.2471  1.3673
10893SOL    HW233781   7.634   1.406   2.562  0.0136 -0.6125 -0.2119
10894SOL     OW33782   1.715   1.265   5.943 -0.0581 -0.5286 -0.0949
10894SOL    HW133783   1.771   1.193   5.972 -1.4540 -1.8066 -0.4036
10894SOL    HW233784   1.700   1.247   5.850  0.6959  0.9724 -0.5385
10895SOL     OW33785   3.416   0.966   0.375  0.3066  0.3382 -0.0063
10895SOL    HW133786   3.486   0.973   0.310 -1.0995  1.8787 -1.4531
10895SOL    HW233787   3.461   0.955   0.458  2.1703 -2.7672 -1.2850
10896SOL     OW33788   1.293   8.016   7.289 -0.6580  0.0985  0.1191
10896SOL    HW133789   1.347   7.986   7.362 -1.2993 -0.7369  0.2671
10896SOL    HW233790   1.329   8.102   7.266 -0.0823  0.1191  1.0405
10897SOL     OW33791   8.016   1.686   0.994 -0.8077 -0.3841 -0.5884
10897SOL    HW133792   7.923   1.686   0.973 -1.1123 -0.6758  0.6888
10897SOL    HW233793   8.023   1.627   1.069  0.4044 -0.3463 -0.6604
10898SOL     OW33794   5.210   2.900   5.822 -0.4584  0.0684  0.1513
10898SOL    HW133795   5.253   2.899   5.736  0.7489  2.3354  0.6720
10898SOL    HW233796   5.117   2.895   5.802 -0.1564 -0.6485 -1.2210
10899SOL     OW33797   4.991   7.930   6.087 -0.0594  0.6385 -0.4025
10899SOL    HW133798   5.026   7.944   5.999  0.6379  1.9750  0.0696
10899SOL    HW233799   4.993   8.016   6.129  0.7621 -0.1605  1.3284
10900SOL     OW33800   1.840   6.893   5.270  0.4443 -0.2209  0.0434
10900SOL    HW133801   1.809   6.885   5.180 -0.5531 -1.7454  0.4836
10900SOL    HW233802   1.936   6.891   5.263  0.3671 -1.1700 -0.9240
10901SOL     OW33803   8.070   4.094   2.405 -0.1893 -0.4636  0.8239
10901SOL    HW133804   7.993   4.149   2.414 -1.2886 -1.1104 -3.1470
10901SOL    HW233805   8.036   4.009   2.376  1.9553 -0.7461 -1.1192
10902SOL     OW33806   8.972   1.626   3.333 -0.0416  0.5852 -0.2595
10902SOL    HW133807   9.061   1.648   3.306 -0.2489  0.2484 -1.2278
10902SOL    HW233808   8.923   1.617   3.252 -0.1697 -2.5805  0.0419
10903SOL     OW33809   0.169   0.742   1.088  0.1858 -0.4938 -0.2195
10903SOL    HW133810   0.163   0.724   0.994  1.3949 -0.8709 -0.2505
10903SOL    HW233811   0.083   0.722   1.123  0.3249 -2.4866 -0.9132
10904SOL     OW33812   0.371   4.172   7.908 -0.0307 -0.3092  0.6438
10904SOL    HW133813   0.347   4.080   7.892 -1.7434  0.2664 -0.3226
10904SOL    HW233814   0.385   4.176   8.002 -0.5515 -1.4375  0.7935
10905SOL     OW33815   0.223   5.242   8.864  0.4779  0.3496 -0.1238
10905SOL    HW133816   0.131   5.260   8.884  0.6832  0.5110  0.6782
10905SOL    HW233817   0.222   5.153   8.827 -0.0586  0.5484 -0.6092
10906SOL     OW33818   1.890   2.900   4.914 -0.0632 -0.0206 -0.3815
10906SOL    HW133819   1.802   2.936   4.912 -0.2164 -0.1877  1.5698
10906SOL    HW233820   1.909   2.887   5.007  2.9867  2.4177 -0.4663
10907SOL     OW33821   7.733   0.883   9.121 -0.0587 -0.3651  0.5228
10907SOL    HW133822   7.755   0.805   9.172 -0.9882 -0.1663  1.2651
10907SOL    HW233823   7.646   0.865   9.086  0.0987 -0.0250 -0.0573
10908SOL     OW33824   1.327   5.727   1.789 -0.6906  0.4205  0.2670
10908SOL    HW133825   1.334   5.699   1.881  0.0820  0.3273  0.1931
10908SOL    HW233826   1.384   5.804   1.784 -0.5258  0.2702 -0.1876
10909SOL     OW33827   1.630   4.504   2.946  0.6411 -0.2723  0.0311
10909SOL    HW133828   1.576   4.426   2.959 -0.4069  0.6730  1.7270
10909SOL    HW233829   1.588   4.550   2.873  0.7902 -0.8811 -0.4487
10910SOL     OW33830   3.615   6.036   3.275  0.2148  0.1372  0.3893
10910SOL    HW133831   3.607   5.953   3.226 -0.1942  0.1256  0.4689
10910SOL    HW233832   3.536   6.039   3.328 -0.7888  1.5302 -1.0771
10911SOL     OW33833   3.430   0.727   3.017 -0.6745  0.0757  0.6725
10911SOL    HW133834   3.499   0.668   2.988 -0.8898 -0.5687  1.4289
10911SOL    HW233835   3.436   0.802   2.958 -0.0060 -0.4322  0.0777
10912SOL     OW33836   1.368   8.582   2.792  0.0780 -0.1365 -0.3472
10912SOL    HW133837   1.415   8.592   2.710 -1.8941  0.5737 -1.4674
10912SOL    HW233838   1.333   8.492   2.789  1.2495 -0.6421  0.4502
10913SOL     OW33839   8.127   8.890   4.080 -0.0235  0.1719 -0.0396
10913SOL    HW133840   8.220   8.896   4.098 -0.1565 -1.4500  1.4699
10913SOL    HW233841   8.085   8.913   4.163 -1.1034  3.0189 -1.2495
10914SOL     OW33842   6.770   8.625   5.793  0.1127  0.5220 -0.0107
10914SOL    HW133843   6.713   8.548   5.787  1.2075 -0.3695  0.6999
10914SOL    HW233844   6.791   8.633   5.886  0.6268  1.2350 -0.1788
10915SOL     OW33845   8.186   2.274   7.201 -0.1714 -0.0962 -0.2863
10915SOL    HW133846   8.096   2.243   7.190  0.3505 -1.4155 -1.0881
10915SOL    HW233847   8.240   2.195   7.192  1.2445  0.9986 -2.2440
10916SOL     OW33848   4.679   8.297   6.606  0.2570 -0.7880  0.2587
10916SOL    HW133849   4.728   8.222   6.639  1.0343 -1.5175 -2.2983
10916SOL    HW233850   4.746   8.356   6.571 -0.5296 -0.5552 -0.9165
10917SOL     OW33851   7.240   0.281   7.868 -0.3250  0.2915 -0.1407
10917SOL    HW133852   7.275   0.338   7.936  0.2945  0.8876 -0.9333
10917SOL    HW233853   7.271   0.320   7.786 -0.9619 -0.4691 -0.7575
10918SOL     OW33854   4.964   1.884   0.446 -0.4632  0.0133 -0.4222
10918SOL    HW133855   4.877   1.881   0.406 -0.8212 -0.0421  0.3382
10918SOL    HW233856   5.009   1.955   0.400 -1.6625  1.5197  0.6214
10919SOL     OW33857   5.792   8.649   8.703  0.8601 -0.1786 -0.0158
10919SOL    HW133858   5.741   8.588   8.651  0.2057  2.3534 -2.5854
10919SOL    HW233859   5.854   8.688   8.641  1.8450  1.1221  1.6894
10920SOL     OW33860   2.100   6.784   5.316  0.0032  0.2050  0.2952
10920SOL    HW133861   2.109   6.692   5.290  0.1710  0.1425  0.5732
10920SOL    HW233862   2.032   6.784   5.383  1.3842 -0.0089  1.7647
10921SOL     OW33863   5.126   4.084   5.730 -0.0140  0.5110  0.1568
10921SOL    HW133864   5.166   4.093   5.817  0.4895 -0.4938  0.0406
10921SOL    HW233865   5.194   4.111   5.669 -0.2873  0.9833  0.0554
10922SOL     OW33866   5.943   1.593   3.790  0.4230  0.2809 -0.2789
10922SOL    HW133867   5.868   1.542   3.821  1.5865  0.3600  3.1874
10922SOL    HW233868   5.923   1.614   3.699 -2.5266 -1.8527 -0.2577
10923SOL     OW33869   2.883   1.624   3.122  0.3278  0.3854 -0.0334
10923SOL    HW133870   2.794   1.643   3.151  0.2765 -0.8554  0.6838
10923SOL    HW233871   2.939   1.659   3.191  0.3382  0.0669  0.1207
10924SOL     OW33872   3.167   5.326   4.202  0.1243 -0.4833 -0.1391
10924SOL    HW133873   3.206   5.340   4.289 -0.8187 -2.4867  0.6692
10924SOL    HW233874   3.146   5.233   4.200 -0.2739 -0.3944 -2.3837
10925SOL     OW33875   6.794   0.348   2.852 -0.0663  0.2628  0.4165
10925SOL    HW133876   6.820   0.301   2.773 -0.5276 -2.3996  1.7712
10925SOL    HW233877   6.719   0.401   2.825  0.2177 -0.0650 -1.0786
10926SOL     OW33878   4.386   3.693   4.983 -0.6733 -0.0828  0.4496
10926SOL    HW133879   4.325   3.662   5.050 -2.0409  1.8083  0.1383
10926SOL    HW233880   4.470   3.654   5.008 -1.1059  0.6260  3.3185
10927SOL     OW33881   4.002   5.454   3.125 -0.1093  0.2723 -0.0853
10927SOL    HW133882   3.990   5.424   3.215 -0.7050  1.2307  0.1633
10927SOL    HW233883   3.984   5.376   3.072  1.2432 -0.5712  0.6408
10928SOL     OW33884   1.651   6.837   1.857 -0.0138 -0.1068  0.2205
10928SOL    HW133885   1.640   6.908   1.920  0.6763 -0.9678  1.3550
10928SOL    HW233886   1.745   6.818   1.857  0.1279  0.3371 -1.6278
10929SOL     OW33887   0.483   1.750   7.389 -0.1848  0.5387 -0.0711
10929SOL    HW133888   0.573   1.778   7.404  0.1478 -0.9014  0.7953
10929SOL    HW233889   0.479   1.727   7.296  0.0395  1.5994 -0.3516
10930SOL     OW33890   4.866   7.011   7.509 -0.2114 -0.4521  0.2590
10930SOL    HW133891   4.802   6.982   7.573  0.2852 -2.1617  0.0260
10930SOL    HW233892   4.950   6.985   7.545  0.1024 -1.1090 -0.8756
10931SOL     OW33893   4.658   6.205   5.014  0.2574  0.1997  0.1078
10931SOL    HW133894   4.597   6.260   4.966  0.0496  0.0067  0.1504
10931SOL    HW233895   4.692   6.143   4.950 -0.3684 -0.3576  0.3041
10932SOL     OW33896   4.532   6.495   4.097  0.3018 -0.1549 -0.6165
10932SOL    HW133897   4.557   6.404   4.113 -1.0809 -0.4721 -0.2022
10932SOL    HW233898   4.545   6.507   4.002  1.4160 -0.4763 -0.5185
10933SOL     OW33899   9.133   2.471   7.701  0.3800  0.1845 -0.1579
10933SOL    HW133900   9.038   2.488   7.701  0.3619  0.1721 -1.0362
10933SOL    HW233901   9.141   2.379   7.724  0.1131 -0.0418 -0.9365
10934SOL     OW33902   4.836   5.308   2.311 -0.3154  0.0252 -0.8787
10934SOL    HW133903   4.930   5.298   2.300 -0.2215 -0.1146  0.0016
10934SOL    HW233904   4.820   5.402   2.297 -0.0310  0.0646 -0.9476
10935SOL     OW33905   0.715   9.112   7.058  0.0099 -0.4579  0.3387
10935SOL    HW133906   0.700   9.018   7.067  1.0007 -0.6072  0.6423
10935SOL    HW233907   0.776   9.133   7.129  1.6824 -0.0620 -1.1368
10936SOL     OW33908   1.313   7.527   1.555 -0.5333 -0.0392 -0.4273
10936SOL    HW133909   1.301   7.534   1.460 -1.1852 -0.9432 -0.4337
10936SOL    HW233910   1.275   7.442   1.577 -1.9037  0.8645  0.8890
10937SOL     OW33911   5.104   6.529   0.402 -0.3022 -0.3647  0.6669
10937SOL    HW133912   5.117   6.528   0.497 -0.5866  0.7464  0.7293
10937SOL    HW233913   5.193   6.538   0.366 -0.2774  0.1797  0.8623
10938SOL     OW33914   4.213   4.368   7.796  0.2683 -0.1893  0.7241
10938SOL    HW133915   4.251   4.302   7.854  1.7676  1.4174  1.6648
10938SOL    HW233916   4.278   4.438   7.794 -0.1842  0.2707 -2.1292
10939SOL     OW33917   2.398   1.195   3.455 -0.6528 -0.2111 -0.2309
10939SOL    HW133918   2.423   1.136   3.526  0.6043  0.2369 -0.2794
10939SOL    HW233919   2.391   1.139   3.378 -2.8378 -0.8498  0.3492
10940SOL     OW33920   7.711   7.106   6.471  0.1902 -0.2159 -0.1377
10940SOL    HW133921   7.799   7.135   6.493  0.6042 -0.5116 -1.3639
10940SOL    HW233922   7.712   7.012   6.487  0.8028 -0.6120 -2.3081
10941SOL     OW33923   7.562   5.313   4.768  0.4060  0.1754 -0.2730
10941SOL    HW133924   7.467   5.303   4.769  0.3514  0.2942 -1.6009
10941SOL    HW233925   7.578   5.400   4.804 -0.0866  0.6529 -1.1791
10942SOL     OW33926   2.899   8.483   3.045 -0.5775 -0.0899  0.4349
10942SOL    HW133927   2.856   8.498   3.130 -0.1888  1.0756  0.4419
10942SOL    HW233928   2.970   8.422   3.065 -1.8636 -1.6260  0.5148
10943SOL     OW33929   0.310   3.058   3.515  0.6414  0.1597 -0.3220
10943SOL    HW133930   0.393   3.064   3.467  0.1716  2.1600 -0.9994
10943SOL    HW233931   0.253   3.007   3.457  1.5223 -1.7884  0.4324
10944SOL     OW33932   2.757   1.169   8.073 -0.1981  0.5673 -0.5943
10944SOL    HW133933   2.778   1.256   8.039  0.1612 -0.2699 -2.7158
10944SOL    HW233934   2.836   1.117   8.055 -0.4287 -0.2178  0.5761
10945SOL     OW33935   1.400   4.464   4.968  0.1843 -0.1489 -0.2494
10945SOL    HW133936   1.313   4.471   5.009 -0.2894 -0.0335 -1.2531
10945SOL    HW233937   1.384   4.480   4.875  1.2053 -0.6461 -0.5231
10946SOL     OW33938   3.934   6.257   1.590  0.4121  0.3807  0.5556
10946SOL    HW133939   3.971   6.319   1.653  2.0962 -0.6731  0.6641
10946SOL    HW233940   3.934   6.305   1.507  1.8851  0.4909  0.5924
10947SOL     OW33941   6.066   1.724   3.464  0.8124 -0.2802  0.2176
10947SOL    HW133942   6.006   1.653   3.485  0.1202  0.2639  0.1092
10947SOL    HW233943   6.048   1.791   3.529  1.7418 -0.3539  0.5633
10948SOL     OW33944   5.759   1.301   6.855  0.1561 -0.2619 -0.4000
10948SOL    HW133945   5.740   1.352   6.934  2.5615  1.1257 -0.6264
10948SOL    HW233946   5.748   1.363   6.783  1.8307 -0.3776 -0.7952
10949SOL     OW33947   3.125   6.874   3.503  0.0681  0.6401 -0.3192
10949SOL    HW133948   3.133   6.804   3.438  0.8595  1.4392 -1.1146
10949SOL    HW233949   3.122   6.954   3.451  1.1481  1.3301  0.6411
10950SOL     OW33950   3.032   3.595   8.706 -0.2579  0.2606 -0.5422
10950SOL    HW133951   3.049   3.501   8.705 -0.1107  0.2815 -0.2485
10950SOL    HW233952   3.025   3.617   8.799 -1.0902  0.3979 -0.6308
10951SOL     OW33953   4.129   1.191   1.551 -0.8959 -0.3513  0.1694
10951SOL    HW133954   4.165   1.210   1.638 -1.9246 -1.4129  0.8422
10951SOL    HW233955   4.036   1.175   1.565 -1.5535  1.5924 -1.4428
10952SOL     OW33956   3.046   3.291   2.290  0.5906  0.4695 -0.8114
10952SOL    HW133957   2.996   3.228   2.238 -0.3016  0.2817  0.2262
10952SOL    HW233958   3.084   3.351   2.226  0.9685 -0.7634 -1.7832
10953SOL     OW33959   7.892   2.466   7.757  0.3220 -0.2962 -0.3246
10953SOL    HW133960   7.801   2.488   7.734 -0.5634 -2.1960  1.0887
10953SOL    HW233961   7.933   2.446   7.673 -1.1393 -1.3225 -0.8338
10954SOL     OW33962   0.017   6.708   4.886 -0.1965 -0.3575 -0.1208
10954SOL    HW133963   0.070   6.787   4.883  0.9120 -0.9565  1.9082
10954SOL    HW233964  -0.006   6.692   4.794  0.1587  1.8675 -0.6599
10955SOL     OW33965   0.085   2.870   3.022 -0.0782 -0.1965 -0.5192
10955SOL    HW133966   0.000   2.912   3.036  0.5073  0.9492 -0.2666
10955SOL    HW233967   0.085   2.846   2.929 -0.7474 -0.3909 -0.4752
10956SOL     OW33968   0.129   1.453   4.238 -0.1600  0.2716 -0.0693
10956SOL    HW133969   0.045   1.492   4.213 -0.3965  0.2139  0.6111
10956SOL    HW233970   0.111   1.359   4.245 -0.0821  0.2793  0.2475
10957SOL     OW33971   4.323   4.657   0.371  0.1520  0.1820 -1.0519
10957SOL    HW133972   4.382   4.628   0.301  0.4806  0.7009 -0.9931
10957SOL    HW233973   4.365   4.627   0.452 -0.3234 -0.5856 -1.0774
10958SOL     OW33974   1.904   1.148   3.972 -0.3744  0.2044  0.4757
10958SOL    HW133975   1.908   1.234   4.014 -0.9570  0.3699  0.1943
10958SOL    HW233976   1.868   1.165   3.885 -0.9061 -0.3807  0.5731
10959SOL     OW33977   1.417   3.120   1.669  0.7703 -0.1290  0.0866
10959SOL    HW133978   1.507   3.095   1.652  0.5911 -0.5843 -0.1989
10959SOL    HW233979   1.372   3.038   1.691  0.0456 -0.1813 -1.4704
10960SOL     OW33980   6.524   3.567   6.521  0.0905  0.8261  0.2309
10960SOL    HW133981   6.592   3.532   6.578 -1.2111 -1.4724  0.5453
10960SOL    HW233982   6.443   3.559   6.573 -0.8528  0.4486 -1.2205
10961SOL     OW33983   0.322   7.599   3.293  0.5442 -0.4801  0.0480
10961SOL    HW133984   0.418   7.594   3.296  0.5862  0.2222  0.0553
10961SOL    HW233985   0.304   7.692   3.278 -0.1382 -0.6075  0.0733
10962SOL     OW33986   6.704   3.179   2.815  0.1747  0.6454  0.2995
10962SOL    HW133987   6.647   3.245   2.855  1.7291  0.7674  2.4687
10962SOL    HW233988   6.666   3.096   2.841 -0.5100  0.6625 -0.5685
10963SOL     OW33989   1.162   3.277   0.179 -0.6713  0.0795 -0.0723
10963SOL    HW133990   1.175   3.355   0.233 -0.3230  0.6367 -0.9434
10963SOL    HW233991   1.080   3.239   0.211 -0.8067  0.7625  0.4097
10964SOL     OW33992   8.589   6.930   7.982 -0.3460 -0.5525  0.0193
10964SOL    HW133993   8.545   7.005   8.023 -2.5144 -2.2886  1.0973
10964SOL    HW233994   8.538   6.854   8.011  1.0516 -2.3541 -1.9615
10965SOL     OW33995   3.581   8.727   1.759  0.1393 -0.2558 -0.3804
10965SOL    HW133996   3.641   8.737   1.832  1.0414 -1.2677 -0.9582
10965SOL    HW233997   3.527   8.806   1.761  0.5577  0.0184  0.9862
10966SOL     OW33998   2.343   1.731   1.881 -0.0175 -0.1091 -0.2375
10966SOL    HW133999   2.247   1.736   1.879 -0.0359 -0.4665 -0.9676
10966SOL    HW234000   2.362   1.655   1.936 -0.2968 -2.0779 -2.6415
10967SOL     OW34001   7.433   0.304   6.269 -0.1488  0.3631 -0.3778
10967SOL    HW134002   7.345   0.275   6.243  0.5704 -1.1382 -1.2269
10967SOL    HW234003   7.487   0.289   6.192  0.9765  0.8171  0.3004
10968SOL     OW34004   0.076   2.772   2.777  0.2886 -0.5136  0.0875
10968SOL    HW134005   0.001   2.751   2.722  0.4061  0.0185 -0.2823
10968SOL    HW234006   0.134   2.697   2.768 -0.6130 -1.3711  1.1339
10969SOL     OW34007   3.428   6.046   6.666  0.2461 -0.5979  0.6746
10969SOL    HW134008   3.492   6.016   6.601 -0.3082 -0.3404 -0.0038
10969SOL    HW234009   3.465   6.019   6.750  1.1188 -0.6815  0.2782
10970SOL     OW34010   1.567   9.037   0.726  0.8384  0.1579 -0.7769
10970SOL    HW134011   1.513   9.000   0.656  3.0423  0.1644 -2.6040
10970SOL    HW234012   1.598   8.961   0.775  0.1648  0.0724 -0.4767
10971SOL     OW34013   6.111   0.615   4.344 -0.2197  0.2325  0.0946
10971SOL    HW134014   6.115   0.636   4.437  0.3392  1.2175 -0.1419
10971SOL    HW234015   6.200   0.629   4.311 -0.4681  0.1501 -0.6484
10972SOL     OW34016   0.173   4.695   3.221 -0.9593 -0.0449  0.0909
10972SOL    HW134017   0.204   4.609   3.251 -0.8847  0.0204  0.2016
10972SOL    HW234018   0.094   4.676   3.170 -0.3152 -0.2920 -0.8452
10973SOL     OW34019   3.244   4.577   0.453 -0.3542 -0.2678 -0.4293
10973SOL    HW134020   3.222   4.487   0.477 -1.2092  0.3549  1.2868
10973SOL    HW234021   3.272   4.571   0.362 -0.7004 -2.2153 -0.4563
10974SOL     OW34022   7.837   0.585   4.045  0.1078 -0.0368  0.2149
10974SOL    HW134023   7.764   0.526   4.024 -1.5057  2.1421 -0.7659
10974SOL    HW234024   7.854   0.631   3.964  0.9531  1.2102  1.0688
10975SOL     OW34025   2.179   3.130   0.937  0.3776 -0.2731 -0.1120
10975SOL    HW134026   2.228   3.164   1.012 -0.4819 -0.0286  0.3536
10975SOL    HW234027   2.194   3.035   0.939  0.3910 -0.2628  0.3512
10976SOL     OW34028   4.191   2.911   7.685 -0.2595 -0.1473 -0.1092
10976SOL    HW134029   4.174   2.968   7.760 -1.5062 -0.0054 -0.4737
10976SOL    HW234030   4.114   2.922   7.629  1.0205  0.4289 -1.8505
10977SOL     OW34031   2.928   7.992   8.072  0.3534  0.2271 -0.0131
10977SOL    HW134032   2.987   7.924   8.039 -2.8294 -1.9121 -1.8983
10977SOL    HW234033   2.840   7.961   8.049 -1.4497  4.3053  0.3896
10978SOL     OW34034   4.023   6.757   1.505 -0.6580  0.2787 -0.3045
10978SOL    HW134035   4.075   6.746   1.425  1.1424  0.4918  0.7629
10978SOL    HW234036   4.040   6.678   1.556 -2.3045 -0.1469 -0.3831
10979SOL     OW34037   5.230   8.087   4.905 -0.3371  0.1424 -0.2536
10979SOL    HW134038   5.142   8.104   4.872 -0.8887  1.0639  1.5854
10979SOL    HW234039   5.217   8.023   4.975  0.3171  1.0640  0.7277
10980SOL     OW34040   1.973   4.367   0.698  0.1119 -0.4459  0.1061
10980SOL    HW134041   1.991   4.396   0.609 -0.2704 -1.0791 -0.1837
10980SOL    HW234042   2.058   4.371   0.742  0.1056  0.9260  0.0361
10981SOL     OW34043   6.086   5.600   7.229  0.1346  0.1331  0.3369
10981SOL    HW134044   6.163   5.622   7.176  0.4501  0.1868  0.8161
10981SOL    HW234045   6.033   5.544   7.171  0.2125  0.6329 -0.2247
10982SOL     OW34046   8.283   2.338   2.182  0.0517 -0.2981  0.0801
10982SOL    HW134047   8.367   2.302   2.212  0.9793  1.8058  0.1395
10982SOL    HW234048   8.306   2.399   2.112 -1.4512  0.1859 -0.0282
10983SOL     OW34049   8.558   4.281   8.757  0.5678  0.0792 -0.2748
10983SOL    HW134050   8.547   4.218   8.828 -0.9643  0.9876  0.3371
10983SOL    HW234051   8.469   4.300   8.727  1.1548  0.1513 -2.0616
10984SOL     OW34052   2.539   7.298   6.452 -0.0234 -0.2371  0.1326
10984SOL    HW134053   2.566   7.293   6.360 -0.5657 -1.3054  0.0241
10984SOL    HW234054   2.474   7.230   6.462  1.3109 -1.3603  1.7687
10985SOL     OW34055   4.498   5.749   8.113 -0.6524  0.4407  0.2052
10985SOL    HW134056   4.577   5.786   8.073  0.1327 -0.3597  0.9757
10985SOL    HW234057   4.456   5.702   8.042 -0.3303  0.6943 -0.1641
10986SOL     OW34058   6.905   2.104   3.394  0.2948 -0.0252  0.3296
10986SOL    HW134059   6.996   2.079   3.377  0.7804  0.5568  1.8423
10986SOL    HW234060   6.887   2.071   3.482 -0.3670  1.3861  0.7595
10987SOL     OW34061   7.592   3.163   6.666 -0.1823  0.1171  0.4900
10987SOL    HW134062   7.576   3.158   6.760  2.0313  1.2883  0.9818
10987SOL    HW234063   7.611   3.255   6.649 -0.0253 -0.1599 -1.0264
10988SOL     OW34064   8.064   0.865   6.460  0.2720  0.1323 -0.3116
10988SOL    HW134065   8.004   0.871   6.534  2.3340  1.5092  1.3366
10988SOL    HW234066   8.028   0.925   6.395 -2.3037 -2.0699 -1.1390
10989SOL     OW34067   6.741   0.025   3.059  0.1078 -0.0163 -0.1906
10989SOL    HW134068   6.802   0.021   3.132 -0.6162 -1.0202  0.3838
10989SOL    HW234069   6.674   0.088   3.088  0.5252  0.6190 -0.5689
10990SOL     OW34070   2.532   8.037   6.556  0.2773  0.0729 -0.1238
10990SOL    HW134071   2.528   7.987   6.475 -1.5249 -1.1948  0.6937
10990SOL    HW234072   2.584   8.114   6.534 -0.7097  0.0973 -2.6515
10991SOL     OW34073   8.106   1.048   7.502  0.1973 -0.1357 -0.0655
10991SOL    HW134074   8.028   1.024   7.453  0.5768 -0.4034 -0.5452
10991SOL    HW234075   8.177   1.000   7.460  1.0861  2.1648 -1.3967
10992SOL     OW34076   7.044   8.973   8.961  0.0961  0.2597 -0.0310
10992SOL    HW134077   7.127   9.015   8.986  2.5301 -3.4585 -1.1211
10992SOL    HW234078   7.061   8.934   8.875 -2.1998 -2.0307  0.4234
10993SOL     OW34079   6.570   1.395   5.983  0.3557  0.5117  0.4685
10993SOL    HW134080   6.585   1.413   6.076 -0.0696 -0.5209  0.7513
10993SOL    HW234081   6.658   1.387   5.946  0.5384  1.6670  0.6166
10994SOL     OW34082   3.070   4.120   2.223 -0.3340 -0.3858 -0.0939
10994SOL    HW134083   3.018   4.075   2.290  1.4827  1.1852  2.5998
10994SOL    HW234084   3.081   4.209   2.257  0.5431  0.5566 -2.6282
10995SOL     OW34085   4.234   9.039   7.509 -0.8054  0.5236  0.3317
10995SOL    HW134086   4.210   8.983   7.583 -0.3931  0.7968  0.6767
10995SOL    HW234087   4.200   8.993   7.432  0.3176 -0.6659  0.5147
10996SOL     OW34088   3.619   6.836   8.438  0.4821 -0.2130 -0.3583
10996SOL    HW134089   3.709   6.847   8.408  0.8112 -0.8350  0.3601
10996SOL    HW234090   3.569   6.902   8.390  1.4884  0.8525  0.0017
10997SOL     OW34091   5.234   0.813   5.641 -0.3043 -0.2837 -0.4765
10997SOL    HW134092   5.249   0.725   5.674 -0.2506 -0.1542 -0.1520
10997SOL    HW234093   5.169   0.802   5.571 -0.2684 -0.5825 -0.4634
10998SOL     OW34094   7.691   8.714   1.155  0.2420 -0.6749 -0.0556
10998SOL    HW134095   7.694   8.809   1.167 -0.8360 -0.6311 -0.0128
10998SOL    HW234096   7.647   8.703   1.070  1.5099 -1.1154 -0.6761
10999SOL     OW34097   7.908   8.705   5.027 -0.4427 -0.0215  0.0857
10999SOL    HW134098   7.833   8.657   4.990 -1.9229  1.2941  1.2070
10999SOL    HW234099   7.878   8.734   5.113  1.8900 -0.5914  1.1628
11000SOL     OW34100   3.033   6.586   8.003 -0.0903 -0.0617 -0.2436
11000SOL    HW134101   3.049   6.509   8.057  0.3942  0.7209  0.7553
11000SOL    HW234102   3.116   6.601   7.958 -0.5294 -0.7871 -1.3486
11001SOL     OW34103   0.297   0.413   7.556 -0.0151 -0.4848  0.0503
11001SOL    HW134104   0.240   0.490   7.553  1.6948  0.9179  1.3822
11001SOL    HW234105   0.309   0.396   7.650 -0.7522 -2.7341 -0.2040
11002SOL     OW34106   4.857   1.535   4.610  0.1801  0.0637 -0.6294
11002SOL    HW134107   4.911   1.485   4.550  2.4709  0.6075  0.8591
11002SOL    HW234108   4.871   1.626   4.584 -0.2184  0.2077 -0.3550
11003SOL     OW34109   5.582   3.795   9.054  0.7499  0.1994  0.4538
11003SOL    HW134110   5.580   3.731   9.125 -0.3448  0.3508  0.5774
11003SOL    HW234111   5.595   3.743   8.975 -1.1804 -0.3148  0.4329
11004SOL     OW34112   8.908   3.137   7.712 -0.2378 -0.4240  0.0944
11004SOL    HW134113   8.842   3.207   7.709  0.9022  0.6757  0.1810
11004SOL    HW234114   8.875   3.077   7.779 -0.1685  1.1701  1.6319
11005SOL     OW34115   5.396   1.904   7.963 -0.6096 -0.6800  0.4553
11005SOL    HW134116   5.479   1.867   7.933 -0.1174  0.4597  0.3307
11005SOL    HW234117   5.418   1.946   8.046 -1.3924 -1.5856  1.1382
11006SOL     OW34118   0.601   4.259   1.487  0.3394 -0.6200 -0.2831
11006SOL    HW134119   0.625   4.262   1.394  1.7835 -0.9789  0.0599
11006SOL    HW234120   0.520   4.310   1.492 -0.1327 -1.1414 -1.8458
11007SOL     OW34121   3.456   0.444   8.674  0.2685  0.0303 -0.2061
11007SOL    HW134122   3.513   0.372   8.646 -1.3824 -1.1206 -0.7454
11007SOL    HW234123   3.433   0.422   8.764  0.9680  0.7000  0.1439
11008SOL     OW34124   1.605   6.429   7.543 -0.2505  0.5831  0.2285
11008SOL    HW134125   1.701   6.440   7.543 -0.3859  2.5180  1.7935
11008SOL    HW234126   1.583   6.418   7.635 -1.5371  0.0263 -0.1323
11009SOL     OW34127   7.924   3.770   8.393 -0.5487 -0.1602  0.2324
11009SOL    HW134128   8.009   3.813   8.403  0.2020 -1.4219 -0.4368
11009SOL    HW234129   7.866   3.816   8.453  0.2931  1.5241 -0.1885
11010SOL     OW34130   1.862   7.957   4.685 -0.0308 -0.3561  0.0447
11010SOL    HW134131   1.794   7.926   4.625 -1.3455 -0.3830  1.4768
11010SOL    HW234132   1.823   8.032   4.729  0.6359 -0.7038  1.2925
11011SOL     OW34133   6.717   4.976   6.751  0.3157  0.2775  0.6186
11011SOL    HW134134   6.742   5.061   6.714 -0.0353  0.9725  1.9192
11011SOL    HW234135   6.749   4.912   6.687  1.8203  1.3091  0.2848
11012SOL     OW34136   8.052   6.547   4.592  0.4527  0.0040 -0.0474
11012SOL    HW134137   8.137   6.509   4.571  0.4675 -0.3001  0.5336
11012SOL    HW234138   8.041   6.532   4.686 -1.0430 -1.5716 -0.4269
11013SOL     OW34139   6.381   6.207   4.995  0.1156  0.2156 -0.0106
11013SOL    HW134140   6.333   6.265   5.054  0.4953  1.6472 -1.0381
11013SOL    HW234141   6.313   6.156   4.951 -0.4081  1.2575 -0.4622
11014SOL     OW34142   0.414   6.335   7.622  0.3977  0.1178  0.5120
11014SOL    HW134143   0.419   6.326   7.717  1.4054  0.5789  0.5229
11014SOL    HW234144   0.494   6.383   7.598  0.1570  0.0223 -0.5632
11015SOL     OW34145   8.338   1.800   2.250  0.0018  0.1685  0.2664
11015SOL    HW134146   8.391   1.769   2.323 -1.0904 -0.9938  0.6025
11015SOL    HW234147   8.392   1.867   2.208  0.7011  0.7933  2.0582
11016SOL     OW34148   6.121   9.038   3.910  0.2538 -0.3372  0.0278
11016SOL    HW134149   6.046   9.046   3.969  0.2195 -0.6216  0.0249
11016SOL    HW234150   6.112   9.111   3.848 -0.2524 -0.6237 -0.2337
11017SOL     OW34151   2.324   6.931   8.533 -0.0788  0.0366 -0.2547
11017SOL    HW134152   2.238   6.947   8.493  0.3555 -0.4468 -1.4561
11017SOL    HW234153   2.349   7.014   8.572 -0.9531  0.2703 -0.1696
11018SOL     OW34154   4.088   6.976   7.479 -0.4290  0.0041 -0.2503
11018SOL    HW134155   4.119   6.890   7.449  0.5552  0.4005 -0.3914
11018SOL    HW234156   4.143   6.997   7.554  1.0450  1.6075 -1.7082
11019SOL     OW34157   6.647   0.180   6.184  0.3538 -0.0213 -0.4504
11019SOL    HW134158   6.557   0.160   6.161 -0.4566  0.3933  2.0168
11019SOL    HW234159   6.664   0.265   6.143 -0.0628 -0.5149 -1.6649
11020SOL     OW34160   4.329   6.956   5.489 -0.1896  0.6368 -0.3595
11020SOL    HW134161   4.404   6.904   5.518  0.0239  0.8432 -0.5414
11020SOL    HW234162   4.339   7.040   5.534  0.3954  1.1219 -1.3731
11021SOL     OW34163   8.123   6.163   1.242  0.6720 -0.3933 -0.3125
11021SOL    HW134164   8.080   6.098   1.187 -2.4411  1.0483  0.2486
11021SOL    HW234165   8.150   6.232   1.181 -1.8561  0.7242 -0.2678
11022SOL     OW34166   0.723   6.216   5.824  0.3080  0.6830 -0.7163
11022SOL    HW134167   0.806   6.181   5.856  0.6114  0.0826 -2.0654
11022SOL    HW234168   0.661   6.143   5.834  0.1715  0.8233 -0.5534
11023SOL     OW34169   3.969   4.066   0.049  0.2754  0.0950 -0.1500
11023SOL    HW134170   3.922   4.027   0.123 -1.7132  0.7833 -0.9865
11023SOL    HW234171   4.015   4.142   0.086  1.3758 -0.9970  0.8134
11024SOL     OW34172   1.517   0.647   0.296 -0.0643 -0.9273 -0.8171
11024SOL    HW134173   1.488   0.736   0.276  1.1258 -0.4427 -0.4695
11024SOL    HW234174   1.437   0.599   0.314 -0.8498 -0.3136 -2.4996
11025SOL     OW34175   3.329   8.976   4.568  0.2343 -0.4862  0.6777
11025SOL    HW134176   3.298   9.014   4.650 -2.0893 -0.9186  0.0603
11025SOL    HW234177   3.266   8.908   4.547  2.3215 -2.3319 -0.0734
11026SOL     OW34178   4.514   5.911   5.312  0.1596 -0.0267 -0.0822
11026SOL    HW134179   4.570   5.987   5.295 -0.1751 -0.1080 -1.7222
11026SOL    HW234180   4.574   5.836   5.311  0.4509  0.1575  1.2861
11027SOL     OW34181   4.781   9.110   2.925  0.5519 -0.1896 -0.1417
11027SOL    HW134182   4.811   9.045   2.989  0.2552  0.6986  0.9181
11027SOL    HW234183   4.690   9.086   2.908  1.0116 -1.2495 -1.3089
11028SOL     OW34184   4.627   8.777   2.229  0.2369 -0.1889  0.0133
11028SOL    HW134185   4.535   8.760   2.208  0.2392  0.8321 -0.8786
11028SOL    HW234186   4.653   8.703   2.284 -1.0857 -0.5439  0.1882
11029SOL     OW34187   3.188   1.563   8.690  0.0574 -0.1730  0.2801
11029SOL    HW134188   3.253   1.567   8.620  0.3644  0.6600  0.5995
11029SOL    HW234189   3.127   1.633   8.670 -0.6692 -0.8578  0.0645
11030SOL     OW34190   8.651   5.248   3.257  0.1619 -0.2388  0.0951
11030SOL    HW134191   8.589   5.204   3.200 -0.4721 -1.0833  1.3833
11030SOL    HW234192   8.684   5.321   3.205 -0.2165 -1.0960 -1.4055
11031SOL     OW34193   0.762   8.018   0.335  0.2109 -0.2353  0.1962
11031SOL    HW134194   0.708   8.090   0.302  0.7005  1.0510  2.0723
11031SOL    HW234195   0.701   7.964   0.385  0.4650  0.7882  1.6578
11032SOL     OW34196   6.116   3.355   1.765  0.3853 -0.0184 -0.1125
11032SOL    HW134197   6.032   3.383   1.729  0.4061  0.7465  0.4324
11032SOL    HW234198   6.164   3.321   1.689 -0.6193 -1.0090 -0.3425
11033SOL     OW34199   6.665   5.555   2.047 -0.0022 -0.1173 -0.6166
11033SOL    HW134200   6.638   5.629   2.102  0.0065  0.7865 -1.7869
11033SOL    HW234201   6.750   5.528   2.083  0.8040  1.5368 -1.1778
11034SOL     OW34202   0.759   1.339   1.194  0.1206 -0.2944 -0.8282
11034SOL    HW134203   0.847   1.345   1.157  0.6170  1.7110  0.5037
11034SOL    HW234204   0.702   1.322   1.118  1.4004  0.6873 -2.0618
11035SOL     OW34205   4.022   6.189   4.335  0.4328 -0.0633  0.0161
11035SOL    HW134206   4.077   6.261   4.365 -2.5453  2.8323 -0.8771
11035SOL    HW234207   4.042   6.181   4.242  0.2323  0.1389 -0.0450
11036SOL     OW34208   4.687   2.799   7.487  0.8608 -0.4845  0.3686
11036SOL    HW134209   4.607   2.848   7.507  0.8752  0.4720 -1.6861
11036SOL    HW234210   4.664   2.708   7.506 -0.2665 -0.0737  1.0968
11037SOL     OW34211   0.873   4.191   6.759 -0.1480  0.1385 -0.3626
11037SOL    HW134212   0.953   4.238   6.735  0.2977  0.8563  2.1448
11037SOL    HW234213   0.849   4.142   6.681  3.0338 -0.5289 -1.0594
11038SOL     OW34214   4.653   1.296   3.202 -0.1055 -0.0917 -0.0327
11038SOL    HW134215   4.593   1.232   3.239  0.7753 -0.7376  0.3316
11038SOL    HW234216   4.693   1.338   3.279  0.3306 -0.0885 -0.2555
11039SOL     OW34217   1.957   0.032   7.334  0.2250 -0.2014  0.2778
11039SOL    HW134218   1.976  -0.062   7.338 -0.4008 -0.3896 -0.7335
11039SOL    HW234219   2.016   0.071   7.399  1.1088 -1.1954  0.1133
11040SOL     OW34220   4.422   2.361   1.733 -0.3601 -0.2047  0.1572
11040SOL    HW134221   4.488   2.357   1.664 -1.2688  0.0219 -0.7521
11040SOL    HW234222   4.465   2.323   1.809  1.0394  0.5518 -0.2245
11041SOL     OW34223   7.002   1.725   4.648 -0.1322 -0.5004  0.2119
11041SOL    HW134224   7.040   1.638   4.655 -0.8568 -0.7920  0.5719
11041SOL    HW234225   6.909   1.713   4.667 -0.0377  0.5303  1.4918
11042SOL     OW34226   7.257   1.919   6.680 -0.2433  0.0813 -0.0554
11042SOL    HW134227   7.291   1.830   6.681  0.0255  0.1840  0.1860
11042SOL    HW234228   7.180   1.915   6.624  0.6943  0.0325 -1.3826
11043SOL     OW34229   2.841   8.247   8.162  0.5480 -0.0934 -0.3183
11043SOL    HW134230   2.882   8.164   8.138 -1.5700 -0.8324 -1.6476
11043SOL    HW234231   2.747   8.231   8.155 -0.0169  1.8223  1.5131
11044SOL     OW34232   5.951   3.993   5.606  0.4821  0.3967 -0.4533
11044SOL    HW134233   5.948   4.052   5.681  3.2001 -0.6854  0.6123
11044SOL    HW234234   5.863   3.998   5.568 -1.2602  0.4866  3.1680
11045SOL     OW34235   0.975   6.546   6.956  0.0746 -0.1654  0.1452
11045SOL    HW134236   1.048   6.543   7.018 -0.2982 -0.1034  0.5860
11045SOL    HW234237   0.960   6.454   6.932  2.4187  0.0045 -2.4584
11046SOL     OW34238   7.041   2.272   6.342  0.1796 -0.0485 -0.0047
11046SOL    HW134239   7.061   2.271   6.435 -3.6779 -2.3020  1.0507
11046SOL    HW234240   7.071   2.187   6.310 -1.5571 -0.7715  0.1353
11047SOL     OW34241   3.041   6.806   2.505  0.2875  0.1589 -0.2436
11047SOL    HW134242   3.096   6.728   2.499 -0.1961 -0.3301  1.0906
11047SOL    HW234243   2.966   6.777   2.557 -1.2843  0.7843 -2.0665
11048SOL     OW34244   0.430   6.152   2.428 -0.2938 -0.2076 -0.2383
11048SOL    HW134245   0.518   6.130   2.457  0.3891  0.2717 -1.8345
11048SOL    HW234246   0.399   6.216   2.491  0.6180 -0.1547  0.1657
11049SOL     OW34247   7.005   3.706   8.590  0.3387 -0.3317  0.1435
11049SOL    HW134248   6.926   3.731   8.543  0.7019  1.2202  0.2922
11049SOL    HW234249   7.027   3.784   8.642  1.5410 -0.9990  0.6712
11050SOL     OW34250   8.642   6.835   5.743  0.1534  0.0741  0.3023
11050SOL    HW134251   8.721   6.825   5.797 -0.0707  0.4296  0.7030
11050SOL    HW234252   8.571   6.848   5.806 -0.3667 -1.0666 -0.0250
11051SOL     OW34253   8.797   5.420   0.615 -0.5559  0.0536 -0.7232
11051SOL    HW134254   8.878   5.390   0.573 -0.1139 -0.1812  0.2516
11051SOL    HW234255   8.811   5.513   0.630  1.2478 -0.6333  2.9471
11052SOL     OW34256   5.843   1.044   3.456  0.3685 -0.7477 -0.1512
11052SOL    HW134257   5.783   1.119   3.455  0.7130 -0.4358  0.8673
11052SOL    HW234258   5.791   0.970   3.425  0.4065  0.1539 -2.5849
11053SOL     OW34259   6.935   3.032   2.549 -0.2608  0.4039  0.3049
11053SOL    HW134260   6.855   3.081   2.533  0.3282  0.7413 -2.0084
11053SOL    HW234261   6.911   2.941   2.530  0.0613  0.6177 -1.3294
11054SOL     OW34262   3.765   0.062   0.835  0.0523 -0.1301 -0.0003
11054SOL    HW134263   3.801  -0.018   0.798  0.4588 -0.1405  0.4097
11054SOL    HW234264   3.794   0.062   0.926 -2.1815 -0.8638  0.7932
11055SOL     OW34265   4.706   8.424   5.411 -0.4422  0.5846  0.5542
11055SOL    HW134266   4.766   8.362   5.369  0.5868  1.3181  0.8819
11055SOL    HW234267   4.653   8.370   5.470 -1.9244 -0.4623 -1.6196
11056SOL     OW34268   4.140   9.039   1.452  0.2827 -0.0612 -0.0809
11056SOL    HW134269   4.197   9.085   1.391  1.6282  1.7519  2.3707
11056SOL    HW234270   4.089   8.979   1.397 -0.9097  3.5985 -3.3961
11057SOL     OW34271   4.067   4.639   9.109 -0.2611  0.0354 -0.2464
11057SOL    HW134272   4.008   4.565   9.119  2.3018 -2.1316 -0.1043
11057SOL    HW234273   4.139   4.606   9.056  0.6424  2.6787 -0.8423
11058SOL     OW34274   1.091   5.182   6.195  0.4030 -0.4225  0.0723
11058SOL    HW134275   1.014   5.194   6.139  0.8023  0.9615 -0.2146
11058SOL    HW234276   1.068   5.109   6.253 -2.4593  1.9570  2.2272
11059SOL     OW34277   7.825   1.620   3.857  0.6034 -0.0016 -0.2807
11059SOL    HW134278   7.821   1.554   3.927  0.9984 -1.1123 -1.2603
11059SOL    HW234279   7.918   1.641   3.850  0.5194  0.4016 -0.2303
11060SOL     OW34280   2.339   5.634   7.355 -0.1615 -0.2246 -0.6237
11060SOL    HW134281   2.404   5.573   7.321 -0.7211 -1.0052 -0.3127
11060SOL    HW234282   2.363   5.647   7.446  0.4217  0.6506 -0.8927
11061SOL     OW34283   0.633   8.455   0.767  0.4627  0.2963  0.3088
11061SOL    HW134284   0.605   8.370   0.801  0.0290  0.1514 -0.3926
11061SOL    HW234285   0.725   8.442   0.744  0.7909  0.4235  1.4762
11062SOL     OW34286   1.483   8.955   3.700 -0.2269  0.2342 -0.4986
11062SOL    HW134287   1.435   8.886   3.745 -0.4844 -1.2495 -2.8549
11062SOL    HW234288   1.450   8.952   3.610  1.8493  1.4874 -1.3694
11063SOL     OW34289   7.863   6.774   4.544  0.2494  0.3479  0.1751
11063SOL    HW134290   7.908   6.845   4.499  0.4927  0.5003  0.6506
11063SOL    HW234291   7.929   6.704   4.549  0.2271  0.3366  0.3058
11064SOL     OW34292   2.272   6.282   7.275 -0.0924  0.5955  0.5336
11064SOL    HW134293   2.323   6.337   7.216  1.3712 -2.6326 -1.4667
11064SOL    HW234294   2.337   6.239   7.330 -0.9069 -0.9720  0.3269
11065SOL     OW34295   1.966   7.731   6.406  0.2543  0.0395 -0.0041
11065SOL    HW134296   1.964   7.668   6.477 -0.1125  1.6592  1.4915
11065SOL    HW234297   1.903   7.698   6.342  1.2219 -1.8833 -0.0219
11066SOL     OW34298   1.137   0.001   7.665  0.0298 -0.4618  0.1767
11066SOL    HW134299   1.048  -0.001   7.629 -0.0129 -4.1720  0.1030
11066SOL    HW234300   1.125   0.019   7.758 -0.4355  2.1803 -0.3136
11067SOL     OW34301   6.688   5.528   0.024 -0.0810  0.1890  0.2283
11067SOL    HW134302   6.620   5.581   0.066 -0.6832  1.2516 -1.9056
11067SOL    HW234303   6.640   5.459  -0.022  0.5770 -1.1175  1.4245
11068SOL     OW34304   6.662   5.908   7.521 -0.4624  0.2046 -0.7817
11068SOL    HW134305   6.604   5.846   7.478  0.0439 -1.4314  0.7897
11068SOL    HW234306   6.607   5.954   7.584 -0.2985 -0.5708 -0.0622
11069SOL     OW34307   6.019   6.723   7.559 -0.4361 -0.4148 -0.3753
11069SOL    HW134308   6.026   6.676   7.642  0.8344  0.3885 -0.0010
11069SOL    HW234309   6.095   6.782   7.558 -0.8899  0.1883 -1.7299
11070SOL     OW34310   8.916   3.706   4.309 -0.6729 -0.1645 -0.2673
11070SOL    HW134311   8.951   3.754   4.234 -1.1223  1.2581  0.4001
11070SOL    HW234312   8.827   3.682   4.282 -0.2839 -1.1005 -0.7877
11071SOL     OW34313   6.283   6.839   7.625  0.3629  0.3865  0.1247
11071SOL    HW134314   6.252   6.842   7.715  0.4832  0.2976  0.1702
11071SOL    HW234315   6.376   6.818   7.633  0.3080  0.0723 -0.0317
11072SOL     OW34316   0.792   8.861   0.436 -0.0394  0.2923  0.2455
11072SOL    HW134317   0.818   8.880   0.346 -0.1407  1.0245  0.3605
11072SOL    HW234318   0.698   8.877   0.438 -0.1765 -0.5060  0.2883
11073SOL     OW34319   6.579   6.684   8.812 -0.1363 -0.3430 -0.0069
11073SOL    HW134320   6.615   6.624   8.747  1.8752  0.4096  0.3384
11073SOL    HW234321   6.485   6.683   8.796  0.0318 -2.1562 -1.2041
11074SOL     OW34322   6.400   7.803   6.276 -0.0305  0.1007  0.4272
11074SOL    HW134323   6.316   7.784   6.235 -0.0331 -1.9465  1.2682
11074SOL    HW234324   6.433   7.880   6.229 -2.1746  0.7137 -0.1652
11075SOL     OW34325   5.335   1.315   9.033 -0.1418  0.9535 -0.3046
11075SOL    HW134326   5.395   1.334   8.961 -1.0722  0.4863 -1.2283
11075SOL    HW234327   5.354   1.225   9.059 -0.5109  0.7626 -0.6814
11076SOL     OW34328   6.847   7.994   0.565 -0.3882  0.2856 -0.3640
11076SOL    HW134329   6.838   8.075   0.615 -1.9506  0.8520 -1.4869
11076SOL    HW234330   6.880   8.021   0.480 -0.4748 -0.3138 -0.5951
11077SOL     OW34331   5.098   5.856   1.491 -0.5405 -0.0300  0.3251
11077SOL    HW134332   5.145   5.923   1.540 -3.5046  0.8512  2.2237
11077SOL    HW234333   5.046   5.810   1.557 -0.6684 -2.4224 -1.3287
11078SOL     OW34334   7.085   1.422   3.347 -0.0324 -0.4137  0.2662
11078SOL    HW134335   7.012   1.442   3.289 -0.6247 -1.6390  0.5573
11078SOL    HW234336   7.100   1.328   3.334  0.6947 -0.4248  1.1170
11079SOL     OW34337   3.456   5.575   3.925  0.1310  0.0425 -0.0200
11079SOL    HW134338   3.406   5.645   3.967 -1.3023  0.9772 -3.0114
11079SOL    HW234339   3.537   5.618   3.897  1.1891 -0.6355  1.8611
11080SOL     OW34340   7.123   1.159   3.299 -0.3303 -0.1841  0.6525
11080SOL    HW134341   7.041   1.111   3.289 -1.3580  1.2178  1.8760
11080SOL    HW234342   7.159   1.127   3.382  1.2419 -1.9397 -0.6021
11081SOL     OW34343   7.669   1.374   1.745  0.0163 -0.3954  0.3215
11081SOL    HW134344   7.665   1.410   1.834 -0.6166 -1.1339  0.6009
11081SOL    HW234345   7.758   1.395   1.716 -0.5113  1.9654  0.2043
11082SOL     OW34346   2.402   3.305   8.340  0.3618  0.1123  0.0792
11082SOL    HW134347   2.336   3.264   8.396 -0.7692  1.4984 -0.1908
11082SOL    HW234348   2.368   3.393   8.323  1.3535  0.2046 -1.6367
11083SOL     OW34349   7.158   2.771   2.649  0.2200 -0.1105 -0.0698
11083SOL    HW134350   7.211   2.843   2.682  1.2955 -0.6443 -0.5859
11083SOL    HW234351   7.160   2.706   2.719 -1.5936  0.7284  0.8271
11084SOL     OW34352   0.295   0.292   6.669 -0.2035 -0.1979  0.1164
11084SOL    HW134353   0.271   0.205   6.638  0.9652 -1.1720  1.8041
11084SOL    HW234354   0.340   0.277   6.752 -0.3788  2.0566  0.6988
11085SOL     OW34355   1.425   2.124   1.366  0.2233 -0.0890 -0.1604
11085SOL    HW134356   1.419   2.209   1.323 -0.8312 -0.6698 -1.2086
11085SOL    HW234357   1.477   2.141   1.445  0.8616  1.3139 -0.8481
11086SOL     OW34358   5.475   8.610   6.649 -0.3121 -0.5080 -0.0296
11086SOL    HW134359   5.500   8.517   6.649  1.0973 -0.1695  1.0271
11086SOL    HW234360   5.555   8.656   6.673 -0.3449  1.2153 -2.8503
11087SOL     OW34361   5.902   5.163   6.340  0.0800 -0.1457  0.2391
11087SOL    HW134362   5.968   5.147   6.273  0.1489 -0.7792  0.4554
11087SOL    HW234363   5.885   5.078   6.379 -0.8128  0.0135  0.2379
11088SOL     OW34364   6.017   3.034   2.487  0.2042  0.5480  0.5861
11088SOL    HW134365   6.041   3.086   2.411 -2.7903  2.5460  0.8248
11088SOL    HW234366   6.015   3.096   2.560  1.2433 -0.9468  1.9668
11089SOL     OW34367   1.143   5.930   2.544  0.6028 -0.0442  0.2646
11089SOL    HW134368   1.217   5.975   2.504  0.6356 -0.1579  0.1980
11089SOL    HW234369   1.173   5.906   2.632 -0.3508  2.5922  1.4118
11090SOL     OW34370   1.755   8.408   8.944  0.0201  0.2572 -0.3445
11090SOL    HW134371   1.817   8.479   8.958 -1.4176  1.6126 -0.6248
11090SOL    HW234372   1.796   8.352   8.878  0.9698  1.0637 -0.4489
11091SOL     OW34373   3.376   5.517   0.493 -0.2110 -0.0502  0.3910
11091SOL    HW134374   3.378   5.421   0.491  0.9114 -0.0409  0.5515
11091SOL    HW234375   3.410   5.544   0.408 -0.2888  0.2080  0.4415
11092SOL     OW34376   1.945   1.559   5.616 -0.0570 -0.1051 -0.0714
11092SOL    HW134377   1.852   1.539   5.606 -0.2091  0.0222  1.0136
11092SOL    HW234378   1.953   1.594   5.705  0.9848  0.1375 -0.2488
11093SOL     OW34379   1.878   5.233   8.472 -0.3987 -0.3445  0.3826
11093SOL    HW134380   1.841   5.320   8.455  2.7092  0.8346 -1.1673
11093SOL    HW234381   1.815   5.172   8.432 -1.0860  1.4380 -1.4280
11094SOL     OW34382   1.598   8.864   6.790 -0.4203  0.1039 -0.2148
11094SOL    HW134383   1.631   8.937   6.843  0.8583  0.1194 -0.9856
11094SOL    HW234384   1.503   8.874   6.792 -0.3377  0.8205  1.0501
11095SOL     OW34385   6.610   8.727   3.547  0.1055 -0.6542  0.2490
11095SOL    HW134386   6.671   8.800   3.533  0.4740 -1.0315 -0.1274
11095SOL    HW234387   6.586   8.698   3.459  0.0247 -1.0463  0.3983
11096SOL     OW34388   7.092   6.827   5.845  0.7245  0.0281 -0.0947
11096SOL    HW134389   7.113   6.803   5.935  0.4986  0.2903  0.0272
11096SOL    HW234390   7.117   6.919   5.838 -2.1170  0.9816  0.6389
11097SOL     OW34391   5.062   0.984   1.705  0.2447 -0.1896 -0.0568
11097SOL    HW134392   5.056   0.999   1.610  1.5957  0.0345 -0.1201
11097SOL    HW234393   5.101   1.063   1.740 -1.2473  0.1772  0.8620
11098SOL     OW34394   8.970   4.312   2.301  0.4624 -0.8596  0.1355
11098SOL    HW134395   9.050   4.286   2.345  1.7844  1.0891 -0.9588
11098SOL    HW234396   8.905   4.318   2.371  1.7581 -0.6117  1.3648
11099SOL     OW34397   0.815   3.936   4.293 -0.2271 -0.0236 -0.5187
11099SOL    HW134398   0.852   3.873   4.354  0.3063  0.2918 -0.5144
11099SOL    HW234399   0.864   3.923   4.212 -1.2639 -0.7895 -1.0551
11100SOL     OW34400   1.714   8.089   0.478 -0.3564 -0.0068  0.4028
11100SOL    HW134401   1.792   8.034   0.476 -1.2733 -1.3609 -0.2732
11100SOL    HW234402   1.725   8.145   0.554  0.8340 -0.8184  0.8516
11101SOL     OW34403   1.323   0.150   7.523  0.1852  0.2368  0.2058
11101SOL    HW134404   1.245   0.108   7.559 -0.8729  2.1611  0.2859
11101SOL    HW234405   1.301   0.169   7.432  1.6207 -1.6085 -0.6059
11102SOL     OW34406   6.223   8.644   1.245 -0.6379  0.6285  0.2975
11102SOL    HW134407   6.136   8.682   1.238 -1.0080 -0.2458  0.0210
11102SOL    HW234408   6.276   8.692   1.182 -1.1739  0.4780 -0.2748
11103SOL     OW34409   8.737   6.215   4.216 -0.4090 -0.4709 -0.1596
11103SOL    HW134410   8.689   6.282   4.265 -0.3239 -0.7191  0.2711
11103SOL    HW234411   8.767   6.154   4.283 -1.5043 -1.5864 -0.6599
11104SOL     OW34412   0.949   4.526   7.613 -0.2080  0.1621  0.4554
11104SOL    HW134413   0.898   4.590   7.564  0.6010 -0.8171 -1.7561
11104SOL    HW234414   0.891   4.449   7.619  0.3748 -0.3662 -0.5982
11105SOL     OW34415   1.165   8.340   7.755  0.2616  0.5360 -0.1604
11105SOL    HW134416   1.226   8.267   7.745  0.7136  0.3009  3.2653
11105SOL    HW234417   1.221   8.414   7.779 -0.5054  1.1483 -0.2171
11106SOL     OW34418   2.095   7.025   0.966  0.0113 -0.1824  0.2977
11106SOL    HW134419   2.166   7.087   0.981  0.2936 -0.6097  0.7278
11106SOL    HW234420   2.077   7.032   0.872  2.1405 -1.6800 -0.2765
11107SOL     OW34421   5.012   0.464   0.136  0.3635  0.3563 -0.4116
11107SOL    HW134422   5.022   0.391   0.197  0.4589  0.7116  0.0012
11107SOL    HW234423   5.101   0.485   0.108  0.4415  1.0732  0.3694
11108SOL     OW34424   0.126   5.548   7.444 -0.4574 -0.3246  0.4218
11108SOL    HW134425   0.164   5.580   7.526  0.2620 -1.8202  0.7147
11108SOL    HW234426   0.126   5.452   7.453 -1.7487 -0.4679 -0.7252
11109SOL     OW34427   2.054   6.124   3.570 -0.0322 -0.0997 -0.6290
11109SOL    HW134428   2.078   6.207   3.528 -0.1677  0.8963  1.1601
11109SOL    HW234429   2.138   6.088   3.601 -0.2505  1.1745  1.6878
11110SOL     OW34430   7.583   0.785   5.008 -0.1583 -0.3216  0.4479
11110SOL    HW134431   7.555   0.826   5.090  0.3251 -0.4608  0.6820
11110SOL    HW234432   7.507   0.795   4.950  0.6950  3.0019 -0.3038
11111SOL     OW34433   8.163   1.095   7.122 -0.0509  0.2323  0.0136
11111SOL    HW134434   8.196   1.132   7.040  1.1905 -0.7200  0.0595
11111SOL    HW234435   8.089   1.040   7.096  1.1361 -1.0859 -0.6387
11112SOL     OW34436   8.159   3.218   2.919 -0.6410  0.4795 -0.3970
11112SOL    HW134437   8.181   3.252   3.006 -2.0646  0.2500  0.0783
11112SOL    HW234438   8.112   3.136   2.936 -0.4330  0.1327 -1.4129
11113SOL     OW34439   6.254   3.472   2.621  0.1579  0.0886  0.0461
11113SOL    HW134440   6.163   3.449   2.605  0.5559 -1.4670 -0.1290
11113SOL    HW234441   6.275   3.432   2.705  1.3343 -1.6910 -1.0241
11114SOL     OW34442   3.270   5.260   0.704 -0.1122 -0.0042  0.5341
11114SOL    HW134443   3.294   5.279   0.614  0.1001  0.2583  0.6452
11114SOL    HW234444   3.178   5.284   0.711 -0.7238 -1.9466 -0.1697
11115SOL     OW34445   7.756   0.218   9.118  0.8041  0.4929  0.0843
11115SOL    HW134446   7.665   0.192   9.104  1.4925 -1.7450 -0.6854
11115SOL    HW234447   7.755   0.314   9.108 -1.7214  0.7588  1.8392
11116SOL     OW34448   8.164   4.999   1.860  0.0407  0.4403  0.5705
11116SOL    HW134449   8.161   4.972   1.951 -0.3400 -2.4073 -0.1808
11116SOL    HW234450   8.246   4.964   1.826 -1.1288 -1.1162 -0.8290
11117SOL     OW34451   2.063   7.818   4.825  0.3718 -0.5460  0.3707
11117SOL    HW134452   2.084   7.890   4.884 -0.8062  0.1527 -0.0282
11117SOL    HW234453   2.011   7.858   4.755  0.4205 -1.6301 -0.3118
11118SOL     OW34454   5.828   1.424   4.134  0.0028  0.6076 -0.3326
11118SOL    HW134455   5.800   1.398   4.221 -0.1750 -0.5353 -0.7153
11118SOL    HW234456   5.799   1.515   4.125 -1.2231  0.2888  0.2605
11119SOL     OW34457   3.740   0.643   1.509  0.2432  0.1874  0.3405
11119SOL    HW134458   3.648   0.642   1.482  0.2615 -1.0709  0.2874
11119SOL    HW234459   3.746   0.575   1.576  1.1415  0.2371  0.3226
11120SOL     OW34460   3.270   3.200   3.742 -0.4180  0.3341 -0.5862
11120SOL    HW134461   3.312   3.286   3.730 -0.9401  0.5219 -1.1043
11120SOL    HW234462   3.195   3.218   3.799 -1.5864  0.5649 -2.1303
11121SOL     OW34463   8.794   7.248   4.838 -0.2077  0.1122 -0.2079
11121SOL    HW134464   8.875   7.256   4.789  1.0814  0.7156  1.8971
11121SOL    HW234465   8.810   7.176   4.899 -0.7659  1.0287  1.0648
11122SOL     OW34466   2.413   6.520   6.688 -0.5779  0.1639  0.0595
11122SOL    HW134467   2.506   6.511   6.710 -0.6036  0.7741  0.4374
11122SOL    HW234468   2.377   6.573   6.759 -1.0945  0.4212 -0.3885
11123SOL     OW34469   8.866   5.674   8.663 -0.8138  0.0010 -0.8050
11123SOL    HW134470   8.931   5.741   8.684 -1.9265  0.8820 -0.1030
11123SOL    HW234471   8.870   5.613   8.736 -0.0366 -0.5486 -1.2844
11124SOL     OW34472   2.905   0.023   2.966 -0.1015 -0.2409  0.0866
11124SOL    HW134473   2.833   0.060   3.017  0.9558  0.5337  1.0535
11124SOL    HW234474   2.897   0.065   2.880 -0.9385 -0.3526  0.0998
11125SOL     OW34475   2.992   4.346   5.639 -0.2251 -0.2889  0.1509
11125SOL    HW134476   2.924   4.338   5.573  0.6868 -1.7433 -0.6709
11125SOL    HW234477   3.074   4.352   5.590  0.2726  1.8807  1.1039
11126SOL     OW34478   7.393   0.958   8.570 -0.1573 -0.4960 -0.2384
11126SOL    HW134479   7.411   0.873   8.531  1.7335  0.8883 -2.6815
11126SOL    HW234480   7.445   0.960   8.650  1.1679 -1.0224 -1.0584
11127SOL     OW34481   5.167   5.056   7.104  0.7577  0.1520  0.9351
11127SOL    HW134482   5.190   5.121   7.038  2.9528  0.6946  2.1462
11127SOL    HW234483   5.092   5.094   7.150  0.6134  0.7789  0.1886
11128SOL     OW34484   5.716   3.590   1.616 -0.2197 -0.4430 -0.3137
11128SOL    HW134485   5.672   3.556   1.693 -0.4146 -2.1742 -1.1463
11128SOL    HW234486   5.647   3.598   1.550 -0.0064  0.7300 -0.4174
11129SOL     OW34487   6.139   2.126   7.549 -0.4538  0.3047  0.1631
11129SOL    HW134488   6.052   2.104   7.581 -0.4937  1.0559  0.5781
11129SOL    HW234489   6.196   2.058   7.586 -0.7369  0.2756  0.5494
11130SOL     OW34490   4.844   6.005   4.935 -0.9089 -0.4210  0.0372
11130SOL    HW134491   4.907   6.046   4.995 -1.4580  0.6763 -0.1018
11130SOL    HW234492   4.840   5.914   4.962  0.5741 -0.4583  0.1902
11131SOL     OW34493   7.231   8.466   4.325  0.2478 -0.4036 -0.4880
11131SOL    HW134494   7.200   8.455   4.415 -1.4036  1.3823 -0.7495
11131SOL    HW234495   7.326   8.453   4.330 -0.1609 -3.8758  0.8074
11132SOL     OW34496   6.449   6.448   7.444 -0.1371  0.5164 -0.0138
11132SOL    HW134497   6.440   6.453   7.349 -0.1533 -0.4052 -0.0683
11132SOL    HW234498   6.534   6.487   7.462  0.6130 -0.7992 -0.5786
11133SOL     OW34499   3.468   2.014   4.080  0.1911  0.4125  0.1633
11133SOL    HW134500   3.444   1.980   4.166  0.4767  1.8932  0.8430
11133SOL    HW234501   3.514   1.941   4.038  2.7122  0.5401  2.3958
11134SOL     OW34502   2.229   5.146   2.164  0.2744 -0.3223 -0.1219
11134SOL    HW134503   2.310   5.104   2.135  0.1226  0.0412 -1.1079
11134SOL    HW234504   2.167   5.128   2.094 -0.4107 -0.3156  0.4779
11135SOL     OW34505   3.755   6.019   1.142 -0.1864 -0.3736 -0.4755
11135SOL    HW134506   3.839   6.044   1.181 -0.3194 -0.4875 -0.1158
11135SOL    HW234507   3.701   6.098   1.152 -0.3493 -0.5361 -0.0646
11136SOL     OW34508   4.951   6.129   2.107  0.3563  0.3724  0.0461
11136SOL    HW134509   4.887   6.175   2.053  0.7930  1.4285  0.4112
11136SOL    HW234510   4.991   6.065   2.048 -0.2859  0.4163 -0.4522
11137SOL     OW34511   5.796   1.084   1.410 -0.5804 -0.0784 -0.2519
11137SOL    HW134512   5.838   1.089   1.496  0.3516 -0.7682 -0.6642
11137SOL    HW234513   5.795   1.175   1.379 -0.3707  0.0888  0.2250
11138SOL     OW34514   4.466   4.047   5.151 -0.0245 -0.0423 -0.1018
11138SOL    HW134515   4.514   4.035   5.233 -0.7385  0.5872  0.4136
11138SOL    HW234516   4.374   4.037   5.175 -0.1955 -0.8506 -1.0156
11139SOL     OW34517   1.559   5.005   6.005 -0.1899  0.0473 -0.6074
11139SOL    HW134518   1.620   4.949   6.052  0.7205  0.1149 -1.6751
11139SOL    HW234519   1.525   4.950   5.934 -1.8545 -0.1842  0.3209
11140SOL     OW34520   6.459   2.918   0.122  0.2942 -0.8565  0.4137
11140SOL    HW134521   6.529   2.956   0.070 -0.5237 -0.4338 -0.4033
11140SOL    HW234522   6.455   2.972   0.201 -2.3028  2.4012 -1.6301
11141SOL     OW34523   0.046   3.917   0.999 -0.5297  0.2514  0.9682
11141SOL    HW134524  -0.009   3.910   0.921  0.0810  3.3627  0.1180
11141SOL    HW234525   0.063   3.826   1.025 -3.6902 -0.8342 -0.3565
11142SOL     OW34526   2.837   2.869   8.294 -0.5532  0.3755 -0.1126
11142SOL    HW134527   2.923   2.894   8.260 -0.7363 -0.0905 -0.9321
11142SOL    HW234528   2.814   2.789   8.247 -1.1038  0.0662  0.6506
11143SOL     OW34529   8.890   0.643   7.065  0.0632 -0.3817  0.2995
11143SOL    HW134530   8.919   0.604   6.982 -0.7551 -1.0596  0.3189
11143SOL    HW234531   8.971   0.655   7.114  0.3863 -1.9438  0.2202
11144SOL     OW34532   5.333   5.431   2.533 -0.7222  0.0633 -0.7182
11144SOL    HW134533   5.412   5.384   2.507 -1.8454 -1.3265 -1.7642
11144SOL    HW234534   5.262   5.371   2.514 -2.0802  1.4528 -0.2268
11145SOL     OW34535   5.869   2.161   1.476 -0.0552  0.0021  0.1831
11145SOL    HW134536   5.856   2.241   1.426 -0.8193 -0.2150  0.0303
11145SOL    HW234537   5.954   2.173   1.518  0.1665  0.5796 -0.4196
11146SOL     OW34538   7.803   1.455   6.670 -0.0483 -0.5404  0.2102
11146SOL    HW134539   7.891   1.446   6.706  0.8728 -0.0630 -1.7855
11146SOL    HW234540   7.802   1.542   6.631 -1.7429 -0.1658  0.9952
11147SOL     OW34541   4.458   3.587   2.570  0.0374 -0.3634  0.6190
11147SOL    HW134542   4.436   3.503   2.530  2.5491 -1.0697  0.5547
11147SOL    HW234543   4.460   3.569   2.664 -1.4058  0.1776  0.7830
11148SOL     OW34544   2.859   3.370   7.306  0.1057  0.2156  0.0928
11148SOL    HW134545   2.908   3.290   7.283  0.8606  0.2409  1.4945
11148SOL    HW234546   2.771   3.339   7.327  0.2040 -0.1601 -0.0324
11149SOL     OW34547   8.501   3.629   2.576  0.0220  0.5627 -0.8515
11149SOL    HW134548   8.540   3.545   2.599  0.5941  0.8687 -0.6885
11149SOL    HW234549   8.438   3.607   2.508 -2.0498 -0.4124  1.2622
11150SOL     OW34550   0.173   3.985   6.526 -0.0584 -0.0542  0.3648
11150SOL    HW134551   0.220   4.067   6.514  0.0282 -0.0253  0.8564
11150SOL    HW234552   0.131   3.994   6.612 -0.6821 -0.2168  0.0829
11151SOL     OW34553   7.574   7.180   8.655  0.2456  0.3784  0.5756
11151SOL    HW134554   7.511   7.210   8.590  3.4670  2.9073 -1.7425
11151SOL    HW234555   7.597   7.091   8.627 -1.4120 -0.1718  0.8475
11152SOL     OW34556   8.543   2.289   2.193 -0.1190 -0.8259  0.3742
11152SOL    HW134557   8.581   2.346   2.126  0.5464  0.1955  1.5903
11152SOL    HW234558   8.607   2.289   2.263 -0.7914 -1.9119  1.0114
11153SOL     OW34559   4.106   8.999   1.155 -0.0040  0.4609  0.0881
11153SOL    HW134560   4.138   8.914   1.127  1.2546  0.2132  2.0727
11153SOL    HW234561   4.030   8.980   1.209 -0.3587  0.6783 -0.3302
11154SOL     OW34562   4.415   0.258   2.421  0.1332  0.1808 -0.3303
11154SOL    HW134563   4.374   0.242   2.506  2.2697 -0.0840  0.7181
11154SOL    HW234564   4.488   0.316   2.441  2.6792 -2.4296 -1.4122
11155SOL     OW34565   7.046   8.234   6.700  0.6130  0.8193 -0.4227
11155SOL    HW134566   7.073   8.192   6.618 -0.4506 -2.7293  0.8813
11155SOL    HW234567   7.104   8.197   6.766  0.5344  2.5577  0.6805
11156SOL     OW34568   5.524   5.360   7.811 -0.1345  0.4134 -0.0955
11156SOL    HW134569   5.470   5.434   7.783  1.1393  1.1773 -0.5614
11156SOL    HW234570   5.610   5.377   7.775  0.3944 -0.8940  0.4857
11157SOL     OW34571   3.934   7.499   3.473 -0.2864 -0.4041  0.4031
11157SOL    HW134572   3.911   7.413   3.508 -1.5034 -0.3942 -0.2992
11157SOL    HW234573   3.850   7.541   3.455  0.2878  0.8315  0.4608
11158SOL     OW34574   3.874   8.363   8.585 -0.2079  0.0943  0.2465
11158SOL    HW134575   3.781   8.341   8.580 -0.4370  0.3127  2.4150
11158SOL    HW234576   3.912   8.296   8.642  0.8769  0.2580 -0.2625
11159SOL     OW34577   5.619   1.005   4.671 -0.1246 -0.3121  0.2339
11159SOL    HW134578   5.532   0.967   4.686 -0.1723 -0.2632  0.0775
11159SOL    HW234579   5.604   1.099   4.668 -0.1489 -0.3314 -0.3446
11160SOL     OW34580   2.095   5.021   1.956  0.3826 -0.2282  0.3646
11160SOL    HW134581   2.093   4.934   1.917  0.8877 -0.4518  0.8235
11160SOL    HW234582   2.003   5.049   1.955  0.3396 -0.3536 -0.6686
11161SOL     OW34583   4.976   2.676   0.533  0.3178 -0.1721  0.3525
11161SOL    HW134584   4.909   2.633   0.586  0.9753  0.1095  1.4538
11161SOL    HW234585   5.059   2.642   0.568  0.8441  1.7595  1.0836
11162SOL     OW34586   4.877   8.247   5.301  0.1065 -0.4982 -0.1103
11162SOL    HW134587   4.937   8.180   5.270  0.0633 -1.5456  1.8968
11162SOL    HW234588   4.923   8.290   5.372 -1.3625 -1.1527  1.2988
11163SOL     OW34589   0.040   4.480   2.165  0.1547  0.0594  0.3537
11163SOL    HW134590  -0.036   4.431   2.197 -1.4493  2.0155 -0.1877
11163SOL    HW234591   0.062   4.539   2.237  0.6077  0.0893  0.1903
11164SOL     OW34592   2.432   2.176   0.189 -0.4163  0.4145  0.1699
11164SOL    HW134593   2.350   2.188   0.237 -1.1482 -1.6050 -0.4636
11164SOL    HW234594   2.437   2.252   0.131 -1.3556  1.0429  0.8765
11165SOL     OW34595   7.004   7.186   1.622  0.1802 -0.2097  0.0537
11165SOL    HW134596   6.953   7.267   1.625 -0.0274 -0.3198 -0.3521
11165SOL    HW234597   7.052   7.192   1.539 -0.5178 -0.9010 -0.4139
11166SOL     OW34598   8.419   2.667   0.354  0.3490 -0.0605  0.1132
11166SOL    HW134599   8.445   2.712   0.273 -2.0010 -0.2045 -0.7954
11166SOL    HW234600   8.393   2.579   0.325 -2.2137  0.4311  0.6693
11167SOL     OW34601   5.029   7.278   0.902  0.3971 -0.5183 -0.1680
11167SOL    HW134602   5.023   7.310   0.812 -1.2465 -0.4381 -0.0550
11167SOL    HW234603   4.982   7.342   0.954 -0.2303 -1.4922  0.4972
11168SOL     OW34604   8.081   6.558   0.247 -0.2341 -0.0939 -0.4400
11168SOL    HW134605   8.073   6.476   0.295 -1.2916 -0.8804 -1.9077
11168SOL    HW234606   8.027   6.546   0.169  0.1167  1.7573 -1.0133
11169SOL     OW34607   3.719   5.884   7.768 -0.2341 -0.1223  0.4119
11169SOL    HW134608   3.634   5.855   7.801  0.2759 -0.0148  1.9047
11169SOL    HW234609   3.707   5.891   7.674 -1.6585 -0.8414  0.5140
11170SOL     OW34610   4.577   6.638   2.030  0.1713 -0.4963 -0.7824
11170SOL    HW134611   4.512   6.703   2.057  0.3524 -0.0431 -1.4118
11170SOL    HW234612   4.530   6.583   1.967  0.4922  0.0628 -1.5257
11171SOL     OW34613   5.780   1.152   0.519 -0.5765 -0.2375 -0.2312
11171SOL    HW134614   5.759   1.064   0.488  1.8522 -1.6226  1.7040
11171SOL    HW234615   5.875   1.159   0.513 -0.2947  0.7798  3.0494
11172SOL     OW34616   1.896   8.768   4.302 -0.3499  0.5851  0.2573
11172SOL    HW134617   1.829   8.777   4.235  1.2433  0.1522 -1.4641
11172SOL    HW234618   1.900   8.674   4.321  0.6871  0.4170 -0.6814
11173SOL     OW34619   7.405   5.189   1.534 -0.5203  0.2956 -0.0724
11173SOL    HW134620   7.330   5.247   1.541 -1.1803 -0.7279  2.0736
11173SOL    HW234621   7.467   5.219   1.601 -0.0521 -0.3051 -0.2155
11174SOL     OW34622   5.318   2.145   6.654  0.1201  0.0302 -0.1380
11174SOL    HW134623   5.372   2.181   6.584 -0.8049 -0.2941 -1.0480
11174SOL    HW234624   5.245   2.207   6.663  0.3048  0.1418  0.6390
11175SOL     OW34625   6.384   4.681   7.539  0.1776 -0.1930  0.4416
11175SOL    HW134626   6.334   4.601   7.525 -1.7137  0.9812  0.0870
11175SOL    HW234627   6.391   4.721   7.452 -0.3652  0.8116  0.8348
11176SOL     OW34628   0.325   4.801   0.394  0.1554  0.5309 -0.0155
11176SOL    HW134629   0.382   4.727   0.416  1.6339  0.9125 -2.2833
11176SOL    HW234630   0.289   4.778   0.309 -1.2954  1.3777  0.3356
11177SOL     OW34631   6.565   1.507   0.154  0.0726 -0.2300 -0.0568
11177SOL    HW134632   6.544   1.556   0.075  2.9171 -0.7405 -1.2455
11177SOL    HW234633   6.600   1.573   0.214  0.1567 -0.1972 -0.1413
11178SOL     OW34634   3.458   7.327   5.677 -0.3521  0.2537  0.1231
11178SOL    HW134635   3.401   7.268   5.727 -0.6286  0.6697  0.3038
11178SOL    HW234636   3.438   7.307   5.585 -1.8940  1.4113  0.1576
11179SOL     OW34637   7.067   3.253   1.712 -0.1082 -0.1090 -0.2203
11179SOL    HW134638   7.146   3.269   1.762 -0.2808 -0.7770  0.2768
11179SOL    HW234639   7.085   3.174   1.661 -0.4019 -0.1852 -0.2121
11180SOL     OW34640   3.336   8.765   1.162  0.6100  0.3255 -0.0375
11180SOL    HW134641   3.266   8.817   1.201  0.9303 -0.4642  1.6516
11180SOL    HW234642   3.294   8.722   1.087 -0.5578  0.3238  0.5950
11181SOL     OW34643   8.045   0.971   2.013  0.7993 -0.3402 -0.0767
11181SOL    HW134644   7.957   0.946   1.988  0.1105  0.9000  0.9772
11181SOL    HW234645   8.060   1.055   1.969  2.2040 -1.3885 -1.7495
11182SOL     OW34646   2.226   6.825   4.990 -0.5908  0.3838 -0.2479
11182SOL    HW134647   2.132   6.810   4.991 -0.4460 -0.6277 -0.7744
11182SOL    HW234648   2.239   6.901   5.047 -1.4639 -0.9195  1.8051
11183SOL     OW34649   1.824   4.727   8.840  0.2542  0.7377 -0.1520
11183SOL    HW134650   1.919   4.740   8.849  0.1460  1.6448 -0.2467
11183SOL    HW234651   1.795   4.799   8.785 -0.3332 -0.1514 -1.0528
11184SOL     OW34652   8.363   2.071   5.958  0.2256 -0.0898 -0.3307
11184SOL    HW134653   8.412   1.993   5.931  1.0625 -0.4173  1.9497
11184SOL    HW234654   8.298   2.038   6.020 -2.1327  0.5380 -2.3162
11185SOL     OW34655   6.730   2.624   2.619  0.8097 -0.0624  0.0779
11185SOL    HW134656   6.759   2.686   2.553  2.0173  0.4312  1.0356
11185SOL    HW234657   6.643   2.597   2.590  0.5692  1.4965 -0.7650
11186SOL     OW34658   4.548   0.160   4.814 -0.1341 -0.0583 -0.2763
11186SOL    HW134659   4.509   0.191   4.896 -1.1044 -1.8359 -0.0091
11186SOL    HW234660   4.529   0.229   4.751 -4.0058 -0.7920 -0.2013
11187SOL     OW34661   4.818   7.133   1.681 -0.3252  0.4197 -0.1688
11187SOL    HW134662   4.900   7.140   1.730 -0.1022  1.1492 -0.6299
11187SOL    HW234663   4.835   7.065   1.615 -0.4085 -0.0877  0.3165
11188SOL     OW34664   6.699   0.320   6.848  0.2083  0.1285  0.0466
11188SOL    HW134665   6.795   0.313   6.847  0.1925 -0.2703  0.4766
11188SOL    HW234666   6.678   0.380   6.777  0.7545 -0.1048 -0.3203
11189SOL     OW34667   8.253   1.757   1.685  0.1972  0.3791  0.0772
11189SOL    HW134668   8.274   1.791   1.772 -0.5016  1.4865 -0.1690
11189SOL    HW234669   8.252   1.662   1.697 -1.4810  0.5338  1.6953
11190SOL     OW34670   3.518   3.998   3.008  0.3934 -0.1255  0.0948
11190SOL    HW134671   3.594   3.984   3.065 -0.1606  0.4154  0.9954
11190SOL    HW234672   3.493   4.089   3.025 -1.2120 -0.6560  0.7756
11191SOL     OW34673   4.972   0.825   4.589  0.1795 -0.1302 -0.4605
11191SOL    HW134674   4.982   0.733   4.563  0.3476  0.3004 -2.0780
11191SOL    HW234675   5.057   0.848   4.627  0.4850 -0.3846 -0.9735
11192SOL     OW34676   2.775   2.162   7.472 -0.4173  0.6248  0.4221
11192SOL    HW134677   2.852   2.179   7.418  2.0293 -1.6479  2.8422
11192SOL    HW234678   2.712   2.120   7.413  1.3901 -0.1410 -1.0703
11193SOL     OW34679   0.105   0.138   4.518  0.3025  0.1570 -0.1581
11193SOL    HW134680   0.067   0.224   4.535  2.2631  1.0330  0.0938
11193SOL    HW234681   0.195   0.157   4.488  0.1242 -1.7265 -2.1490
11194SOL     OW34682   0.482   2.934   5.209 -0.3623 -0.1643 -0.0519
11194SOL    HW134683   0.446   2.862   5.260 -2.1903  0.6561 -0.1302
11194SOL    HW234684   0.412   2.960   5.150  1.0324  0.2155 -1.6320
11195SOL     OW34685   0.265   1.477   2.862 -0.5102  0.5406  0.4120
11195SOL    HW134686   0.208   1.520   2.926 -0.9658  0.8013 -0.1658
11195SOL    HW234687   0.352   1.511   2.882 -0.1843 -1.3326  2.5928
11196SOL     OW34688   5.134   5.839   6.005 -0.8151  0.0346  0.1378
11196SOL    HW134689   5.155   5.920   5.958 -1.8249  0.1025 -0.2250
11196SOL    HW234690   5.060   5.863   6.061 -0.2143 -0.2834  1.0788
11197SOL     OW34691   0.037   9.078   5.888  0.6061 -0.1549 -0.0576
11197SOL    HW134692   0.003   8.989   5.895 -1.2208  0.1784 -2.9352
11197SOL    HW234693  -0.030   9.133   5.928  0.9012  0.0481  0.1605
11198SOL     OW34694   6.914   2.351   3.261 -0.4931  0.0384 -0.2778
11198SOL    HW134695   6.982   2.400   3.307 -1.2687  2.1564 -1.2511
11198SOL    HW234696   6.900   2.273   3.314  3.4018 -1.0602 -0.5948
11199SOL     OW34697   1.923   0.513   5.386  0.4195 -0.2996 -0.5359
11199SOL    HW134698   1.986   0.527   5.457  1.0912 -1.6379 -0.8336
11199SOL    HW234699   1.924   0.419   5.371 -0.2259 -0.1227 -1.8577
11200SOL     OW34700   1.990   5.728   6.873  0.5653 -0.2539  0.1925
11200SOL    HW134701   2.082   5.752   6.880  0.0260  2.2018 -0.0768
11200SOL    HW234702   1.961   5.717   6.964  0.6497  1.0735  0.3924
11201SOL     OW34703   7.808   2.742   1.068  0.0875  0.4412 -0.6236
11201SOL    HW134704   7.877   2.704   1.122 -0.4673 -0.6193 -0.6202
11201SOL    HW234705   7.728   2.728   1.119  0.0019  2.8572 -0.0093
11202SOL     OW34706   6.222   1.698   2.145  0.4181 -0.1320  0.3816
11202SOL    HW134707   6.264   1.616   2.168 -1.1194 -0.6075  1.6929
11202SOL    HW234708   6.253   1.761   2.211  0.8079  0.0951 -0.0122
11203SOL     OW34709   2.751   0.074   6.158  0.4832 -0.1554 -0.2496
11203SOL    HW134710   2.800   0.143   6.114  2.1781 -1.3595 -0.3239
11203SOL    HW234711   2.808  -0.003   6.155  0.8369 -0.3259  4.1516
11204SOL     OW34712   4.728   5.016   3.940 -0.0773 -0.1205  0.1810
11204SOL    HW134713   4.726   4.924   3.917 -1.1544 -0.2586  0.7417
11204SOL    HW234714   4.815   5.047   3.912  0.6196 -1.4923  0.7623
11205SOL     OW34715   0.187   0.433   1.308 -0.3436 -0.2361 -0.2025
11205SOL    HW134716   0.264   0.425   1.252  1.0859  0.4418  1.5788
11205SOL    HW234717   0.204   0.510   1.362 -1.1423 -1.4845  1.9223
11206SOL     OW34718   4.707   8.666   6.688  0.2147  0.1458  0.5482
11206SOL    HW134719   4.615   8.668   6.714  0.4904  1.9338  1.5370
11206SOL    HW234720   4.708   8.703   6.600 -0.0699 -0.4327  0.2988
11207SOL     OW34721   7.347   7.733   7.597 -0.0568  0.2283  0.7232
11207SOL    HW134722   7.352   7.692   7.683  0.7880  0.2854  0.7168
11207SOL    HW234723   7.337   7.660   7.536 -1.6373  0.2524  0.9317
11208SOL     OW34724   1.067   3.770   8.677  0.9595 -0.0922  0.3667
11208SOL    HW134725   1.098   3.776   8.768  0.9086 -0.0373  0.3806
11208SOL    HW234726   1.110   3.842   8.632  0.5790  0.2003  0.4652
11209SOL     OW34727   3.278   5.472   3.318  0.0306  0.1507 -0.0153
11209SOL    HW134728   3.319   5.479   3.404  1.1704 -1.7873 -0.3703
11209SOL    HW234729   3.343   5.505   3.257 -0.3228  0.3928 -0.2703
11210SOL     OW34730   5.361   0.106   1.172 -0.2978 -0.0469 -0.2453
11210SOL    HW134731   5.446   0.089   1.132 -1.6930 -1.0460 -3.0697
11210SOL    HW234732   5.343   0.027   1.223  0.0892 -0.2291 -0.3845
11211SOL     OW34733   6.396   4.398   5.950 -0.2853  0.1357  0.2067
11211SOL    HW134734   6.468   4.399   5.887  0.4292 -0.1848  0.9892
11211SOL    HW234735   6.326   4.349   5.907 -0.2495  0.8961 -0.7713
11212SOL     OW34736   8.809   8.768   3.897  0.4098  0.1626 -0.0650
11212SOL    HW134737   8.855   8.827   3.956  2.5472 -1.6715  0.2282
11212SOL    HW234738   8.717   8.794   3.904  0.8514  1.3541  2.4433
11213SOL     OW34739   5.331   7.623   6.175 -0.0063  0.0702 -0.1827
11213SOL    HW134740   5.377   7.619   6.259 -2.7028 -0.7343  1.3723
11213SOL    HW234741   5.252   7.570   6.188 -1.7851  1.9660 -2.4032
11214SOL     OW34742   7.377   1.599   2.485 -0.2145  0.8484  0.3178
11214SOL    HW134743   7.463   1.613   2.526  1.0154 -0.5223 -1.5975
11214SOL    HW234744   7.315   1.607   2.557  1.5222  1.6980  1.8277
11215SOL     OW34745   7.223   0.336   0.156 -0.4070 -0.1813 -0.2955
11215SOL    HW134746   7.250   0.382   0.236 -1.4591  0.3107 -0.2042
11215SOL    HW234747   7.251   0.246   0.170 -0.6028 -0.1089  0.6407
11216SOL     OW34748   3.075   4.918   3.598  0.3425 -0.2095 -0.5090
11216SOL    HW134749   3.078   4.920   3.503  0.4063  1.3929 -0.4929
11216SOL    HW234750   3.143   4.855   3.623  0.3898 -0.5711 -1.5040
11217SOL     OW34751   5.680   5.754   3.537  0.0220 -0.1390 -0.2481
11217SOL    HW134752   5.712   5.673   3.497 -0.3571 -0.6424  0.4362
11217SOL    HW234753   5.757   5.809   3.546  0.4360 -0.7626  0.0575
11218SOL     OW34754   3.131   4.875   4.966  0.5740 -0.4453  0.1973
11218SOL    HW134755   3.213   4.905   5.005  1.1624 -0.3979 -1.0139
11218SOL    HW234756   3.158   4.829   4.886 -0.5668 -0.6664 -0.0849
11219SOL     OW34757   3.570   6.483   4.905  0.3200  0.1031  0.3316
11219SOL    HW134758   3.614   6.400   4.924  0.7607 -0.0462 -1.2522
11219SOL    HW234759   3.480   6.458   4.883  0.4254  0.0461 -0.0429
11220SOL     OW34760   7.439   4.223   2.450  0.2761 -0.4674 -0.0126
11220SOL    HW134761   7.419   4.177   2.368  1.2815  0.9325 -1.0921
11220SOL    HW234762   7.459   4.153   2.512 -2.7477 -1.6970 -0.2449
11221SOL     OW34763   7.286   2.769   0.317 -0.6207 -0.3653 -0.0687
11221SOL    HW134764   7.365   2.823   0.312 -0.2935 -0.8948 -0.9400
11221SOL    HW234765   7.221   2.826   0.356  0.0257  0.2901  0.0816
11222SOL     OW34766   3.387   9.109   0.490 -0.2220 -0.5705  0.1875
11222SOL    HW134767   3.445   9.148   0.554 -1.5549  1.1296  0.4434
11222SOL    HW234768   3.331   9.181   0.461 -2.6219 -2.2176  0.4330
11223SOL     OW34769   2.536   7.597   5.835  0.1510  0.1944  0.4015
11223SOL    HW134770   2.528   7.573   5.927 -0.9762  0.0885  0.2941
11223SOL    HW234771   2.453   7.640   5.814  0.3211  0.0675 -0.6036
11224SOL     OW34772   9.080   8.224   8.673 -0.4112  0.5783 -0.7648
11224SOL    HW134773   9.145   8.268   8.727  1.0998 -1.9623 -0.3624
11224SOL    HW234774   9.059   8.144   8.720 -1.6731 -0.0651 -2.3070
11225SOL     OW34775   2.772   5.770   1.341 -0.0227 -0.0899 -0.0837
11225SOL    HW134776   2.757   5.700   1.277 -0.9389  0.2552 -0.2481
11225SOL    HW234777   2.848   5.818   1.307  0.2827 -0.6759 -0.2434
11226SOL     OW34778   7.290   5.769   3.051  0.3878 -0.5375  0.1196
11226SOL    HW134779   7.373   5.815   3.042  1.1863 -1.8496  0.4743
11226SOL    HW234780   7.252   5.771   2.963  0.4530  0.6673  0.1071
11227SOL     OW34781   5.038   3.361   3.644 -0.3310  0.2830  0.0043
11227SOL    HW134782   4.968   3.415   3.608 -0.5601  1.2524  1.7682
11227SOL    HW234783   5.067   3.306   3.571 -1.7302  1.0995 -1.2112
11228SOL     OW34784   2.609   0.448   1.989  0.0100 -0.0598  0.0517
11228SOL    HW134785   2.653   0.467   1.906 -0.9255  0.3650 -0.3591
11228SOL    HW234786   2.526   0.496   1.984  0.0261  0.1287  1.3207
11229SOL     OW34787   5.182   6.619   4.171 -0.4722  0.0274 -0.3037
11229SOL    HW134788   5.183   6.581   4.083 -0.5023  1.2365 -0.8377
11229SOL    HW234789   5.234   6.699   4.164  0.1880 -0.2574  0.9741
11230SOL     OW34790   5.413   5.469   8.677 -0.2066 -0.0524  0.4085
11230SOL    HW134791   5.376   5.533   8.737  0.7346  2.1032 -1.1771
11230SOL    HW234792   5.504   5.496   8.665  0.1090 -1.4281 -0.6640
11231SOL     OW34793   3.389   6.556   0.009  0.1713  0.3460  0.5071
11231SOL    HW134794   3.347   6.470   0.008 -0.0550  0.4590 -0.0029
11231SOL    HW234795   3.473   6.542  -0.035 -0.0578  0.4741  0.0144
11232SOL     OW34796   4.848   5.278   2.978  0.0129 -0.2849 -0.6192
11232SOL    HW134797   4.892   5.360   2.999 -0.4616  0.1644 -1.3228
11232SOL    HW234798   4.805   5.251   3.060  1.7827 -0.8822  0.1510
11233SOL     OW34799   2.514   7.932   4.985 -0.5576  0.2070 -0.2988
11233SOL    HW134800   2.475   8.018   4.965  0.5266  0.4334 -1.5094
11233SOL    HW234801   2.477   7.910   5.071 -1.5784  1.4526 -0.3726
11234SOL     OW34802   1.628   2.337   7.010 -0.0090 -0.3527  0.6211
11234SOL    HW134803   1.658   2.315   7.098 -0.2555 -3.0266  0.1230
11234SOL    HW234804   1.560   2.273   6.991  0.4815 -0.2646 -1.7402
11235SOL     OW34805   5.450   8.929   3.366  0.4472  0.1655 -0.4376
11235SOL    HW134806   5.391   8.992   3.408  0.6674 -0.6529  1.1867
11235SOL    HW234807   5.531   8.934   3.417  0.7290 -0.8983 -0.7471
11236SOL     OW34808   4.890   7.644   7.807  0.4144  0.0508 -0.1948
11236SOL    HW134809   4.914   7.621   7.718  0.4566  0.5196 -0.3068
11236SOL    HW234810   4.972   7.638   7.857  0.0786 -1.9560  0.1988
11237SOL     OW34811   0.077   7.423   1.810 -0.2531 -0.2982  0.2379
11237SOL    HW134812   0.091   7.466   1.894  1.2713  0.3031 -0.2880
11237SOL    HW234813  -0.018   7.423   1.799 -0.6546 -2.1525  2.8371
11238SOL     OW34814   1.846   6.791   6.465 -0.1594  0.0051  0.4159
11238SOL    HW134815   1.790   6.866   6.482 -0.7200 -0.3598  0.1895
11238SOL    HW234816   1.787   6.722   6.436  0.6263  0.3315 -2.2456
11239SOL     OW34817   1.750   5.849   7.801 -0.2461 -0.2335  0.3458
11239SOL    HW134818   1.808   5.884   7.869 -2.3145 -0.1921  2.1906
11239SOL    HW234819   1.730   5.760   7.830 -2.1518  0.2052  0.4898
11240SOL     OW34820   6.457   7.179   2.387 -0.0326  0.1077 -0.2167
11240SOL    HW134821   6.489   7.193   2.476 -0.6038  0.1525 -0.0161
11240SOL    HW234822   6.428   7.266   2.358 -2.0784 -0.3087  0.4389
11241SOL     OW34823   2.065   5.763   3.591 -0.4616  0.3116  0.0232
11241SOL    HW134824   2.053   5.681   3.542  0.3247 -1.0168  1.9294
11241SOL    HW234825   2.121   5.817   3.535 -1.1557 -0.3409 -1.3602
11242SOL     OW34826   2.797   2.948   6.470  0.2265 -0.3695 -0.0769
11242SOL    HW134827   2.771   2.856   6.474 -0.1632 -0.2220  0.8085
11242SOL    HW234828   2.729   2.995   6.517  0.8547  0.2790  0.2080
11243SOL     OW34829   4.823   7.834   8.222 -0.1259 -0.0896 -0.4009
11243SOL    HW134830   4.775   7.899   8.171 -0.5729  1.3713  1.7196
11243SOL    HW234831   4.755   7.773   8.252 -0.2063  0.2490  0.1218
11244SOL     OW34832   6.504   1.749   7.339  0.0853  0.1973 -0.3350
11244SOL    HW134833   6.533   1.821   7.283 -1.6302  1.9350  0.8703
11244SOL    HW234834   6.414   1.731   7.310  0.1491 -0.7810  0.0420
11245SOL     OW34835   7.771   1.446   4.097  0.2424 -0.6046  0.2340
11245SOL    HW134836   7.834   1.415   4.162  0.4917 -1.0594 -0.2175
11245SOL    HW234837   7.693   1.392   4.112  0.1964 -0.5102  0.3409
11246SOL     OW34838   7.617   1.021   1.069 -0.3582 -0.1508  0.2907
11246SOL    HW134839   7.685   0.957   1.046 -1.0637 -1.1999  1.0465
11246SOL    HW234840   7.665   1.101   1.089  0.7752 -1.1940  1.9551
11247SOL     OW34841   5.911   8.118   1.779  0.3449 -0.7335 -0.6089
11247SOL    HW134842   5.901   8.118   1.684  0.9546  0.1375 -0.6836
11247SOL    HW234843   5.967   8.193   1.797  0.9922 -1.4321  0.3655
11248SOL     OW34844   3.794   4.383   4.373  0.1240 -0.1180 -0.3580
11248SOL    HW134845   3.790   4.329   4.294 -0.0488  1.0619 -1.1796
11248SOL    HW234846   3.704   4.413   4.385  0.1716 -0.2025  0.2453
11249SOL     OW34847   6.387   2.857   7.112  0.0172 -0.4009  0.0894
11249SOL    HW134848   6.434   2.862   7.029  0.0906  0.2536  0.1715
11249SOL    HW234849   6.295   2.856   7.087  0.0383 -2.7035 -0.1353
11250SOL     OW34850   5.260   1.320   3.460  0.2456  0.1770  0.1189
11250SOL    HW134851   5.167   1.338   3.445 -0.1231 -1.6027  0.1104
11250SOL    HW234852   5.280   1.245   3.404  2.0527  1.3365 -0.8866
11251SOL     OW34853   7.043   1.125   7.026 -0.0602 -0.0838  0.0549
11251SOL    HW134854   7.057   1.127   6.932  2.2087 -3.0591  0.1579
11251SOL    HW234855   7.095   1.198   7.060 -0.6945  0.8572 -0.9238
11252SOL     OW34856   6.331   4.028   4.735  0.3538 -0.4999 -0.4444
11252SOL    HW134857   6.397   3.966   4.765  0.9214  0.1276 -0.3964
11252SOL    HW234858   6.313   4.001   4.645  0.5927 -0.7397 -0.4230
11253SOL     OW34859   7.432   1.250   6.765 -0.1303  0.5502  0.7414
11253SOL    HW134860   7.375   1.218   6.835 -0.8263  0.5219  0.1690
11253SOL    HW234861   7.437   1.177   6.703 -1.8966  1.5519 -0.6849
11254SOL     OW34862   8.353   3.748   1.996  0.6330 -0.2624 -0.2331
11254SOL    HW134863   8.333   3.827   2.046 -1.0831 -0.5985 -0.3236
11254SOL    HW234864   8.286   3.685   2.022  0.9083 -1.1042 -1.4553
11255SOL     OW34865   5.225   6.525   1.074  0.0336  0.0214 -0.3846
11255SOL    HW134866   5.169   6.552   1.147 -0.2396 -2.8159  0.5568
11255SOL    HW234867   5.166   6.522   0.999 -0.1914  0.7154 -0.2465
11256SOL     OW34868   6.616   6.989   1.218 -0.4699  0.0374  0.3718
11256SOL    HW134869   6.668   7.017   1.294  0.8822  0.9808 -0.8382
11256SOL    HW234870   6.552   7.059   1.206 -0.1169  0.3328  0.1516
11257SOL     OW34871   5.096   6.383   6.188  0.4923  0.2653 -0.3075
11257SOL    HW134872   5.113   6.451   6.122 -0.7648 -2.5601 -3.9267
11257SOL    HW234873   5.003   6.391   6.207  0.5705  0.2445  0.0764
11258SOL     OW34874   1.015   1.558   3.124  0.4490 -0.6178  0.6283
11258SOL    HW134875   0.938   1.600   3.162  0.9812 -0.6122  1.7526
11258SOL    HW234876   1.022   1.474   3.170 -0.2025 -1.6952 -1.1087
11259SOL     OW34877   5.337   6.785   0.538  0.0809  0.0734 -0.0763
11259SOL    HW134878   5.343   6.802   0.444 -0.4904 -0.2190 -0.1705
11259SOL    HW234879   5.254   6.825   0.564  1.4895  2.6334  0.8622
11260SOL     OW34880   4.193   8.595   6.775 -0.2315  0.4534  0.0222
11260SOL    HW134881   4.165   8.504   6.787  1.0333  0.1263  0.7299
11260SOL    HW234882   4.116   8.640   6.741 -1.1835 -0.6658  0.6240
11261SOL     OW34883   6.378   1.399   6.491 -0.6052 -0.1391 -0.9220
11261SOL    HW134884   6.444   1.469   6.489 -1.1165  0.4032  0.3579
11261SOL    HW234885   6.319   1.423   6.562 -2.0655 -0.7475 -1.8724
11262SOL     OW34886   6.219   2.337   8.231 -0.3811 -0.0247  0.3425
11262SOL    HW134887   6.125   2.349   8.246 -0.4558  0.3629 -0.3957
11262SOL    HW234888   6.226   2.306   8.141  0.2611  0.9903  0.0208
11263SOL     OW34889   5.010   3.719   8.484 -0.4005  0.1569  0.4438
11263SOL    HW134890   4.922   3.733   8.450  0.2853  0.1461 -1.4693
11263SOL    HW234891   5.053   3.804   8.476  0.7580 -0.5512 -1.9124
11264SOL     OW34892   5.404   1.145   0.921  1.0383  0.4125 -0.0898
11264SOL    HW134893   5.475   1.206   0.900 -0.3680  1.5709 -1.7705
11264SOL    HW234894   5.326   1.186   0.883 -1.0794  0.5597  3.9415
11265SOL     OW34895   1.349   4.812   7.430 -0.2331  0.4169 -0.4510
11265SOL    HW134896   1.378   4.805   7.339  2.4238 -0.2821  0.3561
11265SOL    HW234897   1.314   4.725   7.450  1.8877 -0.3943 -0.0284
11266SOL     OW34898   8.382   1.583   0.474  0.2593  0.0273  0.4790
11266SOL    HW134899   8.329   1.612   0.399  0.4389 -0.0995  0.3004
11266SOL    HW234900   8.330   1.513   0.514  0.3413 -0.1722  0.2382
11267SOL     OW34901   7.731   0.080   3.313 -0.1299 -0.0831 -0.3669
11267SOL    HW134902   7.716   0.171   3.337  1.4893  0.0313  0.3310
11267SOL    HW234903   7.807   0.053   3.365 -1.0425 -2.0804  0.0367
11268SOL     OW34904   0.112   8.038   7.107  0.1097  0.1674 -0.3416
11268SOL    HW134905   0.113   8.075   7.196 -0.1322  1.2943 -0.7906
11268SOL    HW234906   0.202   8.010   7.091 -0.1679 -1.6643  0.8841
11269SOL     OW34907   1.340   6.899   2.148 -0.6125  0.2115  0.2505
11269SOL    HW134908   1.373   6.964   2.085 -0.0252 -0.2692  0.0592
11269SOL    HW234909   1.395   6.911   2.225  0.3369 -0.9054 -0.2334
11270SOL     OW34910   2.154   0.445   5.982  0.0535 -0.1363 -0.0105
11270SOL    HW134911   2.126   0.454   5.892  1.0267  0.1281 -0.3001
11270SOL    HW234912   2.154   0.534   6.017 -0.8550 -0.2927  0.4340
11271SOL     OW34913   9.122   8.296   6.848  0.2488  0.2021 -0.3328
11271SOL    HW134914   9.159   8.223   6.898  1.7834 -0.0738 -1.7861
11271SOL    HW234915   9.136   8.372   6.904 -0.1594 -0.4072  0.6298
11272SOL     OW34916   8.194   5.185   3.404 -0.6180  0.6333  0.2891
11272SOL    HW134917   8.251   5.261   3.400 -0.3051  0.3718 -2.2759
11272SOL    HW234918   8.252   5.113   3.430  0.1439  0.5138 -1.5517
11273SOL     OW34919   5.171   4.375   4.352 -0.0958 -0.4695  0.1297
11273SOL    HW134920   5.228   4.303   4.378 -1.6752 -1.4502  1.1041
11273SOL    HW234921   5.201   4.450   4.404  2.6448  0.1423 -2.1122
11274SOL     OW34922   4.453   2.614   0.653  0.4998  0.3957 -0.6592
11274SOL    HW134923   4.418   2.645   0.569 -0.2467 -1.2411 -0.9839
11274SOL    HW234924   4.548   2.626   0.645  0.6738 -1.5570 -2.5989
11275SOL     OW34925   5.917   0.035   5.407 -0.1804 -0.3875  0.1223
11275SOL    HW134926   5.878   0.005   5.490 -0.6873 -1.0677 -0.3435
11275SOL    HW234927   5.885  -0.028   5.342 -0.3447  0.5317 -0.7084
11276SOL     OW34928   6.530   7.511   4.450  0.2098 -0.2832  0.1213
11276SOL    HW134929   6.434   7.509   4.440 -0.2198  2.3510  2.4005
11276SOL    HW234930   6.550   7.433   4.501 -0.7142 -0.8848 -0.3990
11277SOL     OW34931   8.154   0.584   0.601  0.1356 -0.4773 -0.2667
11277SOL    HW134932   8.086   0.625   0.654  0.3747 -0.2021 -0.1735
11277SOL    HW234933   8.180   0.651   0.538  0.4219 -0.5353 -0.2100
11278SOL     OW34934   6.625   2.988   4.770  0.3185  0.2871 -0.1597
11278SOL    HW134935   6.543   2.938   4.763  0.3147  0.4272 -1.4695
11278SOL    HW234936   6.692   2.922   4.789  0.1270 -0.0458 -0.6296
11279SOL     OW34937   7.007   5.962   1.125  0.5345 -0.3090 -0.5392
11279SOL    HW134938   7.042   6.005   1.203  2.2428  1.0532 -1.9988
11279SOL    HW234939   7.021   6.024   1.054 -0.0550 -1.9277 -2.1436
11280SOL     OW34940   6.649   1.656   2.828  0.1760  0.7275  0.0883
11280SOL    HW134941   6.646   1.750   2.849  2.6238  0.7732  0.5330
11280SOL    HW234942   6.676   1.653   2.736 -0.2513  0.4496 -0.0301
11281SOL     OW34943   1.260   7.297   5.694  0.1663 -0.4550 -0.0083
11281SOL    HW134944   1.350   7.325   5.675  0.1714  0.9584  1.8233
11281SOL    HW234945   1.224   7.367   5.747 -2.4989 -0.3964 -1.7373
11282SOL     OW34946   3.761   7.906   8.046  0.0373 -0.1561 -0.8102
11282SOL    HW134947   3.732   7.924   7.956  1.1018  0.5637 -1.0221
11282SOL    HW234948   3.680   7.908   8.098 -0.4866  0.2807 -1.6228
11283SOL     OW34949   4.507   4.818   7.991  0.4275 -0.1506  0.1137
11283SOL    HW134950   4.525   4.736   8.037  0.0287  0.0597  0.6524
11283SOL    HW234951   4.592   4.863   7.989  0.4055 -0.0679  0.8367
11284SOL     OW34952   1.065   0.867   6.267  0.0600 -0.2865 -0.2339
11284SOL    HW134953   1.084   0.794   6.208 -1.0402  0.0690 -1.0566
11284SOL    HW234954   0.970   0.880   6.259  0.3273  1.6501 -0.5955
11285SOL     OW34955   4.375   4.598   1.088  0.2469  0.2385  0.3620
11285SOL    HW134956   4.433   4.563   1.021 -1.0528 -2.0153  0.3288
11285SOL    HW234957   4.380   4.536   1.160 -0.8771  0.8555  1.0107
11286SOL     OW34958   0.242   6.854   0.492  0.3427 -0.6812  0.0238
11286SOL    HW134959   0.292   6.814   0.421  0.7781 -1.6905  0.8611
11286SOL    HW234960   0.234   6.946   0.467  2.7410 -0.4263 -0.1248
11287SOL     OW34961   0.323   0.843   7.068 -0.0148 -0.1786  0.2308
11287SOL    HW134962   0.294   0.805   6.986  1.3102 -4.9441  1.6432
11287SOL    HW234963   0.419   0.840   7.064  0.0872 -0.1588  1.7717
11288SOL     OW34964   2.159   0.802   1.605  0.2483  0.2875 -0.1628
11288SOL    HW134965   2.241   0.798   1.655  0.6500 -0.8358 -0.8855
11288SOL    HW234966   2.158   0.722   1.553 -1.1045  0.4977 -0.5061
11289SOL     OW34967   7.435   2.740   2.195 -0.2508  0.3331 -0.0900
11289SOL    HW134968   7.524   2.747   2.163 -0.5523  0.2440 -0.9671
11289SOL    HW234969   7.439   2.774   2.285  0.5666  0.7835 -0.2887
11290SOL     OW34970   5.212   7.332   2.655 -0.0706 -0.2733 -1.0579
11290SOL    HW134971   5.293   7.284   2.672  0.3012  0.8385  0.5233
11290SOL    HW234972   5.151   7.303   2.723  0.1489  1.3812 -0.0872
11291SOL     OW34973   2.640   7.856   3.738 -0.0987  0.2871 -0.3668
11291SOL    HW134974   2.580   7.918   3.779  0.1584  0.5289 -0.3542
11291SOL    HW234975   2.712   7.847   3.801 -1.0001 -1.4520  0.5001
11292SOL     OW34976   3.758   7.009   5.943  0.0862  0.7673  0.3285
11292SOL    HW134977   3.775   7.069   6.016 -0.6193  1.5515 -0.1415
11292SOL    HW234978   3.667   6.981   5.956  0.9213 -1.6128  1.5426
11293SOL     OW34979   8.896   6.954   7.190 -0.0992  0.3327 -0.9639
11293SOL    HW134980   8.986   6.978   7.213 -0.2135 -1.4583  1.8251
11293SOL    HW234981   8.849   6.955   7.273 -2.4417  0.1965 -2.2039
11294SOL     OW34982   2.529   6.648   8.078 -0.8570 -0.6377  0.1486
11294SOL    HW134983   2.623   6.666   8.079 -0.5813 -1.9645  1.2152
11294SOL    HW234984   2.521   6.567   8.028 -1.5198 -0.1999 -0.4794
11295SOL     OW34985   2.075   7.017   8.384 -0.2861 -0.2861 -0.0189
11295SOL    HW134986   1.985   6.989   8.370 -0.3970  0.2088 -0.3147
11295SOL    HW234987   2.073   7.112   8.375  0.0793 -0.1615  1.0079
11296SOL     OW34988   5.919   5.111   4.981  0.3080 -0.7515  0.4538
11296SOL    HW134989   5.854   5.067   5.035  1.1295  0.7645  2.8506
11296SOL    HW234990   5.873   5.185   4.941  0.4825  0.3508  2.1883
11297SOL     OW34991   5.438   7.322   7.875 -0.3721  0.6494 -0.1977
11297SOL    HW134992   5.518   7.294   7.832 -0.0690  0.6368  0.3623
11297SOL    HW234993   5.393   7.377   7.810  0.6908  1.6844 -0.0879
11298SOL     OW34994   8.101   4.450   1.509 -0.1093 -0.2769  0.6146
11298SOL    HW134995   8.107   4.543   1.528  2.1832  0.1189 -1.4524
11298SOL    HW234996   8.051   4.413   1.582 -1.8223  2.6423  1.0902
11299SOL     OW34997   4.361   6.826   5.258 -0.0546  0.5799  0.5943
11299SOL    HW134998   4.427   6.772   5.302  0.1112  0.0867 -0.2355
11299SOL    HW234999   4.315   6.871   5.329 -0.8333 -1.3564  1.3605
11300SOL     OW35000   1.307   4.485   3.824 -0.3866  0.2011 -0.0697
11300SOL    HW135001   1.362   4.534   3.763 -2.8916  1.8757 -1.1455
11300SOL    HW235002   1.334   4.516   3.910  2.3114 -1.2440 -0.2631
11301SOL     OW35003   5.603   8.487   9.071 -0.5393  0.1379  0.6121
11301SOL    HW135004   5.687   8.460   9.108  0.7208 -0.1621 -2.2185
11301SOL    HW235005   5.571   8.409   9.026 -0.3709  1.2492 -1.5848
11302SOL     OW35006   5.531   7.719   4.460 -0.5125 -0.2820  0.2172
11302SOL    HW135007   5.492   7.779   4.396 -0.1596  0.1519  0.4073
11302SOL    HW235008   5.493   7.745   4.544  0.1440  0.1130  0.3984
11303SOL     OW35009   0.414   3.210   4.616 -0.3934  0.2661 -0.4225
11303SOL    HW135010   0.326   3.249   4.608  0.1909  1.6972 -0.2851
11303SOL    HW235011   0.469   3.282   4.647  0.4840 -1.0768  1.3180
11304SOL     OW35012   1.816   5.330   6.116 -0.1127 -0.6508  0.3536
11304SOL    HW135013   1.871   5.369   6.048 -0.5218  1.7332  1.2922
11304SOL    HW235014   1.746   5.286   6.068 -0.9479  1.8013 -0.8210
11305SOL     OW35015   8.606   2.858   3.639  0.1944 -0.0866  0.1555
11305SOL    HW135016   8.592   2.918   3.713  2.6772  1.4856 -0.5450
11305SOL    HW235017   8.697   2.872   3.613 -0.3758 -1.0920 -2.7795
11306SOL     OW35018   7.053   2.703   1.698 -0.0121  0.8664 -0.4236
11306SOL    HW135019   7.091   2.721   1.784 -1.7237  0.7384  0.3905
11306SOL    HW235020   7.065   2.609   1.686 -0.2725  0.7859 -0.0659
11307SOL     OW35021   2.938   0.084   9.106  0.6983  0.3482  0.0228
11307SOL    HW135022   2.969   0.133   9.182 -1.9278  0.0558  1.4005
11307SOL    HW235023   2.853   0.123   9.085  0.6747 -0.5880 -1.8174
11308SOL     OW35024   5.437   4.434   2.019  0.0095  0.3994  0.1808
11308SOL    HW135025   5.398   4.518   2.046 -0.5590  0.2766 -0.2313
11308SOL    HW235026   5.474   4.452   1.933  0.0459  0.2753  0.1706
11309SOL     OW35027   5.120   8.522   1.776  0.2202  0.2079  0.7549
11309SOL    HW135028   5.060   8.451   1.798  0.4371  0.1197  1.0564
11309SOL    HW235029   5.062   8.596   1.754  0.0006  0.0434  0.7754
11310SOL     OW35030   6.391   6.470   6.194 -0.6738  0.1915  0.1866
11310SOL    HW135031   6.452   6.398   6.176 -1.7176 -1.1495  1.6650
11310SOL    HW235032   6.421   6.507   6.276 -1.9217 -0.6561  1.0713
11311SOL     OW35033   6.759   3.288   7.460 -0.0381 -0.6011  0.3017
11311SOL    HW135034   6.829   3.354   7.458  0.7412 -1.3672  1.3282
11311SOL    HW235035   6.678   3.339   7.458  0.5075  0.2882 -1.5864
11312SOL     OW35036   1.273   3.824   1.849 -0.2258 -0.4929 -0.3980
11312SOL    HW135037   1.192   3.774   1.836 -1.1612  0.6488  0.8368
11312SOL    HW235038   1.270   3.851   1.941  1.5287 -0.3402 -0.3509
11313SOL     OW35039   3.214   4.266   3.734  0.2539  0.3288 -0.3349
11313SOL    HW135040   3.221   4.173   3.713 -0.8126  0.0516  0.4804
11313SOL    HW235041   3.198   4.308   3.650 -1.5889 -0.5008 -0.4476
11314SOL     OW35042   1.367   4.681   3.060  0.1186  0.0996 -0.5924
11314SOL    HW135043   1.317   4.761   3.043 -0.8771 -0.0234  1.4351
11314SOL    HW235044   1.459   4.710   3.060 -0.0692  0.7649 -2.1498
11315SOL     OW35045   1.794   8.455   2.111 -0.0378  0.3178  0.1028
11315SOL    HW135046   1.791   8.508   2.031  0.3885  0.2790  0.0584
11315SOL    HW235047   1.791   8.365   2.080  1.4534  0.2603  0.0342
11316SOL     OW35048   8.475   2.170   4.503  0.0629 -0.2196  0.1054
11316SOL    HW135049   8.431   2.184   4.587  1.2091  1.9893  0.4081
11316SOL    HW235050   8.405   2.174   4.438 -0.6426 -0.4672  0.8281
11317SOL     OW35051   4.897   5.618   6.340  0.4470  0.0905  0.4484
11317SOL    HW135052   4.841   5.586   6.269  0.5114  0.0542  0.4135
11317SOL    HW235053   4.864   5.706   6.359 -0.6257 -0.5252  1.5067
11318SOL     OW35054   2.350   7.469   9.101 -0.0658 -0.3356 -0.5985
11318SOL    HW135055   2.312   7.466   9.189 -1.3222 -1.3361 -1.1526
11318SOL    HW235056   2.434   7.424   9.110  0.1097  0.1336  0.2176
11319SOL     OW35057   6.673   4.915   8.853  0.7542 -0.0657 -0.0129
11319SOL    HW135058   6.634   4.828   8.856  1.0608 -0.1920  0.3340
11319SOL    HW235059   6.599   4.973   8.835  0.6932 -0.4911 -1.2373
11320SOL     OW35060   1.118   7.506   8.930  0.1898 -0.0183  0.0717
11320SOL    HW135061   1.180   7.566   8.972 -1.0402  1.5874 -0.2915
11320SOL    HW235062   1.077   7.459   9.002  0.8728 -0.1280  0.3943
11321SOL     OW35063   3.606   8.763   0.075 -0.0250  0.4816  0.1957
11321SOL    HW135064   3.681   8.799   0.027  0.9223  0.0683  1.3092
11321SOL    HW235065   3.534   8.823   0.056 -0.3575 -0.8650 -3.5551
11322SOL     OW35066   6.683   6.380   6.815 -0.2278  0.4283 -0.1330
11322SOL    HW135067   6.598   6.405   6.780 -0.2112 -0.9311 -1.2296
11322SOL    HW235068   6.724   6.462   6.841 -0.6073  1.4407 -2.5326
11323SOL     OW35069   4.147   2.826   1.033 -0.1814  0.5046  0.4535
11323SOL    HW135070   4.060   2.797   1.007 -0.1505  0.1504  0.7447
11323SOL    HW235071   4.205   2.792   0.965  0.0839 -1.6263  1.6684
11324SOL     OW35072   2.873   0.362   4.377  0.1936 -0.4307  1.2045
11324SOL    HW135073   2.921   0.368   4.295  2.6994  0.9270  2.6681
11324SOL    HW235074   2.866   0.268   4.394  0.5352 -0.6934 -0.0282
11325SOL     OW35075   4.174   1.016   5.826  0.7508 -0.1784  0.6438
11325SOL    HW135076   4.242   1.068   5.783  1.4846 -0.1525  1.8067
11325SOL    HW235077   4.212   0.929   5.835 -0.1522 -0.7127 -0.5234
11326SOL     OW35078   7.945   3.539   7.915  0.5865 -0.6134 -0.0038
11326SOL    HW135079   7.901   3.559   7.832  0.0725 -1.0852  0.1465
11326SOL    HW235080   7.940   3.621   7.965  3.5011  0.6348 -1.5187
11327SOL     OW35081   2.763   3.980   9.069 -0.2337 -0.7608 -0.2112
11327SOL    HW135082   2.713   3.902   9.090  0.5917 -1.0762  0.6439
11327SOL    HW235083   2.779   3.973   8.975  0.5287 -2.0487 -0.0057
11328SOL     OW35084   2.729   5.477   0.309 -0.3311 -0.1146  0.3566
11328SOL    HW135085   2.675   5.549   0.278 -1.0749  0.1317  2.0687
11328SOL    HW235086   2.683   5.398   0.280 -0.2817  0.1012 -0.3057
11329SOL     OW35087   4.657   1.527   1.964  0.4057  0.0098 -0.2306
11329SOL    HW135088   4.706   1.529   2.046 -1.2314 -0.8346  0.8165
11329SOL    HW235089   4.606   1.607   1.964 -0.2319 -0.3892 -0.0020
11330SOL     OW35090   1.056   6.522   7.947 -0.0197  0.2806 -0.5460
11330SOL    HW135091   0.982   6.470   7.978  0.8651  0.0034  1.1887
11330SOL    HW235092   1.034   6.612   7.972  0.3951  0.1467  0.3094
11331SOL     OW35093   2.024   1.450   6.625  0.0139 -0.3506  0.3434
11331SOL    HW135094   1.959   1.508   6.585  0.9133 -1.4658 -3.0218
11331SOL    HW235095   2.074   1.507   6.684 -1.6232  1.3619  0.1606
11332SOL     OW35096   6.472   6.368   7.179  0.5248  0.4900  0.7946
11332SOL    HW135097   6.506   6.429   7.114 -0.6805  1.4184  0.9835
11332SOL    HW235098   6.434   6.296   7.128  1.3341  0.2341  0.5473
11333SOL     OW35099   3.619   6.686   6.131  0.5573 -0.3069 -0.4750
11333SOL    HW135100   3.713   6.697   6.120  0.6553  1.0783  1.2565
11333SOL    HW235101   3.591   6.765   6.178 -1.2507 -1.2839  0.1868
11334SOL     OW35102   2.374   2.222   0.673  0.4284 -0.4680 -0.2681
11334SOL    HW135103   2.414   2.183   0.751  1.6781 -0.6492 -0.9631
11334SOL    HW235104   2.422   2.182   0.600  0.8890  1.4260 -1.0448
11335SOL     OW35105   6.019   6.868   2.153  0.2650  0.2353  0.6592
11335SOL    HW135106   6.058   6.938   2.206  1.2778  1.3237 -1.4013
11335SOL    HW235107   6.043   6.787   2.198 -0.0548  1.1396  2.5387
11336SOL     OW35108   7.447   8.966   1.020 -0.6906 -0.3597 -0.1073
11336SOL    HW135109   7.493   8.900   0.968  1.0630  1.0992 -0.5507
11336SOL    HW235110   7.514   9.001   1.079 -1.8039  0.3495  0.7841
11337SOL     OW35111   0.430   6.628   0.711 -0.1092  0.5415  0.1427
11337SOL    HW135112   0.439   6.543   0.669 -0.3959  1.0810 -1.0461
11337SOL    HW235113   0.336   6.647   0.706 -0.0150  1.0352  0.1755
11338SOL     OW35114   5.740   8.284   2.625  0.1628  0.8331 -0.1013
11338SOL    HW135115   5.783   8.199   2.617 -1.5524 -0.1114  0.1167
11338SOL    HW235116   5.781   8.338   2.558  1.7779  0.0633  0.2202
11339SOL     OW35117   8.342   4.687   5.912  0.0656  0.2565 -0.0105
11339SOL    HW135118   8.283   4.752   5.950  0.0405 -0.6128  1.5482
11339SOL    HW235119   8.380   4.729   5.836  0.6033  2.3760  1.3514
11340SOL     OW35120   2.675   1.511   2.127 -0.3490  0.2704 -0.3621
11340SOL    HW135121   2.701   1.420   2.119 -1.2274  0.0895 -1.5211
11340SOL    HW235122   2.757   1.559   2.134  0.1296 -0.7758  3.4684
11341SOL     OW35123   0.893   1.661   5.669  0.1768 -0.2327  0.2315
11341SOL    HW135124   0.892   1.566   5.660  0.3567 -0.4522  2.1038
11341SOL    HW235125   0.845   1.678   5.750 -1.8807  1.4536 -1.2077
11342SOL     OW35126   4.834   1.134   8.728 -0.6266 -0.1393  0.0820
11342SOL    HW135127   4.834   1.060   8.788 -1.0926 -2.2689 -2.3357
11342SOL    HW235128   4.748   1.130   8.685 -0.9973  2.3662  0.4575
11343SOL     OW35129   2.769   0.757   0.232 -0.8203 -0.1563 -0.0132
11343SOL    HW135130   2.793   0.827   0.170 -2.0554  0.8023  0.5521
11343SOL    HW235131   2.742   0.804   0.311 -1.8984 -1.2740  0.2981
11344SOL     OW35132   3.704   8.846   5.741  0.4766 -0.4374 -0.3688
11344SOL    HW135133   3.621   8.832   5.787 -1.1500 -0.2764 -3.0090
11344SOL    HW235134   3.678   8.878   5.655  3.3201 -0.4722 -1.3424
11345SOL     OW35135   6.570   2.078   6.406 -0.3245  0.4559 -0.6644
11345SOL    HW135136   6.478   2.092   6.382  0.1905  0.9576 -2.5445
11345SOL    HW235137   6.603   2.019   6.338  0.8439  0.5865 -0.2262
11346SOL     OW35138   2.528   0.253   8.804  0.1557  0.0100  0.0662
11346SOL    HW135139   2.526   0.262   8.709  0.3022  1.6403  0.1867
11346SOL    HW235140   2.458   0.311   8.835 -0.0574 -0.6978  0.9472
11347SOL     OW35141   3.080   8.331   0.328 -0.1409 -0.4240  1.0262
11347SOL    HW135142   3.037   8.415   0.309 -1.1113 -0.9548  0.7716
11347SOL    HW235143   3.050   8.308   0.416 -1.8752 -1.6472  0.1859
11348SOL     OW35144   6.347   8.870   1.087 -0.1791 -0.3999  0.2376
11348SOL    HW135145   6.430   8.893   1.045 -0.2163  0.1225  0.4389
11348SOL    HW235146   6.282   8.878   1.018 -0.0712 -0.7320  0.0985
11349SOL     OW35147   4.526   5.645   5.030  0.3000  0.3753 -0.2826
11349SOL    HW135148   4.452   5.624   5.087 -0.9890 -1.1338 -2.3753
11349SOL    HW235149   4.486   5.679   4.950  1.8272 -0.6747 -1.5478
11350SOL     OW35150   0.268   8.076   4.938 -0.1054 -0.1222  0.1413
11350SOL    HW135151   0.307   8.152   4.895 -0.6981 -0.1780 -0.5086
11350SOL    HW235152   0.255   8.104   5.029 -0.6926  0.7056 -0.1797
11351SOL     OW35153   4.196   8.285   3.007  0.2113 -0.3630  0.3274
11351SOL    HW135154   4.283   8.284   3.047  0.5327 -0.1371 -0.3511
11351SOL    HW235155   4.208   8.240   2.923 -0.6059 -1.4844  0.7798
11352SOL     OW35156   3.396   8.877   6.319  0.1234 -0.1939 -0.4079
11352SOL    HW135157   3.359   8.907   6.402 -0.9934 -1.6127 -0.3432
11352SOL    HW235158   3.351   8.928   6.252 -1.1276 -1.0682 -0.2651
11353SOL     OW35159   1.486   6.273   6.467 -0.6217  0.0312 -0.1769
11353SOL    HW135160   1.551   6.220   6.515  0.1317  0.0639 -1.1411
11353SOL    HW235161   1.489   6.359   6.509 -0.2927 -0.0653 -0.0017
11354SOL     OW35162   5.716   0.452   4.436  0.2758 -0.0272 -0.1615
11354SOL    HW135163   5.652   0.511   4.476  0.0112 -0.1752 -0.3686
11354SOL    HW235164   5.708   0.467   4.342 -0.0778 -0.6772 -0.2438
11355SOL     OW35165   4.527   9.096   5.992 -0.4903  0.3363  0.0502
11355SOL    HW135166   4.592   9.098   5.922 -1.7211  1.0103 -1.1129
11355SOL    HW235167   4.480   9.014   5.977 -0.6390  0.3962  0.1949
11356SOL     OW35168   1.038   5.163   4.114  0.7116  0.4739  0.1856
11356SOL    HW135169   1.005   5.183   4.201  0.7564  0.7135  0.1482
11356SOL    HW235170   1.126   5.201   4.112  0.9415 -0.0401  0.2387
11357SOL     OW35171   1.703   8.805   5.784 -0.1236 -0.2763  0.0550
11357SOL    HW135172   1.730   8.725   5.739 -1.6348 -1.4353  1.0804
11357SOL    HW235173   1.631   8.839   5.730 -0.2655 -0.2772  0.2432
11358SOL     OW35174   6.322   8.819   2.646 -0.1017 -0.0396 -0.0106
11358SOL    HW135175   6.290   8.863   2.567  2.3131 -0.4155 -1.2878
11358SOL    HW235176   6.245   8.773   2.680 -1.4898  1.0477 -1.4872
11359SOL     OW35177   5.430   1.830   6.583 -0.2014 -0.4896 -0.1183
11359SOL    HW135178   5.426   1.742   6.544 -0.2862 -1.3382  1.6923
11359SOL    HW235179   5.341   1.848   6.611 -0.2039  0.2366 -0.5891
11360SOL     OW35180   5.388   8.099   7.265 -0.4782 -0.0648  0.1377
11360SOL    HW135181   5.306   8.088   7.216 -0.3658 -0.8568  0.1116
11360SOL    HW235182   5.454   8.117   7.198 -0.2205 -1.6990 -0.0938
11361SOL     OW35183   1.325   5.467   1.658 -0.3196 -0.9000 -0.0965
11361SOL    HW135184   1.340   5.551   1.702  0.4009 -1.6113  1.0756
11361SOL    HW235185   1.235   5.444   1.681 -0.6730 -0.2370 -0.7993
11362SOL     OW35186   4.148   8.098   0.028 -0.1495  0.2079 -0.5907
11362SOL    HW135187   4.231   8.067  -0.009  0.4175  0.9151  0.0460
11362SOL    HW235188   4.158   8.193   0.032 -1.7633  0.4998 -2.3014
11363SOL     OW35189   1.913   6.521   2.600  0.0389  0.1668 -0.1236
11363SOL    HW135190   1.921   6.481   2.687  3.0619 -0.6242 -0.6402
11363SOL    HW235191   1.952   6.458   2.540  0.8012  1.9440 -1.6204
11364SOL     OW35192   2.424   2.531   3.200  0.1572 -0.0675 -0.2756
11364SOL    HW135193   2.387   2.566   3.281  1.5939  0.1729  0.3169
11364SOL    HW235194   2.366   2.563   3.131 -2.5924 -2.3738  0.7868
11365SOL     OW35195   6.613   3.311   3.859 -0.6704 -0.5142 -0.1214
11365SOL    HW135196   6.629   3.328   3.952  0.1926 -2.6544  0.1791
11365SOL    HW235197   6.568   3.226   3.857 -1.1897 -0.2415 -1.6503
11366SOL     OW35198   1.035   5.637   6.247 -0.3175 -0.3987 -0.4777
11366SOL    HW135199   1.026   5.558   6.194  0.3017  0.2473 -1.5833
11366SOL    HW235200   1.126   5.663   6.237 -0.5373  0.5207 -0.2120
11367SOL     OW35201   6.627   3.738   0.486  0.1919 -0.3607  0.1558
11367SOL    HW135202   6.694   3.783   0.537  2.5237 -1.7616 -1.5023
11367SOL    HW235203   6.605   3.661   0.539 -0.9477  0.6069  1.1688
11368SOL     OW35204   2.627   6.209   5.577 -0.2362  0.5187 -0.7476
11368SOL    HW135205   2.573   6.159   5.637 -1.1236 -0.1421 -2.0619
11368SOL    HW235206   2.705   6.155   5.564 -0.9557 -0.3100 -1.7547
11369SOL     OW35207   3.960   2.529   3.590 -0.9448  0.6322  0.2310
11369SOL    HW135208   4.010   2.608   3.611 -0.3779  0.2425  0.3597
11369SOL    HW235209   3.987   2.505   3.502  0.4055 -0.5480  0.9226
11370SOL     OW35210   1.840   6.372   7.865 -0.6964  0.4708  0.5670
11370SOL    HW135211   1.751   6.395   7.839 -0.2246  1.8580  0.1063
11370SOL    HW235212   1.831   6.290   7.913 -1.7773 -1.4947 -2.6994
11371SOL     OW35213   8.823   4.602   1.385 -0.9926  0.1022 -0.2929
11371SOL    HW135214   8.755   4.598   1.318  1.3928 -0.8808 -2.8298
11371SOL    HW235215   8.879   4.675   1.358 -0.8902  0.8096  1.6639
11372SOL     OW35216   3.893   2.192   1.260 -0.2082  0.2392  0.1398
11372SOL    HW135217   3.801   2.206   1.240 -0.8191 -0.5421  2.1376
11372SOL    HW235218   3.927   2.278   1.283 -0.3106  0.5942 -0.9940
11373SOL     OW35219   3.308   1.457   0.231 -0.4446 -0.2285  0.4712
11373SOL    HW135220   3.299   1.365   0.255  0.6651 -0.1854  1.1120
11373SOL    HW235221   3.331   1.456   0.138 -1.5915 -0.5373  0.1807
11374SOL     OW35222   6.104   0.227   6.169  0.2515  0.3310 -0.3449
11374SOL    HW135223   6.012   0.241   6.192  0.7316  3.1458  0.1651
11374SOL    HW235224   6.133   0.159   6.229 -0.9731  0.8609  0.9056
11375SOL     OW35225   5.474   0.697   6.719 -0.0066 -0.0206 -0.0175
11375SOL    HW135226   5.568   0.710   6.708  0.0314  0.4988  0.8094
11375SOL    HW235227   5.441   0.677   6.632  0.9422 -0.6624 -0.2360
11376SOL     OW35228   7.644   2.794   1.724  1.1612  0.4064 -0.0385
11376SOL    HW135229   7.690   2.862   1.774  0.7440  1.3678 -0.9295
11376SOL    HW235230   7.551   2.811   1.741  0.9968  0.9641 -1.3868
11377SOL     OW35231   1.305   5.586   4.805  0.3160 -0.2130  0.0457
11377SOL    HW135232   1.330   5.661   4.752 -0.4118 -1.4124 -2.1604
11377SOL    HW235233   1.352   5.512   4.766  0.4357 -1.0517  1.6708
11378SOL     OW35234   4.048   5.035   2.908  0.2078  0.3160 -0.2306
11378SOL    HW135235   4.134   5.053   2.870  0.4955  0.1105  0.3154
11378SOL    HW235236   4.010   4.968   2.851  0.3238  0.5532 -0.5904
11379SOL     OW35237   6.725   0.795   1.825  0.2459  0.0743 -0.2833
11379SOL    HW135238   6.749   0.703   1.820 -1.4834 -0.4482  0.2931
11379SOL    HW235239   6.632   0.797   1.800  0.5191  1.8106 -1.3708
11380SOL     OW35240   6.179   5.609   3.468 -0.0253  0.3233 -0.5564
11380SOL    HW135241   6.176   5.644   3.380 -1.5846  0.9091 -0.2962
11380SOL    HW235242   6.111   5.656   3.516  2.3971  1.8837  1.6781
11381SOL     OW35243   8.781   7.385   3.261 -0.6780  0.1051 -0.5561
11381SOL    HW135244   8.711   7.320   3.272  0.6728 -1.5124 -1.0757
11381SOL    HW235245   8.794   7.420   3.349 -1.6444 -0.1011 -0.3138
11382SOL     OW35246   7.577   8.335   8.168  0.3377  0.0522  0.2697
11382SOL    HW135247   7.500   8.308   8.218 -0.9077  2.4865 -0.1967
11382SOL    HW235248   7.640   8.366   8.234  0.2602 -0.3636  0.5414
11383SOL     OW35249   6.033   8.778   5.449  0.1330  0.0582  0.3414
11383SOL    HW135250   6.066   8.758   5.537  2.1233 -0.7845 -0.5441
11383SOL    HW235251   6.109   8.812   5.402 -0.7842  0.0664 -1.1937
11384SOL     OW35252   4.483   8.963   7.223 -0.4086  0.3499 -0.6843
11384SOL    HW135253   4.532   8.948   7.142  2.2936  0.5885  0.7840
11384SOL    HW235254   4.391   8.959   7.197  0.2269 -3.2911 -3.1185
11385SOL     OW35255   4.879   4.613   5.328 -0.1206  0.4545  0.4108
11385SOL    HW135256   4.808   4.571   5.376  0.3208 -0.8822 -0.0775
11385SOL    HW235257   4.870   4.582   5.238 -0.5468  2.4215 -0.2867
11386SOL     OW35258   3.854   7.357   8.239 -0.0460  0.1558 -0.7856
11386SOL    HW135259   3.768   7.366   8.281  0.3331 -1.0360  0.3254
11386SOL    HW235260   3.906   7.427   8.278  0.6424 -1.6324  1.7783
11387SOL     OW35261   8.898   6.390   3.444 -0.4859 -0.3432  0.1130
11387SOL    HW135262   8.888   6.322   3.511 -0.5192 -1.2858 -0.8257
11387SOL    HW235263   8.963   6.355   3.384 -0.9981  0.1649 -0.7498
11388SOL     OW35264   3.410   5.840   4.441 -0.2828  0.5269  0.2598
11388SOL    HW135265   3.327   5.801   4.468  0.4157 -1.3053 -0.0303
11388SOL    HW235266   3.462   5.843   4.522 -1.0077  2.8508  0.7045
11389SOL     OW35267   6.347   5.402   5.808  0.3024 -0.2759 -0.2112
11389SOL    HW135268   6.366   5.313   5.781 -0.9368 -0.9675  1.0958
11389SOL    HW235269   6.380   5.408   5.898 -1.5395 -0.1424  0.5073
11390SOL     OW35270   4.085   7.308   6.732 -0.0807 -0.4356 -0.2895
11390SOL    HW135271   4.180   7.319   6.733 -0.0556 -0.4555 -1.2694
11390SOL    HW235272   4.052   7.390   6.769  0.2990  0.0088 -0.9054
11391SOL     OW35273   3.743   2.544   7.377  0.2174  0.9764 -0.3127
11391SOL    HW135274   3.717   2.464   7.422 -1.7101  2.7498  1.9826
11391SOL    HW235275   3.835   2.530   7.354  0.5893 -1.0354  2.0001
11392SOL     OW35276   2.534   2.945   2.791 -0.2268  0.5308 -0.0911
11392SOL    HW135277   2.551   3.025   2.740  1.1045 -0.1946 -0.8428
11392SOL    HW235278   2.607   2.941   2.853 -0.3014 -0.0883 -0.0436
11393SOL     OW35279   7.736   4.336   3.594  0.0989 -0.2663  0.1181
11393SOL    HW135280   7.677   4.403   3.629 -0.0805 -0.2855 -0.1470
11393SOL    HW235281   7.678   4.268   3.559  0.1959  0.7844 -2.3036
11394SOL     OW35282   4.657   3.401   4.592 -0.5521  0.0697 -0.3416
11394SOL    HW135283   4.740   3.404   4.544  0.1652 -2.3438  0.5891
11394SOL    HW235284   4.599   3.350   4.536  0.5434 -3.4984  1.4810
11395SOL     OW35285   3.233   5.791   2.269  0.0308  0.5277 -0.0983
11395SOL    HW135286   3.181   5.719   2.234  0.4189  0.3246 -0.2713
11395SOL    HW235287   3.279   5.826   2.192  0.9325  0.0449  0.2013
11396SOL     OW35288   6.588   4.552   4.914 -0.3868  0.2938 -0.7502
11396SOL    HW135289   6.574   4.468   4.958 -1.5895 -0.3849 -2.3301
11396SOL    HW235290   6.666   4.588   4.955 -0.6145 -0.9758  0.8805
11397SOL     OW35291   1.739   7.982   7.575 -0.2901 -0.4943  0.5456
11397SOL    HW135292   1.776   7.906   7.530  0.3046  0.3204 -0.3734
11397SOL    HW235293   1.806   8.009   7.637  1.0116  1.2790 -1.4548
11398SOL     OW35294   2.088   3.427   5.124 -0.1044  0.9873 -0.2297
11398SOL    HW135295   1.996   3.402   5.113  0.1345  0.1138 -0.2977
11398SOL    HW235296   2.122   3.432   5.034  0.2790 -0.1389 -0.1673
11399SOL     OW35297   1.813   8.186   5.555 -0.2381  0.2401 -0.2288
11399SOL    HW135298   1.776   8.127   5.490  1.0153  0.7946 -1.5007
11399SOL    HW235299   1.740   8.240   5.584 -1.1058 -0.9861 -0.0869
11400SOL     OW35300   4.316   5.477   5.891  0.1282 -0.3015  0.5896
11400SOL    HW135301   4.283   5.427   5.966 -0.2504 -1.6971 -0.4686
11400SOL    HW235302   4.411   5.463   5.892  0.3605  1.0192  1.7033
11401SOL     OW35303   3.791   2.337   1.543  0.8495 -0.2351 -0.0691
11401SOL    HW135304   3.811   2.264   1.483  0.8164 -0.2903 -0.0129
11401SOL    HW235305   3.786   2.296   1.629 -0.2447 -0.3484 -0.1757
11402SOL     OW35306   7.679   4.261   4.221 -0.1592 -0.1285  0.0562
11402SOL    HW135307   7.593   4.248   4.183 -0.1276 -0.6724  0.1586
11402SOL    HW235308   7.676   4.349   4.259 -0.5195  0.0212 -0.3225
11403SOL     OW35309   8.519   6.881   4.162  1.0625 -0.0636 -0.0388
11403SOL    HW135310   8.574   6.851   4.234  1.1660 -1.7133 -0.7661
11403SOL    HW235311   8.507   6.804   4.106 -1.5402  0.3750 -0.2089
11404SOL     OW35312   5.322   0.381   8.800  0.2173  0.0182 -0.3546
11404SOL    HW135313   5.389   0.320   8.829  1.4335  0.9405 -1.1572
11404SOL    HW235314   5.245   0.326   8.782 -0.0402 -0.8229  2.7431
11405SOL     OW35315   7.952   3.700   5.416 -0.0317  0.2405  0.5595
11405SOL    HW135316   7.902   3.777   5.390 -0.4059 -0.0235  0.4732
11405SOL    HW235317   8.035   3.708   5.368 -1.4471 -1.2309 -2.4343
11406SOL     OW35318   6.560   5.265   1.683 -0.6833 -0.0422 -0.2982
11406SOL    HW135319   6.551   5.293   1.775 -0.0928 -2.4728  0.5665
11406SOL    HW235320   6.571   5.347   1.635  1.0519  1.2395  2.0468
11407SOL     OW35321   8.493   4.891   2.133  0.6592 -0.2271  0.1046
11407SOL    HW135322   8.533   4.912   2.049  0.0690  0.9829  0.1112
11407SOL    HW235323   8.545   4.939   2.198 -0.7327  1.3287  0.1154
11408SOL     OW35324   7.841   0.231   6.109  0.2101  1.1026 -0.1685
11408SOL    HW135325   7.760   0.258   6.066 -1.1194 -1.0902  0.7443
11408SOL    HW235326   7.815   0.214   6.200  1.5392 -0.2183  0.0057
11409SOL     OW35327   2.379   3.551   0.196  0.7579 -0.0092  0.9021
11409SOL    HW135328   2.459   3.572   0.244  0.1658  1.0795  1.4384
11409SOL    HW235329   2.310   3.599   0.240  0.0810  0.5535 -0.6744
11410SOL     OW35330   8.486   0.021   0.914  0.1691 -0.3245  0.1741
11410SOL    HW135331   8.562   0.049   0.964 -0.8798  0.2096  1.5310
11410SOL    HW235332   8.467  -0.067   0.946  1.0379 -1.0470 -1.1956
11411SOL     OW35333   6.524   8.704   0.830  0.5202  0.0099  0.1570
11411SOL    HW135334   6.548   8.777   0.888 -1.9709  0.6962  0.4367
11411SOL    HW235335   6.454   8.739   0.776 -1.7878 -2.5312  1.2896
11412SOL     OW35336   4.393   4.549   5.609 -0.6461 -0.1777 -0.1386
11412SOL    HW135337   4.411   4.619   5.672  0.7823  0.1259 -0.8508
11412SOL    HW235338   4.350   4.481   5.661  0.6387  0.0020  1.2220
11413SOL     OW35339   4.761   4.733   7.444 -0.3300  0.0093  0.1775
11413SOL    HW135340   4.772   4.788   7.522 -0.2304 -0.2937  0.3788
11413SOL    HW235341   4.735   4.794   7.375 -1.8611  0.0982  0.7915
11414SOL     OW35342   7.284   0.635   6.060  0.2144  0.6131 -0.8032
11414SOL    HW135343   7.274   0.541   6.075  1.2653  0.4938 -0.7665
11414SOL    HW235344   7.204   0.673   6.095 -0.4118 -0.3059 -1.2031
11415SOL     OW35345   0.484   1.329   8.982  0.0296 -0.1975  0.2441
11415SOL    HW135346   0.454   1.250   9.026  2.4914 -0.9094  0.7691
11415SOL    HW235347   0.491   1.305   8.890 -2.0838  0.3636 -0.1215
11416SOL     OW35348   5.378   0.873   2.876  0.0453 -0.4654  0.2767
11416SOL    HW135349   5.299   0.821   2.862  0.3273 -0.5621 -0.9946
11416SOL    HW235350   5.400   0.910   2.790  0.4414  0.9288  0.9320
11417SOL     OW35351   6.856   5.754   8.432  0.2216  0.0660 -0.4345
11417SOL    HW135352   6.867   5.841   8.470  2.4635  0.9674 -2.8205
11417SOL    HW235353   6.834   5.770   8.340  0.4442 -1.8619 -0.8752
11418SOL     OW35354   8.305   1.845   4.688 -0.6023 -0.3658  0.2740
11418SOL    HW135355   8.385   1.889   4.716 -0.3929 -0.8557  0.4631
11418SOL    HW235356   8.267   1.903   4.622 -0.6073  0.3430  0.8956
11419SOL     OW35357   8.982   3.710   4.011  0.1208 -0.2966 -0.2145
11419SOL    HW135358   8.945   3.626   3.983 -0.5027  0.2111 -0.9718
11419SOL    HW235359   8.906   3.768   4.021  0.5069  0.0648  0.7198
11420SOL     OW35360   8.328   2.703   8.981 -0.1916 -0.3621 -0.2989
11420SOL    HW135361   8.274   2.698   9.060  1.3393  0.4702  0.8289
11420SOL    HW235362   8.418   2.697   9.012  0.4276 -1.4228 -2.1200
11421SOL     OW35363   1.428   1.546   4.744 -0.2116 -0.5801  0.2185
11421SOL    HW135364   1.502   1.489   4.725 -0.3213 -1.0900  1.2777
11421SOL    HW235365   1.441   1.622   4.688  0.9969 -0.7666  0.2329
11422SOL     OW35366   2.654   3.161   8.175 -0.4464 -0.2541 -0.3168
11422SOL    HW135367   2.620   3.184   8.262 -1.3391 -1.5462 -0.2918
11422SOL    HW235368   2.730   3.106   8.193  0.1944  0.5950 -0.3729
11423SOL     OW35369   4.360   4.702   5.010 -0.2834 -0.0878 -0.4231
11423SOL    HW135370   4.321   4.789   5.002  0.6126  0.2434 -1.4364
11423SOL    HW235371   4.409   4.691   4.929  0.4217 -1.1319  0.1347
11424SOL     OW35372   6.470   3.722   3.011  0.6200 -0.0392  0.4437
11424SOL    HW135373   6.481   3.813   2.984 -2.2186 -0.5164 -3.0180
11424SOL    HW235374   6.382   3.719   3.050  1.0311 -1.1494  1.3366
11425SOL     OW35375   8.898   8.346   3.448 -0.2461 -0.0684 -0.2956
11425SOL    HW135376   8.839   8.294   3.502 -0.7864 -0.3834 -1.1755
11425SOL    HW235377   8.856   8.431   3.442 -0.2972 -0.1019 -0.4078
11426SOL     OW35378   8.911   1.599   8.556 -0.1481  0.3310  0.5656
11426SOL    HW135379   8.960   1.528   8.598 -1.3044 -0.8849 -0.0577
11426SOL    HW235380   8.860   1.555   8.487 -1.6240  1.6279  0.7864
11427SOL     OW35381   0.557   2.102   0.542 -0.1989 -0.1662  0.1860
11427SOL    HW135382   0.601   2.089   0.458 -0.7739 -0.3085 -0.1028
11427SOL    HW235383   0.467   2.124   0.518 -0.8326 -1.9344  0.7554
11428SOL     OW35384   4.537   3.800   7.912  0.4564 -0.0794 -0.2812
11428SOL    HW135385   4.500   3.812   7.824  1.2202 -1.0032 -0.7516
11428SOL    HW235386   4.604   3.867   7.920  1.0130 -0.5651 -0.7764
11429SOL     OW35387   5.924   4.070   3.047 -0.3540  0.0113  0.1201
11429SOL    HW135388   5.843   4.118   3.033 -0.4736 -0.7246 -2.0570
11429SOL    HW235389   5.985   4.105   2.982  0.5636 -0.5661  0.6387
11430SOL     OW35390   3.567   3.128   1.196  0.1017  0.1030  0.4739
11430SOL    HW135391   3.569   3.036   1.224  0.1475 -0.6449 -1.8334
11430SOL    HW235392   3.618   3.173   1.263 -0.1585 -1.4868  1.8321
11431SOL     OW35393   3.951   2.751   1.340  0.2003 -0.0003 -0.0999
11431SOL    HW135394   3.925   2.660   1.354 -0.3997 -0.1112 -1.7419
11431SOL    HW235395   4.032   2.745   1.289 -0.5583  0.3413 -1.4063
11432SOL     OW35396   3.527   8.541   1.251  0.5522 -0.3964 -0.5258
11432SOL    HW135397   3.476   8.619   1.228  1.6275  0.3124 -0.5620
11432SOL    HW235398   3.507   8.526   1.344  2.6112  1.7565  0.3757
11433SOL     OW35399   1.399   3.377   6.552 -0.2880  0.3713 -0.3783
11433SOL    HW135400   1.378   3.467   6.527 -0.3475  0.0871 -1.3876
11433SOL    HW235401   1.325   3.325   6.521 -0.9380  0.1244  1.4436
11434SOL     OW35402   3.279   7.258   8.340  0.4975  0.3045  0.1921
11434SOL    HW135403   3.219   7.333   8.333  0.8935  0.6158  0.0883
11434SOL    HW235404   3.281   7.239   8.434 -0.4192 -0.2559  0.1152
11435SOL     OW35405   8.099   2.532   5.717  0.0891 -0.3116  0.2768
11435SOL    HW135406   8.109   2.574   5.803 -1.2203 -3.6606  2.2452
11435SOL    HW235407   8.165   2.464   5.715 -0.0902 -0.4770 -1.3088
11436SOL     OW35408   7.676   0.727   1.103 -0.5211 -0.0593 -0.1786
11436SOL    HW135409   7.636   0.779   1.172 -0.8733  0.3341 -0.6718
11436SOL    HW235410   7.612   0.727   1.032 -0.9565 -1.9642  0.1416
11437SOL     OW35411   2.575   5.135   3.307 -0.4563 -0.0372  0.1598
11437SOL    HW135412   2.637   5.089   3.250  0.2235  0.0821  0.7976
11437SOL    HW235413   2.498   5.078   3.311 -0.7432  0.1951 -1.3110
11438SOL     OW35414   7.793   6.704   0.178  0.2492  0.3824 -0.0713
11438SOL    HW135415   7.816   6.643   0.108  0.5124  0.0652  0.2886
11438SOL    HW235416   7.709   6.742   0.150  0.6639  0.7363 -0.8653
11439SOL     OW35417   0.700   4.531   1.034 -0.0075  0.3579  0.0678
11439SOL    HW135418   0.724   4.543   0.942 -1.2162  0.3179 -0.2637
11439SOL    HW235419   0.619   4.580   1.045 -0.5594 -0.6822  0.7864
11440SOL     OW35420   5.617   4.647   7.101 -0.5605  0.4787  0.4094
11440SOL    HW135421   5.556   4.657   7.027 -1.9580 -0.5638  1.3712
11440SOL    HW235422   5.640   4.555   7.101  1.8312  1.0127 -0.4903
11441SOL     OW35423   0.628   1.815   0.348 -0.4038 -0.5515 -0.3908
11441SOL    HW135424   0.588   1.744   0.398  0.7391 -1.3307 -0.5470
11441SOL    HW235425   0.604   1.796   0.257 -1.0512 -0.0849 -0.3264
11442SOL     OW35426   5.966   6.770   2.625  0.0957  0.0145 -0.3402
11442SOL    HW135427   6.059   6.790   2.635  0.0344  0.0881  0.1073
11442SOL    HW235428   5.922   6.845   2.664 -0.1491 -0.7422  0.8613
11443SOL     OW35429   9.072   7.811   1.507  0.3801 -0.1759 -0.1189
11443SOL    HW135430   9.102   7.900   1.526 -0.8429  0.3474 -0.5629
11443SOL    HW235431   9.035   7.780   1.590 -1.5904  0.7390 -0.5954
11444SOL     OW35432   7.231   5.781   2.774 -0.0068 -0.1587  0.5420
11444SOL    HW135433   7.291   5.855   2.761  0.2648  0.5921  4.7482
11444SOL    HW235434   7.145   5.814   2.746  0.5975  0.6486 -0.4182
11445SOL     OW35435   6.695   0.592   6.425 -0.0917  0.4625 -0.1478
11445SOL    HW135436   6.659   0.638   6.349  0.8919  0.5279 -0.5936
11445SOL    HW235437   6.782   0.564   6.397 -0.1920 -0.5984  0.5431
11446SOL     OW35438   5.457   2.341   8.785 -0.3615  0.3088 -0.0674
11446SOL    HW135439   5.529   2.314   8.842 -0.2112 -0.4858 -0.6191
11446SOL    HW235440   5.419   2.259   8.754 -1.4761  0.7149  0.1773
11447SOL     OW35441   5.640   5.446   6.996 -0.0107  0.2421  0.5243
11447SOL    HW135442   5.596   5.526   7.023 -2.4401 -0.5299 -0.8693
11447SOL    HW235443   5.712   5.436   7.059  1.0718  4.0032  0.1561
11448SOL     OW35444   2.933   5.512   4.967 -0.0632  0.4895  0.3976
11448SOL    HW135445   2.984   5.434   4.990  1.5495  1.1157 -0.8343
11448SOL    HW235446   2.842   5.488   4.984  0.4852 -1.3242  0.9445
11449SOL     OW35447   8.959   0.380   4.782  0.5512 -0.2658  0.5503
11449SOL    HW135448   9.003   0.465   4.792  1.0626 -0.2933 -1.1596
11449SOL    HW235449   8.943   0.351   4.872  2.4080  0.5814  1.2045
11450SOL     OW35450   5.861   1.354   4.742  0.0385  0.0331 -0.4789
11450SOL    HW135451   5.930   1.407   4.702  0.9135 -0.1197  0.7730
11450SOL    HW235452   5.878   1.360   4.836 -2.9822  1.8512  0.0692
11451SOL     OW35453   7.992   6.104   5.958 -0.1018  0.1020  0.2133
11451SOL    HW135454   8.079   6.111   5.918 -0.2754  1.3809  0.0040
11451SOL    HW235455   7.934   6.080   5.886 -0.1014  0.4355  0.0994
11452SOL     OW35456   0.442   0.460   5.464  0.6965  0.4605 -0.2102
11452SOL    HW135457   0.409   0.550   5.466  1.8602  0.9008  0.7147
11452SOL    HW235458   0.537   0.470   5.452  0.8001 -0.6598 -0.4229
11453SOL     OW35459   4.812   5.105   6.090 -0.1612  0.0251  0.2984
11453SOL    HW135460   4.755   5.072   6.021  1.0673  2.8111 -2.2360
11453SOL    HW235461   4.895   5.124   6.046  0.7853  1.6649  2.6122
11454SOL     OW35462   2.294   2.950   1.495 -0.3858  0.1604 -0.4206
11454SOL    HW135463   2.372   3.001   1.472 -0.2377  0.4549  0.6919
11454SOL    HW235464   2.238   2.955   1.417  0.3886  0.5388 -0.9683
11455SOL     OW35465   6.234   5.746   0.940  0.1616  0.4736  0.6790
11455SOL    HW135466   6.161   5.734   0.880 -0.5551  1.0526  1.4057
11455SOL    HW235467   6.195   5.787   1.017  1.1334  0.1661  1.3607
11456SOL     OW35468   3.139   7.650   0.525  0.2543 -0.0856  0.3121
11456SOL    HW135469   3.150   7.745   0.532  0.2193 -0.1914  2.2496
11456SOL    HW235470   3.228   7.615   0.533  0.4458 -0.2122 -1.7271
11457SOL     OW35471   0.898   0.534   5.944  0.1846 -0.0843 -0.6558
11457SOL    HW135472   0.934   0.571   6.024 -0.0834  1.8308 -1.3799
11457SOL    HW235473   0.974   0.503   5.895  0.5776  0.9515 -0.7209
11458SOL     OW35474   2.572   6.431   8.662 -0.1305  0.1808 -0.4020
11458SOL    HW135475   2.544   6.428   8.571  1.3786  0.5426 -0.9074
11458SOL    HW235476   2.494   6.460   8.711 -0.6176  1.1508 -1.7143
11459SOL     OW35477   7.129   0.047   7.875 -0.0536  0.8166 -0.0683
11459SOL    HW135478   7.161   0.137   7.874  0.4897  0.6231 -0.6026
11459SOL    HW235479   7.042   0.053   7.914 -0.2750  1.6581 -0.6650
11460SOL     OW35480   7.033   3.708   1.458  0.0390 -0.0465  0.1773
11460SOL    HW135481   7.073   3.627   1.427  1.4925  0.7668 -0.1158
11460SOL    HW235482   7.057   3.774   1.393  3.9646  1.9356  3.2412
11461SOL     OW35483   6.357   7.001   2.113  0.2387 -0.2949 -0.2032
11461SOL    HW135484   6.440   6.980   2.069  1.4941  1.6603  1.0604
11461SOL    HW235485   6.346   6.932   2.178  0.6344 -0.8184 -0.6834
11462SOL     OW35486   0.839   7.874   1.460 -0.0575  0.3981  0.3150
11462SOL    HW135487   0.852   7.780   1.452  0.5162  0.6357 -2.5176
11462SOL    HW235488   0.927   7.910   1.473 -0.2489  0.5990  1.1501
11463SOL     OW35489   0.327   7.834   9.066 -0.0213  0.0818  0.8210
11463SOL    HW135490   0.330   7.924   9.033  1.0704 -0.5069 -0.8301
11463SOL    HW235491   0.362   7.840   9.155  1.0915  1.1645  0.3433
11464SOL     OW35492   8.618   7.142   5.426  0.2597 -0.2795 -0.0890
11464SOL    HW135493   8.562   7.218   5.443  0.7491 -0.3526  2.1459
11464SOL    HW235494   8.660   7.161   5.342  1.1428  2.4160  0.8762
11465SOL     OW35495   8.950   7.821   7.222 -0.1106 -0.4190  0.8343
11465SOL    HW135496   8.923   7.848   7.309  1.7255  0.6057  1.1413
11465SOL    HW235497   9.028   7.768   7.236 -0.2504 -0.9118 -0.1481
11466SOL     OW35498   1.402   4.928   3.314 -0.0470  0.1239  0.2837
11466SOL    HW135499   1.310   4.953   3.310 -0.0726  0.0965  0.6595
11466SOL    HW235500   1.446   5.005   3.351  0.4221  1.0126 -1.9421
11467SOL     OW35501   3.491   7.925   1.730 -0.0764  0.4233 -0.4040
11467SOL    HW135502   3.527   7.940   1.817  1.3486 -1.7308 -0.5488
11467SOL    HW235503   3.406   7.886   1.746 -1.0073  2.4467 -0.0518
11468SOL     OW35504   5.049   2.157   4.284  0.4321 -0.1082 -0.3267
11468SOL    HW135505   5.137   2.132   4.255  0.4773 -0.4802  0.1016
11468SOL    HW235506   5.054   2.252   4.296  0.0846  0.2382 -2.5680
11469SOL     OW35507   1.809   5.649   7.080 -0.3243  1.0478 -0.0378
11469SOL    HW135508   1.855   5.566   7.071  0.2339  1.4695 -1.5003
11469SOL    HW235509   1.722   5.625   7.111  0.2008  0.0345  0.6947
11470SOL     OW35510   7.892   0.718   4.595  0.0692 -0.1853  0.1905
11470SOL    HW135511   7.946   0.640   4.604  0.0608 -0.0338  2.1004
11470SOL    HW235512   7.803   0.688   4.612  0.2079  0.3916  2.1754
11471SOL     OW35513   1.161   3.796   3.225 -0.2623  0.5834  0.1555
11471SOL    HW135514   1.188   3.878   3.182 -0.3059  0.8044  0.5441
11471SOL    HW235515   1.081   3.819   3.272  0.0436  0.4664  0.7395
11472SOL     OW35516   7.121   6.123   0.946  0.1869 -0.1858 -0.5870
11472SOL    HW135517   7.081   6.205   0.917  1.3764  0.0888 -1.5358
11472SOL    HW235518   7.190   6.151   1.007 -0.5418 -0.6097  0.4750
11473SOL     OW35519   7.372   2.863   1.642 -0.0098  0.2348 -0.2348
11473SOL    HW135520   7.337   2.774   1.642  0.1516  0.1178 -2.1460
11473SOL    HW235521   7.301   2.916   1.678 -0.7868 -0.4642 -0.6819
11474SOL     OW35522   0.852   4.399   1.796 -0.3558  0.0037  0.1475
11474SOL    HW135523   0.833   4.481   1.750 -0.0321 -0.3947 -0.7152
11474SOL    HW235524   0.948   4.398   1.803 -0.2886 -0.7588 -0.7243
11475SOL     OW35525   7.245   3.231   5.518  0.2035  0.0646 -0.3825
11475SOL    HW135526   7.284   3.317   5.506 -0.8027  0.8028  1.2760
11475SOL    HW235527   7.201   3.236   5.603  1.1176 -2.4747  0.3253
11476SOL     OW35528   7.984   3.281   1.724  0.0411  0.2450 -0.4869
11476SOL    HW135529   7.947   3.365   1.753  0.7333  0.1428  0.7568
11476SOL    HW235530   7.915   3.242   1.671 -0.3402  1.5497 -0.9955
11477SOL     OW35531   0.713   5.568   7.104  0.1263 -0.4829  0.4287
11477SOL    HW135532   0.797   5.602   7.075 -0.9521  0.2500 -2.0859
11477SOL    HW235533   0.656   5.645   7.109 -0.8234 -1.1631  0.4214
11478SOL     OW35534   8.831   4.081   1.793  0.0135 -0.1537  0.0420
11478SOL    HW135535   8.820   3.988   1.775  0.1782 -0.2038  0.1933
11478SOL    HW235536   8.926   4.093   1.795 -0.0032 -0.1272  0.7589
11479SOL     OW35537   0.100   2.024   8.302 -0.3710  0.1206 -0.6188
11479SOL    HW135538   0.130   1.939   8.333 -0.6493  0.5566  0.9115
11479SOL    HW235539   0.143   2.087   8.359 -2.4561  0.8611  0.2238
11480SOL     OW35540   1.087   5.094   7.601  0.3584  0.5448 -0.6657
11480SOL    HW135541   1.131   5.163   7.651 -1.0920  0.5303  0.7076
11480SOL    HW235542   1.124   5.012   7.634  0.6316  0.5916 -0.8526
11481SOL     OW35543   3.246   5.414   5.790 -0.6476  0.4820 -0.0240
11481SOL    HW135544   3.218   5.505   5.780 -0.7370  0.4700  0.1124
11481SOL    HW235545   3.270   5.386   5.702  1.6197  1.3599  0.2434
11482SOL     OW35546   7.160   2.443   1.581  0.6257 -0.0119 -0.1002
11482SOL    HW135547   7.158   2.414   1.490  0.5301 -0.3850  0.0180
11482SOL    HW235548   7.132   2.366   1.631 -1.1158  0.7019  0.1103
11483SOL     OW35549   2.640   7.428   2.885  0.0188  0.1604  0.1825
11483SOL    HW135550   2.657   7.396   2.974  1.4494 -0.3924 -0.2521
11483SOL    HW235551   2.655   7.522   2.890  0.3375  0.0965  0.4829
11484SOL     OW35552   6.075   4.024   4.534  0.4791  0.3974  0.0068
11484SOL    HW135553   6.097   4.107   4.491 -0.5256  0.3410 -0.6475
11484SOL    HW235554   6.044   3.968   4.463 -1.2975  0.3141  0.7859
11485SOL     OW35555   4.124   0.734   8.698  0.0249  0.3386  0.3688
11485SOL    HW135556   4.211   0.775   8.693 -0.4913  1.2814 -1.2745
11485SOL    HW235557   4.063   0.806   8.686 -0.9291 -0.7551 -1.6404
11486SOL     OW35558   1.496   1.777   4.615  0.1926 -0.2970  0.3231
11486SOL    HW135559   1.539   1.808   4.535 -1.3527  0.8274 -0.1254
11486SOL    HW235560   1.405   1.806   4.606 -0.3224 -1.2951  1.9037
11487SOL     OW35561   6.100   4.119   1.122  0.2166 -0.2549  0.3081
11487SOL    HW135562   6.119   4.091   1.212  1.1147  2.1710  0.9291
11487SOL    HW235563   6.167   4.075   1.069  0.9208 -0.1471  1.0871
11488SOL     OW35564   8.247   3.550   2.194  0.3055 -0.2596  0.1970
11488SOL    HW135565   8.235   3.459   2.165 -0.6157  0.4623 -1.8485
11488SOL    HW235566   8.342   3.563   2.192  0.3428 -0.5093 -1.8534
11489SOL     OW35567   0.954   4.707   1.531 -1.1406  0.0244 -0.2894
11489SOL    HW135568   0.956   4.801   1.547 -1.0415  0.0780 -0.6187
11489SOL    HW235569   0.887   4.674   1.591 -0.3887  0.1446  0.6364
11490SOL     OW35570   8.430   2.596   5.854  0.0022  0.8766 -0.0243
11490SOL    HW135571   8.353   2.549   5.887  0.9026  0.1908  1.1918
11490SOL    HW235572   8.461   2.647   5.929  0.3062  1.7384 -0.7145
11491SOL     OW35573   2.053   2.669   0.694 -0.2479 -0.0860 -0.1575
11491SOL    HW135574   2.047   2.726   0.617  1.4659 -1.0500 -1.0775
11491SOL    HW235575   2.111   2.598   0.666 -1.8165 -1.9757  1.1310
11492SOL     OW35576   0.420   9.035   5.392  0.0400 -0.5149 -0.1936
11492SOL    HW135577   0.380   9.040   5.305  1.7485 -1.8193 -1.1103
11492SOL    HW235578   0.455   9.122   5.408 -3.3390  0.8113  0.8228
11493SOL     OW35579   2.874   4.072   6.010 -0.1416  0.0460  0.4395
11493SOL    HW135580   2.858   4.151   5.960 -0.8210 -0.8805 -0.8785
11493SOL    HW235581   2.801   4.067   6.071 -0.2730  0.2613  0.3001
11494SOL     OW35582   8.158   1.320   4.777  0.0775  0.3843  0.1440
11494SOL    HW135583   8.179   1.402   4.732  1.3420 -0.1357 -0.2541
11494SOL    HW235584   8.222   1.315   4.849 -0.8829  0.4127  1.0248
11495SOL     OW35585   5.576   5.156   1.565  0.2100 -0.1353 -0.3466
11495SOL    HW135586   5.547   5.129   1.478 -3.7096  2.0614  0.0419
11495SOL    HW235587   5.606   5.246   1.553 -1.2470  0.5198  0.6116
11496SOL     OW35588   5.396   2.648   2.403 -0.7376 -0.1541 -0.6223
11496SOL    HW135589   5.464   2.715   2.412 -1.0213  0.2282 -1.2458
11496SOL    HW235590   5.405   2.617   2.313  0.2226 -1.8879  0.0309
11497SOL     OW35591   7.793   1.078   1.419  0.0441 -0.0226  0.0851
11497SOL    HW135592   7.793   1.171   1.441 -1.1196  0.1818 -0.6745
11497SOL    HW235593   7.883   1.060   1.391  1.4455 -0.1615  4.1325
11498SOL     OW35594   0.847   7.055   3.535 -0.5573 -0.2905 -0.0025
11498SOL    HW135595   0.774   6.993   3.542 -1.0102  0.3477  1.2327
11498SOL    HW235596   0.810   7.138   3.565  0.1358  0.5169 -1.3133
11499SOL     OW35597   6.709   1.254   7.535 -0.2317  0.3550  0.3866
11499SOL    HW135598   6.770   1.228   7.466 -0.9952 -0.1598 -0.0997
11499SOL    HW235599   6.664   1.331   7.501 -3.1019 -1.8745 -1.2162
11500SOL     OW35600   4.832   7.650   6.465  0.0007  0.3019  0.1602
11500SOL    HW135601   4.922   7.672   6.442  0.6085 -0.1735  1.9544
11500SOL    HW235602   4.839   7.599   6.546 -1.7947 -0.9807 -0.4279
11501SOL     OW35603   2.419   0.257   7.356 -0.2003 -0.5186  0.6136
11501SOL    HW135604   2.448   0.244   7.266 -0.7750 -0.3385  0.4005
11501SOL    HW235605   2.499   0.279   7.403 -0.1934  1.8843 -0.3483
11502SOL     OW35606   2.099   4.685   8.477 -0.0679 -0.6036 -0.5750
11502SOL    HW135607   2.082   4.774   8.508  0.2760 -1.1890  1.4891
11502SOL    HW235608   2.194   4.680   8.467 -0.2136 -0.2266 -2.5361
11503SOL     OW35609   7.586   6.132   1.625  0.0467  0.2609  0.6968
11503SOL    HW135610   7.592   6.223   1.654  0.4163 -0.1131  1.8681
11503SOL    HW235611   7.677   6.103   1.619 -0.0039 -1.2494  4.5405
11504SOL     OW35612   2.125   1.001   0.999  0.2188 -0.4848  0.5148
11504SOL    HW135613   2.099   0.969   1.086 -0.4982  0.1652  0.5517
11504SOL    HW235614   2.105   0.929   0.940  1.3432 -1.1870  0.9686
11505SOL     OW35615   1.236   0.762   4.526 -0.1538 -0.0729 -0.2303
11505SOL    HW135616   1.312   0.731   4.476 -0.3921  1.0116 -1.3290
11505SOL    HW235617   1.161   0.727   4.479 -0.4730  2.6058 -1.9971
11506SOL     OW35618   4.671   4.158   4.554  0.0863  0.2578  0.0442
11506SOL    HW135619   4.720   4.236   4.578  0.6560 -0.6168  1.8764
11506SOL    HW235620   4.584   4.171   4.592 -0.0932  0.3557 -0.3874
11507SOL     OW35621   8.887   8.592   6.064 -0.4552  0.5805  0.1130
11507SOL    HW135622   8.918   8.531   5.998 -1.3635 -0.8956  0.9953
11507SOL    HW235623   8.950   8.586   6.135 -0.3400  0.9743  0.0494
11508SOL     OW35624   6.850   7.553   5.872 -0.0401  0.1163 -0.2141
11508SOL    HW135625   6.943   7.543   5.851  0.0554  2.4139 -1.2885
11508SOL    HW235626   6.841   7.521   5.961  2.1264  1.2868  0.4858
11509SOL     OW35627   1.103   0.877   5.876  0.1459 -0.0512 -0.0471
11509SOL    HW135628   1.137   0.962   5.902 -2.0406  1.1154 -0.7068
11509SOL    HW235629   1.163   0.847   5.808  0.8366  1.0554  0.0485
11510SOL     OW35630   4.313   3.729   5.380 -0.0593 -0.3676 -0.0902
11510SOL    HW135631   4.296   3.816   5.414  2.7727 -0.0020  0.5956
11510SOL    HW235632   4.310   3.672   5.457 -1.5222 -0.8853 -0.4830
11511SOL     OW35633   9.053   2.468   8.205  0.7230 -0.0237 -0.0007
11511SOL    HW135634   9.074   2.380   8.237 -1.4315 -0.9530 -0.9659
11511SOL    HW235635   9.004   2.508   8.277  2.5688  0.8295  0.8471
11512SOL     OW35636   1.083   4.213   3.427  0.0131 -0.0430 -0.7123
11512SOL    HW135637   1.021   4.175   3.490  1.5387  2.5284  2.7236
11512SOL    HW235638   1.072   4.308   3.438  3.5099  0.5049 -0.9716
11513SOL     OW35639   5.909   7.848   4.430 -0.5464  0.2536 -0.1100
11513SOL    HW135640   5.956   7.842   4.347 -1.2908  0.2953 -0.5452
11513SOL    HW235641   5.820   7.876   4.405 -0.3166  1.9836  0.8438
11514SOL     OW35642   0.290   4.402   1.508 -0.3084 -0.1439  0.2327
11514SOL    HW135643   0.282   4.315   1.548  2.1568 -0.3924  0.3199
11514SOL    HW235644   0.296   4.462   1.582 -0.2826 -0.0818  0.1801
11515SOL     OW35645   5.327   2.058   4.436 -0.0351  0.2361  0.0059
11515SOL    HW135646   5.272   1.984   4.462 -1.3730  1.6141  1.3133
11515SOL    HW235647   5.312   2.069   4.342  0.3500 -1.2495 -0.2499
11516SOL     OW35648   0.362   1.453   6.809  0.7078 -0.1805 -0.0353
11516SOL    HW135649   0.333   1.523   6.867 -0.9465 -1.6330  0.9679
11516SOL    HW235650   0.316   1.470   6.726 -0.2495 -0.4544  0.4304
11517SOL     OW35651   6.358   0.508   2.298  0.1895  0.2968 -0.3003
11517SOL    HW135652   6.453   0.524   2.301  0.5254 -1.2129 -1.4286
11517SOL    HW235653   6.351   0.415   2.278 -1.5594  0.1948  0.6909
11518SOL     OW35654   4.800   2.218   3.006 -0.0540  0.4860 -0.1569
11518SOL    HW135655   4.891   2.193   2.990 -0.0329 -0.0160  0.6947
11518SOL    HW235656   4.751   2.135   3.006 -0.5793  0.7759 -0.9404
11519SOL     OW35657   2.124   6.677   2.034  0.0290  0.0867  0.3721
11519SOL    HW135658   2.133   6.683   2.129 -0.3263  0.1618  0.4048
11519SOL    HW235659   2.089   6.589   2.019  0.1187  0.0623  0.3106
11520SOL     OW35660   3.793   8.296   4.042  0.0715 -0.1822  0.0690
11520SOL    HW135661   3.786   8.374   4.097 -3.3263 -1.3567  1.5716
11520SOL    HW235662   3.799   8.223   4.104 -0.0009 -1.3206 -1.2057
11521SOL     OW35663   9.020   4.760   1.273 -0.3311  0.1318  0.2032
11521SOL    HW135664   9.085   4.711   1.222 -1.7289 -1.4543 -0.1352
11521SOL    HW235665   9.059   4.847   1.284  1.8404 -0.7649  0.0289
11522SOL     OW35666   0.098   3.645   6.836  0.2865  0.3237  0.0913
11522SOL    HW135667   0.085   3.551   6.850 -0.9480  0.3937 -0.4191
11522SOL    HW235668   0.161   3.671   6.903  1.5422 -1.0822 -0.4892
11523SOL     OW35669   0.170   7.316   3.331  0.6232 -0.9069 -0.5187
11523SOL    HW135670   0.131   7.231   3.310  0.7812 -0.2302 -4.2218
11523SOL    HW235671   0.243   7.325   3.271 -0.3306  2.4598 -1.4054
11524SOL     OW35672   6.136   1.302   7.782 -0.3924  0.5569  0.3070
11524SOL    HW135673   6.102   1.314   7.693 -0.6855 -1.2838  0.1427
11524SOL    HW235674   6.198   1.375   7.793 -1.7249  1.9027 -0.6891
11525SOL     OW35675   8.439   4.679   2.985  0.8601 -0.3216 -0.4059
11525SOL    HW135676   8.439   4.611   3.052  0.9393  0.0720 -0.0050
11525SOL    HW235677   8.491   4.643   2.914 -0.2313 -1.2487 -0.7755
11526SOL     OW35678   5.492   3.433   8.566 -0.3572  0.4019 -0.2095
11526SOL    HW135679   5.466   3.515   8.606 -1.4806 -0.0509  0.0313
11526SOL    HW235680   5.556   3.458   8.500  0.1512  1.3456  0.6043
11527SOL     OW35681   6.488   0.172   4.936  0.4520 -0.5964 -0.1209
11527SOL    HW135682   6.461   0.236   5.002  0.2047 -0.8688  0.0427
11527SOL    HW235683   6.409   0.156   4.884  0.7246 -0.1475 -0.6827
11528SOL     OW35684   3.831   7.549   5.939  0.0981  0.2772  0.0913
11528SOL    HW135685   3.793   7.520   5.856  1.2218  1.0765 -0.7388
11528SOL    HW235686   3.925   7.538   5.927  0.2396 -0.4997  1.6322
11529SOL     OW35687   0.856   0.925   9.013  0.1175  0.1805  0.2790
11529SOL    HW135688   0.822   1.004   9.056  0.0456  0.0541  0.4550
11529SOL    HW235689   0.845   0.856   9.078 -0.8716 -0.2116 -0.2766
11530SOL     OW35690   1.984   9.115   1.067 -0.1211  0.1891 -0.3497
11530SOL    HW135691   1.957   9.148   0.981 -0.7905  0.5759 -0.0017
11530SOL    HW235692   1.972   9.189   1.126 -2.0947 -0.7356  0.5343
11531SOL     OW35693   1.529   8.065   6.749  0.7262  0.1371  0.9765
11531SOL    HW135694   1.472   8.117   6.806  1.0951  0.2163  1.2820
11531SOL    HW235695   1.492   8.075   6.662 -0.2754 -0.5782  1.3057
11532SOL     OW35696   4.222   2.664   7.838 -0.0640 -0.1662 -0.5593
11532SOL    HW135697   4.212   2.731   7.771 -1.2187 -1.4442 -1.7229
11532SOL    HW235698   4.265   2.591   7.793 -1.2614 -1.2215 -0.0565
11533SOL     OW35699   1.072   8.262   4.878  0.1123 -0.2036  0.8599
11533SOL    HW135700   1.054   8.215   4.796  0.4428  1.0813  0.0255
11533SOL    HW235701   1.148   8.217   4.915  1.1994  0.4032 -0.5533
11534SOL     OW35702   4.194   5.642   7.368 -0.6465 -0.5462 -0.4528
11534SOL    HW135703   4.195   5.735   7.346 -0.7265 -0.0674  1.4228
11534SOL    HW235704   4.270   5.606   7.323 -0.8876  0.3001 -1.5983
11535SOL     OW35705   0.034   4.468   5.459 -0.5285 -0.0723  0.1966
11535SOL    HW135706   0.118   4.483   5.415 -1.4846  1.1673 -1.2846
11535SOL    HW235707   0.024   4.543   5.518 -0.8720  0.1069 -0.0860
11536SOL     OW35708   3.594   3.141   0.692  0.8491  0.0894 -0.0018
11536SOL    HW135709   3.505   3.106   0.688  0.4024  1.2749 -0.8028
11536SOL    HW235710   3.598   3.188   0.776  0.2474  1.2107 -0.5782
11537SOL     OW35711   8.627   2.393   1.155 -0.8385  0.2282  0.4236
11537SOL    HW135712   8.596   2.464   1.211 -2.9959 -0.1929 -0.1599
11537SOL    HW235713   8.722   2.393   1.168 -1.0035  1.7724  2.1102
11538SOL     OW35714   8.297   1.907   6.342  0.3612 -0.8155 -0.2496
11538SOL    HW135715   8.233   1.963   6.298  0.3049  0.7753  1.6997
11538SOL    HW235716   8.339   1.858   6.272 -0.6413  0.6044 -1.9118
11539SOL     OW35717   4.225   8.061   2.318 -0.2852 -0.0223 -0.3309
11539SOL    HW135718   4.255   8.097   2.235 -0.9609  0.7664 -0.2509
11539SOL    HW235719   4.151   8.004   2.295 -0.6813  0.4491 -0.2574
11540SOL     OW35720   6.893   6.918   1.166  0.4661  0.1628 -0.4082
11540SOL    HW135721   6.802   6.893   1.176  0.0982  0.4355 -2.5721
11540SOL    HW235722   6.891   6.994   1.108  2.0357  0.5130 -0.0570
11541SOL     OW35723   5.999   3.094   0.659  0.1084 -0.9169  0.8757
11541SOL    HW135724   6.047   3.147   0.723 -1.2842 -2.2247  3.1481
11541SOL    HW235725   6.028   3.004   0.676 -2.0113 -1.5655  1.3288
11542SOL     OW35726   1.863   2.734   4.698 -0.4583 -0.6489  0.1423
11542SOL    HW135727   1.866   2.787   4.778  0.0148  0.0415 -0.3204
11542SOL    HW235728   1.795   2.775   4.645  1.2782  0.7772 -1.0716
11543SOL     OW35729   7.416   3.172   7.455  0.3176  0.0248 -0.1912
11543SOL    HW135730   7.323   3.154   7.468  0.6615 -0.3924  2.2822
11543SOL    HW235731   7.461   3.112   7.515  2.2032  0.2603 -1.2677
11544SOL     OW35732   1.719   5.391   2.740 -0.6518 -0.3513  0.5777
11544SOL    HW135733   1.790   5.330   2.760  0.5291  0.9361  0.4319
11544SOL    HW235734   1.667   5.346   2.673 -1.0323 -2.0486  1.9430
11545SOL     OW35735   6.783   2.657   5.729 -0.5496  0.8848 -0.2399
11545SOL    HW135736   6.717   2.726   5.726 -0.9073  0.5375 -0.5464
11545SOL    HW235737   6.740   2.584   5.772  0.2605  1.2857  1.3004
11546SOL     OW35738   8.761   1.494   7.839  0.5263 -0.3434  0.0968
11546SOL    HW135739   8.781   1.539   7.921  0.9564 -1.2133  0.4770
11546SOL    HW235740   8.698   1.427   7.863  0.3290 -0.3266 -0.3668
11547SOL     OW35741   4.207   3.119   3.143 -0.1019 -0.1417  0.2460
11547SOL    HW135742   4.193   3.144   3.052 -0.7125  0.6150  0.5398
11547SOL    HW235743   4.277   3.177   3.174 -1.3169  1.0860  0.8404
11548SOL     OW35744   6.323   0.274   2.941  0.4522 -0.1535  0.0707
11548SOL    HW135745   6.272   0.295   3.019 -1.2092  0.8934 -1.2398
11548SOL    HW235746   6.400   0.331   2.948  1.5368 -1.7287  2.0447
11549SOL     OW35747   4.820   4.238   3.491  0.1484 -0.8522  0.4599
11549SOL    HW135748   4.725   4.253   3.501  0.3324  0.8866 -0.0319
11549SOL    HW235749   4.853   4.236   3.581  0.0568  1.9864  0.6614
11550SOL     OW35750   3.550   9.015   8.843  0.0836  0.1591 -0.7202
11550SOL    HW135751   3.475   9.002   8.901  1.6951 -1.2411  1.1821
11550SOL    HW235752   3.514   9.006   8.755 -1.7910 -1.6855  0.1512
11551SOL     OW35753   4.766   5.978   6.727 -0.1300  0.0970 -0.2756
11551SOL    HW135754   4.763   5.883   6.739 -0.2964  0.1929  0.4790
11551SOL    HW235755   4.776   6.014   6.815 -3.9896  0.9323  0.0419
11552SOL     OW35756   4.570   0.987   4.110  0.3412 -0.3223  0.2174
11552SOL    HW135757   4.569   0.907   4.058 -1.3541 -0.8229  0.9577
11552SOL    HW235758   4.502   0.974   4.176  1.3768  0.9212  1.6097
11553SOL     OW35759   5.833   0.891   7.530 -0.1842  0.1289  0.4224
11553SOL    HW135760   5.821   0.797   7.519  1.5250 -0.0387 -0.2678
11553SOL    HW235761   5.825   0.927   7.442 -1.2058  0.7024  0.7306
11554SOL     OW35762   4.274   5.900   5.170 -0.7810 -0.4862  0.8291
11554SOL    HW135763   4.222   5.820   5.176  0.6632 -1.4717  0.7146
11554SOL    HW235764   4.359   5.876   5.204 -0.4921  1.2003  1.4004
11555SOL     OW35765   4.131   3.600   1.135  0.5187 -0.8535  1.1160
11555SOL    HW135766   4.175   3.637   1.211 -2.4597 -2.5643  3.8924
11555SOL    HW235767   4.072   3.670   1.105  0.8760 -0.5692  1.0675
11556SOL     OW35768   3.833   5.817   6.751  0.2860  0.3053  0.0321
11556SOL    HW135769   3.798   5.843   6.666 -0.8205 -1.7958 -0.2128
11556SOL    HW235770   3.767   5.757   6.787  1.2916  0.2182  1.8549
11557SOL     OW35771   5.030   7.676   0.502  0.2564 -0.6044  0.0133
11557SOL    HW135772   5.081   7.756   0.516  0.3797 -0.3127 -1.9272
11557SOL    HW235773   5.002   7.650   0.590  1.7415  0.5502  0.8628
11558SOL     OW35774   7.400   3.769   1.532  0.0348  0.1558 -0.1497
11558SOL    HW135775   7.316   3.796   1.570  0.4133 -0.3044  1.0435
11558SOL    HW235776   7.400   3.809   1.445  0.1653  3.2084  1.1418
11559SOL     OW35777   6.404   4.819   1.674 -0.2665  0.3550  0.7985
11559SOL    HW135778   6.453   4.757   1.619 -2.3803  0.9869 -2.0606
11559SOL    HW235779   6.467   4.887   1.695  0.6817  0.0881 -0.9492
11560SOL     OW35780   0.225   2.566   3.812  0.1973  0.9645  0.0087
11560SOL    HW135781   0.310   2.528   3.836 -0.6968 -1.6070 -0.5711
11560SOL    HW235782   0.242   2.613   3.730  0.8526 -0.6083 -0.7907
11561SOL     OW35783   4.232   7.748   6.970 -0.2481 -0.0452 -0.0474
11561SOL    HW135784   4.151   7.726   7.017  0.2987  0.7046  1.3236
11561SOL    HW235785   4.295   7.765   7.040  0.8008  0.4394 -1.0947
11562SOL     OW35786   2.896   6.315   2.276 -0.2224  0.1407 -0.2471
11562SOL    HW135787   2.988   6.325   2.301 -0.2393  0.0527 -0.1517
11562SOL    HW235788   2.878   6.392   2.222 -0.4562  0.8294  0.7817
11563SOL     OW35789   5.694   2.268   7.047  0.0188  0.1961 -0.2441
11563SOL    HW135790   5.706   2.280   6.953 -0.1371 -1.4728 -0.5054
11563SOL    HW235791   5.758   2.327   7.087 -1.1438  2.2803 -1.3350
11564SOL     OW35792   5.353   2.674   1.611 -0.1999 -0.2277 -0.2624
11564SOL    HW135793   5.440   2.640   1.630 -0.0382  1.5138  2.6449
11564SOL    HW235794   5.294   2.620   1.664 -0.3258  1.4546  1.4150
11565SOL     OW35795   2.499   1.037   2.965 -0.2233  0.0042 -0.5534
11565SOL    HW135796   2.489   0.974   2.894  1.1342  1.0564 -1.7542
11565SOL    HW235797   2.590   1.028   2.993 -0.4903  0.2446  0.4347
11566SOL     OW35798   4.793   0.774   6.481  0.1551 -0.1507  0.6027
11566SOL    HW135799   4.768   0.775   6.389  0.6646  0.4011  0.4620
11566SOL    HW235800   4.793   0.681   6.505  1.7266 -0.4467 -0.4320
11567SOL     OW35801   2.899   7.450   9.081 -0.3214 -0.4855  0.7294
11567SOL    HW135802   2.959   7.446   9.155  1.2677 -0.3921 -0.5146
11567SOL    HW235803   2.907   7.364   9.039 -0.0897 -0.0416 -0.1632
11568SOL     OW35804   9.060   1.950   0.775 -0.2931  0.4204 -0.6021
11568SOL    HW135805   9.069   2.021   0.712  1.4069  0.0010 -0.8886
11568SOL    HW235806   8.982   1.902   0.747  0.7204 -0.0977 -2.7786
11569SOL     OW35807   5.929   7.389   8.700 -0.4757 -0.8792 -0.2856
11569SOL    HW135808   5.947   7.482   8.688  0.4918 -0.7539  1.7594
11569SOL    HW235809   5.859   7.370   8.637  0.0706  0.9409 -1.5299
11570SOL     OW35810   6.478   5.818   0.865 -0.0578  0.7314 -0.3102
11570SOL    HW135811   6.500   5.827   0.958  0.5135 -1.1417 -0.2173
11570SOL    HW235812   6.395   5.770   0.865  1.5439 -2.2638 -0.7084
11571SOL     OW35813   8.515   7.325   1.328  0.1381  0.1053 -0.2575
11571SOL    HW135814   8.562   7.248   1.359 -0.7085  0.1967  1.3232
11571SOL    HW235815   8.581   7.375   1.280  1.0213 -0.9460 -0.1922
11572SOL     OW35816   6.311   3.933   1.797 -0.3970 -0.0811 -0.2467
11572SOL    HW135817   6.304   4.027   1.780 -3.8253 -0.2425 -0.4492
11572SOL    HW235818   6.293   3.892   1.713 -0.7149 -0.9151  0.2175
11573SOL     OW35819   7.590   8.827   5.891  0.1760  0.5059 -0.2792
11573SOL    HW135820   7.575   8.802   5.983 -1.6778  0.6355 -0.4967
11573SOL    HW235821   7.506   8.865   5.864  1.0753  1.5455 -1.6897
11574SOL     OW35822   2.553   7.493   4.393 -0.1673  0.5704  0.0839
11574SOL    HW135823   2.648   7.507   4.396 -0.3014  1.3853  1.1308
11574SOL    HW235824   2.516   7.573   4.431 -1.2207 -0.2345  0.8105
11575SOL     OW35825   2.715   2.241   2.348  0.2077 -0.2620  0.2787
11575SOL    HW135826   2.673   2.327   2.347 -0.2481 -0.4841 -0.3124
11575SOL    HW235827   2.700   2.208   2.437 -0.2405 -0.0253  0.2941
11576SOL     OW35828   1.105   5.766   7.092  0.3719 -0.2023  0.2478
11576SOL    HW135829   1.196   5.771   7.066  0.5722 -2.6251  0.2486
11576SOL    HW235830   1.058   5.740   7.013 -0.3255  0.9572  0.2608
11577SOL     OW35831   6.108   6.068   1.086  0.2949  0.2655 -0.3857
11577SOL    HW135832   6.067   6.107   1.163  0.2980 -1.5086  0.5923
11577SOL    HW235833   6.102   5.973   1.102  1.0258 -0.1293 -2.1998
11578SOL     OW35834   0.398   8.102   8.338 -0.4179  0.2168 -0.1538
11578SOL    HW135835   0.419   8.184   8.293 -0.1761  1.1740  1.6007
11578SOL    HW235836   0.428   8.034   8.278  0.4169  1.4215 -1.1776
11579SOL     OW35837   6.922   6.223   9.093  0.1423  0.4096  0.6544
11579SOL    HW135838   6.887   6.141   9.127  1.2142 -0.7480 -0.8485
11579SOL    HW235839   7.017   6.215   9.105  0.4011  0.6693 -1.0103
11580SOL     OW35840   6.174   1.724   4.761 -0.4696  0.0628 -0.3355
11580SOL    HW135841   6.235   1.679   4.703 -1.6621 -0.5880 -1.1314
11580SOL    HW235842   6.219   1.728   4.846  0.7476 -0.1919 -0.9512
11581SOL     OW35843   3.304   8.717   5.285 -0.8881 -0.3434 -0.3967
11581SOL    HW135844   3.360   8.793   5.276  0.4163 -1.0959  0.8714
11581SOL    HW235845   3.229   8.748   5.337 -0.7499  0.2541 -0.5552
11582SOL     OW35846   2.930   4.313   4.657  0.8019 -0.2406 -0.4522
11582SOL    HW135847   2.962   4.229   4.691  0.5181 -0.5812 -0.9968
11582SOL    HW235848   2.881   4.351   4.729 -0.0019 -1.0639 -0.5360
11583SOL     OW35849   2.554   1.459   2.972 -0.1807  0.0112  0.2106
11583SOL    HW135850   2.560   1.546   3.013  0.8674 -0.6283  1.4845
11583SOL    HW235851   2.613   1.404   3.024 -0.6764 -1.4270 -0.6999
11584SOL     OW35852   4.583   5.505   8.358  0.1067  0.3776 -0.1751
11584SOL    HW135853   4.660   5.491   8.304 -0.4895 -0.1878 -0.9028
11584SOL    HW235854   4.618   5.528   8.444  1.0798 -0.0485 -0.4413
11585SOL     OW35855   6.891   1.841   6.864 -0.0690  0.2589 -0.1911
11585SOL    HW135856   6.893   1.758   6.817  0.0842  0.3986 -0.4360
11585SOL    HW235857   6.971   1.841   6.916 -0.8139 -0.4203  0.9989
11586SOL     OW35858   3.136   2.377   3.978  0.0178 -0.3752  0.0786
11586SOL    HW135859   3.214   2.353   3.926 -0.2503  1.9396 -1.5608
11586SOL    HW235860   3.105   2.458   3.938 -2.3883 -0.4186  1.6631
11587SOL     OW35861   6.524   2.518   6.483 -0.2188 -0.1271 -0.3252
11587SOL    HW135862   6.600   2.468   6.454 -1.4531 -1.3188 -1.6317
11587SOL    HW235863   6.503   2.482   6.569  1.6395  1.3647  0.8428
11588SOL     OW35864   6.984   5.868   1.757 -0.3556 -0.5053 -0.2955
11588SOL    HW135865   6.998   5.827   1.672  0.9061  0.1887 -0.4518
11588SOL    HW235866   7.045   5.942   1.758 -0.9385 -0.0161  0.8844
11589SOL     OW35867   0.841   9.014   8.600 -0.4853 -0.5008 -0.7144
11589SOL    HW135868   0.815   8.964   8.677 -0.5100  2.3303  1.2452
11589SOL    HW235869   0.903   9.079   8.633 -1.5006  1.6813 -2.7864
11590SOL     OW35870   6.751   0.254   7.629  0.4402  0.1966 -0.3696
11590SOL    HW135871   6.710   0.218   7.550 -1.5312  0.6559  0.3960
11590SOL    HW235872   6.842   0.271   7.602  0.9248 -3.2010 -1.3970
11591SOL     OW35873   9.056   4.835   9.009  0.0573 -0.3347 -0.3413
11591SOL    HW135874   8.970   4.812   9.042  0.2260 -1.6285 -0.7446
11591SOL    HW235875   9.047   4.926   8.979 -1.0908 -0.3809 -0.1792
11592SOL     OW35876   8.087   5.480   0.315  0.8106  0.2477 -0.4812
11592SOL    HW135877   8.119   5.406   0.366 -1.3467  0.2756  1.0131
11592SOL    HW235878   8.039   5.534   0.377 -1.0586  0.8202 -2.3074
11593SOL     OW35879   0.725   7.952   3.346 -0.5665 -0.0588  0.5617
11593SOL    HW135880   0.714   7.909   3.431  0.7951  0.8414  1.2355
11593SOL    HW235881   0.784   7.893   3.298 -1.1385 -0.4436  0.3203
11594SOL     OW35882   6.912   0.467   8.854 -0.2208  0.0000 -0.0174
11594SOL    HW135883   6.987   0.526   8.845 -0.1349  0.0091  0.6499
11594SOL    HW235884   6.852   0.513   8.913 -0.1965 -0.5181  0.4276
11595SOL     OW35885   4.288   8.671   1.144  0.0350  0.5238 -0.3212
11595SOL    HW135886   4.271   8.689   1.237 -1.1246 -0.9888 -0.2131
11595SOL    HW235887   4.346   8.595   1.144  0.4702  0.8492 -0.8416
11596SOL     OW35888   0.426   0.384   8.621  0.1837  0.1180 -0.0233
11596SOL    HW135889   0.503   0.336   8.590  1.2121  2.5275 -1.4883
11596SOL    HW235890   0.352   0.338   8.581  0.9180 -1.5151  0.4038
11597SOL     OW35891   0.659   1.497   8.300 -0.0238  0.0789  0.3006
11597SOL    HW135892   0.671   1.461   8.387  0.7255 -1.4749 -0.4157
11597SOL    HW235893   0.591   1.443   8.260  0.2560  0.2092 -0.3779
11598SOL     OW35894   0.443   3.965   6.677 -0.4666  0.7238 -0.0834
11598SOL    HW135895   0.461   4.053   6.708  0.9005  0.1132  1.0039
11598SOL    HW235896   0.369   3.974   6.617  1.4447  3.0104 -2.2773
11599SOL     OW35897   2.080   8.615   7.015  0.0504 -0.5895 -0.6423
11599SOL    HW135898   2.014   8.579   6.956 -0.1720  1.3759 -1.7047
11599SOL    HW235899   2.034   8.629   7.098 -0.8161  0.4259 -1.2677
11600SOL     OW35900   8.534   6.148   8.651  0.2047 -0.4730  0.2304
11600SOL    HW135901   8.599   6.081   8.630 -0.1508 -0.7464  0.0057
11600SOL    HW235902   8.451   6.112   8.621 -0.0395 -0.0776  0.4211
11601SOL     OW35903   5.380   0.013   3.531  0.2723  0.0625  0.1182
11601SOL    HW135904   5.313   0.054   3.476  1.1061  1.3266 -0.0200
11601SOL    HW235905   5.358   0.039   3.620  0.5392  0.4470  0.0765
11602SOL     OW35906   2.558   2.342   1.128 -0.0737  0.0240 -0.2132
11602SOL    HW135907   2.648   2.311   1.116 -0.4363 -0.9185 -0.6168
11602SOL    HW235908   2.544   2.402   1.055  0.4044  0.6084  0.1683
11603SOL     OW35909   4.076   3.900   4.453 -0.2182 -0.4612 -0.0109
11603SOL    HW135910   4.119   3.928   4.372  0.3112  0.5066  0.5891
11603SOL    HW235911   4.073   3.978   4.507 -2.2702 -0.6275  0.1985
11604SOL     OW35912   7.499   8.899   0.456 -0.4444  0.2248 -0.0081
11604SOL    HW135913   7.506   8.825   0.517 -0.1655  0.7840  0.6575
11604SOL    HW235914   7.468   8.971   0.511 -1.3941  0.4282 -0.7938
11605SOL     OW35915   5.897   4.345   0.575  0.0593 -0.0851  0.1338
11605SOL    HW135916   5.921   4.264   0.531 -1.3957 -0.2957 -0.3228
11605SOL    HW235917   5.826   4.382   0.522 -0.6503  0.4672  1.3974
11606SOL     OW35918   4.700   1.696   1.203  0.1445 -0.3066  0.3513
11606SOL    HW135919   4.654   1.770   1.162  1.4728  1.0432  1.2051
11606SOL    HW235920   4.790   1.705   1.174  0.9285  0.1171  2.7246
11607SOL     OW35921   6.538   5.401   0.820  0.1859 -0.4202 -0.3944
11607SOL    HW135922   6.590   5.327   0.789 -0.3200 -0.7468 -0.4767
11607SOL    HW235923   6.447   5.374   0.804 -0.0165  0.0262  0.0038
11608SOL     OW35924   0.666   8.259   3.876  0.0868 -0.3846 -0.4355
11608SOL    HW135925   0.618   8.178   3.858 -1.0331  0.0605  0.4457
11608SOL    HW235926   0.678   8.259   3.971  0.4909  0.2657 -0.4779
11609SOL     OW35927   4.575   0.271   4.201  1.2911 -0.5549  0.1817
11609SOL    HW135928   4.513   0.316   4.260 -0.0702 -0.0312 -1.5687
11609SOL    HW235929   4.580   0.182   4.235 -1.3660 -0.9582 -0.2476
11610SOL     OW35930   2.792   2.311   7.710 -0.2440  0.1877  0.8686
11610SOL    HW135931   2.799   2.264   7.627 -1.5876 -0.2414  0.9703
11610SOL    HW235932   2.742   2.252   7.767 -0.1142  0.8513  1.7003
11611SOL     OW35933   0.865   8.606   0.006 -0.5985  0.3874 -0.1350
11611SOL    HW135934   0.931   8.672  -0.019 -1.5502  1.3844 -0.1201
11611SOL    HW235935   0.870   8.602   0.101  0.9348 -1.1771 -0.2320
11612SOL     OW35936   4.674   6.562   3.841 -0.2185 -0.0202  0.1635
11612SOL    HW135937   4.657   6.469   3.824 -0.2248 -0.1121  0.6762
11612SOL    HW235938   4.686   6.600   3.753 -1.0795 -0.3271 -0.0937
11613SOL     OW35939   4.893   8.713   1.804  0.7237  0.0445  0.1338
11613SOL    HW135940   4.800   8.705   1.783  0.7986  1.2154 -0.7438
11613SOL    HW235941   4.905   8.660   1.883 -0.6435 -0.2780  0.1388
11614SOL     OW35942   1.804   5.245   8.157  0.2046 -0.2036 -0.0472
11614SOL    HW135943   1.819   5.169   8.214  1.1010  0.4798  0.6648
11614SOL    HW235944   1.777   5.208   8.073  0.0403 -1.2813  0.4714
11615SOL     OW35945   0.846   0.895   8.446 -0.2250  0.5281 -0.0446
11615SOL    HW135946   0.864   0.801   8.436  1.2027  0.9823 -2.2093
11615SOL    HW235947   0.818   0.904   8.538 -1.1942 -2.1082  0.0122
11616SOL     OW35948   0.399   5.816   2.092 -0.5467 -0.4353  0.3671
11616SOL    HW135949   0.336   5.744   2.090 -0.7537 -0.2455 -0.0877
11616SOL    HW235950   0.480   5.776   2.121 -0.8572 -0.7005  0.8739
11617SOL     OW35951   8.326   5.581   1.473  0.6307  0.2391  0.0260
11617SOL    HW135952   8.289   5.627   1.398  0.5648  1.0792  0.5574
11617SOL    HW235953   8.292   5.492   1.467  0.6704  0.2880 -0.9597
11618SOL     OW35954   6.738   3.393   0.458 -0.0078  0.1101  0.0171
11618SOL    HW135955   6.807   3.398   0.392 -1.5905  0.2436 -1.7019
11618SOL    HW235956   6.657   3.384   0.408 -1.3249  0.6320  1.9341
11619SOL     OW35957   2.537   3.850   5.886 -0.2595  0.0015  0.5401
11619SOL    HW135958   2.556   3.789   5.815 -0.8564  1.0599 -0.5584
11619SOL    HW235959   2.510   3.795   5.959  3.9013 -1.4386  1.2686
11620SOL     OW35960   5.323   7.650   7.341  0.0198 -0.4423  0.2332
11620SOL    HW135961   5.266   7.640   7.417 -0.5809 -0.5236 -0.2233
11620SOL    HW235962   5.264   7.668   7.268  0.5994 -0.2311 -0.1953
11621SOL     OW35963   4.131   1.399   1.038  0.0039  0.4283 -0.2840
11621SOL    HW135964   4.061   1.455   1.005 -1.8342  0.3732  3.0082
11621SOL    HW235965   4.175   1.451   1.105  1.1710 -0.5668 -0.2363
11622SOL     OW35966   2.923   4.116   3.815 -0.0016  0.8939 -0.0023
11622SOL    HW135967   2.972   4.071   3.885 -1.0832  0.2604  0.3740
11622SOL    HW235968   2.968   4.092   3.735  0.6062  0.7332  0.3823
11623SOL     OW35969   2.115   1.937   6.734 -0.2823 -0.0347 -0.3862
11623SOL    HW135970   2.025   1.945   6.701 -0.2261  0.8238 -0.3520
11623SOL    HW235971   2.109   1.871   6.803 -0.6960 -0.7151 -1.0615
11624SOL     OW35972   1.985   2.461   5.044 -0.6028 -0.0109 -0.6483
11624SOL    HW135973   2.034   2.395   4.996 -1.6661 -0.1849 -1.5432
11624SOL    HW235974   1.980   2.428   5.133  2.6146  0.9748  0.0394
11625SOL     OW35975   0.440   3.620   8.780 -0.2838  0.1044 -0.0609
11625SOL    HW135976   0.480   3.533   8.769  0.6790  0.5507 -0.2431
11625SOL    HW235977   0.418   3.647   8.691  0.1085  0.3550 -0.0841
11626SOL     OW35978   8.627   7.598   1.550 -0.1003 -0.1003  0.2895
11626SOL    HW135979   8.652   7.612   1.641  0.8214 -1.3492  0.2576
11626SOL    HW235980   8.674   7.665   1.501  1.0034 -0.6821  0.5326
11627SOL     OW35981   3.037   6.817   5.694 -0.3078  0.0005  0.1986
11627SOL    HW135982   2.987   6.780   5.622  0.2637  1.0551 -0.7750
11627SOL    HW235983   3.123   6.775   5.689 -0.2820  0.0387  0.3008
11628SOL     OW35984   3.476   3.476   5.312 -0.0733  0.1503 -0.0251
11628SOL    HW135985   3.431   3.412   5.368 -2.3178  0.2558 -1.5574
11628SOL    HW235986   3.447   3.561   5.344  1.0465  0.3425  0.5240
11629SOL     OW35987   8.294   6.529   0.686 -0.1153  0.0306  0.5544
11629SOL    HW135988   8.199   6.544   0.695 -0.3952 -0.2170 -1.5321
11629SOL    HW235989   8.333   6.614   0.709 -0.8551  0.2469  1.0840
11630SOL     OW35990   2.190   2.127   3.339  0.3659 -0.2976  0.4520
11630SOL    HW135991   2.252   2.105   3.408  1.4831 -1.8961 -0.9961
11630SOL    HW235992   2.242   2.171   3.272 -0.2030 -0.9669 -0.4506
11631SOL     OW35993   2.151   7.992   0.671 -0.5609 -0.5684  0.9305
11631SOL    HW135994   2.179   8.083   0.667 -2.6335  0.0921  0.4300
11631SOL    HW235995   2.085   7.990   0.740 -3.5017 -0.7505 -1.6656
11632SOL     OW35996   2.388   2.620   5.446 -0.9250 -0.1194 -0.2021
11632SOL    HW135997   2.414   2.693   5.389 -2.6847 -0.1006 -1.0407
11632SOL    HW235998   2.380   2.660   5.533 -0.9227  0.4585 -0.4646
11633SOL     OW35999   0.553   7.005   6.407 -0.3302 -0.2341 -0.4091
11633SOL    HW136000   0.487   7.019   6.338  0.0720 -1.7322 -1.1327
11633SOL    HW236001   0.620   6.950   6.365  1.8650  1.9384  0.0276
11634SOL     OW36002   0.187   4.696   1.420 -0.2053 -0.2631 -0.2762
11634SOL    HW136003   0.143   4.769   1.464 -0.3925 -0.5829  0.0700
11634SOL    HW236004   0.280   4.709   1.439 -0.1311  0.4136 -1.0087
11635SOL     OW36005   7.648   3.234   1.801  0.1756  0.4079  0.1363
11635SOL    HW136006   7.661   3.327   1.781 -0.2723  0.6436  0.8823
11635SOL    HW236007   7.697   3.221   1.883  1.7722 -0.4656 -0.9076
11636SOL     OW36008   6.923   6.739   2.646 -0.6344  0.3147 -0.2221
11636SOL    HW136009   6.992   6.747   2.579  0.3056 -1.1657  0.5192
11636SOL    HW236010   6.857   6.803   2.619  1.5948  2.8237 -0.2378
11637SOL     OW36011   2.044   4.742   6.265  0.3775 -0.2315 -0.8313
11637SOL    HW136012   1.975   4.683   6.235  0.2317  0.2545 -1.4769
11637SOL    HW236013   2.092   4.765   6.185 -0.9592  2.3186 -1.0113
11638SOL     OW36014   4.197   5.182   7.150 -0.8146 -0.0050  0.2973
11638SOL    HW136015   4.167   5.226   7.230  1.4799 -1.0193  1.8337
11638SOL    HW236016   4.130   5.116   7.133 -1.3226  0.1928  1.3953
11639SOL     OW36017   1.553   5.473   2.245  0.2961 -0.0412  0.6037
11639SOL    HW136018   1.496   5.400   2.270  1.1190 -0.3146  1.7678
11639SOL    HW236019   1.639   5.432   2.232  0.6496  0.6375  0.7666
11640SOL     OW36020   0.256   8.000   6.247 -0.0147  0.7283 -0.0698
11640SOL    HW136021   0.233   8.088   6.216  0.1335  0.8922  0.2823
11640SOL    HW236022   0.236   7.943   6.173  2.1122  1.3379 -1.2141
11641SOL     OW36023   3.159   6.955   5.112  0.1293  0.3603  0.1036
11641SOL    HW136024   3.180   6.936   5.203 -1.8841 -2.1711  0.1380
11641SOL    HW236025   3.223   6.905   5.061 -1.8086 -2.4389  0.2181
11642SOL     OW36026   1.140   1.357   2.231 -0.6610  0.3177 -0.1339
11642SOL    HW136027   1.182   1.334   2.149 -1.1116  0.8606 -0.5239
11642SOL    HW236028   1.053   1.388   2.206  0.1613  3.2181  0.2404
11643SOL     OW36029   7.120   1.277   8.868 -0.5511 -0.0184  0.2441
11643SOL    HW136030   7.138   1.370   8.850  0.6068 -0.1311  0.8022
11643SOL    HW236031   7.168   1.230   8.800  0.7422 -0.2852  1.2974
11644SOL     OW36032   3.058   7.405   4.527 -0.0720  0.1358  0.8569
11644SOL    HW136033   3.023   7.356   4.602 -1.3384 -0.2646  0.0409
11644SOL    HW236034   3.133   7.353   4.498 -0.5229 -0.5428  0.8919
11645SOL     OW36035   4.936   7.882   6.812 -0.3285 -0.3128 -0.2121
11645SOL    HW136036   4.974   7.815   6.755 -1.4631  0.0141 -1.3913
11645SOL    HW236037   4.874   7.833   6.866 -0.0438 -0.4448  0.0019
11646SOL     OW36038   6.110   3.764   5.206 -0.0001  0.1222 -0.2831
11646SOL    HW136039   6.020   3.761   5.240  0.0695  0.4566 -0.0578
11646SOL    HW236040   6.100   3.771   5.112 -0.2478  1.8009 -0.1596
11647SOL     OW36041   5.508   3.912   3.495  0.3639 -0.6444 -0.3163
11647SOL    HW136042   5.462   3.885   3.415 -0.1371 -0.8130  0.0311
11647SOL    HW236043   5.450   3.888   3.566  1.8451 -2.7665  0.2809
11648SOL     OW36044   2.951   2.376   8.815  0.6511  0.2508  0.6210
11648SOL    HW136045   2.992   2.289   8.820 -1.2048 -1.0491 -2.8067
11648SOL    HW236046   2.945   2.393   8.721 -3.1878  1.9797  1.0113
11649SOL     OW36047   8.293   1.448   5.975  0.2721  0.3315 -0.0059
11649SOL    HW136048   8.291   1.441   6.070  0.2720 -0.7788 -0.0803
11649SOL    HW236049   8.248   1.370   5.944 -0.2217  0.9547 -0.9207
11650SOL     OW36050   0.558   8.115   3.167 -0.4819 -0.0943 -0.0595
11650SOL    HW136051   0.591   8.037   3.212  0.3145  1.1645  1.6597
11650SOL    HW236052   0.466   8.121   3.192 -0.8720 -1.1122 -1.1735
11651SOL     OW36053   5.846   4.542   1.495 -0.1821 -0.2547  0.4737
11651SOL    HW136054   5.786   4.604   1.538  0.7760 -0.0204  1.5169
11651SOL    HW236055   5.795   4.462   1.485 -1.2781  0.5231 -0.4264
11652SOL     OW36056   5.154   3.601   1.242  0.6381 -0.2722  0.4053
11652SOL    HW136057   5.220   3.621   1.309 -0.0887  0.3787  0.9535
11652SOL    HW236058   5.132   3.686   1.204  0.1571 -0.4867  0.1913
11653SOL     OW36059   7.837   2.630   2.852  0.4648  0.2045  0.2797
11653SOL    HW136060   7.765   2.604   2.909 -0.1273 -0.3185 -0.6830
11653SOL    HW236061   7.797   2.691   2.790  1.5841  2.6778  1.8164
11654SOL     OW36062   5.520   6.986   2.910  0.0930  0.1410  0.0718
11654SOL    HW136063   5.582   6.920   2.943  1.5007  1.3348 -0.1192
11654SOL    HW236064   5.449   6.985   2.975 -0.0957 -1.7882 -0.1086
11655SOL     OW36065   6.627   3.458   7.796  0.3567 -0.4486  0.1004
11655SOL    HW136066   6.594   3.505   7.719  1.1200 -1.0970 -0.6405
11655SOL    HW236067   6.564   3.388   7.810  0.9192 -1.1528 -0.7780
11656SOL     OW36068   0.269   2.104   1.560  0.4103 -0.0708 -0.4243
11656SOL    HW136069   0.237   2.050   1.632  3.1622 -0.5709  0.5509
11656SOL    HW236070   0.314   2.044   1.501  0.1133  0.6368 -1.4048
11657SOL     OW36071   4.823   5.280   1.120 -0.4135 -0.0159  0.3458
11657SOL    HW136072   4.849   5.191   1.143 -1.3938 -0.3822  0.1037
11657SOL    HW236073   4.860   5.335   1.189  1.5190 -0.4087 -0.3343
11658SOL     OW36074   6.801   1.246   7.844 -0.0824  0.2568 -0.3857
11658SOL    HW136075   6.779   1.218   7.755  3.8109  1.3931 -1.9226
11658SOL    HW236076   6.819   1.339   7.836 -1.3858  0.8087  2.0880
11659SOL     OW36077   5.774   3.130   2.964 -0.0706  0.7852  0.5750
11659SOL    HW136078   5.766   3.048   2.915  0.9459  0.5879  0.7342
11659SOL    HW236079   5.717   3.191   2.916 -0.4746  0.1237  0.1877
11660SOL     OW36080   2.303   2.564   2.506  0.1970 -0.0992 -0.8073
11660SOL    HW136081   2.338   2.498   2.566  0.2415  0.0697 -0.6463
11660SOL    HW236082   2.229   2.602   2.552 -0.1909 -0.4458 -1.1426
11661SOL     OW36083   2.816   8.295   0.585  0.1525  0.1561 -0.3223
11661SOL    HW136084   2.800   8.344   0.665 -2.9486  0.5429 -1.0480
11661SOL    HW236085   2.774   8.210   0.600  1.2785 -0.5231 -0.8533
11662SOL     OW36086   4.721   3.390   3.611  0.7602  0.1556  0.0907
11662SOL    HW136087   4.695   3.302   3.639  1.4027  0.1992  0.8306
11662SOL    HW236088   4.705   3.446   3.687  2.4698  0.2829  0.3951
11663SOL     OW36089   6.135   8.757   4.558  0.3565  0.4343  0.3625
11663SOL    HW136090   6.165   8.666   4.568  0.0734  0.2804 -0.1590
11663SOL    HW236091   6.135   8.772   4.464 -1.6016  0.2895  0.3094
11664SOL     OW36092   3.086   7.266   8.138  0.4215  0.3407 -0.5652
11664SOL    HW136093   3.092   7.210   8.061  0.6318 -0.2110 -0.1526
11664SOL    HW236094   3.163   7.244   8.190  0.9286  1.5747 -0.7629
11665SOL     OW36095   6.885   5.218   5.869  0.2544 -0.6641  0.4814
11665SOL    HW136096   6.891   5.130   5.907  0.4650 -0.7714  0.2008
11665SOL    HW236097   6.976   5.245   5.855  0.1862 -0.4989  0.3486
11666SOL     OW36098   6.663   4.408   7.255 -0.3256  0.9680 -0.6075
11666SOL    HW136099   6.607   4.410   7.177 -1.6996 -0.2972  0.2900
11666SOL    HW236100   6.711   4.325   7.248 -2.0032 -0.1949  0.8584
11667SOL     OW36101   7.953   6.976   4.407 -0.0873 -0.1091 -0.1088
11667SOL    HW136102   8.035   6.993   4.453  0.8839 -3.6714 -0.2388
11667SOL    HW236103   7.973   6.993   4.315 -0.6491  2.4027  0.1441
11668SOL     OW36104   0.610   2.101   4.891  0.3792 -0.3760 -0.5810
11668SOL    HW136105   0.701   2.093   4.863  0.8457 -0.9890  1.0181
11668SOL    HW236106   0.581   2.011   4.906  0.0261 -0.0932  0.4822
11669SOL     OW36107   2.108   2.006   1.246  0.3260  0.1827 -0.5005
11669SOL    HW136108   2.029   2.042   1.285 -0.1429 -0.6700 -0.6533
11669SOL    HW236109   2.077   1.939   1.185  1.2120 -2.7311  1.9876
11670SOL     OW36110   5.658   6.687   6.799  0.2164  0.1436 -0.5495
11670SOL    HW136111   5.663   6.641   6.715 -0.6627 -0.8006 -0.1108
11670SOL    HW236112   5.644   6.778   6.775 -1.4612 -0.3019 -1.4604
11671SOL     OW36113   5.188   1.852   2.258 -0.3618  0.4215 -0.0634
11671SOL    HW136114   5.184   1.899   2.341 -0.0270 -1.3152  0.9964
11671SOL    HW236115   5.229   1.768   2.281  0.2714  0.1404 -2.0993
11672SOL     OW36116   7.925   6.526   4.844  0.4429 -0.2948  0.2913
11672SOL    HW136117   7.942   6.525   4.938 -2.8814  0.1495  1.0087
11672SOL    HW236118   7.882   6.442   4.827 -1.5251  0.7434 -0.1872
11673SOL     OW36119   4.048   0.220   4.843 -0.1187  0.2363  0.2840
11673SOL    HW136120   4.093   0.137   4.826  1.4671  0.9922  0.5892
11673SOL    HW236121   4.014   0.210   4.932 -3.1584 -1.4199 -0.9315
11674SOL     OW36122   1.008   9.010   2.503  0.0246  0.1765  0.0152
11674SOL    HW136123   0.979   8.951   2.573 -0.2216  1.0980  0.7054
11674SOL    HW236124   0.994   8.960   2.423 -1.1543 -0.3320  0.5125
11675SOL     OW36125   3.597   7.646   6.055 -0.2708 -0.0356 -0.3133
11675SOL    HW136126   3.690   7.628   6.037 -0.1560  0.2381 -0.0087
11675SOL    HW236127   3.562   7.679   5.972 -0.7614 -2.6571 -1.2450
11676SOL     OW36128   5.228   0.058   3.750  0.2306 -0.8585  0.4888
11676SOL    HW136129   5.210  -0.035   3.738  0.0478 -0.8055  0.3396
11676SOL    HW236130   5.237   0.069   3.844 -0.4454 -0.9063  0.5667
11677SOL     OW36131   8.404   8.648   4.500  0.2789 -0.2482  0.2035
11677SOL    HW136132   8.439   8.701   4.571 -0.3897 -0.0326  0.3760
11677SOL    HW236133   8.314   8.628   4.527 -0.0053 -0.1057 -0.6031
11678SOL     OW36134   1.421   5.248   0.876  0.1462 -0.6727 -0.3389
11678SOL    HW136135   1.362   5.176   0.900 -0.9268 -0.1854 -1.3994
11678SOL    HW236136   1.489   5.206   0.823  2.3616 -1.7024  3.0046
11679SOL     OW36137   7.933   6.439   4.366 -0.0409 -0.1262 -0.0942
11679SOL    HW136138   7.967   6.458   4.453  1.1098  0.0981 -0.5852
11679SOL    HW236139   7.951   6.518   4.315 -1.2486 -0.0174 -0.3987
11680SOL     OW36140   6.199   8.848   6.298 -0.3030 -0.1370  0.1933
11680SOL    HW136141   6.251   8.924   6.272  0.6499 -0.6010  0.6712
11680SOL    HW236142   6.130   8.884   6.354  0.4607  0.3374  0.8621
11681SOL     OW36143   3.801   4.090   3.927  0.0698 -0.2335  0.3348
11681SOL    HW136144   3.801   4.015   3.986  0.1928  1.4034  2.5297
11681SOL    HW236145   3.717   4.084   3.882 -2.1906  0.8244  3.9881
11682SOL     OW36146   4.367   6.773   6.123 -0.1761 -0.2205 -0.1714
11682SOL    HW136147   4.355   6.705   6.058  0.1855 -0.9403  0.5027
11682SOL    HW236148   4.313   6.846   6.092  0.5364 -0.2775 -1.6409
11683SOL     OW36149   0.745   1.155   3.633  0.4372 -0.1705 -0.3453
11683SOL    HW136150   0.656   1.146   3.600  0.6730 -3.2310 -0.3993
11683SOL    HW236151   0.738   1.136   3.727  1.0191 -0.3040 -0.3268
11684SOL     OW36152   5.625   2.003   8.435  0.1260 -0.1659 -0.0487
11684SOL    HW136153   5.701   2.061   8.445  0.8016 -1.1295  0.6094
11684SOL    HW236154   5.648   1.926   8.486 -1.9687  0.1551  1.4869
11685SOL     OW36155   3.082   1.194   1.451 -0.3697 -0.0583  0.0380
11685SOL    HW136156   3.060   1.207   1.358 -1.4422 -0.3596  0.2268
11685SOL    HW236157   3.041   1.268   1.496 -0.4198 -0.2639  0.3363
11686SOL     OW36158   8.965   2.186   2.092 -0.6226  0.1518 -0.4724
11686SOL    HW136159   8.917   2.104   2.078 -0.2614  0.0732 -1.3206
11686SOL    HW236160   8.977   2.191   2.187 -2.3194  0.1828 -0.2271
11687SOL     OW36161   7.711   0.385   8.054 -0.1501 -0.1502  0.5899
11687SOL    HW136162   7.780   0.359   8.115  0.4613 -0.9229 -0.3945
11687SOL    HW236163   7.706   0.312   7.992  0.4226  1.3474 -1.2774
11688SOL     OW36164   2.667   0.267   2.383 -0.5528 -0.0947 -0.2099
11688SOL    HW136165   2.577   0.295   2.404 -0.2169  1.2712 -0.4724
11688SOL    HW236166   2.693   0.324   2.311  1.0549  0.5651  0.8351
11689SOL     OW36167   0.433   7.237   3.587 -0.2557 -0.4163 -0.2974
11689SOL    HW136168   0.342   7.265   3.593 -0.8562 -1.8239 -2.1216
11689SOL    HW236169   0.449   7.191   3.670 -1.3082 -0.4666 -0.1066
11690SOL     OW36170   0.537   8.785   3.880  0.1819 -0.3659 -0.2199
11690SOL    HW136171   0.517   8.736   3.959  1.8816  0.7689  1.0053
11690SOL    HW236172   0.628   8.761   3.859  0.2793  0.5273 -0.8927
11691SOL     OW36173   8.603   2.052   1.086  0.0209  0.3596  0.4358
11691SOL    HW136174   8.572   1.975   1.039  2.3877 -0.5825  0.2794
11691SOL    HW236175   8.525   2.107   1.097 -1.4927 -1.4972 -0.4880
11692SOL     OW36176   2.859   8.244   4.195 -0.2631 -0.1870  0.1999
11692SOL    HW136177   2.799   8.198   4.136 -0.8678  2.0228 -0.9932
11692SOL    HW236178   2.941   8.195   4.187 -0.5614 -0.4552 -1.8608
11693SOL     OW36179   3.073   1.543   4.383 -0.3998 -0.5158  0.0837
11693SOL    HW136180   3.068   1.622   4.330  1.8365 -0.9698 -0.9312
11693SOL    HW236181   3.075   1.574   4.473 -3.7221  0.2984  0.0101
11694SOL     OW36182   3.032   5.595   3.351  0.2497  0.4873 -0.3686
11694SOL    HW136183   3.116   5.550   3.343  1.1472  1.8897  0.6634
11694SOL    HW236184   2.967   5.530   3.325  1.6005 -0.8522 -0.5189
11695SOL     OW36185   3.261   6.093   7.405 -0.0189  0.3240  0.4360
11695SOL    HW136186   3.227   6.110   7.317  0.0249 -0.0124  0.3511
11695SOL    HW236187   3.324   6.163   7.421 -1.1060  1.2501  0.7881
11696SOL     OW36188   4.659   6.423   5.201 -0.5321  0.7198  0.1253
11696SOL    HW136189   4.641   6.506   5.157  0.8964  0.2592 -1.4240
11696SOL    HW236190   4.657   6.357   5.131  0.2434 -0.2626  0.9867
11697SOL     OW36191   7.021   4.447   7.097 -0.1121 -0.0662 -0.2406
11697SOL    HW136192   7.048   4.423   7.009  0.4771 -0.1662 -0.0362
11697SOL    HW236193   6.933   4.410   7.107 -0.2111  0.0115 -0.8066
11698SOL     OW36194   5.732   6.754   5.263  0.6369 -0.1375 -0.2435
11698SOL    HW136195   5.663   6.701   5.304  0.0666  1.8034  1.5096
11698SOL    HW236196   5.703   6.766   5.173 -0.7192 -0.3852  0.1377
11699SOL     OW36197   4.952   3.401   2.723  0.1939 -0.1408 -0.1111
11699SOL    HW136198   4.895   3.473   2.748 -0.5651 -0.1449 -1.7154
11699SOL    HW236199   4.893   3.332   2.692  1.0045 -0.1039 -1.9137
11700SOL     OW36200   5.406   2.509   4.896  0.2595  0.4256  0.5239
11700SOL    HW136201   5.337   2.542   4.840 -0.1932 -0.5787  0.4618
11700SOL    HW236202   5.480   2.494   4.838  0.3712  1.0364  0.5048
11701SOL     OW36203   6.662   2.009   4.623 -0.2277 -0.1380 -0.1478
11701SOL    HW136204   6.580   1.961   4.635 -0.6126  0.4362 -0.4371
11701SOL    HW236205   6.688   2.034   4.712  0.3347 -1.4392  0.0809
11702SOL     OW36206   4.069   4.508   1.008  0.8903  0.2043 -0.3263
11702SOL    HW136207   4.138   4.512   0.941 -0.7729 -0.6650 -2.2008
11702SOL    HW236208   4.083   4.424   1.052  1.2111  0.1709 -0.4857
11703SOL     OW36209   4.418   0.763   4.635 -0.0395 -0.4994  0.1563
11703SOL    HW136210   4.415   0.688   4.694 -0.4772 -1.3441 -0.8872
11703SOL    HW236211   4.479   0.737   4.566 -0.2104  0.0831 -0.2294
11704SOL     OW36212   3.583   7.552   9.019 -0.1640  0.1407 -0.1977
11704SOL    HW136213   3.646   7.512   8.959 -1.5767 -0.3357 -1.3981
11704SOL    HW236214   3.520   7.484   9.038 -0.8763  0.8987  0.2184
11705SOL     OW36215   1.135   6.904   1.709  0.1300  0.0537  0.2109
11705SOL    HW136216   1.189   6.940   1.780  1.9874  2.1370 -2.0892
11705SOL    HW236217   1.156   6.811   1.708 -0.0658 -0.0598  2.4368
11706SOL     OW36218   4.727   8.512   2.347  0.1710 -0.4000 -0.0093
11706SOL    HW136219   4.798   8.491   2.286 -0.3314 -2.0812 -0.0597
11706SOL    HW236220   4.763   8.492   2.433  0.0164 -0.5268  0.0258
11707SOL     OW36221   6.089   3.206   2.301  0.0892  0.7086  0.2997
11707SOL    HW136222   6.031   3.272   2.337  0.7142  0.7955  1.2092
11707SOL    HW236223   6.138   3.251   2.233  0.6317  1.2568  1.0274
11708SOL     OW36224   3.196   9.098   0.053 -0.1326  0.1634  0.0264
11708SOL    HW136225   3.201   9.011   0.092  1.5149 -0.0617 -0.6008
11708SOL    HW236226   3.104   9.108   0.026 -0.4424 -1.1711  0.5510
11709SOL     OW36227   1.286   5.706   7.376 -0.0528 -0.7241 -0.1624
11709SOL    HW136228   1.270   5.624   7.423  0.8413 -0.3968  0.7721
11709SOL    HW236229   1.381   5.709   7.366  0.1868  1.2174  1.8258
11710SOL     OW36230   9.102   7.930   1.852  0.0346  0.0040 -0.3041
11710SOL    HW136231   9.088   7.848   1.804  0.0903  0.0011 -0.3157
11710SOL    HW236232   9.052   7.919   1.933 -0.7444  0.3433 -0.7275
11711SOL     OW36233   1.928   1.401   3.264  0.3481 -0.4299 -0.1464
11711SOL    HW136234   1.852   1.344   3.269  1.3903 -1.8911 -0.1599
11711SOL    HW236235   1.892   1.488   3.249 -1.3652 -0.8748  1.0701
11712SOL     OW36236   0.302   4.715   4.563 -0.2531 -0.0626 -0.4084
11712SOL    HW136237   0.338   4.760   4.639 -0.1463 -0.6216 -0.1258
11712SOL    HW236238   0.319   4.774   4.489 -0.8899  0.7610  0.0809
11713SOL     OW36239   7.842   3.528   3.421  0.0106 -0.3608  0.0718
11713SOL    HW136240   7.846   3.524   3.517  0.2794 -1.3989  0.0290
11713SOL    HW236241   7.902   3.459   3.392  1.1857  0.9950 -0.8715
11714SOL     OW36242   4.652   1.625   4.222 -0.4210  0.4108  0.6802
11714SOL    HW136243   4.563   1.595   4.209  0.1724 -0.0256 -4.7131
11714SOL    HW236244   4.702   1.545   4.243 -0.8287  0.0419  0.2579
11715SOL     OW36245   7.206   8.948   4.619  0.2488  0.1847 -0.1297
11715SOL    HW136246   7.142   8.941   4.548  0.1302 -0.5992  0.0412
11715SOL    HW236247   7.157   8.922   4.698  1.1366 -1.9458 -0.2180
11716SOL     OW36248   8.841   0.617   4.080 -0.0055 -0.1070 -0.0879
11716SOL    HW136249   8.804   0.685   4.024  0.4411 -0.0870 -0.3641
11716SOL    HW236250   8.787   0.619   4.159 -1.2532 -0.7787 -0.8894
11717SOL     OW36251   8.625   5.782   7.607 -0.0411 -0.3424  0.5966
11717SOL    HW136252   8.718   5.775   7.588  0.1327  2.9112 -0.4436
11717SOL    HW236253   8.621   5.820   7.695 -0.4084 -0.8216  0.7915
11718SOL     OW36254   1.912   6.151   3.810 -0.5102  0.0538 -0.0312
11718SOL    HW136255   1.915   6.059   3.833  1.5714 -0.0226 -0.3566
11718SOL    HW236256   1.975   6.160   3.738 -3.1202  1.1526 -2.3308
11719SOL     OW36257   8.097   2.267   3.422  0.0860 -0.1688 -0.3163
11719SOL    HW136258   8.180   2.259   3.469  0.5192  0.5760 -0.9319
11719SOL    HW236259   8.065   2.178   3.414 -0.7520 -0.2553  2.6915
11720SOL     OW36260   6.335   6.009   1.486  0.5257  0.1561 -0.9789
11720SOL    HW136261   6.348   5.917   1.508 -0.7483 -0.3444 -2.1349
11720SOL    HW236262   6.336   6.011   1.390 -0.4681  1.1775 -0.9897
11721SOL     OW36263   7.434   4.943   3.472 -0.1540  0.4323  0.2986
11721SOL    HW136264   7.435   4.971   3.564 -1.3962 -1.7860  1.0683
11721SOL    HW236265   7.371   5.000   3.430 -2.0945 -0.5951  1.6438
11722SOL     OW36266   2.016   2.932   7.829  0.0153 -0.5542 -0.4129
11722SOL    HW136267   1.977   3.011   7.866  1.2947  0.1127 -0.4236
11722SOL    HW236268   1.991   2.862   7.889  3.0853  0.6629  2.6063
11723SOL     OW36269   8.518   1.731   6.514  0.4187 -0.4465  0.5536
11723SOL    HW136270   8.487   1.679   6.440  0.2930 -1.8824  1.5775
11723SOL    HW236271   8.535   1.817   6.477 -1.9285 -0.4242 -0.6678
11724SOL     OW36272   7.402   0.895   7.680 -0.1812  0.1665  0.0171
11724SOL    HW136273   7.454   0.914   7.601 -1.2619  0.1934 -0.6982
11724SOL    HW236274   7.455   0.930   7.751  0.3475  1.0730 -0.7923
11725SOL     OW36275   4.936   1.585   3.593  0.2245  0.2144  0.1250
11725SOL    HW136276   4.866   1.630   3.641  0.8595  2.1721 -0.6607
11725SOL    HW236277   4.984   1.656   3.549  1.5558 -1.2346 -0.8739
11726SOL     OW36278   2.463   6.747   8.306 -0.4397  0.0089 -0.2950
11726SOL    HW136279   2.376   6.786   8.309 -0.3989  0.0640  1.2225
11726SOL    HW236280   2.468   6.706   8.220 -1.4922  1.0452 -0.8833
11727SOL     OW36281   6.146   0.173   1.297  0.4081 -0.1669 -0.3079
11727SOL    HW136282   6.057   0.164   1.329  0.8369 -3.0179  0.3296
11727SOL    HW236283   6.180   0.084   1.293  2.6222  0.6436 -2.3794
11728SOL     OW36284   6.177   4.022   2.208 -0.1952  0.7479 -0.3907
11728SOL    HW136285   6.164   3.962   2.135  0.2166 -0.8262  0.7860
11728SOL    HW236286   6.094   4.019   2.256  0.5314 -0.5645  0.8465
11729SOL     OW36287   4.817   1.416   8.631 -0.3372 -0.5506 -0.4370
11729SOL    HW136288   4.735   1.442   8.590 -1.9119 -2.1387  1.5333
11729SOL    HW236289   4.833   1.482   8.698 -0.3723 -0.6500 -0.3323
11730SOL     OW36290   1.797   5.757   5.029 -0.6065  0.4627 -0.0829
11730SOL    HW136291   1.741   5.732   4.956 -0.0939 -0.0870 -0.3068
11730SOL    HW236292   1.876   5.704   5.017 -0.7270 -0.0451  1.1672
11731SOL     OW36293   8.577   5.902   7.272 -0.1986 -0.2612 -0.5294
11731SOL    HW136294   8.601   5.810   7.276 -0.4272 -0.3002 -0.0838
11731SOL    HW236295   8.526   5.910   7.192  0.7948 -0.2924 -1.1906
11732SOL     OW36296   3.799   4.508   7.079 -0.0105  0.3123 -0.0134
11732SOL    HW136297   3.889   4.530   7.054  0.1546 -0.7389 -0.3913
11732SOL    HW236298   3.785   4.420   7.044 -1.4953  0.7934 -0.7563
11733SOL     OW36299   0.824   4.016   7.931 -0.1381  0.3282 -0.0666
11733SOL    HW136300   0.855   4.056   8.013 -0.0465 -0.8850  0.5119
11733SOL    HW236301   0.901   3.969   7.898  0.1541  1.6883 -1.4491
11734SOL     OW36302   4.675   6.562   2.836 -0.4170 -0.7281  0.6841
11734SOL    HW136303   4.683   6.557   2.741 -2.2516 -0.8040  0.4929
11734SOL    HW236304   4.742   6.502   2.869 -1.1507 -2.3580 -0.6370
11735SOL     OW36305   6.158   4.339   0.624  0.1110 -0.7291  0.5384
11735SOL    HW136306   6.198   4.376   0.545 -0.0272  1.0628  1.2433
11735SOL    HW236307   6.065   4.363   0.616 -0.3859 -2.6492  0.1233
11736SOL     OW36308   6.268   7.826   1.267 -0.4559  0.3546 -0.5153
11736SOL    HW136309   6.230   7.786   1.188 -1.9329  1.8535 -0.6101
11736SOL    HW236310   6.199   7.883   1.300  0.1702 -0.1779  1.8564
11737SOL     OW36311   2.562   4.183   4.071  0.9801 -0.0052  1.0236
11737SOL    HW136312   2.605   4.097   4.074  2.6463  0.7938  0.9860
11737SOL    HW236313   2.489   4.171   4.009  1.1439 -1.3946  1.0618
11738SOL     OW36314   4.521   8.795   6.991  0.1376  0.4857  0.0710
11738SOL    HW136315   4.567   8.713   7.010 -1.6872 -0.6958 -0.3767
11738SOL    HW236316   4.508   8.794   6.897  1.3354  2.0225 -0.1526
11739SOL     OW36317   7.022   8.790   0.053 -0.7296  0.1027 -0.1266
11739SOL    HW136318   7.015   8.872   0.101  1.4142  0.8901 -1.0177
11739SOL    HW236319   7.050   8.816  -0.035  1.4971 -1.6223 -0.0194
11740SOL     OW36320   2.750   8.687   6.981  0.3573  0.0631  0.5218
11740SOL    HW136321   2.809   8.747   6.937  1.1428 -0.6001  0.6513
11740SOL    HW236322   2.669   8.737   6.993  1.1094  1.2083  0.9609
11741SOL     OW36323   5.767   6.802   4.716  0.5357 -0.0841 -0.1598
11741SOL    HW136324   5.852   6.845   4.712  0.8842 -0.8547 -2.0222
11741SOL    HW236325   5.723   6.828   4.635 -1.3380  0.8995  1.1002
11742SOL     OW36326   6.967   2.607   3.993  0.2115 -0.0513  0.0500
11742SOL    HW136327   6.947   2.682   3.936 -1.5123 -0.5263 -0.0233
11742SOL    HW236328   6.971   2.645   4.081 -3.4970 -0.1797  0.4201
11743SOL     OW36329   2.577   0.001   1.764  0.4591  0.0321  0.2159
11743SOL    HW136330   2.517  -0.009   1.837 -0.0939 -1.0504 -0.3653
11743SOL    HW236331   2.570   0.093   1.739 -0.2898  0.1145  0.7172
11744SOL     OW36332   2.030   9.050   1.961  0.0458 -0.0984 -0.0244
11744SOL    HW136333   1.953   9.039   2.018  1.0641  0.0407  1.4273
11744SOL    HW236334   2.101   9.008   2.009  0.5572 -1.9600 -2.2000
11745SOL     OW36335   2.507   2.825   5.285  0.4821  0.7944 -0.2737
11745SOL    HW136336   2.565   2.846   5.358 -0.9058 -0.3258  1.2374
11745SOL    HW236337   2.561   2.774   5.224  1.2272  0.2124  0.8428
11746SOL     OW36338   1.993   4.563   8.225 -0.3179  0.0480 -0.0493
11746SOL    HW136339   2.027   4.619   8.294  0.3066  1.6629 -1.6157
11746SOL    HW236340   1.983   4.620   8.150 -0.6683 -1.7280 -1.4229
11747SOL     OW36341   5.687   5.365   2.713  0.0515  0.0207  0.5319
11747SOL    HW136342   5.768   5.353   2.763  0.0025  2.8450  1.4406
11747SOL    HW236343   5.618   5.338   2.773  0.2063 -2.3992 -0.2463
11748SOL     OW36344   0.613   2.288   3.270  0.4141 -0.0516 -0.3496
11748SOL    HW136345   0.631   2.330   3.354  1.8800 -0.9602 -0.1801
11748SOL    HW236346   0.534   2.332   3.238 -0.4123  0.0523  1.6628
11749SOL     OW36347   1.261   1.418   5.141 -0.0767 -0.3211  0.5875
11749SOL    HW136348   1.243   1.326   5.160 -0.3122 -0.2614  0.6557
11749SOL    HW236349   1.355   1.428   5.153 -0.0598 -0.5426  0.6256
11750SOL     OW36350   0.305   7.405   7.370  0.2794 -0.0155 -0.3310
11750SOL    HW136351   0.211   7.425   7.375  0.0720 -1.2179  2.1355
11750SOL    HW236352   0.331   7.435   7.283 -2.4018  0.2800 -1.1346
11751SOL     OW36353   2.237   7.946   6.752 -0.2073  0.2243 -0.2183
11751SOL    HW136354   2.199   8.032   6.768  0.0698  0.0538  1.4951
11751SOL    HW236355   2.199   7.919   6.668 -1.3393  1.4340 -0.1370
11752SOL     OW36356   4.182   7.160   0.249  0.0338  0.3518  0.5210
11752SOL    HW136357   4.239   7.232   0.277  1.0317  0.4878 -1.7052
11752SOL    HW236358   4.242   7.089   0.227 -0.9157 -1.0203  2.1215
11753SOL     OW36359   8.047   6.807   2.400  0.1655 -0.1930 -0.3718
11753SOL    HW136360   7.977   6.806   2.335  0.5588  3.9207 -1.0896
11753SOL    HW236361   8.110   6.743   2.368 -1.1257 -0.6033 -2.2589
11754SOL     OW36362   8.168   8.865   5.728  0.1781 -0.2595  0.1827
11754SOL    HW136363   8.093   8.824   5.685 -0.1445  1.9326 -1.5322
11754SOL    HW236364   8.224   8.894   5.655  1.4996  0.2769  1.3671
11755SOL     OW36365   5.966   5.972   6.975 -0.5907  0.8555 -0.1254
11755SOL    HW136366   5.980   6.042   7.039 -1.9595  0.2381  0.9049
11755SOL    HW236367   6.015   5.898   7.010 -0.4385  0.8361 -0.3792
11756SOL     OW36368   1.728   6.655   5.343  0.2636 -0.0255  0.2819
11756SOL    HW136369   1.759   6.741   5.315 -0.1211 -0.2037 -0.7493
11756SOL    HW236370   1.692   6.669   5.431  1.4231  0.5795  0.6835
11757SOL     OW36371   7.969   3.948   1.108 -0.0424 -0.2190  0.3530
11757SOL    HW136372   7.995   3.941   1.200 -0.6226  1.4827  0.6920
11757SOL    HW236373   7.885   3.904   1.103  0.0076 -0.3478  0.6239
11758SOL     OW36374   1.325   4.110   5.059  0.1900 -0.1091 -0.0967
11758SOL    HW136375   1.322   4.197   5.099  0.1153 -0.5296  0.8294
11758SOL    HW236376   1.233   4.085   5.052  0.2591 -0.8015  1.1961
11759SOL     OW36377   7.184   6.434   7.355  0.1234  0.3183 -0.2569
11759SOL    HW136378   7.278   6.430   7.373 -0.2155 -0.3681  1.5714
11759SOL    HW236379   7.165   6.350   7.312 -0.0489 -0.6372  1.6136
11760SOL     OW36380   2.677   4.983   0.024  0.2289  0.0571  0.0907
11760SOL    HW136381   2.721   4.900   0.042  2.3267  1.4711  2.0155
11760SOL    HW236382   2.591   4.957  -0.009  0.1330 -2.9122  2.2398
11761SOL     OW36383   7.990   4.961   6.817  0.3763  0.2310 -0.7382
11761SOL    HW136384   7.956   4.997   6.736  0.9610  2.5905  0.0038
11761SOL    HW236385   7.916   4.963   6.878  0.5175  0.5792 -0.5762
11762SOL     OW36386   7.367   4.495   2.946 -0.2154 -0.0968  0.4087
11762SOL    HW136387   7.354   4.433   2.874  0.6139 -0.2205  0.3469
11762SOL    HW236388   7.461   4.488   2.966  0.1466  1.8743 -0.2969
11763SOL     OW36389   2.596   6.581   2.397  0.2392  0.0198  0.8397
11763SOL    HW136390   2.600   6.624   2.312  0.1423  1.2170  1.4178
11763SOL    HW236391   2.591   6.653   2.460 -0.2308 -0.8540  1.8277
11764SOL     OW36392   4.476   0.489   8.990 -0.6546 -0.0212 -1.4061
11764SOL    HW136393   4.569   0.508   9.007 -1.3363  2.6352 -0.0874
11764SOL    HW236394   4.477   0.435   8.911  2.1260 -2.4091  0.0332
11765SOL     OW36395   8.769   9.062   7.541  0.1765  0.4000  0.3282
11765SOL    HW136396   8.733   9.018   7.464  1.2021  1.6008 -0.8910
11765SOL    HW236397   8.703   9.127   7.565  0.7700  1.5140 -0.9262
11766SOL     OW36398   4.431   5.568   3.555  0.0722 -0.1093  0.1608
11766SOL    HW136399   4.420   5.561   3.460  1.3706 -0.9634  0.0434
11766SOL    HW236400   4.342   5.580   3.588 -0.6408 -1.6187 -1.0280
11767SOL     OW36401   7.937   3.491   8.347  0.0576 -0.0798  0.2929
11767SOL    HW136402   7.948   3.585   8.334  0.5700 -0.2819 -0.9216
11767SOL    HW236403   7.983   3.452   8.272  0.7844 -1.3216  1.3443
11768SOL     OW36404   8.298   7.649   8.119  0.1935  0.6307 -0.5675
11768SOL    HW136405   8.237   7.631   8.190  0.7422  0.6007 -0.1007
11768SOL    HW236406   8.245   7.641   8.039 -0.6546  1.6101 -0.1317
11769SOL     OW36407   9.089   6.583   2.500 -0.1201 -0.0968 -0.3573
11769SOL    HW136408   9.046   6.666   2.477 -0.5988  0.1617  1.3276
11769SOL    HW236409   9.169   6.582   2.449 -0.5634  0.9606 -1.1084
11770SOL     OW36410   3.715   0.208   6.961  0.0335  0.3972 -0.7850
11770SOL    HW136411   3.709   0.165   7.047  0.2269  1.5585 -0.1621
11770SOL    HW236412   3.785   0.273   6.972  0.9410 -0.2974 -2.2233
11771SOL     OW36413   6.034   7.877   3.357  0.8412  0.4380 -0.7809
11771SOL    HW136414   6.015   7.898   3.266  0.5173 -0.4274 -0.9185
11771SOL    HW236415   5.988   7.795   3.373  1.3878  0.2735 -0.0057
11772SOL     OW36416   0.898   8.710   4.516  0.0996 -0.9417 -0.1095
11772SOL    HW136417   0.968   8.657   4.553  1.4852  1.9109  1.6878
11772SOL    HW236418   0.941   8.760   4.446 -0.5452 -0.3275 -0.0753
11773SOL     OW36419   3.904   3.137   8.880 -0.1807 -0.0034 -0.4885
11773SOL    HW136420   3.948   3.056   8.905 -1.0267 -0.2009  0.4514
11773SOL    HW236421   3.875   3.175   8.964  3.7220  3.4213 -0.3820
11774SOL     OW36422   5.862   4.656   5.140  0.0093  0.4235  0.3880
11774SOL    HW136423   5.951   4.679   5.113 -0.5562  1.1266 -0.9765
11774SOL    HW236424   5.835   4.728   5.197 -0.3670  1.2320 -0.7758
11775SOL     OW36425   4.453   6.092   2.928 -0.1840  0.1600 -0.5826
11775SOL    HW136426   4.408   6.013   2.961  1.0571  1.0059  3.7477
11775SOL    HW236427   4.539   6.060   2.900  1.4579  0.0121  3.8192
11776SOL     OW36428   1.837   0.638   6.592 -0.3098  0.1329  0.7410
11776SOL    HW136429   1.908   0.586   6.630  0.0682  1.0483  1.3202
11776SOL    HW236430   1.815   0.702   6.660 -0.2280  1.2246 -0.2190
11777SOL     OW36431   5.460   3.625   1.398  0.5121  0.2501  0.2535
11777SOL    HW136432   5.466   3.532   1.424 -1.7386 -0.0401 -0.0644
11777SOL    HW236433   5.400   3.663   1.462 -0.5801  0.8767 -1.1027
11778SOL     OW36434   3.591   3.779   4.836  0.0775 -0.5148 -0.2059
11778SOL    HW136435   3.555   3.799   4.922 -0.6803 -0.4905 -0.5237
11778SOL    HW236436   3.668   3.835   4.828  0.9411 -1.4662  0.9900
11779SOL     OW36437   6.533   4.715   1.938  0.5719  0.9404 -0.1014
11779SOL    HW136438   6.546   4.789   1.879  0.5885  0.9133 -0.1315
11779SOL    HW236439   6.621   4.688   1.963  0.6004  0.2944 -0.8736
11780SOL     OW36440   6.310   2.517   0.137 -0.0528 -0.1535 -0.3871
11780SOL    HW136441   6.329   2.562   0.055  1.0152 -1.0444 -0.6533
11780SOL    HW236442   6.390   2.469   0.157 -0.9221 -1.3912  0.2356
11781SOL     OW36443   5.770   8.196   3.273  0.1281 -0.0850 -0.3731
11781SOL    HW136444   5.866   8.200   3.275  0.0997  0.5598 -0.1926
11781SOL    HW236445   5.743   8.284   3.250 -0.3749 -0.7618 -2.5624
11782SOL     OW36446   6.811   6.137   1.328 -0.0393  0.7017  0.5704
11782SOL    HW136447   6.807   6.188   1.409  0.2259  2.6673 -0.5725
11782SOL    HW236448   6.904   6.114   1.319 -0.2119 -0.3193  1.2594
11783SOL     OW36449   8.913   7.899   0.548  0.2321 -0.1738  0.4260
11783SOL    HW136450   8.965   7.977   0.529 -1.0451  0.7476  0.5527
11783SOL    HW236451   8.844   7.900   0.481  0.3414 -1.3524  0.2686
11784SOL     OW36452   5.741   1.532   7.896  0.3657  0.3475  0.1633
11784SOL    HW136453   5.730   1.528   7.801  0.4312 -0.6529  0.1839
11784SOL    HW236454   5.710   1.447   7.927  1.5600  0.1503  0.9042
11785SOL     OW36455   1.257   2.536   7.516 -0.2209  0.4605  0.5934
11785SOL    HW136456   1.274   2.626   7.544  0.2822  0.3530  0.6426
11785SOL    HW236457   1.193   2.503   7.579 -2.7172  1.7120 -1.1067
11786SOL     OW36458   0.509   3.726   7.524  0.0448 -0.6136  0.0950
11786SOL    HW136459   0.418   3.698   7.512 -0.1685 -0.5767  1.5319
11786SOL    HW236460   0.559   3.674   7.461 -0.7955 -1.6429  0.2696
11787SOL     OW36461   0.937   5.879   7.488  0.0172 -0.3115 -0.2037
11787SOL    HW136462   0.989   5.944   7.535  2.1539 -2.8025  1.0931
11787SOL    HW236463   0.882   5.839   7.555 -1.5859  0.3329 -1.0650
11788SOL     OW36464   0.874   9.053   1.829 -0.4103  0.1785 -0.5620
11788SOL    HW136465   0.806   9.100   1.780  0.4765  1.4371 -0.6355
11788SOL    HW236466   0.948   9.113   1.832  1.1411 -1.5767 -1.4471
11789SOL     OW36467   6.320   6.974   3.268  0.0227 -0.0265 -0.0708
11789SOL    HW136468   6.331   7.056   3.315  1.0711  0.7429 -1.6029
11789SOL    HW236469   6.248   6.991   3.206  0.5532 -0.1033 -0.7162
11790SOL     OW36470   2.328   7.558   6.349 -0.4476  0.4403  0.3622
11790SOL    HW136471   2.386   7.540   6.275  0.0557  1.7007  0.4360
11790SOL    HW236472   2.264   7.620   6.314 -0.9126  0.1467  0.6797
11791SOL     OW36473   8.798   0.503   0.797 -0.7465 -0.6906  0.2531
11791SOL    HW136474   8.798   0.420   0.750 -0.1014 -0.4376 -0.2081
11791SOL    HW236475   8.852   0.561   0.743 -1.7219  0.2202  0.2465
11792SOL     OW36476   8.972   8.282   0.772  0.3090 -0.2399  0.3000
11792SOL    HW136477   8.903   8.217   0.786  0.9034 -1.0711 -0.5568
11792SOL    HW236478   8.925   8.363   0.751 -0.5174  0.1605  3.1847
11793SOL     OW36479   4.774   0.978   3.779 -0.1368  0.2923 -0.3364
11793SOL    HW136480   4.806   1.043   3.843 -1.3530  0.5456  0.0422
11793SOL    HW236481   4.679   0.982   3.787 -0.2442 -1.2122 -0.6555
11794SOL     OW36482   0.864   7.215   4.308  0.3740  0.2338  0.5177
11794SOL    HW136483   0.806   7.142   4.330 -0.5136  0.1809 -1.7352
11794SOL    HW236484   0.809   7.293   4.319  0.5312  0.3621  0.3969
11795SOL     OW36485   8.192   8.526   1.201 -0.2583 -0.0629 -0.0704
11795SOL    HW136486   8.265   8.480   1.160  0.9756  0.6179  1.2851
11795SOL    HW236487   8.119   8.513   1.141  0.8640 -1.1021 -1.2683
11796SOL     OW36488   7.557   4.371   2.667 -0.6778  0.3494  0.3749
11796SOL    HW136489   7.552   4.288   2.713 -0.2315  0.3271  0.3818
11796SOL    HW236490   7.482   4.370   2.607  0.0062 -0.5754 -0.4970
11797SOL     OW36491   5.940   4.336   7.914  0.4943 -0.1781  0.0707
11797SOL    HW136492   5.897   4.298   7.991  0.6446 -0.6349 -0.0726
11797SOL    HW236493   5.883   4.409   7.889 -0.0558 -0.6149  0.0385
11798SOL     OW36494   0.743   5.104   2.897  0.1224 -0.3028 -0.9407
11798SOL    HW136495   0.687   5.150   2.960  0.6052 -0.7443 -0.1783
11798SOL    HW236496   0.763   5.170   2.830 -0.3508  0.1856 -0.6106
11799SOL     OW36497   7.342   7.193   8.468  0.3416  0.4999 -0.3067
11799SOL    HW136498   7.274   7.153   8.522  0.7761 -0.0417 -0.1611
11799SOL    HW236499   7.294   7.239   8.400 -0.1956  0.7196  0.2099
11800SOL     OW36500   0.777   5.299   5.444  0.2974 -0.2784 -0.6589
11800SOL    HW136501   0.749   5.361   5.377  1.0903  0.0598 -0.6910
11800SOL    HW236502   0.771   5.213   5.402  1.7393  0.0099 -1.5141
11801SOL     OW36503   4.800   0.267   6.031  0.3403 -0.0383  0.6147
11801SOL    HW136504   4.751   0.316   5.964  0.3295  0.2850  0.8599
11801SOL    HW236505   4.799   0.177   5.999 -1.6603 -0.3260  1.3143
11802SOL     OW36506   5.116   9.013   2.151  0.3400  0.2331 -0.2361
11802SOL    HW136507   5.021   9.020   2.143 -0.1281 -1.7942  2.0865
11802SOL    HW236508   5.151   9.056   2.073 -2.4978  0.0187 -1.7396
11803SOL     OW36509   7.988   3.131   5.989 -0.0135 -0.3723 -0.3796
11803SOL    HW136510   7.912   3.150   6.044 -0.5482  0.1453 -1.2740
11803SOL    HW236511   8.047   3.082   6.046 -0.8854 -0.5208  0.4213
11804SOL     OW36512   7.910   4.277   8.148  0.2194 -0.0780 -0.0820
11804SOL    HW136513   7.915   4.191   8.189 -1.7718 -1.0605 -1.7101
11804SOL    HW236514   7.876   4.334   8.217  1.3847 -0.6027  0.9646
11805SOL     OW36515   0.487   8.187   2.846  0.5146  0.1667 -0.0851
11805SOL    HW136516   0.444   8.113   2.889 -1.0425  1.1274  0.1091
11805SOL    HW236517   0.516   8.153   2.762  0.4459 -0.8365  0.2900
11806SOL     OW36518   5.720   6.800   4.109  0.3313 -0.5620 -0.0850
11806SOL    HW136519   5.644   6.753   4.145  0.2982  0.2663  0.9674
11806SOL    HW236520   5.784   6.800   4.180  1.1024 -0.7159 -0.7579
11807SOL     OW36521   5.950   1.525   8.725 -0.9045  0.0675 -0.4019
11807SOL    HW136522   5.884   1.581   8.684  0.6334  1.4382 -1.1155
11807SOL    HW236523   6.021   1.585   8.748 -0.0084 -1.3209  0.5649
11808SOL     OW36524   4.769   3.575   2.765 -0.6492  0.1865  0.2325
11808SOL    HW136525   4.682   3.537   2.781 -1.3412  1.6673  0.1216
11808SOL    HW236526   4.765   3.662   2.804  0.0046  1.1642 -1.7495
11809SOL     OW36527   7.072   0.944   4.957  0.0410  0.1942  0.5561
11809SOL    HW136528   7.002   0.882   4.934  0.2729 -0.7045  2.1465
11809SOL    HW236529   7.126   0.950   4.878  0.5813 -2.4402  0.6565
11810SOL     OW36530   5.883   4.881   0.549  0.0087 -0.6855 -0.5584
11810SOL    HW136531   5.869   4.808   0.609 -3.2372  0.8428  0.7646
11810SOL    HW236532   5.802   4.887   0.499 -0.1272  2.3521 -0.1598
11811SOL     OW36533   2.557   0.925   6.147  0.1647  0.7829 -0.5313
11811SOL    HW136534   2.565   0.830   6.159 -2.8440  0.4630 -0.2986
11811SOL    HW236535   2.641   0.960   6.177  1.0290 -1.7206  0.2287
11812SOL     OW36536   7.230   0.858   2.677 -0.4704  0.2012 -0.1712
11812SOL    HW136537   7.321   0.866   2.705 -0.6111 -0.5203  0.5146
11812SOL    HW236538   7.235   0.844   2.582  0.2585 -1.7292  0.1013
11813SOL     OW36539   4.918   8.960   3.217  0.5622 -0.7987  0.2927
11813SOL    HW136540   4.966   8.929   3.293  1.4950  0.5116  0.2796
11813SOL    HW236541   4.965   9.040   3.190 -0.6161 -0.4255 -0.7574
11814SOL     OW36542   9.071   2.195   4.384 -0.0083  0.0734 -0.7088
11814SOL    HW136543   9.145   2.136   4.400  0.2620  0.4847 -0.4382
11814SOL    HW236544   9.003   2.138   4.348  0.1659 -0.4440 -0.2253
11815SOL     OW36545   8.333   0.329   5.720  0.0979 -0.6675  0.0928
11815SOL    HW136546   8.274   0.370   5.784  2.3080  4.3067 -0.5248
11815SOL    HW236547   8.320   0.381   5.640  2.9475 -1.5258 -1.0392
11816SOL     OW36548   2.138   5.155   8.423 -0.1145 -0.9406  0.4601
11816SOL    HW136549   2.053   5.196   8.438  0.4747 -0.0284  1.5188
11816SOL    HW236550   2.199   5.228   8.415  0.1864 -1.4011 -3.6737
11817SOL     OW36551   0.642   6.710   7.241 -0.0386 -0.1727 -0.3945
11817SOL    HW136552   0.709   6.771   7.273 -0.7180  1.0682 -1.2466
11817SOL    HW236553   0.617   6.745   7.155 -0.2559 -1.8359 -1.0389
11818SOL     OW36554   0.930   4.080   9.074  0.1043  0.3405  0.4791
11818SOL    HW136555   0.857   4.018   9.072  0.1677  0.2525  0.8205
11818SOL    HW236556   0.892   4.161   9.108 -0.1548  0.7316 -0.7154
11819SOL     OW36557   1.675   5.696   3.715  0.2476 -0.2327 -0.6649
11819SOL    HW136558   1.637   5.718   3.800 -0.1805  3.7342 -1.7092
11819SOL    HW236559   1.604   5.707   3.653  1.0668 -1.0421 -1.7848
11820SOL     OW36560   7.315   7.260   1.467 -0.1009 -0.1971  0.5649
11820SOL    HW136561   7.257   7.327   1.431 -0.9862 -0.0752  2.1330
11820SOL    HW236562   7.399   7.274   1.423 -0.5817  1.2045  0.0470
11821SOL     OW36563   0.055   5.930   1.468 -0.1460 -0.2204 -0.4509
11821SOL    HW136564  -0.010   5.990   1.504 -0.9883  0.4246 -2.8761
11821SOL    HW236565   0.007   5.849   1.452  0.5868 -1.0436  1.1705
11822SOL     OW36566   1.197   5.154   1.829 -0.5385 -0.6037  0.3486
11822SOL    HW136567   1.172   5.232   1.877  0.6786 -0.1418  0.2662
11822SOL    HW236568   1.114   5.117   1.798 -1.1024  1.1194 -0.3386
11823SOL     OW36569   3.385   7.897   2.164  0.5640  0.1723  0.2074
11823SOL    HW136570   3.446   7.910   2.092  1.3358 -0.1113  0.7949
11823SOL    HW236571   3.375   7.802   2.170 -1.7214  0.2424 -1.3247
11824SOL     OW36572   2.523   4.637   2.683 -0.2052  0.0012  0.0205
11824SOL    HW136573   2.448   4.697   2.686 -0.1552  0.0977 -0.5470
11824SOL    HW236574   2.484   4.550   2.688 -0.4999 -0.0130 -1.8978
11825SOL     OW36575   0.511   7.913   1.570 -0.3752 -0.2494 -0.4385
11825SOL    HW136576   0.580   7.849   1.588  1.3193  1.9479  1.6178
11825SOL    HW236577   0.452   7.907   1.646 -1.6608 -1.0734 -1.4635
11826SOL     OW36578   8.035   9.072   0.824 -0.1193  0.6457  1.0631
11826SOL    HW136579   7.973   9.145   0.827  0.3000  1.0022  2.9848
11826SOL    HW236580   8.005   9.013   0.894 -1.0624 -1.5948 -1.1071
11827SOL     OW36581   5.068   8.726   2.181  0.2602  0.5964  0.4283
11827SOL    HW136582   5.086   8.818   2.160 -2.7294  1.2683  0.2803
11827SOL    HW236583   5.120   8.708   2.259  0.0943  2.7911  1.1187
11828SOL     OW36584   6.994   7.918   6.851 -0.3802  0.9207  0.4070
11828SOL    HW136585   6.905   7.952   6.853 -1.2731 -1.0842 -1.0199
11828SOL    HW236586   7.046   7.987   6.810 -2.0857  0.7760 -2.2670
11829SOL     OW36587   0.812   2.339   8.928  0.2864 -0.3953  0.1765
11829SOL    HW136588   0.730   2.351   8.975 -0.1796  0.3168 -0.7745
11829SOL    HW236589   0.794   2.270   8.864  0.4316 -0.2623 -0.0106
11830SOL     OW36590   1.165   4.053   2.686 -0.2141 -0.0597 -0.0672
11830SOL    HW136591   1.069   4.055   2.691 -0.1771  0.8638  0.4191
11830SOL    HW236592   1.190   3.978   2.739 -0.6184  0.4203  0.8276
11831SOL     OW36593   1.783   6.604   4.031 -0.5314  0.2097  0.6007
11831SOL    HW136594   1.855   6.663   4.007  0.5656 -0.6501  1.6723
11831SOL    HW236595   1.774   6.614   4.125 -2.8012  1.3309  0.3422
11832SOL     OW36596   0.126   4.899   4.711  0.5885  0.6803 -0.4898
11832SOL    HW136597   0.096   4.852   4.789  1.6378  0.5781 -0.1334
11832SOL    HW236598   0.136   4.831   4.645  1.4683  0.4652 -0.1632
11833SOL     OW36599   0.469   7.675   5.149 -0.0838  0.2011  0.0534
11833SOL    HW136600   0.374   7.677   5.153 -0.0485  0.9398  1.2111
11833SOL    HW236601   0.490   7.636   5.065 -1.4102  0.2859 -0.3259
11834SOL     OW36602   0.352   9.021   5.652  0.1190  0.0347  0.0518
11834SOL    HW136603   0.358   9.022   5.556  1.0571  0.0075  0.1084
11834SOL    HW236604   0.441   9.036   5.682 -0.2816  0.7482  0.9296
11835SOL     OW36605   2.570   1.500   5.752 -0.0481  0.3931 -0.8157
11835SOL    HW136606   2.592   1.417   5.711  0.9687  0.3713 -0.2593
11835SOL    HW236607   2.545   1.478   5.842 -1.3575  0.5356 -1.1195
11836SOL     OW36608   2.014   5.033   7.975  0.3642 -0.8730  0.0338
11836SOL    HW136609   1.991   5.004   8.063  0.5217  0.4349  0.5158
11836SOL    HW236610   1.939   5.085   7.947  0.8506 -0.2403 -0.1061
11837SOL     OW36611   0.055   0.748   3.352  0.3499  0.3938  0.0819
11837SOL    HW136612  -0.030   0.784   3.329 -0.0761 -0.7145 -0.1428
11837SOL    HW236613   0.050   0.731   3.446 -0.0859 -0.6738 -0.1176
11838SOL     OW36614   2.650   9.093   7.193 -0.4930  0.0265 -0.1337
11838SOL    HW136615   2.689   9.084   7.280  0.8399 -1.7114 -0.8363
11838SOL    HW236616   2.613   9.007   7.174 -0.5337  0.2992 -1.3717
11839SOL     OW36617   4.278   7.995   6.065  0.7684  0.1994  0.2846
11839SOL    HW136618   4.212   8.034   6.123  1.9665  1.0441  1.1173
11839SOL    HW236619   4.252   8.024   5.977  0.2537  0.8397  0.6366
11840SOL     OW36620   6.312   0.337   6.802  0.0311  0.0708 -0.4601
11840SOL    HW136621   6.303   0.311   6.893  2.2764  1.1274  0.1205
11840SOL    HW236622   6.351   0.425   6.805 -1.4034  0.8731 -2.4318
11841SOL     OW36623   7.705   5.152   8.944 -0.9433 -0.1579 -0.3279
11841SOL    HW136624   7.663   5.188   8.866 -0.0990  1.2240 -0.1724
11841SOL    HW236625   7.797   5.143   8.921 -0.8841 -0.8798  0.1367
11842SOL     OW36626   8.391   7.469   8.999 -0.1603 -0.4167  0.1631
11842SOL    HW136627   8.431   7.451   9.084  2.4331 -1.2852 -1.1304
11842SOL    HW236628   8.314   7.412   8.995 -0.6967  0.1065  2.1214
11843SOL     OW36629   8.705   3.700   2.405 -0.1044 -1.0178  0.4451
11843SOL    HW136630   8.685   3.792   2.391 -1.2678 -1.6338 -3.0056
11843SOL    HW236631   8.652   3.675   2.481  0.4477  1.1465  1.6075
11844SOL     OW36632   6.252   8.477   1.744 -0.1329 -0.4126  0.0501
11844SOL    HW136633   6.328   8.535   1.739  0.1229 -0.8250 -1.6251
11844SOL    HW236634   6.287   8.395   1.780  0.5289 -1.0099 -1.8475
11845SOL     OW36635   8.383   5.193   3.638  0.4965  0.1151 -0.1150
11845SOL    HW136636   8.370   5.105   3.600  0.3660  0.1016 -0.0383
11845SOL    HW236637   8.467   5.222   3.602 -0.8448  1.2412 -2.6683
11846SOL     OW36638   3.660   8.826   6.212  0.0984 -0.5607  0.0763
11846SOL    HW136639   3.733   8.808   6.272 -0.1625  0.8833  0.8848
11846SOL    HW236640   3.582   8.809   6.264 -0.1328  0.6008  0.1305
11847SOL     OW36641   2.096   2.431   6.106 -0.1974 -0.3921 -0.6461
11847SOL    HW136642   2.091   2.526   6.108  1.3780 -0.2644 -1.4182
11847SOL    HW236643   2.028   2.405   6.044 -1.0019  0.1713 -0.0256
11848SOL     OW36644   3.386   2.695   6.643  0.5077 -0.1181  0.4291
11848SOL    HW136645   3.481   2.686   6.645  0.6751  0.9303 -0.8491
11848SOL    HW236646   3.369   2.779   6.686 -0.0017 -0.9658  1.9790
11849SOL     OW36647   2.516   4.608   4.056 -0.2271  0.0513  0.0813
11849SOL    HW136648   2.442   4.568   4.010  0.3197 -0.6883 -0.1687
11849SOL    HW236649   2.560   4.535   4.099  1.6083  0.1050 -1.5454
11850SOL     OW36650   4.935   4.511   2.845  0.0473 -0.2044 -0.3703
11850SOL    HW136651   4.994   4.476   2.778  1.2645  2.2072 -0.6724
11850SOL    HW236652   4.878   4.571   2.797 -0.0756  0.4044  0.5213
11851SOL     OW36653   1.299   3.920   7.370 -0.0753 -0.6244  0.2728
11851SOL    HW136654   1.246   3.841   7.385  0.3251 -0.9742 -0.1166
11851SOL    HW236655   1.269   3.953   7.286 -2.3032  1.3197  1.6966
11852SOL     OW36656   5.962   8.162   5.518 -0.3355 -0.0900 -0.3466
11852SOL    HW136657   5.917   8.090   5.475 -0.4274 -0.7787  0.8539
11852SOL    HW236658   6.050   8.161   5.480 -0.8783  0.3794 -1.6874
11853SOL     OW36659   1.284   5.213   7.282  0.0265  0.1816 -0.2186
11853SOL    HW136660   1.275   5.307   7.263  1.3493 -0.1045 -2.7102
11853SOL    HW236661   1.327   5.177   7.204  1.1864 -2.2199  1.4159
11854SOL     OW36662   0.919   2.590   8.865 -1.3038  0.2333  0.1220
11854SOL    HW136663   0.904   2.596   8.771  0.0339 -2.6034 -0.3825
11854SOL    HW236664   0.883   2.504   8.889  1.8299 -0.8625  1.3510
11855SOL     OW36665   7.981   2.531   7.157 -0.3424  0.2313  0.2198
11855SOL    HW136666   8.075   2.513   7.147 -0.3053  0.2461  0.5325
11855SOL    HW236667   7.943   2.506   7.073  0.2343  2.2891 -0.7275
11856SOL     OW36668   0.477   4.045   5.943  0.0853  0.0267  0.7940
11856SOL    HW136669   0.393   4.012   5.975  0.8853 -0.6892  2.3153
11856SOL    HW236670   0.498   4.117   6.002 -1.0404  2.5664 -1.7154
11857SOL     OW36671   4.795   8.510   4.669  0.1186 -0.0605 -0.1229
11857SOL    HW136672   4.877   8.486   4.626 -0.1292 -2.3172  0.5306
11857SOL    HW236673   4.810   8.598   4.703  2.7782 -0.9187  1.1440
11858SOL     OW36674   0.815   0.905   6.254  0.1544 -0.4192 -0.2055
11858SOL    HW136675   0.787   0.814   6.269  0.9835 -0.4439  1.5238
11858SOL    HW236676   0.749   0.958   6.299  0.9135 -0.3035  0.8028
11859SOL     OW36677   5.098   1.414   8.157 -0.1589  0.1518  0.0442
11859SOL    HW136678   5.057   1.349   8.100 -1.6379 -0.4404  1.6783
11859SOL    HW236679   5.062   1.498   8.129 -0.1271 -0.0126 -0.4982
11860SOL     OW36680   0.928   4.440   1.138  0.3928 -0.1968  0.4121
11860SOL    HW136681   0.969   4.522   1.167  0.7026 -0.2288  0.0815
11860SOL    HW236682   0.850   4.468   1.090 -0.5625 -0.1776  1.9406
11861SOL     OW36683   2.616   1.581   5.296 -0.3843  0.4429 -0.2883
11861SOL    HW136684   2.538   1.548   5.340  1.4579 -1.5556  1.8213
11861SOL    HW236685   2.615   1.676   5.313 -1.8302  0.3016  0.5732
11862SOL     OW36686   3.040   1.493   2.941  0.0598  0.2477  0.2093
11862SOL    HW136687   3.050   1.562   2.876 -0.7108 -0.1486 -0.3455
11862SOL    HW236688   2.995   1.535   3.014  0.7766  0.6530  0.4239
11863SOL     OW36689   0.974   7.953   5.063 -0.0826 -0.2292 -0.0754
11863SOL    HW136690   1.044   7.896   5.032  0.0018 -0.9978  1.4126
11863SOL    HW236691   0.897   7.927   5.012  0.3661 -0.4221 -0.6631
11864SOL     OW36692   6.174   4.620   4.276 -0.1309  0.1689  0.1782
11864SOL    HW136693   6.176   4.585   4.366  1.7511  0.5232  0.3130
11864SOL    HW236694   6.223   4.556   4.224  1.2249  1.3222 -0.0323
11865SOL     OW36695   1.184   3.118   5.751 -0.0195 -0.0192  0.3444
11865SOL    HW136696   1.260   3.137   5.696  0.4004 -1.0209  0.5675
11865SOL    HW236697   1.109   3.140   5.696  0.4144  0.0586 -0.2247
11866SOL     OW36698   4.649   4.185   1.148  0.0491  0.0723 -0.1802
11866SOL    HW136699   4.737   4.192   1.183  0.1961  0.7552 -0.6680
11866SOL    HW236700   4.646   4.249   1.076  0.1212 -2.0158 -2.1683
11867SOL     OW36701   4.716   3.353   6.171  0.5819  0.5444  0.3271
11867SOL    HW136702   4.724   3.441   6.210  1.5345 -0.1349  1.7412
11867SOL    HW236703   4.645   3.312   6.220  0.2474  0.4696 -0.2237
11868SOL     OW36704   6.183   3.727   6.967 -0.3229 -0.4240  0.2472
11868SOL    HW136705   6.255   3.680   7.009 -0.1201  0.7445  1.2866
11868SOL    HW236706   6.121   3.742   7.038  0.0029  1.5741  0.1597
11869SOL     OW36707   3.059   4.168   1.209  0.5658  0.1583  0.3550
11869SOL    HW136708   3.088   4.259   1.205 -0.8725  0.6803  0.9221
11869SOL    HW236709   3.139   4.117   1.220  1.4875  1.2550 -0.9416
11870SOL     OW36710   2.428   8.433   1.670 -0.2032 -0.1081  0.4587
11870SOL    HW136711   2.520   8.438   1.643 -0.4987 -1.0812 -0.8217
11870SOL    HW236712   2.405   8.523   1.693  1.4890 -0.0877  2.3396
11871SOL     OW36713   5.301   8.274   6.225 -0.2203 -0.5931 -0.0341
11871SOL    HW136714   5.241   8.245   6.294  0.3932 -0.7848  0.4305
11871SOL    HW236715   5.255   8.347   6.183 -0.1876  0.1857  1.2387
11872SOL     OW36716   4.677   2.860   7.014  0.1688 -0.4661 -0.0552
11872SOL    HW136717   4.763   2.852   7.056  0.0811  0.6136  0.3653
11872SOL    HW236718   4.677   2.949   6.977 -0.6251 -0.5985 -0.3847
11873SOL     OW36719   1.390   4.131   7.499 -0.0115  0.0212  0.7089
11873SOL    HW136720   1.357   4.057   7.448  0.7477 -0.5560  1.0267
11873SOL    HW236721   1.464   4.094   7.549  0.0420  0.8680  1.2715
11874SOL     OW36722   3.798   8.551   4.740  0.3475 -0.6258 -0.2084
11874SOL    HW136723   3.881   8.598   4.729  1.7076 -2.7232  0.3555
11874SOL    HW236724   3.821   8.459   4.727 -1.4196 -1.5280  2.2844
11875SOL     OW36725   4.306   5.582   2.706  0.2499  0.1879 -0.4161
11875SOL    HW136726   4.351   5.645   2.761  0.4988 -0.6354  0.3457
11875SOL    HW236727   4.367   5.563   2.635  0.7373 -0.2241  0.1057
11876SOL     OW36728   8.004   8.341   7.378  0.2311 -0.2798 -0.0027
11876SOL    HW136729   7.954   8.348   7.460  1.3307  0.3661  0.6297
11876SOL    HW236730   8.076   8.403   7.388 -1.3764  2.3431 -2.7851
11877SOL     OW36731   4.381   7.239   7.287  0.1094  0.6179 -0.2449
11877SOL    HW136732   4.341   7.318   7.251  2.2431  2.0284  0.2989
11877SOL    HW236733   4.389   7.257   7.381 -3.2181 -2.0502  0.7570
11878SOL     OW36734   7.958   3.117   6.421 -1.2141  0.1309  0.4784
11878SOL    HW136735   7.909   3.163   6.353  0.5301  0.4236 -0.6749
11878SOL    HW236736   8.021   3.182   6.453 -0.3342 -0.7269  0.5432
11879SOL     OW36737   8.263   4.471   6.901 -0.1045 -0.2133 -0.1069
11879SOL    HW136738   8.357   4.481   6.882  0.5103 -1.9602  1.6668
11879SOL    HW236739   8.236   4.395   6.849 -0.3988 -0.0844 -0.1435
11880SOL     OW36740   4.158   2.846   0.673 -0.6901  0.4830 -0.1768
11880SOL    HW136741   4.186   2.771   0.726 -1.3616  1.0902  1.0794
11880SOL    HW236742   4.203   2.921   0.711 -1.4773  0.9884 -0.2288
11881SOL     OW36743   1.285   4.141   1.192  0.2201  0.0946  0.0473
11881SOL    HW136744   1.234   4.182   1.122 -0.0887  0.2600  0.3705
11881SOL    HW236745   1.239   4.164   1.273  0.5194 -0.1805  0.2989
11882SOL     OW36746   7.150   1.008   7.643  0.3813 -0.4019 -0.3462
11882SOL    HW136747   7.235   0.966   7.655  0.6877 -0.2962 -2.0151
11882SOL    HW236748   7.108   0.960   7.572 -0.5455  0.1818 -0.2181
11883SOL     OW36749   4.329   5.439   8.980  0.8037  0.1193  0.3933
11883SOL    HW136750   4.303   5.495   8.905  0.5463 -0.9293 -0.3230
11883SOL    HW236751   4.393   5.491   9.027  0.5417  1.0479 -0.2353
11884SOL     OW36752   1.514   7.631   2.869 -1.0618 -0.6875  0.0956
11884SOL    HW136753   1.575   7.657   2.800 -0.5995  2.1265  1.4104
11884SOL    HW236754   1.570   7.602   2.940 -1.0916  1.8819  1.2994
11885SOL     OW36755   3.707   5.262   0.448  0.1181  0.2048  0.4132
11885SOL    HW136756   3.731   5.277   0.356  0.1777 -0.4016  0.3238
11885SOL    HW236757   3.645   5.189   0.444  0.8348 -0.4392  0.9378
11886SOL     OW36758   0.306   2.869   7.431  0.1043  0.0483  0.3652
11886SOL    HW136759   0.296   2.837   7.520 -1.8864  0.2926  0.2710
11886SOL    HW236760   0.370   2.810   7.392  0.6885 -0.3203  1.8136
11887SOL     OW36761   1.026   7.180   5.771  0.0451 -0.6853 -0.1463
11887SOL    HW136762   0.950   7.230   5.742 -0.3653 -0.7733  0.7439
11887SOL    HW236763   1.097   7.209   5.715 -0.4346  0.0962 -0.3586
11888SOL     OW36764   6.855   8.911   1.056 -0.2611 -0.2736  0.2646
11888SOL    HW136765   6.875   9.000   1.086  0.5674 -0.4804  0.3448
11888SOL    HW236766   6.826   8.865   1.134 -0.7271 -0.0685  0.2162
11889SOL     OW36767   4.213   6.397   7.742  0.1298  0.0179  0.3596
11889SOL    HW136768   4.158   6.446   7.803 -0.3719 -0.3214  0.1800
11889SOL    HW236769   4.297   6.444   7.743 -0.9254  2.1644 -1.3556
11890SOL     OW36770   2.537   8.875   3.066  0.4271  0.9046  0.4108
11890SOL    HW136771   2.628   8.902   3.061  0.3264  1.0806 -0.6363
11890SOL    HW236772   2.487   8.954   3.045  0.0578  0.6750  0.4203
11891SOL     OW36773   6.355   2.629   1.659 -0.2270  0.2782 -0.2775
11891SOL    HW136774   6.361   2.616   1.754 -1.6809  2.7104  0.2370
11891SOL    HW236775   6.446   2.630   1.630  0.2437 -0.7215  1.0461
11892SOL     OW36776   1.712   3.354   6.834 -0.2336 -0.3951 -0.9472
11892SOL    HW136777   1.717   3.361   6.738 -0.7772 -1.4798 -1.0714
11892SOL    HW236778   1.641   3.292   6.850  1.9633 -2.9127  0.0306
11893SOL     OW36779   1.709   8.238   1.778 -0.2401  0.1157 -0.4806
11893SOL    HW136780   1.727   8.210   1.868 -0.9718 -0.6838 -0.5716
11893SOL    HW236781   1.782   8.203   1.727  0.6670  1.3332 -0.0989
11894SOL     OW36782   8.003   5.494   6.044  0.4306  0.4390  0.0850
11894SOL    HW136783   7.953   5.439   6.104  0.6085 -1.3253 -1.2982
11894SOL    HW236784   8.088   5.507   6.087  0.3183 -0.2346  0.5156
11895SOL     OW36785   3.463   5.770   4.708  0.3085 -0.1327 -0.0183
11895SOL    HW136786   3.450   5.681   4.741  1.0431 -0.6014 -0.9321
11895SOL    HW236787   3.392   5.821   4.747 -1.0871 -1.4507 -0.7374
11896SOL     OW36788   2.989   6.398   8.357 -0.2378  0.8490  0.6082
11896SOL    HW136789   2.923   6.465   8.371 -0.0214  0.8138  1.9336
11896SOL    HW236790   3.047   6.405   8.433  2.4216  2.1667 -1.3772
11897SOL     OW36791   5.112   2.887   0.993  0.8760 -0.1407  0.6358
11897SOL    HW136792   5.052   2.883   1.067 -0.9462  2.8475 -0.5159
11897SOL    HW236793   5.113   2.979   0.968  2.5418 -0.8155 -2.1616
11898SOL     OW36794   3.028   6.077   3.199  0.3496  0.4932 -0.3095
11898SOL    HW136795   3.032   5.981   3.192  0.8604  0.2436  2.3230
11898SOL    HW236796   3.091   6.098   3.268 -1.0116  2.5770  0.3659
11899SOL     OW36797   1.229   5.264   8.808  0.1921 -0.4497 -0.1163
11899SOL    HW136798   1.221   5.170   8.793 -0.3919 -0.7033  1.5690
11899SOL    HW236799   1.139   5.297   8.804  0.3872  0.0489 -0.6533
11900SOL     OW36800   7.576   3.547   4.897  0.9473 -0.0597  0.5286
11900SOL    HW136801   7.668   3.572   4.901  1.1417 -0.3959 -1.1519
11900SOL    HW236802   7.560   3.528   4.805 -1.5047  2.6670  0.2362
11901SOL     OW36803   6.446   3.175   2.203  0.3532 -0.3236 -0.0157
11901SOL    HW136804   6.385   3.248   2.208  0.4772 -0.2404  0.3622
11901SOL    HW236805   6.471   3.170   2.111  0.5514  0.2859 -0.0005
11902SOL     OW36806   0.436   3.695   4.009  0.0784  0.0830  0.8309
11902SOL    HW136807   0.472   3.681   4.097  1.1665 -0.4461  0.3327
11902SOL    HW236808   0.419   3.789   4.004  1.8077  0.4314  0.9725
11903SOL     OW36809   0.594   7.408   4.590 -0.1640 -0.0985 -0.2861
11903SOL    HW136810   0.536   7.385   4.517 -3.1669  0.6901  1.6936
11903SOL    HW236811   0.590   7.504   4.595  1.6666  0.0219 -0.2895
11904SOL     OW36812   4.693   5.922   3.033 -0.2183  0.1216  0.2251
11904SOL    HW136813   4.718   5.941   2.942 -1.3546  0.7869  0.0295
11904SOL    HW236814   4.679   6.008   3.072 -0.1924 -0.1770  0.9012
11905SOL     OW36815   1.784   1.088   1.867 -0.1590  0.4719 -0.0625
11905SOL    HW136816   1.690   1.068   1.862 -0.2746  1.0069 -0.0921
11905SOL    HW236817   1.792   1.144   1.944  0.2752 -0.3151  0.4763
11906SOL     OW36818   5.131   8.918   6.758 -0.5764 -0.1489 -0.7355
11906SOL    HW136819   5.093   8.831   6.749  2.4679 -1.7337  0.6184
11906SOL    HW236820   5.182   8.930   6.678  0.5839 -0.4888 -0.0632
11907SOL     OW36821   4.344   4.061   7.366 -0.4237 -0.4956  0.2679
11907SOL    HW136822   4.392   4.111   7.299 -0.0156  0.1296  1.0152
11907SOL    HW236823   4.393   3.979   7.374  0.2458 -0.0650  0.6688
11908SOL     OW36824   3.641   7.683   2.255  0.1433 -0.4296  0.0347
11908SOL    HW136825   3.710   7.618   2.242  0.3864 -0.0209 -0.7687
11908SOL    HW236826   3.678   7.765   2.223 -0.5742 -0.1282 -0.0497
11909SOL     OW36827   1.964   8.956   5.846 -0.5333  0.3411  0.3568
11909SOL    HW136828   1.963   9.027   5.782  2.5047  0.9017  0.7862
11909SOL    HW236829   1.899   8.894   5.814  0.0179  1.1476 -2.6449
11910SOL     OW36830   6.482   5.075   8.732  0.1228 -0.3994  0.2275
11910SOL    HW136831   6.519   5.118   8.655 -0.9423 -1.0763 -0.6916
11910SOL    HW236832   6.399   5.120   8.748 -0.3983 -1.2470  0.0145
11911SOL     OW36833   5.708   0.128   7.365 -1.0038 -0.0412  0.3098
11911SOL    HW136834   5.762   0.168   7.433 -1.7428  2.0890 -0.2809
11911SOL    HW236835   5.664   0.202   7.324 -2.7033 -1.5344 -0.6521
11912SOL     OW36836   1.950   0.940   6.286  0.1496 -0.0306 -0.6544
11912SOL    HW136837   2.025   0.883   6.301  1.0525  1.2500  0.0011
11912SOL    HW236838   1.971   1.020   6.335 -0.6863  1.1611 -2.1267
11913SOL     OW36839   0.210   5.883   1.012  0.5498 -0.1826 -0.0542
11913SOL    HW136840   0.123   5.914   0.985  0.5357 -1.2360 -1.3521
11913SOL    HW236841   0.243   5.951   1.071 -0.2094  1.3648 -1.3311
11914SOL     OW36842   8.458   7.383   2.852  0.0582 -0.0637 -0.0960
11914SOL    HW136843   8.543   7.399   2.892  0.0363  0.5725 -0.2933
11914SOL    HW236844   8.466   7.298   2.810  0.4272 -0.2426  0.3333
11915SOL     OW36845   5.235   0.675   7.345  0.3807 -1.1329 -0.6988
11915SOL    HW136846   5.231   0.605   7.410 -1.1709  0.4556  0.9940
11915SOL    HW236847   5.293   0.740   7.384 -0.1476 -0.3868 -1.1518
11916SOL     OW36848   7.219   5.917   3.730 -0.6454  0.0244 -0.4740
11916SOL    HW136849   7.272   5.892   3.655  0.3352  1.4640 -0.3142
11916SOL    HW236850   7.174   5.997   3.702  0.2066  0.9317  0.6129
11917SOL     OW36851   0.964   6.135   2.623 -0.3747 -0.1294 -0.0489
11917SOL    HW136852   0.898   6.081   2.667 -2.5418  0.4889 -2.3032
11917SOL    HW236853   1.029   6.073   2.592  0.0190 -0.8004  1.9925
11918SOL     OW36854   0.482   4.624   1.414 -0.4642  0.1720 -0.1944
11918SOL    HW136855   0.423   4.574   1.359 -0.0968 -0.1132 -0.3373
11918SOL    HW236856   0.570   4.599   1.384 -0.2368 -0.5531  1.0067
11919SOL     OW36857   2.641   1.145   4.748 -0.3570 -0.4102 -0.4697
11919SOL    HW136858   2.644   1.219   4.688  1.3473  1.2998  1.5755
11919SOL    HW236859   2.599   1.179   4.827  1.8835 -1.0345  1.1108
11920SOL     OW36860   4.469   3.201   3.293  0.1031 -0.1267 -0.3619
11920SOL    HW136861   4.509   3.116   3.276  0.1057  0.1326 -1.8695
11920SOL    HW236862   4.414   3.187   3.370  1.7381 -0.9199  0.7199
11921SOL     OW36863   5.637   8.648   6.213 -0.1542 -0.2580  0.4739
11921SOL    HW136864   5.730   8.661   6.193 -0.2822  1.6590  0.9765
11921SOL    HW236865   5.633   8.562   6.254  1.2955 -0.6438 -0.1470
11922SOL     OW36866   0.314   0.785   0.663 -0.5145 -0.3111  0.7217
11922SOL    HW136867   0.376   0.717   0.687 -0.5142 -1.5813 -2.3693
11922SOL    HW236868   0.365   0.866   0.664  0.7998 -1.0918 -0.1483
11923SOL     OW36869   6.429   2.464   4.725 -0.2323  0.2902 -0.4488
11923SOL    HW136870   6.508   2.439   4.772 -0.5891 -1.1690 -0.5912
11923SOL    HW236871   6.365   2.480   4.795 -0.3876 -0.5695 -0.3877
11924SOL     OW36872   7.359   0.677   4.434 -0.3025 -0.2225  0.0355
11924SOL    HW136873   7.320   0.748   4.384 -1.1976  0.2938  1.4180
11924SOL    HW236874   7.285   0.632   4.475  0.2687 -1.7756 -0.5483
11925SOL     OW36875   0.538   8.720   0.747  0.0105  0.6222 -0.4186
11925SOL    HW136876   0.497   8.743   0.830  0.2253  2.6553 -0.8310
11925SOL    HW236877   0.573   8.632   0.761 -1.8096  0.0694  0.9192
11926SOL     OW36878   7.872   7.259   4.675 -0.0026  0.7358 -0.1082
11926SOL    HW136879   7.896   7.248   4.583  0.4015 -0.4729  0.1257
11926SOL    HW236880   7.780   7.233   4.679  0.2461 -0.1464 -0.0089
11927SOL     OW36881   5.197   2.966   2.402 -0.2634 -0.0361 -0.5462
11927SOL    HW136882   5.242   2.919   2.473 -0.1691  0.1801 -0.4636
11927SOL    HW236883   5.261   2.968   2.331 -0.6717 -1.0389 -0.9606
11928SOL     OW36884   6.153   5.832   1.223  0.2483  0.2603  0.0599
11928SOL    HW136885   6.241   5.863   1.241  0.2793 -0.2862  0.9450
11928SOL    HW236886   6.132   5.776   1.298 -1.6422  2.0057  0.9408
11929SOL     OW36887   5.484   5.717   8.004  0.4339  0.0937 -0.4477
11929SOL    HW136888   5.500   5.657   7.931  1.0494 -0.0937 -0.1707
11929SOL    HW236889   5.479   5.661   8.081  1.8516  0.4343 -0.0664
11930SOL     OW36890   1.002   5.664   5.227  0.3922  0.6398  0.0950
11930SOL    HW136891   1.047   5.744   5.253 -0.2237  0.8264  0.6238
11930SOL    HW236892   1.013   5.659   5.132  2.2140  0.2468  0.3007
11931SOL     OW36893   4.203   3.074   8.590  0.2103  0.4837 -0.5836
11931SOL    HW136894   4.221   3.100   8.499  0.5781 -2.0250 -1.2929
11931SOL    HW236895   4.108   3.088   8.600  0.4111  2.2429 -0.7967
11932SOL     OW36896   1.597   4.080   8.519 -0.6496  0.2163 -0.5316
11932SOL    HW136897   1.599   3.988   8.492 -2.2333 -0.2409  0.7226
11932SOL    HW236898   1.521   4.116   8.473  0.0444  0.9640 -1.1257
11933SOL     OW36899   8.669   0.399   7.861 -0.4398  0.5826 -0.4995
11933SOL    HW136900   8.665   0.418   7.955 -1.7907  2.1839 -0.8308
11933SOL    HW236901   8.595   0.447   7.824 -0.8178 -1.2122 -2.2116
11934SOL     OW36902   2.793   8.367   8.588  0.3944  0.1222  0.3045
11934SOL    HW136903   2.845   8.384   8.509 -0.1084 -0.6365 -0.1977
11934SOL    HW236904   2.832   8.288   8.626 -0.9165 -0.9661 -0.5540
11935SOL     OW36905   2.973   4.357   7.420  0.2127 -0.1085  0.1658
11935SOL    HW136906   2.995   4.319   7.334  0.8893  0.6508 -0.0102
11935SOL    HW236907   3.025   4.438   7.424 -2.4373  1.7162 -0.1905
11936SOL     OW36908   0.325   9.025   1.658  0.4592  0.2365 -0.0442
11936SOL    HW136909   0.336   9.117   1.679  0.4583  0.2089  0.0775
11936SOL    HW236910   0.368   9.014   1.573 -1.1522  0.7439 -0.9692
11937SOL     OW36911   4.400   4.132   7.797  0.0659 -0.4778  0.5215
11937SOL    HW136912   4.445   4.189   7.860 -0.2990  0.4936 -0.0717
11937SOL    HW236913   4.457   4.132   7.720 -0.6631  0.3077 -0.0293
11938SOL     OW36914   7.489   5.745   6.951 -0.4228  0.2035  0.4075
11938SOL    HW136915   7.562   5.744   7.013 -0.1360  1.3361  0.1044
11938SOL    HW236916   7.445   5.828   6.966 -0.7676  0.1873 -0.4275
11939SOL     OW36917   1.479   8.293   8.975 -0.0477 -0.0886  0.5274
11939SOL    HW136918   1.560   8.339   8.953 -0.8495  0.7070 -0.9732
11939SOL    HW236919   1.496   8.202   8.953  0.7309 -0.0831  1.0881
11940SOL     OW36920   6.979   8.923   5.435 -0.4926  0.2392 -0.5415
11940SOL    HW136921   7.072   8.900   5.441 -0.2394  1.0982 -0.9764
11940SOL    HW236922   6.940   8.886   5.514  0.2415 -0.0097 -0.2847
11941SOL     OW36923   5.706   1.490   2.084 -0.5048 -0.0660  0.2085
11941SOL    HW136924   5.645   1.471   2.013 -1.8945  2.8545  0.4462
11941SOL    HW236925   5.666   1.450   2.161 -1.5095  0.7003  0.1162
11942SOL     OW36926   9.075   8.990   8.760  0.2484 -0.2134  0.3209
11942SOL    HW136927   8.989   8.961   8.729 -0.0818  0.4972  0.5588
11942SOL    HW236928   9.137   8.954   8.696 -0.4114  1.2389 -1.1815
11943SOL     OW36929   2.046   0.437   7.699  0.4637  0.3651  0.1461
11943SOL    HW136930   2.131   0.409   7.664 -1.3061 -3.5073 -1.6445
11943SOL    HW236931   2.027   0.374   7.769 -1.5671  0.1767 -0.5238
11944SOL     OW36932   2.159   8.069   1.366  0.2777  0.2381  0.0166
11944SOL    HW136933   2.100   7.994   1.370  1.9240 -1.2903 -2.0905
11944SOL    HW236934   2.111   8.134   1.316 -0.2454 -0.3490 -0.2551
11945SOL     OW36935   1.923   7.574   2.978  0.4759 -0.4565  0.0978
11945SOL    HW136936   1.922   7.651   2.923 -0.0676 -0.6684 -0.1965
11945SOL    HW236937   2.001   7.584   3.033 -0.5351  1.2024  1.3475
11946SOL     OW36938   8.346   3.051   6.463 -0.5390 -0.3941  0.3838
11946SOL    HW136939   8.284   3.081   6.529 -1.3387 -0.0814 -0.4817
11946SOL    HW236940   8.427   3.035   6.511 -0.4423  1.9224  1.1132
11947SOL     OW36941   6.514   1.652   8.719 -0.2702  0.0733 -0.1470
11947SOL    HW136942   6.608   1.635   8.729 -0.2473 -1.6520 -2.4419
11947SOL    HW236943   6.473   1.566   8.730 -1.7213  0.9259  1.5893
11948SOL     OW36944   8.690   7.001   3.070 -0.1595  0.6157  0.5900
11948SOL    HW136945   8.659   6.985   2.981 -0.0773 -0.7236  0.7804
11948SOL    HW236946   8.660   7.090   3.090 -0.5358  0.7785 -0.6189
11949SOL     OW36947   7.402   6.930   1.344 -0.2312 -0.2619  0.5274
11949SOL    HW136948   7.354   6.895   1.269 -0.3553 -1.2315  1.0381
11949SOL    HW236949   7.488   6.953   1.309 -0.9653  1.3074 -0.3552
11950SOL     OW36950   5.271   0.135   3.256 -0.0838  0.5256  0.6181
11950SOL    HW136951   5.338   0.201   3.277 -0.1465  0.5125  0.8664
11950SOL    HW236952   5.318   0.070   3.204  0.0950  0.5265  0.7738
11951SOL     OW36953   6.922   5.500   7.662  0.2086  0.1012 -0.3326
11951SOL    HW136954   6.984   5.467   7.727  1.2467  0.5810 -1.0672
11951SOL    HW236955   6.902   5.589   7.692 -0.5401 -0.2314  0.1858
11952SOL     OW36956   6.861   7.580   6.197 -0.5598  0.0001 -0.4937
11952SOL    HW136957   6.934   7.635   6.225  1.0749 -2.3083  0.0835
11952SOL    HW236958   6.785   7.616   6.243  0.6417  1.0617  0.7471
11953SOL     OW36959   9.109   5.086   2.678  0.3397  0.0887 -0.0374
11953SOL    HW136960   9.183   5.071   2.737  2.0363  0.5800 -1.9376
11953SOL    HW236961   9.037   5.035   2.716  1.6288 -0.3856  1.8889
11954SOL     OW36962   8.626   7.999   2.532  0.5703  0.2094  0.1274
11954SOL    HW136963   8.647   7.906   2.539  0.9223  0.3432  0.9945
11954SOL    HW236964   8.710   8.042   2.516  0.2362  0.2718 -1.6798
11955SOL     OW36965   3.611   7.330   8.374  0.5859 -0.0895 -0.3725
11955SOL    HW136966   3.631   7.369   8.459 -0.9478 -0.1849  0.0697
11955SOL    HW236967   3.615   7.236   8.389 -1.1113 -0.1378  0.0178
11956SOL     OW36968   4.014   6.206   4.081  0.1679  0.7208  0.3611
11956SOL    HW136969   4.016   6.213   3.986  1.2640 -0.3914  0.2858
11956SOL    HW236970   3.937   6.256   4.107 -1.1441 -0.3566 -1.2504
11957SOL     OW36971   3.881   6.805   6.946 -0.0711 -0.5043 -0.1622
11957SOL    HW136972   3.933   6.868   6.995  0.3970 -0.6497 -0.4605
11957SOL    HW236973   3.852   6.852   6.868 -0.5955 -0.3515  0.1199
11958SOL     OW36974   5.718   6.718   2.437  0.0803  0.3226  0.2379
11958SOL    HW136975   5.770   6.737   2.516  1.8828  0.7036 -0.9626
11958SOL    HW236976   5.774   6.661   2.385 -0.8958  0.4128 -0.9535
11959SOL     OW36977   2.535   5.869   3.903  0.5914 -0.4540 -0.1421
11959SOL    HW136978   2.464   5.875   3.967  0.3392 -2.0535 -0.2421
11959SOL    HW236979   2.523   5.946   3.847 -0.4870 -0.1969  0.4094
11960SOL     OW36980   8.295   7.446   2.614 -0.3404  0.0194 -0.0726
11960SOL    HW136981   8.205   7.461   2.586 -1.3100 -0.6288  2.4312
11960SOL    HW236982   8.302   7.351   2.623  0.1152  0.1417  1.1014
11961SOL     OW36983   8.180   0.101   5.656  0.0852 -0.3997 -0.1351
11961SOL    HW136984   8.197   0.031   5.592 -0.7407  0.2705 -1.1105
11961SOL    HW236985   8.218   0.179   5.617  2.1796 -0.4820  1.5462
11962SOL     OW36986   5.184   8.922   3.729 -0.1086  0.5257  0.1746
11962SOL    HW136987   5.259   8.865   3.746 -0.7561 -0.8033 -1.1617
11962SOL    HW236988   5.157   8.900   3.640 -1.3595  1.8313  0.1928
11963SOL     OW36989   1.235   8.249   0.529 -0.3048 -0.1315  0.0795
11963SOL    HW136990   1.160   8.275   0.582  0.5468 -0.5163  1.5367
11963SOL    HW236991   1.230   8.154   0.525  0.5859 -0.2325  0.9733
11964SOL     OW36992   7.383   1.674   4.270  0.4173 -0.4224  0.3176
11964SOL    HW136993   7.478   1.671   4.259  0.4020 -0.5952  0.2334
11964SOL    HW236994   7.369   1.729   4.347  0.5049  1.2233 -0.7995
11965SOL     OW36995   4.261   7.430   6.369 -0.3394  0.0091 -0.0845
11965SOL    HW136996   4.248   7.524   6.368 -1.4208 -0.1358 -0.7325
11965SOL    HW236997   4.348   7.418   6.408 -0.4732  1.2218  0.6107
11966SOL     OW36998   8.449   0.559   4.468 -0.3678  0.3983  0.6592
11966SOL    HW136999   8.394   0.632   4.494 -2.1853 -0.8820  0.5697
11966SOL    HW237000   8.388   0.491   4.440  1.2657 -1.0141  0.3389
11967SOL     OW37001   4.686   4.645   0.957 -0.2703  0.1024 -0.1510
11967SOL    HW137002   4.648   4.676   0.875  0.3856  1.9752  0.2076
11967SOL    HW237003   4.769   4.692   0.965 -0.3475  0.0229  1.6218
11968SOL     OW37004   7.413   5.655   7.829 -0.2934 -0.5411 -0.3685
11968SOL    HW137005   7.428   5.577   7.777  2.0721  1.4297 -2.9707
11968SOL    HW237006   7.351   5.707   7.778 -0.3114  0.1373  0.3225
11969SOL     OW37007   6.294   2.372   0.409  0.1258  0.4553  0.0956
11969SOL    HW137008   6.247   2.403   0.332 -2.2224 -1.4270  0.6383
11969SOL    HW237009   6.279   2.277   0.410  0.5647  0.3321  2.5143
11970SOL     OW37010   4.520   0.228   8.537 -0.2381 -0.5919 -0.0998
11970SOL    HW137011   4.544   0.267   8.453 -0.1929  0.4439  0.3826
11970SOL    HW237012   4.424   0.233   8.539 -0.2171 -0.2415  0.0833
11971SOL     OW37013   0.058   0.633   2.999  0.3212 -0.1053 -0.1419
11971SOL    HW137014   0.116   0.596   3.065  1.4858  0.6243 -0.7265
11971SOL    HW237015   0.068   0.576   2.923 -0.7341 -0.7237  0.1507
11972SOL     OW37016   7.519   3.407   6.044 -0.1957 -0.0317 -0.2433
11972SOL    HW137017   7.569   3.488   6.049  2.1746 -1.4798  1.9127
11972SOL    HW237018   7.428   3.434   6.060  0.1228  2.4106 -2.0027
11973SOL     OW37019   3.095   7.474   5.365  0.3184  0.0957 -0.1834
11973SOL    HW137020   3.000   7.488   5.362 -0.1649 -2.7273 -1.7526
11973SOL    HW237021   3.127   7.511   5.283  0.3992  0.0581 -0.1691
11974SOL     OW37022   8.474   4.449   3.153  0.1265  0.3377  0.4519
11974SOL    HW137023   8.506   4.413   3.236  2.0143 -0.8176 -0.6867
11974SOL    HW237024   8.421   4.379   3.115  1.0931 -0.0254 -0.2783
11975SOL     OW37025   0.437   3.037   0.186 -0.1723  0.8559 -0.1311
11975SOL    HW137026   0.370   3.021   0.120 -0.8809 -0.9872  0.9575
11975SOL    HW237027   0.519   3.041   0.136 -0.6970 -0.4268 -1.1434
11976SOL     OW37028   4.719   8.846   8.489 -0.5910  0.2416 -0.4720
11976SOL    HW137029   4.718   8.902   8.411  1.3924  2.7956  1.1441
11976SOL    HW237030   4.682   8.900   8.558  2.6821  0.2493  1.4933
11977SOL     OW37031   8.355   3.343   1.060 -0.2516 -0.7337  0.2975
11977SOL    HW137032   8.352   3.287   0.983 -1.0115  1.4342 -1.3376
11977SOL    HW237033   8.266   3.341   1.095 -1.2707  1.9589 -1.7822
11978SOL     OW37034   2.244   3.854   6.933 -0.5713  0.2960  0.1689
11978SOL    HW137035   2.214   3.777   6.885  0.0941  0.3030 -0.2638
11978SOL    HW237036   2.314   3.821   6.989  0.4420  0.7714 -0.7918
11979SOL     OW37037   6.661   7.549   7.324 -0.0160  0.9732  0.1299
11979SOL    HW137038   6.750   7.579   7.341  0.2531 -0.9800  2.8026
11979SOL    HW237039   6.606   7.623   7.348  0.8135  1.2511  1.2681
11980SOL     OW37040   4.742   8.621   3.967 -0.1579 -0.1956  0.1390
11980SOL    HW137041   4.769   8.547   3.912 -0.1853 -0.2652  0.2185
11980SOL    HW237042   4.812   8.686   3.956 -0.4025 -0.0125 -0.3558
11981SOL     OW37043   6.804   1.684   0.538  0.8709 -0.4067 -0.1329
11981SOL    HW137044   6.817   1.663   0.445  0.8942  0.3891 -0.3166
11981SOL    HW237045   6.865   1.756   0.555 -0.4242  0.7087  0.0036
11982SOL     OW37046   3.207   3.863   1.144 -0.9285 -0.2242  0.1027
11982SOL    HW137047   3.254   3.783   1.165  2.1004  2.1614  3.8235
11982SOL    HW237048   3.240   3.890   1.059 -2.0376 -2.7840 -1.2297
11983SOL     OW37049   6.422   2.501   5.298  0.0777 -0.1825  0.3821
11983SOL    HW137050   6.403   2.559   5.224  0.0182 -0.4569  0.1795
11983SOL    HW237051   6.499   2.451   5.270 -0.1224 -0.4934  0.3830
11984SOL     OW37052   2.957   8.978   8.944  0.0906  0.1624 -0.5608
11984SOL    HW137053   2.870   8.948   8.969  0.1458 -0.3256 -0.9490
11984SOL    HW237054   2.974   9.052   9.003  0.1563 -0.8651  0.7786
11985SOL     OW37055   5.505   2.942   4.781  0.4303  0.2153 -0.0874
11985SOL    HW137056   5.474   2.951   4.691 -1.3463 -3.4419 -0.0484
11985SOL    HW237057   5.571   2.873   4.776  0.0312 -0.3102  1.4233
11986SOL     OW37058   0.931   0.201   2.080 -0.6749  0.3662  0.3822
11986SOL    HW137059   0.913   0.295   2.070 -1.0958  0.3878  1.2496
11986SOL    HW237060   1.026   0.196   2.085 -0.5931  0.6422 -0.5814
11987SOL     OW37061   7.763   6.317   6.840  0.4344 -0.3654 -0.9411
11987SOL    HW137062   7.782   6.383   6.906  1.7760 -1.3148 -0.3292
11987SOL    HW237063   7.735   6.367   6.763  0.1824  0.8221 -0.0999
11988SOL     OW37064   3.884   7.789   3.925  0.2634  0.1385  0.3725
11988SOL    HW137065   3.955   7.726   3.932  2.4327  2.1400 -1.7447
11988SOL    HW237066   3.865   7.794   3.832 -1.8062  0.5918  0.7720
11989SOL     OW37067   8.198   2.687   0.088  0.6737  0.0405  0.7098
11989SOL    HW137068   8.191   2.736   0.170 -1.2013 -0.9339  1.1960
11989SOL    HW237069   8.171   2.598   0.112  2.5738 -0.9058 -0.4403
11990SOL     OW37070   4.923   5.809   8.089 -0.1960  0.1849  0.3700
11990SOL    HW137071   4.836   5.837   8.062 -0.2116  1.7157  1.8042
11990SOL    HW237072   4.953   5.879   8.147  1.7302 -0.6209  0.4202
11991SOL     OW37073   7.067   2.464   3.482  0.1850  0.1291 -0.4755
11991SOL    HW137074   7.153   2.500   3.458  0.8100 -0.7094  0.4058
11991SOL    HW237075   7.016   2.541   3.508  0.6397  0.6450 -1.0687
11992SOL     OW37076   0.104   1.994   5.686  0.0157 -0.3667  0.1622
11992SOL    HW137077   0.015   1.965   5.703  0.0099 -0.4114  0.0541
11992SOL    HW237078   0.157   1.949   5.753  0.1010 -1.1587 -0.4176
11993SOL     OW37079   7.472   8.721   3.218  0.6747 -0.3811 -0.6295
11993SOL    HW137080   7.404   8.654   3.214  0.2131  0.0957 -0.9170
11993SOL    HW237081   7.468   8.764   3.133  0.1606  0.7884 -0.0384
11994SOL     OW37082   4.487   8.981   7.757 -0.5906  0.1765  0.3976
11994SOL    HW137083   4.479   8.895   7.715  1.1912  0.8317 -1.4583
11994SOL    HW237084   4.468   9.043   7.686 -0.0594  1.3382  1.2467
11995SOL     OW37085   7.075   3.181   3.256 -0.2583  0.2169  0.0080
11995SOL    HW137086   7.158   3.174   3.210  0.5254 -0.0911  1.4243
11995SOL    HW237087   7.016   3.222   3.193  0.9575  0.4478 -1.0127
11996SOL     OW37088   6.809   6.738   5.806 -0.3572 -0.2082 -0.5457
11996SOL    HW137089   6.837   6.647   5.814 -0.0956 -0.1830 -1.1031
11996SOL    HW237090   6.853   6.783   5.877 -0.3480 -0.4849 -0.3725
11997SOL     OW37091   6.004   6.080   2.566  0.1441  0.0729  0.2262
11997SOL    HW137092   6.085   6.031   2.584  0.2779 -0.0125 -0.5563
11997SOL    HW237093   5.935   6.027   2.606  0.3726 -0.3546  0.0590
11998SOL     OW37094   4.973   1.218   7.993  0.2676  0.4070  0.3629
11998SOL    HW137095   5.016   1.246   7.912 -0.8748  0.4328 -0.2565
11998SOL    HW237096   4.990   1.124   7.998  0.0510  0.3446 -0.0869
11999SOL     OW37097   0.098   4.319   0.928  0.6875 -0.2468  0.1243
11999SOL    HW137098   0.041   4.284   0.859  0.6161  3.7235 -2.0947
11999SOL    HW237099   0.124   4.241   0.978 -1.7973 -2.9911 -2.4071
12000SOL     OW37100   6.127   1.457   8.195  0.0825  0.2859 -0.5584
12000SOL    HW137101   6.094   1.393   8.132 -1.4258  0.0151  0.4584
12000SOL    HW237102   6.125   1.540   8.148 -1.4187  0.1575 -0.7670
12001SOL     OW37103   3.244   5.164   7.076 -0.2809 -0.4086  0.3942
12001SOL    HW137104   3.254   5.238   7.137  0.9372  0.2503 -0.5533
12001SOL    HW237105   3.268   5.087   7.127  2.3474  0.3083  0.3537
12002SOL     OW37106   1.848   7.540   5.260  0.2386 -0.0632  0.2106
12002SOL    HW137107   1.909   7.614   5.251  1.5911 -1.3285 -1.7924
12002SOL    HW237108   1.903   7.468   5.290 -0.5289 -0.8769 -0.3003
12003SOL     OW37109   8.802   3.117   8.743  1.1229 -0.2593 -0.1016
12003SOL    HW137110   8.714   3.152   8.727  0.8398 -0.4881  0.8706
12003SOL    HW237111   8.807   3.038   8.691  0.4338 -0.6960  0.4818
12004SOL     OW37112   6.346   9.088   3.008  0.1537  0.1859  0.0881
12004SOL    HW137113   6.284   9.107   3.079  1.1162  1.1783  0.7083
12004SOL    HW237114   6.416   9.037   3.050  0.9618  1.1716 -0.0007
12005SOL     OW37115   8.088   2.186   8.328  0.3664  0.0544  0.2217
12005SOL    HW137116   8.090   2.197   8.423  0.3155  1.9952  0.0415
12005SOL    HW237117   8.162   2.237   8.295 -0.6383  0.8935 -0.8672
12006SOL     OW37118   4.413   3.907   4.414 -0.2086 -0.4741 -0.1709
12006SOL    HW137119   4.343   3.888   4.351  0.3503 -3.0835 -0.1182
12006SOL    HW237120   4.433   3.822   4.454  0.7975  0.7785  2.1429
12007SOL     OW37121   4.447   1.571   0.454 -0.1377 -0.3813 -0.1644
12007SOL    HW137122   4.394   1.650   0.459 -0.2391 -0.4490 -0.1619
12007SOL    HW237123   4.464   1.560   0.360  1.0535  0.4169 -0.0709
12008SOL     OW37124   0.932   6.785   3.076 -0.3372  0.4275 -0.3081
12008SOL    HW137125   0.979   6.743   3.003 -0.5702 -0.9895  0.3268
12008SOL    HW237126   0.842   6.755   3.066 -0.8588  2.0138 -0.6968
12009SOL     OW37127   5.512   8.137   0.142 -0.2466  0.0476 -0.0122
12009SOL    HW137128   5.546   8.053   0.172 -0.2902  0.5051  1.3898
12009SOL    HW237129   5.553   8.151   0.056  0.8135 -0.7675  0.3472
12010SOL     OW37130   5.699   4.443   6.112  0.3933 -0.1041 -0.3629
12010SOL    HW137131   5.737   4.511   6.058 -2.0496  0.6089 -1.3093
12010SOL    HW237132   5.718   4.470   6.202 -0.9848  2.2077 -0.6875
12011SOL     OW37133   7.864   4.342   5.042  0.7883  0.4929  0.3174
12011SOL    HW137134   7.919   4.406   5.087  0.5385  0.2011  1.0485
12011SOL    HW237135   7.794   4.394   5.001 -0.2790  0.5933  2.1522
12012SOL     OW37136   2.853   3.687   6.997  0.7860 -0.3545  0.0415
12012SOL    HW137137   2.801   3.616   6.960 -0.6404  0.6278  0.0739
12012SOL    HW237138   2.791   3.759   7.006  1.6884  0.2357  1.9768
12013SOL     OW37139   0.546   4.639   7.335 -0.0987 -0.4074 -0.1275
12013SOL    HW137140   0.554   4.734   7.321  0.8832 -0.6707 -1.5308
12013SOL    HW237141   0.629   4.614   7.375 -0.5193 -0.6461  0.6355
12014SOL     OW37142   6.938   8.562   2.041  0.0460 -0.5360 -0.2608
12014SOL    HW137143   7.004   8.493   2.045 -0.4364 -0.9762  0.3826
12014SOL    HW237144   6.900   8.554   1.954  0.6530 -0.4539 -0.5384
12015SOL     OW37145   5.840   7.164   1.374 -0.8942 -0.2732  0.2396
12015SOL    HW137146   5.782   7.103   1.420 -0.8799  0.5806  1.4424
12015SOL    HW237147   5.925   7.122   1.373 -1.2555 -1.0304 -0.5218
12016SOL     OW37148   5.633   1.559   1.623  0.4257  0.3697 -0.3538
12016SOL    HW137149   5.637   1.575   1.529 -1.9476 -0.2780 -0.6078
12016SOL    HW237150   5.620   1.646   1.661  1.6887  0.6752 -0.5440
12017SOL     OW37151   6.959   5.549   3.595 -0.0563 -0.3826 -0.1559
12017SOL    HW137152   6.919   5.462   3.595  0.2294 -0.5558 -1.7245
12017SOL    HW237153   6.886   5.609   3.607 -0.3417 -0.8065  0.2964
12018SOL     OW37154   7.309   5.825   0.634 -0.8653 -0.2511 -0.0709
12018SOL    HW137155   7.352   5.869   0.708 -1.8646 -0.0788  0.4232
12018SOL    HW237156   7.282   5.897   0.577 -3.9072  0.0149  1.4883
12019SOL     OW37157   6.645   2.547   1.618  0.4095  0.1910 -0.8511
12019SOL    HW137158   6.691   2.506   1.691  1.2996  1.3929 -0.7088
12019SOL    HW237159   6.624   2.475   1.559 -0.3665 -0.8127  0.5840
12020SOL     OW37160   8.563   1.956   8.978 -0.0399  0.1442 -0.0892
12020SOL    HW137161   8.598   1.869   8.996  0.2220  0.3340  0.3124
12020SOL    HW237162   8.544   1.993   9.064 -0.2798  0.4339 -0.2624
12021SOL     OW37163   7.714   3.915   0.634  0.3559 -0.2565 -0.3673
12021SOL    HW137164   7.678   4.002   0.620 -3.1826 -1.3945  0.5735
12021SOL    HW237165   7.733   3.881   0.547 -0.6262  0.5577 -0.9090
12022SOL     OW37166   5.101   6.660   1.375  0.2634  0.4562  0.5768
12022SOL    HW137167   5.081   6.606   1.452 -1.2570  2.1428  1.4627
12022SOL    HW237168   5.196   6.671   1.378  0.3767 -0.5980  1.4578
12023SOL     OW37169   4.897   0.946   7.875 -0.0158 -0.9516 -0.6226
12023SOL    HW137170   4.898   0.975   7.783 -0.0953 -1.5698 -0.8250
12023SOL    HW237171   4.814   0.979   7.909 -0.0724 -0.8780 -0.8281
12024SOL     OW37172   3.152   7.984   8.906 -0.0331 -0.5425 -0.0589
12024SOL    HW137173   3.238   8.013   8.878  0.3001 -0.6939  0.7779
12024SOL    HW237174   3.109   7.955   8.826  0.3514  0.3846 -0.6179
12025SOL     OW37175   8.784   8.921   5.243  0.0072 -0.0717 -0.0238
12025SOL    HW137176   8.730   8.843   5.244  0.9409 -0.8526 -2.3932
12025SOL    HW237177   8.859   8.900   5.299 -1.5315  0.6342  2.4262
12026SOL     OW37178   7.582   5.753   4.597  0.3992  0.3143  0.3649
12026SOL    HW137179   7.528   5.749   4.676 -1.5120 -0.5042 -0.8990
12026SOL    HW237180   7.660   5.700   4.618 -0.1673 -0.0511  1.6169
12027SOL     OW37181   9.062   1.853   8.803 -0.4002  0.5024  0.1098
12027SOL    HW137182   9.018   1.857   8.718  0.5991  0.1304 -0.4423
12027SOL    HW237183   9.146   1.810   8.784  0.0844  0.9576  1.1779
12028SOL     OW37184   3.059   4.953   6.291 -0.0044 -0.3283  0.0470
12028SOL    HW137185   3.042   4.914   6.205 -1.1128 -2.2825  1.0805
12028SOL    HW237186   3.014   5.037   6.288  2.0148  0.7861 -2.0864
12029SOL     OW37187   2.409   0.365   3.132 -0.0352  0.3437 -0.0497
12029SOL    HW137188   2.403   0.380   3.227  0.1281  1.5780 -0.2219
12029SOL    HW237189   2.433   0.450   3.096 -1.6668  0.2782 -1.3767
12030SOL     OW37190   2.442   6.494   8.432 -0.4124  0.0418  0.4309
12030SOL    HW137191   2.389   6.533   8.502 -0.3147  0.4205  0.2957
12030SOL    HW237192   2.480   6.569   8.386  1.5930 -0.2071  1.5414
12031SOL     OW37193   8.755   2.135   8.331  0.1638  0.1800  0.1041
12031SOL    HW137194   8.815   2.065   8.358  1.2978  2.0201  2.8028
12031SOL    HW237195   8.808   2.191   8.275 -0.3227 -0.3265 -0.8874
12032SOL     OW37196   6.173   7.092   8.887  0.4246 -0.4871 -0.4356
12032SOL    HW137197   6.221   7.175   8.885 -1.0672  0.4344  0.2383
12032SOL    HW237198   6.192   7.055   8.974 -0.5257  0.1796  0.0755
12033SOL     OW37199   1.830   3.501   3.155  0.3027  0.1729 -0.2696
12033SOL    HW137200   1.814   3.582   3.204  1.0597  1.3729 -1.9179
12033SOL    HW237201   1.743   3.466   3.137 -0.0440  0.7317  0.2629
12034SOL     OW37202   1.935   1.125   2.265  0.4074  0.5423  0.3550
12034SOL    HW137203   1.882   1.049   2.242  0.7500  0.1713  0.7843
12034SOL    HW237204   2.024   1.091   2.272  0.5972  1.0257  0.3411
12035SOL     OW37205   0.937   6.781   4.005 -0.0666 -0.4139 -0.5032
12035SOL    HW137206   0.882   6.739   4.071 -0.0001  1.0731  0.5549
12035SOL    HW237207   0.877   6.833   3.952 -0.2414 -2.2516 -2.2276
12036SOL     OW37208   4.556   2.422   7.315 -0.2055  0.1957 -0.0057
12036SOL    HW137209   4.622   2.379   7.260  1.5069 -1.0069  2.7927
12036SOL    HW237210   4.554   2.512   7.283  0.5576 -0.4740 -2.1183
12037SOL     OW37211   6.240   4.359   2.427  0.1336 -0.6435  0.0400
12037SOL    HW137212   6.219   4.416   2.501  2.0420 -0.1308  0.2405
12037SOL    HW237213   6.281   4.282   2.467 -0.0536 -0.9737 -0.4010
12038SOL     OW37214   5.241   3.598   2.766 -0.3190 -0.0589 -0.3980
12038SOL    HW137215   5.206   3.615   2.854 -0.3663 -0.9944 -0.2312
12038SOL    HW237216   5.198   3.517   2.738 -1.4795  1.0003 -1.9141
12039SOL     OW37217   8.689   2.716   2.208  0.1179 -0.0520 -0.5738
12039SOL    HW137218   8.736   2.799   2.206 -1.9468  1.1674 -0.2125
12039SOL    HW237219   8.623   2.727   2.276  0.6537 -2.5002  0.4593
12040SOL     OW37220   6.425   5.412   0.174 -0.7646  0.4370  0.0232
12040SOL    HW137221   6.463   5.385   0.258  0.0818 -0.5451 -0.6426
12040SOL    HW237222   6.480   5.485   0.146  0.2477 -0.5130 -0.5885
12041SOL     OW37223   4.834   2.721   6.731  0.4684 -0.4683  0.1617
12041SOL    HW137224   4.904   2.783   6.750  0.4141 -0.3381 -0.0640
12041SOL    HW237225   4.772   2.770   6.678 -0.2704 -0.3022  1.1543
12042SOL     OW37226   7.085   8.146   8.150 -0.1197  0.0744 -0.3888
12042SOL    HW137227   7.116   8.140   8.059 -1.3069 -0.1218 -0.7905
12042SOL    HW237228   6.996   8.181   8.144 -0.4188 -0.4509  0.6599
12043SOL     OW37229   2.538   2.765   8.703 -0.0311 -0.1726  0.5545
12043SOL    HW137230   2.602   2.805   8.643 -0.1746  1.0346  1.1726
12043SOL    HW237231   2.522   2.678   8.666  1.2392 -0.1387 -0.1506
12044SOL     OW37232   7.821   4.986   5.096 -1.2066  0.0370  0.0887
12044SOL    HW137233   7.801   4.913   5.154 -2.8004 -1.5736 -2.2643
12044SOL    HW237234   7.736   5.017   5.066 -0.4749  0.9790 -1.1434
12045SOL     OW37235   5.861   4.865   3.552 -0.1470 -0.3102  0.1778
12045SOL    HW137236   5.898   4.917   3.624 -0.0941 -1.4074  0.9615
12045SOL    HW237237   5.850   4.777   3.588 -2.0589 -0.4103 -0.5227
12046SOL     OW37238   8.863   2.913   3.562  0.2249 -0.4537  0.1604
12046SOL    HW137239   8.891   2.838   3.509  0.9339 -0.4903  0.5701
12046SOL    HW237240   8.939   2.972   3.560  0.0435 -0.2020  0.6669
12047SOL     OW37241   7.394   8.121   4.995 -0.6607  0.3010 -0.6066
12047SOL    HW137242   7.482   8.133   4.959 -0.5428  0.9556 -0.1310
12047SOL    HW237243   7.409   8.074   5.077 -0.7687  0.2605 -0.6110
12048SOL     OW37244   2.602   8.983   1.301 -0.2852 -0.1526  0.1185
12048SOL    HW137245   2.657   8.983   1.380 -0.5302  1.1579  0.3111
12048SOL    HW237246   2.517   9.015   1.331 -0.5290 -0.1348 -0.5800
12049SOL     OW37247   0.151   1.687   3.030  0.0581 -0.2840  0.1114
12049SOL    HW137248   0.221   1.692   3.094  0.5712  0.1007 -0.4675
12049SOL    HW237249   0.131   1.778   3.008 -2.2254 -0.2350  1.9459
12050SOL     OW37250   6.255   3.495   6.628 -0.0332  0.3787  0.4006
12050SOL    HW137251   6.225   3.421   6.575  2.4289  0.2167 -0.9327
12050SOL    HW237252   6.294   3.454   6.705  1.7917  0.1594 -0.5756
12051SOL     OW37253   4.787   5.552   5.648  0.0283 -0.0035  0.0450
12051SOL    HW137254   4.862   5.494   5.643  0.9654  1.1734 -0.1250
12051SOL    HW237255   4.749   5.535   5.734  0.6754 -0.4011  0.2554
12052SOL     OW37256   5.702   1.477   2.572  0.3732 -0.1941 -0.7531
12052SOL    HW137257   5.624   1.423   2.563 -0.1622  0.3678  0.3668
12052SOL    HW237258   5.671   1.567   2.566  0.9314  0.0369 -0.2985
12053SOL     OW37259   2.430   6.013   3.311  0.8974  0.4083  0.0505
12053SOL    HW137260   2.392   6.101   3.309  1.5866  0.8981  3.3290
12053SOL    HW237261   2.519   6.025   3.276  0.1436  0.4097 -2.0112
12054SOL     OW37262   6.616   8.619   2.704  0.2127 -0.1647  0.3342
12054SOL    HW137263   6.702   8.606   2.745  0.3712  0.1412  0.0973
12054SOL    HW237264   6.600   8.538   2.656 -1.1791 -1.7072  3.1476
12055SOL     OW37265   0.562   2.416   2.422 -0.2133  0.2723  0.0251
12055SOL    HW137266   0.599   2.459   2.344 -0.6489  1.4449  0.4435
12055SOL    HW237267   0.636   2.368   2.460  0.6940  1.8383  0.3368
12056SOL     OW37268   7.695   7.604   4.431  0.1240  0.5263  0.1639
12056SOL    HW137269   7.786   7.583   4.453  0.0304 -0.7108 -0.5441
12056SOL    HW237270   7.698   7.696   4.404  1.5110  0.0237 -1.5647
12057SOL     OW37271   2.262   3.350   0.786  0.1416  0.0187  0.5858
12057SOL    HW137272   2.333   3.395   0.834  1.3240 -0.8476 -0.2865
12057SOL    HW237273   2.207   3.312   0.855  0.8401  0.2491  1.2860
12058SOL     OW37274   6.798   5.795   5.549  0.3420 -0.1552  0.0702
12058SOL    HW137275   6.738   5.851   5.599  0.7935  1.0456 -0.6735
12058SOL    HW237276   6.823   5.726   5.610 -0.3099  0.3986  1.0010
12059SOL     OW37277   8.928   2.979   3.878 -0.2247 -0.3556 -0.5746
12059SOL    HW137278   8.940   2.896   3.831 -1.9603 -1.2063  0.3942
12059SOL    HW237279   9.013   2.996   3.919  0.6464 -0.7625 -2.1416
12060SOL     OW37280   6.154   1.558   3.957 -0.1287  0.5255 -0.7612
12060SOL    HW137281   6.079   1.570   3.898 -1.4923  1.0860  0.9925
12060SOL    HW237282   6.143   1.470   3.993 -0.0237  0.6498 -0.4195
12061SOL     OW37283   6.492   6.811   3.462 -0.2982 -0.2255  0.2244
12061SOL    HW137284   6.504   6.724   3.424 -1.5438 -0.2898 -0.0481
12061SOL    HW237285   6.503   6.871   3.388 -0.1471 -0.1825  0.2794
12062SOL     OW37286   0.600   6.746   5.999  0.8266  0.6996  0.6668
12062SOL    HW137287   0.644   6.777   5.920 -0.0935 -1.5234 -0.8322
12062SOL    HW237288   0.517   6.794   6.000  0.0990 -0.4390 -0.7390
12063SOL     OW37289   4.749   0.352   1.947  0.6378 -0.4042 -0.0620
12063SOL    HW137290   4.687   0.395   1.889 -1.7825 -0.9627  1.9201
12063SOL    HW237291   4.749   0.406   2.026  1.3498 -1.3765  0.6246
12064SOL     OW37292   2.084   7.479   7.882 -0.6294 -0.1463 -0.3145
12064SOL    HW137293   2.057   7.520   7.964 -2.2138  0.8864 -1.3098
12064SOL    HW237294   2.177   7.460   7.895 -0.8860 -0.2181  1.7881
12065SOL     OW37295   1.352   1.409   7.533 -0.2315  0.4947 -0.1132
12065SOL    HW137296   1.325   1.494   7.498  1.3183  0.5942 -1.2172
12065SOL    HW237297   1.382   1.427   7.622 -2.1943  0.6314  0.5673
12066SOL     OW37298   8.005   7.212   0.778 -0.2011 -0.4402  0.4255
12066SOL    HW137299   7.999   7.235   0.685 -0.5088  0.6833  0.7054
12066SOL    HW237300   8.096   7.187   0.791  0.5174  1.8798  0.3226
12067SOL     OW37301   2.046   6.015   7.771  0.2299  0.1625 -0.2479
12067SOL    HW137302   2.090   5.930   7.760  0.2340  0.1401 -0.0493
12067SOL    HW237303   2.068   6.063   7.691  0.2094 -0.0322 -0.3733
12068SOL     OW37304   1.005   6.161   4.631 -0.1877  0.6417 -0.2107
12068SOL    HW137305   0.912   6.144   4.646 -0.4875  1.6457 -0.8349
12068SOL    HW237306   1.049   6.081   4.660 -1.3388 -0.3394 -1.0711
12069SOL     OW37307   3.813   5.282   1.383  0.5731 -0.1814 -0.2816
12069SOL    HW137308   3.903   5.258   1.359  0.6872 -1.2561  1.0957
12069SOL    HW237309   3.762   5.203   1.369  0.3523 -0.3627  1.3703
12070SOL     OW37310   2.495   3.210   3.610  0.4324 -0.3010  0.4200
12070SOL    HW137311   2.502   3.233   3.518 -0.7653 -0.9631  0.1360
12070SOL    HW237312   2.404   3.229   3.633  0.1980 -1.8564  0.9494
12071SOL     OW37313   2.024   6.312   4.447  0.1614  0.6597  0.1300
12071SOL    HW137314   1.936   6.312   4.486 -0.7605 -4.0756 -1.3651
12071SOL    HW237315   2.009   6.311   4.353  1.8152 -0.1787 -0.1559
12072SOL     OW37316   1.024   7.475   0.512  0.3584  0.5588 -0.2255
12072SOL    HW137317   1.105   7.526   0.517  0.4226  0.6322 -1.7326
12072SOL    HW237318   0.964   7.519   0.572  1.7119 -0.0813  1.7300
12073SOL     OW37319   5.063   8.485   2.840 -0.1465  0.1198 -0.1583
12073SOL    HW137320   5.144   8.441   2.862 -0.7680 -1.2030 -0.4041
12073SOL    HW237321   5.069   8.571   2.882  1.0091 -0.2708  0.4979
12074SOL     OW37322   2.440   1.160   8.896 -0.2024  0.2200 -0.6512
12074SOL    HW137323   2.504   1.185   8.830  0.4423  1.7547  0.4724
12074SOL    HW237324   2.439   1.064   8.896  2.3528  0.1488 -0.4876
12075SOL     OW37325   3.471   2.044   3.438  0.0427 -0.3379 -0.4280
12075SOL    HW137326   3.441   2.127   3.476 -1.0779 -0.8700 -0.0911
12075SOL    HW237327   3.403   1.981   3.463  1.5596 -1.6720  0.5428
12076SOL     OW37328   3.817   4.665   6.841  0.0214 -0.1207  0.7395
12076SOL    HW137329   3.765   4.599   6.887 -1.1088  0.6360  0.5778
12076SOL    HW237330   3.757   4.738   6.828  0.9243  0.4888 -0.1171
12077SOL     OW37331   1.644   2.839   5.084 -0.0856  0.0591  0.1789
12077SOL    HW137332   1.599   2.761   5.117 -0.2248 -1.0129 -2.2967
12077SOL    HW237333   1.608   2.911   5.135 -0.3449 -1.4002  2.2110
12078SOL     OW37334   5.084   1.583   2.578 -0.0857  0.3252  0.2599
12078SOL    HW137335   5.073   1.588   2.483  0.0248  1.1225  0.2832
12078SOL    HW237336   5.055   1.494   2.601 -2.4657  0.9207 -0.1970
12079SOL     OW37337   5.185   6.477   4.419 -0.1667 -0.1535 -0.3769
12079SOL    HW137338   5.092   6.459   4.413  0.5197 -4.1393 -2.8825
12079SOL    HW237339   5.202   6.542   4.351 -1.2060  1.6202  0.9951
12080SOL     OW37340   3.357   6.789   6.663  0.1168  0.1031  0.3208
12080SOL    HW137341   3.439   6.774   6.618  0.6332  0.0544  1.2520
12080SOL    HW237342   3.359   6.728   6.737 -0.7684  0.0747  0.3359
12081SOL     OW37343   6.282   6.241   8.360  0.3969 -0.1308  0.3252
12081SOL    HW137344   6.294   6.314   8.299  1.8680  0.1748  0.9411
12081SOL    HW237345   6.309   6.164   8.310 -0.9372 -0.2553 -0.2505
12082SOL     OW37346   3.377   0.796   7.198 -0.0392  0.3061  0.0626
12082SOL    HW137347   3.397   0.744   7.276  0.6460  0.4615 -0.0022
12082SOL    HW237348   3.426   0.877   7.210  1.6215 -0.4074 -1.3723
12083SOL     OW37349   3.561   1.889   3.194  0.0860  0.3119 -0.0286
12083SOL    HW137350   3.640   1.839   3.216  0.0099 -0.3838 -1.2587
12083SOL    HW237351   3.538   1.934   3.276  2.5438  1.6626  0.0318
12084SOL     OW37352   6.207   0.542   2.743 -0.6450  0.1096 -0.4862
12084SOL    HW137353   6.115   0.568   2.749 -0.8036 -0.6389  0.7408
12084SOL    HW237354   6.204   0.448   2.729 -0.0784  0.0071  0.0277
12085SOL     OW37355   1.612   1.806   3.157 -0.1644  0.2509 -0.1045
12085SOL    HW137356   1.622   1.887   3.107  0.4025 -0.2195 -0.7617
12085SOL    HW237357   1.523   1.777   3.138  0.3330 -0.4011 -1.5909
12086SOL     OW37358   9.077   3.997   4.750  0.2765 -0.2497 -0.4696
12086SOL    HW137359   9.060   3.941   4.675 -1.3434  0.9622 -1.0481
12086SOL    HW237360   9.085   4.085   4.714 -2.6487  0.6957  0.9167
12087SOL     OW37361   4.483   3.689   0.430 -0.6016 -0.0925  0.0662
12087SOL    HW137362   4.524   3.615   0.475  1.8208  1.7097  1.0346
12087SOL    HW237363   4.409   3.712   0.484  0.6044  0.2502  1.6456
12088SOL     OW37364   8.047   1.916   3.426  0.0637 -0.2382 -0.6346
12088SOL    HW137365   8.099   1.907   3.346  0.4709 -1.6632 -0.2457
12088SOL    HW237366   8.090   1.859   3.490 -0.2087  0.9256  0.6407
12089SOL     OW37367   4.742   3.645   6.281  0.4915 -0.3836 -0.9596
12089SOL    HW137368   4.658   3.671   6.318 -0.2925  0.2554 -3.0370
12089SOL    HW237369   4.804   3.712   6.311  0.0673 -0.2956 -0.2524
12090SOL     OW37370   3.934   7.465   4.569 -0.3680  0.1834 -0.0707
12090SOL    HW137371   3.982   7.546   4.552 -1.3268  1.0458  1.1184
12090SOL    HW237372   3.992   7.396   4.537  1.3251  1.2233  0.5636
12091SOL     OW37373   2.441   0.876   6.611 -0.4927  0.0826 -0.4952
12091SOL    HW137374   2.367   0.828   6.649 -0.5553  0.3316 -0.3023
12091SOL    HW237375   2.483   0.813   6.553  1.6160 -1.5121  2.4408
12092SOL     OW37376   8.948   0.078   3.116  0.2504 -0.1477  0.0261
12092SOL    HW137377   9.021   0.038   3.163  0.5222  0.0216 -0.2445
12092SOL    HW237378   8.974   0.169   3.104  1.6933 -0.8253 -3.2400
12093SOL     OW37379   1.639   1.294   5.363  0.1848 -0.2640 -0.5438
12093SOL    HW137380   1.596   1.367   5.318  0.2226  0.7826  1.0626
12093SOL    HW237381   1.713   1.271   5.307 -0.4322  0.2262 -1.5831
12094SOL     OW37382   5.025   6.328   6.834 -0.6105  0.4340  0.1719
12094SOL    HW137383   4.959   6.370   6.779 -1.9675 -0.4879  1.0448
12094SOL    HW237384   5.081   6.280   6.772 -0.0954  2.0392 -0.6645
12095SOL     OW37385   8.741   3.880   3.391 -0.4249  0.2506 -0.2147
12095SOL    HW137386   8.776   3.930   3.317 -2.4326 -0.4478 -1.6971
12095SOL    HW237387   8.797   3.803   3.396 -0.1429  0.4037 -0.8599
12096SOL     OW37388   0.311   5.836   1.480 -0.0633  0.0126  0.4725
12096SOL    HW137389   0.315   5.769   1.549 -0.7938  0.3158  0.8270
12096SOL    HW237390   0.219   5.862   1.478 -0.1755 -0.4097 -1.0300
12097SOL     OW37391   3.996   9.096   3.878 -0.1713 -0.3872 -0.2117
12097SOL    HW137392   3.975   9.140   3.960  1.7359 -0.7125  0.5089
12097SOL    HW237393   4.008   9.167   3.815  1.7581  0.1519  0.6711
12098SOL     OW37394   7.359   8.519   7.566 -0.8848  0.2733  0.6398
12098SOL    HW137395   7.423   8.543   7.633 -0.4133  0.4901  0.1182
12098SOL    HW237396   7.343   8.425   7.582  2.4493 -0.8409 -1.5284
12099SOL     OW37397   4.747   8.337   3.241 -0.2234 -0.4406  0.3194
12099SOL    HW137398   4.763   8.361   3.150 -2.8085 -1.1447 -0.3748
12099SOL    HW237399   4.666   8.382   3.264 -0.3805 -1.4201  1.8103
12100SOL     OW37400   5.870   7.692   2.037  0.5833  0.0319 -0.0911
12100SOL    HW137401   5.948   7.639   2.023  1.2164  0.7286  0.7255
12100SOL    HW237402   5.890   7.776   1.996 -0.6013 -0.4613 -1.8224
12101SOL     OW37403   8.648   8.397   6.871 -0.3259  0.4824  0.3869
12101SOL    HW137404   8.675   8.358   6.788  1.6350 -1.5618  1.8800
12101SOL    HW237405   8.688   8.342   6.938 -3.1039  1.0900  2.7770
12102SOL     OW37406   9.044   5.896   1.733  0.6323 -0.0321 -0.0755
12102SOL    HW137407   8.979   5.831   1.758  0.3948  0.8084  1.6372
12102SOL    HW237408   9.123   5.846   1.714 -0.0893 -0.9508 -0.7165
12103SOL     OW37409   7.947   6.014   2.630  0.1884  0.0618  0.8544
12103SOL    HW137410   8.038   6.031   2.604  0.2519  0.4309  1.3112
12103SOL    HW237411   7.909   5.969   2.554  0.8002 -0.2599  0.7300
12104SOL     OW37412   3.672   3.627   7.291 -0.5085 -0.0227 -0.1190
12104SOL    HW137413   3.629   3.563   7.233 -0.5427  0.9282 -1.1865
12104SOL    HW237414   3.734   3.673   7.234  1.0309 -0.4925  1.1001
12105SOL     OW37415   7.026   8.150   6.216  0.0812 -0.2362 -0.0881
12105SOL    HW137416   7.068   8.157   6.130 -1.3260  0.4820 -0.7616
12105SOL    HW237417   6.993   8.061   6.219  1.7783 -0.8782  0.5382
12106SOL     OW37418   5.769   2.271   8.788  1.0260  0.5048 -0.7244
12106SOL    HW137419   5.765   2.260   8.883 -2.6521  0.4389 -0.7523
12106SOL    HW237420   5.816   2.354   8.776  2.2117  0.1557  1.0680
12107SOL     OW37421   1.979   3.245   5.622 -0.3208  0.0320  0.3848
12107SOL    HW137422   2.021   3.241   5.708 -0.4076 -1.8831  0.3984
12107SOL    HW237423   2.051   3.240   5.560 -0.3336  0.0873  0.3658
12108SOL     OW37424   2.021   8.182   8.751  0.1426  0.2631 -0.4149
12108SOL    HW137425   2.042   8.097   8.711  1.3241 -0.6281  1.9095
12108SOL    HW237426   2.104   8.228   8.755 -0.2700  1.0288 -0.5290
12109SOL     OW37427   3.667   0.112   6.565  0.1760 -0.0502  0.2509
12109SOL    HW137428   3.607   0.168   6.615 -0.5556  0.5538 -1.2496
12109SOL    HW237429   3.737   0.171   6.538  0.0322 -0.1229 -0.2923
12110SOL     OW37430   6.088   8.916   8.831  0.0856 -0.2782  0.1448
12110SOL    HW137431   6.132   8.832   8.825 -1.7416 -1.3142  0.5383
12110SOL    HW237432   6.065   8.938   8.741 -1.1861 -1.2098  0.2187
12111SOL     OW37433   0.456   3.190   4.348  0.1061  0.2651 -0.5980
12111SOL    HW137434   0.537   3.236   4.326  0.1675  0.4881  0.0496
12111SOL    HW237435   0.441   3.212   4.440  0.3536 -1.3230 -0.1486
12112SOL     OW37436   8.601   6.946   0.729 -0.5716  0.2435 -0.1104
12112SOL    HW137437   8.655   6.882   0.775  0.8519  1.1844 -0.4140
12112SOL    HW237438   8.581   7.012   0.796 -1.3863 -0.1093  0.0061
12113SOL     OW37439   4.350   3.248   6.646 -0.1164 -0.0845 -0.5259
12113SOL    HW137440   4.290   3.251   6.572  1.2015 -0.8752 -1.6850
12113SOL    HW237441   4.326   3.169   6.694  2.1227 -2.4865 -3.0035
12114SOL     OW37442   0.276   3.501   3.199 -0.0030  0.4156  0.2182
12114SOL    HW137443   0.259   3.572   3.261 -1.1664  0.3805 -0.0415
12114SOL    HW237444   0.276   3.422   3.252 -1.2812  0.3549  0.1580
12115SOL     OW37445   0.148   1.192   7.573 -0.2094 -0.0930 -0.0681
12115SOL    HW137446   0.242   1.177   7.580  0.0374  0.7472 -1.1999
12115SOL    HW237447   0.132   1.199   7.479 -1.6112 -1.3819  0.0421
12116SOL     OW37448   1.399   7.051   0.671 -0.1080 -0.4595  0.0583
12116SOL    HW137449   1.324   6.999   0.643 -0.7291  0.0078  0.7987
12116SOL    HW237450   1.472   6.989   0.675 -0.9158 -1.3715  1.2746
12117SOL     OW37451   7.020   4.622   2.029  0.1418 -0.0920 -0.2675
12117SOL    HW137452   6.948   4.560   2.018  1.4565 -1.5651 -0.9411
12117SOL    HW237453   7.061   4.597   2.112 -0.6824  1.3719  0.6150
12118SOL     OW37454   8.795   5.847   1.462  0.1300 -0.0335 -0.3320
12118SOL    HW137455   8.822   5.768   1.510  0.9257  0.6504  0.3846
12118SOL    HW237456   8.705   5.830   1.436 -0.0609 -0.7516  0.7358
12119SOL     OW37457   1.752   6.054   0.315  0.1809  0.2490  0.6989
12119SOL    HW137458   1.820   6.022   0.255 -1.4955 -2.8063  0.2387
12119SOL    HW237459   1.797   6.060   0.400  1.5587  0.5185 -0.0147
12120SOL     OW37460   2.488   2.048   6.805  0.0441 -0.4465 -0.5662
12120SOL    HW137461   2.420   2.078   6.745 -0.5024  0.2154  0.3624
12120SOL    HW237462   2.502   2.122   6.864  0.9599 -0.8874 -0.2068
12121SOL     OW37463   7.888   6.351   0.585  0.3887 -0.6252  0.0775
12121SOL    HW137464   7.953   6.418   0.609  0.7782 -0.7448 -0.6143
12121SOL    HW237465   7.805   6.387   0.616  0.3711  0.8761 -1.5313
12122SOL     OW37466   0.450   0.355   6.427  0.2497  0.3142 -0.2188
12122SOL    HW137467   0.397   0.322   6.500 -0.3578  0.5682 -0.5349
12122SOL    HW237468   0.462   0.448   6.446 -1.0403  0.6948 -1.0807
12123SOL     OW37469   1.911   6.952   6.820  0.2472  0.0844  0.0335
12123SOL    HW137470   1.917   7.008   6.897 -2.6515  0.8348 -0.1690
12123SOL    HW237471   1.999   6.952   6.783  1.8636 -0.6626  3.5054
12124SOL     OW37472   5.619   3.486   1.830 -0.0068 -0.0606  0.1506
12124SOL    HW137473   5.676   3.461   1.902 -0.3870 -0.0455  0.4592
12124SOL    HW237474   5.585   3.404   1.796  1.1298 -0.1669 -0.8249
12125SOL     OW37475   2.673   5.896   8.883  0.1125  0.4554  0.5467
12125SOL    HW137476   2.611   5.965   8.860  0.7448  1.1390  0.8472
12125SOL    HW237477   2.753   5.919   8.836  0.7842  0.7492  1.8053
12126SOL     OW37478   5.735   0.669   8.212  0.3152 -0.5205  0.6936
12126SOL    HW137479   5.722   0.589   8.263  2.2933 -1.1034  0.3532
12126SOL    HW237480   5.825   0.663   8.179  0.0578  1.2079 -0.4736
12127SOL     OW37481   8.577   8.635   2.183 -0.0677 -0.1709  0.1977
12127SOL    HW137482   8.638   8.625   2.255  1.1164 -0.7333 -0.8359
12127SOL    HW237483   8.628   8.611   2.105 -0.6038  2.6063 -1.1274
12128SOL     OW37484   1.789   0.451   1.281 -0.2300  0.0571  0.3790
12128SOL    HW137485   1.801   0.436   1.374  1.7039  1.2048  0.3733
12128SOL    HW237486   1.868   0.497   1.253 -1.1349  0.5343 -1.6534
12129SOL     OW37487   6.498   1.718   7.798 -0.5659  0.2944  0.1728
12129SOL    HW137488   6.497   1.801   7.846 -2.0999  0.4885 -0.1555
12129SOL    HW237489   6.575   1.725   7.741 -0.1848  1.1262  0.7620
12130SOL     OW37490   5.037   4.824   2.909  0.3825 -0.0597 -0.0215
12130SOL    HW137491   4.951   4.798   2.876 -0.4167  0.7300  1.3826
12130SOL    HW237492   5.094   4.750   2.887 -0.9201 -1.1476  0.1469
12131SOL     OW37493   5.039   7.190   8.471 -0.0983 -0.4374  0.8269
12131SOL    HW137494   5.124   7.152   8.449  0.3993  0.8034  0.5314
12131SOL    HW237495   4.984   7.174   8.394  0.5557  0.7087  0.0958
12132SOL     OW37496   9.078   6.924   1.211 -0.5102 -0.7127  0.5862
12132SOL    HW137497   9.106   6.834   1.194 -1.4601 -1.0106  0.5264
12132SOL    HW237498   9.146   6.960   1.268 -0.3180 -1.6023  0.9399
12133SOL     OW37499   0.290   3.478   9.077 -0.2093  0.1213  0.2499
12133SOL    HW137500   0.287   3.542   9.148  1.7518  1.0521 -0.4366
12133SOL    HW237501   0.380   3.445   9.079  0.1754  0.7902 -2.2900
12134SOL     OW37502   6.589   3.531   1.291  0.0139  0.1591 -0.5551
12134SOL    HW137503   6.502   3.525   1.251 -0.2322 -1.7005  0.1738
12134SOL    HW237504   6.585   3.471   1.366  2.1187 -0.4181 -0.8484
12135SOL     OW37505   7.971   2.374   4.164 -0.2278  0.2091 -0.0914
12135SOL    HW137506   7.948   2.290   4.124  1.5515 -1.1801  1.6021
12135SOL    HW237507   8.058   2.394   4.128  0.1436  0.3875  0.8963
12136SOL     OW37508   0.731   2.622   6.367  0.0631 -0.0762 -0.5507
12136SOL    HW137509   0.692   2.607   6.280  0.3533 -1.3060 -0.4939
12136SOL    HW237510   0.673   2.575   6.427 -0.4888  1.2995  0.0124
12137SOL     OW37511   4.227   8.172   4.132 -0.5059  0.1459 -0.4198
12137SOL    HW137512   4.174   8.119   4.072 -0.7489 -0.2561  0.1452
12137SOL    HW237513   4.230   8.121   4.213  2.7624 -1.0720 -1.1338
12138SOL     OW37514   6.870   4.421   3.500  0.4499 -0.1749 -0.3801
12138SOL    HW137515   6.946   4.447   3.447 -0.5063 -2.1993 -2.9895
12138SOL    HW237516   6.879   4.326   3.510  0.0435  0.0140  2.3413
12139SOL     OW37517   4.987   8.547   5.705 -0.2272  0.3245 -0.5373
12139SOL    HW137518   5.022   8.459   5.691  0.3593  0.6619 -1.2817
12139SOL    HW237519   4.956   8.547   5.796  2.8608  0.3568  0.6439
12140SOL     OW37520   5.428   3.621   1.974  0.2471  0.1159  0.3462
12140SOL    HW137521   5.425   3.570   2.055 -3.3475  0.4082  0.5415
12140SOL    HW237522   5.489   3.573   1.918  0.7937 -1.5725  2.2764
12141SOL     OW37523   6.227   4.251   2.034  0.0980 -0.0166 -0.2903
12141SOL    HW137524   6.181   4.184   2.085  0.0263 -0.2390 -0.6446
12141SOL    HW237525   6.160   4.317   2.016  0.3766  0.5920  0.8100
12142SOL     OW37526   0.375   7.672   4.602 -0.4674 -0.1412 -0.4518
12142SOL    HW137527   0.306   7.632   4.655 -1.4387  0.2415 -1.4131
12142SOL    HW237528   0.388   7.758   4.642 -2.3032  0.7815 -1.7288
12143SOL     OW37529   2.498   6.840   3.997  0.0603 -0.1094 -0.6105
12143SOL    HW137530   2.515   6.833   3.903  0.5899  2.5334 -0.7917
12143SOL    HW237531   2.416   6.889   4.002  0.6935  0.8977  0.2837
12144SOL     OW37532   3.565   6.036   8.517  0.7358 -0.1373  0.3979
12144SOL    HW137533   3.644   6.066   8.472 -1.4191  2.8146 -1.7840
12144SOL    HW237534   3.544   6.107   8.579 -1.1853  0.0929 -0.4512
12145SOL     OW37535   2.947   6.637   4.648 -0.1290  0.2523  0.0274
12145SOL    HW137536   2.882   6.624   4.579 -2.1039  0.7846  1.6747
12145SOL    HW237537   2.992   6.718   4.623 -0.4610  0.1758 -0.8632
12146SOL     OW37538   7.119   1.312   0.406  0.1548 -0.3142  0.1534
12146SOL    HW137539   7.051   1.376   0.387 -0.6869 -1.4082 -0.6045
12146SOL    HW237540   7.176   1.356   0.469 -1.8330  0.2479  1.6606
12147SOL     OW37541   5.781   7.480   8.261 -0.2122  0.6612 -0.3557
12147SOL    HW137542   5.770   7.448   8.350  1.9337 -0.1006 -0.3024
12147SOL    HW237543   5.740   7.567   8.261 -1.8934 -0.0839  0.8104
12148SOL     OW37544   1.494   2.309   1.156 -0.1456  0.4067  0.2438
12148SOL    HW137545   1.525   2.388   1.111 -1.1986  1.0532  0.6197
12148SOL    HW237546   1.528   2.237   1.103 -3.0576  1.0978 -2.9426
12149SOL     OW37547   1.859   5.028   3.023  0.7572 -0.4552 -0.0081
12149SOL    HW137548   1.830   4.964   2.959 -0.4406  0.3050 -0.2582
12149SOL    HW237549   1.819   5.000   3.105 -0.1017  0.1664 -0.1980
12150SOL     OW37550   4.776   2.747   3.635  0.2410  0.3624  0.5364
12150SOL    HW137551   4.818   2.720   3.717  0.0652 -2.1359 -0.1104
12150SOL    HW237552   4.837   2.719   3.567 -0.7744  0.0209 -0.2583
12151SOL     OW37553   2.162   0.261   2.751  0.4116  0.1117 -0.2935
12151SOL    HW137554   2.097   0.221   2.807  1.2577  1.4025  1.7188
12151SOL    HW237555   2.246   0.228   2.784  1.0951  2.8960  1.0219
12152SOL     OW37556   3.942   3.089   2.084  0.2134 -0.2828 -0.0100
12152SOL    HW137557   3.890   3.167   2.098 -0.3446 -0.5493 -0.5402
12152SOL    HW237558   3.936   3.040   2.166 -1.1788 -0.7684 -0.3740
12153SOL     OW37559   2.272   1.047   4.777 -0.1613 -0.1517 -0.0841
12153SOL    HW137560   2.271   1.143   4.772 -0.2523 -0.1981 -1.0751
12153SOL    HW237561   2.343   1.027   4.839 -0.0816  0.5516  0.0581
12154SOL     OW37562   8.782   3.068   0.303  0.5105 -0.2775 -0.1953
12154SOL    HW137563   8.691   3.046   0.283  0.6293 -1.2803  0.2927
12154SOL    HW237564   8.785   3.074   0.398  0.5560  1.6550 -0.2879
12155SOL     OW37565   8.912   8.293   7.713  0.3780 -0.0075 -0.0138
12155SOL    HW137566   8.954   8.377   7.733  0.1670 -0.0714  0.7279
12155SOL    HW237567   8.981   8.229   7.723  0.3842  0.0104  0.0568
12156SOL     OW37568   8.199   5.459   7.517 -0.4763  0.1730  0.3228
12156SOL    HW137569   8.164   5.467   7.606  0.4672  0.0975  0.7136
12156SOL    HW237570   8.256   5.536   7.507 -1.6414  0.9421 -0.7372
12157SOL     OW37571   6.528   8.116   6.734 -0.1557 -0.0107  0.6830
12157SOL    HW137572   6.474   8.123   6.813  2.7761  1.2850  2.7575
12157SOL    HW237573   6.505   8.194   6.683 -1.0696 -0.0964  0.9430
12158SOL     OW37574   5.964   4.944   7.982  0.2754 -0.3734 -0.5997
12158SOL    HW137575   5.893   4.932   7.919  0.0385  2.1199 -0.8784
12158SOL    HW237576   5.953   4.872   8.044 -1.3020 -1.1548 -1.7121
12159SOL     OW37577   1.636   0.365   4.210  0.3633  0.4747  0.0821
12159SOL    HW137578   1.692   0.356   4.286  1.5641 -0.8295 -0.8919
12159SOL    HW237579   1.676   0.309   4.144 -1.4241  0.4472 -1.0610
12160SOL     OW37580   6.357   5.298   3.741 -0.4743  0.4698  0.3455
12160SOL    HW137581   6.313   5.214   3.754 -0.7853  0.7041  0.8388
12160SOL    HW237582   6.292   5.363   3.766 -0.9459  0.9556 -1.9853
12161SOL     OW37583   5.307   2.146   0.725  0.4665 -0.0640 -0.1700
12161SOL    HW137584   5.269   2.166   0.639  0.5917 -0.9082 -0.4332
12161SOL    HW237585   5.235   2.107   0.774  1.0281 -1.9529 -0.7739
12162SOL     OW37586   4.259   0.570   1.400  0.0334  0.2701  0.1394
12162SOL    HW137587   4.270   0.572   1.304 -1.2598  1.3117 -0.0156
12162SOL    HW237588   4.182   0.623   1.416 -0.7416 -1.2354  1.6632
12163SOL     OW37589   1.179   2.240   6.656  0.3620 -0.1142 -0.2043
12163SOL    HW137590   1.113   2.181   6.692 -0.3770  0.5830 -0.4151
12163SOL    HW237591   1.131   2.317   6.629  0.5734 -1.1866 -4.2663
12164SOL     OW37592   2.402   0.245   2.485 -0.1792  0.0800  0.5524
12164SOL    HW137593   2.395   0.187   2.409  0.9468  1.3088 -0.5328
12164SOL    HW237594   2.421   0.186   2.558 -0.4181 -1.0421 -0.2557
12165SOL     OW37595   2.685   8.782   5.591  0.2346  0.1844 -0.4091
12165SOL    HW137596   2.606   8.796   5.539 -1.3745 -0.8554  1.5821
12165SOL    HW237597   2.742   8.729   5.535 -0.6241  0.6264 -1.7514
12166SOL     OW37598   7.122   5.987   0.124  0.3487 -0.3178 -0.2825
12166SOL    HW137599   7.155   5.924   0.061  2.0424  0.2025  0.0546
12166SOL    HW237600   7.166   6.069   0.103 -0.3199  0.2717  0.5245
12167SOL     OW37601   4.644   0.532   7.328 -0.0361 -0.0951  0.1904
12167SOL    HW137602   4.686   0.541   7.413 -1.2727  1.0551  0.7189
12167SOL    HW237603   4.557   0.497   7.347 -0.1584 -0.2758 -0.6472
12168SOL     OW37604   2.059   1.165   8.366 -0.0731  0.6607  0.5205
12168SOL    HW137605   1.999   1.218   8.419  0.2082  0.9553  0.5503
12168SOL    HW237606   2.146   1.197   8.390  0.0219  1.5134 -0.8806
12169SOL     OW37607   0.975   4.818   5.674  0.0628  0.1775 -0.0692
12169SOL    HW137608   1.042   4.768   5.628  0.0661 -0.4763  0.6384
12169SOL    HW237609   0.913   4.844   5.605  0.0046 -0.8912 -0.4376
12170SOL     OW37610   0.235   7.276   6.633 -0.3885 -0.0272 -0.4120
12170SOL    HW137611   0.289   7.254   6.708 -0.6044 -3.4615 -1.1124
12170SOL    HW237612   0.224   7.371   6.639  1.8273  0.1979  2.3122
12171SOL     OW37613   2.240   5.853   6.085 -0.4429  0.1856  0.0214
12171SOL    HW137614   2.268   5.937   6.122  0.1375 -0.4706  1.1350
12171SOL    HW237615   2.220   5.799   6.162  0.1415 -1.0032 -0.6345
12172SOL     OW37616   2.089   2.302   0.456 -0.3181  0.6189 -0.1375
12172SOL    HW137617   2.133   2.303   0.541  1.2697 -0.0447 -0.9038
12172SOL    HW237618   2.066   2.393   0.440  1.2962  1.1066  0.0792
12173SOL     OW37619   8.757   4.044   3.645  0.0120  0.0177 -0.2036
12173SOL    HW137620   8.671   4.077   3.672 -0.2727 -1.7657  1.2338
12173SOL    HW237621   8.743   4.007   3.558 -0.2687  1.1562 -0.6670
12174SOL     OW37622   0.370   6.706   6.403 -0.1256  0.6480  0.4753
12174SOL    HW137623   0.279   6.697   6.431  0.3387  2.4050  2.9898
12174SOL    HW237624   0.369   6.778   6.340 -0.3926  1.5666  1.4853
12175SOL     OW37625   7.915   6.648   5.729 -0.0300  0.6189  0.2967
12175SOL    HW137626   7.929   6.594   5.652  0.8020  0.6742  0.4057
12175SOL    HW237627   7.826   6.625   5.759 -0.5605  0.9702 -0.9575
12176SOL     OW37628   8.567   7.922   1.152  0.2595 -0.1950  0.0657
12176SOL    HW137629   8.574   8.006   1.198  1.4824  0.4174 -1.1611
12176SOL    HW237630   8.657   7.900   1.129 -0.1792 -1.1922 -0.7846
12177SOL     OW37631   6.771   7.810   0.775 -0.4567  0.7389 -0.3501
12177SOL    HW137632   6.848   7.755   0.780 -0.3424  0.9117 -0.2021
12177SOL    HW237633   6.781   7.858   0.692 -0.7157  0.3055 -0.6380
12178SOL     OW37634   7.977   7.796   2.732 -0.3547  0.1043 -0.1722
12178SOL    HW137635   7.965   7.742   2.810 -0.8495 -0.6456 -0.7546
12178SOL    HW237636   8.065   7.833   2.742  0.1177 -1.0470  0.1100
12179SOL     OW37637   5.009   4.302   6.113  0.2397  0.0619 -0.3740
12179SOL    HW137638   5.071   4.231   6.126  0.6100  0.4451 -0.0050
12179SOL    HW237639   5.023   4.360   6.188 -1.9307 -0.8255  0.8283
12180SOL     OW37640   0.863   2.474   2.334  0.0075  0.2509  0.6072
12180SOL    HW137641   0.956   2.494   2.341  0.4774 -1.2457 -0.7190
12180SOL    HW237642   0.823   2.555   2.301  1.1653  0.3105 -0.7383
12181SOL     OW37643   0.413   9.060   7.755 -0.1868 -0.3022  0.2377
12181SOL    HW137644   0.394   8.968   7.775  0.9214 -0.7281 -0.5655
12181SOL    HW237645   0.330   9.106   7.772 -0.6620 -1.3888  0.9647
12182SOL     OW37646   6.051   3.442   7.605 -0.5942  0.1929  0.0833
12182SOL    HW137647   5.965   3.448   7.646 -1.0770 -0.5753 -0.7736
12182SOL    HW237648   6.043   3.369   7.543  0.4088  0.6720 -0.6399
12183SOL     OW37649   6.720   2.735   8.982 -0.3372  0.2840  0.7842
12183SOL    HW137650   6.726   2.752   9.076 -0.4850 -0.2385  0.8914
12183SOL    HW237651   6.797   2.682   8.962 -0.7970 -0.4046  0.7967
12184SOL     OW37652   5.265   7.904   5.367  0.4638  0.6216 -0.2248
12184SOL    HW137653   5.290   7.948   5.448  1.3227  1.5503 -0.9630
12184SOL    HW237654   5.278   7.811   5.384 -1.4929  0.5804  1.4151
12185SOL     OW37655   2.988   0.400   5.502  0.6543 -0.4348 -0.4484
12185SOL    HW137656   2.912   0.429   5.553 -0.1440  1.2316 -2.4182
12185SOL    HW237657   2.951   0.343   5.435  1.2538 -0.2737 -0.9250
12186SOL     OW37658   8.911   5.111   5.369  0.5181 -0.1773 -0.2550
12186SOL    HW137659   8.990   5.057   5.378  0.3407 -0.4095 -0.1022
12186SOL    HW237660   8.850   5.056   5.320 -0.5215 -1.0468  1.8718
12187SOL     OW37661   5.889   4.868   2.035 -0.1544 -0.3143 -0.3645
12187SOL    HW137662   5.861   4.953   2.000  0.1476 -0.5526 -1.1983
12187SOL    HW237663   5.955   4.837   1.973 -0.3292 -1.2018 -0.1136
12188SOL     OW37664   2.798   4.782   4.172  0.4695 -0.0982  0.7056
12188SOL    HW137665   2.773   4.819   4.088  1.8893  1.2995  0.8702
12188SOL    HW237666   2.851   4.705   4.150  0.1073 -0.2426  0.3351
12189SOL     OW37667   3.086   0.632   5.446 -0.3229  1.0010  0.1353
12189SOL    HW137668   3.154   0.636   5.379  1.3762 -0.8678  1.6077
12189SOL    HW237669   3.073   0.539   5.462  0.0130  1.3314  2.9648
12190SOL     OW37670   0.768   0.599   6.303 -0.0100 -0.1564 -0.5342
12190SOL    HW137671   0.860   0.580   6.323 -0.6096 -1.9874  0.8308
12190SOL    HW237672   0.736   0.520   6.259 -1.9701 -1.5521  2.9631
12191SOL     OW37673   8.278   5.940   1.120  0.0520  0.0106  0.4894
12191SOL    HW137674   8.305   5.917   1.031 -1.5140  1.0677 -0.3019
12191SOL    HW237675   8.300   6.033   1.129 -0.3447  0.0634  0.9841
12192SOL     OW37676   2.178   6.408   4.642 -0.6725 -0.1321  0.0237
12192SOL    HW137677   2.140   6.361   4.567  1.4334 -0.9262 -0.6417
12192SOL    HW237678   2.152   6.356   4.718  1.9048 -2.8439 -0.7184
12193SOL     OW37679   0.473   5.499   0.819 -0.7920  0.4294 -0.1081
12193SOL    HW137680   0.386   5.493   0.782 -0.7901  2.5666 -0.5873
12193SOL    HW237681   0.478   5.588   0.854  1.1446  0.3067  0.0309
12194SOL     OW37682   5.016   3.542   6.464  0.6260  0.1490 -0.2533
12194SOL    HW137683   4.985   3.613   6.520  1.4196  0.0819  0.2841
12194SOL    HW237684   5.111   3.546   6.470  0.7314  0.1179 -1.5802
12195SOL     OW37685   3.798   6.147   8.440 -0.1496  0.2694 -0.7899
12195SOL    HW137686   3.770   6.231   8.404 -0.4664 -0.5963 -2.6576
12195SOL    HW237687   3.893   6.153   8.442 -0.2035  1.1136  0.2658
12196SOL     OW37688   8.444   1.329   5.363  0.4165  0.0160  0.4815
12196SOL    HW137689   8.354   1.355   5.380 -0.2926 -2.8426  1.4886
12196SOL    HW237690   8.437   1.254   5.303  2.2999  1.2428 -1.4469
12197SOL     OW37691   4.952   8.852   8.182 -0.4611 -0.6020  0.0397
12197SOL    HW137692   4.980   8.885   8.097  0.3713  0.0557  0.5509
12197SOL    HW237693   4.924   8.929   8.230  1.8131 -0.5134  1.3704
12198SOL     OW37694   2.628   9.098   5.337  0.1094 -0.4828  0.2485
12198SOL    HW137695   2.544   9.103   5.292  0.2690  1.3434  0.0791
12198SOL    HW237696   2.614   9.142   5.421  0.6080 -1.2071  0.7313
12199SOL     OW37697   3.567   8.353   4.727  0.7527  0.4604 -0.3292
12199SOL    HW137698   3.575   8.337   4.821  1.9992  2.4114 -0.0509
12199SOL    HW237699   3.622   8.287   4.687  0.5585 -0.1141  0.3236
12200SOL     OW37700   6.319   1.140   1.537  0.5980 -0.3726 -0.2968
12200SOL    HW137701   6.263   1.169   1.465  0.6665 -1.8930 -0.9997
12200SOL    HW237702   6.395   1.198   1.532  0.3141 -0.0464 -1.0450
12201SOL     OW37703   4.034   2.096   7.613  0.2976  0.4781  0.6203
12201SOL    HW137704   4.083   2.015   7.598  0.7380  0.7984  0.2768
12201SOL    HW237705   4.004   2.123   7.526  0.4550  0.8636  0.6804
12202SOL     OW37706   3.104   5.277   2.175 -0.1717  0.4634 -0.3300
12202SOL    HW137707   3.198   5.291   2.163  0.9632 -3.0371  2.5860
12202SOL    HW237708   3.088   5.188   2.146 -2.0936  0.1946  1.2814
12203SOL     OW37709   6.228   3.601   2.365 -0.3095  0.5553 -0.2971
12203SOL    HW137710   6.255   3.572   2.453 -0.5989  1.2313  0.0224
12203SOL    HW237711   6.154   3.660   2.381 -1.5016 -0.6681 -1.1076
12204SOL     OW37712   4.892   5.912   8.770  0.4202 -0.6407  0.0489
12204SOL    HW137713   4.984   5.891   8.751 -0.1365 -1.9152 -1.5478
12204SOL    HW237714   4.853   5.827   8.793 -0.5554 -0.2754 -0.2256
12205SOL     OW37715   2.117   7.309   3.776 -0.5119  0.2288 -0.3464
12205SOL    HW137716   2.155   7.344   3.856 -0.3159  1.3536 -0.8988
12205SOL    HW237717   2.179   7.334   3.707 -0.1126 -1.6755 -0.7301
12206SOL     OW37718   6.562   1.131   8.289 -0.1373 -0.2217  0.3420
12206SOL    HW137719   6.581   1.167   8.202 -0.8399 -0.6168  0.0147
12206SOL    HW237720   6.477   1.167   8.312  0.5562  0.8236  1.4062
12207SOL     OW37721   8.152   5.709   5.537 -0.2129  0.4302 -0.2933
12207SOL    HW137722   8.192   5.783   5.492 -0.5642 -0.5102 -2.2933
12207SOL    HW237723   8.174   5.633   5.481 -1.8102 -0.6090  0.4290
12208SOL     OW37724   4.372   4.443   6.388  0.3606 -0.0865 -0.0991
12208SOL    HW137725   4.341   4.528   6.419 -0.6272 -0.6252  0.4716
12208SOL    HW237726   4.441   4.463   6.325 -0.9941  1.2103 -1.2585
12209SOL     OW37727   6.657   3.374   4.721 -0.1241  0.3493 -0.2578
12209SOL    HW137728   6.624   3.410   4.803  0.7630  1.8873 -0.5300
12209SOL    HW237729   6.634   3.439   4.654  0.3798 -0.1976 -0.9899
12210SOL     OW37730   2.802   4.182   8.091  0.2853 -0.1823 -0.1893
12210SOL    HW137731   2.782   4.271   8.063  0.5658 -0.1216 -0.2090
12210SOL    HW237732   2.871   4.193   8.157  4.3253 -0.5592 -3.8457
12211SOL     OW37733   8.202   1.887   7.146 -0.2965  0.1828  0.5922
12211SOL    HW137734   8.202   1.937   7.064 -1.4542  2.2604  1.7754
12211SOL    HW237735   8.218   1.797   7.119  1.4597  1.0838 -1.7071
12212SOL     OW37736   4.901   2.755   7.166  0.3628  0.0707 -0.1169
12212SOL    HW137737   4.983   2.760   7.215 -0.2695  0.9045  0.9048
12212SOL    HW237738   4.903   2.669   7.124  0.7959 -0.8018  1.6280
12213SOL     OW37739   2.709   1.165   9.087  0.2492 -0.0057  0.2085
12213SOL    HW137740   2.743   1.254   9.085 -0.6099  0.4384  2.6392
12213SOL    HW237741   2.635   1.167   9.026  1.8358  0.1518 -1.8189
12214SOL     OW37742   2.809   5.869   1.925 -0.3385  0.0603 -0.0748
12214SOL    HW137743   2.845   5.923   1.995  0.4724 -1.0821  0.4271
12214SOL    HW237744   2.715   5.883   1.929 -0.1753  1.0811  0.3308
12215SOL     OW37745   6.436   4.363   9.063 -0.0521 -0.3312 -0.1315
12215SOL    HW137746   6.468   4.357   8.973 -0.5079 -1.0912 -0.2494
12215SOL    HW237747   6.498   4.312   9.114  0.0172 -0.1768 -0.0578
12216SOL     OW37748   2.659   8.883   8.568  0.8149 -0.0575 -0.1423
12216SOL    HW137749   2.714   8.950   8.609  1.1678 -0.7814  0.6051
12216SOL    HW237750   2.573   8.896   8.608  0.7600  0.2579 -0.3605
12217SOL     OW37751   5.601   0.447   2.218 -0.4084 -0.6510 -0.5170
12217SOL    HW137752   5.575   0.537   2.200  0.5997 -0.1651  0.3452
12217SOL    HW237753   5.677   0.433   2.161  1.4213  0.1589  1.5574
12218SOL     OW37754   3.136   6.010   5.091  0.2023 -0.4564  0.5810
12218SOL    HW137755   3.189   5.931   5.089 -0.3463 -0.8107 -0.3562
12218SOL    HW237756   3.200   6.081   5.097  0.9137 -0.8077 -1.6987
12219SOL     OW37757   5.270   8.611   5.249 -0.1030  0.1512  0.2766
12219SOL    HW137758   5.359   8.628   5.279 -0.1759 -1.4282  1.5579
12219SOL    HW237759   5.269   8.639   5.158  1.6144  0.4834  0.3325
12220SOL     OW37760   6.430   6.243   0.571 -0.2443 -0.1606 -0.7700
12220SOL    HW137761   6.363   6.255   0.503  0.3646 -0.9688 -1.5323
12220SOL    HW237762   6.397   6.170   0.624  0.4510 -1.2070 -1.7211
12221SOL     OW37763   8.025   3.236   0.494  0.6400 -0.3402  0.0746
12221SOL    HW137764   8.062   3.324   0.489  1.4228 -0.7256 -1.4813
12221SOL    HW237765   7.934   3.247   0.467  0.4956  0.1023  0.7099
12222SOL     OW37766   0.893   2.855   7.731 -0.0272 -0.0030 -0.4636
12222SOL    HW137767   0.812   2.809   7.753 -0.4205  1.4752  1.5809
12222SOL    HW237768   0.863   2.941   7.699  0.7234 -0.2198 -1.8266
12223SOL     OW37769   8.438   0.893   2.637  0.6367  0.0137 -0.1396
12223SOL    HW137770   8.392   0.898   2.721 -0.5077  1.4424 -0.8081
12223SOL    HW237771   8.458   0.984   2.615  0.0831 -0.2483 -1.8446
12224SOL     OW37772   3.937   3.391   0.529  0.0575  0.2710  0.0065
12224SOL    HW137773   3.974   3.442   0.601 -0.2819 -0.3416  0.6354
12224SOL    HW237774   3.847   3.372   0.558  0.1020 -0.4716 -0.3144
12225SOL     OW37775   1.181   1.241   2.827 -0.7919  0.0966 -0.0879
12225SOL    HW137776   1.216   1.326   2.853  0.2782  0.0067 -1.1697
12225SOL    HW237777   1.240   1.177   2.868 -0.6363 -0.0842 -0.5804
12226SOL     OW37778   8.369   8.151   5.916 -0.4163  0.1150 -0.1185
12226SOL    HW137779   8.292   8.204   5.898 -0.2137  0.2997 -0.4608
12226SOL    HW237780   8.423   8.207   5.973  0.2511  0.6978 -1.2740
12227SOL     OW37781   8.010   4.265   6.156 -0.0469 -0.1474  0.2139
12227SOL    HW137782   8.103   4.255   6.139  0.5800  4.5943 -0.5381
12227SOL    HW237783   8.006   4.320   6.234 -2.1122  1.1981 -0.7507
12228SOL     OW37784   8.649   1.320   2.037  0.4314 -0.1872  0.0334
12228SOL    HW137785   8.572   1.295   1.987 -0.0072  0.1772  0.5130
12228SOL    HW237786   8.682   1.238   2.074  0.9434 -0.5085 -1.0876
12229SOL     OW37787   4.114   2.486   3.309 -0.4960 -0.0900  0.4315
12229SOL    HW137788   4.189   2.480   3.251  1.8623  1.2546  3.0819
12229SOL    HW237789   4.113   2.402   3.356 -2.0694 -0.9662 -1.0650
12230SOL     OW37790   0.911   6.311   6.080 -0.2402 -0.1687 -0.1393
12230SOL    HW137791   0.954   6.241   6.032 -1.3286 -0.2464 -1.0476
12230SOL    HW237792   0.950   6.392   6.046 -0.1039 -0.2750 -0.2330
12231SOL     OW37793   7.309   7.820   3.102 -0.0149  0.2429 -0.1487
12231SOL    HW137794   7.279   7.855   3.017  0.4584  0.7936 -0.0977
12231SOL    HW237795   7.353   7.894   3.144  1.4161 -0.5281 -0.2218
12232SOL     OW37796   5.098   2.227   8.935  0.7599  0.5498  0.0446
12232SOL    HW137797   5.058   2.313   8.950  0.4134  0.1577  1.5313
12232SOL    HW237798   5.117   2.225   8.841 -0.5044  1.6940 -0.2602
12233SOL     OW37799   1.578   7.122   2.756  0.1522 -0.4684  0.2087
12233SOL    HW137800   1.628   7.175   2.819  0.5199 -0.8167  0.2098
12233SOL    HW237801   1.562   7.040   2.802  1.3518 -1.1404 -0.5391
12234SOL     OW37802   6.271   8.677   0.132  0.1617  0.0407 -0.1166
12234SOL    HW137803   6.208   8.606   0.141  0.8500 -0.9919 -2.6515
12234SOL    HW237804   6.218   8.757   0.134 -0.6684 -0.4953  2.2650
12235SOL     OW37805   5.386   5.141   8.671  0.1844  0.2331  0.5096
12235SOL    HW137806   5.366   5.067   8.727  1.2845 -0.0130  0.5994
12235SOL    HW237807   5.444   5.196   8.724  0.8614  0.2284 -0.2129
12236SOL     OW37808   2.757   5.941   3.390  1.1623 -0.3151 -0.2380
12236SOL    HW137809   2.724   5.877   3.327 -0.1259 -0.1821  0.2638
12236SOL    HW237810   2.766   5.892   3.472 -0.0586  0.1661  0.2098
12237SOL     OW37811   8.305   2.483   5.113 -0.1912  0.1719 -0.1458
12237SOL    HW137812   8.376   2.420   5.115  0.0560  0.4708  2.1928
12237SOL    HW237813   8.290   2.507   5.204 -2.9638  0.4960 -0.5798
12238SOL     OW37814   4.424   7.935   2.778 -0.3215 -0.3382  0.6315
12238SOL    HW137815   4.519   7.920   2.784  0.0281  0.7829 -1.1235
12238SOL    HW237816   4.393   7.863   2.723 -0.4492 -0.5857  1.0296
12239SOL     OW37817   8.090   1.288   5.300  0.6660 -0.4592  0.1186
12239SOL    HW137818   8.122   1.197   5.302 -1.1053 -1.1263  0.2117
12239SOL    HW237819   8.008   1.285   5.349 -1.1496  0.4670 -2.6449
12240SOL     OW37820   0.894   6.069   8.589 -0.5058 -0.0056 -0.3839
12240SOL    HW137821   0.963   6.063   8.655  1.4798  2.5349 -2.0500
12240SOL    HW237822   0.860   5.979   8.581  1.7569 -1.1095  1.3523
12241SOL     OW37823   5.840   7.079   7.806 -0.1411 -0.1947 -0.3373
12241SOL    HW137824   5.757   7.105   7.846 -1.1181 -0.2650 -2.1799
12241SOL    HW237825   5.898   7.153   7.820 -1.0259  0.5192 -0.3666
12242SOL     OW37826   1.422   5.095   8.338  0.0743 -0.5186 -0.6574
12242SOL    HW137827   1.350   5.032   8.348  0.6792 -1.5502 -2.3416
12242SOL    HW237828   1.403   5.140   8.255 -0.9658  2.4700  1.0411
12243SOL     OW37829   5.002   2.270   1.337  0.2235  0.4366  0.6124
12243SOL    HW137830   5.094   2.244   1.334  0.5065  1.4072  0.5087
12243SOL    HW237831   4.978   2.264   1.430 -0.7693 -3.5608  0.2778
12244SOL     OW37832   4.345   4.328   3.383 -0.3821  0.3358  0.0016
12244SOL    HW137833   4.264   4.276   3.379  1.2891 -2.5919  1.3626
12244SOL    HW237834   4.380   4.324   3.295 -1.8387  1.9998 -0.7202
12245SOL     OW37835   5.569   4.150   7.862  0.1142 -0.3110  0.1235
12245SOL    HW137836   5.544   4.236   7.828 -0.1193 -0.0588  0.8990
12245SOL    HW237837   5.554   4.090   7.790  1.0641  0.4112 -0.7049
12246SOL     OW37838   6.864   3.695   3.181 -0.1666  0.4933  0.1226
12246SOL    HW137839   6.909   3.625   3.230 -0.8199 -0.1816 -0.2218
12246SOL    HW237840   6.771   3.683   3.202 -0.3800  0.6722 -0.6724
12247SOL     OW37841   8.136   1.937   1.272  0.2600 -0.0923 -0.2579
12247SOL    HW137842   8.118   1.941   1.366 -0.2730 -0.9354 -0.3040
12247SOL    HW237843   8.217   1.886   1.264  0.6445  0.5146 -0.2260
12248SOL     OW37844   2.134   1.477   2.660  0.5048 -0.3188  0.8483
12248SOL    HW137845   2.151   1.479   2.566  0.1875 -1.0950  0.7685
12248SOL    HW237846   2.220   1.492   2.700  0.5210  0.7618  0.4462
12249SOL     OW37847   6.843   2.129   7.144 -0.0502 -0.0125  0.1313
12249SOL    HW137848   6.871   2.171   7.225  0.2395 -0.7448  0.4178
12249SOL    HW237849   6.921   2.127   7.090 -0.1025 -0.0436  0.0568
12250SOL     OW37850   5.144   5.417   6.731 -0.1662  0.0790  0.6030
12250SOL    HW137851   5.142   5.462   6.646  0.1269 -0.2755  0.4052
12250SOL    HW237852   5.057   5.430   6.767 -0.2346  0.3965  0.3341
12251SOL     OW37853   7.885   4.230   0.683  0.3890  0.1493  0.4584
12251SOL    HW137854   7.912   4.313   0.721 -0.9636  0.9956 -0.3643
12251SOL    HW237855   7.967   4.183   0.667  1.2401  1.7274  0.0182
12252SOL     OW37856   8.269   4.391   6.091 -0.3778  0.1725 -0.1329
12252SOL    HW137857   8.258   4.341   6.010 -0.5547 -0.7653  0.4635
12252SOL    HW237858   8.310   4.473   6.062 -0.0429 -0.3216 -1.1175
12253SOL     OW37859   4.207   2.416   3.926  0.4773 -0.4585 -0.0457
12253SOL    HW137860   4.183   2.336   3.973  1.1244 -0.4959  0.2250
12253SOL    HW237861   4.300   2.429   3.945  0.7784 -0.5156 -1.3749
12254SOL     OW37862   2.274   1.861   7.562 -0.5175  0.3769  0.0814
12254SOL    HW137863   2.301   1.769   7.563  0.7532  0.6815 -1.6437
12254SOL    HW237864   2.183   1.860   7.592 -1.0385 -1.6365 -1.3882
12255SOL     OW37865   7.393   5.344   0.762  0.0487 -0.7805 -0.1610
12255SOL    HW137866   7.408   5.272   0.701  0.3650 -0.8383 -0.0179
12255SOL    HW237867   7.456   5.412   0.734  1.6203 -1.5480  1.3011
12256SOL     OW37868   4.753   2.675   2.884 -0.6856  0.6846  0.5273
12256SOL    HW137869   4.814   2.684   2.811  1.4061  0.5305  2.1364
12256SOL    HW237870   4.707   2.593   2.868 -1.1569  1.2558 -1.1925
12257SOL     OW37871   2.020   8.542   0.097 -0.3901  0.8765 -0.3366
12257SOL    HW137872   1.950   8.560   0.159 -2.1228  0.6775 -2.1544
12257SOL    HW237873   2.011   8.449   0.076  1.5901  0.3748  0.7065
12258SOL     OW37874   0.190   2.378   1.130 -0.1039 -0.0070 -0.2197
12258SOL    HW137875   0.214   2.394   1.221  0.1451 -2.2605  0.1815
12258SOL    HW237876   0.116   2.318   1.135 -0.4696  0.3013 -1.5085
12259SOL     OW37877   5.795   3.278   0.595 -0.3797 -0.3600  0.4805
12259SOL    HW137878   5.727   3.256   0.659 -0.4058 -1.1427  0.1929
12259SOL    HW237879   5.864   3.215   0.610 -0.6539 -0.9593 -0.6649
12260SOL     OW37880   2.148   2.321   2.397  0.2535  0.1400  0.1576
12260SOL    HW137881   2.102   2.245   2.363 -0.6180  0.9220 -0.4726
12260SOL    HW237882   2.082   2.391   2.398  1.1710  1.0356  0.1730
12261SOL     OW37883   9.044   6.654   8.938 -0.0116 -0.5731 -0.1127
12261SOL    HW137884   8.965   6.704   8.917 -0.6841 -1.0562  1.1675
12261SOL    HW237885   9.116   6.713   8.916 -0.6989 -0.1595 -1.3924
12262SOL     OW37886   4.739   7.551   8.060  0.3109  0.1361 -0.2085
12262SOL    HW137887   4.802   7.609   8.016  0.0710  0.0869 -0.6185
12262SOL    HW237888   4.697   7.606   8.126 -1.0022  0.8526 -1.6019
12263SOL     OW37889   0.832   7.538   8.407  0.0510  0.1692  0.1159
12263SOL    HW137890   0.859   7.482   8.479 -0.2494 -0.6644 -0.4057
12263SOL    HW237891   0.913   7.555   8.359  0.3040  0.9689  0.7949
12264SOL     OW37892   5.593   5.786   5.222 -0.4340  0.2334 -0.0345
12264SOL    HW137893   5.591   5.693   5.244 -0.8662 -0.2682 -1.9781
12264SOL    HW237894   5.526   5.825   5.278  0.2508 -0.4691  1.3286
12265SOL     OW37895   0.473   1.519   3.566 -0.2172 -0.0438 -0.5341
12265SOL    HW137896   0.419   1.448   3.601 -0.3138 -0.1053 -0.8005
12265SOL    HW237897   0.465   1.590   3.629  0.8631 -0.6899  0.3838
12266SOL     OW37898   8.819   6.533   2.883  0.3623  0.1240  0.1245
12266SOL    HW137899   8.724   6.547   2.888  0.2753 -0.0281 -0.8892
12266SOL    HW237900   8.834   6.450   2.926 -0.0128  0.0024  0.0242
12267SOL     OW37901   1.495   5.401   8.730 -0.1138 -0.2776 -0.6017
12267SOL    HW137902   1.541   5.346   8.667 -0.3029 -1.1414  0.0067
12267SOL    HW237903   1.414   5.355   8.749  0.1861 -0.3205  0.6995
12268SOL     OW37904   4.452   1.229   3.898  0.5617 -0.4378  0.1706
12268SOL    HW137905   4.516   1.225   3.969 -0.1147 -0.4456  0.7949
12268SOL    HW237906   4.489   1.173   3.829  0.4930 -1.7034  1.1253
12269SOL     OW37907   3.465   3.042   8.026 -0.5737 -0.2022  0.0687
12269SOL    HW137908   3.444   2.952   8.002  1.0376 -0.7180  0.4251
12269SOL    HW237909   3.560   3.041   8.041 -0.4526  1.6608 -0.3471
12270SOL     OW37910   3.652   4.925   6.712 -0.4921  0.0165 -0.5496
12270SOL    HW137911   3.611   4.889   6.791  0.2701  2.0002  0.8235
12270SOL    HW237912   3.585   4.982   6.674 -0.5993 -0.3778 -0.9753
12271SOL     OW37913   7.027   4.688   5.979 -0.1504 -0.3469  0.5633
12271SOL    HW137914   7.054   4.599   5.954 -1.4593 -0.4551 -0.5868
12271SOL    HW237915   7.022   4.735   5.896 -1.5567  0.1933  0.9410
12272SOL     OW37916   4.798   1.008   7.255 -0.2026 -0.1681  0.1079
12272SOL    HW137917   4.805   1.074   7.186  1.4205 -1.0354 -0.6185
12272SOL    HW237918   4.874   0.951   7.241 -1.8207 -2.4967  0.3869
12273SOL     OW37919   3.664   3.064   1.700 -0.2837 -0.3567  0.4428
12273SOL    HW137920   3.737   3.015   1.737 -0.2899 -0.8562 -0.1879
12273SOL    HW237921   3.603   2.997   1.669 -0.2834  0.0388 -0.4513
12274SOL     OW37922   5.039   8.656   0.281 -0.1095 -0.2192 -0.2278
12274SOL    HW137923   4.990   8.639   0.362 -1.3501  1.5442 -0.5490
12274SOL    HW237924   5.010   8.742   0.253  0.8121 -0.4957 -2.2128
12275SOL     OW37925   4.948   4.765   8.496  0.2119 -0.0236  0.1367
12275SOL    HW137926   5.034   4.750   8.456 -0.0585 -2.2543  0.2876
12275SOL    HW237927   4.923   4.680   8.533 -1.3413  0.9823  1.5462
12276SOL     OW37928   0.603   2.688   0.757 -0.5425  0.0544 -0.0717
12276SOL    HW137929   0.642   2.665   0.672  0.4967  0.5306  0.2729
12276SOL    HW237930   0.624   2.614   0.814  1.7696  1.2444  0.7073
12277SOL     OW37931   5.051   0.210   1.497  0.1172  0.6002 -0.0851
12277SOL    HW137932   5.042   0.123   1.459  1.8631  0.0526  0.6583
12277SOL    HW237933   5.102   0.259   1.433  0.8341  0.4582  0.3643
12278SOL     OW37934   5.784   7.689   6.791  0.6238 -0.2692  0.9108
12278SOL    HW137935   5.769   7.655   6.880  0.7063 -0.6599  0.7774
12278SOL    HW237936   5.853   7.633   6.756 -0.4592 -1.1142  0.0538
12279SOL     OW37937   0.870   6.400   8.125  0.2338 -0.4819  0.0438
12279SOL    HW137938   0.824   6.358   8.198 -1.5225 -1.2564 -1.4257
12279SOL    HW237939   0.846   6.493   8.133  2.9950  0.1810  2.4761
12280SOL     OW37940   8.065   0.364   9.085 -0.3448 -1.1174 -0.3060
12280SOL    HW137941   7.988   0.401   9.042 -0.9139 -0.7175  0.9957
12280SOL    HW237942   8.121   0.336   9.014  0.4069  2.7379 -1.4857
12281SOL     OW37943   3.048   3.950   7.706  0.1129  0.2018 -0.3787
12281SOL    HW137944   2.979   3.979   7.646 -0.5351  0.5144  0.4962
12281SOL    HW237945   3.086   3.873   7.663 -1.4921 -0.6296 -0.4068
12282SOL     OW37946   2.638   9.116   0.895 -0.0628 -0.1810  0.3175
12282SOL    HW137947   2.596   9.051   0.950  0.7715 -0.6874  0.3675
12282SOL    HW237948   2.568   9.149   0.839 -0.0598 -3.0057 -1.5726
12283SOL     OW37949   0.168   1.429   3.283 -0.2877  1.4757 -0.3940
12283SOL    HW137950   0.138   1.432   3.374  0.4315  0.5445 -0.1179
12283SOL    HW237951   0.263   1.438   3.288 -0.0733 -0.1544 -0.9227
12284SOL     OW37952   0.417   2.333   1.758  0.4671  0.3676  0.0487
12284SOL    HW137953   0.388   2.254   1.712  0.3104  0.8065 -0.6102
12284SOL    HW237954   0.378   2.326   1.845  0.4110 -0.2568 -0.0220
12285SOL     OW37955   4.123   8.163   1.495 -0.6750  0.5995 -0.3722
12285SOL    HW137956   4.184   8.100   1.533 -0.2881  1.4305  0.4498
12285SOL    HW237957   4.039   8.142   1.535 -0.7698 -0.0367 -0.8895
12286SOL     OW37958   1.590   7.268   6.015  0.9100 -0.0849  0.5736
12286SOL    HW137959   1.537   7.190   6.030  0.9020  0.0059  1.0206
12286SOL    HW237960   1.680   7.240   6.036  1.0160 -0.1831  0.0095
12287SOL     OW37961   5.578   8.435   0.802  0.0372  0.0530  0.4686
12287SOL    HW137962   5.538   8.350   0.821  0.6566 -0.2487  0.4475
12287SOL    HW237963   5.553   8.491   0.876  0.8869 -0.5873  1.2711
12288SOL     OW37964   0.325   0.370   2.833 -0.3706  0.0286  0.4730
12288SOL    HW137965   0.370   0.407   2.909  1.6006  2.4422 -1.7006
12288SOL    HW237966   0.263   0.438   2.806 -1.4148 -1.0075  0.1483
12289SOL     OW37967   8.915   0.890   0.461  0.0011 -0.1117  0.1562
12289SOL    HW137968   8.892   0.857   0.374  0.6337  1.8023 -0.7893
12289SOL    HW237969   8.832   0.915   0.501 -0.1106  1.3360 -0.9235
12290SOL     OW37970   0.409   2.108   5.646 -0.7092 -0.4762 -0.3328
12290SOL    HW137971   0.342   2.059   5.598 -0.4656  0.2323 -1.4317
12290SOL    HW237972   0.488   2.099   5.593 -0.6553  1.0736 -0.5452
12291SOL     OW37973   6.004   6.575   1.412  0.3500  0.6763  0.0099
12291SOL    HW137974   5.931   6.565   1.351 -0.0560 -0.1946  0.6206
12291SOL    HW237975   6.029   6.667   1.404 -1.5052  1.2802  0.5476
12292SOL     OW37976   2.041   0.518   0.430 -0.8970  0.0513  0.0868
12292SOL    HW137977   2.068   0.456   0.362 -0.1625 -1.9948  2.1101
12292SOL    HW237978   1.951   0.493   0.450 -1.0364  0.5005  0.0199
12293SOL     OW37979   2.708   5.127   0.947 -0.2947  0.1611 -0.5474
12293SOL    HW137980   2.635   5.175   0.986  0.1677  0.3109  0.1416
12293SOL    HW237981   2.766   5.196   0.912  1.0323  0.2282  1.5976
12294SOL     OW37982   4.996   0.874   8.501  0.7196 -0.2828  0.2242
12294SOL    HW137983   5.009   0.885   8.407  0.2068 -2.3271 -0.1416
12294SOL    HW237984   4.921   0.814   8.508  0.1564  0.5504  1.9600
12295SOL     OW37985   6.066   2.566   7.358 -0.4310  0.1946 -0.0632
12295SOL    HW137986   6.122   2.578   7.282 -1.2367  0.6058 -0.6086
12295SOL    HW237987   6.126   2.556   7.432  0.3668 -0.5606 -0.7928
12296SOL     OW37988   6.219   2.472   4.341  0.2061 -0.2284  0.0118
12296SOL    HW137989   6.226   2.459   4.247 -1.7356 -0.5702 -0.1343
12296SOL    HW237990   6.263   2.396   4.379 -0.1905 -0.8056 -0.6595
12297SOL     OW37991   0.213   0.668   4.679 -0.7564 -0.1788 -0.0074
12297SOL    HW137992   0.204   0.600   4.612 -0.7848 -1.0835  0.8921
12297SOL    HW237993   0.140   0.652   4.739  1.4567 -1.9589  2.4325
12298SOL     OW37994   6.387   7.282   8.855  0.7689  0.6694 -0.0794
12298SOL    HW137995   6.350   7.288   8.943  0.8386 -0.9366  0.0926
12298SOL    HW237996   6.372   7.368   8.817  0.7058  1.3925  1.4866
12299SOL     OW37997   3.336   0.092   5.313  0.2877 -0.6043  0.3043
12299SOL    HW137998   3.267   0.077   5.249  0.0860  0.5630  0.2379
12299SOL    HW237999   3.307   0.168   5.363  0.7431 -1.1109  1.3660
12300SOL     OW38000   2.500   2.483   0.655 -0.1353 -0.2712 -0.9549
12300SOL    HW138001   2.415   2.495   0.696  0.2403 -1.2217  0.1482
12300SOL    HW238002   2.527   2.395   0.680  1.9597  0.6395  0.2487
12301SOL     OW38003   1.076   1.686   0.432  0.1415 -0.0975  0.3396
12301SOL    HW138004   1.034   1.707   0.349  0.9321 -1.3069 -0.4059
12301SOL    HW238005   1.006   1.692   0.497 -0.5902  0.4168 -0.4814
12302SOL     OW38006   7.105   8.288   1.661  0.1693  0.0811 -0.3326
12302SOL    HW138007   7.092   8.372   1.616  0.1049 -0.5361 -1.4954
12302SOL    HW238008   7.017   8.252   1.669  0.2356 -0.0409 -0.1653
12303SOL     OW38009   5.384   8.841   4.077  0.5324  0.4228 -0.6045
12303SOL    HW138010   5.310   8.882   4.031  0.8898  1.2695 -0.4362
12303SOL    HW238011   5.453   8.907   4.075  0.7652  0.2375  0.6015
12304SOL     OW38012   8.971   1.661   6.118  0.0704 -0.4300 -0.1531
12304SOL    HW138013   8.998   1.581   6.074 -2.3324 -0.2508 -2.1184
12304SOL    HW238014   8.905   1.633   6.181  1.7691 -0.3654  1.7697
12305SOL     OW38015   8.465   8.105   5.130  0.0167  0.3053  0.0527
12305SOL    HW138016   8.440   8.198   5.128 -0.5583  0.1465 -0.8066
12305SOL    HW238017   8.527   8.096   5.058 -0.8058 -0.2053 -0.6071
12306SOL     OW38018   4.205   5.919   1.126 -0.4128 -0.6670 -0.0461
12306SOL    HW138019   4.195   5.988   1.060  0.5567  1.1203  1.5496
12306SOL    HW238020   4.297   5.893   1.121 -0.5522 -1.1670 -0.0148
12307SOL     OW38021   4.032   7.593   2.038  0.1912  0.0569 -0.0185
12307SOL    HW138022   4.099   7.594   2.107 -0.0331  0.6791  0.2031
12307SOL    HW238023   4.068   7.648   1.969  0.2763 -0.3051 -0.2610
12308SOL     OW38024   7.852   0.769   4.981 -0.2078  0.3776 -0.2931
12308SOL    HW138025   7.760   0.757   5.005  0.1177 -1.7328  0.1025
12308SOL    HW238026   7.850   0.830   4.907 -1.9551  0.0813 -0.5253
12309SOL     OW38027   7.184   5.453   1.846  0.6921 -0.5451 -0.5899
12309SOL    HW138028   7.171   5.447   1.941  1.2330 -0.2136 -0.4931
12309SOL    HW238029   7.279   5.458   1.834  0.6289 -0.5904 -1.1487
12310SOL     OW38030   1.972   5.689   7.958 -0.1546 -0.0154 -0.2814
12310SOL    HW138031   2.065   5.678   7.941 -0.3068 -0.8650 -0.5742
12310SOL    HW238032   1.937   5.600   7.961 -1.5033  0.3031 -3.2609
12311SOL     OW38033   6.522   5.738   0.381  0.6715  0.4277 -0.1627
12311SOL    HW138034   6.541   5.717   0.290  1.9140  0.4000  0.0901
12311SOL    HW238035   6.606   5.763   0.419  0.4191 -0.7833  1.3121
12312SOL     OW38036   0.170   2.990   0.300 -0.2186  0.2911  0.4895
12312SOL    HW138037   0.222   2.911   0.285 -0.7791  0.0510 -0.2445
12312SOL    HW238038   0.105   2.964   0.366 -0.1312  0.2637  0.5649
12313SOL     OW38039   3.363   5.834   8.803  0.6345  0.2479  0.1204
12313SOL    HW138040   3.391   5.918   8.767 -0.8269  0.1986 -1.2521
12313SOL    HW238041   3.278   5.854   8.844  0.5692 -0.4481  0.3252
12314SOL     OW38042   5.876   4.531   8.789 -0.7274  0.8031 -0.0481
12314SOL    HW138043   5.799   4.585   8.771 -1.2973 -0.9796 -4.0700
12314SOL    HW238044   5.951   4.586   8.765 -1.0355  1.1552 -0.2098
12315SOL     OW38045   5.440   4.172   7.448  0.1759  0.1772  0.1501
12315SOL    HW138046   5.403   4.224   7.376  0.7991 -1.2318 -1.2396
12315SOL    HW238047   5.416   4.221   7.527 -2.1053  0.8298 -0.8602
12316SOL     OW38048   2.706   0.484   0.824 -0.4045 -0.1716 -0.2120
12316SOL    HW138049   2.787   0.445   0.791 -1.3696 -3.2510  0.7790
12316SOL    HW238050   2.641   0.462   0.757 -1.1960 -1.3429  0.9074
12317SOL     OW38051   5.599   1.266   4.638 -0.0939 -0.8570 -0.4521
12317SOL    HW138052   5.676   1.311   4.672  0.9989 -1.8753 -1.5138
12317SOL    HW238053   5.574   1.316   4.560 -0.2270 -0.8057 -0.3777
12318SOL     OW38054   5.487   0.463   5.389 -0.0935 -0.1332 -0.0860
12318SOL    HW138055   5.396   0.478   5.365  0.4660  2.2985 -0.9668
12318SOL    HW238056   5.488   0.374   5.425 -2.4004 -1.0680 -2.0468
12319SOL     OW38057   7.712   6.311   3.070 -0.2175 -0.3600 -0.4213
12319SOL    HW138058   7.801   6.326   3.037 -0.3083 -0.9342 -0.9526
12319SOL    HW238059   7.692   6.220   3.044 -0.7448 -0.4194  0.1859
12320SOL     OW38060   0.189   2.796   5.024 -0.2686  0.1698  0.1768
12320SOL    HW138061   0.178   2.819   4.931 -0.2128 -1.4595 -0.2789
12320SOL    HW238062   0.173   2.877   5.071 -1.5087  0.7873 -1.2042
12321SOL     OW38063   2.287   1.413   2.364 -0.4004  0.0604  0.4378
12321SOL    HW138064   2.311   1.322   2.382  1.1874  0.2426 -0.5693
12321SOL    HW238065   2.370   1.461   2.368 -0.7229  0.9625 -1.9508
12322SOL     OW38066   6.434   8.983   2.125 -0.8122  0.0605 -0.1084
12322SOL    HW138067   6.492   8.909   2.109 -1.7706 -0.5848 -0.6948
12322SOL    HW238068   6.353   8.960   2.080 -0.9840  1.6745 -0.7000
12323SOL     OW38069   7.164   7.594   2.808  0.1618 -0.2195 -0.1389
12323SOL    HW138070   7.251   7.554   2.807 -1.0361 -3.1839  1.7927
12323SOL    HW238071   7.164   7.649   2.886  0.6013  0.7930 -0.8097
12324SOL     OW38072   4.066   8.888   9.097  0.3879 -0.0506 -0.3932
12324SOL    HW138073   4.145   8.837   9.078  0.6663  0.4794 -0.6666
12324SOL    HW238074   4.083   8.928   9.182  0.5023  0.2350 -0.5502
12325SOL     OW38075   0.170   3.614   8.076 -0.2073 -0.3491 -0.0808
12325SOL    HW138076   0.243   3.662   8.114 -1.3416  2.0778 -0.7467
12325SOL    HW238077   0.194   3.601   7.984  0.2207 -1.4150  0.1588
12326SOL     OW38078   4.577   8.567   2.611  0.1232  0.3118  0.3582
12326SOL    HW138079   4.664   8.574   2.572  0.6478 -0.8429  1.2652
12326SOL    HW238080   4.519   8.549   2.538  0.9286 -0.7209 -0.0500
12327SOL     OW38081   5.084   7.422   1.520 -0.1797  0.1417  0.0712
12327SOL    HW138082   5.042   7.488   1.465 -0.6424  0.2110  0.5041
12327SOL    HW238083   5.063   7.339   1.477  2.7913  0.3320 -2.1548
12328SOL     OW38084   7.075   7.864   3.608  0.1994 -0.1959 -0.9969
12328SOL    HW138085   7.134   7.815   3.550 -0.2505  0.4562 -2.0333
12328SOL    HW238086   7.011   7.903   3.549 -0.0787  0.7681 -0.0825
12329SOL     OW38087   5.262   5.633   0.295  0.1635 -0.4810 -0.0662
12329SOL    HW138088   5.352   5.602   0.306  0.8339  1.5489  0.5061
12329SOL    HW238089   5.266   5.727   0.314 -2.2588 -0.5192  1.0251
12330SOL     OW38090   2.491   3.511   5.465  0.0919 -0.7885  0.0453
12330SOL    HW138091   2.416   3.507   5.524 -0.5859 -0.8974 -0.8130
12330SOL    HW238092   2.476   3.442   5.402  0.2472  0.0368 -0.9185
12331SOL     OW38093   8.990   8.369   3.741 -0.0267 -0.2895 -0.4787
12331SOL    HW138094   9.078   8.341   3.715  0.3502 -0.2382  0.6884
12331SOL    HW238095   8.934   8.296   3.718  0.8196 -1.7385  1.7973
12332SOL     OW38096   6.757   3.321   0.866 -0.5900  0.1506 -0.4056
12332SOL    HW138097   6.705   3.246   0.839 -1.0297 -0.2940  1.5489
12332SOL    HW238098   6.847   3.297   0.845 -0.7486 -0.8386  0.0110
12333SOL     OW38099   7.817   6.296   8.278  0.6294  0.1943  0.1506
12333SOL    HW138100   7.833   6.371   8.337  1.0810 -1.2232  1.9227
12333SOL    HW238101   7.832   6.331   8.190 -0.3547  2.4835  0.8129
12334SOL     OW38102   0.787   3.617   4.281 -0.3433  0.0360 -0.1371
12334SOL    HW138103   0.852   3.668   4.329 -0.6723  0.4190 -0.0873
12334SOL    HW238104   0.819   3.616   4.191 -0.1163 -0.0299 -0.0549
12335SOL     OW38105   7.016   0.591   7.905  0.1370 -0.0442 -0.0395
12335SOL    HW138106   7.109   0.615   7.911  0.5908 -1.7241  0.1437
12335SOL    HW238107   6.988   0.581   7.996 -0.1081  0.0223 -0.1065
12336SOL     OW38108   8.237   2.422   8.077  1.1103 -0.6700  0.3364
12336SOL    HW138109   8.207   2.431   7.986  3.1280  0.3629 -0.2728
12336SOL    HW238110   8.288   2.341   8.077 -0.9730 -2.0755  1.2204
12337SOL     OW38111   4.579   7.463   3.376 -0.4292  0.0734 -0.4097
12337SOL    HW138112   4.521   7.406   3.325 -0.1978 -0.2661 -0.2940
12337SOL    HW238113   4.599   7.412   3.455 -0.3045  0.3576 -0.2570
12338SOL     OW38114   1.279   2.975   2.906 -1.1347  0.4670  0.2653
12338SOL    HW138115   1.337   2.902   2.884 -1.3158  0.9883 -2.1570
12338SOL    HW238116   1.191   2.941   2.891 -1.3088  0.6990  0.7267
12339SOL     OW38117   5.864   7.234   1.761 -1.2170 -0.3174  0.2271
12339SOL    HW138118   5.941   7.185   1.792 -1.3688 -1.0944 -0.5813
12339SOL    HW238119   5.855   7.306   1.824  0.0806 -0.2913  0.4200
12340SOL     OW38120   6.395   6.638   3.133  0.0744  0.2707  0.1689
12340SOL    HW138121   6.424   6.621   3.223  0.6802  2.1226  0.3674
12340SOL    HW238122   6.473   6.670   3.088 -0.5908  0.9096 -0.5628
12341SOL     OW38123   7.190   7.249   6.045 -0.1716 -0.1285 -0.5390
12341SOL    HW138124   7.220   7.195   5.972 -0.5452  0.6645 -1.3002
12341SOL    HW238125   7.269   7.291   6.079  0.2163 -1.5585  0.4417
12342SOL     OW38126   6.030   8.191   3.640 -0.3551 -0.1808 -0.3758
12342SOL    HW138127   6.050   8.136   3.564  0.4515 -0.4549  0.0263
12342SOL    HW238128   6.065   8.142   3.715 -1.1867  0.0619  0.1849
12343SOL     OW38129   2.055   0.101   2.927  0.9587  0.0380 -0.2939
12343SOL    HW138130   2.071   0.087   3.020  1.9904 -1.4006 -0.6460
12343SOL    HW238131   1.963   0.080   2.915  0.9342 -0.2302  0.3264
12344SOL     OW38132   7.191   2.028   1.538 -0.2754 -0.2062 -0.2500
12344SOL    HW138133   7.108   2.041   1.491  0.1287  2.1920 -0.4070
12344SOL    HW238134   7.259   2.049   1.473  0.6089 -3.4866 -0.5552
12345SOL     OW38135   6.716   6.080   2.035  0.5856 -1.0831 -0.1757
12345SOL    HW138136   6.744   6.168   2.060  0.0179 -0.9682  0.0610
12345SOL    HW238137   6.646   6.059   2.097  1.1454 -1.9503  0.1732
12346SOL     OW38138   6.374   4.129   0.346  0.1941 -0.3126  0.6954
12346SOL    HW138139   6.426   4.104   0.269  1.4578  2.9221  0.3737
12346SOL    HW238140   6.288   4.151   0.309  1.0190  1.9689  0.0122
12347SOL     OW38141   0.063   7.885   0.104  0.4555 -0.2795 -0.4941
12347SOL    HW138142   0.078   7.909   0.013  1.3843 -0.3293 -0.3678
12347SOL    HW238143   0.099   7.958   0.155  0.3372 -0.4464 -0.1635
12348SOL     OW38144   7.498   8.085   1.440 -0.2246 -0.2253  0.2446
12348SOL    HW138145   7.423   8.050   1.488  0.1006 -1.4653 -0.1154
12348SOL    HW238146   7.478   8.178   1.429 -1.2961 -0.3594  0.9126
12349SOL     OW38147   5.806   8.985   6.718 -0.5963 -0.6973 -0.3919
12349SOL    HW138148   5.820   9.071   6.678 -0.0453 -1.6461 -2.3649
12349SOL    HW238149   5.815   9.000   6.812  1.7662  0.9864 -0.8042
12350SOL     OW38150   5.551   5.696   2.991 -0.2879  0.0781 -0.2822
12350SOL    HW138151   5.476   5.668   2.939 -0.7674  0.0523  0.4072
12350SOL    HW238152   5.528   5.671   3.081  0.2363  0.7051  0.0333
12351SOL     OW38153   0.194   8.497   4.233 -0.0050 -0.9225  0.5560
12351SOL    HW138154   0.239   8.419   4.265  1.4705 -0.0882  0.5858
12351SOL    HW238155   0.124   8.511   4.298  1.0467 -1.0003  1.7517
12352SOL     OW38156   1.819   7.122   4.045 -0.4805 -0.3350 -0.0869
12352SOL    HW138157   1.811   7.150   3.954 -3.1862  1.5309  0.5844
12352SOL    HW238158   1.810   7.026   4.042 -0.1252 -0.3387 -1.7944
12353SOL     OW38159   7.871   0.207   7.488  0.0428  0.2963  0.1196
12353SOL    HW138160   7.876   0.112   7.498  2.9148  0.2855 -0.5587
12353SOL    HW238161   7.914   0.242   7.566 -0.6289  1.0603  0.1646
12354SOL     OW38162   1.863   3.197   4.435  0.2046  0.1504  0.1902
12354SOL    HW138163   1.958   3.190   4.428  0.1208 -0.6094 -0.3962
12354SOL    HW238164   1.848   3.269   4.496  1.1748 -0.8266  1.6513
12355SOL     OW38165   3.371   7.803   0.213 -0.4737 -0.0431  0.0372
12355SOL    HW138166   3.386   7.895   0.236  0.4998 -0.3909  0.8750
12355SOL    HW238167   3.447   7.780   0.159 -1.0935 -0.1636 -0.8158
12356SOL     OW38168   0.028   2.083   1.426 -0.2923 -0.1873 -0.2922
12356SOL    HW138169  -0.039   2.123   1.482  0.7655 -1.2135  1.7937
12356SOL    HW238170   0.106   2.078   1.481  1.2475  0.0253 -2.3290
12357SOL     OW38171   8.219   4.853   2.126 -0.0007  0.3737  0.1225
12357SOL    HW138172   8.217   4.759   2.109  0.1428  0.1599  1.2098
12357SOL    HW238173   8.311   4.872   2.144  0.0160  0.7789 -0.3739
12358SOL     OW38174   4.796   1.530   2.952  0.2996 -0.7139  0.1195
12358SOL    HW138175   4.801   1.595   3.022  3.2074 -1.7785  1.0417
12358SOL    HW238176   4.706   1.498   2.955 -1.3078  3.1460 -0.4008
12359SOL     OW38177   2.024   8.268   0.998 -0.2067  0.6374  0.5357
12359SOL    HW138178   2.116   8.279   1.022 -0.1624  1.7690 -0.0701
12359SOL    HW238179   1.976   8.287   1.079  0.0947 -0.8830  1.1076
12360SOL     OW38180   4.084   8.808   8.598  0.3446 -0.0182  0.5776
12360SOL    HW138181   4.059   8.719   8.625 -0.4219 -0.1688 -0.5710
12360SOL    HW238182   4.063   8.863   8.673 -3.0704 -0.2121 -0.0795
12361SOL     OW38183   2.200   1.514   6.840  1.0137 -0.6071  0.4022
12361SOL    HW138184   2.165   1.516   6.929 -0.6258  1.9745 -0.1848
12361SOL    HW238185   2.253   1.593   6.833  2.1390 -1.4027 -0.5789
12362SOL     OW38186   1.463   5.382   4.734  0.3166  0.5005 -0.4221
12362SOL    HW138187   1.435   5.345   4.650  0.2350  1.0785 -0.6554
12362SOL    HW238188   1.505   5.309   4.779  4.2358  1.0756 -2.6646
12363SOL     OW38189   2.151   5.549   7.588  0.0500 -0.1153  0.1353
12363SOL    HW138190   2.101   5.515   7.514 -0.7595  1.3018  0.0009
12363SOL    HW238191   2.087   5.560   7.658  0.7963 -1.3690  1.0389
12364SOL     OW38192   7.454   7.734   5.094  0.2301 -0.3580  0.1469
12364SOL    HW138193   7.529   7.683   5.124 -0.0300 -0.3870  0.7583
12364SOL    HW238194   7.442   7.706   5.003  0.5607 -0.8258  0.2395
12365SOL     OW38195   4.089   7.494   0.054  0.4365 -0.2410  0.3974
12365SOL    HW138196   4.060   7.506   0.144 -1.0921  4.0450 -0.4087
12365SOL    HW238197   4.184   7.507   0.057  0.2331  1.2294  1.3051
12366SOL     OW38198   0.578   5.033   2.427  0.0646 -0.0709  0.1971
12366SOL    HW138199   0.611   4.974   2.360 -0.9859  0.5086 -0.8881
12366SOL    HW238200   0.540   4.976   2.494  2.4690 -0.7108  1.0951
12367SOL     OW38201   2.048   5.973   3.008 -0.0125  1.0345  0.8629
12367SOL    HW138202   2.023   6.005   2.921 -0.7994 -1.5995  0.0316
12367SOL    HW238203   2.143   5.963   3.003  0.0398  1.6586  0.5759
12368SOL     OW38204   0.303   2.022   1.951 -0.1141  0.9729 -0.2185
12368SOL    HW138205   0.396   2.028   1.928 -0.1793  0.1227 -0.7318
12368SOL    HW238206   0.301   2.032   2.046  1.0535 -3.6420  0.5562
12369SOL     OW38207   0.524   8.120   7.716 -0.0557 -0.0852 -0.2287
12369SOL    HW138208   0.446   8.074   7.745 -1.2408  0.8637 -1.7061
12369SOL    HW238209   0.492   8.207   7.690  0.9077 -0.5470 -3.4883
12370SOL     OW38210   9.013   8.820   5.968  0.3051  0.3021  0.5063
12370SOL    HW138211   8.970   8.858   5.891  1.4491 -0.5708 -0.6235
12370SOL    HW238212   8.970   8.736   5.980  1.7207 -0.6508 -0.7347
12371SOL     OW38213   5.331   1.397   7.938  0.0716 -0.2768  0.0858
12371SOL    HW138214   5.287   1.478   7.913  0.9184  0.2030  0.1026
12371SOL    HW238215   5.424   1.420   7.940  0.5752 -1.8136 -2.1799
12372SOL     OW38216   5.952   5.389   7.055  0.3907  0.1253 -0.2243
12372SOL    HW138217   6.044   5.362   7.064 -0.0059 -1.3164 -0.3393
12372SOL    HW238218   5.954   5.458   6.989  1.6178  1.4528  1.1289
12373SOL     OW38219   3.624   4.510   7.862  0.3307  0.3547  0.1145
12373SOL    HW138220   3.555   4.523   7.797  0.8807  0.1222 -0.5176
12373SOL    HW238221   3.698   4.562   7.831  0.8230 -0.2742  0.1968
12374SOL     OW38222   2.675   0.036   2.565 -0.0177 -0.8219  0.5244
12374SOL    HW138223   2.684   0.100   2.495  1.9650 -1.3846  0.2217
12374SOL    HW238224   2.583   0.044   2.593 -0.6347 -0.0228 -1.5657
12375SOL     OW38225   8.654   4.602   7.086  0.3582  0.0131 -0.3716
12375SOL    HW138226   8.738   4.604   7.132  0.5519  0.3450 -0.7446
12375SOL    HW238227   8.627   4.510   7.093  0.4831  0.0117  0.2247
12376SOL     OW38228   1.749   8.491   0.803  0.1856 -0.0995  0.2112
12376SOL    HW138229   1.662   8.495   0.842  0.9202 -1.0305  2.0762
12376SOL    HW238230   1.806   8.533   0.868  1.0575  1.0672 -1.2573
12377SOL     OW38231   0.287   1.905   7.495 -0.3122 -0.4747  0.2097
12377SOL    HW138232   0.359   1.843   7.488 -1.6091 -2.0575  0.1600
12377SOL    HW238233   0.317   1.983   7.449  1.0394 -1.3934 -0.5169
12378SOL     OW38234   0.463   2.203   8.573 -0.2291 -0.2395 -0.1048
12378SOL    HW138235   0.476   2.125   8.519  0.0642 -0.2841  0.0267
12378SOL    HW238236   0.551   2.233   8.594 -0.3115  1.0263 -1.4036
12379SOL     OW38237   8.535   6.208   7.022 -0.2705 -0.3916 -0.3169
12379SOL    HW138238   8.577   6.148   6.960  0.7516 -2.9031  2.5767
12379SOL    HW238239   8.600   6.220   7.091 -1.5365  1.8842  0.5738
12380SOL     OW38240   8.789   0.269   3.634  0.3708 -0.0157  0.4818
12380SOL    HW138241   8.748   0.326   3.700 -0.3883  1.4761 -1.2121
12380SOL    HW238242   8.773   0.180   3.667 -1.2816  0.6370  1.5891
12381SOL     OW38243   2.241   1.654   2.239 -0.4219  0.0177 -0.3566
12381SOL    HW138244   2.238   1.583   2.303 -1.3478  1.2289  0.9917
12381SOL    HW238245   2.152   1.660   2.206 -0.4978  0.9315 -0.0122
12382SOL     OW38246   4.502   5.417   1.678 -0.6779  0.3438  0.0507
12382SOL    HW138247   4.423   5.363   1.670 -1.4086  1.2831  0.5755
12382SOL    HW238248   4.468   5.503   1.704  0.5969  0.5304  1.1700
12383SOL     OW38249   3.981   1.492   0.384 -0.0629 -0.5982  0.8535
12383SOL    HW138250   3.894   1.520   0.352 -0.7603 -3.3530  0.0969
12383SOL    HW238251   4.042   1.524   0.317 -1.1016 -2.8441 -1.3400
12384SOL     OW38252   3.099   3.968   3.998 -0.0579  0.2825 -0.3799
12384SOL    HW138253   3.130   3.904   3.934  1.2313  1.0680 -0.5815
12384SOL    HW238254   3.060   3.915   4.068  2.3094 -0.8519  0.1895
12385SOL     OW38255   7.378   0.045   3.729 -0.3239 -1.1204  0.0828
12385SOL    HW138256   7.375   0.111   3.659  1.3139 -0.6799  0.4026
12385SOL    HW238257   7.310   0.073   3.790  1.6662  1.5530  1.2738
12386SOL     OW38258   1.883   4.335   8.216  0.1410  0.0466 -0.3821
12386SOL    HW138259   1.821   4.338   8.289  1.0152 -0.4391  0.4125
12386SOL    HW238260   1.919   4.423   8.211  2.1149 -0.5460  1.6502
12387SOL     OW38261   4.779   3.922   7.283  0.1745  0.4257 -0.8435
12387SOL    HW138262   4.824   3.919   7.199  0.1514  1.6888 -0.9262
12387SOL    HW238263   4.838   3.878   7.344  0.6468  0.4000 -1.3184
12388SOL     OW38264   8.950   8.986   4.928  0.0724 -0.3927 -0.4686
12388SOL    HW138265   9.003   9.024   4.858 -1.0681  1.2394 -0.4926
12388SOL    HW238266   9.010   8.982   5.003  0.4322  0.8756 -0.6550
12389SOL     OW38267   2.715   8.563   3.958 -0.2342 -0.7936 -0.0310
12389SOL    HW138268   2.723   8.637   3.897  0.5588 -0.4981  0.4157
12389SOL    HW238269   2.638   8.515   3.928  0.1215 -0.6328 -1.2462
12390SOL     OW38270   1.063   1.261   7.112  0.3628 -0.0399 -0.4133
12390SOL    HW138271   1.154   1.256   7.142  0.6863 -0.5536 -1.4155
12390SOL    HW238272   1.017   1.195   7.164  0.8343 -0.6652 -0.7704
12391SOL     OW38273   8.461   2.293   2.911 -0.0800  0.5381  0.1739
12391SOL    HW138274   8.389   2.354   2.922 -1.1002 -0.5992 -0.0195
12391SOL    HW238275   8.421   2.206   2.914  1.3187 -0.1404  0.4018
12392SOL     OW38276   5.004   6.897   2.649 -0.1382 -0.2156 -0.2566
12392SOL    HW138277   4.919   6.916   2.609 -0.0583  2.7575  0.7518
12392SOL    HW238278   5.058   6.865   2.576 -1.6591 -0.7338 -1.2141
12393SOL     OW38279   7.525   2.740   8.429  0.0806 -0.5402 -0.3966
12393SOL    HW138280   7.514   2.795   8.351  0.1876 -0.0381 -0.0660
12393SOL    HW238281   7.606   2.771   8.468 -2.2514  2.6640  2.5655
12394SOL     OW38282   8.383   8.095   9.007  0.3460 -0.5155 -0.2616
12394SOL    HW138283   8.433   8.126   9.082  0.4763  1.5819 -1.1415
12394SOL    HW238284   8.309   8.155   9.001  0.6714 -0.2322 -2.1251
12395SOL     OW38285   1.443   2.511   4.752 -0.0398 -0.7872 -0.0218
12395SOL    HW138286   1.419   2.579   4.689  0.7100 -0.6041 -0.1286
12395SOL    HW238287   1.367   2.454   4.757 -0.0932 -0.8491 -1.1639
12396SOL     OW38288   3.468   8.453   0.419  0.4396  0.1380 -0.1846
12396SOL    HW138289   3.431   8.421   0.502  1.5635 -0.9104 -0.0518
12396SOL    HW238290   3.555   8.484   0.443  0.5491  0.3761 -0.8847
12397SOL     OW38291   6.469   8.120   7.410 -0.2193  0.1436 -0.2193
12397SOL    HW138292   6.526   8.139   7.485  0.4841  1.9658 -1.1611
12397SOL    HW238293   6.523   8.069   7.350 -0.0694  0.5258 -0.4156
12398SOL     OW38294   7.816   5.351   7.817 -0.5601 -0.1144  0.0949
12398SOL    HW138295   7.759   5.297   7.873 -0.2220  0.4316  0.9913
12398SOL    HW238296   7.874   5.288   7.775 -0.3118 -0.4908  0.9613
12399SOL     OW38297   3.093   4.559   6.172  0.2273  0.1307 -0.3507
12399SOL    HW138298   3.177   4.521   6.146  1.1238  1.7250  0.0290
12399SOL    HW238299   3.111   4.601   6.256 -1.6025 -1.5341  0.9696
12400SOL     OW38300   4.752   7.396   3.144 -0.1435 -0.3210 -0.8245
12400SOL    HW138301   4.726   7.304   3.145 -0.3755 -0.2669  0.2825
12400SOL    HW238302   4.700   7.436   3.214 -0.4390  0.7708 -1.6370
12401SOL     OW38303   2.721   4.074   7.387  0.3599 -0.8483  0.4026
12401SOL    HW138304   2.654   4.028   7.438 -0.0526 -2.2213 -1.2504
12401SOL    HW238305   2.733   4.018   7.310  1.3644  0.8263 -0.6985
12402SOL     OW38306   8.276   7.392   3.780  0.7943 -0.0307  0.3458
12402SOL    HW138307   8.283   7.438   3.696 -0.3677  3.8084  2.1386
12402SOL    HW238308   8.192   7.347   3.776 -0.8694  2.7981  0.4608
12403SOL     OW38309   9.091   8.057   1.310  0.1173  0.3812 -0.3596
12403SOL    HW138310   9.136   7.972   1.306 -0.3532  0.1781 -2.1348
12403SOL    HW238311   9.116   8.093   1.395 -0.7287 -2.1077  1.0500
12404SOL     OW38312   1.995   6.117   6.992  0.2329 -0.0186  0.5058
12404SOL    HW138313   1.929   6.050   7.007  0.0090 -0.4041 -1.7629
12404SOL    HW238314   2.051   6.081   6.923  1.5036  1.2073  0.8370
12405SOL     OW38315   7.178   4.162   6.521 -0.4208 -0.1058 -0.8040
12405SOL    HW138316   7.108   4.204   6.571 -0.6257 -3.5208  2.1899
12405SOL    HW238317   7.257   4.207   6.549 -1.0106  1.4496 -1.5048
12406SOL     OW38318   3.461   2.177   1.482 -0.1362 -0.3819 -0.4149
12406SOL    HW138319   3.440   2.105   1.542  1.2330 -0.1251  0.4150
12406SOL    HW238320   3.555   2.170   1.469  0.1002  1.5091  0.0176
12407SOL     OW38321   5.286   5.438   5.888 -0.5877  0.0494 -0.1271
12407SOL    HW138322   5.214   5.411   5.945 -0.2105 -1.4333 -0.3284
12407SOL    HW238323   5.358   5.456   5.948 -0.3321 -1.0584 -0.0841
12408SOL     OW38324   3.503   1.083   4.576  0.1537 -0.2594  0.2620
12408SOL    HW138325   3.480   1.040   4.659  0.1421 -1.9651 -0.5867
12408SOL    HW238326   3.421   1.125   4.548 -0.3258 -1.1471  0.2765
12409SOL     OW38327   3.947   4.166   2.613 -0.4079  0.0241 -0.1912
12409SOL    HW138328   4.010   4.156   2.684 -1.1131 -0.5875  0.3630
12409SOL    HW238329   3.900   4.083   2.610  0.6980 -0.6039 -2.4874
12410SOL     OW38330   7.137   4.740   2.279 -0.1938 -0.2887 -0.0886
12410SOL    HW138331   7.226   4.708   2.259  1.5180  2.7492  1.8685
12410SOL    HW238332   7.112   4.790   2.202 -0.0003 -0.7595 -0.4643
12411SOL     OW38333   2.198   2.135   8.346 -0.9143 -0.1192 -0.2033
12411SOL    HW138334   2.261   2.206   8.334 -1.8430  0.7867  0.1492
12411SOL    HW238335   2.175   2.138   8.439 -2.8924  0.8356 -0.6611
12412SOL     OW38336   3.592   8.439   7.484  0.1210 -0.3308  0.0054
12412SOL    HW138337   3.686   8.446   7.504  0.3788  0.7560 -1.4117
12412SOL    HW238338   3.589   8.401   7.397 -0.7453  0.0412 -0.1346
12413SOL     OW38339   2.907   1.773   8.980  0.0963 -0.2198 -0.2771
12413SOL    HW138340   2.895   1.795   8.888 -0.8008 -0.3874 -0.2087
12413SOL    HW238341   3.002   1.767   8.991  0.2170 -0.0528 -1.1512
12414SOL     OW38342   3.346   5.174   1.096 -0.3284  0.2322  0.2627
12414SOL    HW138343   3.330   5.183   1.190  0.4511  0.7063  0.3541
12414SOL    HW238344   3.331   5.261   1.060 -3.9834 -0.5790 -0.6258
12415SOL     OW38345   1.748   9.125   5.231 -0.1252 -0.7084 -0.0851
12415SOL    HW138346   1.725   9.158   5.145  0.0787 -1.5584 -0.4832
12415SOL    HW238347   1.791   9.041   5.213  0.9845 -0.3528  0.7681
12416SOL     OW38348   7.172   2.240   6.570  0.1177 -0.1045  0.1974
12416SOL    HW138349   7.158   2.237   6.664 -2.7103 -0.4906 -0.1450
12416SOL    HW238350   7.230   2.167   6.551 -1.6493 -1.9066  1.3638
12417SOL     OW38351   8.505   8.507   0.846  0.2529 -0.4275  0.0390
12417SOL    HW138352   8.510   8.537   0.755 -1.2546  1.2764  0.4549
12417SOL    HW238353   8.427   8.452   0.850  0.8478 -1.2835  0.1188
12418SOL     OW38354   2.965   2.079   6.970 -0.0629 -0.4469  0.2895
12418SOL    HW138355   2.895   2.017   6.948 -0.7506  0.6269 -0.6412
12418SOL    HW238356   3.002   2.104   6.885 -0.7725  1.5175  0.5274
12419SOL     OW38357   2.569   7.270   5.336 -0.1429 -0.5035  0.4374
12419SOL    HW138358   2.575   7.363   5.312 -1.3792 -0.8946 -1.6720
12419SOL    HW238359   2.646   7.230   5.296 -0.2232 -0.5670  0.3467
12420SOL     OW38360   6.326   2.209   2.772 -0.7034  0.4667 -0.2684
12420SOL    HW138361   6.311   2.151   2.698 -0.8601  0.2466 -0.0666
12420SOL    HW238362   6.294   2.294   2.743  0.0824  0.5916 -0.7814
12421SOL     OW38363   7.970   0.628   6.807  0.5509  0.4345 -0.3082
12421SOL    HW138364   7.982   0.575   6.728  1.9044  1.3708 -0.7705
12421SOL    HW238365   7.921   0.572   6.867  0.3090 -0.6312 -1.4756
12422SOL     OW38366   5.261   6.536   3.898 -0.5001  0.7997 -0.1703
12422SOL    HW138367   5.197   6.470   3.874 -1.8078  1.9999 -0.0833
12422SOL    HW238368   5.322   6.538   3.824 -1.2832  0.5379 -0.8371
12423SOL     OW38369   5.636   8.908   3.058 -0.1327  0.7620 -0.7448
12423SOL    HW138370   5.691   8.909   3.136 -0.5050  0.5222 -0.4704
12423SOL    HW238371   5.691   8.870   2.990  0.4412  1.6581 -0.7947
12424SOL     OW38372   7.156   0.435   7.236  0.5952 -0.0372  0.6773
12424SOL    HW138373   7.170   0.492   7.311  2.9112  0.6396 -0.1865
12424SOL    HW238374   7.068   0.455   7.206  0.1000  0.5702  2.4516
12425SOL     OW38375   5.087   0.685   7.815  0.0154 -0.0632 -0.6535
12425SOL    HW138376   5.022   0.739   7.861 -0.7612 -0.3249 -1.4324
12425SOL    HW238377   5.168   0.698   7.865 -0.7397 -0.1236  0.6332
12426SOL     OW38378   2.140   3.071   0.320  0.1423 -0.1865 -0.3822
12426SOL    HW138379   2.195   3.132   0.370  1.5314 -1.4573 -0.3027
12426SOL    HW238380   2.181   3.067   0.234 -0.5749 -0.1965 -0.7275
12427SOL     OW38381   4.540   5.381   4.923 -0.4978 -0.5210 -0.5343
12427SOL    HW138382   4.595   5.369   4.846  0.4047 -0.2086  0.0548
12427SOL    HW238383   4.553   5.473   4.948 -0.3102 -0.7873  0.3551
12428SOL     OW38384   7.557   1.750   6.469 -0.9648 -0.1814  0.0173
12428SOL    HW138385   7.461   1.746   6.475 -0.9455  0.6660  1.5075
12428SOL    HW238386   7.584   1.782   6.555  0.7667 -1.8749  0.1606
12429SOL     OW38387   3.035   2.195   1.957  0.1934  0.2491  0.1587
12429SOL    HW138388   2.990   2.111   1.945 -0.9827  0.6447  1.4766
12429SOL    HW238389   2.985   2.257   1.905  0.6893  0.2685 -0.3100
12430SOL     OW38390   7.442   7.518   7.772  0.3569  0.7855 -0.1388
12430SOL    HW138391   7.519   7.468   7.800  1.2086  2.4368  0.6126
12430SOL    HW238392   7.416   7.477   7.690  2.2716  0.4082 -0.6188
12431SOL     OW38393   4.864   4.143   1.331 -0.5068  0.0933 -0.2199
12431SOL    HW138394   4.954   4.118   1.352 -0.2035  0.9672 -0.4428
12431SOL    HW238395   4.813   4.114   1.407 -0.3535 -2.0580 -0.8729
12432SOL     OW38396   0.660   8.876   2.671 -0.2742 -0.0671 -0.0402
12432SOL    HW138397   0.685   8.948   2.729 -0.9859 -0.4693  0.7869
12432SOL    HW238398   0.727   8.809   2.687 -0.2321 -0.0137  0.0118
12433SOL     OW38399   8.747   7.907   5.086 -0.2876 -0.2054 -0.1372
12433SOL    HW138400   8.685   7.971   5.051  1.7168  1.5334 -0.7469
12433SOL    HW238401   8.831   7.931   5.047  0.9431 -1.9802  1.2189
12434SOL     OW38402   2.123   5.953   0.418 -0.4853  0.2020 -0.5043
12434SOL    HW138403   2.146   6.034   0.464  1.2536 -0.3465 -0.3316
12434SOL    HW238404   2.158   5.966   0.330 -0.6620 -0.1588 -0.6253
12435SOL     OW38405   5.865   7.585   3.036 -0.5512 -0.7582 -0.4906
12435SOL    HW138406   5.868   7.663   3.091  0.8313 -0.6662 -0.6386
12435SOL    HW238407   5.778   7.585   2.998 -1.1500 -0.2162  0.8245
12436SOL     OW38408   0.623   5.357   7.287  0.7678 -0.5550 -0.9283
12436SOL    HW138409   0.550   5.415   7.267  0.1194 -0.9392  0.2218
12436SOL    HW238410   0.701   5.406   7.260  0.4228  1.8193  1.8855
12437SOL     OW38411   5.398   7.307   4.105 -0.0967  0.2555 -0.2881
12437SOL    HW138412   5.353   7.250   4.167 -0.5963  1.5910  0.6282
12437SOL    HW238413   5.379   7.396   4.135 -0.1664  0.9632 -2.2404
12438SOL     OW38414   0.493   1.389   4.528  0.1620  0.0512  0.6905
12438SOL    HW138415   0.416   1.351   4.572 -0.1878 -0.5326 -0.4006
12438SOL    HW238416   0.542   1.430   4.599 -0.8457 -0.0909  1.5058
12439SOL     OW38417   3.797   8.920   4.385  1.0598 -0.1449 -0.0990
12439SOL    HW138418   3.767   8.838   4.426 -2.3173  0.4839 -0.9994
12439SOL    HW238419   3.761   8.917   4.296  0.9581  2.2400 -0.2049
12440SOL     OW38420   1.741   4.556   9.053 -0.7108 -0.0747  0.7936
12440SOL    HW138421   1.776   4.611   8.983 -0.0611  1.3348  2.1764
12440SOL    HW238422   1.668   4.608   9.089 -1.1908 -0.8929  1.0188
12441SOL     OW38423   3.514   4.459   2.940 -0.5775 -0.3830 -0.1116
12441SOL    HW138424   3.575   4.389   2.918 -1.4667 -1.3456  0.3951
12441SOL    HW238425   3.552   4.538   2.902 -0.1732 -1.3347 -1.7585
12442SOL     OW38426   2.207   7.708   1.208  0.5568  0.0837  0.0042
12442SOL    HW138427   2.280   7.714   1.269 -0.0477  1.3918  0.6454
12442SOL    HW238428   2.194   7.614   1.194  1.0999 -0.2193  1.4132
12443SOL     OW38429   8.663   0.830   0.782  0.3011 -0.0449  0.2522
12443SOL    HW138430   8.681   0.893   0.712 -0.3931  0.0467  0.1506
12443SOL    HW238431   8.606   0.764   0.741  2.7797 -2.0242 -0.3131
12444SOL     OW38432   8.898   2.753   7.025 -0.2789 -0.3033 -0.3142
12444SOL    HW138433   8.934   2.799   6.950 -0.6348 -0.0901 -0.3543
12444SOL    HW238434   8.817   2.799   7.046  1.0785  1.2998  1.8431
12445SOL     OW38435   8.512   3.587   5.936  0.1577  0.1611 -0.0722
12445SOL    HW138436   8.546   3.674   5.914 -1.7860  0.6818 -1.3769
12445SOL    HW238437   8.541   3.531   5.864 -1.0222  0.4555 -0.8238
12446SOL     OW38438   3.134   1.452   3.761  0.2628 -0.1036 -0.0188
12446SOL    HW138439   3.139   1.358   3.746  0.8747  0.0103 -0.5470
12446SOL    HW238440   3.115   1.489   3.675  0.9389  0.3258  0.0118
12447SOL     OW38441   6.581   1.695   5.106 -0.2055 -0.2859  0.0600
12447SOL    HW138442   6.594   1.712   5.012  1.4112 -1.3822  0.0497
12447SOL    HW238443   6.564   1.601   5.111  0.0299 -0.2898  0.8927
12448SOL     OW38444   7.144   4.971   0.165 -0.2191  0.0595  0.0908
12448SOL    HW138445   7.064   4.921   0.179  0.6890 -0.8972  2.3533
12448SOL    HW238446   7.114   5.058   0.141 -1.8840 -0.7947 -1.0698
12449SOL     OW38447   4.191   7.325   0.627 -0.0633  0.3141  0.1281
12449SOL    HW138448   4.281   7.293   0.617 -0.0383  0.7273 -1.1611
12449SOL    HW238449   4.138   7.247   0.641  0.5469  0.1047  1.3780
12450SOL     OW38450   1.967   5.105   5.198  0.6290 -0.0684  0.2314
12450SOL    HW138451   1.938   5.030   5.146 -0.8043  0.5183  0.1388
12450SOL    HW238452   1.886   5.148   5.226  1.3688  0.2009  2.1433
12451SOL     OW38453   8.614   7.743   8.112  0.0956 -0.0899  0.3165
12451SOL    HW138454   8.582   7.832   8.101 -0.6176 -0.3451  0.2463
12451SOL    HW238455   8.539   7.688   8.092  0.3057 -0.6940  1.1225
12452SOL     OW38456   2.849   0.040   8.431  0.6138  0.6374  0.2359
12452SOL    HW138457   2.815  -0.030   8.374 -1.5376  1.1436  0.8007
12452SOL    HW238458   2.844   0.003   8.519  0.3036  1.1815  0.4503
12453SOL     OW38459   4.385   3.868   8.304 -0.0929  0.3577 -0.2192
12453SOL    HW138460   4.314   3.844   8.364  0.6853 -0.4284  0.4034
12453SOL    HW238461   4.462   3.822   8.338  0.8046  1.4746 -0.6832
12454SOL     OW38462   2.326   0.324   0.727  0.1930  0.4367  0.0306
12454SOL    HW138463   2.380   0.355   0.655  1.4468  0.1288  0.7935
12454SOL    HW238464   2.240   0.308   0.688  0.6929  0.7706 -1.2647
12455SOL     OW38465   6.435   0.113   6.661 -0.1416  0.0529 -0.2228
12455SOL    HW138466   6.384   0.183   6.702 -1.5654 -0.5806 -0.8362
12455SOL    HW238467   6.478   0.155   6.587 -1.1513  0.2552 -0.7118
12456SOL     OW38468   6.796   8.254   0.674 -0.1442  0.1678 -0.6213
12456SOL    HW138469   6.853   8.314   0.626  2.0210  0.8608  2.5039
12456SOL    HW238470   6.746   8.311   0.732  0.8141 -0.8397  1.2997
12457SOL     OW38471   5.699   8.921   3.527  0.0259 -0.2445  0.3181
12457SOL    HW138472   5.768   8.980   3.497 -0.3741  0.4883  0.7910
12457SOL    HW238473   5.727   8.894   3.615 -0.8153  0.9748  0.9938
12458SOL     OW38474   4.898   2.784   2.650 -0.0289  0.1873  0.2344
12458SOL    HW138475   4.949   2.748   2.577 -0.0276 -0.4340  0.5308
12458SOL    HW238476   4.807   2.780   2.621 -0.0894 -0.6667  0.5005
12459SOL     OW38477   4.362   7.056   3.775  0.4804 -0.3545 -0.2640
12459SOL    HW138478   4.299   7.126   3.761  0.3285 -0.6760 -1.3450
12459SOL    HW238479   4.436   7.098   3.819  0.1256  0.3383 -0.3136
12460SOL     OW38480   0.965   6.076   5.923 -0.1364 -0.4267  1.1434
12460SOL    HW138481   1.060   6.085   5.924  0.0313 -1.8970  1.1963
12460SOL    HW238482   0.948   6.001   5.980 -1.3049 -0.4379  0.8013
12461SOL     OW38483   6.182   2.350   8.575  0.6511  0.3507  0.3707
12461SOL    HW138484   6.261   2.404   8.587  1.1107  0.7394 -3.2584
12461SOL    HW238485   6.215   2.261   8.564  0.2565  0.0065  1.6916
12462SOL     OW38486   5.351   4.587   4.801  0.4631  0.0014 -0.0689
12462SOL    HW138487   5.314   4.653   4.742 -1.6538 -0.1417  0.9963
12462SOL    HW238488   5.353   4.507   4.749  2.3353  0.6716 -1.1293
12463SOL     OW38489   6.136   4.908   1.214  0.3754 -0.1764  0.1408
12463SOL    HW138490   6.213   4.851   1.206  0.3766 -0.0977 -0.4824
12463SOL    HW238491   6.145   4.948   1.300  2.0517  1.2830 -0.6321
12464SOL     OW38492   2.535   4.363   3.763 -0.1119 -0.3551 -0.1329
12464SOL    HW138493   2.501   4.449   3.788 -1.0485  0.0919 -2.5880
12464SOL    HW238494   2.492   4.301   3.821 -0.2272  0.7500  0.9936
12465SOL     OW38495   8.893   8.533   1.041 -0.3103  0.2430  0.3356
12465SOL    HW138496   8.912   8.625   1.058 -1.7361  0.0617  3.8651
12465SOL    HW238497   8.974   8.487   1.066  0.4118  0.4495 -1.4549
12466SOL     OW38498   6.307   8.775   0.661  0.2406 -0.1029  0.0886
12466SOL    HW138499   6.315   8.713   0.588  0.5503  0.0296  0.0080
12466SOL    HW238500   6.230   8.829   0.638  1.8718  1.7089 -1.5049
12467SOL     OW38501   1.885   1.063   7.025  0.1682 -0.2781  0.2555
12467SOL    HW138502   1.906   1.090   6.936 -0.3651 -0.4822  0.0665
12467SOL    HW238503   1.817   1.123   7.054  2.0742  1.4236  1.4581
12468SOL     OW38504   8.418   7.265   7.578  0.0229 -0.0299 -0.1650
12468SOL    HW138505   8.479   7.268   7.504 -0.4042 -1.4104 -0.5961
12468SOL    HW238506   8.467   7.220   7.647  0.7048  1.9476  0.7139
12469SOL     OW38507   4.980   0.542   4.557  0.0226 -0.1267  0.0397
12469SOL    HW138508   4.932   0.526   4.638 -0.7609 -1.1189 -0.6017
12469SOL    HW238509   4.922   0.511   4.488 -0.3156  2.7648 -1.1191
12470SOL     OW38510   2.709   6.579   6.775 -0.0588  0.2090  0.1210
12470SOL    HW138511   2.671   6.660   6.741 -1.3785 -0.2935  0.3324
12470SOL    HW238512   2.774   6.553   6.709 -0.6518  0.6740 -0.6573
12471SOL     OW38513   4.906   7.146   6.631 -0.3525  0.9195 -0.3418
12471SOL    HW138514   4.914   7.068   6.686 -0.7258  0.9548 -0.2356
12471SOL    HW238515   4.824   7.187   6.659 -0.2764  1.2245 -0.5582
12472SOL     OW38516   4.561   0.567   6.734 -0.0879 -0.1439  0.1829
12472SOL    HW138517   4.509   0.624   6.791 -0.2749  0.5350 -0.6505
12472SOL    HW238518   4.503   0.493   6.715 -0.1582 -0.1900  0.5566
12473SOL     OW38519   2.579   1.431   1.768  0.6497  0.1919  0.4287
12473SOL    HW138520   2.532   1.448   1.850  0.7422 -0.2096  0.5642
12473SOL    HW238521   2.536   1.354   1.731 -0.7184  1.5205 -0.9084
12474SOL     OW38522   3.970   5.083   0.576 -0.2199  0.5729  0.1661
12474SOL    HW138523   4.043   5.036   0.536  0.0986  1.0966  0.1170
12474SOL    HW238524   3.905   5.091   0.506  0.6894  2.2478 -0.5458
12475SOL     OW38525   1.242   3.741   6.883  0.1039  0.2954  0.2215
12475SOL    HW138526   1.202   3.730   6.969 -0.9223 -3.4129 -0.5515
12475SOL    HW238527   1.169   3.731   6.822  1.3682 -1.1892 -1.1329
12476SOL     OW38528   0.475   0.339   6.913  0.5639 -0.0281 -0.1957
12476SOL    HW138529   0.532   0.269   6.882  0.6692 -0.8848  1.8086
12476SOL    HW238530   0.444   0.309   6.999  0.1791  2.1438  0.4816
12477SOL     OW38531   1.724   4.803   1.850  0.2000  0.0410  0.0208
12477SOL    HW138532   1.732   4.709   1.864  0.6599  0.0402 -0.2366
12477SOL    HW238533   1.672   4.834   1.924 -0.2474 -0.4658 -0.0777
12478SOL     OW38534   8.788   0.505   8.276 -0.2067  0.2647 -0.7407
12478SOL    HW138535   8.806   0.560   8.200 -2.0463  0.5055 -1.0515
12478SOL    HW238536   8.717   0.448   8.248 -1.0979  0.5341  0.8531
12479SOL     OW38537   0.873   7.533   3.855  0.6665  0.2920  0.0474
12479SOL    HW138538   0.932   7.461   3.878  0.4402  0.1860  0.3006
12479SOL    HW238539   0.931   7.603   3.826  0.8330 -0.5027 -1.6705
12480SOL     OW38540   8.133   8.662   2.779 -0.0484 -0.0643  0.4277
12480SOL    HW138541   8.196   8.702   2.719 -1.3415  0.4779 -0.6123
12480SOL    HW238542   8.134   8.569   2.755  0.6963 -0.1489  0.7524
12481SOL     OW38543   2.394   7.388   0.601  0.3268  0.3636 -0.0511
12481SOL    HW138544   2.344   7.465   0.573  1.5887  0.8008 -1.2046
12481SOL    HW238545   2.422   7.347   0.520  2.1586  0.3571  0.5490
12482SOL     OW38546   1.416   0.601   1.669 -0.2821  0.6761  0.3120
12482SOL    HW138547   1.501   0.572   1.635 -0.7484  0.8978 -1.0908
12482SOL    HW238548   1.353   0.536   1.636 -0.9738  1.7997 -0.6302
12483SOL     OW38549   8.188   8.586   4.895  0.0194  0.9578 -1.1418
12483SOL    HW138550   8.213   8.506   4.849  0.1822  0.6528 -0.5340
12483SOL    HW238551   8.120   8.624   4.840  0.3462  0.7074 -1.7356
12484SOL     OW38552   2.015   5.405   1.302  0.1393 -0.1154  0.0311
12484SOL    HW138553   2.056   5.456   1.372  0.1643 -0.0539 -0.0275
12484SOL    HW238554   1.922   5.406   1.324  0.3195 -1.4742  0.9447
12485SOL     OW38555   3.028   0.671   7.092  0.1093 -0.2843 -0.0200
12485SOL    HW138556   3.073   0.636   7.016 -0.0232 -0.8775  0.1737
12485SOL    HW238557   3.007   0.762   7.068  1.8630  0.1775  0.0821
12486SOL     OW38558   8.254   5.305   1.030  0.1233  0.1519 -0.4891
12486SOL    HW138559   8.293   5.228   0.988  0.9268  1.4639 -2.2598
12486SOL    HW238560   8.164   5.307   0.997  0.3081  0.3365 -0.9973
12487SOL     OW38561   3.597   1.697   7.758  0.1649 -0.0797  0.0808
12487SOL    HW138562   3.673   1.715   7.704  1.0223 -0.0562  1.2612
12487SOL    HW238563   3.572   1.608   7.737 -0.8629  0.6221 -1.9266
12488SOL     OW38564   5.348   7.402   4.797 -0.0669  0.3980  0.0767
12488SOL    HW138565   5.397   7.483   4.790 -0.0356  0.2541 -3.2899
12488SOL    HW238566   5.261   7.423   4.762 -0.0120 -0.9899 -0.9913
12489SOL     OW38567   6.606   1.402   1.851  0.6478  0.6383 -0.4751
12489SOL    HW138568   6.683   1.387   1.905  1.0172 -1.9014 -1.5806
12489SOL    HW238569   6.556   1.321   1.857 -0.9118  1.4684 -1.4275
12490SOL     OW38570   8.519   5.253   1.389 -0.2706  0.1566  0.2560
12490SOL    HW138571   8.613   5.245   1.371 -0.3404 -2.2377  0.6768
12490SOL    HW238572   8.491   5.327   1.334  2.1099  2.0052  1.3429
12491SOL     OW38573   4.181   6.772   6.535 -0.1481  0.4594  0.2595
12491SOL    HW138574   4.135   6.855   6.543  0.8296  1.0458 -0.0213
12491SOL    HW238575   4.155   6.722   6.611 -1.2338  0.7798  0.1112
12492SOL     OW38576   0.942   1.868   4.254  0.3486 -0.4291  0.3972
12492SOL    HW138577   0.962   1.821   4.336  1.1387  0.9494  1.0258
12492SOL    HW238578   0.987   1.951   4.263  0.3595 -0.2133 -1.4320
12493SOL     OW38579   6.977   4.037   7.686 -0.2548 -0.2023 -0.4971
12493SOL    HW138580   6.935   3.957   7.653 -0.7565 -0.6796  1.2165
12493SOL    HW238581   6.905   4.095   7.708  0.1080  0.6519 -1.4869
12494SOL     OW38582   5.374   4.714   8.018 -0.3026  1.0429 -0.3745
12494SOL    HW138583   5.331   4.760   8.090  0.0864  2.5504 -1.0746
12494SOL    HW238584   5.312   4.719   7.946 -2.2478 -3.4283  0.6381
12495SOL     OW38585   0.016   2.799   3.715  0.3038  0.2957  0.6330
12495SOL    HW138586   0.077   2.867   3.686 -1.0887  0.6431 -1.7560
12495SOL    HW238587   0.066   2.749   3.780  2.4806  1.6412  0.1286
12496SOL     OW38588   7.479   3.119   5.709 -0.1116 -0.3228  0.0751
12496SOL    HW138589   7.420   3.057   5.667 -0.5511 -0.6821  1.1984
12496SOL    HW238590   7.475   3.098   5.802  1.1284  0.2127  0.2776
12497SOL     OW38591   9.098   7.051   5.909  0.4435  0.2161 -0.4050
12497SOL    HW138592   9.171   7.090   5.861  0.4632  0.7761  0.0732
12497SOL    HW238593   9.075   7.116   5.976  0.0473 -0.3099 -0.0188
12498SOL     OW38594   1.647   4.007   0.551  0.2955 -0.0302 -0.5585
12498SOL    HW138595   1.557   4.011   0.517  0.0509  1.7779  0.1387
12498SOL    HW238596   1.664   4.097   0.581  1.0864 -1.0854  2.4952
12499SOL     OW38597   2.888   4.156   0.375 -0.1153 -0.7075 -0.0968
12499SOL    HW138598   2.853   4.077   0.416  1.2296 -2.0882 -1.4919
12499SOL    HW238599   2.892   4.135   0.282 -0.6204  1.3766 -0.6316
12500SOL     OW38600   8.807   0.132   0.315 -0.0594 -0.5740  0.2882
12500SOL    HW138601   8.734   0.143   0.377 -0.1816  0.8244 -0.0716
12500SOL    HW238602   8.767   0.143   0.229  0.0471 -2.8429 -0.1019
12501SOL     OW38603   4.672   7.495   7.696 -0.4873  0.3441  0.0920
12501SOL    HW138604   4.734   7.559   7.732 -1.2633 -0.4210  3.0785
12501SOL    HW238605   4.726   7.419   7.675 -0.1537  0.3120  1.0091
12502SOL     OW38606   0.018   5.071   5.008 -0.0572  0.1276  0.1424
12502SOL    HW138607   0.062   5.154   5.028 -0.3699  0.1566  0.7149
12502SOL    HW238608  -0.063   5.098   4.964 -0.1383  0.1254  0.2894
12503SOL     OW38609   8.563   6.760   7.480  0.6556 -0.1216  0.1089
12503SOL    HW138610   8.488   6.701   7.473  1.7632 -1.7890  1.3268
12503SOL    HW238611   8.619   6.736   7.406  0.4613  0.4317 -0.2254
12504SOL     OW38612   5.308   7.174   0.429  0.3555 -0.1405  0.1234
12504SOL    HW138613   5.239   7.128   0.382 -0.6499  0.4679  0.9617
12504SOL    HW238614   5.283   7.267   0.422  1.0046  0.0740  0.5793
12505SOL     OW38615   7.914   8.223   8.495  0.1901 -0.5244 -0.4279
12505SOL    HW138616   7.851   8.181   8.554  0.6813 -0.4220  0.1799
12505SOL    HW238617   7.990   8.164   8.496  0.1454 -0.6077 -1.0965
12506SOL     OW38618   2.651   5.243   6.698  0.5005 -0.4157 -0.0310
12506SOL    HW138619   2.691   5.312   6.750  0.6228 -0.1712 -0.4448
12506SOL    HW238620   2.682   5.162   6.739  0.0504 -0.2330  0.6838
12507SOL     OW38621   6.131   5.741   3.222 -0.2957  0.2189 -0.1932
12507SOL    HW138622   6.141   5.830   3.257 -0.1758 -0.2680  1.0862
12507SOL    HW238623   6.131   5.752   3.127  0.3542  1.5137 -0.0636
12508SOL     OW38624   8.729   2.590   6.145  0.1515  0.2251 -0.5816
12508SOL    HW138625   8.691   2.670   6.111  1.0178  0.4770 -0.9678
12508SOL    HW238626   8.675   2.520   6.107  1.2614  0.4687 -2.7679
12509SOL     OW38627   4.812   6.692   2.359  0.5806  0.3957  0.4448
12509SOL    HW138628   4.859   6.725   2.283  0.1723  1.0040  0.4546
12509SOL    HW238629   4.854   6.734   2.434 -1.2360  2.5335  0.3435
12510SOL     OW38630   7.811   7.690   1.345 -0.4880  0.2196  0.0742
12510SOL    HW138631   7.766   7.639   1.412 -0.3138  2.2719  1.8481
12510SOL    HW238632   7.743   7.749   1.310 -0.2850  0.0020 -0.7070
12511SOL     OW38633   2.568   2.237   8.899  0.0107 -0.1751 -0.2472
12511SOL    HW138634   2.633   2.167   8.910  1.3948  1.2722  1.3176
12511SOL    HW238635   2.618   2.318   8.911 -2.4332  1.0050  3.8962
12512SOL     OW38636   4.039   0.239   7.372 -0.2522 -1.1776  0.2993
12512SOL    HW138637   3.976   0.175   7.402 -1.2939  0.1144  0.9540
12512SOL    HW238638   4.121   0.215   7.416 -1.5399  0.2537  3.8085
12513SOL     OW38639   2.442   3.780   4.074 -0.2806 -0.0194  0.4083
12513SOL    HW138640   2.469   3.696   4.036 -1.9555  0.3548 -1.8483
12513SOL    HW238641   2.519   3.836   4.063  1.0238 -1.2815  2.3590
12514SOL     OW38642   7.676   8.858   0.040 -0.1609  0.4646 -0.0510
12514SOL    HW138643   7.608   8.834   0.103 -0.2299 -2.2644 -1.0341
12514SOL    HW238644   7.758   8.850   0.090 -0.3099 -0.1900  0.0984
12515SOL     OW38645   2.756   2.889   2.954  0.1899 -0.3275  0.0481
12515SOL    HW138646   2.732   2.804   2.919 -0.9271  0.4490 -1.1711
12515SOL    HW238647   2.845   2.904   2.922  0.2063 -0.8023 -0.1369
12516SOL     OW38648   1.018   2.477   6.606 -0.1559 -0.2707 -0.0260
12516SOL    HW138649   1.037   2.567   6.578  0.7467 -0.7909 -1.1686
12516SOL    HW238650   0.925   2.478   6.629  0.0382  1.1603  0.8183
12517SOL     OW38651   2.446   8.851   3.330 -0.0107 -0.0408 -0.0592
12517SOL    HW138652   2.362   8.857   3.374 -0.6452 -3.1436 -0.6345
12517SOL    HW238653   2.429   8.881   3.240  0.1555  1.6579  0.4335
12518SOL     OW38654   8.004   0.880   3.377 -0.4761 -0.2895 -0.4475
12518SOL    HW138655   8.011   0.816   3.306 -1.0150 -0.2582 -0.5354
12518SOL    HW238656   8.083   0.932   3.371 -0.6512 -0.1068 -1.2054
12519SOL     OW38657   3.565   8.376   0.130 -0.2966  0.0187 -0.3731
12519SOL    HW138658   3.653   8.391   0.164 -0.5576 -1.4472  1.0916
12519SOL    HW238659   3.575   8.306   0.065 -0.8104 -3.4752  2.9675
12520SOL     OW38660   6.298   1.768   9.113  0.6451 -0.1349  0.1770
12520SOL    HW138661   6.233   1.701   9.094  1.6928 -1.2396  0.4028
12520SOL    HW238662   6.295   1.826   9.036 -0.0224 -0.6242 -0.1792
12521SOL     OW38663   7.173   0.763   8.418  0.1204 -0.1739  0.2264
12521SOL    HW138664   7.259   0.744   8.455 -0.2773 -1.8949  0.3336
12521SOL    HW238665   7.183   0.849   8.377  1.8920 -0.3624  0.2084
12522SOL     OW38666   2.774   7.912   2.209  0.3256 -0.1735 -0.1418
12522SOL    HW138667   2.795   7.993   2.162 -0.7467  1.0724  1.3711
12522SOL    HW238668   2.831   7.913   2.286  0.1889 -0.7642 -0.0286
12523SOL     OW38669   6.349   7.049   4.374  0.0550 -0.0243 -0.2263
12523SOL    HW138670   6.343   7.144   4.367  0.8989 -0.0097 -0.9166
12523SOL    HW238671   6.333   7.017   4.285  1.1965 -0.4339 -0.3053
12524SOL     OW38672   2.571   0.977   3.625  0.1821  0.6159 -0.3297
12524SOL    HW138673   2.564   0.992   3.719  1.6955  0.8525 -0.2213
12524SOL    HW238674   2.577   0.881   3.616  0.8946  0.6330 -0.0971
12525SOL     OW38675   0.130   4.517   0.550 -0.1660  0.8432 -0.5947
12525SOL    HW138676   0.103   4.595   0.600 -0.4370  0.9349 -0.8814
12525SOL    HW238677   0.093   4.443   0.599 -0.9750  0.9664 -0.9920
12526SOL     OW38678   4.140   0.022   3.227  0.0872 -0.1262 -0.3041
12526SOL    HW138679   4.164   0.115   3.235  0.1222 -0.0129 -1.5205
12526SOL    HW238680   4.224  -0.024   3.222  0.0822 -0.3245  1.1330
12527SOL     OW38681   8.144   0.986   0.229 -0.1371 -0.0491  0.0926
12527SOL    HW138682   8.120   0.934   0.153  0.9243  1.2521 -1.1937
12527SOL    HW238683   8.067   1.039   0.247 -0.1426  0.1754 -0.5677
12528SOL     OW38684   2.963   4.919   2.115 -0.3288 -0.1326  0.0656
12528SOL    HW138685   2.977   4.869   2.035  0.2077  1.1045 -0.6321
12528SOL    HW238686   3.005   4.866   2.183 -0.8917 -1.2515 -0.4219
12529SOL     OW38687   6.309   8.974   4.587 -0.4345 -0.7265 -0.4164
12529SOL    HW138688   6.261   9.051   4.557  0.7331 -0.0517 -0.6164
12529SOL    HW238689   6.250   8.901   4.569 -0.8007 -0.0802 -2.0017
12530SOL     OW38690   0.448   1.433   1.521 -0.1986 -0.0283 -0.1185
12530SOL    HW138691   0.469   1.406   1.432  0.0659 -1.8126  0.4355
12530SOL    HW238692   0.355   1.412   1.531 -0.2285  0.1686  0.0276
12531SOL     OW38693   8.142   4.734   4.508  0.3921 -0.1910 -0.5467
12531SOL    HW138694   8.058   4.723   4.463  0.4623  0.8078 -0.9501
12531SOL    HW238695   8.132   4.815   4.558  1.1237 -0.0444 -0.6253
12532SOL     OW38696   7.999   6.662   4.220  0.8485 -0.3835 -0.4775
12532SOL    HW138697   8.078   6.674   4.167  0.6299  0.3423 -0.6553
12532SOL    HW238698   7.985   6.747   4.262 -1.0918  0.2170 -2.1968
12533SOL     OW38699   5.470   7.907   0.923 -0.7842 -0.2004  0.0573
12533SOL    HW138700   5.555   7.907   0.966 -0.7600  2.2742  0.1841
12533SOL    HW238701   5.485   7.865   0.839  0.5562  0.1001  0.1244
12534SOL     OW38702   2.688   6.782   5.132  0.4030  0.1983 -0.7345
12534SOL    HW138703   2.747   6.820   5.197  0.1827  0.3923 -0.6468
12534SOL    HW238704   2.746   6.754   5.061  0.3813  3.0000 -1.9707
12535SOL     OW38705   7.275   6.907   2.421 -0.1249 -0.1929 -0.4360
12535SOL    HW138706   7.295   6.825   2.466 -1.0607  0.6243  1.6065
12535SOL    HW238707   7.354   6.959   2.429 -0.1589 -0.1980 -0.0646
12536SOL     OW38708   4.696   7.386   5.745 -0.3151  0.0137 -0.0405
12536SOL    HW138709   4.623   7.323   5.743 -0.9823  0.6483  1.8780
12536SOL    HW238710   4.729   7.381   5.835  1.0806  0.8153 -0.4768
12537SOL     OW38711   2.169   2.317   5.360  0.1443 -0.0557  0.1066
12537SOL    HW138712   2.124   2.259   5.423  1.5806  0.3718  1.5761
12537SOL    HW238713   2.150   2.405   5.391 -0.6611  0.2482 -1.1736
12538SOL     OW38714   1.117   4.326   3.150 -0.7484 -0.2335  0.3147
12538SOL    HW138715   1.161   4.360   3.227 -1.5360 -0.4686  0.8831
12538SOL    HW238716   1.024   4.325   3.174 -0.7599 -2.9429  0.4008
12539SOL     OW38717   6.611   2.193   4.006 -0.5546  0.3876 -0.6237
12539SOL    HW138718   6.700   2.211   4.037 -0.1148  1.1626 -2.2210
12539SOL    HW238719   6.622   2.131   3.935 -1.3738 -0.0757 -0.3587
12540SOL     OW38720   5.149   0.809   4.970  0.2612 -0.0522 -0.2769
12540SOL    HW138721   5.237   0.776   4.957 -0.0970 -0.5223 -1.6520
12540SOL    HW238722   5.149   0.896   4.930  0.2294  0.1740  0.1963
12541SOL     OW38723   8.329   6.832   6.295 -0.3958 -0.0636  0.5917
12541SOL    HW138724   8.254   6.843   6.354 -2.9792 -0.0240 -2.4500
12541SOL    HW238725   8.338   6.916   6.251  0.9043 -0.3381  0.2944
12542SOL     OW38726   5.290   2.267   1.373 -0.0314  0.1064  0.0884
12542SOL    HW138727   5.246   2.247   1.455  0.6669 -0.0752  0.4234
12542SOL    HW238728   5.363   2.324   1.397  0.9616 -0.9932 -0.2165
12543SOL     OW38729   8.015   7.167   3.894 -0.1575 -0.4184  0.4576
12543SOL    HW138730   8.099   7.154   3.939  0.8291 -1.8558 -1.5950
12543SOL    HW238731   7.968   7.084   3.906 -0.8459  0.0037  0.7156
12544SOL     OW38732   6.162   1.833   6.352 -0.4306 -0.0096  0.4639
12544SOL    HW138733   6.215   1.912   6.365 -0.0668 -0.2539  0.4983
12544SOL    HW238734   6.156   1.823   6.257 -1.8947  0.9889  0.4317
12545SOL     OW38735   6.506   8.514   5.957 -0.2569 -0.3323 -0.1767
12545SOL    HW138736   6.539   8.538   6.044 -1.1714  0.6418 -0.0757
12545SOL    HW238737   6.442   8.583   5.936  0.1827 -0.3698 -1.7625
12546SOL     OW38738   8.475   0.595   3.623  0.3750  0.4913  0.1160
12546SOL    HW138739   8.457   0.558   3.536  0.7875  0.0249  0.2217
12546SOL    HW238740   8.389   0.598   3.666  0.3611 -0.5774  0.1875
12547SOL     OW38741   2.700   7.102   3.903  0.0695 -0.0770  0.0914
12547SOL    HW138742   2.722   7.070   3.991 -0.0837 -2.0181 -0.5156
12547SOL    HW238743   2.726   7.030   3.845 -1.7638  0.2722 -1.2546
12548SOL     OW38744   1.201   5.307   5.264  0.4219  0.1244  0.1237
12548SOL    HW138745   1.183   5.369   5.335 -1.1990 -0.1210 -0.0351
12548SOL    HW238746   1.256   5.357   5.202 -0.9415  1.4806 -0.0587
12549SOL     OW38747   3.795   5.234   2.408  0.0689 -0.0310  0.1382
12549SOL    HW138748   3.735   5.222   2.335 -0.4889  0.5397  0.4892
12549SOL    HW238749   3.878   5.260   2.368 -0.0263 -0.4257 -0.3229
12550SOL     OW38750   2.404   6.343   4.798 -0.2548  0.7864 -0.3474
12550SOL    HW138751   2.461   6.408   4.838  0.7353 -1.1632  1.6683
12550SOL    HW238752   2.351   6.392   4.736  0.1991  3.5564  1.2813
12551SOL     OW38753   5.852   8.326   8.418 -0.2522  0.0446 -0.3359
12551SOL    HW138754   5.856   8.403   8.361  0.9079  0.5143  0.3324
12551SOL    HW238755   5.914   8.264   8.379 -0.8004 -0.3527 -0.5842
12552SOL     OW38756   2.830   4.811   0.374  0.3130 -0.6102  0.2010
12552SOL    HW138757   2.862   4.731   0.415  1.9808 -1.2186 -2.0462
12552SOL    HW238758   2.853   4.801   0.281 -1.6631  1.3948 -0.6106
12553SOL     OW38759   8.909   1.385   6.871  0.3310  0.4423  0.0179
12553SOL    HW138760   8.955   1.367   6.789 -0.1550 -0.6109 -0.0450
12553SOL    HW238761   8.977   1.383   6.938  0.5106 -0.2336 -0.1788
12554SOL     OW38762   0.621   4.331   1.196  0.1822 -0.6384  0.4507
12554SOL    HW138763   0.673   4.402   1.159 -0.0935 -0.1104  1.0762
12554SOL    HW238764   0.546   4.324   1.137  1.5775 -2.3255 -1.2808
12555SOL     OW38765   6.952   1.208   1.427  0.3116  0.1147  0.0797
12555SOL    HW138766   6.994   1.242   1.506  2.4150 -0.2457 -0.7979
12555SOL    HW238767   7.004   1.130   1.405 -2.1450 -1.6031  0.0343
12556SOL     OW38768   4.993   2.000   2.940  0.2702  0.5258  0.1451
12556SOL    HW138769   4.997   1.932   3.007  0.6046  2.2350  1.9480
12556SOL    HW238770   5.061   1.975   2.877  1.4049 -0.0494  1.5368
12557SOL     OW38771   0.782   4.014   6.548  0.5121  0.1672 -0.4774
12557SOL    HW138772   0.745   3.947   6.490  0.2730 -0.8866  0.8584
12557SOL    HW238773   0.706   4.066   6.576  0.8115  1.7728 -2.3690
12558SOL     OW38774   6.338   5.375   7.298  0.2172 -0.2040  0.0839
12558SOL    HW138775   6.390   5.323   7.235  0.7951  0.2881  0.1434
12558SOL    HW238776   6.363   5.466   7.280  1.4517 -0.1239  1.9449
12559SOL     OW38777   6.049   8.516   0.688  0.5201 -0.0021 -0.1297
12559SOL    HW138778   6.058   8.477   0.601  1.5016 -1.4732  0.5760
12559SOL    HW238779   5.971   8.476   0.725  0.9939 -0.5918  0.2447
12560SOL     OW38780   4.829   6.307   6.230 -0.0559  0.0086  0.1454
12560SOL    HW138781   4.832   6.265   6.316  2.3794 -0.2687  0.0060
12560SOL    HW238782   4.799   6.238   6.171  0.8656 -0.6326  0.3961
12561SOL     OW38783   8.711   4.794   3.790 -0.0643  0.4997 -0.4034
12561SOL    HW138784   8.768   4.786   3.713 -0.0031 -0.7139 -0.2507
12561SOL    HW238785   8.771   4.815   3.862  0.0871  0.0074 -0.3863
12562SOL     OW38786   6.891   6.832   6.237  0.2083 -0.3143  0.3786
12562SOL    HW138787   6.882   6.912   6.186 -2.3275  0.0371  1.2141
12562SOL    HW238788   6.876   6.861   6.328  2.3176 -1.2861  1.0992
12563SOL     OW38789   2.530   8.534   1.961  1.1616  0.2021 -0.1804
12563SOL    HW138790   2.559   8.590   1.888  0.6907 -0.2556 -0.7318
12563SOL    HW238791   2.435   8.538   1.958  1.1132 -0.8140 -0.3881
12564SOL     OW38792   3.011   6.636   5.976 -0.5540 -0.5654 -0.2220
12564SOL    HW138793   3.068   6.618   6.052  0.2909  1.6722 -0.2441
12564SOL    HW238794   3.070   6.634   5.901 -0.9563 -0.5345 -0.5409
12565SOL     OW38795   3.329   8.060   1.392 -0.2614  0.0477 -0.0779
12565SOL    HW138796   3.366   8.129   1.447  2.2149 -0.1998 -1.2608
12565SOL    HW238797   3.238   8.053   1.419  0.2373  1.5621  2.2761
12566SOL     OW38798   8.965   2.809   6.743  0.2909  0.1008 -1.1717
12566SOL    HW138799   8.948   2.903   6.733 -0.1086 -0.0102 -1.5977
12566SOL    HW238800   9.003   2.783   6.659 -1.4864 -0.5109 -1.8296
12567SOL     OW38801   1.273   4.612   9.038  0.5264 -0.7651  0.3916
12567SOL    HW138802   1.185   4.647   9.021  0.6228 -0.4043  0.6338
12567SOL    HW238803   1.270   4.524   9.001  0.1673 -0.6353  0.0932
12568SOL     OW38804   5.327   8.922   7.008  0.6025  0.0645 -0.4253
12568SOL    HW138805   5.417   8.932   6.979  0.4599  0.7091 -0.6568
12568SOL    HW238806   5.286   9.006   6.989 -0.5020 -0.7643 -1.8976
12569SOL     OW38807   0.910   0.611   4.165 -0.5028  0.1784 -0.0066
12569SOL    HW138808   0.824   0.598   4.125 -1.2927  3.1536  0.5211
12569SOL    HW238809   0.930   0.704   4.151  1.8455 -0.0173  1.4264
12570SOL     OW38810   5.929   8.291   6.378  0.0535 -0.4028 -0.2926
12570SOL    HW138811   5.854   8.244   6.416 -0.7259  0.8646 -0.2140
12570SOL    HW238812   5.975   8.328   6.454 -0.7826  1.0611 -0.4659
12571SOL     OW38813   4.283   0.012   8.715 -0.0014  0.4053  0.2916
12571SOL    HW138814   4.335   0.092   8.721 -2.0774  1.7794  0.8940
12571SOL    HW238815   4.318  -0.045   8.783  1.4048  0.8367 -0.0397
12572SOL     OW38816   1.653   1.491   2.136 -0.6978  0.5828 -0.0645
12572SOL    HW138817   1.579   1.451   2.089 -0.9146 -0.4476  1.0970
12572SOL    HW238818   1.612   1.538   2.208 -0.2828  0.9857 -0.0938
12573SOL     OW38819   4.351   4.336   5.759 -0.6776  0.4396  0.1576
12573SOL    HW138820   4.256   4.329   5.766 -0.8262 -0.9299 -2.2538
12573SOL    HW238821   4.377   4.261   5.704  1.7873  0.8467  0.6376
12574SOL     OW38822   6.357   6.234   3.394 -0.3792  0.4612  0.1701
12574SOL    HW138823   6.393   6.279   3.471  0.6514 -0.1770  0.0771
12574SOL    HW238824   6.273   6.277   3.379 -1.1883 -0.2166  2.3849
12575SOL     OW38825   1.486   0.612   6.344 -0.1862 -0.0699  0.3986
12575SOL    HW138826   1.549   0.680   6.322  0.4004 -0.9924 -0.9301
12575SOL    HW238827   1.536   0.549   6.396 -0.3410 -0.1885  0.4041
12576SOL     OW38828   6.532   1.726   4.151 -0.4335 -0.3903  0.0043
12576SOL    HW138829   6.560   1.789   4.217 -0.4591 -0.0681 -0.2922
12576SOL    HW238830   6.473   1.775   4.094 -0.7883 -0.7942  0.0186
12577SOL     OW38831   5.760   1.548   5.662 -0.5136  0.1596 -0.7274
12577SOL    HW138832   5.748   1.475   5.600 -0.5790  1.5772 -2.4727
12577SOL    HW238833   5.674   1.560   5.702 -1.1184  0.7044 -2.1252
12578SOL     OW38834   3.586   7.629   0.931  0.5209  0.2947 -0.4559
12578SOL    HW138835   3.505   7.608   0.977 -0.2605  1.3340 -1.2917
12578SOL    HW238836   3.557   7.653   0.843  1.8873 -0.8246 -1.2480
12579SOL     OW38837   3.806   6.484   1.843  0.1231  0.1275 -0.0658
12579SOL    HW138838   3.722   6.498   1.799 -0.3900 -0.3783  0.7380
12579SOL    HW238839   3.823   6.567   1.889 -0.3312 -0.0419  0.4156
12580SOL     OW38840   1.730   6.583   6.335  0.1342  0.3838 -0.1229
12580SOL    HW138841   1.732   6.495   6.296 -3.7651 -0.3028  0.7438
12580SOL    HW238842   1.666   6.630   6.282  0.4184  1.9381  0.8784
12581SOL     OW38843   3.210   0.822   6.092  0.4044  0.0721 -0.1410
12581SOL    HW138844   3.167   0.862   6.017 -1.0156 -2.5221 -0.8539
12581SOL    HW238845   3.300   0.807   6.064  0.1530  0.0457 -0.9496
12582SOL     OW38846   6.182   8.987   1.511  0.2953  0.3817  0.1910
12582SOL    HW138847   6.145   9.052   1.571 -2.3602  0.3713 -1.2668
12582SOL    HW238848   6.152   8.903   1.546  1.0478  0.1547  0.3153
12583SOL     OW38849   3.216   0.375   4.905  0.0842 -0.3364 -0.3530
12583SOL    HW138850   3.211   0.470   4.900  0.9059 -0.2929 -0.5584
12583SOL    HW238851   3.285   0.358   4.969  0.3717 -0.7850 -0.7737
12584SOL     OW38852   1.950   4.329   0.218  0.4430 -0.0853  0.0920
12584SOL    HW138853   1.861   4.311   0.189  1.1085 -1.8227 -1.0251
12584SOL    HW238854   1.939   4.387   0.293 -1.8301 -2.5456  1.8728
12585SOL     OW38855   4.213   4.644   2.647 -0.1405  0.2062 -0.3365
12585SOL    HW138856   4.235   4.652   2.554 -1.4119  0.5593 -0.6254
12585SOL    HW238857   4.156   4.567   2.652 -0.3679  0.3978  0.0897
12586SOL     OW38858   1.448   3.718   7.618  0.2129 -0.1588 -0.2627
12586SOL    HW138859   1.464   3.690   7.528 -2.6762  4.7910 -2.7621
12586SOL    HW238860   1.534   3.745   7.650  0.9192  1.1213 -2.9589
12587SOL     OW38861   6.429   3.460   8.471 -0.5827  0.6927  0.1205
12587SOL    HW138862   6.376   3.430   8.397  0.4644 -2.7704  0.5943
12587SOL    HW238863   6.372   3.449   8.547  0.0157 -0.9350  0.3741
12588SOL     OW38864   8.214   6.771   8.654  0.3849 -1.0317  0.5980
12588SOL    HW138865   8.153   6.839   8.627  2.1990  0.0276 -1.0307
12588SOL    HW238866   8.232   6.722   8.574  0.5436 -2.2890  1.3689
12589SOL     OW38867   4.955   6.842   7.177  0.3020 -0.7509 -0.1480
12589SOL    HW138868   4.914   6.755   7.181 -0.8656 -0.1882  0.6727
12589SOL    HW238869   5.020   6.841   7.248  0.1967 -0.9135 -0.0531
12590SOL     OW38870   3.334   6.027   1.097  0.0207 -0.3842  0.0496
12590SOL    HW138871   3.324   5.961   1.165 -0.6140  0.9727  1.3516
12590SOL    HW238872   3.321   5.980   1.015  0.5390 -2.0257  0.8730
12591SOL     OW38873   6.362   3.819   5.297  0.0354 -0.1650 -0.3385
12591SOL    HW138874   6.405   3.830   5.212  0.0244  0.8685 -0.2260
12591SOL    HW238875   6.271   3.798   5.276 -0.1692  0.9234 -0.6049
12592SOL     OW38876   3.706   7.003   4.614  0.1584 -0.5590 -0.3297
12592SOL    HW138877   3.638   7.037   4.671  0.4493 -0.7736  0.1490
12592SOL    HW238878   3.754   7.081   4.585 -0.7235 -0.3402 -1.2440
12593SOL     OW38879   2.079   3.824   8.346 -0.1524 -0.3338  0.4269
12593SOL    HW138880   2.147   3.887   8.323  0.9675 -1.2634  1.0897
12593SOL    HW238881   2.074   3.828   8.442 -3.0470  1.7499  0.3140
12594SOL     OW38882   5.178   1.574   3.148  0.6521  0.9628  0.8367
12594SOL    HW138883   5.164   1.479   3.141 -0.9801  1.1575  1.2267
12594SOL    HW238884   5.234   1.583   3.225 -1.7930  0.4679  2.7982
12595SOL     OW38885   1.614   5.935   4.661 -0.1634 -0.1122 -0.0041
12595SOL    HW138886   1.670   5.949   4.738  0.2363  1.0264 -0.4909
12595SOL    HW238887   1.628   5.843   4.638  0.4429 -0.2068  0.7083
12596SOL     OW38888   9.082   6.056   5.471 -0.1730  0.5003  0.0056
12596SOL    HW138889   9.167   6.082   5.508 -0.5943  0.1947  1.2420
12596SOL    HW238890   9.043   6.138   5.442  0.9959  0.5313 -1.6306
12597SOL     OW38891   1.059   2.611   5.099 -0.2379  0.4430 -0.5099
12597SOL    HW138892   1.038   2.695   5.142 -1.0302 -0.3771  0.7836
12597SOL    HW238893   1.149   2.593   5.125  0.2647  1.3233 -1.5640
12598SOL     OW38894   6.615   1.985   8.988  0.3741 -0.1188  0.1569
12598SOL    HW138895   6.700   1.969   8.947  0.5999  0.7360  0.2730
12598SOL    HW238896   6.616   2.078   9.011 -0.7288 -0.0076 -0.1530
12599SOL     OW38897   0.664   3.501   2.480 -0.2027 -0.6309 -0.2864
12599SOL    HW138898   0.667   3.546   2.395 -0.6527 -0.2369 -0.0928
12599SOL    HW238899   0.746   3.527   2.523  1.5324 -3.1537 -1.7562
12600SOL     OW38900   7.209   8.078   6.020  0.3269 -0.4658 -0.2138
12600SOL    HW138901   7.219   8.172   6.028 -0.0448 -0.3738 -0.8065
12600SOL    HW238902   7.186   8.063   5.928 -1.4639 -0.9629  0.2711
12601SOL     OW38903   0.497   1.682   3.804 -0.1219  0.1915  0.0156
12601SOL    HW138904   0.534   1.600   3.837 -1.1330 -0.2443  0.0870
12601SOL    HW238905   0.447   1.717   3.878  0.0412  0.7150 -0.1207
12602SOL     OW38906   2.576   6.714   6.034 -0.3156  0.6025  0.3223
12602SOL    HW138907   2.654   6.658   6.031 -1.2708 -0.7312 -2.1395
12602SOL    HW238908   2.593   6.782   5.970 -0.0694  1.9893  1.7951
12603SOL     OW38909   1.660   2.245   3.993 -0.2114 -0.2458  0.4624
12603SOL    HW138910   1.705   2.259   4.076 -0.4016  1.3797  0.3226
12603SOL    HW238911   1.602   2.321   3.984  0.1327 -0.1534 -1.3590
12604SOL     OW38912   2.905   9.049   5.280 -0.6156  0.0410 -0.0451
12604SOL    HW138913   2.816   9.041   5.316  0.1633 -0.8367  1.8050
12604SOL    HW238914   2.919   8.966   5.234 -0.1482 -0.5694  1.1626
12605SOL     OW38915   3.232   9.096   5.800 -0.4516  0.6818 -0.2303
12605SOL    HW138916   3.188   9.012   5.814 -0.5583  0.2822 -2.5342
12605SOL    HW238917   3.164   9.161   5.814 -1.2490  0.1815 -1.6001
12606SOL     OW38918   5.563   5.012   6.824 -0.1646  0.1898 -0.0602
12606SOL    HW138919   5.535   5.099   6.852 -1.3977  0.8090 -2.9620
12606SOL    HW238920   5.481   4.966   6.803  0.5987 -0.7141 -1.1523
12607SOL     OW38921   0.377   9.006   9.090  0.5083 -0.8081 -0.3611
12607SOL    HW138922   0.442   9.061   9.134 -1.7422  0.6341  1.3714
12607SOL    HW238923   0.404   8.916   9.111  1.4827 -0.2287  1.0254
12608SOL     OW38924   3.473   5.252   8.509  0.5317 -0.1590 -0.1812
12608SOL    HW138925   3.505   5.340   8.529  1.6443 -0.9778  1.9522
12608SOL    HW238926   3.491   5.201   8.588 -3.2542 -1.5060  0.0116
12609SOL     OW38927   1.798   1.080   8.802 -0.0156 -0.0100 -0.3079
12609SOL    HW138928   1.790   1.136   8.725  1.0973  1.0978  0.3621
12609SOL    HW238929   1.746   1.124   8.869  0.2991 -0.1433  0.0257
12610SOL     OW38930   7.589   3.012   2.799  0.3201 -0.3960 -0.2288
12610SOL    HW138931   7.677   2.985   2.775  0.4183  1.4975 -2.3203
12610SOL    HW238932   7.569   2.961   2.878  2.6130 -2.0801 -0.6286
12611SOL     OW38933   0.892   5.984   0.123  0.5941  0.6888  0.1238
12611SOL    HW138934   0.934   5.899   0.110  0.4602  0.3598  1.7085
12611SOL    HW238935   0.837   5.995   0.046  0.3661 -0.8123  0.0437
12612SOL     OW38936   1.576   7.302   2.519  0.1867  0.5645  0.1173
12612SOL    HW138937   1.517   7.248   2.571 -0.4940  0.7393 -0.4521
12612SOL    HW238938   1.636   7.341   2.582 -1.2403  1.5859  0.9074
12613SOL     OW38939   9.051   0.775   6.618  0.1118 -0.1232  0.4139
12613SOL    HW138940   9.038   0.735   6.704  2.8249 -2.0879  0.0443
12613SOL    HW238941   9.040   0.703   6.556 -1.1743  1.1308 -0.8978
12614SOL     OW38942   6.826   7.518   4.479 -0.1745  0.2469 -0.1330
12614SOL    HW138943   6.756   7.461   4.511 -0.1609  0.6646  0.6537
12614SOL    HW238944   6.790   7.558   4.400 -0.4961 -0.1993 -0.2185
12615SOL     OW38945   8.521   4.168   3.312 -0.2584  0.3448  0.3148
12615SOL    HW138946   8.426   4.175   3.311 -0.2908  0.0708  1.2952
12615SOL    HW238947   8.542   4.126   3.395  0.7287  0.5462  0.1834
12616SOL     OW38948   8.097   5.013   4.981 -0.4680  0.0295  0.1024
12616SOL    HW138949   8.018   4.985   5.028 -0.4555 -0.2831 -0.0603
12616SOL    HW238950   8.169   4.985   5.038 -0.4995  1.4017  0.8427
12617SOL     OW38951   5.548   1.972   6.385 -0.2146 -0.0309 -0.2968
12617SOL    HW138952   5.616   2.021   6.431  0.1182  0.4251 -1.2471
12617SOL    HW238953   5.503   1.922   6.454  1.5635 -0.9455  0.2618
12618SOL     OW38954   7.742   3.400   7.230  0.5800 -0.8615 -0.0430
12618SOL    HW138955   7.723   3.307   7.217 -0.8736 -0.7185  0.8627
12618SOL    HW238956   7.788   3.426   7.150 -1.2424 -1.7715 -1.4585
12619SOL     OW38957   6.390   2.847   2.985  0.0211 -0.6589 -0.2965
12619SOL    HW138958   6.363   2.797   3.062 -0.0110 -1.5034 -0.8378
12619SOL    HW238959   6.453   2.790   2.940  1.3172  0.5204 -0.0203
12620SOL     OW38960   6.817   4.112   3.119  0.0433 -0.2050 -0.0081
12620SOL    HW138961   6.740   4.086   3.069  0.3759  0.3930 -0.8683
12620SOL    HW238962   6.821   4.051   3.192 -1.3545 -0.1253  0.1593
12621SOL     OW38963   6.229   5.726   8.757  0.3197 -0.3076  1.2060
12621SOL    HW138964   6.296   5.665   8.786  0.2138 -1.2720 -0.4465
12621SOL    HW238965   6.242   5.734   8.663 -1.7059 -0.3154  0.8737
12622SOL     OW38966   7.567   3.946   2.887  0.4894 -0.0625 -0.0960
12622SOL    HW138967   7.614   3.960   2.969  0.8314 -0.7506 -0.1652
12622SOL    HW238968   7.501   3.880   2.909  0.6833 -0.3615 -0.4039
12623SOL     OW38969   6.587   2.076   0.834  0.2392  0.0610  0.3761
12623SOL    HW138970   6.580   2.114   0.746 -1.2061  1.2354  0.9622
12623SOL    HW238971   6.648   2.133   0.880  2.2939 -1.4899 -0.2885
12624SOL     OW38972   5.931   4.858   6.722 -0.0452  0.3277  0.0053
12624SOL    HW138973   5.993   4.926   6.695 -0.0318  0.2128 -0.2523
12624SOL    HW238974   5.943   4.787   6.659 -1.1158  0.6915 -0.6280
12625SOL     OW38975   3.262   7.968   7.482  0.3957  0.1685 -0.6740
12625SOL    HW138976   3.321   8.010   7.420  0.8990  1.5324  0.6457
12625SOL    HW238977   3.175   7.997   7.456  0.3997 -0.8276 -1.8648
12626SOL     OW38978   3.975   1.021   9.130  0.0031  0.0376 -0.0619
12626SOL    HW138979   4.017   1.093   9.177 -0.0973  0.5471 -0.7261
12626SOL    HW238980   3.906   1.064   9.078  0.4183 -0.4274 -1.0229
12627SOL     OW38981   4.721   4.734   2.047  0.3650  0.5335 -0.3497
12627SOL    HW138982   4.636   4.778   2.036  0.3143  0.7020  0.6006
12627SOL    HW238983   4.714   4.690   2.132  1.6395  1.5480  0.3214
12628SOL     OW38984   3.973   2.108   9.120  0.0422 -0.1248  0.2399
12628SOL    HW138985   3.971   2.135   9.029 -0.3348 -1.2246 -0.0998
12628SOL    HW238986   4.051   2.150   9.157 -1.9516  3.7137  0.5574
12629SOL     OW38987   2.708   7.327   4.131 -0.5777  0.5345 -0.6554
12629SOL    HW138988   2.660   7.259   4.177 -2.2285  1.5007 -0.8809
12629SOL    HW238989   2.750   7.378   4.200 -2.0428  1.2450 -0.2530
12630SOL     OW38990   2.635   7.437   1.736  0.0030 -0.8015  0.1270
12630SOL    HW138991   2.651   7.521   1.693 -0.4862  0.4442  2.2797
12630SOL    HW238992   2.719   7.413   1.775  0.2908 -1.6407 -0.9378
12631SOL     OW38993   0.863   0.679   3.417  0.3131  0.4528 -0.6100
12631SOL    HW138994   0.858   0.614   3.487  1.2833  0.6061 -0.3795
12631SOL    HW238995   0.924   0.745   3.450 -2.4895  2.8523  0.2535
12632SOL     OW38996   0.735   7.475   7.591  0.1886 -0.5897 -0.3890
12632SOL    HW138997   0.688   7.536   7.534 -1.0029  0.0577  1.2032
12632SOL    HW238998   0.704   7.388   7.564  1.6852 -0.5471 -2.4860
12633SOL     OW38999   1.727   5.189   5.747 -0.1375 -0.0711  0.5576
12633SOL    HW139000   1.749   5.278   5.719  2.3042 -0.8211 -0.1808
12633SOL    HW239001   1.690   5.200   5.834 -1.3020  1.7710 -0.1055
12634SOL     OW39002   4.832   4.412   0.315  0.1726 -0.3062 -0.2665
12634SOL    HW139003   4.812   4.451   0.400 -0.3555 -0.3472 -0.3712
12634SOL    HW239004   4.811   4.319   0.325 -2.0099  0.0534 -1.0951
12635SOL     OW39005   0.563   7.495   6.875 -0.1581  0.6486  0.4670
12635SOL    HW139006   0.655   7.471   6.870 -0.0370  1.1586  0.2918
12635SOL    HW239007   0.561   7.576   6.925 -0.6567 -0.2023  1.8937
12636SOL     OW39008   0.631   7.806   8.725  0.1124  0.0408  0.0253
12636SOL    HW139009   0.689   7.881   8.741  0.0617 -0.2683  1.8210
12636SOL    HW239010   0.676   7.732   8.767 -1.9292 -0.0532  2.1885
12637SOL     OW39011   2.851   5.792   0.497  0.0781 -0.1088  0.2029
12637SOL    HW139012   2.888   5.795   0.409 -0.4545  2.3878 -0.0125
12637SOL    HW239013   2.881   5.873   0.539 -2.3879  0.4386  1.1168
12638SOL     OW39014   7.432   0.050   2.358 -0.4852  0.4101  0.5085
12638SOL    HW139015   7.364  -0.001   2.314  0.1030  0.1872 -0.1615
12638SOL    HW239016   7.450   0.121   2.298  0.8531 -0.3098  0.0275
12639SOL     OW39017   1.260   1.770   6.276  0.2217  0.5824  0.2644
12639SOL    HW139018   1.172   1.762   6.312  0.9580 -0.8756  1.8679
12639SOL    HW239019   1.276   1.864   6.273 -1.2850  0.8648  0.1531
12640SOL     OW39020   7.691   5.415   2.464  0.2257 -0.3206  0.1239
12640SOL    HW139021   7.619   5.420   2.527 -0.3360 -0.5453 -0.4831
12640SOL    HW239022   7.748   5.488   2.487 -0.9979  0.8207 -0.3187
12641SOL     OW39023   5.057   6.504   1.921 -0.4954  0.0024 -0.6702
12641SOL    HW139024   5.058   6.590   1.963 -2.3294 -0.1739 -0.1852
12641SOL    HW239025   5.098   6.445   1.985 -1.2590  0.1333 -0.0470
12642SOL     OW39026   0.493   4.754   1.652 -0.6043 -0.0143 -0.2229
12642SOL    HW139027   0.480   4.720   1.564  0.5871 -2.3953  0.4247
12642SOL    HW239028   0.432   4.703   1.706  0.9744 -0.9501  0.7451
12643SOL     OW39029   6.924   1.606   6.731 -0.3690  0.2652  0.0949
12643SOL    HW139030   6.928   1.542   6.660  1.8517  2.1225 -1.6124
12643SOL    HW239031   6.979   1.568   6.800 -0.0176 -0.1707 -0.4187
12644SOL     OW39032   2.452   2.779   3.799 -0.3150  0.6182 -0.0117
12644SOL    HW139033   2.514   2.851   3.785  0.2259 -0.1926 -2.2726
12644SOL    HW239034   2.504   2.710   3.840 -0.3672  0.8419  0.4341
12645SOL     OW39035   2.823   5.082   4.686 -0.0457  0.1139 -0.1548
12645SOL    HW139036   2.783   5.167   4.669  0.8350  1.0430  2.0736
12645SOL    HW239037   2.889   5.072   4.617 -0.4873  0.9909 -0.7240
12646SOL     OW39038   7.913   7.635   6.821  0.1490 -0.4585  0.2735
12646SOL    HW139039   7.966   7.715   6.813 -0.3772 -0.1563 -0.3675
12646SOL    HW239040   7.925   7.591   6.737 -0.0118 -0.7689  0.4139
12647SOL     OW39041   2.253   4.963   8.250  0.4422 -0.0507 -0.0516
12647SOL    HW139042   2.207   5.013   8.316 -2.6105 -2.7938  0.1643
12647SOL    HW239043   2.311   4.905   8.299  2.3396  1.6426 -0.1889
12648SOL     OW39044   2.290   6.948   5.677  0.1162  0.3965 -0.0783
12648SOL    HW139045   2.261   6.865   5.640  0.1524 -1.2352  3.2186
12648SOL    HW239046   2.337   6.991   5.606  0.2191 -2.4400 -1.8719
12649SOL     OW39047   8.602   3.432   0.151  0.1749  0.3623 -0.1890
12649SOL    HW139048   8.578   3.521   0.125 -0.2403  0.9131  1.9176
12649SOL    HW239049   8.656   3.443   0.229  0.5770 -1.2255 -0.1998
12650SOL     OW39050   5.929   1.735   2.809 -0.2271  0.2457 -0.1177
12650SOL    HW139051   5.999   1.710   2.869  0.9317  0.2929 -1.4195
12650SOL    HW239052   5.929   1.668   2.741  1.6875  2.5603 -2.6296
12651SOL     OW39053   7.034   7.341   4.705 -0.2966 -0.4819  0.1275
12651SOL    HW139054   7.089   7.266   4.684 -0.7075 -0.8548  0.3723
12651SOL    HW239055   6.957   7.304   4.747  0.8877  0.2882  3.2292
12652SOL     OW39056   7.058   6.996   7.760  0.2605 -0.4701 -0.1337
12652SOL    HW139057   7.109   6.916   7.778  0.7994 -0.7647 -2.6499
12652SOL    HW239058   6.985   6.966   7.706 -0.8882  0.4230  0.8837
12653SOL     OW39059   2.832   8.045   7.121 -0.2197  0.1366 -0.0593
12653SOL    HW139060   2.752   8.068   7.073  1.5947  3.0448 -1.9627
12653SOL    HW239061   2.825   8.093   7.203 -1.0552 -0.8236  0.4526
12654SOL     OW39062   6.808   8.478   1.060 -0.0859 -0.1437  0.1492
12654SOL    HW139063   6.802   8.517   1.148  1.3718  0.6465 -0.0865
12654SOL    HW239064   6.887   8.425   1.063  0.2358  0.2771 -0.8488
12655SOL     OW39065   6.624   3.488   5.191 -0.5390  0.3654 -0.0579
12655SOL    HW139066   6.615   3.498   5.096  0.8459 -1.1951 -0.3816
12655SOL    HW239067   6.534   3.487   5.223 -1.1043 -0.9083 -1.5741
12656SOL     OW39068   4.481   8.493   7.269 -0.0885 -0.1895  0.1407
12656SOL    HW139069   4.529   8.509   7.188  0.2208  0.5559  0.4640
12656SOL    HW239070   4.523   8.416   7.308  2.4327  1.7597  1.5801
12657SOL     OW39071   4.088   5.745   8.102  0.2660 -0.1820 -0.7079
12657SOL    HW139072   4.075   5.748   8.197  0.9081 -1.0592 -0.5907
12657SOL    HW239073   4.000   5.756   8.066 -0.0923 -0.6458  0.0047
12658SOL     OW39074   5.308   2.420   3.894 -0.0916 -0.2663 -0.0114
12658SOL    HW139075   5.369   2.351   3.870 -0.5897 -1.0410  0.8813
12658SOL    HW239076   5.296   2.471   3.814 -0.8010 -2.0514 -1.0986
12659SOL     OW39077   8.683   7.297   1.948  0.1403 -0.3366  0.2854
12659SOL    HW139078   8.752   7.236   1.922  0.9445  1.3078 -1.6520
12659SOL    HW239079   8.605   7.241   1.960  0.7563 -1.7325 -1.7090
12660SOL     OW39080   1.974   0.085   8.864  0.2744 -0.4089  0.0872
12660SOL    HW139081   1.976   0.124   8.776  0.5529  1.0264  0.7043
12660SOL    HW239082   1.897   0.124   8.905  1.6599  1.0864  1.4038
12661SOL     OW39083   0.009   1.613   5.476  0.1243  0.1611 -0.3148
12661SOL    HW139084   0.010   1.550   5.548 -1.5198  0.4406 -0.0089
12661SOL    HW239085  -0.065   1.586   5.421 -0.7443  1.8987 -0.0671
12662SOL     OW39086   5.157   1.411   6.909 -0.2650 -0.6847  0.0216
12662SOL    HW139087   5.206   1.490   6.887  0.2717 -1.0727 -0.2132
12662SOL    HW239088   5.175   1.351   6.836 -3.6177  0.2180 -1.7773
12663SOL     OW39089   0.245   0.788   3.905 -0.1422  0.6418 -0.4658
12663SOL    HW139090   0.189   0.848   3.954 -0.9790 -1.0615  0.7651
12663SOL    HW239091   0.185   0.734   3.854  0.5643  0.5459 -1.2364
12664SOL     OW39092   1.112   8.425   6.372  0.1159 -0.1590 -0.9473
12664SOL    HW139093   1.160   8.425   6.455 -1.4345 -0.9739 -0.0151
12664SOL    HW239094   1.064   8.343   6.372 -1.5281  0.7550 -1.6756
12665SOL     OW39095   8.887   1.717   2.119 -0.0959 -0.4480  0.2331
12665SOL    HW139096   8.942   1.691   2.193  0.4460  0.2524  0.0896
12665SOL    HW239097   8.893   1.643   2.058  0.0544 -0.7139  0.5626
12666SOL     OW39098   7.411   3.877   5.756 -0.6408  0.2172  0.2558
12666SOL    HW139099   7.327   3.919   5.736 -1.5616 -1.4835  0.4435
12666SOL    HW239100   7.395   3.784   5.745  0.6599 -0.3107  2.3197
12667SOL     OW39101   7.389   6.467   5.709 -0.2876  0.2307  0.0440
12667SOL    HW139102   7.442   6.542   5.684 -0.1932 -0.1845 -1.0646
12667SOL    HW239103   7.299   6.497   5.698 -0.2660  0.4288  0.3852
12668SOL     OW39104   1.947   8.159   1.663 -0.5918  0.3713 -0.1241
12668SOL    HW139105   1.973   8.091   1.724 -0.3848  0.4416 -0.1339
12668SOL    HW239106   2.029   8.194   1.629 -0.6909  0.7130 -0.0231
12669SOL     OW39107   3.533   4.481   3.294 -0.0082  0.1076  0.1015
12669SOL    HW139108   3.558   4.544   3.227  1.4358 -1.6894 -1.1732
12669SOL    HW239109   3.556   4.523   3.376  2.3902  0.6701 -0.7789
12670SOL     OW39110   8.748   1.886   3.385  0.4383 -0.0497  0.8403
12670SOL    HW139111   8.665   1.927   3.411  0.6803 -0.0404  1.6062
12670SOL    HW239112   8.815   1.941   3.424  0.9069  1.0805 -1.3652
12671SOL     OW39113   7.877   8.061   0.194 -0.1219 -0.3264  0.2643
12671SOL    HW139114   7.921   8.146   0.183  1.5547 -1.0423  1.1959
12671SOL    HW239115   7.808   8.062   0.127  0.8957  1.1080 -0.8361
12672SOL     OW39116   5.662   7.483   3.253 -0.4739  0.3184  0.3954
12672SOL    HW139117   5.648   7.492   3.158  0.1178  1.4360  0.4043
12672SOL    HW239118   5.575   7.497   3.291 -1.1023 -1.8731 -0.0369
12673SOL     OW39119   5.413   1.602   6.877 -0.2186  0.0261 -0.3532
12673SOL    HW139120   5.466   1.672   6.839  0.6455 -0.5034 -0.1428
12673SOL    HW239121   5.363   1.646   6.947 -1.1546  0.8161 -1.4797
12674SOL     OW39122   1.382   0.821   9.014  0.4808 -0.2179  0.0735
12674SOL    HW139123   1.406   0.911   8.990  3.9909 -0.7785  0.9742
12674SOL    HW239124   1.298   0.830   9.060  0.0185  2.3691 -1.0840
12675SOL     OW39125   6.386   4.657   6.967  0.3619  0.4326 -0.1518
12675SOL    HW139126   6.377   4.751   6.983  1.9866  0.3746  1.3914
12675SOL    HW239127   6.314   4.636   6.908 -0.0678  2.6286 -0.4930
12676SOL     OW39128   6.282   4.781   0.642  0.6895 -0.0452  0.0855
12676SOL    HW139129   6.206   4.775   0.700  0.7307 -0.8619  0.0618
12676SOL    HW239130   6.323   4.695   0.647  0.7635 -0.0871 -1.0772
12677SOL     OW39131   6.076   0.110   2.945 -0.0724 -0.1475  0.7475
12677SOL    HW139132   6.093   0.066   3.029 -2.8446  0.8088  1.9017
12677SOL    HW239133   5.996   0.160   2.959 -0.2872  0.5713 -2.3218
12678SOL     OW39134   5.527   2.322   3.768  0.9579 -0.2072 -0.2255
12678SOL    HW139135   5.611   2.365   3.783  0.4051  1.5800 -1.9232
12678SOL    HW239136   5.477   2.383   3.713 -0.5413 -2.2709 -1.3159
12679SOL     OW39137   1.684   7.832   3.650  0.6455  0.2514 -0.5414
12679SOL    HW139138   1.705   7.920   3.618 -0.0255  0.6569  0.1190
12679SOL    HW239139   1.769   7.788   3.656  0.9162  0.6001 -1.5756
12680SOL     OW39140   6.714   2.410   0.865  0.0616  0.0006 -0.3442
12680SOL    HW139141   6.733   2.339   0.926 -0.3606 -0.2456 -0.4929
12680SOL    HW239142   6.752   2.381   0.782  0.5297  0.2793 -0.2251
12681SOL     OW39143   8.112   1.391   0.364 -0.3624  0.2297  0.7815
12681SOL    HW139144   8.043   1.442   0.323 -0.6700 -0.9695 -0.2550
12681SOL    HW239145   8.097   1.400   0.458 -1.6507  0.3553  0.5712
12682SOL     OW39146   3.986   6.865   0.999 -0.1196  0.6778  0.0594
12682SOL    HW139147   4.051   6.931   1.022 -0.7299  1.4744 -0.4720
12682SOL    HW239148   3.974   6.874   0.905  1.2989 -1.5856 -0.4133
12683SOL     OW39149   6.902   8.392   8.399 -0.0087  0.4929 -0.2249
12683SOL    HW139150   6.849   8.468   8.421  0.2149  0.3319  0.9381
12683SOL    HW239151   6.879   8.372   8.308 -0.9344  1.2348 -0.1679
12684SOL     OW39152   7.884   0.471   8.607 -0.3084  0.2728  0.4011
12684SOL    HW139153   7.910   0.428   8.525 -0.0547  0.7081  0.2509
12684SOL    HW239154   7.831   0.406   8.652  1.0367 -0.6487  0.7202
12685SOL     OW39155   0.318   4.717   6.814  0.3491 -0.0640 -0.1136
12685SOL    HW139156   0.257   4.711   6.741 -0.4883 -0.1372  0.5867
12685SOL    HW239157   0.267   4.754   6.886  1.6078  1.6418 -0.0422
12686SOL     OW39158   3.073   2.673   0.094  0.4428 -0.3854  0.1650
12686SOL    HW139159   3.007   2.678   0.025  0.7446 -1.0432 -0.1795
12686SOL    HW239160   3.039   2.608   0.155 -0.0895  0.5893  0.9450
12687SOL     OW39161   4.066   1.709   7.802  0.2828  0.5275  0.0621
12687SOL    HW139162   3.991   1.653   7.822  0.3623  0.4684  0.1901
12687SOL    HW239163   4.130   1.690   7.871  1.1408 -0.7357 -1.0247
12688SOL     OW39164   5.099   0.492   4.875 -0.5525 -0.2264 -0.0442
12688SOL    HW139165   5.161   0.520   4.807  0.1743 -2.1779 -0.2476
12688SOL    HW239166   5.148   0.502   4.956 -1.5588  2.5029  0.3481
12689SOL     OW39167   7.088   6.165   4.371 -0.3416 -0.3367  0.6063
12689SOL    HW139168   7.082   6.157   4.276 -2.0431  1.3774  0.5108
12689SOL    HW239169   7.007   6.126   4.404 -0.1334 -0.2158  1.2803
12690SOL     OW39170   6.721   4.361   0.786  0.5232  0.0462 -0.6922
12690SOL    HW139171   6.803   4.396   0.751  0.8715 -0.7621 -0.7053
12690SOL    HW239172   6.659   4.433   0.779  1.5404  1.0813  0.4483
12691SOL     OW39173   1.495   2.581   6.224  0.0678 -0.3105 -0.6419
12691SOL    HW139174   1.538   2.588   6.138  0.2883 -0.6975 -0.5624
12691SOL    HW239175   1.436   2.657   6.227 -0.3390 -0.5814 -1.3600
12692SOL     OW39176   3.010   1.055   5.318 -0.2887  0.2587 -0.5051
12692SOL    HW139177   3.037   1.146   5.306  1.4512 -0.4401 -2.5802
12692SOL    HW239178   2.963   1.032   5.238 -0.0102 -0.8615 -0.3759
12693SOL     OW39179   6.930   5.773   8.967  0.4445  0.2072  0.2371
12693SOL    HW139180   6.907   5.809   9.053  0.1217 -0.8995  0.6300
12693SOL    HW239181   6.944   5.680   8.983  2.3042  0.3130 -0.5574
12694SOL     OW39182   8.316   8.262   8.749  0.2572 -0.1056 -0.8145
12694SOL    HW139183   8.238   8.310   8.723 -0.2280 -0.8352 -0.7584
12694SOL    HW239184   8.282   8.180   8.786  1.0642 -0.6591 -1.2592
12695SOL     OW39185   5.152   5.726   3.461 -0.2147  0.2107  0.2245
12695SOL    HW139186   5.242   5.735   3.494  0.2570  0.0727 -0.9856
12695SOL    HW239187   5.141   5.632   3.445 -0.1937  0.3443 -0.6300
12696SOL     OW39188   1.189   3.094   3.928  0.1408  0.0519  0.0256
12696SOL    HW139189   1.171   3.187   3.943 -0.0214  0.0175  0.0434
12696SOL    HW239190   1.211   3.089   3.835 -0.6547 -0.0155 -0.1676
12697SOL     OW39191   4.767   7.057   7.272  0.1663  0.0827 -0.4836
12697SOL    HW139192   4.821   6.986   7.238 -0.2944 -1.2798  1.4801
12697SOL    HW239193   4.808   7.080   7.355 -0.9168  0.6439 -0.0850
12698SOL     OW39194   8.113   1.448   1.199 -0.1825  0.1752  0.1363
12698SOL    HW139195   8.097   1.492   1.283  1.2884  0.6581  0.1979
12698SOL    HW239196   8.133   1.358   1.222 -2.0489 -0.2838  0.1011
12699SOL     OW39197   4.291   0.483   4.111 -0.1310  0.1892 -0.4970
12699SOL    HW139198   4.218   0.509   4.054 -0.2697 -1.5192 -1.1493
12699SOL    HW239199   4.366   0.475   4.053 -0.1099 -0.9031 -0.3366
12700SOL     OW39200   7.485   1.747   1.363  0.1936 -0.8721  0.0566
12700SOL    HW139201   7.436   1.758   1.444  1.8846 -0.4674  1.0555
12700SOL    HW239202   7.496   1.835   1.329  2.0179 -0.7173  0.9558
12701SOL     OW39203   1.023   2.959   6.365 -0.6182  0.9173 -0.4630
12701SOL    HW139204   1.072   2.920   6.293 -0.7970 -0.0122 -0.1015
12701SOL    HW239205   0.932   2.962   6.334 -0.5662  1.2730 -0.5815
12702SOL     OW39206   5.391   7.140   1.562  0.3620  0.1809  0.0218
12702SOL    HW139207   5.310   7.098   1.532  0.4352 -0.2110  0.3523
12702SOL    HW239208   5.378   7.233   1.544 -0.3904  0.1923  0.5586
12703SOL     OW39209   2.943   7.875   2.755  0.2356  0.3581  0.1473
12703SOL    HW139210   2.932   7.963   2.791  0.7487 -0.0572  1.3746
12703SOL    HW239211   3.001   7.831   2.817  2.0832 -0.0720 -1.7800
12704SOL     OW39212   1.379   6.085   1.530 -0.6992 -0.2590  0.3662
12704SOL    HW139213   1.452   6.143   1.508  0.3949 -1.6870  0.1266
12704SOL    HW239214   1.397   6.004   1.483 -2.9750 -0.3400 -0.5260
12705SOL     OW39215   2.123   2.432   1.673  0.3246  0.0383 -0.9985
12705SOL    HW139216   2.183   2.399   1.740  0.4731 -0.2076 -1.2541
12705SOL    HW239217   2.066   2.493   1.720 -1.1678 -1.9505 -0.1192
12706SOL     OW39218   6.497   4.219   0.992 -0.1304 -0.3053  0.2301
12706SOL    HW139219   6.421   4.217   0.934 -0.2286 -1.0343  0.3715
12706SOL    HW239220   6.474   4.158   1.062 -0.0584  0.6383  1.0996
12707SOL     OW39221   3.192   1.066   7.439 -0.0470 -0.2015  0.1670
12707SOL    HW139222   3.186   1.145   7.494 -1.0408  0.5216 -0.9424
12707SOL    HW239223   3.204   1.100   7.351 -0.1952 -1.3119 -0.2883
12708SOL     OW39224   1.879   1.036   6.042  0.1450  0.0737  0.3020
12708SOL    HW139225   1.904   0.957   5.993  1.2029  0.0082  0.9147
12708SOL    HW239226   1.882   1.009   6.133 -1.0402  0.4098  0.4557
12709SOL     OW39227   1.920   2.320   5.935 -0.5537  0.1909 -0.0287
12709SOL    HW139228   1.954   2.277   5.857  0.3053 -0.5514  0.7345
12709SOL    HW239229   1.954   2.268   6.008 -2.8563 -0.2573  0.8116
12710SOL     OW39230   4.657   6.777   6.219 -0.3744  0.2566 -0.6168
12710SOL    HW139231   4.565   6.751   6.212 -0.3784 -0.0395  0.4241
12710SOL    HW239232   4.662   6.827   6.300  0.5806 -0.5986 -0.1315
12711SOL     OW39233   8.796   9.040   2.658  0.3415  0.1090  0.0903
12711SOL    HW139234   8.822   8.975   2.593 -2.2484  0.5022 -1.4693
12711SOL    HW239235   8.864   9.035   2.725  1.1739 -2.9304 -0.8185
12712SOL     OW39236   2.711   8.258   5.325  0.2085 -0.4007 -0.1162
12712SOL    HW139237   2.776   8.191   5.304  0.9883 -0.5311  2.3823
12712SOL    HW239238   2.628   8.223   5.292  1.1549 -0.8917 -2.0717
12713SOL     OW39239   3.082   4.864   7.050  0.2130  0.4379  0.4482
12713SOL    HW139240   3.126   4.895   6.971 -1.7348  1.9221 -0.1531
12713SOL    HW239241   3.010   4.810   7.017 -0.5809  1.0239  1.1884
12714SOL     OW39242   0.361   6.830   6.679  0.3669 -0.1446 -0.4516
12714SOL    HW139243   0.417   6.893   6.633 -0.0792  0.0201 -0.7741
12714SOL    HW239244   0.291   6.810   6.617  0.5844 -1.0902 -0.4132
12715SOL     OW39245   3.804   7.474   6.630  0.1303 -0.1972  0.6826
12715SOL    HW139246   3.726   7.526   6.611  0.3322 -0.0407  0.2786
12715SOL    HW239247   3.871   7.539   6.652  1.1803 -0.0284 -2.4828
12716SOL     OW39248   7.802   4.935   3.058  0.1783  0.0041  0.2915
12716SOL    HW139249   7.736   4.993   3.095  0.4502  1.3343 -1.2037
12716SOL    HW239250   7.878   4.945   3.116  0.6403  2.1326 -0.5911
12717SOL     OW39251   7.591   4.617   2.513 -0.0141 -0.0141  0.0700
12717SOL    HW139252   7.608   4.526   2.537  0.1710 -0.3728 -1.3252
12717SOL    HW239253   7.670   4.646   2.469 -0.2738  0.6471  0.0256
12718SOL     OW39254   8.363   1.363   4.310 -0.4572 -0.1439 -0.1716
12718SOL    HW139255   8.350   1.303   4.237 -0.2367 -0.4300  0.0194
12718SOL    HW239256   8.434   1.323   4.361 -1.3672 -0.5500  0.8224
12719SOL     OW39257   2.559   7.544   7.218  0.3036 -0.2807  0.2008
12719SOL    HW139258   2.510   7.502   7.148 -0.8060 -3.1434  2.5126
12719SOL    HW239259   2.638   7.491   7.227  1.0602  0.8266  0.3539
12720SOL     OW39260   2.916   1.878   8.361 -0.2029 -0.0731 -0.7507
12720SOL    HW139261   2.829   1.843   8.383 -1.3852  0.7696 -3.5819
12720SOL    HW239262   2.927   1.954   8.418 -0.4836 -1.2077  0.8935
12721SOL     OW39263   0.425   2.378   6.374  0.5085  0.1243  0.2417
12721SOL    HW139264   0.342   2.343   6.343  0.5686 -0.2214  0.4710
12721SOL    HW239265   0.451   2.441   6.306  0.3547 -0.2018 -0.1226
12722SOL     OW39266   8.878   8.930   8.952  0.2837  0.4529  0.2825
12722SOL    HW139267   8.958   8.956   8.907 -0.1331 -0.5694 -1.1004
12722SOL    HW239268   8.848   9.009   8.997  0.5349  1.6187 -1.5187
12723SOL     OW39269   0.638   0.167   5.591 -0.3761  0.1177 -0.2387
12723SOL    HW139270   0.703   0.206   5.533  0.8555 -1.1870  0.2384
12723SOL    HW239271   0.556   0.174   5.542  0.5707 -0.6659 -2.0215
12724SOL     OW39272   1.831   0.394   7.340  0.8882 -0.4634  0.4919
12724SOL    HW139273   1.821   0.334   7.266  0.6534 -0.0478  0.1824
12724SOL    HW239274   1.755   0.376   7.396 -1.1152  1.8417 -1.2583
12725SOL     OW39275   4.896   7.831   5.017 -0.2188 -0.6289  0.3141
12725SOL    HW139276   4.979   7.810   4.972 -0.3135  0.8730 -0.6112
12725SOL    HW239277   4.874   7.750   5.063  1.4483 -1.2658  0.0847
12726SOL     OW39278   8.284   6.281   6.929  0.4522 -0.2893 -0.6110
12726SOL    HW139279   8.305   6.373   6.918 -1.6422  0.6161  1.9170
12726SOL    HW239280   8.369   6.238   6.942  1.3959  1.4716 -0.7400
12727SOL     OW39281   4.426   7.334   1.168  0.4432  0.2683  0.2269
12727SOL    HW139282   4.372   7.346   1.090  0.9756  1.5685  0.0368
12727SOL    HW239283   4.464   7.247   1.158  0.1453  0.2384 -0.7338
12728SOL     OW39284   4.155   8.985   6.141 -0.4492  0.0813  0.3588
12728SOL    HW139285   4.087   8.953   6.082 -1.4307 -2.7469  2.7698
12728SOL    HW239286   4.107   9.018   6.217  0.8335  0.5227  1.0079
12729SOL     OW39287   3.779   1.727   1.181 -0.1450  0.4045  0.1328
12729SOL    HW139288   3.785   1.721   1.277 -1.2505 -1.1522  0.1461
12729SOL    HW239289   3.864   1.698   1.150 -0.3080 -0.6462  0.6287
12730SOL     OW39290   1.779   8.195   0.773 -0.0323  0.3886 -0.3607
12730SOL    HW139291   1.842   8.267   0.774  1.6946 -1.0395  1.4163
12730SOL    HW239292   1.733   8.202   0.856  0.3268 -0.6754 -0.0590
12731SOL     OW39293   7.037   4.767   6.215 -0.4668 -0.0953  0.1166
12731SOL    HW139294   7.010   4.858   6.200 -0.9816 -0.0810  1.0780
12731SOL    HW239295   7.039   4.728   6.127 -2.2854  0.2739 -0.1242
12732SOL     OW39296   5.616   2.853   6.082  0.0768 -0.0223  0.1073
12732SOL    HW139297   5.567   2.934   6.097 -1.1034 -0.8029  0.5756
12732SOL    HW239298   5.569   2.810   6.010  0.9164 -0.1332 -0.3896
12733SOL     OW39299   1.266   2.784   3.185  0.4928 -0.3301 -0.4892
12733SOL    HW139300   1.235   2.764   3.097  0.2415 -1.4334 -0.1693
12733SOL    HW239301   1.323   2.710   3.208 -0.8718 -0.9944  0.9487
12734SOL     OW39302   5.922   6.485   2.603 -0.4306 -0.0875  0.2428
12734SOL    HW139303   5.910   6.580   2.599 -0.1900 -0.0511  0.3613
12734SOL    HW239304   5.974   6.471   2.682 -0.1161 -0.2832  0.0027
12735SOL     OW39305   7.115   8.570   3.026 -1.0381 -0.1305  0.9724
12735SOL    HW139306   7.134   8.477   3.037 -1.3017  0.0385  3.4217
12735SOL    HW239307   7.082   8.598   3.111 -2.3188  1.9131 -0.1220
12736SOL     OW39308   8.639   1.124   2.270 -0.0893 -0.1979 -0.6983
12736SOL    HW139309   8.705   1.138   2.337 -0.6971 -2.1970  0.3920
12736SOL    HW239310   8.687   1.087   2.196  0.1109 -1.2789 -0.0505
12737SOL     OW39311   8.393   1.946   8.453 -0.6303  1.0715  0.3736
12737SOL    HW139312   8.331   1.916   8.387  0.6071  0.0678 -0.3715
12737SOL    HW239313   8.354   1.921   8.537 -0.4269 -1.1468 -0.1546
12738SOL     OW39314   6.674   1.596   2.210  0.1529  0.6686  0.3329
12738SOL    HW139315   6.663   1.503   2.231  0.8598  0.9443  2.0337
12738SOL    HW239316   6.613   1.611   2.137 -1.2942 -0.7237  1.1938
12739SOL     OW39317   7.017   8.986   7.336 -0.1972 -0.0856 -0.4098
12739SOL    HW139318   7.083   8.966   7.270 -0.9202  1.8924 -1.8175
12739SOL    HW239319   7.048   9.066   7.378 -0.4740 -0.5297  0.6914
12740SOL     OW39320   8.190   6.391   2.622 -0.5966 -0.0326 -0.0846
12740SOL    HW139321   8.175   6.386   2.716 -0.4448  0.6279 -0.0266
12740SOL    HW239322   8.285   6.380   2.612 -0.7907 -1.8359 -0.2904
12741SOL     OW39323   7.388   8.245   2.152 -0.3679  0.1469 -0.1136
12741SOL    HW139324   7.317   8.262   2.090 -0.3011 -0.1563 -0.2703
12741SOL    HW239325   7.347   8.195   2.223 -0.5116  0.7413  0.2383
12742SOL     OW39326   6.492   3.429   8.750  0.3990 -0.1734 -0.1530
12742SOL    HW139327   6.553   3.389   8.688  0.4104 -1.8709  0.9021
12742SOL    HW239328   6.462   3.357   8.805 -1.2510  0.9216  0.4708
12743SOL     OW39329   7.234   8.339   6.071 -0.0931 -0.4807  0.1037
12743SOL    HW139330   7.287   8.409   6.111 -1.1538  0.3450  0.1367
12743SOL    HW239331   7.205   8.376   5.987 -3.3751  0.5669  1.4929
12744SOL     OW39332   6.305   1.833   7.022 -0.1217 -0.1000 -0.2686
12744SOL    HW139333   6.351   1.895   7.078 -0.0284 -1.2343  0.9434
12744SOL    HW239334   6.372   1.771   6.993 -0.2568  0.2092 -1.2934
12745SOL     OW39335   4.040   7.777   5.294  0.3131 -0.3313  0.1185
12745SOL    HW139336   3.968   7.777   5.357  1.3292 -2.1445  1.3510
12745SOL    HW239337   4.060   7.685   5.279  0.0187  0.0017 -3.0590
12746SOL     OW39338   1.000   1.317   6.837  0.3856 -0.0231  0.2382
12746SOL    HW139339   0.956   1.402   6.834  1.0016  0.3109  0.4703
12746SOL    HW239340   1.022   1.305   6.929  0.8822 -0.1312  0.1065
12747SOL     OW39341   5.458   0.294   3.392 -0.3087  0.0565  0.0059
12747SOL    HW139342   5.521   0.348   3.344  1.5770 -2.3933 -0.4541
12747SOL    HW239343   5.471   0.317   3.484  1.1419 -0.2470 -0.1034
12748SOL     OW39344   8.710   4.889   9.053  0.2001  0.2738 -0.1790
12748SOL    HW139345   8.740   4.814   9.104  2.6037  0.2810 -1.4527
12748SOL    HW239346   8.722   4.964   9.111  2.0039  0.1627 -0.3400
12749SOL     OW39347   8.508   3.345   5.252 -0.0857  0.2587  0.0884
12749SOL    HW139348   8.417   3.346   5.282 -0.3409  0.0844 -0.6560
12749SOL    HW239349   8.530   3.438   5.240  0.7355  0.5003  2.8387
12750SOL     OW39350   0.004   6.483   7.348 -0.1648 -0.2578  0.4966
12750SOL    HW139351   0.073   6.543   7.377 -1.3226  0.1807  2.5498
12750SOL    HW239352  -0.077   6.533   7.359 -1.0155 -1.5893  0.5059
12751SOL     OW39353   5.577   1.060   6.266  0.2083 -0.1880  0.2510
12751SOL    HW139354   5.650   1.004   6.237 -1.1873 -1.3148 -1.3053
12751SOL    HW239355   5.532   1.007   6.332  0.3103  0.1574  0.5982
12752SOL     OW39356   0.707   2.774   8.992  0.2924  0.1760 -0.0204
12752SOL    HW139357   0.794   2.738   9.010  0.3278 -0.1358 -0.7829
12752SOL    HW239358   0.646   2.706   9.023  0.3555 -0.4191 -1.1552
12753SOL     OW39359   8.660   4.832   1.048 -0.2181 -0.2542 -0.4695
12753SOL    HW139360   8.673   4.739   1.066  2.1799 -0.0570 -0.8518
12753SOL    HW239361   8.729   4.854   0.986 -0.5685  1.8604 -0.1710
12754SOL     OW39362   4.959   0.388   7.403 -0.5482  0.0546  0.3971
12754SOL    HW139363   4.878   0.390   7.454 -0.7826 -1.8960  0.1833
12754SOL    HW239364   5.027   0.412   7.466 -1.0415 -0.5935  1.2008
12755SOL     OW39365   0.589   1.212   1.004 -0.0212  0.5398  0.2617
12755SOL    HW139366   0.534   1.281   0.968 -1.0662 -1.0552 -1.3265
12755SOL    HW239367   0.632   1.172   0.929  2.3116  0.8386  1.3393
12756SOL     OW39368   2.092   3.565   7.768  0.0854  0.1054 -0.0789
12756SOL    HW139369   2.170   3.510   7.768 -0.8881 -1.3539 -1.5564
12756SOL    HW239370   2.108   3.628   7.839  2.2018 -0.6749  0.2233
12757SOL     OW39371   1.301   4.389   2.233  0.4187  0.2029  0.7540
12757SOL    HW139372   1.343   4.426   2.155 -0.9105 -0.6877 -0.4327
12757SOL    HW239373   1.347   4.307   2.249 -0.5822 -0.6036 -0.3389
12758SOL     OW39374   7.913   1.201   4.646 -0.0673 -0.0455  0.3606
12758SOL    HW139375   7.989   1.248   4.682  0.8855 -0.5809 -0.8764
12758SOL    HW239376   7.929   1.198   4.552 -1.2778 -0.8117  0.1601
12759SOL     OW39377   0.085   5.060   7.074  0.6531 -0.1138 -0.2717
12759SOL    HW139378   0.147   5.132   7.083  0.1881  0.1793  0.6838
12759SOL    HW239379  -0.001   5.100   7.087  0.3548 -0.7423 -0.2624
12760SOL     OW39380   5.289   0.971   7.789 -0.3783  0.8806  0.4600
12760SOL    HW139381   5.228   1.044   7.800 -1.8086 -0.1839 -0.1620
12760SOL    HW239382   5.288   0.926   7.873 -2.5395 -0.6406 -0.2818
12761SOL     OW39383   6.929   0.024   2.016 -0.2853  0.3551 -0.3083
12761SOL    HW139384   6.921  -0.022   2.099  1.4398 -0.4780 -0.5579
12761SOL    HW239385   6.955   0.113   2.040 -0.8722  0.4239  0.0793
12762SOL     OW39386   4.738   0.566   9.014 -0.6484  0.3462  0.2614
12762SOL    HW139387   4.807   0.593   8.955 -1.1773  1.0295 -0.0576
12762SOL    HW239388   4.772   0.585   9.102 -1.2218  2.6494  0.0335
12763SOL     OW39389   2.668   8.390   0.393  0.0475  0.2532  0.0091
12763SOL    HW139390   2.610   8.441   0.449 -1.5690 -0.8177 -0.6386
12763SOL    HW239391   2.729   8.348   0.454  0.6976  2.0265  0.6300
12764SOL     OW39392   5.712   3.536   8.102 -0.2497 -0.2327  0.0007
12764SOL    HW139393   5.618   3.522   8.093 -0.3115  0.0258  0.2303
12764SOL    HW239394   5.751   3.477   8.037 -0.6902  2.1187 -2.5922
12765SOL     OW39395   5.547   5.311   4.868 -0.3063  0.2530  0.1634
12765SOL    HW139396   5.533   5.217   4.860  1.6314 -0.0357 -0.3221
12765SOL    HW239397   5.523   5.347   4.782 -0.6319  0.1562  0.2120
12766SOL     OW39398   7.830   3.263   9.080 -0.3139 -0.0384 -0.0638
12766SOL    HW139399   7.871   3.246   9.164 -1.9739  0.4806  0.8980
12766SOL    HW239400   7.869   3.198   9.020  0.1676 -1.0793  1.3290
12767SOL     OW39401   2.197   0.246   3.904 -0.6258 -0.4348  0.1835
12767SOL    HW139402   2.219   0.172   3.961  1.2946 -0.8705 -0.9963
12767SOL    HW239403   2.155   0.206   3.828  0.7252 -0.4072 -0.6134
12768SOL     OW39404   7.771   2.079   3.853 -0.1169  0.1079  0.1149
12768SOL    HW139405   7.705   2.148   3.849 -0.5560 -0.3794 -1.7213
12768SOL    HW239406   7.734   2.007   3.802  1.0240 -0.8970  0.6507
12769SOL     OW39407   5.394   7.584   4.158 -0.3804  0.2294 -0.1407
12769SOL    HW139408   5.453   7.648   4.117 -0.8903  0.6379 -0.2565
12769SOL    HW239409   5.414   7.588   4.251 -1.3691  1.6171  0.0528
12770SOL     OW39410   1.814   7.125   2.592  0.3461 -0.0161 -0.3431
12770SOL    HW139411   1.842   7.201   2.541  0.6795 -1.6824 -2.8372
12770SOL    HW239412   1.731   7.151   2.630  0.1535  1.4046 -1.6366
12771SOL     OW39413   2.810   6.613   0.607 -0.1070 -0.1855  0.1993
12771SOL    HW139414   2.732   6.565   0.636 -0.2246  1.2620  2.5749
12771SOL    HW239415   2.839   6.567   0.528 -2.4375 -1.7190  0.1474
12772SOL     OW39416   6.714   3.544   6.240 -0.0782  0.8365 -0.2323
12772SOL    HW139417   6.682   3.506   6.321  0.7039  1.7008  0.5001
12772SOL    HW239418   6.637   3.551   6.184 -0.2888 -1.7812 -0.4354
12773SOL     OW39419   5.695   3.010   9.083  0.2115  0.0825 -0.1205
12773SOL    HW139420   5.741   2.964   9.013 -0.8305 -0.2406 -0.6045
12773SOL    HW239421   5.755   3.005   9.158  2.5992  2.7702 -1.6386
12774SOL     OW39422   1.675   6.830   3.631 -0.3845 -0.3890  0.4123
12774SOL    HW139423   1.765   6.819   3.659  0.4426  1.1011 -1.4249
12774SOL    HW239424   1.647   6.743   3.604  0.5536 -0.8217  0.8047
12775SOL     OW39425   1.600   4.768   8.271  0.1652  0.4287  0.2842
12775SOL    HW139426   1.634   4.761   8.182 -0.9214 -0.1856 -0.0956
12775SOL    HW239427   1.619   4.682   8.311  1.3295  0.9501  0.9158
12776SOL     OW39428   4.801   8.752   8.747  0.2230 -0.4588 -0.0780
12776SOL    HW139429   4.792   8.660   8.772 -1.4672 -0.3895 -0.3407
12776SOL    HW239430   4.783   8.754   8.653 -0.0847  0.1913 -0.0100
12777SOL     OW39431   9.061   1.367   2.358  0.5553  0.0894 -0.3612
12777SOL    HW139432   9.156   1.369   2.372  0.4077 -1.4891  1.1637
12777SOL    HW239433   9.040   1.454   2.324  2.3943  0.8695  0.3832
12778SOL     OW39434   4.637   8.979   5.743 -0.0071 -0.0969  0.1862
12778SOL    HW139435   4.596   9.002   5.659  1.5016  1.2928 -0.2174
12778SOL    HW239436   4.613   8.887   5.757  0.7010 -0.7502 -2.3874
12779SOL     OW39437   7.573   8.516   2.182  0.0912 -0.2556  0.6872
12779SOL    HW139438   7.498   8.529   2.124 -1.4676 -0.6790  2.5158
12779SOL    HW239439   7.595   8.603   2.215  1.4617  0.1016 -1.0096
12780SOL     OW39440   1.560   3.608   1.732 -0.4186 -0.3804  0.0174
12780SOL    HW139441   1.496   3.542   1.759  1.3196 -1.4973  1.6368
12780SOL    HW239442   1.583   3.583   1.643 -0.9511 -1.0062  0.0470
12781SOL     OW39443   1.518   6.162   3.486 -0.2340 -0.2720 -0.1598
12781SOL    HW139444   1.506   6.200   3.573  0.0865  0.1066 -0.2738
12781SOL    HW239445   1.610   6.133   3.485 -0.8999 -2.5643  0.4945
12782SOL     OW39446   3.361   7.376   9.049  0.8575 -0.8865  0.8454
12782SOL    HW139447   3.294   7.307   9.053 -1.6495  1.2417 -1.0678
12782SOL    HW239448   3.313   7.456   9.069  3.5324  0.4849  2.2351
12783SOL     OW39449   5.979   0.395   7.937  0.2297  0.0566  0.2325
12783SOL    HW139450   5.996   0.408   7.843  0.2873 -1.6765 -0.0325
12783SOL    HW239451   5.885   0.381   7.942  0.4250 -1.4946  0.1736
12784SOL     OW39452   5.052   6.277   9.000  0.2965  0.0741 -0.3049
12784SOL    HW139453   5.075   6.236   9.084 -0.0985  0.1577 -0.1556
12784SOL    HW239454   4.957   6.285   9.002  0.3829  1.2043 -0.2336
12785SOL     OW39455   8.623   2.585   4.371  0.3819  0.4150  0.0932
12785SOL    HW139456   8.677   2.662   4.390  0.2873  0.1640  1.4672
12785SOL    HW239457   8.563   2.579   4.446 -1.9020  0.9546 -1.5818
12786SOL     OW39458   6.691   4.775   0.912  0.0676 -0.1253  0.0164
12786SOL    HW139459   6.774   4.784   0.959 -0.4468 -0.6296  1.0629
12786SOL    HW239460   6.692   4.687   0.876 -0.1735 -0.2754  0.3689
12787SOL     OW39461   7.336   6.319   0.516 -0.2561 -0.3179 -0.1475
12787SOL    HW139462   7.308   6.395   0.567  1.4438  0.2091  0.0601
12787SOL    HW239463   7.349   6.250   0.581 -3.1609 -1.2848 -0.4758
12788SOL     OW39464   8.446   6.175   8.930  0.0667 -0.0839 -0.2507
12788SOL    HW139465   8.525   6.130   8.960 -0.5961 -1.7739 -0.9256
12788SOL    HW239466   8.446   6.162   8.835 -0.6914  0.4574 -0.3332
12789SOL     OW39467   0.095   8.244   3.695 -0.3938 -0.0748 -0.3073
12789SOL    HW139468   0.095   8.175   3.629  0.1928  0.1881 -0.5874
12789SOL    HW239469   0.063   8.202   3.774  0.4457 -0.8095 -0.3419
12790SOL     OW39470   1.177   1.167   8.247  0.1419 -0.1830  0.2680
12790SOL    HW139471   1.229   1.087   8.237 -1.1448 -1.0680  0.4462
12790SOL    HW239472   1.088   1.136   8.263 -0.8473  1.2752 -2.0030
12791SOL     OW39473   7.356   5.091   4.865 -0.1258 -0.3677 -0.9575
12791SOL    HW139474   7.432   5.052   4.822 -0.0870 -0.0110 -1.2147
12791SOL    HW239475   7.281   5.055   4.819 -0.2072 -2.1163  0.4271
12792SOL     OW39476   1.863   1.200   8.092 -0.5404  0.0353 -0.0461
12792SOL    HW139477   1.847   1.212   8.185 -1.1874  1.7705 -0.3349
12792SOL    HW239478   1.776   1.201   8.052 -0.1943  1.5589 -0.8539
12793SOL     OW39479   0.476   7.530   1.472 -0.3304 -0.2747  0.3875
12793SOL    HW139480   0.403   7.528   1.534 -1.0498 -0.1952 -0.4310
12793SOL    HW239481   0.468   7.448   1.423 -0.6552  0.2964 -0.5556
12794SOL     OW39482   8.973   5.798   1.207 -0.4367  0.1286 -0.0441
12794SOL    HW139483   8.967   5.885   1.168 -3.1195  0.6623  1.3039
12794SOL    HW239484   8.973   5.814   1.302 -0.6762 -1.3357  0.2360
12795SOL     OW39485   1.720   2.301   4.463  0.2152 -0.5609 -0.3473
12795SOL    HW139486   1.726   2.349   4.546 -2.5678  0.5068 -0.6521
12795SOL    HW239487   1.702   2.211   4.489  1.1832 -0.6242  0.1818
12796SOL     OW39488   2.393   6.111   2.212 -0.3657 -0.2889  0.5716
12796SOL    HW139489   2.352   6.113   2.299  0.1907  0.6202  0.8266
12796SOL    HW239490   2.374   6.197   2.175 -0.4047 -0.5939 -0.1176
12797SOL     OW39491   7.001   7.255   7.457  0.0844 -0.1476 -0.4804
12797SOL    HW139492   7.006   7.278   7.364  0.4972  0.5902 -0.2885
12797SOL    HW239493   6.953   7.328   7.497  1.6381  0.5650  0.1881
12798SOL     OW39494   7.281   3.635   5.829  0.3032  0.4397  0.3613
12798SOL    HW139495   7.372   3.647   5.857  0.6553 -1.7862  0.3673
12798SOL    HW239496   7.230   3.648   5.909  0.7627  0.1512  0.7069
12799SOL     OW39497   6.787   2.854   4.952 -0.2547  0.0399  0.6566
12799SOL    HW139498   6.804   2.947   4.937  0.4510 -0.4351 -2.2816
12799SOL    HW239499   6.867   2.822   4.993 -0.0490  0.5436  0.6594
12800SOL     OW39500   4.380   3.495   3.920 -0.6925 -0.1916 -0.1886
12800SOL    HW139501   4.348   3.582   3.946 -1.2542  0.0432 -1.5646
12800SOL    HW239502   4.456   3.513   3.864 -1.0703 -0.5516 -0.8341
12801SOL     OW39503   8.014   3.394   8.117  0.3048 -0.1401  0.4265
12801SOL    HW139504   7.977   3.434   8.038  0.5708  0.1464  0.4419
12801SOL    HW239505   8.035   3.304   8.091  0.6183  0.0251  0.0973
12802SOL     OW39506   5.501   1.710   6.031  0.1183  0.5014 -0.2454
12802SOL    HW139507   5.465   1.793   6.063  0.8203  0.9836 -0.6710
12802SOL    HW239508   5.508   1.655   6.109 -1.6993  0.3016 -0.1715
12803SOL     OW39509   0.410   2.342   2.765  0.8133  0.2943 -0.3295
12803SOL    HW139510   0.439   2.355   2.674  0.8246  1.4561 -0.1708
12803SOL    HW239511   0.421   2.428   2.806  0.5462 -0.1560  0.7034
12804SOL     OW39512   3.843   8.703   1.076  0.6583 -0.0356  0.0378
12804SOL    HW139513   3.807   8.788   1.100  0.2584  0.1573 -1.1650
12804SOL    HW239514   3.778   8.665   1.016  1.5446 -0.5144 -0.6545
12805SOL     OW39515   8.577   4.263   1.838 -0.9343  0.3671 -0.4228
12805SOL    HW139516   8.501   4.302   1.795 -0.2583  0.9339 -1.1361
12805SOL    HW239517   8.630   4.228   1.766 -1.4359 -1.7793  0.1693
12806SOL     OW39518   8.278   3.240   2.665 -0.2080  0.1201  0.5294
12806SOL    HW139519   8.249   3.167   2.610 -0.3166  0.9308 -0.5245
12806SOL    HW239520   8.215   3.242   2.737 -1.5305  0.5104 -0.5931
12807SOL     OW39521   6.050   3.898   4.271  0.0868 -0.2933 -0.1769
12807SOL    HW139522   6.035   3.808   4.243  0.2700 -0.6003  0.6994
12807SOL    HW239523   6.009   3.951   4.202  1.9588 -0.9827 -1.9113
12808SOL     OW39524   0.793   6.815   6.323 -0.2380 -0.6400  0.0689
12808SOL    HW139525   0.772   6.734   6.278  0.9546 -1.9918  1.8197
12808SOL    HW239526   0.801   6.791   6.415  1.9437  1.0678  0.4322
12809SOL     OW39527   5.194   5.822   2.588 -0.0743  0.1255 -0.1006
12809SOL    HW139528   5.207   5.799   2.496 -0.6155 -0.5292 -0.0183
12809SOL    HW239529   5.276   5.864   2.614  0.5157 -0.7237 -0.5591
12810SOL     OW39530   5.734   6.978   0.080 -0.4971 -0.2994 -0.4421
12810SOL    HW139531   5.704   7.068   0.093  0.4154  0.0039 -0.3936
12810SOL    HW239532   5.657   6.932   0.046 -1.0778  0.4055 -0.1069
12811SOL     OW39533   6.722   6.482   5.434 -0.2556  0.3776 -0.3469
12811SOL    HW139534   6.672   6.422   5.489 -1.0438  1.3620  0.0395
12811SOL    HW239535   6.722   6.441   5.347 -0.1397 -0.5331  0.0708
12812SOL     OW39536   5.919   4.442   2.266 -0.3342 -0.2994  0.1901
12812SOL    HW139537   5.827   4.466   2.272 -0.7437 -1.3258 -1.4671
12812SOL    HW239538   5.932   4.415   2.175  2.0835  1.6327 -0.1459
12813SOL     OW39539   2.626   2.128   2.581  0.2900  0.4765 -0.0564
12813SOL    HW139540   2.635   2.052   2.639  0.6887  0.0938 -0.6127
12813SOL    HW239541   2.533   2.131   2.560  0.4898 -0.8225 -1.2888
12814SOL     OW39542   3.513   8.204   8.047  0.3941  0.4278  0.3467
12814SOL    HW139543   3.547   8.127   8.092  1.5944  1.3000  0.9846
12814SOL    HW239544   3.419   8.190   8.043  0.6433 -1.4331 -0.2575
12815SOL     OW39545   5.928   4.981   0.216 -0.0934  0.0619  0.5389
12815SOL    HW139546   5.901   4.930   0.140 -0.4457 -2.7890  2.4053
12815SOL    HW239547   5.857   5.044   0.230 -0.6288 -0.2341 -0.7218
12816SOL     OW39548   7.960   1.357   4.286 -0.6523 -0.2789  0.6554
12816SOL    HW139549   8.030   1.411   4.321  0.1412 -0.8963  0.0651
12816SOL    HW239550   7.959   1.279   4.341 -3.1304  1.1030  2.7982
12817SOL     OW39551   7.994   0.693   2.143  0.0971 -0.4908  0.1621
12817SOL    HW139552   7.964   0.730   2.226  0.6038  1.0003 -0.2942
12817SOL    HW239553   7.966   0.756   2.077  2.4310 -0.0363 -0.4780
12818SOL     OW39554   3.530   4.853   0.074  0.1067 -0.2131  0.1413
12818SOL    HW139555   3.621   4.825   0.085  0.3014  0.2599 -0.2595
12818SOL    HW239556   3.520   4.866  -0.021  0.1103  1.3807  0.3349
12819SOL     OW39557   1.213   5.514   2.210 -0.0193  0.1344  0.4060
12819SOL    HW139558   1.195   5.460   2.287  0.4539  0.3104  0.6480
12819SOL    HW239559   1.264   5.588   2.245 -0.3956  0.5738  0.0345
12820SOL     OW39560   5.657   6.017   4.675  0.0681 -0.4867 -0.1806
12820SOL    HW139561   5.572   6.041   4.640 -0.0461  1.7555  1.4408
12820SOL    HW239562   5.665   6.066   4.757  2.7059 -1.0056 -0.0145
12821SOL     OW39563   2.360   9.093   6.499  0.0947  0.3979 -0.7858
12821SOL    HW139564   2.380   9.020   6.441  0.0905  1.6063 -2.3837
12821SOL    HW239565   2.378   9.060   6.587  2.4801 -0.7426 -1.6244
12822SOL     OW39566   1.528   3.838   1.904 -0.1597  0.3182  0.0802
12822SOL    HW139567   1.442   3.843   1.863  0.3157  2.2827 -0.8096
12822SOL    HW239568   1.566   3.757   1.869 -0.9024  0.4394 -1.0602
12823SOL     OW39569   5.627   0.889   0.575  0.0538  0.2092  0.1160
12823SOL    HW139570   5.602   0.915   0.664 -1.0366  1.0758 -0.4233
12823SOL    HW239571   5.649   0.796   0.582  1.7984  0.6590  1.6546
12824SOL     OW39572   3.774   1.666   8.739 -0.1859  0.2886  0.1877
12824SOL    HW139573   3.826   1.653   8.818 -2.1496 -0.2974  1.4650
12824SOL    HW239574   3.769   1.761   8.728  0.6007  0.3601  0.4018
12825SOL     OW39575   2.665   0.271   0.014 -0.5441 -0.3709 -0.2276
12825SOL    HW139576   2.619   0.355   0.013  0.2713  0.2539  2.8428
12825SOL    HW239577   2.753   0.293   0.045 -0.6174 -2.4401  1.7067
12826SOL     OW39578   8.782   4.490   1.012 -0.4849  0.3647 -0.1509
12826SOL    HW139579   8.728   4.481   1.090 -1.2523 -1.9807 -0.8650
12826SOL    HW239580   8.856   4.431   1.027  0.1601  1.0654 -0.5504
12827SOL     OW39581   5.312   4.143   2.690  0.3432  0.1627  0.4896
12827SOL    HW139582   5.308   4.100   2.604 -0.4315  2.9540 -1.0033
12827SOL    HW239583   5.325   4.071   2.752  0.7611 -2.0063 -1.9159
12828SOL     OW39584   2.737   1.190   2.567  0.0243  0.1208  0.3582
12828SOL    HW139585   2.780   1.241   2.636  1.3099 -0.3167 -0.0824
12828SOL    HW239586   2.644   1.208   2.578  0.3245  1.2902  1.2206
12829SOL     OW39587   4.533   9.076   2.146 -0.5233 -0.5858  0.0520
12829SOL    HW139588   4.493   9.147   2.096  1.4374  0.1535 -0.5779
12829SOL    HW239589   4.536   9.109   2.236  0.0288 -0.0108 -0.1701
12830SOL     OW39590   8.532   8.221   6.177  0.8861 -0.4007  0.3812
12830SOL    HW139591   8.498   8.310   6.163  1.6589 -0.2288 -0.4849
12830SOL    HW239592   8.505   8.199   6.267  0.7647  0.7418  0.6402
12831SOL     OW39593   1.720   3.567   0.957  0.5510 -0.3070 -0.0379
12831SOL    HW139594   1.759   3.645   0.997  0.3326  0.5802 -1.4947
12831SOL    HW239595   1.788   3.534   0.899  1.3139 -2.2875  1.8542
12832SOL     OW39596   6.356   0.285   3.477  0.1740 -0.7289 -0.2370
12832SOL    HW139597   6.309   0.205   3.454 -1.6159  0.1193  0.2733
12832SOL    HW239598   6.379   0.324   3.393  1.4212 -1.9350 -0.4925
12833SOL     OW39599   2.838   0.007   7.378 -0.2698 -0.2233  0.0436
12833SOL    HW139600   2.922   0.021   7.333 -0.0562  1.1452  0.8204
12833SOL    HW239601   2.813   0.093   7.409 -1.9291 -0.6393 -0.0607
12834SOL     OW39602   5.354   6.260   5.280  0.4388 -0.2634  0.2256
12834SOL    HW139603   5.450   6.264   5.287  0.4855 -0.8010 -0.0659
12834SOL    HW239604   5.323   6.325   5.343  1.0151  0.4751 -0.2201
12835SOL     OW39605   6.064   5.229   0.338 -0.4738 -0.0974  0.0032
12835SOL    HW139606   6.104   5.252   0.422 -0.7578 -0.0112  0.1133
12835SOL    HW239607   5.983   5.279   0.335 -0.2163  0.3037 -0.5510
12836SOL     OW39608   5.870   7.400   3.817  0.5114 -0.2138 -0.0282
12836SOL    HW139609   5.867   7.493   3.799  3.6616  0.4183  1.9271
12836SOL    HW239610   5.794   7.383   3.873 -0.9251  0.7788 -1.5915
12837SOL     OW39611   9.111   5.361   0.096 -0.2367 -0.2677 -0.0539
12837SOL    HW139612   9.060   5.441   0.085 -0.2916 -0.2176  0.5620
12837SOL    HW239613   9.189   5.375   0.041 -1.5043 -0.9292 -2.1535
12838SOL     OW39614   3.201   6.974   0.661  0.5527  0.4019  0.5910
12838SOL    HW139615   3.240   6.906   0.717  1.0131  0.1901  0.0196
12838SOL    HW239616   3.224   7.056   0.704  0.7940  0.2359  0.7852
12839SOL     OW39617   6.006   5.746   1.914 -0.1487  0.1596  0.0304
12839SOL    HW139618   5.925   5.772   1.959 -0.3001 -0.1053 -0.0888
12839SOL    HW239619   6.040   5.673   1.966 -1.0736 -1.1012 -1.0665
12840SOL     OW39620   7.683   6.044   2.992  0.0151 -0.2212  0.1388
12840SOL    HW139621   7.667   5.950   2.984  0.2998 -0.3957  1.3265
12840SOL    HW239622   7.779   6.052   2.991 -0.0159  0.1457 -0.7167
12841SOL     OW39623   7.036   7.491   4.212 -0.3626  0.1612 -0.2264
12841SOL    HW139624   7.115   7.543   4.197 -1.2831  1.6608 -0.1451
12841SOL    HW239625   7.054   7.407   4.171  0.9285  0.7750 -0.9874
12842SOL     OW39626   4.495   2.134   0.982  0.1251 -0.1143  0.5603
12842SOL    HW139627   4.459   2.113   0.896 -1.0744 -1.3462  1.3166
12842SOL    HW239628   4.517   2.048   1.020  2.6950  0.5018  0.6739
12843SOL     OW39629   8.830   2.114   5.026  0.0524  0.3096  0.2506
12843SOL    HW139630   8.737   2.097   5.011 -0.3889  1.6961  1.2366
12843SOL    HW239631   8.842   2.206   5.003  1.4161 -0.1039 -0.8188
12844SOL     OW39632   2.949   8.181   8.676  0.2079 -0.2170  0.0747
12844SOL    HW139633   2.892   8.186   8.753  2.5526  0.4686  1.8620
12844SOL    HW239634   3.005   8.105   8.692  2.7578  1.6577  0.6183
12845SOL     OW39635   7.057   4.890   2.485  0.7224 -0.5647  0.4055
12845SOL    HW139636   7.092   4.834   2.416  1.0345  1.2239 -0.9582
12845SOL    HW239637   7.134   4.932   2.524  0.4324 -0.3140  0.7166
12846SOL     OW39638   6.229   6.742   6.634 -0.0600 -0.5472  0.2359
12846SOL    HW139639   6.203   6.804   6.566  1.0381 -0.1888  0.1251
12846SOL    HW239640   6.227   6.657   6.590  1.9852 -0.1745 -0.6935
12847SOL     OW39641   2.038   6.481   6.301  0.3118 -0.0860  0.7162
12847SOL    HW139642   2.113   6.476   6.361 -1.3521  1.5122  3.0772
12847SOL    HW239643   1.980   6.410   6.329 -0.2207  0.3095  0.6201
12848SOL     OW39644   1.533   4.599   2.690 -0.3183  0.5444  0.0783
12848SOL    HW139645   1.579   4.516   2.678 -3.0358 -0.7948 -2.2584
12848SOL    HW239646   1.494   4.617   2.605 -0.5781  3.8280  0.7673
12849SOL     OW39647   0.097   7.568   5.559  0.4625  0.7740  0.3068
12849SOL    HW139648   0.139   7.592   5.477  1.2457  0.7687  0.7001
12849SOL    HW239649   0.079   7.474   5.550  1.4166  0.5659  0.5135
12850SOL     OW39650   1.855   8.708   4.614  0.1224  0.2776  0.1923
12850SOL    HW139651   1.889   8.623   4.642  0.1235 -0.0783 -0.8545
12850SOL    HW239652   1.857   8.704   4.518 -0.5387  1.1902  0.1337
12851SOL     OW39653   4.983   7.171   5.680 -0.3055  0.2291 -0.3789
12851SOL    HW139654   5.020   7.228   5.747 -0.9466  0.6490 -0.3612
12851SOL    HW239655   4.943   7.232   5.618 -0.5327 -0.1891 -0.6447
12852SOL     OW39656   7.148   8.515   0.432  0.2865 -0.7781  0.1971
12852SOL    HW139657   7.236   8.486   0.411  0.6585  0.8540 -0.7229
12852SOL    HW239658   7.154   8.611   0.431 -1.2083 -0.6383  1.3731
12853SOL     OW39659   1.516   6.258   3.209  0.4147 -0.0809 -0.4207
12853SOL    HW139660   1.596   6.301   3.237  1.4837 -2.2732  0.1406
12853SOL    HW239661   1.519   6.172   3.250 -1.3061 -0.9415 -1.9107
12854SOL     OW39662   8.759   1.496   7.560 -0.1579  0.4058 -0.1883
12854SOL    HW139663   8.820   1.569   7.562 -0.0226  0.2756  0.6595
12854SOL    HW239664   8.739   1.478   7.652  0.2528 -0.9871 -0.3448
12855SOL     OW39665   3.335   2.802   7.929  0.8166 -0.5318 -0.1053
12855SOL    HW139666   3.326   2.739   8.001  0.2572 -0.0121  0.2857
12855SOL    HW239667   3.360   2.748   7.854  0.9714 -1.1393  0.3731
12856SOL     OW39668   4.094   3.773   2.710 -0.6709 -0.3753  0.2022
12856SOL    HW139669   4.063   3.690   2.748 -2.3014  0.9821  2.0314
12856SOL    HW239670   4.040   3.785   2.632  1.1885 -2.0913 -1.4968
12857SOL     OW39671   1.351   5.447   5.063  0.1747 -0.8854 -0.3071
12857SOL    HW139672   1.352   5.533   5.106 -0.6195 -0.0955 -1.7987
12857SOL    HW239673   1.350   5.467   4.969 -0.2073 -2.5263 -0.6803
12858SOL     OW39674   2.886   5.883   2.389  0.4524  0.4282 -0.0551
12858SOL    HW139675   2.939   5.936   2.450 -1.3681  2.6979 -0.3176
12858SOL    HW239676   2.796   5.897   2.418 -0.4327  1.1211 -2.8929
12859SOL     OW39677   5.412   5.185   0.946 -0.5290  0.1781  0.2720
12859SOL    HW139678   5.369   5.265   0.916  0.6261  0.9826  0.6756
12859SOL    HW239679   5.366   5.161   1.026 -0.3673  0.9207  0.5996
12860SOL     OW39680   6.824   3.415   3.716  0.0176 -0.2488  0.3384
12860SOL    HW139681   6.897   3.380   3.766 -0.1627 -1.2753 -0.0927
12860SOL    HW239682   6.746   3.382   3.760 -0.2074  0.7494  0.7301
12861SOL     OW39683   2.221   8.846   1.324 -0.2603  0.3467 -0.0584
12861SOL    HW139684   2.213   8.870   1.231  2.1668 -1.2073 -0.7697
12861SOL    HW239685   2.248   8.927   1.367 -1.2303  1.0467 -0.7266
12862SOL     OW39686   1.798   6.645   3.241 -0.5565  0.2519 -0.3046
12862SOL    HW139687   1.708   6.679   3.237 -0.8164 -0.5190 -2.6357
12862SOL    HW239688   1.788   6.551   3.254  0.1179  0.5859  3.8974
12863SOL     OW39689   8.775   7.893   1.896  0.0268  0.3843 -0.2230
12863SOL    HW139690   8.702   7.954   1.898  0.6666  1.2150 -1.2990
12863SOL    HW239691   8.804   7.886   1.987 -0.9891  0.5210  0.1151
12864SOL     OW39692   3.248   1.192   1.176 -0.1340  0.2586 -0.1362
12864SOL    HW139693   3.327   1.166   1.222  0.0136 -0.8100 -0.9430
12864SOL    HW239694   3.241   1.286   1.191  2.2632  0.7279 -1.5081
12865SOL     OW39695   0.480   8.751   6.012  0.0483  0.6038 -0.7351
12865SOL    HW139696   0.447   8.662   6.003 -1.7629  1.3894 -3.1064
12865SOL    HW239697   0.549   8.758   5.945  0.7305  0.7772 -0.0275
12866SOL     OW39698   5.859   6.587   8.507  0.7586 -0.3780  0.5029
12866SOL    HW139699   5.856   6.535   8.588 -0.7106  0.0910  0.7713
12866SOL    HW239700   5.771   6.580   8.471  1.5256 -1.0060 -1.3570
12867SOL     OW39701   3.865   3.652   4.286 -0.8538  0.0255  0.6638
12867SOL    HW139702   3.951   3.659   4.245 -1.4358  0.5265 -0.5456
12867SOL    HW239703   3.881   3.667   4.379  0.1967  1.4766  0.2854
12868SOL     OW39704   8.381   7.840   6.603 -0.3210  0.3304  0.1019
12868SOL    HW139705   8.444   7.911   6.604  0.6863 -0.5323  0.4830
12868SOL    HW239706   8.430   7.764   6.571 -1.0422 -0.4635  0.8036
12869SOL     OW39707   5.906   0.280   5.065  0.1175 -1.0791  0.0471
12869SOL    HW139708   5.990   0.293   5.020  1.0961 -0.6026  1.8771
12869SOL    HW239709   5.894   0.185   5.067  1.2196 -1.2264  0.7523
12870SOL     OW39710   4.509   6.203   0.712 -0.0961 -0.0637  0.2907
12870SOL    HW139711   4.424   6.245   0.727  0.0674  0.7701 -0.9678
12870SOL    HW239712   4.490   6.132   0.651  0.3597  1.4359 -1.7286
12871SOL     OW39713   2.558   3.617   9.025 -0.1900  0.2874 -0.6105
12871SOL    HW139714   2.495   3.546   9.014 -0.0079 -0.2110  1.2824
12871SOL    HW239715   2.506   3.692   9.051 -0.0711 -0.0006  0.4902
12872SOL     OW39716   2.334   4.437   0.442 -0.1464 -0.2261 -0.5681
12872SOL    HW139717   2.295   4.377   0.378 -1.4461 -0.1828  0.1437
12872SOL    HW239718   2.327   4.390   0.525  0.5508  0.1515 -0.2908
12873SOL     OW39719   9.005   3.329   4.817  0.1651 -0.0209  0.1275
12873SOL    HW139720   9.099   3.341   4.830  0.0970  1.1188 -0.3324
12873SOL    HW239721   8.964   3.371   4.893  0.0306 -1.4642  0.8996
12874SOL     OW39722   7.053   5.663   4.858  0.3549  0.0757  0.3662
12874SOL    HW139723   6.959   5.668   4.877 -0.1267 -1.3823 -1.3637
12874SOL    HW239724   7.063   5.708   4.775  1.0883 -0.3147  0.2336
12875SOL     OW39725   2.712   0.296   3.534  0.5570 -0.1675  0.2389
12875SOL    HW139726   2.688   0.276   3.625  1.4007 -0.1998  0.4669
12875SOL    HW239727   2.779   0.365   3.542  0.3220  0.1328 -0.3769
12876SOL     OW39728   8.567   0.395   8.184  0.3726 -0.1146  0.8377
12876SOL    HW139729   8.535   0.317   8.229 -1.1679  0.2994  0.5070
12876SOL    HW239730   8.488   0.443   8.159  1.2318  0.5643 -0.7182
12877SOL     OW39731   8.643   8.139   4.915  0.5891  0.2399  0.3387
12877SOL    HW139732   8.700   8.214   4.900  1.1261 -0.1905  0.2186
12877SOL    HW239733   8.617   8.111   4.827 -1.3247  1.5584  0.3997
12878SOL     OW39734   0.103   3.128   3.991  0.2473  0.2337  0.0886
12878SOL    HW139735   0.084   3.219   3.968 -1.5147 -0.2051 -0.3711
12878SOL    HW239736   0.135   3.132   4.081 -2.0493  1.1594  0.9485
12879SOL     OW39737   5.267   4.149   8.357 -0.4542  0.3467  0.3981
12879SOL    HW139738   5.266   4.226   8.413 -0.4115 -0.4482  1.5126
12879SOL    HW239739   5.353   4.151   8.315  0.3274 -0.1087  1.8970
12880SOL     OW39740   8.862   0.373   8.499 -0.8484 -0.2494  0.1068
12880SOL    HW139741   8.847   0.414   8.414 -1.4459 -0.7157 -0.0248
12880SOL    HW239742   8.928   0.428   8.542  0.2013 -0.5690 -1.0535
12881SOL     OW39743   7.291   4.277   7.756  0.0201 -0.0786  0.3729
12881SOL    HW139744   7.277   4.213   7.687 -1.6420 -0.6526  1.2029
12881SOL    HW239745   7.205   4.315   7.772  0.7818  1.6280  0.6343
12882SOL     OW39746   2.376   5.071   7.161 -0.2183  0.5228  0.1644
12882SOL    HW139747   2.397   4.984   7.129  2.2807  2.0032 -2.7717
12882SOL    HW239748   2.439   5.087   7.231  1.1960  0.8742 -1.1319
12883SOL     OW39749   3.348   1.058   3.035  0.1830  0.2560 -0.3360
12883SOL    HW139750   3.416   1.125   3.027 -1.0313  1.4664 -1.0152
12883SOL    HW239751   3.330   1.053   3.129 -0.2769  1.5096 -0.3317
12884SOL     OW39752   5.700   0.596   9.110 -0.4080 -0.1116 -0.3299
12884SOL    HW139753   5.654   0.622   9.030 -2.1147 -0.2920  0.5485
12884SOL    HW239754   5.676   0.505   9.124  1.6807 -0.8030 -0.7597
12885SOL     OW39755   2.393   4.305   2.911  0.5242  0.0191  0.3475
12885SOL    HW139756   2.328   4.372   2.888 -0.0884 -0.5414  0.3961
12885SOL    HW239757   2.340   4.229   2.936  1.2083 -1.0076 -1.2050
12886SOL     OW39758   7.359   4.365   6.755  0.0695 -0.6515 -0.0963
12886SOL    HW139759   7.368   4.442   6.698 -0.2953 -0.6340 -0.1329
12886SOL    HW239760   7.285   4.386   6.812  2.0347  0.4789  2.2203
12887SOL     OW39761   7.665   2.092   8.432 -0.4572  1.3285  0.2226
12887SOL    HW139762   7.571   2.101   8.414 -0.2482 -0.9840 -2.8579
12887SOL    HW239763   7.706   2.164   8.384 -0.5394  0.6285 -0.9536
12888SOL     OW39764   2.022   0.591   2.784  0.2559  0.3063  0.1912
12888SOL    HW139765   2.115   0.595   2.762  0.7345 -3.4425  0.9210
12888SOL    HW239766   1.982   0.540   2.713 -1.1584  1.2149  0.2752
12889SOL     OW39767   1.555   3.083   5.562  0.1026 -0.3527 -0.1924
12889SOL    HW139768   1.568   3.073   5.656  0.3198 -0.2700 -0.2130
12889SOL    HW239769   1.500   3.009   5.537 -0.9068  0.2416  0.1967
12890SOL     OW39770   3.884   2.349   0.440  0.0070  0.0283 -0.3206
12890SOL    HW139771   3.927   2.294   0.506  1.3454  0.4398 -0.8043
12890SOL    HW239772   3.836   2.287   0.385 -1.3155 -0.2970  1.1433
12891SOL     OW39773   7.988   0.034   8.049 -0.5355  0.4838 -0.1004
12891SOL    HW139774   8.044   0.046   7.972  0.7644  0.1663  0.7662
12891SOL    HW239775   7.915  -0.019   8.017 -0.5656  1.2268 -1.3450
12892SOL     OW39776   2.309   2.619   9.064 -0.2526 -0.6126 -0.0262
12892SOL    HW139777   2.259   2.665   8.996  0.2831  2.6038  1.5567
12892SOL    HW239778   2.253   2.625   9.142  0.8554 -0.5860  0.7784
12893SOL     OW39779   0.354   1.978   4.333 -0.0200 -0.2845 -0.3838
12893SOL    HW139780   0.327   1.922   4.260  2.8636 -1.1809 -0.8684
12893SOL    HW239781   0.308   2.061   4.318  0.0425 -0.6402 -2.8859
12894SOL     OW39782   3.349   7.284   2.515  0.2273 -0.1973 -0.0970
12894SOL    HW139783   3.383   7.223   2.449 -0.5857 -0.7428 -0.0291
12894SOL    HW239784   3.258   7.258   2.526 -0.2409  1.2710 -0.3230
12895SOL     OW39785   5.658   3.548   3.322 -0.1519  0.4835 -0.2351
12895SOL    HW139786   5.594   3.512   3.259 -0.3319  0.4140 -0.0143
12895SOL    HW239787   5.667   3.640   3.297 -0.5765  0.5732 -0.0751
12896SOL     OW39788   0.140   4.270   1.234 -0.1798  0.0548 -0.2102
12896SOL    HW139789   0.065   4.210   1.237  0.9333 -1.5837 -2.3731
12896SOL    HW239790   0.216   4.214   1.228  1.0460  1.6817 -0.7115
12897SOL     OW39791   0.450   3.788   4.516  0.4523  0.0058  0.0466
12897SOL    HW139792   0.387   3.842   4.561 -0.2627 -0.7703  0.0042
12897SOL    HW239793   0.499   3.744   4.586 -1.0270 -1.6242  0.1172
12898SOL     OW39794   7.080   6.984   8.858  0.2504 -0.4348 -0.4381
12898SOL    HW139795   7.101   6.994   8.951  3.6478  0.3389 -1.1471
12898SOL    HW239796   7.096   6.891   8.839 -2.8862 -1.1811  0.1774
12899SOL     OW39797   7.892   9.109   4.190  0.2115  0.9932  0.4517
12899SOL    HW139798   7.921   9.136   4.277  0.3324  0.2393  0.6477
12899SOL    HW239799   7.815   9.055   4.205  2.0198 -1.8358  0.3748
12900SOL     OW39800   0.587   7.691   7.063 -0.5107 -0.2745 -0.3560
12900SOL    HW139801   0.643   7.763   7.032 -1.0448 -0.1508 -1.0573
12900SOL    HW239802   0.573   7.710   7.155  0.5007 -0.2416 -0.1976
12901SOL     OW39803   7.392   0.732   0.480 -0.6184  0.1539  0.1748
12901SOL    HW139804   7.468   0.747   0.536 -0.0287 -1.6060 -0.0814
12901SOL    HW239805   7.319   0.720   0.541 -0.2276 -0.4491  0.5427
12902SOL     OW39806   6.684   2.417   7.378  0.0941  0.2026  0.4924
12902SOL    HW139807   6.619   2.356   7.343  0.7546  0.2085 -0.7838
12902SOL    HW239808   6.666   2.419   7.472 -0.3644 -1.4520  0.4651
12903SOL     OW39809   6.877   5.767   5.098 -0.5736  0.1307  0.4409
12903SOL    HW139810   6.818   5.821   5.044 -0.1402  1.0814  0.8941
12903SOL    HW239811   6.879   5.812   5.183 -0.5883 -0.8871  0.9933
12904SOL     OW39812   7.731   6.947   2.497  0.1437  0.2329  0.1239
12904SOL    HW139813   7.799   6.941   2.564 -0.7046 -0.8632  0.9194
12904SOL    HW239814   7.777   6.928   2.415  1.0772  1.0250  0.4437
12905SOL     OW39815   5.940   2.217   7.812  0.5420  0.1553  0.1280
12905SOL    HW139816   5.951   2.309   7.791 -1.0001  0.5122  0.7008
12905SOL    HW239817   5.917   2.175   7.729  0.8726  0.3519 -0.0623
12906SOL     OW39818   3.365   1.561   2.752 -0.0424  0.6350  0.3579
12906SOL    HW139819   3.361   1.654   2.730 -0.4410  0.5280 -0.0556
12906SOL    HW239820   3.300   1.520   2.694 -1.0548  0.3134  1.6629
12907SOL     OW39821   2.018   2.577   0.366 -0.3760  0.0987 -0.5866
12907SOL    HW139822   1.928   2.561   0.392  0.1018  1.2571  2.0167
12907SOL    HW239823   2.033   2.670   0.382  1.7016 -0.3596  0.5515
12908SOL     OW39824   5.827   2.728   8.409  0.0791 -0.4005 -0.3511
12908SOL    HW139825   5.834   2.788   8.483 -0.9042 -1.4408  0.6248
12908SOL    HW239826   5.912   2.683   8.406 -0.0889 -0.7873  0.5360
12909SOL     OW39827   5.472   4.672   2.671  0.4614 -0.2268 -0.0392
12909SOL    HW139828   5.508   4.733   2.735 -0.1616 -0.9061  0.9979
12909SOL    HW239829   5.464   4.723   2.591  1.5822  0.5576  0.3193
12910SOL     OW39830   1.609   4.085   5.020 -0.2305 -0.0465  0.3378
12910SOL    HW139831   1.519   4.090   5.052 -0.1478 -0.3852  0.6268
12910SOL    HW239832   1.662   4.115   5.094 -0.1162  0.3686  0.0936
12911SOL     OW39833   1.107   1.349   4.046 -0.0267 -0.0524 -0.3033
12911SOL    HW139834   1.036   1.288   4.065 -0.0683  0.1986  0.3562
12911SOL    HW239835   1.102   1.415   4.116  1.5484 -0.6399  0.4005
12912SOL     OW39836   8.571   0.345   7.365  0.7255 -0.0214 -0.2013
12912SOL    HW139837   8.618   0.374   7.288  1.9297 -2.7841 -0.6269
12912SOL    HW239838   8.639   0.318   7.427 -0.2370 -0.2354  0.8116
12913SOL     OW39839   5.768   3.633   6.358 -0.1280  0.0530  0.1426
12913SOL    HW139840   5.743   3.541   6.373  0.7244 -0.1184  0.5206
12913SOL    HW239841   5.810   3.661   6.439  0.0244  0.6450 -0.1357
12914SOL     OW39842   3.244   0.612   8.451 -0.1713 -0.4760 -0.3313
12914SOL    HW139843   3.201   0.535   8.489 -3.4188  1.2945 -0.0662
12914SOL    HW239844   3.248   0.594   8.357  0.4105 -1.4990 -0.1271
12915SOL     OW39845   2.159   3.913   3.482 -0.2409 -0.0245  0.0396
12915SOL    HW139846   2.165   3.852   3.409  1.4412 -1.4774  1.2914
12915SOL    HW239847   2.233   3.890   3.539 -0.8118  1.7846  1.6436
12916SOL     OW39848   8.729   2.164   2.436 -0.1473  0.0469 -0.6270
12916SOL    HW139849   8.745   2.070   2.444  0.6352  0.0349 -2.0721
12916SOL    HW239850   8.817   2.203   2.438 -0.5321  0.9723  2.0633
12917SOL     OW39851   6.420   8.970   8.094  0.3135 -0.3806  0.6428
12917SOL    HW139852   6.391   9.061   8.084 -0.2349 -0.6070  0.0746
12917SOL    HW239853   6.502   8.965   8.045 -1.2555 -0.9362 -2.1618
12918SOL     OW39854   6.562   7.477   3.495 -0.3444  0.2719  0.1348
12918SOL    HW139855   6.642   7.486   3.546 -1.0304  0.8882  1.1344
12918SOL    HW239856   6.492   7.472   3.560 -1.0209 -1.7703 -0.6437
12919SOL     OW39857   0.508   6.391   7.887  0.0479  0.0120 -0.0833
12919SOL    HW139858   0.512   6.361   7.978 -0.8723 -0.5503 -0.2178
12919SOL    HW239859   0.439   6.457   7.887 -1.6390 -1.6584 -0.8010
12920SOL     OW39860   0.704   6.736   2.931  0.3680 -0.4324  0.1681
12920SOL    HW139861   0.670   6.818   2.896  0.6967  0.2075  1.2802
12920SOL    HW239862   0.629   6.677   2.930 -0.2826  0.3541  0.7484
12921SOL     OW39863   5.541   7.354   5.538 -0.2547  0.3713 -0.2982
12921SOL    HW139864   5.605   7.410   5.583  0.1349  0.1221 -0.5304
12921SOL    HW239865   5.481   7.325   5.607  0.7526 -0.5874  0.2025
12922SOL     OW39866   0.159   0.875   2.931  0.4901 -0.6089  0.0421
12922SOL    HW139867   0.140   0.864   2.838  1.0627 -0.4524 -0.1005
12922SOL    HW239868   0.127   0.795   2.973 -2.3210  0.4567  0.1285
12923SOL     OW39869   5.773   2.889   2.811  0.1251 -0.4893  0.2540
12923SOL    HW139870   5.699   2.836   2.842 -0.2070  0.0683  0.4244
12923SOL    HW239871   5.849   2.830   2.817 -0.2074 -0.8880  0.6150
12924SOL     OW39872   3.916   7.393   8.575  0.4250 -0.8945 -0.5658
12924SOL    HW139873   3.889   7.462   8.515  1.7197  0.1090 -0.0501
12924SOL    HW239874   3.870   7.412   8.657  0.7757 -0.6369 -0.4263
12925SOL     OW39875   5.198   7.012   3.550  0.0609  0.1602 -0.5533
12925SOL    HW139876   5.283   6.990   3.589 -0.3150  0.0345  0.2058
12925SOL    HW239877   5.163   7.081   3.606  0.4267  1.5071 -1.8762
12926SOL     OW39878   1.256   7.014   8.994 -0.0865  0.3633  0.2521
12926SOL    HW139879   1.237   6.934   9.042 -0.3843 -0.9240 -1.8664
12926SOL    HW239880   1.270   7.080   9.061  1.8965 -1.8135  2.1549
12927SOL     OW39881   3.386   8.842   3.399 -0.1910 -0.0525 -0.5927
12927SOL    HW139882   3.308   8.806   3.443  0.7683 -1.0253  0.3738
12927SOL    HW239883   3.396   8.789   3.320 -0.2282 -0.2416 -0.4711
12928SOL     OW39884   6.083   9.097   4.215 -0.4251  0.0734  0.5569
12928SOL    HW139885   6.165   9.137   4.246  0.5381  0.2278 -1.9884
12928SOL    HW239886   6.035   9.170   4.175 -0.4865 -0.5540 -0.5271
12929SOL     OW39887   4.343   6.091   1.518  0.3303 -0.4981 -0.1330
12929SOL    HW139888   4.273   6.107   1.455 -1.0778 -1.7456  1.0313
12929SOL    HW239889   4.413   6.050   1.467 -0.4617 -0.7664 -1.0181
12930SOL     OW39890   3.448   2.855   8.683  0.6253  0.3937  0.1946
12930SOL    HW139891   3.458   2.763   8.706 -0.3723  0.2008 -0.0993
12930SOL    HW239892   3.530   2.896   8.710  0.4106 -0.2579  1.9377
12931SOL     OW39893   8.243   3.793   9.126  0.3839 -0.3679  0.0618
12931SOL    HW139894   8.182   3.772   9.056  0.0716  0.2276  0.1515
12931SOL    HW239895   8.194   3.852   9.184  1.0637  0.1591  0.1061
12932SOL     OW39896   8.062   6.952   8.507  0.1701  0.3096  0.6748
12932SOL    HW139897   7.997   7.022   8.499 -1.2477 -0.9263  1.0277
12932SOL    HW239898   8.067   6.913   8.419  0.0303  0.0576  0.7777
12933SOL     OW39899   3.383   8.139   0.487  0.5491 -0.3811 -0.0570
12933SOL    HW139900   3.381   8.173   0.398  1.5570  0.0449  0.0664
12933SOL    HW239901   3.378   8.218   0.542  0.7558 -0.5880  0.2562
12934SOL     OW39902   6.541   8.774   7.728 -0.5604  0.5451 -0.0423
12934SOL    HW139903   6.525   8.859   7.769 -1.5911  2.1412 -3.3276
12934SOL    HW239904   6.453   8.739   7.709 -0.1430 -0.6206  0.0767
12935SOL     OW39905   1.450   0.802   3.191 -0.0372  0.3056 -0.2435
12935SOL    HW139906   1.432   0.807   3.097 -1.3589  0.3657 -0.0133
12935SOL    HW239907   1.506   0.877   3.208 -2.6899  2.4628 -0.4114
12936SOL     OW39908   0.535   3.227   3.758  0.4213  0.3770 -0.1045
12936SOL    HW139909   0.534   3.133   3.739 -0.2456  0.3610 -0.0201
12936SOL    HW239910   0.537   3.233   3.854  0.7470  0.4468 -0.1168
12937SOL     OW39911   7.046   7.337   3.042 -0.2332 -0.0682  0.2623
12937SOL    HW139912   7.046   7.357   3.135  0.2928 -2.8092  0.9429
12937SOL    HW239913   7.126   7.287   3.028 -0.3335  0.2250 -1.6734
12938SOL     OW39914   7.481   7.964   6.614  0.0611 -0.5738 -0.7960
12938SOL    HW139915   7.394   7.947   6.652  0.0545  0.4246 -0.3288
12938SOL    HW239916   7.468   7.952   6.520 -0.6092 -0.3272 -0.7441
12939SOL     OW39917   2.668   1.838   5.903 -0.0203 -0.2669  0.1753
12939SOL    HW139918   2.587   1.833   5.852 -0.7293  1.4309  1.0591
12939SOL    HW239919   2.642   1.810   5.991  0.6398 -0.8431  0.1962
12940SOL     OW39920   9.020   1.627   3.077  0.3450  0.3670  0.3134
12940SOL    HW139921   9.006   1.541   3.039  0.9776 -0.1335  1.1597
12940SOL    HW239922   9.113   1.647   3.060  0.7736 -0.0793  1.9321
12941SOL     OW39923   0.464   6.903   4.685 -0.3301 -0.1170  0.1189
12941SOL    HW139924   0.510   6.827   4.648 -0.0586 -0.2559  0.7297
12941SOL    HW239925   0.422   6.868   4.764  0.6572  0.6010  0.9830
12942SOL     OW39926   1.693   8.824   5.114 -0.1141  0.1718  0.7381
12942SOL    HW139927   1.609   8.779   5.125 -0.2704  0.6532  1.6791
12942SOL    HW239928   1.756   8.766   5.156 -0.0130 -0.0596  0.2731
12943SOL     OW39929   3.096   6.742   6.286 -0.2145 -0.0083 -0.3596
12943SOL    HW139930   3.105   6.707   6.374 -0.0519  0.4014 -0.2134
12943SOL    HW239931   3.135   6.829   6.290 -0.9143  0.3253 -0.6400
12944SOL     OW39932   2.508   6.683   0.164 -0.3189 -0.3650 -0.5092
12944SOL    HW139933   2.512   6.778   0.166 -0.4120 -0.3659  1.6097
12944SOL    HW239934   2.444   6.663   0.095 -1.1984  1.1522 -0.1729
12945SOL     OW39935   3.598   0.601   7.082  0.0071  0.1514  0.4172
12945SOL    HW139936   3.667   0.615   7.146  1.1653  0.4863 -0.8545
12945SOL    HW239937   3.524   0.653   7.114  1.1881  1.8481  0.5110
12946SOL     OW39938   5.548   3.330   4.514  0.1072  0.6389 -0.1341
12946SOL    HW139939   5.545   3.300   4.424 -2.7018 -0.6439  0.2927
12946SOL    HW239940   5.595   3.261   4.561 -0.3964  0.2187 -0.2485
12947SOL     OW39941   8.871   6.543   1.150  0.0726  0.2161  0.5132
12947SOL    HW139942   8.792   6.488   1.153 -0.0510  0.3883  0.4443
12947SOL    HW239943   8.916   6.524   1.232  0.9151 -1.2738 -0.2593
12948SOL     OW39944   7.342   4.747   5.934 -0.0485 -0.4647 -0.5017
12948SOL    HW139945   7.324   4.801   6.012 -0.4634 -1.6572  0.2608
12948SOL    HW239946   7.402   4.799   5.882  1.0536 -0.0484  1.1119
12949SOL     OW39947   8.623   4.316   5.913  0.0690  0.0272 -0.4105
12949SOL    HW139948   8.623   4.384   5.845 -2.0790  1.8062  1.1899
12949SOL    HW239949   8.573   4.355   5.984 -0.1475 -2.8204  1.1164
12950SOL     OW39950   8.508   6.910   5.497  0.3846  0.0673  0.0409
12950SOL    HW139951   8.543   6.880   5.581  0.1853 -1.6006 -0.4368
12950SOL    HW239952   8.544   6.998   5.485  1.6196 -0.2687  1.1663
12951SOL     OW39953   5.688   4.402   7.159 -0.0013 -0.2847  0.2963
12951SOL    HW139954   5.741   4.348   7.100  1.3642  0.0813  1.1528
12951SOL    HW239955   5.681   4.350   7.239  0.8357  0.5351  0.9213
12952SOL     OW39956   2.685   6.939   9.133 -0.0800  0.2244  0.1468
12952SOL    HW139957   2.602   6.985   9.120  0.0882  0.6518  0.5565
12952SOL    HW239958   2.690   6.923   9.227  0.2052  0.0171  0.0992
12953SOL     OW39959   6.604   5.744   2.210 -1.0056 -0.1289 -0.3650
12953SOL    HW139960   6.643   5.830   2.223 -0.5369 -0.4420  0.4152
12953SOL    HW239961   6.510   5.758   2.219 -0.8482  0.0357  1.6206
12954SOL     OW39962   6.781   5.206   3.894  0.0500 -0.0902 -0.3611
12954SOL    HW139963   6.833   5.151   3.953 -0.2868  0.1978  0.2210
12954SOL    HW239964   6.690   5.193   3.923 -0.2037 -0.5874 -1.3655
12955SOL     OW39965   7.667   1.362   2.039  0.0753  0.0439 -0.7687
12955SOL    HW139966   7.625   1.434   2.087  1.4133  0.1014  0.3651
12955SOL    HW239967   7.749   1.399   2.007  0.6258 -0.8739 -0.4554
12956SOL     OW39968   7.754   0.290   8.759  0.1550 -0.3665 -0.0572
12956SOL    HW139969   7.774   0.343   8.837 -1.5787  4.0398 -2.2669
12956SOL    HW239970   7.667   0.253   8.777 -0.0062  0.1936  0.3630
12957SOL     OW39971   7.720   8.685   4.576 -0.4271 -0.1928  0.4882
12957SOL    HW139972   7.781   8.696   4.503 -0.3145  0.7734  0.7125
12957SOL    HW239973   7.657   8.756   4.565  0.9245  1.4720  2.6246
12958SOL     OW39974   8.551   1.037   7.409 -0.1300  0.2132 -0.2753
12958SOL    HW139975   8.534   1.025   7.315  1.5058  0.1033 -0.5812
12958SOL    HW239976   8.557   0.948   7.444 -0.3794  0.2503 -0.1409
12959SOL     OW39977   7.498   8.483   4.332  0.0322  0.6308  0.1423
12959SOL    HW139978   7.550   8.480   4.252 -2.0038  1.4153 -1.2984
12959SOL    HW239979   7.516   8.570   4.369 -1.3554  1.5511 -1.2112
12960SOL     OW39980   5.902   7.475   8.009  0.3665 -0.1199 -0.2564
12960SOL    HW139981   5.847   7.399   7.987  0.3810 -0.2634  0.1889
12960SOL    HW239982   5.871   7.502   8.096 -1.3467  1.9461 -1.4295
12961SOL     OW39983   6.613   4.053   4.569 -0.3950 -0.1463  0.5541
12961SOL    HW139984   6.582   4.048   4.479  0.5238 -1.1568  0.2549
12961SOL    HW239985   6.656   4.138   4.576 -0.9092  0.1413  0.1852
12962SOL     OW39986   1.202   3.766   3.888 -0.2128 -0.6952  0.6681
12962SOL    HW139987   1.248   3.683   3.880 -0.3209 -0.6323 -0.9455
12962SOL    HW239988   1.261   3.822   3.938  0.3135 -1.4065  0.8523
12963SOL     OW39989   5.721   5.777   1.683  0.1905 -0.2635 -0.6382
12963SOL    HW139990   5.755   5.692   1.712  0.3716  0.4124  1.2998
12963SOL    HW239991   5.795   5.817   1.636  1.4956  0.3604  1.7889
12964SOL     OW39992   7.343   7.569   9.003 -0.5921  0.4016  0.0203
12964SOL    HW139993   7.289   7.645   9.023 -0.1669  0.2987  1.6727
12964SOL    HW239994   7.430   7.591   9.035 -0.8420 -1.4002  2.1894
12965SOL     OW39995   2.804   7.568   4.335  0.2291 -0.1468  0.3571
12965SOL    HW139996   2.855   7.617   4.399 -0.4607  1.5985 -0.3509
12965SOL    HW239997   2.867   7.545   4.267  0.4848  0.1920  0.4769
12966SOL     OW39998   3.888   0.713   4.910  0.2543  0.2776  0.7016
12966SOL    HW139999   3.896   0.621   4.887 -0.5239  0.1322  0.9861
12966SOL    HW240000   3.976   0.749   4.897  0.3016 -0.2395 -0.5278
12967SOL     OW40001   5.346   0.749   0.866  0.5527 -0.4282 -0.0595
12967SOL    HW140002   5.429   0.798   0.862 -1.0436  2.5620  0.5053
12967SOL    HW240003   5.337   0.724   0.958 -0.6322  2.2333  0.6480
12968SOL     OW40004   3.638   2.302   0.883 -0.3639  0.0510 -0.6513
12968SOL    HW140005   3.723   2.296   0.840 -0.5655  0.9783 -1.1974
12968SOL    HW240006   3.586   2.230   0.846  0.7533 -1.7710  1.0874
12969SOL     OW40007   4.314   7.681   4.053  0.2198  0.0483 -0.2062
12969SOL    HW140008   4.233   7.729   4.070  0.4161  0.6609 -0.9370
12969SOL    HW240009   4.381   7.730   4.102  0.2016 -0.3014  0.1784
12970SOL     OW40010   7.694   1.345   8.520 -0.3508 -0.5842 -0.3416
12970SOL    HW140011   7.764   1.334   8.584  0.9290 -0.2400 -1.6269
12970SOL    HW240012   7.735   1.324   8.436 -2.0601 -1.3424 -1.0425
12971SOL     OW40013   8.534   3.927   7.110 -0.4386 -0.5952  0.1560
12971SOL    HW140014   8.489   3.956   7.189  1.0662  1.5323  0.3043
12971SOL    HW240015   8.617   3.890   7.142  0.5069  0.9600 -0.4300
12972SOL     OW40016   2.580   3.497   4.056 -0.3350 -0.7313 -0.2921
12972SOL    HW140017   2.559   3.426   4.117  0.8060 -0.5053  0.3974
12972SOL    HW240018   2.620   3.453   3.981 -1.1317 -0.9535 -0.5918
12973SOL     OW40019   3.123   6.355   4.153 -0.5700 -0.5068  0.1678
12973SOL    HW140020   3.072   6.374   4.231 -1.0616 -1.1002 -0.0028
12973SOL    HW240021   3.186   6.427   4.148 -0.7135 -0.3137  0.9499
12974SOL     OW40022   1.908   5.246   8.752  0.0851 -0.8515  0.5089
12974SOL    HW140023   1.878   5.219   8.665  1.3079  0.1329 -0.2567
12974SOL    HW240024   1.890   5.340   8.756  1.5712 -0.5354  0.6162
12975SOL     OW40025   4.849   0.456   3.807  0.2364  0.0495  0.1069
12975SOL    HW140026   4.796   0.536   3.814  0.4024  0.0222  2.6797
12975SOL    HW240027   4.799   0.390   3.855  1.1352 -0.8039 -0.1046
12976SOL     OW40028   8.188   5.304   3.789 -0.0633 -0.6436 -0.0276
12976SOL    HW140029   8.262   5.279   3.735  1.4922  0.5273  1.4490
12976SOL    HW240030   8.111   5.283   3.736  1.3069 -1.7291 -1.6831
12977SOL     OW40031   5.144   7.481   6.568 -0.7570 -0.2996 -0.0727
12977SOL    HW140032   5.080   7.425   6.523 -0.9095 -2.0550  2.1364
12977SOL    HW240033   5.224   7.429   6.570 -0.2801  0.4409  0.2075
12978SOL     OW40034   0.581   6.788   5.687 -0.1313 -0.2983  0.2019
12978SOL    HW140035   0.513   6.850   5.714  0.7883  0.9829 -0.3191
12978SOL    HW240036   0.533   6.713   5.651 -1.2678  0.1360  0.7845
12979SOL     OW40037   0.542   6.014   5.299 -0.5089 -0.4665  0.2025
12979SOL    HW140038   0.523   5.987   5.209  1.0208 -0.1130 -0.2545
12979SOL    HW240039   0.477   6.082   5.318 -1.5547 -1.3265 -0.2264
12980SOL     OW40040   7.069   2.303   8.199  0.4364  0.2275 -0.6644
12980SOL    HW140041   7.123   2.246   8.144 -1.0893 -0.6941 -1.2803
12980SOL    HW240042   7.045   2.376   8.142 -0.3710 -0.2481 -0.9464
12981SOL     OW40043   3.450   0.400   2.557 -0.0248 -0.4492  0.3075
12981SOL    HW140044   3.465   0.315   2.599 -0.1575  0.0162  1.3221
12981SOL    HW240045   3.452   0.463   2.629 -2.6123  0.1237 -0.0330
12982SOL     OW40046   4.987   1.337   1.013  0.1857  0.1584 -0.2324
12982SOL    HW140047   5.029   1.343   1.098 -1.5817 -2.6917  1.0017
12982SOL    HW240048   4.898   1.370   1.027 -0.0332 -0.0475 -1.0574
12983SOL     OW40049   2.953   2.253   0.872  0.3528 -0.0424  0.6065
12983SOL    HW140050   2.868   2.210   0.867  0.2898  0.2021 -0.8958
12983SOL    HW240051   2.938   2.341   0.838  1.1649  0.0583  0.4739
12984SOL     OW40052   0.618   0.690   6.021  0.0134  0.1126  0.2085
12984SOL    HW140053   0.591   0.636   5.947  0.8181 -0.7474  0.5295
12984SOL    HW240054   0.640   0.628   6.090  1.3964  0.8126  0.4260
12985SOL     OW40055   4.719   7.441   6.055  0.2159  0.2103  0.0815
12985SOL    HW140056   4.749   7.531   6.041  2.2274 -0.2437  1.0853
12985SOL    HW240057   4.626   7.449   6.077  0.7298  2.2226  1.8066
12986SOL     OW40058   1.095   5.183   5.014  0.6494 -0.4576  0.0689
12986SOL    HW140059   1.011   5.227   5.002  0.0139 -1.9641 -1.4457
12986SOL    HW240060   1.126   5.214   5.099 -0.6733  1.3285 -0.0370
12987SOL     OW40061   1.233   3.323   3.234 -0.0000  0.3058  0.1018
12987SOL    HW140062   1.238   3.383   3.160  0.5404  1.4141  1.0150
12987SOL    HW240063   1.263   3.239   3.199  0.5911  0.8967 -0.8350
12988SOL     OW40064   0.715   8.945   7.505  0.0059 -0.0080  0.0129
12988SOL    HW140065   0.797   8.930   7.459  0.9033 -1.4436  1.9278
12988SOL    HW240066   0.736   9.010   7.572 -0.3077 -0.6393  0.7438
12989SOL     OW40067   9.084   6.533   6.143  0.2508 -0.3504 -0.0912
12989SOL    HW140068   9.118   6.529   6.054 -1.1469  1.7334 -0.7971
12989SOL    HW240069   9.088   6.626   6.166 -0.2675 -0.7330  1.6753
12990SOL     OW40070   3.244   0.173   2.425  0.3925 -0.1278 -0.2135
12990SOL    HW140071   3.289   0.158   2.508 -1.0959 -0.9662  0.4882
12990SOL    HW240072   3.225   0.267   2.424  0.6949 -0.0614  0.2559
12991SOL     OW40073   0.274   3.312   7.972  0.6207 -0.6243 -0.1397
12991SOL    HW140074   0.204   3.254   7.943  0.0236 -0.5191  1.0243
12991SOL    HW240075   0.264   3.391   7.918  0.9948 -1.3131 -1.2316
12992SOL     OW40076   0.153   8.842   8.584  0.3273 -0.1400  0.3750
12992SOL    HW140077   0.210   8.834   8.508  1.8518  0.1047  1.4562
12992SOL    HW240078   0.212   8.840   8.660 -1.0930  0.1187  1.5430
12993SOL     OW40079   8.451   2.777   1.292  0.3478 -0.6677  0.1786
12993SOL    HW140080   8.505   2.707   1.331 -0.8297 -2.5717 -1.4397
12993SOL    HW240081   8.513   2.830   1.242  0.8079 -2.7681 -1.5865
12994SOL     OW40082   1.237   4.461   2.941 -0.1056 -0.0213  0.1147
12994SOL    HW140083   1.186   4.409   3.004  0.1240  0.3882  0.6535
12994SOL    HW240084   1.293   4.515   2.996 -0.1188  0.5695 -0.4468
12995SOL     OW40085   2.025   1.678   5.844  1.0818 -0.3181 -0.0873
12995SOL    HW140086   1.991   1.683   5.933 -0.3394 -1.4148 -0.5400
12995SOL    HW240087   2.106   1.729   5.846  0.6137  0.3960  1.6030
12996SOL     OW40088   1.637   2.030   5.734 -0.2926 -0.4290 -0.3476
12996SOL    HW140089   1.605   1.944   5.762 -0.6810  0.1309  1.0446
12996SOL    HW240090   1.730   2.028   5.754 -0.4307 -0.2982  0.3540
12997SOL     OW40091   2.639   2.171   5.181  0.0148 -0.2715 -0.4299
12997SOL    HW140092   2.603   2.259   5.197 -1.7462 -0.9666 -0.3521
12997SOL    HW240093   2.696   2.183   5.105  0.5925  1.1181  0.1793
12998SOL     OW40094   7.680   7.366   3.555 -0.3020 -0.0148  0.5540
12998SOL    HW140095   7.697   7.311   3.478  0.4760 -0.6423  1.1552
12998SOL    HW240096   7.723   7.449   3.535  0.3454 -0.3492  0.5118
12999SOL     OW40097   4.082   8.376   0.865 -0.0304  0.6558 -0.1872
12999SOL    HW140098   4.049   8.372   0.955 -0.0977  0.1432 -0.2290
12999SOL    HW240099   4.118   8.464   0.857 -0.4580  0.8753  0.1894
13000SOL     OW40100   1.181   0.668   7.740  0.1491  0.0952 -0.3919
13000SOL    HW140101   1.094   0.644   7.773  1.0823  0.0650  2.3505
13000SOL    HW240102   1.195   0.609   7.666 -1.4993 -1.0739  0.1583
13001SOL     OW40103   7.222   3.507   7.576  0.7127 -0.4021  0.4622
13001SOL    HW140104   7.279   3.523   7.501 -1.3411  0.3005 -1.0630
13001SOL    HW240105   7.199   3.595   7.608  0.6263 -0.6698  1.1463
13002SOL     OW40106   8.443   0.677   8.741 -0.1514  0.0612 -0.0318
13002SOL    HW140107   8.509   0.745   8.726 -0.6132  0.4016 -0.5236
13002SOL    HW240108   8.439   0.629   8.659 -0.3234 -0.1300  0.0891
13003SOL     OW40109   7.674   8.151   4.312 -0.1014 -0.2036  0.4691
13003SOL    HW140110   7.592   8.185   4.350 -0.2365 -0.3154  0.2752
13003SOL    HW240111   7.740   8.173   4.377 -0.4052 -0.8128  1.0002
13004SOL     OW40112   3.424   5.453   7.921 -0.3769  0.0491 -0.6457
13004SOL    HW140113   3.517   5.472   7.934 -1.0030  2.4717  0.9038
13004SOL    HW240114   3.412   5.366   7.959  0.6728  1.1215  2.4513
13005SOL     OW40115   2.592   1.761   0.948 -0.0686  0.2125  0.5605
13005SOL    HW140116   2.650   1.689   0.971  1.5334  1.1575 -0.3413
13005SOL    HW240117   2.535   1.772   1.024 -0.0095 -1.6417  0.9088
13006SOL     OW40118   6.429   9.038   5.111 -0.9575 -0.5322  0.0065
13006SOL    HW140119   6.376   9.010   5.036 -1.4853  0.5738 -0.0450
13006SOL    HW240120   6.459   9.126   5.088  1.7622 -1.4600 -0.4121
13007SOL     OW40121   0.311   4.116   0.115  0.6213  0.0078  0.4109
13007SOL    HW140122   0.320   4.163   0.033 -1.3386 -0.3758 -0.0798
13007SOL    HW240123   0.397   4.075   0.129  0.5331 -1.3866 -2.3923
13008SOL     OW40124   1.169   5.534   3.542 -0.0744 -0.3389  0.0266
13008SOL    HW140125   1.226   5.600   3.503 -0.1296 -1.4754 -2.0856
13008SOL    HW240126   1.229   5.478   3.592  0.6762 -1.2490 -1.7937
13009SOL     OW40127   5.000   4.446   1.721 -0.3287 -0.1545  0.3296
13009SOL    HW140128   4.942   4.381   1.683 -1.0163  0.1059  0.9159
13009SOL    HW240129   4.984   4.440   1.816  1.2423 -0.6995  0.5968
13010SOL     OW40130   7.619   0.751   2.158  0.5090  0.3866  0.0741
13010SOL    HW140131   7.661   0.681   2.208  0.5464  1.3158  1.4118
13010SOL    HW240132   7.687   0.781   2.098  1.6921  1.5302  1.8710
13011SOL     OW40133   5.076   7.179   5.305  0.1645 -0.6929 -0.2941
13011SOL    HW140134   5.142   7.152   5.242 -0.6179 -1.7440 -0.6957
13011SOL    HW240135   5.126   7.205   5.383  1.1479  0.7073 -1.3423
13012SOL     OW40136   3.725   6.332   3.858  0.6561  0.5737  0.2783
13012SOL    HW140137   3.819   6.319   3.855  0.7579  1.4607 -0.8793
13012SOL    HW240138   3.712   6.425   3.840 -0.4106  0.6181  1.1318
13013SOL     OW40139   6.196   7.493   1.759  0.2793  0.3321  0.3724
13013SOL    HW140140   6.273   7.438   1.748  0.6876  1.0739 -0.6620
13013SOL    HW240141   6.173   7.486   1.851  0.7833 -0.9462  0.4120
13014SOL     OW40142   3.604   5.018   6.125  0.0679 -0.1299 -0.0501
13014SOL    HW140143   3.660   5.095   6.135  0.2513 -0.3871  0.9603
13014SOL    HW240144   3.606   4.975   6.210 -0.0897 -1.2234 -0.5775
13015SOL     OW40145   3.091   3.584   6.032  1.1705  0.2523 -0.1311
13015SOL    HW140146   3.084   3.516   6.100 -0.2917  1.2221  0.7381
13015SOL    HW240147   3.181   3.615   6.039  0.7666  1.0692  2.1347
13016SOL     OW40148   2.294   4.870   0.260 -0.2711  0.2510  0.4255
13016SOL    HW140149   2.367   4.836   0.312  1.5902  2.7548 -0.3774
13016SOL    HW240150   2.224   4.885   0.325  1.3962  1.6804  2.0216
13017SOL     OW40151   6.810   6.743   6.722 -0.4389 -0.3200  0.1081
13017SOL    HW140152   6.847   6.785   6.800 -1.3269 -0.6662  0.7227
13017SOL    HW240153   6.885   6.701   6.680 -0.0200 -0.4720  0.9887
13018SOL     OW40154   6.788   4.220   1.659  0.4377  0.3646 -0.0031
13018SOL    HW140155   6.721   4.209   1.727  1.1970 -0.0259  0.6943
13018SOL    HW240156   6.812   4.131   1.634  1.6128  0.4675  0.6800
13019SOL     OW40157   0.907   8.788   5.423 -0.3058  0.7985 -0.4725
13019SOL    HW140158   0.964   8.865   5.428  0.9039 -0.1015  2.6378
13019SOL    HW240159   0.819   8.823   5.435  0.3446  1.7113  2.6198
13020SOL     OW40160   3.099   7.940   3.584 -0.2411 -0.8406 -0.2621
13020SOL    HW140161   3.076   8.006   3.649  0.6275 -2.0530  1.3600
13020SOL    HW240162   3.024   7.880   3.582 -1.0368  0.1349 -1.7463
13021SOL     OW40163   6.926   3.503   9.091 -0.3078  0.2860  0.5313
13021SOL    HW140164   6.986   3.432   9.113  0.5620  0.7977 -0.1276
13021SOL    HW240165   6.870   3.467   9.022  0.6729  0.4834 -0.3932
13022SOL     OW40166   2.091   4.355   8.031  0.0541 -0.0766  0.0726
13022SOL    HW140167   2.078   4.436   7.982  2.3418  1.2098  1.4046
13022SOL    HW240168   2.017   4.350   8.091  0.0128  1.1977  0.1402
13023SOL     OW40169   2.331   0.862   3.401 -0.4097  0.2620  0.4549
13023SOL    HW140170   2.408   0.840   3.454 -0.4849  0.4577  0.6498
13023SOL    HW240171   2.278   0.917   3.459 -0.6009  0.2915  0.2514
13024SOL     OW40172   3.162   4.940   3.077 -0.4310  0.1392 -0.0593
13024SOL    HW140173   3.158   4.846   3.057 -2.8033  0.9121 -4.3712
13024SOL    HW240174   3.233   4.973   3.023 -1.3347  1.1726 -0.6402
13025SOL     OW40175   5.898   0.652   8.671  0.3906  0.7627 -0.3055
13025SOL    HW140176   5.837   0.609   8.611  0.3655  0.1353  0.1538
13025SOL    HW240177   5.919   0.584   8.735  0.4683  1.3995  0.3531
13026SOL     OW40178   1.015   4.546   3.783  0.7066  0.2575  0.4527
13026SOL    HW140179   1.102   4.524   3.817  1.2229  0.0850 -0.9477
13026SOL    HW240180   0.956   4.486   3.829  1.3040  0.3949  1.4371
13027SOL     OW40181   7.919   7.898   7.420  0.1089 -0.1610  0.6094
13027SOL    HW140182   7.916   7.900   7.324 -3.3049 -0.8334  0.5966
13027SOL    HW240183   7.960   7.814   7.441 -0.5600 -0.7301 -0.2894
13028SOL     OW40184   1.161   0.451   1.993 -0.1139  0.2919  0.0138
13028SOL    HW140185   1.215   0.381   1.956 -1.1950 -0.9207  0.6188
13028SOL    HW240186   1.215   0.490   2.062  0.1299 -0.6737  0.3875
13029SOL     OW40187   5.675   0.017   4.333 -0.4790  0.1138  0.7254
13029SOL    HW140188   5.628  -0.043   4.392 -0.0802 -0.2042  0.7276
13029SOL    HW240189   5.749   0.049   4.385 -1.0928  1.1832  0.9653
13030SOL     OW40190   8.869   6.992   2.802 -0.2623  0.3174  0.0434
13030SOL    HW140191   8.796   6.933   2.821  0.7098 -0.0956  3.0682
13030SOL    HW240192   8.946   6.936   2.806  0.4334  1.2436 -0.2116
13031SOL     OW40193   5.494   7.864   7.426  0.1083  0.4165 -0.5444
13031SOL    HW140194   5.441   7.822   7.359  2.2608  0.4053 -2.3798
13031SOL    HW240195   5.497   7.956   7.401 -1.0156  0.9088  0.9692
13032SOL     OW40196   5.178   2.231   8.267 -0.5625  0.3612  0.3332
13032SOL    HW140197   5.154   2.323   8.280  0.6799  1.3894 -3.5519
13032SOL    HW240198   5.260   2.220   8.316 -0.3615  1.5078  0.2725
13033SOL     OW40199   0.460   3.975   0.864  0.5278  0.1629 -0.2369
13033SOL    HW140200   0.511   3.932   0.932  0.7522  0.8854  0.0632
13033SOL    HW240201   0.521   3.983   0.790  0.2838 -0.6218 -0.5268
13034SOL     OW40202   0.112   0.579   0.603  0.3994  0.2990  0.3471
13034SOL    HW140203   0.176   0.650   0.605  0.6181  0.0890  1.7557
13034SOL    HW240204   0.144   0.516   0.666  1.2855 -2.0639 -2.2545
13035SOL     OW40205   6.559   5.145   4.525  0.4253  0.8015  0.5221
13035SOL    HW140206   6.523   5.098   4.450  0.0092  0.1387  1.1270
13035SOL    HW240207   6.616   5.212   4.486  1.2467 -0.3663 -0.3529
13036SOL     OW40208   2.438   8.714   6.096 -0.4287  0.1258  0.1703
13036SOL    HW140209   2.471   8.625   6.081  0.4903  0.3587  0.7897
13036SOL    HW240210   2.506   8.771   6.061 -1.2691  0.6005 -0.7386
13037SOL     OW40211   9.038   2.969   0.514  0.5153  0.1296  0.1180
13037SOL    HW140212   8.985   3.039   0.553 -0.7745 -0.9421  0.3267
13037SOL    HW240213   9.048   2.905   0.584  0.9215 -0.3234 -0.3529
13038SOL     OW40214   1.830   3.092   2.564  0.1539 -0.2582 -0.0870
13038SOL    HW140215   1.824   3.127   2.653 -2.1015  0.9546 -0.6351
13038SOL    HW240216   1.906   3.137   2.526  0.6409 -0.1672  0.9678
13039SOL     OW40217   7.179   6.044   1.828 -0.0020 -0.2016 -0.3489
13039SOL    HW140218   7.241   6.037   1.901 -1.6616  1.1554  1.2670
13039SOL    HW240219   7.229   6.013   1.752  1.5805 -2.3443  1.4218
13040SOL     OW40220   7.658   8.191   2.964 -0.1795 -0.2770 -0.3763
13040SOL    HW140221   7.612   8.123   3.013 -1.3570  0.6836 -0.0946
13040SOL    HW240222   7.627   8.180   2.874 -0.5958  0.0523 -0.2779
13041SOL     OW40223   4.747   3.845   3.467  0.3143 -0.0044  0.2445
13041SOL    HW140224   4.694   3.914   3.507  0.6717  0.1215  0.5022
13041SOL    HW240225   4.684   3.792   3.417 -0.4098 -1.0771  2.1841
13042SOL     OW40226   6.467   0.496   8.414  0.3635 -0.2631  0.3800
13042SOL    HW140227   6.557   0.507   8.385 -0.1614  0.6208 -1.0384
13042SOL    HW240228   6.415   0.505   8.334 -1.0977  1.1226  1.4322
13043SOL     OW40229   2.296   1.730   4.204 -0.1946  0.5067  0.0293
13043SOL    HW140230   2.382   1.762   4.176 -0.3149 -0.1193 -1.1266
13043SOL    HW240231   2.270   1.669   4.135 -1.3803  0.3627  0.5841
13044SOL     OW40232   3.791   5.107   8.468 -0.0736  0.1742  0.1631
13044SOL    HW140233   3.874   5.131   8.427 -0.0111 -0.6680 -0.2092
13044SOL    HW240234   3.752   5.043   8.410 -0.8844  0.3852  0.4591
13045SOL     OW40235   1.890   4.444   5.978 -0.3238 -0.5249  0.3419
13045SOL    HW140236   1.977   4.469   5.949 -0.4445  1.4114  1.4863
13045SOL    HW240237   1.838   4.440   5.897  0.9415 -2.5761 -0.4583
13046SOL     OW40238   5.704   0.450   6.566  0.1465 -0.3350 -0.5227
13046SOL    HW140239   5.698   0.545   6.582  1.0155 -0.2716 -0.5441
13046SOL    HW240240   5.624   0.415   6.606 -0.8032  0.5319 -1.5750
13047SOL     OW40241   4.767   4.313   2.737  0.3960  0.0131  0.4547
13047SOL    HW140242   4.806   4.356   2.814  0.3059 -0.6070  0.8565
13047SOL    HW240243   4.823   4.238   2.720  0.7398  0.4607 -0.4478
13048SOL     OW40244   8.859   6.931   6.896 -0.0310 -0.2195  0.6399
13048SOL    HW140245   8.843   6.838   6.882 -1.3324  0.2876 -1.6912
13048SOL    HW240246   8.863   6.940   6.991 -1.0212 -2.4690  0.9691
13049SOL     OW40247   6.143   3.383   5.450 -0.1653 -0.6137 -0.1180
13049SOL    HW140248   6.128   3.295   5.486 -1.1751 -0.4406 -0.1086
13049SOL    HW240249   6.126   3.374   5.356 -0.5208 -0.3731 -0.0778
13050SOL     OW40250   5.895   0.938   8.046  0.0930 -0.0057  0.3171
13050SOL    HW140251   5.968   0.990   8.012 -0.3486  0.6517  0.3467
13050SOL    HW240252   5.928   0.848   8.046  0.3329  0.0432 -1.2712
13051SOL     OW40253   3.496   0.696   8.320  0.0664 -0.4739  0.5765
13051SOL    HW140254   3.589   0.687   8.340  0.3756  0.1698 -0.4698
13051SOL    HW240255   3.457   0.734   8.399  0.7383 -0.4851  0.9168
13052SOL     OW40256   1.376   8.748   5.560 -0.5798  0.4855 -0.8478
13052SOL    HW140257   1.351   8.659   5.582 -0.0182  0.6836  0.7566
13052SOL    HW240258   1.340   8.763   5.472 -0.9507 -1.1872 -1.0057
13053SOL     OW40259   8.100   1.415   5.617 -0.3958 -0.1571 -0.1864
13053SOL    HW140260   8.138   1.347   5.673  1.5132  0.9534 -0.0283
13053SOL    HW240261   8.072   1.369   5.538  1.2253 -1.1061 -0.2516
13054SOL     OW40262   1.698   3.506   0.410 -0.1838 -0.2644 -0.0909
13054SOL    HW140263   1.627   3.482   0.470 -1.0904  0.7104 -0.7208
13054SOL    HW240264   1.691   3.601   0.403 -0.2672 -0.3633 -1.8996
13055SOL     OW40265   2.235   8.517   3.275 -0.4228 -0.5952  0.3342
13055SOL    HW140266   2.310   8.545   3.221 -0.6984 -0.0530  0.2248
13055SOL    HW240267   2.270   8.448   3.330 -0.1247 -1.1499 -0.5261
13056SOL     OW40268   0.409   0.724   2.036 -0.1827  0.3134 -0.2007
13056SOL    HW140269   0.381   0.748   2.125  0.0081 -2.2289  0.6187
13056SOL    HW240270   0.327   0.707   1.989 -0.2843 -1.8930  0.6350
13057SOL     OW40271   0.905   0.094   7.548 -0.0717  0.1066 -0.3981
13057SOL    HW140272   0.833   0.080   7.609  1.2757 -0.4008  1.1142
13057SOL    HW240273   0.947   0.174   7.579  0.1834  0.2601 -1.1239
13058SOL     OW40274   3.152   5.191   3.944 -0.4359 -0.1083  0.0377
13058SOL    HW140275   3.204   5.113   3.960  0.2927  0.3131 -0.2068
13058SOL    HW240276   3.188   5.257   4.004  1.5699  1.1570 -2.3669
13059SOL     OW40277   7.680   0.560   2.347 -0.3715 -0.0251  0.1933
13059SOL    HW140278   7.672   0.566   2.442 -0.2451 -0.8636  0.2619
13059SOL    HW240279   7.706   0.469   2.331  1.1008  0.4890 -0.5369
13060SOL     OW40280   5.598   2.002   8.812 -0.1726 -0.0254 -0.2449
13060SOL    HW140281   5.591   2.080   8.867 -0.5400  0.9136 -1.5637
13060SOL    HW240282   5.691   1.983   8.808  0.0090  0.8943 -0.6258
13061SOL     OW40283   2.731   0.681   3.969  0.5455  0.4977  0.0967
13061SOL    HW140284   2.795   0.689   4.040 -0.0735 -1.6424  0.9880
13061SOL    HW240285   2.674   0.610   3.997 -0.8833  0.8775 -1.7044
13062SOL     OW40286   7.974   4.154   3.790 -0.2474  0.2173 -0.1911
13062SOL    HW140287   7.982   4.079   3.849  0.8742  1.9450  2.0195
13062SOL    HW240288   7.911   4.212   3.833 -1.5620  0.3542 -2.1521
13063SOL     OW40289   3.591   1.004   1.898  0.9211 -0.4245 -0.2320
13063SOL    HW140290   3.590   1.099   1.911  2.0407 -0.5045  0.6288
13063SOL    HW240291   3.602   0.992   1.804  0.9931  0.3027 -0.3198
13064SOL     OW40292   6.123   3.718   0.569 -0.0567  0.3911 -0.5637
13064SOL    HW140293   6.129   3.758   0.483 -0.0789 -0.0921 -0.7916
13064SOL    HW240294   6.180   3.771   0.624  0.4724  0.3135 -1.0256
13065SOL     OW40295   3.594   3.650   5.637 -0.4027 -0.1684 -0.1249
13065SOL    HW140296   3.602   3.738   5.600 -0.3436 -0.0964  0.0593
13065SOL    HW240297   3.675   3.605   5.612  1.0399  0.8116  2.4412
13066SOL     OW40298   0.190   3.884   2.973 -0.5985 -0.3967 -0.3822
13066SOL    HW140299   0.184   3.794   2.940 -0.7329 -0.0936 -1.1917
13066SOL    HW240300   0.101   3.908   2.995 -0.3844 -0.9833  1.2960
13067SOL     OW40301   1.150   5.274   4.515 -0.1965  0.0613  0.1771
13067SOL    HW140302   1.064   5.239   4.538  0.1523 -1.0360 -0.1454
13067SOL    HW240303   1.212   5.212   4.553  0.5068  1.5986  1.6576
13068SOL     OW40304   5.304   7.881   5.098  0.7965 -0.3500 -0.6867
13068SOL    HW140305   5.359   7.803   5.102 -0.4872 -1.2452  0.4546
13068SOL    HW240306   5.278   7.896   5.189  0.7676  1.2461 -0.9296
13069SOL     OW40307   4.501   8.201   4.538  0.4410 -0.8185  0.6556
13069SOL    HW140308   4.555   8.275   4.511  0.7667 -1.2299  0.1522
13069SOL    HW240309   4.431   8.240   4.590  1.3223 -0.3002  1.4762
13070SOL     OW40310   3.355   0.485   3.578 -0.4345 -0.3833  0.5219
13070SOL    HW140311   3.364   0.477   3.483 -1.9869  0.5087  0.2619
13070SOL    HW240312   3.445   0.485   3.611  0.1264 -0.6772 -0.9480
13071SOL     OW40313   1.532   7.420   3.353  0.0162  0.1423  0.0712
13071SOL    HW140314   1.535   7.400   3.446  0.1478 -0.5365 -0.0706
13071SOL    HW240315   1.509   7.512   3.348  0.5893  0.3263  0.7899
13072SOL     OW40316   0.354   3.150   5.462  0.1820 -0.0978  0.5455
13072SOL    HW140317   0.387   3.234   5.429 -0.3494  0.0492  0.3825
13072SOL    HW240318   0.433   3.099   5.479  0.6240  1.1069  2.4480
13073SOL     OW40319   8.571   6.531   1.802 -0.5537  0.3693  0.2295
13073SOL    HW140320   8.620   6.606   1.837  0.8267 -0.0240 -0.8088
13073SOL    HW240321   8.637   6.464   1.786 -1.8794 -1.5125  2.1093
13074SOL     OW40322   5.440   9.109   5.064  0.0451  0.0575 -0.0196
13074SOL    HW140323   5.417   9.017   5.078 -2.4119  0.5240 -0.5319
13074SOL    HW240324   5.475   9.111   4.974 -1.1572 -0.1985 -0.5130
13075SOL     OW40325   2.978   1.402   6.876  0.0343  0.6325 -0.0430
13075SOL    HW140326   2.971   1.355   6.793 -1.8008 -0.8001  0.8409
13075SOL    HW240327   3.008   1.489   6.852  0.2050  0.0509 -2.1208
13076SOL     OW40328   3.723   5.162   9.102 -0.1450  0.0617 -0.1982
13076SOL    HW140329   3.732   5.067   9.110 -1.4646 -0.1758 -1.1439
13076SOL    HW240330   3.761   5.183   9.017 -0.3388  0.3104 -0.2244
13077SOL     OW40331   4.007   7.694   7.170 -0.0150  0.2375  0.3486
13077SOL    HW140332   3.980   7.768   7.224  1.1548  0.8644  0.1020
13077SOL    HW240333   3.981   7.617   7.220 -0.3404  0.8050  1.0738
13078SOL     OW40334   4.520   4.254   3.932  0.1618  0.3559 -0.0362
13078SOL    HW140335   4.517   4.340   3.890  1.4375  1.0466  1.2127
13078SOL    HW240336   4.611   4.227   3.926 -0.3586 -1.2992 -1.0866
13079SOL     OW40337   1.878   4.171   3.535 -0.0207  0.1927 -0.7788
13079SOL    HW140338   1.846   4.254   3.570  0.1786  0.1447 -0.4768
13079SOL    HW240339   1.850   4.170   3.444 -0.2859  0.4550 -0.6976
13080SOL     OW40340   6.284   1.497   1.345  0.6434 -0.0586  0.6672
13080SOL    HW140341   6.252   1.407   1.337  0.8256 -0.0609 -0.1863
13080SOL    HW240342   6.339   1.509   1.268 -2.1965  1.9208 -1.2746
13081SOL     OW40343   6.385   6.671   4.058 -0.2074  0.0893  0.0139
13081SOL    HW140344   6.436   6.675   4.138 -1.8282  1.9455  1.0399
13081SOL    HW240345   6.429   6.733   3.999  0.7451 -0.9688 -0.4083
13082SOL     OW40346   7.361   5.477   7.383 -0.1629 -0.6706  0.1269
13082SOL    HW140347   7.306   5.551   7.409  1.4870  0.7145 -0.1639
13082SOL    HW240348   7.368   5.423   7.461  0.6654  0.8427  1.1448
13083SOL     OW40349   8.812   4.589   5.706 -0.3324  0.4834 -0.3947
13083SOL    HW140350   8.815   4.625   5.617  0.4584  0.3273 -0.4319
13083SOL    HW240351   8.726   4.547   5.711 -0.4544  0.6410 -1.0250
13084SOL     OW40352   9.018   7.957   5.837 -0.0008 -0.7198 -0.1388
13084SOL    HW140353   8.959   7.888   5.868  0.8310 -1.7387 -0.7775
13084SOL    HW240354   9.024   8.018   5.911  0.5467 -2.1897  1.0847
13085SOL     OW40355   5.741   4.281   3.439  0.3775 -0.8778 -0.1777
13085SOL    HW140356   5.784   4.197   3.429 -0.3386 -1.3531  0.6060
13085SOL    HW240357   5.662   4.275   3.385  0.5138 -0.5671 -0.4155
13086SOL     OW40358   3.657   5.106   1.213 -1.0807 -0.2740  0.1366
13086SOL    HW140359   3.584   5.154   1.173  0.6669  1.9116 -0.6408
13086SOL    HW240360   3.665   5.026   1.162 -2.4623 -0.2077 -0.2187
13087SOL     OW40361   8.162   6.457   5.774 -0.0843 -0.3613 -0.3132
13087SOL    HW140362   8.239   6.457   5.717 -0.9548  0.1307 -1.5398
13087SOL    HW240363   8.095   6.502   5.723 -1.5717 -1.9051  0.1826
13088SOL     OW40364   1.803   3.783   6.114 -0.0752 -0.1088 -0.1490
13088SOL    HW140365   1.767   3.868   6.141 -1.0150 -0.3639 -0.5380
13088SOL    HW240366   1.774   3.723   6.183  0.3117 -0.1745 -0.0426
13089SOL     OW40367   6.234   1.601   8.572 -0.0786  0.3082 -0.0356
13089SOL    HW140368   6.210   1.673   8.631  1.8482  1.0717 -0.1029
13089SOL    HW240369   6.255   1.644   8.489 -0.3841 -0.5009 -0.5367
13090SOL     OW40370   0.348   6.300   7.366 -0.2240  0.1855  0.9666
13090SOL    HW140371   0.361   6.354   7.289  2.1104 -1.1837  0.2975
13090SOL    HW240372   0.373   6.356   7.440  1.8725  0.2003  0.3175
13091SOL     OW40373   0.387   1.827   2.779  0.3889 -0.5798 -0.2028
13091SOL    HW140374   0.430   1.906   2.747  0.6444 -0.8216 -0.4567
13091SOL    HW240375   0.308   1.819   2.726 -1.3223  1.2311  1.8628
13092SOL     OW40376   1.493   6.567   6.078  0.2196  0.3286 -0.6483
13092SOL    HW140377   1.558   6.636   6.068 -0.0546  1.3018  2.9480
13092SOL    HW240378   1.537   6.499   6.130 -1.4094  0.9088  1.6746
13093SOL     OW40379   6.158   1.328   4.885  0.0180 -0.1074  0.7504
13093SOL    HW140380   6.076   1.326   4.934 -0.2694 -1.7578  0.2601
13093SOL    HW240381   6.207   1.252   4.916 -0.2015 -1.2683 -1.5114
13094SOL     OW40382   5.700   8.763   2.274 -0.0543  0.0370  0.1152
13094SOL    HW140383   5.738   8.759   2.361  0.0607 -0.9042  0.0312
13094SOL    HW240384   5.607   8.782   2.289  0.1263  0.7174  0.3950
13095SOL     OW40385   3.419   5.157   6.867 -0.2202 -1.0042  0.2262
13095SOL    HW140386   3.356   5.170   6.939 -0.2554 -1.3794  0.2634
13095SOL    HW240387   3.490   5.107   6.906 -0.1124 -0.9773  0.0654
13096SOL     OW40388   5.616   3.515   7.229  0.0353 -0.4992  0.2804
13096SOL    HW140389   5.602   3.485   7.140 -0.8213 -0.8063  0.5059
13096SOL    HW240390   5.535   3.493   7.275 -0.4349  1.6590  0.5999
13097SOL     OW40391   6.756   7.584   4.193  0.1542  0.0497  0.2142
13097SOL    HW140392   6.706   7.503   4.183 -1.7447  1.2154 -0.2332
13097SOL    HW240393   6.844   7.563   4.161 -0.9063 -1.2463 -2.0458
13098SOL     OW40394   5.824   5.537   8.518 -0.2579  0.1513 -0.0669
13098SOL    HW140395   5.820   5.620   8.471 -1.4916  0.6272  0.8319
13098SOL    HW240396   5.864   5.476   8.456  1.4924  1.5999 -0.4356
13099SOL     OW40397   6.780   8.507   6.086  0.1432 -0.2587 -0.0924
13099SOL    HW140398   6.770   8.425   6.038 -0.1194 -0.8476  0.9403
13099SOL    HW240399   6.756   8.485   6.176  0.2385  0.9129  0.2329
13100SOL     OW40400   1.464   8.445   0.910 -0.1727 -0.4264 -0.3307
13100SOL    HW140401   1.416   8.494   0.976 -0.6810  0.8076 -1.5648
13100SOL    HW240402   1.396   8.406   0.855  0.2462 -1.0545 -0.4216
13101SOL     OW40403   3.417   3.989   0.213  0.2765 -0.3132  1.2210
13101SOL    HW140404   3.364   3.956   0.285  0.0130 -1.3087  0.5927
13101SOL    HW240405   3.453   3.910   0.172 -1.7761 -0.0278 -1.4191
13102SOL     OW40406   2.177   1.331   6.328 -0.2856 -0.4671 -0.1369
13102SOL    HW140407   2.176   1.380   6.410 -2.0988 -0.9280  0.1651
13102SOL    HW240408   2.239   1.260   6.343 -0.0333 -0.1091  0.5506
13103SOL     OW40409   3.466   0.315   5.630 -0.3920  0.1908 -0.1892
13103SOL    HW140410   3.539   0.372   5.654 -0.8284  0.6714  0.0174
13103SOL    HW240411   3.469   0.243   5.693  0.3876 -0.2201 -0.6813
13104SOL     OW40412   4.860   6.246   7.696 -0.4576  0.1706 -0.1958
13104SOL    HW140413   4.808   6.272   7.620 -0.3795  1.4413  0.1557
13104SOL    HW240414   4.800   6.252   7.770 -0.1013  0.6104  0.0680
13105SOL     OW40415   2.909   8.324   7.661  0.2638 -0.2058  0.1753
13105SOL    HW140416   2.882   8.268   7.734 -0.7917 -1.1615 -0.9057
13105SOL    HW240417   2.828   8.341   7.613  0.6821  1.6884  0.0541
13106SOL     OW40418   0.937   7.056   7.872 -0.4772 -0.5138 -0.1540
13106SOL    HW140419   0.990   7.004   7.931  0.3356  0.8393  0.3593
13106SOL    HW240420   0.997   7.079   7.801 -0.6752  0.1195 -0.1201
13107SOL     OW40421   1.767   2.827   0.761  0.1273 -0.1292 -0.1829
13107SOL    HW140422   1.764   2.759   0.693  0.2779 -0.2691 -0.0480
13107SOL    HW240423   1.816   2.788   0.833  1.4249  0.6087 -0.6361
13108SOL     OW40424   6.543   7.298   2.016  0.3633 -0.4495 -0.2459
13108SOL    HW140425   6.613   7.363   2.020 -1.5653  1.8113 -0.7172
13108SOL    HW240426   6.579   7.221   2.059  2.5695  1.1193  0.9226
13109SOL     OW40427   9.109   2.485   4.623 -0.1801  0.2275  0.3482
13109SOL    HW140428   9.121   2.567   4.576  0.3606  0.4607  0.9005
13109SOL    HW240429   9.033   2.444   4.580 -0.2102  0.8296 -0.1741
13110SOL     OW40430   7.346   3.623   8.895  0.4295 -0.3562  0.0725
13110SOL    HW140431   7.384   3.544   8.857  2.2772  1.3861 -2.0021
13110SOL    HW240432   7.400   3.642   8.971  0.9006 -0.3347 -0.2620
13111SOL     OW40433   1.429   7.342   1.824  0.6157  0.1746 -0.1085
13111SOL    HW140434   1.520   7.350   1.794  0.6952  1.0645  0.3289
13111SOL    HW240435   1.435   7.299   1.909  0.5237 -0.8333 -0.5994
13112SOL     OW40436   4.440   2.317   2.570 -0.6784 -0.1604  0.2852
13112SOL    HW140437   4.369   2.366   2.611 -1.1101 -1.2080  0.8407
13112SOL    HW240438   4.452   2.358   2.484 -1.9807  0.0092  0.1704
13113SOL     OW40439   3.856   1.109   4.025  0.3891 -0.1875  0.4487
13113SOL    HW140440   3.831   1.082   4.114 -0.7245  1.1968  0.5969
13113SOL    HW240441   3.894   1.196   4.037 -2.8862  1.5847 -0.6789
13114SOL     OW40442   8.220   5.688   3.352 -0.1844  0.6051 -0.3971
13114SOL    HW140443   8.192   5.668   3.442 -0.7121  1.3360 -0.3876
13114SOL    HW240444   8.313   5.709   3.360  0.2291 -1.0767 -0.3055
13115SOL     OW40445   2.172   2.402   0.686 -0.1135 -0.3150 -0.0124
13115SOL    HW140446   2.145   2.396   0.778 -0.3913 -0.9375 -0.1315
13115SOL    HW240447   2.247   2.343   0.680 -1.1315 -1.5937 -0.5605
13116SOL     OW40448   5.659   6.358   1.797 -0.7862 -0.4960 -0.0307
13116SOL    HW140449   5.755   6.356   1.803 -0.6321  3.0660  0.6919
13116SOL    HW240450   5.630   6.322   1.881 -0.0261 -0.3281  0.3167
13117SOL     OW40451   2.619   6.408   1.699 -0.3306 -0.2384  0.1805
13117SOL    HW140452   2.681   6.389   1.770 -0.2136  0.3466  0.2394
13117SOL    HW240453   2.570   6.484   1.729  1.3076  1.5100 -1.3227
13118SOL     OW40454   6.501   1.897   0.075  0.6230 -0.1088 -0.4546
13118SOL    HW140455   6.424   1.847   0.049 -0.3692  1.2275 -0.2209
13118SOL    HW240456   6.541   1.925  -0.007 -1.8725  3.1605 -0.7549
13119SOL     OW40457   1.804   6.474   2.142  0.1288 -0.0207 -0.2200
13119SOL    HW140458   1.783   6.550   2.196 -0.4709 -0.4442  0.1662
13119SOL    HW240459   1.755   6.402   2.183  0.4597 -0.5538 -0.7431
13120SOL     OW40460   1.712   5.152   7.908 -0.1771  0.3555  0.4272
13120SOL    HW140461   1.619   5.127   7.912  0.0548 -0.4667  1.2024
13120SOL    HW240462   1.733   5.151   7.815 -1.1323  1.3109  0.1741
13121SOL     OW40463   3.360   6.181   4.790  0.1104  0.3292  0.2005
13121SOL    HW140464   3.355   6.209   4.699 -0.0862  0.9478  0.3941
13121SOL    HW240465   3.360   6.262   4.840  3.9426  0.2314  0.6458
13122SOL     OW40466   4.360   0.393   0.103 -0.1056 -0.1100  0.7753
13122SOL    HW140467   4.385   0.429   0.018  1.6203 -1.3200  0.7430
13122SOL    HW240468   4.386   0.461   0.166  1.6195 -0.5574  0.5822
13123SOL     OW40469   3.099   7.421   0.143 -0.2434  0.1196 -0.5108
13123SOL    HW140470   3.055   7.470   0.212  2.8722  2.2055  0.2195
13123SOL    HW240471   3.178   7.472   0.123  3.5439 -4.5502  0.4746
13124SOL     OW40472   5.352   3.158   7.625  0.0138  0.4286  0.3552
13124SOL    HW140473   5.333   3.067   7.605 -1.0277  0.9030 -0.9987
13124SOL    HW240474   5.281   3.184   7.685  0.6568  0.2042  1.2365
13125SOL     OW40475   4.494   2.638   1.617 -0.1395  0.0890 -0.4408
13125SOL    HW140476   4.435   2.700   1.662 -0.1490 -0.0573 -0.2513
13125SOL    HW240477   4.442   2.558   1.608  0.0332 -0.0425 -0.2675
13126SOL     OW40478   7.861   0.396   7.271  0.1860 -0.2689 -0.3601
13126SOL    HW140479   7.863   0.335   7.345  0.6113 -0.6279 -0.6618
13126SOL    HW240480   7.952   0.426   7.262 -0.2521  1.5192  0.6836
13127SOL     OW40481   5.331   4.859   2.139 -0.4288  0.5268 -0.0483
13127SOL    HW140482   5.403   4.921   2.131  0.8946 -1.0093 -0.7033
13127SOL    HW240483   5.259   4.910   2.176  1.1697  1.9742  1.2296
13128SOL     OW40484   4.699   8.811   6.445  0.3485  0.5174 -0.4966
13128SOL    HW140485   4.674   8.895   6.405  0.8389 -0.3837 -2.8209
13128SOL    HW240486   4.664   8.745   6.386  0.0984 -0.9506  1.2263
13129SOL     OW40487   8.850   6.069   3.949 -0.2085 -0.2910  0.6948
13129SOL    HW140488   8.790   5.995   3.936 -0.2216 -0.7168  2.7442
13129SOL    HW240489   8.809   6.120   4.019  0.1463  1.3121 -0.2176
13130SOL     OW40490   5.707   2.279   3.018  0.1905  0.5876  0.2382
13130SOL    HW140491   5.689   2.276   2.924  1.4256  1.5973 -0.0564
13130SOL    HW240492   5.686   2.191   3.049 -1.9575  0.7322 -0.6244
13131SOL     OW40493   7.104   4.349   2.186  0.2079  0.6473  0.1597
13131SOL    HW140494   7.015   4.364   2.219 -0.0264  1.0666 -0.6364
13131SOL    HW240495   7.132   4.269   2.231 -0.5189  0.5818  0.5254
13132SOL     OW40496   5.683   8.570   1.448  0.1179  0.1859  0.1476
13132SOL    HW140497   5.763   8.622   1.457  0.8856 -1.2746  2.9079
13132SOL    HW240498   5.715   8.481   1.433 -0.9160 -0.5007  1.7708
13133SOL     OW40499   8.717   6.092   4.980  0.6743 -0.1206  0.3155
13133SOL    HW140500   8.792   6.125   5.030  0.4339  0.7929  0.0862
13133SOL    HW240501   8.660   6.168   4.969 -1.2910 -1.2081  2.2387
13134SOL     OW40502   6.642   1.687   1.733 -0.2348 -0.3013  0.4533
13134SOL    HW140503   6.655   1.603   1.778  1.4088 -1.5454 -2.1111
13134SOL    HW240504   6.561   1.674   1.682  1.9396 -2.0157 -3.0004
13135SOL     OW40505   1.761   1.339   8.337 -0.0085 -0.1400  0.2184
13135SOL    HW140506   1.683   1.321   8.389 -0.4952  2.0723  0.3356
13135SOL    HW240507   1.824   1.375   8.399 -0.3180  1.7808 -0.5289
13136SOL     OW40508   6.105   5.713   9.128  0.3264  0.5559  0.0528
13136SOL    HW140509   6.100   5.673   9.215 -1.5842  1.2012  0.3027
13136SOL    HW240510   6.165   5.657   9.079  0.8052 -0.2975  1.5395
13137SOL     OW40511   3.581   4.871   7.494  0.0521 -0.1372  0.4168
13137SOL    HW140512   3.660   4.921   7.516  1.2559 -0.5263 -2.5763
13137SOL    HW240513   3.612   4.782   7.481 -0.6478 -0.1098 -1.7783
13138SOL     OW40514   1.668   7.863   8.683 -0.5125 -0.4907 -0.5669
13138SOL    HW140515   1.706   7.791   8.735 -0.2765 -0.4976 -0.7461
13138SOL    HW240516   1.577   7.837   8.669 -1.0146  0.2072  1.1111
13139SOL     OW40517   1.587   1.349   4.457  0.4793 -0.3864 -0.2285
13139SOL    HW140518   1.612   1.350   4.549 -0.7364 -0.5484  0.1232
13139SOL    HW240519   1.507   1.297   4.455 -0.4290  0.9848 -1.1344
13140SOL     OW40520   7.947   7.861   4.771 -0.1254 -0.1951 -0.1128
13140SOL    HW140521   7.997   7.780   4.774  1.3763  0.7027  0.6178
13140SOL    HW240522   8.009   7.928   4.800 -1.7897  0.9727  0.9509
13141SOL     OW40523   1.491   5.555   8.935 -0.2285 -0.1411 -0.3047
13141SOL    HW140524   1.527   5.641   8.915 -2.7114  1.1422  0.4009
13141SOL    HW240525   1.490   5.508   8.852 -0.8127  1.2999 -1.1240
13142SOL     OW40526   3.116   4.229   7.743 -0.4470 -0.1405  0.0264
13142SOL    HW140527   3.132   4.271   7.658 -2.1339 -0.0636 -0.2896
13142SOL    HW240528   3.085   4.141   7.721  0.9382 -0.7981  0.6308
13143SOL     OW40529   3.139   2.063   0.904 -0.2083 -0.1825 -0.1128
13143SOL    HW140530   3.221   2.092   0.943 -0.2863 -0.0483 -0.0443
13143SOL    HW240531   3.075   2.129   0.932 -0.2794 -0.1285 -0.4045
13144SOL     OW40532   4.596   0.206   8.223 -0.0960 -0.2072  0.1561
13144SOL    HW140533   4.543   0.136   8.185  0.6002  0.0049 -1.2758
13144SOL    HW240534   4.685   0.189   8.192  0.3785  0.4096  1.1175
13145SOL     OW40535   1.110   2.884   8.844 -0.5255  0.1192  0.3153
13145SOL    HW140536   1.076   2.795   8.854 -0.5358  0.2810  2.0443
13145SOL    HW240537   1.198   2.880   8.881 -0.0835  0.5862 -0.6488
13146SOL     OW40538   1.422   1.358   8.242  0.3492 -0.2167 -0.2731
13146SOL    HW140539   1.336   1.315   8.242 -0.3361  1.1146  0.4273
13146SOL    HW240540   1.411   1.434   8.185  0.5563  0.9077  1.1408
13147SOL     OW40541   2.222   1.255   6.709 -0.1022 -0.1668  0.2994
13147SOL    HW140542   2.187   1.344   6.718  1.4795  0.2946  3.5686
13147SOL    HW240543   2.187   1.208   6.785  1.5525 -1.4020  0.3701
13148SOL     OW40544   4.082   2.875   8.300 -0.4270 -0.0207  0.2223
13148SOL    HW140545   4.178   2.873   8.306 -0.4016 -1.0837 -0.3347
13148SOL    HW240546   4.064   2.920   8.218 -0.4195  0.4445  0.4713
13149SOL     OW40547   5.660   1.411   7.567 -0.3050 -0.7844  0.0758
13149SOL    HW140548   5.658   1.333   7.512 -1.2904  0.5248 -1.8701
13149SOL    HW240549   5.579   1.407   7.617 -0.8391 -0.5623 -0.7432
13150SOL     OW40550   2.458   0.155   9.045  0.0363  1.0089  0.1775
13150SOL    HW140551   2.503   0.168   8.961  2.6792 -3.6199  0.5409
13150SOL    HW240552   2.515   0.196   9.109  1.0298 -0.2639  0.1418
13151SOL     OW40553   0.781   1.382   4.367 -0.3731 -0.6922 -0.1399
13151SOL    HW140554   0.804   1.467   4.406 -0.4148  0.9248 -3.3289
13151SOL    HW240555   0.859   1.329   4.379  0.0777  0.1532  0.9351
13152SOL     OW40556   1.325   5.172   4.257  0.3924 -0.3940  0.4671
13152SOL    HW140557   1.326   5.077   4.270  0.0063 -0.4434  0.1203
13152SOL    HW240558   1.376   5.206   4.331  0.3213 -0.8535  0.7321
13153SOL     OW40559   3.107   1.109   4.440 -0.3141  0.3899  0.4593
13153SOL    HW140560   3.029   1.069   4.479 -1.2270 -0.6010 -2.1879
13153SOL    HW240561   3.094   1.102   4.346  2.5612  1.0749 -0.0997
13154SOL     OW40562   5.391   0.222   2.568  0.5325 -0.0389 -0.1048
13154SOL    HW140563   5.452   0.199   2.499  0.3407  0.3932 -0.4218
13154SOL    HW240564   5.348   0.140   2.591 -0.0386 -0.0352 -1.1178
13155SOL     OW40565   5.102   8.495   4.294 -0.2117  0.0996 -0.4394
13155SOL    HW140566   5.006   8.492   4.286 -0.3353  1.3384  0.3123
13155SOL    HW240567   5.123   8.588   4.300  0.9792 -0.1903  0.2141
13156SOL     OW40568   3.792   6.637   7.946  0.7713 -0.2500  0.1567
13156SOL    HW140569   3.723   6.623   8.010  1.0002  1.9901  0.9992
13156SOL    HW240570   3.748   6.675   7.870  0.7316 -1.3740 -0.4036
13157SOL     OW40571   9.031   9.020   2.076  0.2124 -0.2598 -0.3148
13157SOL    HW140572   9.124   9.003   2.068 -0.1204 -1.5061 -2.0756
13157SOL    HW240573   8.988   8.940   2.046 -1.4354  0.3775  0.1682
13158SOL     OW40574   6.288   1.110   3.773  0.1739  0.3488  0.3633
13158SOL    HW140575   6.298   1.199   3.738 -1.4825  1.1553  1.8019
13158SOL    HW240576   6.260   1.058   3.698  0.7715  1.1278 -0.4154
13159SOL     OW40577   3.715   6.640   3.722 -0.2370  0.5973 -0.2727
13159SOL    HW140578   3.745   6.703   3.787  2.9708 -0.2515 -0.7689
13159SOL    HW240579   3.763   6.663   3.642  2.1731 -3.1058 -0.1441
13160SOL     OW40580   6.836   8.058   5.548 -0.2096  0.3306  0.4690
13160SOL    HW140581   6.741   8.063   5.555 -0.5791 -1.0224 -2.1243
13160SOL    HW240582   6.859   7.976   5.590 -0.1308  0.7825  1.3255
13161SOL     OW40583   1.132   8.336   3.696 -0.8826 -0.3006 -0.1132
13161SOL    HW140584   1.185   8.304   3.769 -1.6051 -0.4747  0.3478
13161SOL    HW240585   1.178   8.305   3.618 -0.6673 -1.0295  0.2912
13162SOL     OW40586   4.531   2.611   1.046  0.2294 -0.1250  0.1927
13162SOL    HW140587   4.502   2.630   1.135  0.7697 -0.2842  0.4046
13162SOL    HW240588   4.534   2.516   1.040  1.7328 -0.1289  0.5276
13163SOL     OW40589   0.708   3.735   5.878 -0.1229  0.0781 -0.5340
13163SOL    HW140590   0.784   3.792   5.865 -1.2016  1.6923 -0.0984
13163SOL    HW240591   0.704   3.722   5.973 -0.6948  0.4616 -0.4999
13164SOL     OW40592   6.012   6.200   5.778  0.2290  0.2176  0.1005
13164SOL    HW140593   6.023   6.291   5.748  2.7915  0.3958  1.2961
13164SOL    HW240594   6.045   6.147   5.705  1.8280  0.4260  0.6465
13165SOL     OW40595   5.575   3.517   4.796 -0.0533  0.1180 -0.0507
13165SOL    HW140596   5.601   3.577   4.725 -0.6676 -0.0860 -0.4546
13165SOL    HW240597   5.486   3.544   4.818 -0.3216 -0.6337 -0.2160
13166SOL     OW40598   3.086   8.266   9.067 -0.0853  0.1793 -0.2523
13166SOL    HW140599   3.085   8.226   8.979  2.0444 -1.4091  0.3498
13166SOL    HW240600   3.059   8.195   9.125 -0.9711  1.0720  0.4591
13167SOL     OW40601   8.542   1.674   7.468 -0.0068 -0.2315  0.4764
13167SOL    HW140602   8.578   1.759   7.490 -0.3259 -0.1086  0.5314
13167SOL    HW240603   8.602   1.611   7.509  0.1994 -0.0357  0.4788
13168SOL     OW40604   1.056   5.503   0.268 -0.3117  0.6958 -0.6402
13168SOL    HW140605   1.055   5.518   0.173 -0.3975  0.0748 -0.7423
13168SOL    HW240606   0.964   5.493   0.291 -0.3755  1.9398 -0.3025
13169SOL     OW40607   1.878   3.288   3.766 -0.0217  0.6398  0.1421
13169SOL    HW140608   1.871   3.194   3.785  0.8056  0.8647  1.7282
13169SOL    HW240609   1.843   3.297   3.678 -0.0158 -1.1763 -0.0877
13170SOL     OW40610   5.149   2.477   2.937 -0.2988  0.0299 -0.1685
13170SOL    HW140611   5.086   2.451   3.004  0.2900 -1.5071 -0.1748
13170SOL    HW240612   5.229   2.431   2.960  0.6073  1.3399 -0.6065
13171SOL     OW40613   6.925   3.372   6.026 -0.0784 -0.0356  0.3484
13171SOL    HW140614   6.975   3.295   5.998 -0.7117 -0.2192 -0.3049
13171SOL    HW240615   6.867   3.391   5.952 -0.0871  0.9348  0.5929
13172SOL     OW40616   3.160   7.704   3.446 -0.5993 -0.2188 -0.7106
13172SOL    HW140617   3.145   7.783   3.497  1.0473  0.9820 -2.0000
13172SOL    HW240618   3.214   7.649   3.503 -1.1816 -0.1401 -0.0713
13173SOL     OW40619   7.934   2.853   7.235 -0.3568 -0.1755  0.6258
13173SOL    HW140620   7.917   2.841   7.329  0.4922  0.0606  0.8201
13173SOL    HW240621   7.912   2.769   7.195 -0.0578 -0.5013  1.1376
13174SOL     OW40622   6.990   2.713   4.263  0.0027 -0.4469  0.2190
13174SOL    HW140623   6.951   2.647   4.320 -0.4426 -1.0847 -0.7946
13174SOL    HW240624   7.058   2.753   4.317 -0.7247 -0.6762  1.3640
13175SOL     OW40625   6.631   4.673   6.678  0.0086 -0.2542 -0.4947
13175SOL    HW140626   6.555   4.731   6.677  0.2526  0.1660  1.5212
13175SOL    HW240627   6.599   4.591   6.641 -1.5813 -0.2325  0.7142
13176SOL     OW40628   0.800   1.089   7.545 -0.2423 -0.0953 -0.0341
13176SOL    HW140629   0.851   1.023   7.498  1.4092  0.1735  1.2737
13176SOL    HW240630   0.715   1.048   7.561 -0.4459 -0.6084 -2.1801
13177SOL     OW40631   3.261   7.151   7.673  0.1521 -0.0080  0.6412
13177SOL    HW140632   3.341   7.156   7.725  0.4154  0.8027  0.1690
13177SOL    HW240633   3.275   7.076   7.614  0.5640  0.1335  0.5574
13178SOL     OW40634   3.899   8.787   7.785 -0.0482  0.1428  0.9568
13178SOL    HW140635   3.844   8.865   7.787 -1.5583 -0.8693  2.3486
13178SOL    HW240636   3.975   8.811   7.733 -1.5609  1.8026 -0.6075
13179SOL     OW40637   2.386   3.092   7.681  0.4649 -0.2655  0.0378
13179SOL    HW140638   2.360   3.088   7.589  0.2903  0.0012  0.0740
13179SOL    HW240639   2.336   3.021   7.723  0.5481 -0.3899 -0.0743
13180SOL     OW40640   0.615   3.747   8.453  0.1757  0.0966  0.3852
13180SOL    HW140641   0.698   3.795   8.456  1.1271 -1.3256 -1.1098
13180SOL    HW240642   0.553   3.802   8.502  1.4677  2.2326 -0.2512
13181SOL     OW40643   7.386   8.201   0.927  0.2523  0.5620 -0.1618
13181SOL    HW140644   7.345   8.142   0.863  2.0500 -0.7746 -0.1541
13181SOL    HW240645   7.391   8.149   1.007  2.0301  0.6136 -0.2006
13182SOL     OW40646   3.222   4.940   6.805  0.4135 -0.6406  0.2982
13182SOL    HW140647   3.264   5.024   6.785 -0.7103 -0.1805 -0.1875
13182SOL    HW240648   3.292   4.876   6.790  1.0971  0.1402 -0.0045
13183SOL     OW40649   8.356   5.414   3.356  0.0414 -0.2897 -0.3126
13183SOL    HW140650   8.295   5.443   3.288 -0.8514 -2.7823 -0.7004
13183SOL    HW240651   8.442   5.433   3.321 -0.3530  3.6826  0.4041
13184SOL     OW40652   0.703   6.443   8.868 -0.7128  0.4936  0.2951
13184SOL    HW140653   0.781   6.433   8.922 -1.3258  0.6735  1.2455
13184SOL    HW240654   0.723   6.397   8.787 -0.0769 -0.5183  1.0004
13185SOL     OW40655   0.461   5.454   5.066 -0.4092 -0.2993  0.1681
13185SOL    HW140656   0.405   5.506   5.009  0.8372  1.4450  0.4710
13185SOL    HW240657   0.466   5.368   5.023 -0.7147  0.4988 -1.5380
13186SOL     OW40658   8.055   5.288   4.990 -0.0586 -0.0901 -0.0201
13186SOL    HW140659   8.112   5.212   4.995  1.5653  1.0754 -0.0367
13186SOL    HW240660   8.001   5.283   5.070  0.2226 -1.0730  0.1240
13187SOL     OW40661   4.224   4.199   5.972 -0.4922  0.5434 -0.0166
13187SOL    HW140662   4.272   4.280   5.991 -1.0705  0.8326  0.2291
13187SOL    HW240663   4.132   4.226   5.968 -0.7569 -0.2084  0.7313
13188SOL     OW40664   7.343   1.030   8.970 -0.9614  0.0536 -0.2127
13188SOL    HW140665   7.423   1.058   8.926 -1.6319  0.8106 -0.9861
13188SOL    HW240666   7.276   1.031   8.902 -1.5294 -1.0743  0.3084
13189SOL     OW40667   8.585   5.222   7.120 -0.4341 -0.4138  0.0451
13189SOL    HW140668   8.515   5.163   7.094 -0.5668 -0.8556  1.3343
13189SOL    HW240669   8.643   5.169   7.175 -0.4148  0.5690  1.0140
13190SOL     OW40670   0.722   6.505   2.687  0.2186 -1.0308 -0.6232
13190SOL    HW140671   0.759   6.496   2.599  0.0914 -0.6198 -0.7228
13190SOL    HW240672   0.665   6.582   2.681  1.8223  0.2827  0.3731
13191SOL     OW40673   6.240   7.448   3.833  0.2920 -0.5294 -0.3034
13191SOL    HW140674   6.254   7.529   3.881 -0.9407  0.2839 -1.2522
13191SOL    HW240675   6.146   7.447   3.815  0.6552 -0.9549 -2.4105
13192SOL     OW40676   0.653   7.643   7.414  0.0287 -0.5369  0.5420
13192SOL    HW140677   0.573   7.694   7.405  0.0288 -0.3403  1.5287
13192SOL    HW240678   0.721   7.707   7.436  1.0553 -0.3133 -2.7119
13193SOL     OW40679   8.114   0.156   2.311  0.1738 -0.3152 -0.1469
13193SOL    HW140680   8.149   0.229   2.361  0.0363  0.0000 -0.5051
13193SOL    HW240681   8.176   0.084   2.327  0.9261  0.1982 -0.6734
13194SOL     OW40682   5.249   1.468   0.632  0.3163 -0.4943 -0.9590
13194SOL    HW140683   5.172   1.519   0.608  0.5633  0.2012 -0.3517
13194SOL    HW240684   5.315   1.492   0.567  0.4121 -0.0721 -0.7125
13195SOL     OW40685   0.275   6.835   2.378 -0.0100 -0.6019 -0.2865
13195SOL    HW140686   0.319   6.805   2.299  0.7260  1.0569 -0.5628
13195SOL    HW240687   0.309   6.924   2.391 -0.7587 -0.5350  1.4146
13196SOL     OW40688   6.080   4.999   8.822  0.2717 -0.3001  0.0674
13196SOL    HW140689   6.006   5.020   8.878 -0.0463 -0.3709 -0.3252
13196SOL    HW240690   6.057   5.033   8.736 -0.0846 -1.8382 -0.4861
13197SOL     OW40691   3.930   5.103   8.868 -0.5977  0.2976  0.2344
13197SOL    HW140692   3.926   5.065   8.955 -0.3865 -1.0180 -0.3009
13197SOL    HW240693   3.954   5.195   8.882  1.6011 -0.3970  1.4559
13198SOL     OW40694   0.572   6.845   3.986  0.7506 -0.2452  0.1930
13198SOL    HW140695   0.555   6.784   3.915 -0.2358  0.6446 -0.3727
13198SOL    HW240696   0.553   6.795   4.066 -1.3438 -0.3446 -0.2913
13199SOL     OW40697   8.022   0.633   1.279  0.0478  0.2271 -0.0919
13199SOL    HW140698   7.981   0.710   1.239  1.6662 -0.0532 -2.5294
13199SOL    HW240699   8.025   0.568   1.209 -0.5482 -1.8097  1.6840
13200SOL     OW40700   0.954   2.878   0.718 -0.5381  0.5937 -0.1737
13200SOL    HW140701   0.918   2.946   0.661 -3.2895 -0.3309  0.2767
13200SOL    HW240702   0.920   2.796   0.682  0.4030 -0.3065  0.9024
13201SOL     OW40703   3.843   2.934   0.332 -0.0943 -0.3554 -0.0101
13201SOL    HW140704   3.877   2.852   0.369  0.3836 -0.0069  0.3289
13201SOL    HW240705   3.909   3.000   0.354  0.2068 -0.1260 -1.4567
13202SOL     OW40706   3.486   4.896   3.722 -0.4663 -0.1405 -0.3118
13202SOL    HW140707   3.418   4.870   3.660 -1.3997  1.7963 -0.1836
13202SOL    HW240708   3.568   4.888   3.674 -0.9061 -1.1068 -0.9412
13203SOL     OW40709   5.101   3.054   7.762  0.4243  0.4146  0.5860
13203SOL    HW140710   5.171   3.062   7.827  0.9289  1.1812 -0.0334
13203SOL    HW240711   5.054   2.974   7.788  1.8626 -0.4481  0.6838
13204SOL     OW40712   6.255   0.109   4.811 -0.0466  0.2467  0.4539
13204SOL    HW140713   6.205   0.184   4.844  0.7286  0.8878  0.1976
13204SOL    HW240714   6.219   0.094   4.723 -0.1332  0.3752  0.4660
13205SOL     OW40715   1.558   7.813   8.304  0.2406 -0.1091  0.4853
13205SOL    HW140716   1.592   7.757   8.234 -0.9272 -1.0870  0.6760
13205SOL    HW240717   1.634   7.828   8.361  0.4127 -2.1592  0.8489
13206SOL     OW40718   0.456   1.781   8.849 -0.2913  0.2278  0.6015
13206SOL    HW140719   0.460   1.864   8.897  0.5252  0.1457  0.6878
13206SOL    HW240720   0.507   1.796   8.770 -1.3953  0.2719 -0.1284
13207SOL     OW40721   1.630   6.664   7.967 -0.0851  0.4238  0.2633
13207SOL    HW140722   1.648   6.652   8.060  0.6719  1.5736  0.2784
13207SOL    HW240723   1.690   6.732   7.939 -0.8356  0.6370 -0.9074
13208SOL     OW40724   8.723   4.537   4.596 -0.0724 -0.4618 -0.4959
13208SOL    HW140725   8.785   4.589   4.547 -0.1011 -1.2215 -1.3663
13208SOL    HW240726   8.777   4.478   4.649 -0.0214 -1.7031 -1.8822
13209SOL     OW40727   5.692   4.622   3.628 -0.0400  0.1548  0.3259
13209SOL    HW140728   5.660   4.546   3.676 -0.8700 -0.1847 -0.7259
13209SOL    HW240729   5.742   4.586   3.555  0.8803  0.6565  0.6891
13210SOL     OW40730   6.065   1.762   4.122 -0.7732 -0.1038 -0.2750
13210SOL    HW140731   6.083   1.673   4.153 -0.7799  0.1100  0.3530
13210SOL    HW240732   6.143   1.785   4.070 -0.7786 -0.4769 -0.4525
13211SOL     OW40733   8.138   8.438   1.464 -0.0303 -0.3140 -0.9142
13211SOL    HW140734   8.120   8.461   1.372 -0.5998  1.0687 -0.4820
13211SOL    HW240735   8.051   8.435   1.505  0.1049 -2.1118 -0.6396
13212SOL     OW40736   7.574   4.375   2.285 -0.2714 -0.1790 -0.3700
13212SOL    HW140737   7.535   4.329   2.360  1.9763  0.1849  1.1051
13212SOL    HW240738   7.623   4.308   2.239  0.5479  0.1192  0.0527
13213SOL     OW40739   5.537   1.131   7.755  0.3797 -0.1364 -0.1990
13213SOL    HW140740   5.538   1.129   7.659  0.2497 -0.8588 -0.1890
13213SOL    HW240741   5.450   1.098   7.778  0.5588 -0.3478  0.1728
13214SOL     OW40742   1.210   0.388   8.136  0.1404  0.5697  0.0297
13214SOL    HW140743   1.139   0.334   8.102  0.3027 -0.1425  0.8082
13214SOL    HW240744   1.166   0.465   8.174 -0.0668  1.1725 -1.3782
13215SOL     OW40745   4.257   7.734   7.439  0.0429 -0.3653  0.6270
13215SOL    HW140746   4.256   7.701   7.528  1.0719 -0.4109  0.6322
13215SOL    HW240747   4.327   7.685   7.395 -0.0782  0.0412 -0.0431
13216SOL     OW40748   4.966   8.209   8.096 -0.3944  0.2265  0.8195
13216SOL    HW140749   4.997   8.282   8.042  1.5874  0.5565  2.2675
13216SOL    HW240750   4.981   8.131   8.041  0.0765  0.6880  0.2757
13217SOL     OW40751   3.735   5.668   5.859 -0.1862 -0.0290 -0.9231
13217SOL    HW140752   3.812   5.631   5.816 -0.3528 -0.2376 -1.0472
13217SOL    HW240753   3.734   5.760   5.834  1.1051  0.4534  0.6242
13218SOL     OW40754   3.005   3.155   4.538  0.4287  0.4530  0.1201
13218SOL    HW140755   2.938   3.164   4.471  1.6612  1.8302 -1.0150
13218SOL    HW240756   3.083   3.127   4.490  1.1081  0.5398  1.1331
13219SOL     OW40757   3.998   4.927   3.600 -0.6182  1.0011  0.5189
13219SOL    HW140758   3.980   4.836   3.625 -0.8693  1.3757  1.7857
13219SOL    HW240759   4.047   4.963   3.675  1.7794  1.2072 -1.0242
13220SOL     OW40760   7.622   2.706   2.648 -0.4649  0.3431  0.2172
13220SOL    HW140761   7.551   2.697   2.711 -1.4592  1.1820 -0.7445
13220SOL    HW240762   7.598   2.647   2.577 -0.1923  0.6257 -0.1113
13221SOL     OW40763   0.292   8.507   2.560 -0.0440  0.0628 -0.3954
13221SOL    HW140764   0.323   8.434   2.507 -2.6125 -1.5053  0.1227
13221SOL    HW240765   0.296   8.476   2.650 -0.7969  0.6812 -0.1299
13222SOL     OW40766   7.628   2.136   6.731  0.2235  0.1095  0.4717
13222SOL    HW140767   7.619   2.134   6.636  0.4218 -0.5234  0.4596
13222SOL    HW240768   7.718   2.106   6.747  0.4445  0.9298  0.8264
13223SOL     OW40769   2.093   8.850   4.506  0.1180 -0.5884 -0.0547
13223SOL    HW140770   2.070   8.839   4.414  1.4798 -1.5263 -0.3122
13223SOL    HW240771   2.107   8.761   4.539 -0.5644 -0.2827  1.1259
13224SOL     OW40772   4.705   3.128   6.946 -0.4000  0.0195 -0.2188
13224SOL    HW140773   4.694   3.195   6.879 -0.5889 -0.9944 -1.2342
13224SOL    HW240774   4.640   3.149   7.013  0.0549  1.2731 -0.1414
13225SOL     OW40775   4.646   7.591   0.052  0.6004  0.3639  0.2441
13225SOL    HW140776   4.731   7.634   0.054 -0.3350  2.2860  1.8275
13225SOL    HW240777   4.639   7.548   0.138 -0.2992  0.8087  0.4018
13226SOL     OW40778   5.828   2.607   0.205 -0.2617 -0.7715 -0.4079
13226SOL    HW140779   5.794   2.534   0.155  0.3378  0.4340 -2.7167
13226SOL    HW240780   5.919   2.617   0.176 -0.3660  0.9490 -0.2859
13227SOL     OW40781   4.147   0.604   4.660 -0.1943 -0.2655 -0.1334
13227SOL    HW140782   4.147   0.664   4.585  0.9103  0.6252  0.5290
13227SOL    HW240783   4.097   0.528   4.631 -2.1329  1.2046 -0.8103
13228SOL     OW40784   8.710   9.131   0.649 -0.1506 -0.2281 -0.6451
13228SOL    HW140785   8.710   9.119   0.744 -1.2908 -0.9863 -0.7119
13228SOL    HW240786   8.749   9.051   0.615  2.0018  0.8305 -0.7813
13229SOL     OW40787   2.934   1.409   7.715 -0.1960  0.4436  0.0780
13229SOL    HW140788   2.996   1.346   7.678 -1.2646  0.4162 -1.8096
13229SOL    HW240789   2.850   1.387   7.674 -1.1256  1.5342  1.2918
13230SOL     OW40790   8.415   1.297   6.827 -0.1036  0.4942 -0.0309
13230SOL    HW140791   8.453   1.231   6.769 -0.5219  0.3477 -0.1478
13230SOL    HW240792   8.490   1.342   6.866  0.1819  0.3699 -0.4305
13231SOL     OW40793   5.187   7.274   5.965  0.2865 -0.1559 -0.1518
13231SOL    HW140794   5.102   7.267   6.008  0.1537 -0.6305 -0.4898
13231SOL    HW240795   5.249   7.291   6.036 -0.1066  0.3286  0.0808
13232SOL     OW40796   2.205   3.455   4.309  0.2146  0.1775 -0.3505
13232SOL    HW140797   2.294   3.435   4.339  0.2303 -0.2879 -0.6959
13232SOL    HW240798   2.187   3.542   4.344  1.1692  0.6845 -1.0642
13233SOL     OW40799   8.367   7.746   2.442  0.0638  0.2110  0.8821
13233SOL    HW140800   8.407   7.826   2.408 -0.0347  0.0002  0.2597
13233SOL    HW240801   8.424   7.719   2.514 -0.5549  1.4938  1.8957
13234SOL     OW40802   5.651   4.332   5.429 -0.3895  0.9411  0.4946
13234SOL    HW140803   5.582   4.348   5.366  1.7442 -0.9591 -2.6241
13234SOL    HW240804   5.726   4.383   5.397  0.8374 -0.2344  1.3563
13235SOL     OW40805   2.684   7.874   0.917  0.1184 -0.0688 -0.3818
13235SOL    HW140806   2.738   7.834   0.849  2.7891 -0.3467  1.7100
13235SOL    HW240807   2.598   7.835   0.905  0.8381 -1.1489 -2.6930
13236SOL     OW40808   8.581   7.407   4.908 -0.8494  0.5439 -0.6299
13236SOL    HW140809   8.618   7.461   4.978 -1.3398  0.0940 -0.0106
13236SOL    HW240810   8.657   7.364   4.869 -0.6631 -0.0989  0.3937
13237SOL     OW40811   7.662   7.517   0.870 -0.3011  0.1195  0.2942
13237SOL    HW140812   7.697   7.432   0.897  0.9042  1.0586  1.8743
13237SOL    HW240813   7.715   7.542   0.794 -0.5423 -0.4491 -0.0660
13238SOL     OW40814   1.907   6.894   3.765  0.1870  0.1154  0.2613
13238SOL    HW140815   1.961   6.855   3.833  0.7579 -1.5307 -1.0579
13238SOL    HW240816   1.966   6.954   3.719  0.0145  0.6515  0.7348
13239SOL     OW40817   8.576   9.071   7.343 -0.1942  0.5560  0.4594
13239SOL    HW140818   8.515   9.116   7.285 -0.5532  0.1671  0.5268
13239SOL    HW240819   8.634   9.023   7.284  0.2625  1.1949  0.3848
13240SOL     OW40820   3.395   2.859   3.263 -0.0808 -0.1172 -0.7865
13240SOL    HW140821   3.312   2.813   3.270  0.1777 -0.4213  0.6526
13240SOL    HW240822   3.410   2.895   3.351  0.8312  0.7620 -1.2809
13241SOL     OW40823   7.497   5.838   0.095 -0.5549  0.2722  0.0173
13241SOL    HW140824   7.570   5.898   0.108 -1.9864  2.2407 -0.5686
13241SOL    HW240825   7.464   5.819   0.183 -0.0925  0.3343  0.2047
13242SOL     OW40826   8.812   1.954   2.193 -0.4092 -0.5995 -0.6969
13242SOL    HW140827   8.836   1.891   2.125 -0.5605 -1.1982 -0.2030
13242SOL    HW240828   8.855   1.921   2.272 -1.1864 -0.5621 -0.2504
13243SOL     OW40829   7.763   4.125   4.614 -0.0013  0.1436  0.2596
13243SOL    HW140830   7.780   4.208   4.569  0.9576 -1.1556 -1.9141
13243SOL    HW240831   7.825   4.124   4.687 -0.8686  1.8398  1.0801
13244SOL     OW40832   4.011   2.900   2.571 -0.0506 -0.0377 -0.0504
13244SOL    HW140833   3.953   2.895   2.647 -0.5080  1.3346 -0.2826
13244SOL    HW240834   3.988   2.824   2.519 -0.6345 -0.2982  0.5673
13245SOL     OW40835   6.078   4.679   8.418 -0.0143  0.2015  0.3566
13245SOL    HW140836   5.990   4.714   8.407  0.0507  1.0546  2.1619
13245SOL    HW240837   6.136   4.755   8.405  0.2854  0.2050  1.5592
13246SOL     OW40838   6.478   4.078   0.576  0.1148 -0.8557 -0.1150
13246SOL    HW140839   6.407   4.106   0.634  1.1282  1.5702  0.0655
13246SOL    HW240840   6.446   4.099   0.488  0.9945  1.4637  0.0355
13247SOL     OW40841   2.499   5.827   4.830 -0.0395  0.0084  0.1186
13247SOL    HW140842   2.495   5.862   4.741  1.0235  1.1228  0.4762
13247SOL    HW240843   2.460   5.894   4.885  0.0997 -0.2918  0.5950
13248SOL     OW40844   0.302   3.021   6.935  0.4303 -0.3527  0.2177
13248SOL    HW140845   0.316   3.096   6.993  1.2791  0.7704 -1.3525
13248SOL    HW240846   0.213   2.993   6.954  0.4256  0.4610  1.5173
13249SOL     OW40847   2.092   8.029   2.135  1.0529 -0.4383 -0.0341
13249SOL    HW140848   2.171   8.039   2.188  0.8403 -4.9276  1.5532
13249SOL    HW240849   2.022   8.016   2.198 -0.2636 -0.5385 -1.4427
13250SOL     OW40850   5.471   1.581   6.430 -0.2340 -0.0538  1.1057
13250SOL    HW140851   5.478   1.515   6.360  1.6462  1.2034  0.0320
13250SOL    HW240852   5.549   1.635   6.420 -0.5498  0.9449  3.4322
13251SOL     OW40853   0.262   5.118   7.685 -0.0058  0.5561 -0.2357
13251SOL    HW140854   0.178   5.124   7.730  0.4390  2.9982  0.4076
13251SOL    HW240855   0.327   5.127   7.754  0.7852 -0.1784 -0.8586
13252SOL     OW40856   5.137   3.938   8.849  0.1762 -0.0669  0.5121
13252SOL    HW140857   5.147   3.851   8.887  2.1049 -0.6347 -1.0868
13252SOL    HW240858   5.087   3.988   8.914 -0.8000 -2.2812  1.5592
13253SOL     OW40859   4.006   7.215   8.015 -0.5793  0.8813 -0.6159
13253SOL    HW140860   3.957   7.249   8.090  1.4600 -1.1331  1.7940
13253SOL    HW240861   4.075   7.280   8.000  0.7856 -0.0257  1.2819
13254SOL     OW40862   6.109   5.931   7.700  0.1064  0.3188  0.0600
13254SOL    HW140863   6.061   5.999   7.746 -1.5900 -1.2889  0.8276
13254SOL    HW240864   6.147   5.974   7.624  0.5987  2.4510  1.4476
13255SOL     OW40865   7.230   4.780   9.061  0.6712 -0.4343  0.0655
13255SOL    HW140866   7.283   4.759   9.138 -0.3410 -0.4958  0.7722
13255SOL    HW240867   7.204   4.871   9.075 -0.0705 -0.6539  0.1411
13256SOL     OW40868   0.162   3.203   1.417  0.0239 -1.1794 -0.5053
13256SOL    HW140869   0.185   3.165   1.332 -1.1841  1.1049 -1.9552
13256SOL    HW240870   0.066   3.208   1.416 -0.0126 -1.0891  1.0032
13257SOL     OW40871   4.025   8.938   8.118 -0.2527 -0.5069  0.3179
13257SOL    HW140872   4.016   9.031   8.099 -1.0606 -0.3120  1.4901
13257SOL    HW240873   4.010   8.932   8.213  0.1615 -1.7843  0.3214
13258SOL     OW40874   2.081   0.501   5.611 -0.4645  0.3542  0.2425
13258SOL    HW140875   2.113   0.416   5.643  0.4772  1.3431  2.1117
13258SOL    HW240876   2.154   0.561   5.627 -0.3892  1.2328 -2.7664
13259SOL     OW40877   6.180   3.636   3.386  0.1468  0.2941 -0.7067
13259SOL    HW140878   6.237   3.614   3.313  2.1550 -0.5438  0.9912
13259SOL    HW240879   6.218   3.717   3.422  0.6468 -0.5595  0.7660
13260SOL     OW40880   7.931   9.121   5.961 -0.5896  0.4192 -0.0064
13260SOL    HW140881   7.857   9.085   5.911 -0.1508  1.8813 -1.8285
13260SOL    HW240882   7.890   9.174   6.029 -1.2148 -0.4314  0.2971
13261SOL     OW40883   4.617   7.253   8.759  0.5586 -0.1163 -0.8505
13261SOL    HW140884   4.554   7.195   8.803  1.6746 -0.7378 -0.0219
13261SOL    HW240885   4.564   7.325   8.725 -0.7652 -1.2376 -1.2556
13262SOL     OW40886   5.063   9.014   4.668 -0.2171  0.2972 -0.1411
13262SOL    HW140887   5.096   8.987   4.754  1.3153 -0.3588 -0.8994
13262SOL    HW240888   5.135   9.063   4.629 -0.8391  0.4546 -1.1283
13263SOL     OW40889   4.394   4.512   8.093  0.2855 -0.3909 -0.5569
13263SOL    HW140890   4.320   4.455   8.114 -1.4106  1.6808 -0.5370
13263SOL    HW240891   4.419   4.550   8.177 -0.0359  0.4853 -0.8467
13264SOL     OW40892   5.297   2.452   1.133 -0.4167 -0.2416  0.7052
13264SOL    HW140893   5.328   2.543   1.129 -0.5298 -0.1437  1.7929
13264SOL    HW240894   5.302   2.421   1.042  2.4366 -0.0830  0.7147
13265SOL     OW40895   7.855   7.967   0.436  0.0012 -1.0592 -0.1833
13265SOL    HW140896   7.867   8.003   0.348  0.9622  0.1969  0.4209
13265SOL    HW240897   7.869   7.873   0.426  0.3934 -0.8916 -1.3293
13266SOL     OW40898   4.603   6.894   6.760  0.3864 -0.1543 -0.3058
13266SOL    HW140899   4.649   6.843   6.827 -0.5311 -0.9647 -0.2748
13266SOL    HW240900   4.565   6.968   6.809 -0.0675 -0.6038  0.0306
13267SOL     OW40901   0.964   7.365   8.592  0.0615  0.2382  0.4541
13267SOL    HW140902   1.028   7.300   8.565  1.0768  1.1946  0.5230
13267SOL    HW240903   0.909   7.319   8.656  0.2947 -0.7600 -0.0531
13268SOL     OW40904   1.195   8.073   4.338  0.1562  0.0359  0.1203
13268SOL    HW140905   1.106   8.066   4.303  0.7193 -0.0040 -1.3917
13268SOL    HW240906   1.220   7.984   4.361  0.1995 -0.1279 -0.5340
13269SOL     OW40907   2.776   0.078   3.349 -0.5370  0.0101 -0.2544
13269SOL    HW140908   2.730   0.095   3.267 -1.1949 -1.6451 -0.2767
13269SOL    HW240909   2.767   0.159   3.399 -0.9375  0.7217 -1.4439
13270SOL     OW40910   5.933   0.771   9.063 -0.4372 -0.3265  0.8376
13270SOL    HW140911   5.909   0.861   9.087 -1.5168  0.0485 -1.3600
13270SOL    HW240912   5.863   0.718   9.100  0.5423 -0.3864  2.7033
13271SOL     OW40913   4.841   5.613   3.803 -0.8727 -0.2096 -0.6187
13271SOL    HW140914   4.843   5.675   3.730 -1.1483 -0.7011 -1.0491
13271SOL    HW240915   4.749   5.588   3.811 -0.5321 -1.9276 -1.6245
13272SOL     OW40916   6.309   4.547   6.696 -0.3220 -0.0441 -0.0656
13272SOL    HW140917   6.214   4.537   6.705 -0.3700  0.8981  0.6612
13272SOL    HW240918   6.321   4.638   6.668  0.2958 -0.6247 -1.8386
13273SOL     OW40919   6.550   3.543   2.091  0.0748 -0.0097  0.5035
13273SOL    HW140920   6.639   3.580   2.090  0.2263 -0.3761 -0.6414
13273SOL    HW240921   6.547   3.491   2.171  1.2038 -0.7105  0.1174
13274SOL     OW40922   2.019   4.832   5.480  0.7353  0.3679  0.3415
13274SOL    HW140923   2.030   4.750   5.431  0.1194  0.9236 -0.7676
13274SOL    HW240924   1.927   4.831   5.507 -0.2417  2.1066 -2.4486
13275SOL     OW40925   8.257   7.751   3.346 -0.4946  0.0820 -0.3175
13275SOL    HW140926   8.170   7.791   3.334 -1.1374 -1.1438  0.0762
13275SOL    HW240927   8.291   7.742   3.258 -1.0595 -0.0295 -0.5312
13276SOL     OW40928   6.654   4.013   7.535 -0.4399 -0.9669  0.3780
13276SOL    HW140929   6.721   3.945   7.546  1.0115 -0.1218 -2.3283
13276SOL    HW240930   6.640   4.047   7.624  1.2503 -2.4991  1.3086
13277SOL     OW40931   3.190   2.323   6.588 -0.1133  0.1940  0.2222
13277SOL    HW140932   3.251   2.366   6.527 -0.6676 -1.2221 -1.4313
13277SOL    HW240933   3.125   2.391   6.608  1.1720  1.2874  0.8612
13278SOL     OW40934   6.218   6.203   0.846  0.2560  0.3457  0.5839
13278SOL    HW140935   6.172   6.170   0.923  0.3956 -0.5140  0.3209
13278SOL    HW240936   6.269   6.127   0.815 -0.4273  0.4238 -0.8166
13279SOL     OW40937   4.139   1.933   7.356  0.1491  0.0596  0.3980
13279SOL    HW140938   4.163   2.016   7.314  2.0568 -0.2851  0.7297
13279SOL    HW240939   4.212   1.914   7.414 -1.1388 -0.9231  1.7618
13280SOL     OW40940   2.761   0.761   4.409  0.5981 -0.0759  0.4328
13280SOL    HW140941   2.800   0.734   4.326  0.8576  0.3114  0.4251
13280SOL    HW240942   2.675   0.796   4.385  0.3866 -0.6051  0.4091
13281SOL     OW40943   2.210   5.058   3.941  0.2941 -0.5261 -0.0357
13281SOL    HW140944   2.295   5.060   3.986  0.6359 -1.9526 -0.5569
13281SOL    HW240945   2.221   4.990   3.874 -0.5523  0.7539 -1.5502
13282SOL     OW40946   4.901   3.687   7.402 -0.2337 -0.2072  0.1885
13282SOL    HW140947   4.959   3.646   7.466  0.3345 -1.4557 -1.0689
13282SOL    HW240948   4.938   3.662   7.317 -2.1560 -0.3883 -0.6411
13283SOL     OW40949   2.251   3.923   7.963  0.8194  0.0597  0.3813
13283SOL    HW140950   2.254   4.016   7.940  1.4714  0.4468  1.9041
13283SOL    HW240951   2.258   3.877   7.879 -0.7328  1.3712 -0.5057
13284SOL     OW40952   1.393   0.547   8.025 -0.0716  0.0351 -0.1094
13284SOL    HW140953   1.336   0.478   8.060  0.9062  0.3484  2.3251
13284SOL    HW240954   1.366   0.626   8.072  0.5143  0.7590 -0.9702
13285SOL     OW40955   4.527   7.732   7.665 -0.0365  0.4881  0.1217
13285SOL    HW140956   4.573   7.652   7.640  0.8973  1.1528 -0.3679
13285SOL    HW240957   4.487   7.711   7.749  0.2839 -0.4587  0.0489
13286SOL     OW40958   6.239   2.411   4.069  0.0768 -0.0268  0.2229
13286SOL    HW140959   6.183   2.433   3.995  0.3776 -1.8639 -0.6116
13286SOL    HW240960   6.324   2.450   4.048  0.2507 -0.8085 -0.5949
13287SOL     OW40961   7.678   4.256   3.282 -0.6801 -0.3852  0.9838
13287SOL    HW140962   7.647   4.235   3.194 -2.0409  2.1904  0.7420
13287SOL    HW240963   7.608   4.225   3.340 -0.1198 -1.4167  1.1364
13288SOL     OW40964   2.549   8.891   4.011 -0.2593 -0.1016 -0.2801
13288SOL    HW140965   2.462   8.865   4.042  0.8058 -1.1695  2.0969
13288SOL    HW240966   2.599   8.906   4.091  2.2553 -1.3352 -1.5127
13289SOL     OW40967   8.178   8.989   7.580  0.3580 -0.4756  0.4331
13289SOL    HW140968   8.130   8.996   7.663  0.4307 -2.0217  0.6223
13289SOL    HW240969   8.155   9.070   7.533 -0.0839  0.1905  1.7371
13290SOL     OW40970   8.616   7.615   3.610 -0.5138  0.3907  0.1794
13290SOL    HW140971   8.538   7.564   3.628  0.3289 -1.5653 -1.4020
13290SOL    HW240972   8.590   7.706   3.628 -2.4255 -0.4208  1.8840
13291SOL     OW40973   5.918   8.120   7.832 -0.1839  0.7165  0.5424
13291SOL    HW140974   5.892   8.031   7.853  0.3178  0.1644 -1.0963
13291SOL    HW240975   5.998   8.135   7.883  0.4018 -0.2108 -0.0826
13292SOL     OW40976   8.893   1.411   5.009 -0.1412 -0.2900  0.0994
13292SOL    HW140977   8.926   1.431   5.096  2.5883 -1.1834 -0.6309
13292SOL    HW240978   8.857   1.494   4.976 -1.9902 -0.1340  2.3082
13293SOL     OW40979   5.481   4.105   6.244 -0.2253  0.3223 -0.4467
13293SOL    HW140980   5.469   4.200   6.251 -0.8636  0.2077  0.0843
13293SOL    HW240981   5.406   4.076   6.192  0.4424  0.2124 -1.3680
13294SOL     OW40982   2.286   1.046   4.407 -0.1661  0.7156  0.3641
13294SOL    HW140983   2.248   1.063   4.320 -0.0921  0.7882  0.3461
13294SOL    HW240984   2.329   1.128   4.430  0.9823  0.2663 -0.1308
13295SOL     OW40985   2.271   7.208   6.918 -0.2364 -0.6349  0.2053
13295SOL    HW140986   2.253   7.277   6.981  1.5801 -0.6715  0.8181
13295SOL    HW240987   2.220   7.133   6.948 -3.0846  0.6746 -1.0699
13296SOL     OW40988   8.291   4.655   6.424  0.0492 -0.2941  0.1060
13296SOL    HW140989   8.236   4.733   6.421 -0.8919 -0.9676 -0.8415
13296SOL    HW240990   8.377   4.684   6.395 -0.8678 -0.0529 -2.5774
13297SOL     OW40991   3.497   2.056   8.326 -0.3497  0.1627 -0.9498
13297SOL    HW140992   3.538   2.133   8.285  0.5615 -0.0884 -0.5336
13297SOL    HW240993   3.571   2.000   8.351 -1.0020 -0.8604 -1.2593
13298SOL     OW40994   9.063   4.791   0.207 -0.2436 -0.0801  0.1409
13298SOL    HW140995   9.035   4.820   0.294 -1.5888  0.5927 -0.4904
13298SOL    HW240996   9.094   4.871   0.164  0.0083 -0.3357 -0.1558
13299SOL     OW40997   3.436   8.572   6.312 -0.6164  0.0456  0.9841
13299SOL    HW140998   3.431   8.668   6.319 -1.8580  0.0202  0.6377
13299SOL    HW240999   3.402   8.554   6.224  1.3829 -0.5961  0.2867
13300SOL     OW41000   4.679   4.870   8.316  0.0796  0.4631 -0.4746
13300SOL    HW141001   4.665   4.826   8.399 -1.6432 -1.7597 -1.8328
13300SOL    HW241002   4.662   4.803   8.250 -1.2144  2.7848 -2.6803
13301SOL     OW41003   2.050   2.726   8.686  0.2856 -0.7101  0.0159
13301SOL    HW141004   2.030   2.729   8.779 -0.0357 -0.6129 -0.0523
13301SOL    HW241005   2.136   2.767   8.678 -0.0744  0.1141  0.1689
13302SOL     OW41006   4.441   0.568   0.333 -0.0869 -0.0301 -0.1057
13302SOL    HW141007   4.521   0.586   0.381  1.2568 -1.7627 -1.5572
13302SOL    HW241008   4.394   0.504   0.388  0.9003 -1.1379 -0.5072
13303SOL     OW41009   5.770   8.935   5.958 -0.5666 -0.8927  0.6430
13303SOL    HW141010   5.704   9.004   5.947  0.8390  0.5153  0.7906
13303SOL    HW241011   5.827   8.967   6.027 -0.0988 -2.3998  0.9862
13304SOL     OW41012   0.456   4.622   3.080 -0.2443  0.4993 -0.1485
13304SOL    HW141013   0.414   4.539   3.058  1.4852 -0.6134  0.5361
13304SOL    HW241014   0.428   4.682   3.011  0.0007 -1.1768 -1.8043
13305SOL     OW41015   6.330   5.287   6.881 -0.1362 -0.4694 -0.3730
13305SOL    HW141016   6.418   5.283   6.921 -1.0242  2.1244  2.1826
13305SOL    HW241017   6.272   5.257   6.951 -1.5365  1.3476 -0.6955
13306SOL     OW41018   3.389   0.104   4.498 -0.3528  0.3532 -0.0333
13306SOL    HW141019   3.325   0.128   4.566 -0.1992 -0.4701  0.4173
13306SOL    HW241020   3.383   0.008   4.493 -0.0531  0.3735 -0.8874
13307SOL     OW41021   1.747   2.965   3.605 -0.2277 -0.2280 -0.0077
13307SOL    HW141022   1.843   2.962   3.599 -0.0861  2.4793 -0.5403
13307SOL    HW241023   1.717   2.892   3.550  1.5281 -0.8147 -0.2476
13308SOL     OW41024   8.464   7.009   2.384 -0.0934 -0.0292 -0.1201
13308SOL    HW141025   8.497   6.932   2.338  0.9424 -0.9539  2.0518
13308SOL    HW241026   8.534   7.074   2.372  0.4128 -0.4378  0.5487
13309SOL     OW41027   8.457   8.947   1.381  0.1628 -0.1567  0.4358
13309SOL    HW141028   8.428   8.857   1.401 -0.6945 -0.4247 -1.7357
13309SOL    HW241029   8.552   8.940   1.370  0.3289 -0.4470  1.8520
13310SOL     OW41030   8.273   1.522   6.868 -0.3708  0.7232  0.0634
13310SOL    HW141031   8.310   1.435   6.851 -1.4155  0.2769 -0.0267
13310SOL    HW241032   8.335   1.583   6.828  0.6315  0.0500  0.5686
13311SOL     OW41033   8.975   1.361   3.011  0.1532  0.1632 -0.0637
13311SOL    HW141034   8.895   1.321   2.976  0.6735 -0.5613 -0.4573
13311SOL    HW241035   9.010   1.294   3.070  1.3693 -0.2527 -1.2045
13312SOL     OW41036   1.508   0.980   6.264 -0.1619 -0.3600 -0.9557
13312SOL    HW141037   1.562   1.058   6.276 -1.2594  0.0260  2.4485
13312SOL    HW241038   1.420   1.014   6.246 -0.2795 -0.8859 -1.4175
13313SOL     OW41039   5.128   4.972   2.238 -0.4504 -0.1700 -0.0478
13313SOL    HW141040   5.067   4.942   2.305  1.1716 -2.3385  0.5734
13313SOL    HW241041   5.084   4.953   2.155 -0.5557 -1.9396  0.3860
13314SOL     OW41042   3.852   4.330   7.318  0.1135 -0.0659 -0.0968
13314SOL    HW141043   3.787   4.329   7.389  0.3266  0.3743  0.1084
13314SOL    HW241044   3.910   4.257   7.338  0.9271  0.8259  0.9022
13315SOL     OW41045   8.715   6.117   7.637  0.6899 -0.0365 -0.1481
13315SOL    HW141046   8.751   6.140   7.723  0.4254  1.1963 -0.3585
13315SOL    HW241047   8.620   6.112   7.651  0.5149  1.4713 -0.6303
13316SOL     OW41048   4.183   9.132   4.841 -0.4689  0.9300  0.4594
13316SOL    HW141049   4.241   9.059   4.819 -2.7611 -0.4486 -1.3695
13316SOL    HW241050   4.156   9.115   4.931 -0.9472 -0.5002  0.0705
13317SOL     OW41051   8.510   6.650   4.011  0.0514  0.1068 -0.2231
13317SOL    HW141052   8.567   6.616   3.943 -1.2388  0.3192 -1.4630
13317SOL    HW241053   8.519   6.589   4.084  0.9935 -0.4679 -0.8079
13318SOL     OW41054   8.832   8.189   2.481 -0.3606 -0.4298  0.2786
13318SOL    HW141055   8.898   8.239   2.433 -2.0101  0.5593 -1.0898
13318SOL    HW241056   8.836   8.223   2.571  0.6649 -0.0653  0.1040
13319SOL     OW41057   2.017   3.753   5.102  0.0516  0.1524  0.3364
13319SOL    HW141058   2.093   3.743   5.044  0.8923  0.6440  1.3336
13319SOL    HW241059   1.954   3.689   5.069  0.8194 -0.1411 -0.6222
13320SOL     OW41060   2.328   0.333   8.057  0.1386  0.4568 -0.1139
13320SOL    HW141061   2.280   0.411   8.027  0.3788  0.3375 -0.8142
13320SOL    HW241062   2.412   0.368   8.088  0.2648  0.4780 -0.4705
13321SOL     OW41063   4.952   2.510   7.009 -0.6493 -0.3512 -0.4257
13321SOL    HW141064   4.969   2.504   6.915 -0.4454  0.7985 -0.4710
13321SOL    HW241065   5.035   2.483   7.050 -0.1463  0.8411 -0.6079
13322SOL     OW41066   0.410   7.341   5.185 -0.1952 -0.1045  0.7882
13322SOL    HW141067   0.436   7.405   5.118  0.4442 -1.2310 -0.0835
13322SOL    HW241068   0.492   7.320   5.230  0.3052 -2.6678 -1.0761
13323SOL     OW41069   7.199   8.955   7.134  0.0607  0.1790  0.1551
13323SOL    HW141070   7.209   8.862   7.114 -0.9751 -0.0773  0.7273
13323SOL    HW241071   7.238   9.000   7.059 -0.2332 -0.7216 -0.5611
13324SOL     OW41072   6.760   3.742   1.515 -0.1416  0.3024 -0.4316
13324SOL    HW141073   6.731   3.679   1.581  0.3396  2.7790  2.3738
13324SOL    HW241074   6.850   3.714   1.493  0.0319 -0.0613  0.6691
13325SOL     OW41075   1.790   2.125   0.527  0.0682  0.3141 -0.1761
13325SOL    HW141076   1.886   2.129   0.524  0.2251 -2.2079 -2.4131
13325SOL    HW241077   1.763   2.148   0.438 -1.2508 -1.0632 -0.1608
13326SOL     OW41078   1.308   7.376   2.486  0.5396 -0.2677  0.4334
13326SOL    HW141079   1.403   7.381   2.473  0.4025  0.8004 -0.3006
13326SOL    HW241080   1.279   7.467   2.482 -0.4967 -0.5592  0.9144
13327SOL     OW41081   0.191   7.299   7.816  0.0002 -0.4674 -0.2396
13327SOL    HW141082   0.127   7.263   7.755 -2.1132  0.2313  1.4153
13327SOL    HW241083   0.251   7.227   7.833 -0.7230 -1.3733 -1.3624
13328SOL     OW41084   3.024   3.190   7.183  0.3134  0.0844  0.1847
13328SOL    HW141085   3.113   3.202   7.150 -0.9309 -1.7293 -4.7032
13328SOL    HW241086   3.001   3.100   7.160 -2.6131  0.2617  1.8663
13329SOL     OW41087   2.627   0.478   4.729 -0.6540 -0.2982  1.0291
13329SOL    HW141088   2.720   0.477   4.709 -0.7347 -0.7298  0.6669
13329SOL    HW241089   2.619   0.424   4.808 -0.5273  0.1888  1.3764
13330SOL     OW41090   3.794   9.027   7.852  0.5506  0.4384 -0.1120
13330SOL    HW141091   3.812   9.080   7.774 -2.4061  1.4815 -0.2085
13330SOL    HW241092   3.840   9.072   7.923  0.1328  1.7343 -0.6305
13331SOL     OW41093   5.037   7.727   4.797 -0.4130 -0.5013  0.5616
13331SOL    HW141094   5.111   7.757   4.745 -1.9766 -1.1956 -2.2604
13331SOL    HW241095   5.032   7.633   4.779 -2.1538 -0.4047  0.3941
13332SOL     OW41096   7.654   6.943   1.213 -0.0983 -0.6953 -0.3173
13332SOL    HW141097   7.721   6.882   1.245 -2.0008 -1.8547  1.7204
13332SOL    HW241098   7.630   6.910   1.127  2.3579  0.1609 -1.4192
13333SOL     OW41099   1.014   2.874   0.272  0.3975  0.2276  0.0201
13333SOL    HW141100   0.964   2.807   0.225  0.9613 -0.3893  0.2748
13333SOL    HW241101   1.097   2.831   0.292  0.3943  0.6673  1.0525
13334SOL     OW41102   5.382   7.436   4.409  0.0636  0.3586  0.1702
13334SOL    HW141103   5.348   7.437   4.499 -0.6849  0.4115 -0.1036
13334SOL    HW241104   5.365   7.348   4.378 -0.2420  0.5165 -0.1219
13335SOL     OW41105   7.814   8.928   5.803  0.4188 -0.3637  0.2925
13335SOL    HW141106   7.865   8.874   5.742  1.1279 -0.1006  0.6368
13335SOL    HW241107   7.753   8.867   5.843  0.7911 -0.7887  0.2231
13336SOL     OW41108   3.922   4.429   3.284 -0.1610  0.0989  0.1725
13336SOL    HW141109   3.871   4.404   3.207  0.1015  0.3774 -0.0940
13336SOL    HW241110   3.867   4.491   3.331 -0.8048 -0.9223  0.8205
13337SOL     OW41111   8.571   3.416   6.186 -0.6132 -0.4278 -0.3234
13337SOL    HW141112   8.539   3.486   6.130  0.4631  1.1715  0.9598
13337SOL    HW241113   8.664   3.408   6.163  0.2618  1.3640  2.2009
13338SOL     OW41114   0.446   1.003   5.237 -0.2489 -0.0007 -0.0599
13338SOL    HW141115   0.443   0.908   5.225 -0.0874 -0.0044 -0.0685
13338SOL    HW241116   0.446   1.038   5.148 -2.4327  0.0790 -0.0947
13339SOL     OW41117   3.240   6.256   7.727  0.1335  0.1075 -0.0926
13339SOL    HW141118   3.318   6.298   7.692  1.2131 -2.6006 -1.2393
13339SOL    HW241119   3.273   6.179   7.774 -1.8061 -2.3463 -2.4186
13340SOL     OW41120   5.858   1.996   4.166 -0.2381  0.2669 -0.1863
13340SOL    HW141121   5.934   1.939   4.153 -1.2545 -1.5779  1.3189
13340SOL    HW241122   5.802   1.978   4.091  0.2137  0.6176 -0.6136
13341SOL     OW41123   1.338   3.258   1.289  0.0149  0.3541 -0.1330
13341SOL    HW141124   1.429   3.251   1.319 -0.0957 -1.3459 -0.1096
13341SOL    HW241125   1.288   3.207   1.353 -0.9427  1.0977 -0.2706
13342SOL     OW41126   5.110   3.415   2.994  0.1828 -0.5095  0.3151
13342SOL    HW141127   5.168   3.344   2.965  1.2683  0.2526  0.5467
13342SOL    HW241128   5.126   3.422   3.088  1.4869  1.2266  0.0116
13343SOL     OW41129   5.854   7.251   2.248 -0.7294 -0.1557 -0.3239
13343SOL    HW141130   5.894   7.319   2.301 -0.1199 -0.3744 -0.4982
13343SOL    HW241131   5.823   7.186   2.311 -0.3130 -0.2484 -0.2115
13344SOL     OW41132   4.583   3.422   7.370 -0.2776 -0.4108  0.2010
13344SOL    HW141133   4.599   3.508   7.408 -0.9863  0.0156 -0.4252
13344SOL    HW241134   4.588   3.362   7.444  0.2350  0.1654  0.6454
13345SOL     OW41135   3.423   6.486   6.513  0.1210 -0.1655 -0.2867
13345SOL    HW141136   3.419   6.484   6.417 -2.1070  0.6299 -0.2687
13345SOL    HW241137   3.483   6.557   6.534  0.1337  0.0687 -1.0976
13346SOL     OW41138   8.219   1.056   3.364 -0.6253 -0.2818 -0.0130
13346SOL    HW141139   8.239   1.136   3.315 -2.3702 -0.7202 -1.5750
13346SOL    HW241140   8.183   1.087   3.447 -0.9949  0.5704 -0.4697
13347SOL     OW41141   5.854   8.462   2.462 -0.3609 -0.1773  0.6367
13347SOL    HW141142   5.816   8.465   2.374 -1.0526  2.6535  0.9452
13347SOL    HW241143   5.948   8.473   2.447 -0.3771 -0.5653  0.2142
13348SOL     OW41144   6.094   0.830   3.044  0.6513 -0.1274 -0.1497
13348SOL    HW141145   6.088   0.888   2.968 -0.2853 -2.4536 -1.9652
13348SOL    HW241146   6.008   0.788   3.049  0.3719  0.6032  2.8265
13349SOL     OW41147   5.673   5.309   4.212  0.5958  0.0256 -0.2098
13349SOL    HW141148   5.705   5.224   4.182  0.0822 -0.0260 -0.6202
13349SOL    HW241149   5.672   5.301   4.307  0.4275 -0.4750 -0.2484
13350SOL     OW41150   0.207   9.129   4.917 -0.1720  0.2236  0.2283
13350SOL    HW141151   0.203   9.217   4.880  1.7916  0.2965  0.0793
13350SOL    HW241152   0.146   9.078   4.864 -1.7831  1.5893  0.6863
13351SOL     OW41153   4.397   5.920   2.137  0.0678 -0.2330  0.3076
13351SOL    HW141154   4.307   5.948   2.157 -1.1086 -1.4857 -2.5985
13351SOL    HW241155   4.440   5.999   2.104 -0.6902 -0.0946 -0.3787
13352SOL     OW41156   0.749   6.300   8.635  0.0546 -0.4398 -0.4425
13352SOL    HW141157   0.664   6.306   8.591 -0.1098  2.3213  0.1058
13352SOL    HW241158   0.778   6.210   8.617 -3.3927 -1.8584  0.1565
13353SOL     OW41159   1.732   1.017   0.991 -0.1996  0.0316 -0.0885
13353SOL    HW141160   1.774   0.937   1.023  0.1931  0.3372  0.1826
13353SOL    HW241161   1.776   1.087   1.040  0.7165  0.5569 -1.6029
13354SOL     OW41162   4.745   3.221   5.019  0.3110  0.3810 -0.5554
13354SOL    HW141163   4.687   3.296   5.005  0.7085  0.6797 -0.6292
13354SOL    HW241164   4.725   3.162   4.947 -1.0966 -0.2967  0.3430
13355SOL     OW41165   6.217   0.710   2.139  0.3930  0.3565  0.0826
13355SOL    HW141166   6.285   0.698   2.073  0.3513  1.9756 -0.2944
13355SOL    HW241167   6.260   0.695   2.223  0.6981 -0.6856 -0.2550
13356SOL     OW41168   9.125   6.702   8.342  0.0339 -0.7894  0.2248
13356SOL    HW141169   9.071   6.780   8.350 -1.0401 -1.6376  1.8053
13356SOL    HW241170   9.189   6.709   8.413  1.3008 -0.3865 -0.8951
13357SOL     OW41171   3.246   2.427   0.875  0.3219  0.1231 -0.0982
13357SOL    HW141172   3.214   2.406   0.788  2.3782 -1.4349 -0.5370
13357SOL    HW241173   3.330   2.469   0.860 -0.0322  1.3460  1.1169
13358SOL     OW41174   7.268   6.849   5.554  0.6981  0.2606 -0.0245
13358SOL    HW141175   7.245   6.932   5.513  0.5541 -0.2112 -0.9201
13358SOL    HW241176   7.225   6.782   5.500 -0.2274 -0.3358  1.3944
13359SOL     OW41177   1.100   0.152   5.481  1.0235 -0.2619 -0.4213
13359SOL    HW141178   1.136   0.205   5.410 -0.4204 -0.3330 -1.2243
13359SOL    HW241179   1.060   0.216   5.541  0.0316 -0.3625 -0.9599
13360SOL     OW41180   2.839   8.098   1.002  0.3374 -0.3091  0.5344
13360SOL    HW141181   2.836   8.097   1.098  1.0094 -1.5177  0.5618
13360SOL    HW241182   2.797   8.016   0.976  1.6865 -0.8103 -0.1355
13361SOL     OW41183   5.516   6.996   5.566  0.9582 -0.1121  0.0619
13361SOL    HW141184   5.433   7.029   5.600  0.8163 -1.1252  0.7473
13361SOL    HW241185   5.576   7.070   5.572  0.5243  0.1733  1.1295
13362SOL     OW41186   4.730   7.288   4.490 -0.2377 -0.0112 -0.0774
13362SOL    HW141187   4.802   7.238   4.453 -0.8295  0.0223 -1.3008
13362SOL    HW241188   4.762   7.378   4.493 -0.4871  0.1426 -1.3789
13363SOL     OW41189   6.843   4.214   6.504  0.7570 -0.5314  0.2666
13363SOL    HW141190   6.870   4.251   6.420 -1.4185  0.5229 -0.0327
13363SOL    HW241191   6.782   4.144   6.481 -0.1729  0.0334  0.9539
13364SOL     OW41192   3.132   7.730   2.486  0.9160 -0.4409  0.4089
13364SOL    HW141193   3.194   7.657   2.483 -1.2289 -2.5866  2.5062
13364SOL    HW241194   3.048   7.688   2.503 -0.3960  2.5469  2.1353
13365SOL     OW41195   4.602   0.416   8.722  0.0482 -0.2066 -0.2746
13365SOL    HW141196   4.543   0.473   8.673  0.4295 -0.6162 -1.2386
13365SOL    HW241197   4.584   0.328   8.688 -0.5077 -0.6742  1.1670
13366SOL     OW41198   1.347   3.687   9.112 -0.2184 -0.3369  0.3150
13366SOL    HW141199   1.336   3.628   9.187  0.9099 -0.2717  0.5456
13366SOL    HW241200   1.368   3.628   9.039  0.4797 -0.2718  0.4532
13367SOL     OW41201   4.743   3.818   1.630 -0.7724 -0.1075  0.2721
13367SOL    HW141202   4.685   3.770   1.689 -1.7368  0.0724 -0.4897
13367SOL    HW241203   4.829   3.779   1.642 -1.4419 -1.7292 -0.0085
13368SOL     OW41204   2.796   1.056   4.288 -0.1967  0.3596  0.1256
13368SOL    HW141205   2.890   1.057   4.265 -0.3382 -0.6339 -0.5545
13368SOL    HW241206   2.795   1.044   4.383  0.3752  2.1331  0.4022
13369SOL     OW41207   8.386   0.971   5.685  0.0853  0.5838 -0.3812
13369SOL    HW141208   8.389   1.014   5.599  0.0053  0.5016 -0.4251
13369SOL    HW241209   8.308   0.916   5.682  0.0836  0.5792 -0.2556
13370SOL     OW41210   7.783   1.109   2.089  0.3087  0.5719 -0.5222
13370SOL    HW141211   7.734   1.171   2.035 -0.0884  0.2317 -0.5525
13370SOL    HW241212   7.756   1.128   2.179 -1.9613 -1.3851 -0.7054
13371SOL     OW41213   6.356   5.246   2.306  0.0362 -0.0794 -0.2243
13371SOL    HW141214   6.402   5.314   2.257 -0.1584  1.0811  1.1386
13371SOL    HW241215   6.268   5.281   2.319 -0.3293 -0.9674 -0.1895
13372SOL     OW41216   5.436   8.192   0.870 -0.4766  0.0476 -0.1328
13372SOL    HW141217   5.438   8.098   0.852  0.2050  0.0185  0.0746
13372SOL    HW241218   5.342   8.214   0.870 -0.6931 -0.8231  0.8288
13373SOL     OW41219   4.926   7.049   0.110  0.6922  0.1413 -0.0374
13373SOL    HW141220   4.839   7.082   0.088  0.2490 -0.5647  0.6136
13373SOL    HW241221   4.944   6.982   0.045 -0.1960 -1.2487  1.0944
13374SOL     OW41222   0.306   2.756   0.304  0.1891  0.3697  0.0693
13374SOL    HW141223   0.391   2.715   0.291 -0.0241 -0.0114 -0.1308
13374SOL    HW241224   0.251   2.687   0.340 -0.9782 -0.3706 -2.8822
13375SOL     OW41225   6.390   2.908   0.610  0.2225 -0.1824  0.3753
13375SOL    HW141226   6.335   2.866   0.676  1.2266 -1.3339  0.5163
13375SOL    HW241227   6.333   2.916   0.533 -0.1659 -1.3526  0.5115
13376SOL     OW41228   3.810   0.778   6.773 -0.2923 -0.0631  0.3000
13376SOL    HW141229   3.841   0.829   6.698 -1.4399  0.5658  0.2345
13376SOL    HW241230   3.878   0.790   6.840  1.4595 -1.7849 -1.0672
13377SOL     OW41231   6.731   5.121   1.038 -0.7109  0.0633 -0.3847
13377SOL    HW141232   6.738   5.160   1.124  0.4538  0.3729 -0.6072
13377SOL    HW241233   6.673   5.046   1.051 -0.8316  0.3092  0.5877
13378SOL     OW41234   8.841   0.987   3.147  0.4032  0.3002  0.8739
13378SOL    HW141235   8.814   1.061   3.093 -1.1506  0.3450  1.6463
13378SOL    HW241236   8.875   0.922   3.085  1.3854  1.4678  0.1544
13379SOL     OW41237   3.661   6.331   5.701  0.0280  0.0431 -0.1383
13379SOL    HW141238   3.627   6.371   5.621  0.5165  0.7252 -0.0259
13379SOL    HW241239   3.650   6.399   5.768  0.0501 -0.3492  0.2696
13380SOL     OW41240   8.589   5.412   2.287  0.2683  0.4571  0.1761
13380SOL    HW141241   8.655   5.364   2.238  0.2262 -1.0445  1.5062
13380SOL    HW241242   8.614   5.504   2.278  1.2064  0.0929 -1.2144
13381SOL     OW41243   8.799   1.141   7.189 -0.2973  0.2298 -0.5645
13381SOL    HW141244   8.822   1.132   7.097  0.5631 -0.4277 -0.2959
13381SOL    HW241245   8.839   1.224   7.216  2.3310 -1.0985  0.0124
13382SOL     OW41246   7.788   7.765   4.058 -0.1227 -0.3389 -0.0779
13382SOL    HW141247   7.810   7.674   4.077 -2.1892 -1.0965 -1.1083
13382SOL    HW241248   7.831   7.783   3.973 -1.2989 -0.9970 -0.8311
13383SOL     OW41249   7.874   1.835   2.580 -0.8697 -0.2675 -0.5484
13383SOL    HW141250   7.919   1.918   2.564 -0.7823 -0.3462 -0.7162
13383SOL    HW241251   7.891   1.783   2.501  1.9741 -1.7671  0.8707
13384SOL     OW41252   1.779   3.377   1.235  0.2444  0.0128  0.2047
13384SOL    HW141253   1.813   3.464   1.215 -0.9582  0.4301 -0.0917
13384SOL    HW241254   1.856   3.328   1.264  1.1751  0.7800 -0.8775
13385SOL     OW41255   7.042   5.498   8.130  0.5359  0.4039 -0.5915
13385SOL    HW141256   7.074   5.552   8.058  0.1760  0.7192 -0.5197
13385SOL    HW241257   7.094   5.418   8.125  1.7863  1.1596 -0.0901
13386SOL     OW41258   1.104   7.964   3.964 -0.1021  0.1741 -0.8141
13386SOL    HW141259   1.171   8.030   3.950 -1.8251  1.8150 -1.7746
13386SOL    HW241260   1.153   7.882   3.974  2.0463  1.3937 -0.6759
13387SOL     OW41261   6.393   5.218   6.334  0.2010  0.2302 -0.5455
13387SOL    HW141262   6.412   5.264   6.416  0.0730  0.1193 -0.4536
13387SOL    HW241263   6.325   5.155   6.357 -0.4802  0.8148 -0.9312
13388SOL     OW41264   4.442   0.785   1.416 -0.2755  0.1478  0.9673
13388SOL    HW141265   4.371   0.723   1.434 -0.0245 -1.0615 -1.7352
13388SOL    HW241266   4.404   0.850   1.357  0.4825  0.2957  0.6313
13389SOL     OW41267   8.770   7.610   6.593 -0.2902  0.9243 -0.4977
13389SOL    HW141268   8.699   7.657   6.549 -1.4651 -1.1517 -0.9780
13389SOL    HW241269   8.814   7.563   6.522 -1.1675 -1.1622  0.2608
13390SOL     OW41270   3.271   1.892   7.721  0.7106  0.6880  0.4970
13390SOL    HW141271   3.192   1.897   7.775  1.3197  1.6104  1.3331
13390SOL    HW241272   3.343   1.909   7.782  1.4604  1.2045 -0.5102
13391SOL     OW41273   4.428   5.022   6.786  0.2636  0.1518  0.4048
13391SOL    HW141274   4.353   4.998   6.841  0.7077 -1.2578  0.4501
13391SOL    HW241275   4.502   4.976   6.826  0.5295 -1.2910 -1.5652
13392SOL     OW41276   4.229   5.577   8.769 -0.3459 -0.2758  0.0015
13392SOL    HW141277   4.282   5.520   8.712 -0.0196 -0.2244  0.2472
13392SOL    HW241278   4.156   5.605   8.714  2.0150  3.0648 -1.8110
13393SOL     OW41279   6.135   7.903   5.766  0.0900 -0.2711  0.1243
13393SOL    HW141280   6.166   7.990   5.793  0.7861 -0.4441 -0.1033
13393SOL    HW241281   6.179   7.887   5.682  0.2479 -1.0015  0.3431
13394SOL     OW41282   5.113   1.837   9.113 -0.1418 -0.0121 -0.4338
13394SOL    HW141283   5.046   1.906   9.118 -0.1573 -0.1149  1.1113
13394SOL    HW241284   5.066   1.761   9.077  0.1505  1.0453 -3.3502
13395SOL     OW41285   5.320   6.245   0.852  0.0170 -0.3534 -0.1322
13395SOL    HW141286   5.372   6.276   0.777  1.3400 -0.4476  0.7086
13395SOL    HW241287   5.350   6.299   0.926  0.1411 -1.5535  0.7264
13396SOL     OW41288   5.341   5.673   2.381 -0.0630 -0.1684 -0.6552
13396SOL    HW141289   5.297   5.624   2.311 -0.5754  1.3176 -1.4132
13396SOL    HW241290   5.366   5.606   2.444 -1.4287 -1.3205 -1.2702
13397SOL     OW41291   7.626   5.658   3.437 -0.5959  0.3174  0.2156
13397SOL    HW141292   7.609   5.569   3.467 -0.5537  0.4403  0.6020
13397SOL    HW241293   7.559   5.675   3.371 -0.6421  0.0232  0.1868
13398SOL     OW41294   9.087   6.941   7.975 -0.3145  0.1843  0.4346
13398SOL    HW141295   9.092   7.017   7.917 -0.3516 -0.2036 -0.0904
13398SOL    HW241296   9.005   6.898   7.952 -0.7401  0.4792  1.3631
13399SOL     OW41297   7.020   8.485   4.544  0.5276  0.5374  0.0291
13399SOL    HW141298   6.975   8.430   4.608  3.2779 -0.5375  1.1922
13399SOL    HW241299   6.967   8.565   4.540 -2.3698 -1.2203 -0.0369
13400SOL     OW41300   8.065   6.793   4.817 -0.5006  0.8375 -0.3360
13400SOL    HW141301   8.014   6.848   4.877  0.7619  0.1445  1.4512
13400SOL    HW241302   8.010   6.715   4.805 -0.7552  0.9717 -0.0702
13401SOL     OW41303   5.645   6.515   1.034  0.3204 -0.0218  0.4530
13401SOL    HW141304   5.599   6.532   0.952 -0.0284  1.8817  0.9824
13401SOL    HW241305   5.713   6.453   1.011 -1.2686 -1.4208 -0.7649
13402SOL     OW41306   8.659   5.765   2.709 -0.1231  0.4384  0.4050
13402SOL    HW141307   8.665   5.805   2.622 -0.8342 -0.4800 -0.0873
13402SOL    HW241308   8.739   5.713   2.717  0.0483  0.7006  0.3860
13403SOL     OW41309   5.462   1.858   3.136 -0.3752  0.1856  0.3667
13403SOL    HW141310   5.427   1.936   3.179 -1.7508 -0.4334  0.4336
13403SOL    HW241311   5.459   1.791   3.204  0.8685  0.0745  0.3317
13404SOL     OW41312   2.890   6.545   2.555  0.2677 -0.1884  0.4087
13404SOL    HW141313   2.897   6.510   2.466  1.8588  1.2352 -0.0926
13404SOL    HW241314   2.807   6.592   2.556  0.7864  0.8023 -0.7570
13405SOL     OW41315   1.425   3.101   4.291 -0.2084 -0.2134  0.0230
13405SOL    HW141316   1.367   3.171   4.263 -2.8049 -0.7874  3.2898
13405SOL    HW241317   1.386   3.021   4.255  0.8891 -0.2821 -1.0444
13406SOL     OW41318   8.975   2.430   8.969 -0.2885  0.4203 -0.2982
13406SOL    HW141319   8.900   2.397   8.919 -0.9274 -1.1129  1.5396
13406SOL    HW241320   9.052   2.407   8.917 -0.8422 -2.3263 -0.0561
13407SOL     OW41321   9.034   1.283   6.598  0.4348 -0.5035 -0.3176
13407SOL    HW141322   8.941   1.272   6.576 -0.3867  0.5101  2.2917
13407SOL    HW241323   9.066   1.194   6.614 -0.8471 -0.7024  1.3730
13408SOL     OW41324   6.995   5.992   5.856  0.1340  0.2458  0.1322
13408SOL    HW141325   6.991   6.087   5.862 -1.0800  0.1562  1.2784
13408SOL    HW241326   7.018   5.963   5.944  1.3572 -0.5153 -0.4026
13409SOL     OW41327   0.999   2.229   0.695 -0.3651 -0.2244  0.1182
13409SOL    HW141328   0.976   2.209   0.605  0.0094 -0.8011  0.1387
13409SOL    HW241329   1.092   2.204   0.702  0.4022  2.3078 -0.0502
13410SOL     OW41330   5.366   9.102   6.148  0.7716  0.2326 -0.4453
13410SOL    HW141331   5.364   9.174   6.211  2.1183  0.6752 -0.8584
13410SOL    HW241332   5.307   9.036   6.185  0.0537  1.2534  0.2976
13411SOL     OW41333   2.449   5.034   5.291  0.0067 -0.2886 -0.2859
13411SOL    HW141334   2.451   5.058   5.198 -1.8146 -1.5571 -0.7015
13411SOL    HW241335   2.453   5.118   5.337  0.0039  0.4270 -1.5280
13412SOL     OW41336   1.862   2.502   5.660 -0.6904 -0.1926 -0.1831
13412SOL    HW141337   1.827   2.587   5.635 -0.5833 -0.1188 -0.0793
13412SOL    HW241338   1.847   2.447   5.583 -1.7850 -0.3809  0.1451
13413SOL     OW41339   0.610   4.294   3.664 -0.0967  0.0697 -0.0333
13413SOL    HW141340   0.576   4.271   3.751 -1.0638  0.4097 -0.3047
13413SOL    HW241341   0.576   4.382   3.647 -3.8069 -1.5809 -2.5873
13414SOL     OW41342   0.692   2.066   0.281  0.4296  0.4009 -0.1007
13414SOL    HW141343   0.670   1.978   0.310 -0.3771 -0.2120 -2.3628
13414SOL    HW241344   0.617   2.094   0.228  1.6822  1.4677 -1.4156
13415SOL     OW41345   1.789   5.235   4.734 -0.4968  0.6407  0.4213
13415SOL    HW141346   1.874   5.237   4.778  0.1340  2.4626 -0.7327
13415SOL    HW241347   1.727   5.208   4.801  1.0779 -1.5076  1.0955
13416SOL     OW41348   0.631   8.603   8.670 -0.3554 -0.7076 -0.6074
13416SOL    HW141349   0.717   8.608   8.629 -0.3193  1.2015 -0.4316
13416SOL    HW241350   0.650   8.599   8.764 -0.4216  0.7808 -0.5061
13417SOL     OW41351   1.715   6.722   6.000  0.5462 -0.2427 -0.4989
13417SOL    HW141352   1.799   6.766   5.991  1.3504 -1.1930  1.5582
13417SOL    HW241353   1.671   6.768   6.071 -0.5863  0.0932 -1.3982
13418SOL     OW41354   8.461   4.463   0.955  0.0630  0.7055 -0.0874
13418SOL    HW141355   8.532   4.399   0.969  0.4071  1.3640  1.4823
13418SOL    HW241356   8.411   4.428   0.882  0.6716 -0.9820  0.2561
13419SOL     OW41357   1.337   3.846   8.248  0.1707  0.3607 -0.3096
13419SOL    HW141358   1.273   3.806   8.188  2.3187 -0.3476 -2.2971
13419SOL    HW241359   1.339   3.788   8.323 -1.0681  0.0708 -0.4742
13420SOL     OW41360   1.270   5.603   1.333 -0.3993 -0.3424  0.1308
13420SOL    HW141361   1.337   5.670   1.318  0.1971 -1.3141 -2.1514
13420SOL    HW241362   1.235   5.621   1.420  3.2652 -0.1448  1.7375
13421SOL     OW41363   5.142   9.131   6.931  0.0345  0.1198 -0.0661
13421SOL    HW141364   5.142   9.066   6.860  0.2857 -1.8822  1.6700
13421SOL    HW241365   5.050   9.135   6.959  0.1256  0.0397  0.2428
13422SOL     OW41366   2.193   3.255   1.847  0.2745 -0.2542 -0.4376
13422SOL    HW141367   2.132   3.326   1.828  1.5004  1.8400  2.6769
13422SOL    HW241368   2.165   3.220   1.931  0.1460 -3.1123 -1.5499
13423SOL     OW41369   2.541   2.371   3.478  0.1628 -0.4505 -0.3970
13423SOL    HW141370   2.528   2.284   3.440 -0.6284 -0.7266  0.4596
13423SOL    HW241371   2.453   2.405   3.490  0.3924 -0.2762  0.9359
13424SOL     OW41372   3.992   0.967   0.538  0.6828  0.1935 -0.0716
13424SOL    HW141373   3.909   0.929   0.568  1.1200 -1.8705 -1.2402
13424SOL    HW241374   3.990   1.057   0.570 -1.7832  0.0674  0.3705
13425SOL     OW41375   1.754   0.424   7.694 -0.3551  0.4599 -0.3697
13425SOL    HW141376   1.769   0.430   7.789 -1.3576 -2.1513  0.0590
13425SOL    HW241377   1.840   0.441   7.655  0.7261 -1.0288  1.1992
13426SOL     OW41378   3.575   6.475   5.939  0.1904  0.3952  0.1360
13426SOL    HW141379   3.605   6.534   6.008 -1.9081 -0.5318  1.9631
13426SOL    HW241380   3.490   6.510   5.912 -0.2413 -0.7357 -0.0443
13427SOL     OW41381   7.402   2.058   7.055 -0.6286  0.4042  0.2932
13427SOL    HW141382   7.495   2.037   7.059 -0.8402 -0.4758  1.1584
13427SOL    HW241383   7.363   2.004   7.124 -1.5664  1.9246  1.0020
13428SOL     OW41384   3.130   6.630   0.079  0.0085 -0.4741  0.0742
13428SOL    HW141385   3.210   6.585   0.053 -0.6725 -0.9960 -1.2094
13428SOL    HW241386   3.094   6.577   0.150  0.0928 -1.0087 -0.2800
13429SOL     OW41387   8.046   5.591   3.532  0.2823 -0.5304 -0.1632
13429SOL    HW141388   7.987   5.636   3.592 -1.5178 -1.1743 -1.3680
13429SOL    HW241389   8.031   5.498   3.548 -0.5739 -0.7326 -1.8360
13430SOL     OW41390   2.441   0.235   7.802 -0.4746 -0.0555  0.9358
13430SOL    HW141391   2.432   0.222   7.896  0.7096  0.4600  1.1323
13430SOL    HW241392   2.436   0.330   7.790 -1.5104 -0.1640  0.3649
13431SOL     OW41393   8.111   4.003   7.009  0.0909 -0.2352 -0.0176
13431SOL    HW141394   8.066   4.060   6.947  0.0653  0.2615  0.4453
13431SOL    HW241395   8.198   4.043   7.019  0.0602 -0.2557  0.3389
13432SOL     OW41396   7.633   0.165   7.890  0.0573  0.7403 -0.3661
13432SOL    HW141397   7.548   0.135   7.921 -0.4315  1.4840 -0.9211
13432SOL    HW241398   7.626   0.159   7.794  0.1570  1.9605 -0.4712
13433SOL     OW41399   6.785   8.034   6.599  0.2253  0.3540 -0.2669
13433SOL    HW141400   6.838   8.110   6.624  0.0337  1.6460 -3.3178
13433SOL    HW241401   6.705   8.042   6.651  0.2403  2.2484 -0.4782
13434SOL     OW41402   5.993   8.274   8.728 -0.1667 -0.0910 -0.0090
13434SOL    HW141403   6.018   8.184   8.707 -1.3043 -0.0711 -1.6219
13434SOL    HW241404   5.968   8.313   8.644 -3.1125  0.6369  1.0711
13435SOL     OW41405   4.636   4.675   1.618 -0.2321 -0.1822 -0.5843
13435SOL    HW141406   4.572   4.736   1.653  0.0633  0.4168 -1.0827
13435SOL    HW241407   4.687   4.647   1.695 -1.5540 -1.2588 -0.0605
13436SOL     OW41408   4.460   4.027   6.036  0.4103 -0.2579  0.0663
13436SOL    HW141409   4.495   4.076   5.961 -0.3338  0.5331  0.2132
13436SOL    HW241410   4.379   4.073   6.058  1.1261  0.1347  2.0016
13437SOL     OW41411   5.390   0.181   8.422 -0.2590 -0.0721  0.5574
13437SOL    HW141412   5.308   0.229   8.437 -0.1693  0.4582 -0.5143
13437SOL    HW241413   5.434   0.180   8.507 -0.1192  2.0263  0.5588
13438SOL     OW41414   4.430   5.998   7.893  0.5005 -0.1795 -0.7682
13438SOL    HW141415   4.443   6.032   7.982  0.7060 -4.4012  1.0677
13438SOL    HW241416   4.335   5.996   7.882  0.4504 -0.3480 -0.3207
13439SOL     OW41417   2.526   0.477   7.074  0.6716  0.0544 -0.1313
13439SOL    HW141418   2.443   0.461   7.028  1.4642 -0.8320 -1.3015
13439SOL    HW241419   2.501   0.480   7.167 -0.8968  1.4315 -0.5331
13440SOL     OW41420   4.341   7.420   0.307  0.1171  0.0857 -0.5217
13440SOL    HW141421   4.349   7.515   0.299 -0.1418  0.1596  0.0671
13440SOL    HW241422   4.389   7.386   0.232  0.7777  0.6626 -0.3708
13441SOL     OW41423   5.177   2.704   8.108  0.1111 -0.1368  0.7605
13441SOL    HW141424   5.161   2.794   8.082  0.0777 -0.4329 -0.2698
13441SOL    HW241425   5.270   2.690   8.090 -0.7754 -1.7583 -3.8716
13442SOL     OW41426   7.865   4.721   4.387 -0.3155 -0.1532 -0.4722
13442SOL    HW141427   7.791   4.660   4.382  0.4344 -1.2385  0.8985
13442SOL    HW241428   7.827   4.802   4.421 -0.9781 -0.4856 -0.4008
13443SOL     OW41429   5.377   2.721   8.389  0.6457  0.1560 -0.5150
13443SOL    HW141430   5.434   2.749   8.317  2.0555 -1.7395 -0.2074
13443SOL    HW241431   5.409   2.770   8.465  2.4782 -1.4780 -0.1689
13444SOL     OW41432   7.792   3.302   7.702 -0.2051  0.3274  0.5604
13444SOL    HW141433   7.864   3.339   7.652 -1.8668  0.7614 -1.6652
13444SOL    HW241434   7.767   3.223   7.654  1.0969 -1.9715  3.3715
13445SOL     OW41435   5.738   7.948   3.908  0.0095 -0.0951 -0.4940
13445SOL    HW141436   5.710   7.995   3.829  0.5544  0.0859 -0.5819
13445SOL    HW241437   5.659   7.905   3.939 -0.3811  0.4758 -0.6927
13446SOL     OW41438   6.093   8.890   8.025  0.6267  0.0393 -0.3526
13446SOL    HW141439   6.064   8.981   8.032 -0.1967 -0.2079 -0.4781
13446SOL    HW241440   6.022   8.846   7.978  1.5608 -0.4187 -1.3872
13447SOL     OW41441   4.336   5.363   3.145 -0.1437  1.1692  0.3765
13447SOL    HW141442   4.301   5.354   3.056  0.1556  2.8802  0.0399
13447SOL    HW241443   4.273   5.319   3.201  0.8558 -2.1294 -0.8455
13448SOL     OW41444   3.101   5.003   1.329 -0.2501 -0.3572  0.0482
13448SOL    HW141445   3.044   5.056   1.274  0.2191 -0.5672 -0.6541
13448SOL    HW241446   3.141   5.065   1.390 -0.7803 -0.1231  0.1576
13449SOL     OW41447   2.314   7.944   0.345  0.0214 -0.0796 -0.3499
13449SOL    HW141448   2.268   7.999   0.282  1.1431 -0.4117 -1.4990
13449SOL    HW241449   2.407   7.962   0.329  0.3479 -0.0401  1.3411
13450SOL     OW41450   7.582   7.299   0.661 -0.3396 -0.0235  0.5928
13450SOL    HW141451   7.551   7.209   0.655 -2.2804  0.6084  0.7145
13450SOL    HW241452   7.660   7.300   0.605  0.4198 -2.0302  1.4949
13451SOL     OW41453   1.501   3.071   5.191 -0.0963  0.1652  0.0524
13451SOL    HW141454   1.529   3.101   5.278  0.2746  1.1874 -0.4079
13451SOL    HW241455   1.410   3.100   5.184  0.4780  1.9136 -0.6806
13452SOL     OW41456   7.805   1.524   5.790 -0.6623  0.5506 -0.0138
13452SOL    HW141457   7.841   1.553   5.875 -0.8710 -0.8161  0.5573
13452SOL    HW241458   7.872   1.551   5.727 -1.7305  4.1241  0.1490
13453SOL     OW41459   7.565   0.331   1.962 -0.5145 -0.5764  0.3739
13453SOL    HW141460   7.642   0.315   1.908 -0.3079  0.6813  0.2794
13453SOL    HW241461   7.514   0.395   1.914 -0.8970 -0.2997  1.1296
13454SOL     OW41462   6.282   8.056   4.766 -0.2775  0.0654 -0.8067
13454SOL    HW141463   6.293   8.146   4.796 -1.5036 -0.6479  2.1300
13454SOL    HW241464   6.215   8.062   4.698 -2.0944  1.1960  0.9651
13455SOL     OW41465   6.733   0.360   3.413  0.3645 -0.0090 -0.4238
13455SOL    HW141466   6.700   0.326   3.496  0.1899  0.8205 -0.1523
13455SOL    HW241467   6.677   0.435   3.393  0.5727 -0.0398 -1.1601
13456SOL     OW41468   0.759   1.075   0.126 -0.3940  0.1253  0.6450
13456SOL    HW141469   0.720   1.080   0.213  0.8005  1.2971  1.1456
13456SOL    HW241470   0.776   1.166   0.102  0.3484 -0.2504 -0.3347
13457SOL     OW41471   3.581   5.194   5.622  0.1192 -0.3843 -0.1323
13457SOL    HW141472   3.658   5.142   5.599  0.0457 -1.4537  1.8346
13457SOL    HW241473   3.508   5.132   5.616 -0.4422  0.3141 -0.7895
13458SOL     OW41474   5.168   8.573   2.389 -0.3625  0.9302 -0.3548
13458SOL    HW141475   5.251   8.525   2.381 -0.2750  1.1090 -0.5435
13458SOL    HW241476   5.102   8.505   2.399 -0.5482  0.5975 -3.0644
13459SOL     OW41477   2.469   7.357   2.126 -0.2686  0.1141  0.1414
13459SOL    HW141478   2.543   7.346   2.186 -0.3702 -0.6805  0.1399
13459SOL    HW241479   2.418   7.428   2.163 -1.5315 -1.7697  2.2644
13460SOL     OW41480   8.696   6.365   7.392 -0.7802  0.4938 -0.6206
13460SOL    HW141481   8.765   6.333   7.332  0.3689 -0.7079  1.2322
13460SOL    HW241482   8.627   6.299   7.386 -1.7205  1.5521 -2.2628
13461SOL     OW41483   1.942   4.689   3.148 -0.2626  0.0865 -0.2975
13461SOL    HW141484   1.887   4.612   3.162 -0.9254  0.6376  0.2161
13461SOL    HW241485   1.953   4.726   3.236  0.8343  0.0499 -0.4141
13462SOL     OW41486   4.564   0.904   8.192  0.1833 -0.0524  0.2399
13462SOL    HW141487   4.634   0.943   8.244 -0.3146 -0.2821  1.0922
13462SOL    HW241488   4.505   0.977   8.173  0.1085 -0.0675  0.4173
13463SOL     OW41489   3.930   4.010   7.176  0.5123 -0.6944 -0.5891
13463SOL    HW141490   4.004   3.992   7.117  0.9175 -1.2729  0.0817
13463SOL    HW241491   3.855   3.968   7.134  1.3342 -3.7116  0.6806
13464SOL     OW41492   3.886   8.748   5.012  0.2483 -0.3226 -0.1679
13464SOL    HW141493   3.905   8.842   5.019 -0.7427 -0.1873  1.0931
13464SOL    HW241494   3.904   8.727   4.920  1.0863  0.9578 -0.3255
13465SOL     OW41495   6.979   8.696   3.631 -0.1183  0.8960 -0.7122
13465SOL    HW141496   6.947   8.775   3.587  0.2269  1.5544  0.1750
13465SOL    HW241497   7.074   8.706   3.631 -0.1256  1.3119  0.8283
13466SOL     OW41498   6.465   4.848   6.380 -0.3274 -0.2416  0.3467
13466SOL    HW141499   6.516   4.872   6.458 -1.7372 -0.8456  1.4991
13466SOL    HW241500   6.525   4.793   6.329  0.2119 -0.9272  1.6502
13467SOL     OW41501   3.480   5.971   7.147  0.6888  0.0724 -0.1663
13467SOL    HW141502   3.531   5.892   7.163  0.9952  0.5282  1.2291
13467SOL    HW241503   3.391   5.948   7.176  1.2973  0.9824  2.7753
13468SOL     OW41504   2.983   3.968   7.989 -0.0829  0.1091  0.2582
13468SOL    HW141505   3.041   4.028   8.036 -1.2533  0.3739  1.4269
13468SOL    HW241506   2.992   3.994   7.898  1.7592  0.0218  0.3637
13469SOL     OW41507   3.761   0.683   8.351  0.0698  0.2061  0.2627
13469SOL    HW141508   3.835   0.742   8.364 -0.3812  1.1652 -1.2759
13469SOL    HW241509   3.797   0.610   8.300 -0.0522  0.7724 -0.6658
13470SOL     OW41510   5.171   6.056   5.813 -0.0528 -0.2605  0.2327
13470SOL    HW141511   5.234   6.102   5.757 -1.2437 -0.2599 -1.1614
13470SOL    HW241512   5.177   6.101   5.898  0.5858  0.8419 -0.3754
13471SOL     OW41513   2.492   3.811   1.500 -0.2218  0.1198 -0.1371
13471SOL    HW141514   2.576   3.846   1.530 -0.7058  0.0086  1.4516
13471SOL    HW241515   2.427   3.851   1.558 -1.2981  0.2626 -1.3827
13472SOL     OW41516   4.385   8.340   6.043  0.4511  0.1994  0.0259
13472SOL    HW141517   4.315   8.339   6.108 -0.4692 -1.7219 -0.9168
13472SOL    HW241518   4.360   8.272   5.980  2.5790  0.2821 -0.9783
13473SOL     OW41519   5.208   1.090   2.477  0.5417 -0.0331 -0.5345
13473SOL    HW141520   5.172   1.031   2.411  0.0357 -1.8287  1.2546
13473SOL    HW241521   5.278   1.039   2.519  0.6591  0.9425  0.5075
13474SOL     OW41522   2.060   0.042   4.297  0.0148  0.5122  0.4653
13474SOL    HW141523   2.042   0.129   4.263  2.5038  0.6362 -0.7583
13474SOL    HW241524   2.048   0.050   4.392  0.0211  2.1086  0.3500
13475SOL     OW41525   7.114   2.011   8.290  0.1616 -0.1947  0.9990
13475SOL    HW141526   7.023   2.020   8.263  0.7381  2.9809 -0.3015
13475SOL    HW241527   7.118   1.925   8.333 -3.1258 -0.9508  0.0575
13476SOL     OW41528   2.161   4.141   0.983  0.2568  0.0526 -0.4486
13476SOL    HW141529   2.098   4.113   0.916 -1.9101  0.0703  1.4511
13476SOL    HW241530   2.107   4.161   1.059  2.4761  1.5770  0.8327
13477SOL     OW41531   7.014   0.949   6.553  0.2734 -0.2109 -0.0640
13477SOL    HW141532   7.095   0.979   6.513  0.3181  1.0028  0.8752
13477SOL    HW241533   7.037   0.866   6.594  1.0578  0.1383  0.2171
13478SOL     OW41534   7.308   5.362   7.768 -0.2258  0.2596 -0.4313
13478SOL    HW141535   7.399   5.335   7.751 -0.1608  0.6934 -0.8082
13478SOL    HW241536   7.299   5.356   7.863  0.0435 -0.2605 -0.4318
13479SOL     OW41537   9.107   6.897   6.742 -0.0202  0.2536 -0.0026
13479SOL    HW141538   9.012   6.882   6.745 -0.1075  0.6676 -0.6382
13479SOL    HW241539   9.128   6.901   6.649  0.7667 -0.6843  0.1159
13480SOL     OW41540   3.056   3.295   7.537 -0.1377 -0.3196 -0.7046
13480SOL    HW141541   3.140   3.257   7.563 -0.8842 -1.0376  0.7704
13480SOL    HW241542   3.070   3.323   7.446  1.9290  0.2961 -0.2566
13481SOL     OW41543   6.851   0.556   0.239  0.1196  0.2107  1.1986
13481SOL    HW141544   6.928   0.611   0.256 -0.3182  1.2426 -0.0116
13481SOL    HW241545   6.792   0.576   0.312 -0.5167  2.3252  0.2055
13482SOL     OW41546   7.720   3.252   2.093 -0.1450  0.2869 -0.0150
13482SOL    HW141547   7.708   3.223   2.184 -0.6104  0.9962  0.1638
13482SOL    HW241548   7.806   3.293   2.093  0.0797 -0.1817 -0.0225
13483SOL     OW41549   4.704   6.862   8.310  0.1336 -0.2504  0.5573
13483SOL    HW141550   4.623   6.820   8.281  0.9323 -0.9569 -0.7402
13483SOL    HW241551   4.749   6.795   8.360  0.7372 -0.4909 -0.2798
13484SOL     OW41552   2.230   2.356   4.013  0.0367 -0.0337  0.1017
13484SOL    HW141553   2.319   2.333   3.987 -0.4662  0.3785 -2.1498
13484SOL    HW241554   2.223   2.450   3.998 -0.2950  0.2731  1.8992
13485SOL     OW41555   6.473   5.755   1.546  0.1514  0.1054 -0.3090
13485SOL    HW141556   6.555   5.788   1.510 -0.4785  1.2101 -0.7908
13485SOL    HW241557   6.481   5.660   1.541  0.2401  0.1699 -3.1383
13486SOL     OW41558   7.343   6.730   3.915  0.5167  0.4055  0.3035
13486SOL    HW141559   7.255   6.724   3.952 -0.2654  0.6343 -1.4012
13486SOL    HW241560   7.373   6.639   3.910 -1.1262 -0.1175 -2.3526
13487SOL     OW41561   7.843   5.055   1.593 -0.0960  0.4033  0.2065
13487SOL    HW141562   7.923   5.098   1.623 -0.4715  1.3829 -0.1468
13487SOL    HW241563   7.823   4.991   1.660 -0.6269  2.1547  1.8065
13488SOL     OW41564   7.811   0.200   4.938  0.3207  0.0688 -0.3775
13488SOL    HW141565   7.834   0.161   5.022  2.6337  2.7204  0.3701
13488SOL    HW241566   7.734   0.254   4.956 -1.5926 -2.3012 -0.9515
13489SOL     OW41567   6.101   7.619   5.777  0.1660  0.2104 -0.2592
13489SOL    HW141568   6.017   7.574   5.788  0.2003  0.5779  1.9557
13489SOL    HW241569   6.078   7.712   5.772  0.4932  0.5338  2.6509
13490SOL     OW41570   1.712   1.566   0.461 -0.4766 -0.3043  0.4845
13490SOL    HW141571   1.672   1.611   0.387  0.7044  0.3330  0.1962
13490SOL    HW241572   1.755   1.490   0.422 -0.4356 -0.3472  0.6132
13491SOL     OW41573   5.156   7.153   3.285 -0.0073 -0.1489 -0.1685
13491SOL    HW141574   5.166   7.118   3.374 -1.2055  0.6287  0.2995
13491SOL    HW241575   5.114   7.238   3.298  0.1915  0.1645 -1.4626
13492SOL     OW41576   0.307   4.914   5.534 -0.0610  0.3404  0.1792
13492SOL    HW141577   0.278   4.963   5.610 -5.0647 -0.5031 -0.7933
13492SOL    HW241578   0.300   4.822   5.560 -1.2942  0.0535 -1.0277
13493SOL     OW41579   2.057   4.740   1.270 -0.2546 -0.0569  0.8911
13493SOL    HW141580   1.997   4.671   1.242 -3.1392  2.7140 -0.2944
13493SOL    HW241581   2.129   4.736   1.208 -2.4645  0.6196 -1.9150
13494SOL     OW41582   8.870   1.729   4.652  0.0856  0.1707  0.2870
13494SOL    HW141583   8.966   1.731   4.657  0.0340  0.8595  1.8503
13494SOL    HW241584   8.844   1.821   4.657 -0.6755 -0.0529  0.6402
13495SOL     OW41585   4.333   8.590   5.523 -0.4083 -0.6393 -0.1305
13495SOL    HW141586   4.335   8.683   5.545  1.8540 -0.5295 -0.4972
13495SOL    HW241587   4.300   8.547   5.602 -0.6702  0.4069  0.3391
13496SOL     OW41588   1.391   7.000   0.310  0.1637  0.1449  0.5429
13496SOL    HW141589   1.316   7.000   0.369  0.8440 -0.2249  1.4207
13496SOL    HW241590   1.355   7.026   0.225 -1.3787 -2.1988  0.4041
13497SOL     OW41591   3.463   3.466   5.046  0.5720 -1.2097  0.1559
13497SOL    HW141592   3.475   3.374   5.024 -0.2053 -1.6563  1.4940
13497SOL    HW241593   3.465   3.469   5.142 -0.0010  0.0723  0.1547
13498SOL     OW41594   8.807   3.053   0.672 -0.0037  0.3529  0.1664
13498SOL    HW141595   8.803   3.036   0.766  0.8346  1.8776  0.5070
13498SOL    HW241596   8.736   3.115   0.655  0.8679  1.3708  0.1213
13499SOL     OW41597   7.751   4.692   7.388  0.2197 -0.0404 -0.5219
13499SOL    HW141598   7.694   4.701   7.465  0.0646 -0.8149 -0.5362
13499SOL    HW241599   7.816   4.627   7.414 -0.3879 -1.0099 -1.3461
13500SOL     OW41600   8.961   5.805   4.095  0.3090  0.0823 -0.3687
13500SOL    HW141601   8.984   5.721   4.057  1.4583  0.1891  0.0498
13500SOL    HW241602   8.868   5.816   4.075 -0.4112 -2.2277  1.3027
13501SOL     OW41603   6.065   8.037   8.086 -0.0408  0.2108  0.1046
13501SOL    HW141604   6.114   8.112   8.052 -3.3311  2.0402 -0.9542
13501SOL    HW241605   6.014   8.072   8.159 -0.0074 -1.5826  1.0469
13502SOL     OW41606   0.916   1.912   0.888 -0.0833  0.0596 -0.6210
13502SOL    HW141607   0.898   2.005   0.878 -0.7038  0.0038 -0.0527
13502SOL    HW241608   0.983   1.893   0.821 -0.3093  0.7995 -1.0620
13503SOL     OW41609   9.118   7.544   8.456 -0.2016  0.0088  0.3603
13503SOL    HW141610   9.083   7.518   8.542 -0.4204 -0.4379  0.1343
13503SOL    HW241611   9.064   7.619   8.431 -1.5647 -1.1625 -0.3556
13504SOL     OW41612   5.637   8.810   4.496  0.0969  0.0582 -0.1929
13504SOL    HW141613   5.674   8.802   4.584  1.6257  0.1403 -0.7930
13504SOL    HW241614   5.552   8.852   4.509 -0.4904 -1.4996  1.3980
13505SOL     OW41615   5.304   1.857   7.648 -0.2423  0.3938  0.7621
13505SOL    HW141616   5.273   1.859   7.558 -0.5489 -0.0146  0.8562
13505SOL    HW241617   5.374   1.923   7.651 -1.5142  1.7856  0.7170
13506SOL     OW41618   3.912   3.607   0.734  0.1178 -0.8451  0.1214
13506SOL    HW141619   3.932   3.631   0.825 -1.6414  0.3157  0.2591
13506SOL    HW241620   3.986   3.639   0.683 -0.4253  1.6748  0.7801
13507SOL     OW41621   0.924   8.638   3.575  0.5497  0.8424 -0.3764
13507SOL    HW141622   0.869   8.715   3.571 -1.5540 -0.6268 -2.0860
13507SOL    HW241623   0.894   8.590   3.652  0.4431  0.7609 -0.4676
13508SOL     OW41624   3.397   6.052   5.709  0.4950 -0.1019 -0.3615
13508SOL    HW141625   3.310   6.026   5.739  0.3354  0.6013 -0.2081
13508SOL    HW241626   3.425   6.120   5.770 -0.2651  2.1225 -2.3596
13509SOL     OW41627   8.708   8.564   1.931 -0.0606  0.1049  0.6849
13509SOL    HW141628   8.728   8.470   1.931 -0.0905  0.0979  1.5003
13509SOL    HW241629   8.694   8.585   1.838 -0.5497 -0.8020  0.5430
13510SOL     OW41630   8.480   0.828   6.002  0.5559  1.1743 -0.0778
13510SOL    HW141631   8.491   0.881   5.923 -0.6205  0.4718 -0.7421
13510SOL    HW241632   8.423   0.756   5.975  0.5727  0.6192  1.2844
13511SOL     OW41633   8.784   5.116   3.702  0.3152  0.3642  0.1448
13511SOL    HW141634   8.749   5.194   3.660 -0.6734  0.1603  0.5705
13511SOL    HW241635   8.713   5.084   3.757  0.1357 -1.6965 -1.1728
13512SOL     OW41636   4.355   5.148   8.973  0.5990  0.3541  0.0713
13512SOL    HW141637   4.405   5.155   9.054  3.4869 -1.2993 -1.4291
13512SOL    HW241638   4.329   5.239   8.953  1.5433  1.0466  1.7898
13513SOL     OW41639   6.104   0.373   6.456  0.0355  0.2661  0.1146
13513SOL    HW141640   6.090   0.459   6.417 -1.4278  0.5695  1.2265
13513SOL    HW241641   6.046   0.371   6.532  0.1785 -1.6399  0.2221
13514SOL     OW41642   0.538   4.371   2.747  0.3289 -0.2572 -0.0813
13514SOL    HW141643   0.617   4.402   2.791  0.4775  1.1869 -1.2783
13514SOL    HW241644   0.506   4.299   2.802  1.1346  0.6972  1.7097
13515SOL     OW41645   3.821   3.468   3.810 -0.2477 -0.3553  0.1130
13515SOL    HW141646   3.762   3.482   3.884 -1.1440 -1.6775 -0.3197
13515SOL    HW241647   3.908   3.490   3.844 -0.7977  0.2631  1.1728
13516SOL     OW41648   0.052   4.011   6.269  0.8243 -0.3054 -0.0142
13516SOL    HW141649   0.043   4.099   6.306  2.5808  1.0948 -2.5523
13516SOL    HW241650   0.089   3.959   6.340  0.4640  1.1986  1.3391
13517SOL     OW41651   6.118   2.191   1.577 -0.5798 -0.0894 -0.2531
13517SOL    HW141652   6.179   2.263   1.592  0.2917 -0.9293  0.4645
13517SOL    HW241653   6.102   2.155   1.665 -0.5683 -1.0856 -0.6404
13518SOL     OW41654   4.021   0.059   1.000 -0.0494 -0.0294  0.1158
13518SOL    HW141655   4.084  -0.003   1.035  0.2613  0.8376  1.1520
13518SOL    HW241656   4.017   0.129   1.065  0.6963  1.7493 -1.6064
13519SOL     OW41657   5.465   5.235   2.140  0.3402 -0.2307  0.1641
13519SOL    HW141658   5.460   5.222   2.046 -2.1886 -1.9319  0.4362
13519SOL    HW241659   5.478   5.329   2.151 -2.1151  0.4597 -1.9029
13520SOL     OW41660   3.308   4.028   6.107 -0.4309  0.3909  0.2939
13520SOL    HW141661   3.377   4.072   6.057 -0.2899 -0.5480 -0.3612
13520SOL    HW241662   3.255   4.099   6.143  0.1973  1.1015 -0.1542
13521SOL     OW41663   1.043   6.502   7.402  0.2530 -0.5513 -0.0464
13521SOL    HW141664   1.068   6.500   7.495 -0.0668  0.0889  0.0636
13521SOL    HW241665   0.979   6.573   7.397  2.2529  1.2741 -1.2477
13522SOL     OW41666   8.007   4.991   7.540 -0.2421 -0.0088 -0.1148
13522SOL    HW141667   7.913   5.003   7.526  0.1260  0.2210 -3.0647
13522SOL    HW241668   8.044   4.986   7.451  2.3169 -1.9073  0.9238
13523SOL     OW41669   2.765   5.375   6.958  0.5449  0.4272  0.2221
13523SOL    HW141670   2.746   5.439   7.026 -0.7257  0.1613  0.1387
13523SOL    HW241671   2.811   5.304   7.003 -0.4831  0.1462  0.8761
13524SOL     OW41672   0.705   5.707   8.289  0.0156  0.3472 -0.4789
13524SOL    HW141673   0.619   5.696   8.330  0.8001 -1.1622  0.8543
13524SOL    HW241674   0.767   5.677   8.355  1.6919  2.4923 -0.9490
13525SOL     OW41675   7.310   2.592   1.879 -0.5232 -0.3997 -0.0683
13525SOL    HW141676   7.356   2.512   1.852  0.5573  0.6173 -1.4174
13525SOL    HW241677   7.282   2.575   1.969  2.1369 -1.2729  0.6813
13526SOL     OW41678   3.909   2.136   7.265  0.7115  0.2827  0.3231
13526SOL    HW141679   3.893   2.184   7.184  0.2551 -1.1625 -0.4576
13526SOL    HW241680   3.991   2.174   7.299 -0.6457  3.0345  0.8461
13527SOL     OW41681   1.347   4.771   0.196  0.1653 -0.1167  0.0434
13527SOL    HW141682   1.263   4.750   0.155  0.5627 -0.8285 -0.4189
13527SOL    HW241683   1.330   4.765   0.290 -0.1314 -0.9338 -0.0609
13528SOL     OW41684   2.979   5.667   4.750  0.1706  0.5740  0.5530
13528SOL    HW141685   2.946   5.598   4.692  0.3445  0.4009  0.6582
13528SOL    HW241686   2.978   5.627   4.837  0.1153  0.7594  0.6373
13529SOL     OW41687   1.147   3.112   8.221  0.2738  0.6497 -0.3569
13529SOL    HW141688   1.218   3.048   8.227 -0.2416 -0.3078 -3.1298
13529SOL    HW241689   1.072   3.068   8.261  0.3541  0.1955 -0.6953
13530SOL     OW41690   4.195   6.751   0.009  0.0051  0.3399  0.2741
13530SOL    HW141691   4.139   6.750  -0.068 -1.4818  4.0145  1.1440
13530SOL    HW241692   4.135   6.756   0.083  1.4270 -2.0854  1.7215
13531SOL     OW41693   4.895   6.859   3.103 -0.0678  0.1568  0.1449
13531SOL    HW141694   4.845   6.896   3.176 -0.7931  0.6904 -0.6008
13531SOL    HW241695   4.834   6.862   3.029  0.8279  0.1075 -0.6066
13532SOL     OW41696   7.810   4.999   7.310  0.4067 -0.0750  0.3874
13532SOL    HW141697   7.791   4.912   7.346 -1.1389  0.4143  0.8465
13532SOL    HW241698   7.859   4.982   7.230 -0.3197 -1.3978  0.1966
13533SOL     OW41699   6.612   6.758   2.973 -0.1612  0.0230 -0.0474
13533SOL    HW141700   6.614   6.829   3.037  0.4610  0.9863 -1.1002
13533SOL    HW241701   6.683   6.700   2.999  0.2107  0.5082  0.0408
13534SOL     OW41702   2.915   2.441   0.690 -0.1050 -0.6384 -0.2834
13534SOL    HW141703   2.851   2.480   0.630 -0.5433  0.0550  0.6083
13534SOL    HW241704   3.000   2.468   0.655 -0.3893  0.8079  0.0909
13535SOL     OW41705   4.826   9.122   7.448 -0.1667 -0.6180 -0.1951
13535SOL    HW141706   4.876   9.096   7.371 -1.2282 -0.9784 -0.7816
13535SOL    HW241707   4.795   9.210   7.428  0.8295 -0.0964  0.4810
13536SOL     OW41708   5.134   3.343   1.367 -0.0799  0.0298 -0.0157
13536SOL    HW141709   5.131   3.418   1.307 -0.7880 -0.3611 -0.4921
13536SOL    HW241710   5.089   3.374   1.446 -0.6940  0.0017 -0.3480
13537SOL     OW41711   8.502   6.504   4.245 -0.3246  0.0704 -0.4898
13537SOL    HW141712   8.483   6.410   4.241  3.4252 -0.8299 -0.7176
13537SOL    HW241713   8.517   6.522   4.338 -1.2291  0.5352 -0.4212
13538SOL     OW41714   3.643   4.278   1.545 -0.1283  0.3574 -0.1648
13538SOL    HW141715   3.603   4.202   1.587  0.7848 -0.6983 -1.1243
13538SOL    HW241716   3.602   4.353   1.587 -1.4519 -0.6591  0.4393
13539SOL     OW41717   6.775   2.587   7.868 -0.1403  0.4847 -0.3311
13539SOL    HW141718   6.681   2.603   7.855 -0.3099 -1.2705 -1.6377
13539SOL    HW241719   6.807   2.562   7.782  1.3396  0.0567  0.3166
13540SOL     OW41720   0.877   3.000   8.147  0.4902 -0.2487  0.5278
13540SOL    HW141721   0.830   2.998   8.063 -0.3437  0.2516  0.9729
13540SOL    HW241722   0.882   2.908   8.173 -1.6804 -0.2399  1.2322
13541SOL     OW41723   6.789   9.108   4.039 -0.0363 -0.4837  0.0911
13541SOL    HW141724   6.777   9.196   4.076  1.0340 -0.2379 -0.1104
13541SOL    HW241725   6.844   9.063   4.103  1.0343 -0.3652 -0.7218
13542SOL     OW41726   6.614   1.385   3.937  0.2902  0.2946 -0.4003
13542SOL    HW141727   6.610   1.396   3.842  1.2177  0.9701 -0.3703
13542SOL    HW241728   6.654   1.299   3.949  0.9247  0.5552 -0.6229
13543SOL     OW41729   0.349   1.370   1.861 -0.4297  0.3166  0.0306
13543SOL    HW141730   0.359   1.464   1.875 -2.0129  0.6132 -0.6347
13543SOL    HW241731   0.423   1.346   1.804 -1.0207  1.5222 -1.3008
13544SOL     OW41732   0.236   6.651   0.258  0.3930 -0.0984  0.1367
13544SOL    HW141733   0.199   6.614   0.338 -0.5102  2.9839  1.3158
13544SOL    HW241734   0.161   6.662   0.200  0.3722  1.0208  0.3465
13545SOL     OW41735   3.758   5.194   3.980 -0.1324  0.3774  0.1855
13545SOL    HW141736   3.673   5.182   3.937  1.3205 -3.6780 -2.0832
13545SOL    HW241737   3.757   5.131   4.052  0.8404  0.4538  0.2721
13546SOL     OW41738   6.000   3.254   2.020 -0.3979  0.8448 -0.2552
13546SOL    HW141739   6.068   3.277   1.957 -0.9412  0.8909 -0.8354
13546SOL    HW241740   6.027   3.297   2.101 -0.2645  1.7201 -0.7502
13547SOL     OW41741   6.755   8.289   2.114 -0.3355 -0.5207  0.5847
13547SOL    HW141742   6.819   8.225   2.142 -0.5469  0.1788  2.9384
13547SOL    HW241743   6.790   8.373   2.145 -1.2802  0.1576 -0.1267
13548SOL     OW41744   0.332   5.918   8.376 -0.1350  0.1994 -0.5184
13548SOL    HW141745   0.247   5.888   8.409 -0.0291  0.4657  0.0100
13548SOL    HW241746   0.356   5.855   8.309 -0.0663 -0.7160  0.3529
13549SOL     OW41747   3.654   2.829   8.002  0.5455 -0.2877 -0.1930
13549SOL    HW141748   3.719   2.860   7.939  0.3577 -0.1808 -0.3357
13549SOL    HW241749   3.580   2.801   7.949 -0.7651  2.3769  0.0236
13550SOL     OW41750   1.936   7.869   6.904 -0.0017  0.4475  0.0078
13550SOL    HW141751   1.858   7.848   6.852  0.1869  1.6707 -0.8286
13550SOL    HW241752   1.985   7.930   6.849  1.9515 -0.8721  0.1736
13551SOL     OW41753   3.385   9.120   3.456  0.2958  0.0681  0.2144
13551SOL    HW141754   3.447   9.152   3.389 -2.0418  0.8871 -1.7081
13551SOL    HW241755   3.382   9.026   3.442 -0.2450  0.2420 -0.9724
13552SOL     OW41756   8.935   8.678   4.751  0.0523 -0.2220 -0.3610
13552SOL    HW141757   8.996   8.676   4.678  1.9322 -0.1069  1.1045
13552SOL    HW241758   8.991   8.669   4.829 -1.6626  1.2365  1.1386
13553SOL     OW41759   0.108   4.735   4.010 -0.0585 -0.7968 -0.1255
13553SOL    HW141760   0.039   4.701   3.954 -0.7980  1.4644 -0.7056
13553SOL    HW241761   0.079   4.715   4.099 -0.6307 -1.3380 -0.4300
13554SOL     OW41762   0.705   3.865   2.435  0.2899  0.3243 -0.5371
13554SOL    HW141763   0.697   3.903   2.347  1.6447 -0.3398 -0.9771
13554SOL    HW241764   0.672   3.933   2.493 -0.2791  0.9285 -1.5343
13555SOL     OW41765   3.720   6.713   4.240  0.8833 -0.2235 -0.3232
13555SOL    HW141766   3.630   6.707   4.210  0.8343  2.5481 -0.9819
13555SOL    HW241767   3.738   6.806   4.244  3.6899 -0.6888 -0.0460
13556SOL     OW41768   4.859   8.565   2.605 -0.0334  0.6087  0.3780
13556SOL    HW141769   4.841   8.611   2.686  0.4572  0.1451  0.7549
13556SOL    HW241770   4.937   8.512   2.623 -0.3788 -0.1029 -0.1515
13557SOL     OW41771   6.467   4.321   8.763  0.0091  0.0453  0.3934
13557SOL    HW141772   6.516   4.271   8.697 -1.9789 -1.5841  0.0345
13557SOL    HW241773   6.425   4.254   8.817 -0.1014  1.3662  2.0308
13558SOL     OW41774   6.115   4.493   1.956  0.7222  0.3752  0.2256
13558SOL    HW141775   6.026   4.522   1.933  0.6711  0.3337  0.3674
13558SOL    HW241776   6.169   4.520   1.882  0.2935 -1.1430 -0.6878
13559SOL     OW41777   1.224   8.243   1.857  0.1228 -0.2068 -0.2727
13559SOL    HW141778   1.299   8.240   1.797  2.0117 -1.2342  1.9952
13559SOL    HW241779   1.162   8.180   1.820  0.6620  0.0947 -1.7772
13560SOL     OW41780   0.060   2.094   5.053 -0.2705 -0.7077 -0.4171
13560SOL    HW141781   0.152   2.107   5.075 -0.1546  1.4808 -1.9088
13560SOL    HW241782   0.014   2.098   5.137  0.8683 -0.7501  0.2293
13561SOL     OW41783   4.654   3.688   6.008  0.1443 -0.0184  0.3144
13561SOL    HW141784   4.743   3.707   5.979  0.0960  0.4569  0.4703
13561SOL    HW241785   4.665   3.649   6.095  0.1791  0.4331  0.5149
13562SOL     OW41786   4.280   4.435   7.258  0.0724  0.3563 -0.3916
13562SOL    HW141787   4.336   4.360   7.274  0.2164  0.6650  0.5919
13562SOL    HW241788   4.261   4.431   7.164  1.1184 -0.1823 -0.5994
13563SOL     OW41789   1.439   8.729   5.083 -0.0919  0.5327  0.4639
13563SOL    HW141790   1.383   8.749   5.159 -0.3466  0.6408  0.2480
13563SOL    HW241791   1.388   8.666   5.032  0.3702 -0.0755  0.7299
13564SOL     OW41792   5.937   2.979   2.032  0.3504  0.3468  0.5373
13564SOL    HW141793   5.980   2.945   2.111  1.7188  1.1104  0.1623
13564SOL    HW241794   5.955   3.073   2.034  1.0750  0.2746 -1.0636
13565SOL     OW41795   8.025   7.212   7.053 -0.0549  0.4894 -0.1892
13565SOL    HW141796   8.013   7.120   7.078  1.8665  0.3814  0.5076
13565SOL    HW241797   7.974   7.222   6.973  0.2522 -1.3646 -0.6567
13566SOL     OW41798   1.159   6.558   5.468  0.0282  0.2705 -0.1511
13566SOL    HW141799   1.173   6.567   5.562  1.5970  0.4530 -0.3702
13566SOL    HW241800   1.157   6.648   5.435  1.4452  0.2122 -0.5046
13567SOL     OW41801   1.864   0.583   1.852  0.5101 -0.2333  0.0614
13567SOL    HW141802   1.779   0.579   1.897 -0.1239 -0.5260 -1.1271
13567SOL    HW241803   1.866   0.670   1.812  1.1564  0.0986  0.7757
13568SOL     OW41804   0.342   2.605   5.083 -0.1657 -0.2799  0.0600
13568SOL    HW141805   0.373   2.637   5.168  1.3604 -1.0186 -0.1859
13568SOL    HW241806   0.279   2.671   5.054  0.8876  1.0993  0.7902
13569SOL     OW41807   8.138   4.876   6.401 -0.2758  0.5577 -0.1781
13569SOL    HW141808   8.133   4.937   6.474 -1.9917  0.3474 -0.0745
13569SOL    HW241809   8.154   4.931   6.325  1.1384  0.8185  0.2891
13570SOL     OW41810   7.830   7.513   6.111  0.0159  0.5919 -0.1524
13570SOL    HW141811   7.910   7.532   6.159  0.6950 -0.1253 -0.9421
13570SOL    HW241812   7.852   7.533   6.020 -1.4084  2.4499 -0.1453
13571SOL     OW41813   8.699   8.630   7.386 -0.0980 -0.0348  0.6259
13571SOL    HW141814   8.624   8.577   7.411 -0.3785  0.8679  1.7609
13571SOL    HW241815   8.764   8.612   7.454 -0.2287  1.1245  1.0723
13572SOL     OW41816   1.495   7.160   1.030  0.4900 -0.1707  0.1460
13572SOL    HW141817   1.505   7.209   1.112 -0.2851  1.3140 -0.6103
13572SOL    HW241818   1.526   7.220   0.962  2.1413 -1.7744 -0.5921
13573SOL     OW41819   8.803   6.117   2.883 -0.0113 -0.6375 -0.2269
13573SOL    HW141820   8.898   6.118   2.892  0.2264  3.3979 -1.0919
13573SOL    HW241821   8.788   6.103   2.789 -0.2288 -0.7830 -0.1701
13574SOL     OW41822   4.779   6.510   8.247  0.4194 -0.2988  1.1462
13574SOL    HW141823   4.762   6.564   8.170  0.8379  0.5574  1.6466
13574SOL    HW241824   4.840   6.443   8.217 -0.3569 -0.7204  0.4412
13575SOL     OW41825   1.112   0.310   3.239  0.5346  0.2420 -0.3257
13575SOL    HW141826   1.030   0.348   3.206 -0.4459 -0.8383  0.7360
13575SOL    HW241827   1.135   0.243   3.174 -1.2359 -1.6839  0.9034
13576SOL     OW41828   2.833   2.371   1.332  0.5780  0.9634  0.6601
13576SOL    HW141829   2.859   2.279   1.335  0.5267  0.9389  0.4110
13576SOL    HW241830   2.741   2.372   1.355  0.4222  0.8812  0.0720
13577SOL     OW41831   4.480   5.680   5.731 -0.2515 -0.4900  0.1911
13577SOL    HW141832   4.519   5.596   5.756 -0.0562 -0.5972 -0.4480
13577SOL    HW241833   4.390   5.675   5.763 -0.1889 -0.8662  0.3229
13578SOL     OW41834   0.724   1.879   7.118 -0.0927 -0.1382 -0.0735
13578SOL    HW141835   0.638   1.838   7.128 -0.0398  0.1232  2.1642
13578SOL    HW241836   0.770   1.856   7.199  1.6690  0.3883 -0.8835
13579SOL     OW41837   4.380   6.843   1.067 -0.1613  0.1513  0.0187
13579SOL    HW141838   4.382   6.782   1.140  0.2683 -0.5209 -0.5470
13579SOL    HW241839   4.424   6.797   0.996  4.4519  2.7097  0.8179
13580SOL     OW41840   2.935   5.556   6.292 -0.0563 -0.2887  1.3914
13580SOL    HW141841   2.860   5.549   6.233  0.9526 -0.1025  0.0104
13580SOL    HW241842   2.936   5.648   6.319  0.3968  0.0325  0.3503
13581SOL     OW41843   1.544   0.778   6.043  0.0993 -0.2469 -0.3017
13581SOL    HW141844   1.533   0.855   6.100  0.0827 -1.1087  0.9100
13581SOL    HW241845   1.633   0.747   6.062  0.0551 -0.6123 -0.6788
13582SOL     OW41846   8.060   1.030   1.402  0.8031  0.3539 -0.1510
13582SOL    HW141847   8.110   1.095   1.353 -0.3278  1.9308  0.7051
13582SOL    HW241848   8.120   0.996   1.468  0.7911  2.2467  0.8885
13583SOL     OW41849   8.183   3.699   8.622 -0.1008 -0.3366  0.0566
13583SOL    HW141850   8.199   3.739   8.537  0.2878 -2.0336 -0.7084
13583SOL    HW241851   8.248   3.738   8.680 -1.7649  2.5142  0.2124
13584SOL     OW41852   4.205   2.640   2.778  0.3498  0.1494 -0.5679
13584SOL    HW141853   4.178   2.553   2.747  0.8949  0.5816 -2.3833
13584SOL    HW241854   4.251   2.622   2.860 -2.2349 -0.9354  0.7598
13585SOL     OW41855   2.786   4.197   4.410 -0.0078 -0.0667 -0.0922
13585SOL    HW141856   2.698   4.180   4.443 -0.1381  0.6729 -0.0400
13585SOL    HW241857   2.837   4.223   4.487  0.1472 -0.0686 -0.1928
13586SOL     OW41858   1.265   1.032   3.711 -0.1520 -0.3884 -0.4476
13586SOL    HW141859   1.192   1.088   3.684  0.7050  0.0793 -1.9439
13586SOL    HW241860   1.331   1.093   3.745 -0.1882 -0.7351  0.2475
13587SOL     OW41861   7.349   7.780   1.468 -0.3516 -0.3894 -0.0688
13587SOL    HW141862   7.422   7.730   1.432 -1.2763 -1.3483 -0.6716
13587SOL    HW241863   7.381   7.813   1.552  0.6262 -1.1326 -0.1415
13588SOL     OW41864   0.155   5.346   2.904  0.3155  0.1917 -0.4179
13588SOL    HW141865   0.246   5.316   2.910  0.0472 -0.4076  1.1175
13588SOL    HW241866   0.113   5.310   2.982 -0.9989  1.3117 -0.5780
13589SOL     OW41867   5.696   5.305   8.689 -0.9753  0.4274 -0.0235
13589SOL    HW141868   5.713   5.360   8.612  0.2075  0.1185 -0.0131
13589SOL    HW241869   5.715   5.216   8.659  1.7951  0.5174  1.1891
13590SOL     OW41870   8.720   4.214   8.567  0.0086 -0.1904  0.1184
13590SOL    HW141871   8.635   4.218   8.610 -0.6962  1.5466 -1.3469
13590SOL    HW241872   8.782   4.241   8.635 -0.9232  1.2187  0.4413
13591SOL     OW41873   6.878   8.431   7.288  0.5712 -0.7807  0.2892
13591SOL    HW141874   6.864   8.439   7.382  0.4335  0.3977  0.1819
13591SOL    HW241875   6.921   8.512   7.262 -1.1038 -0.2206 -0.9594
13592SOL     OW41876   7.005   2.835   0.144  0.2197 -0.0985 -0.3740
13592SOL    HW141877   6.911   2.847   0.162  0.0794 -0.6679 -0.6832
13592SOL    HW241878   7.024   2.747   0.179  0.5719 -0.1025 -0.5751
13593SOL     OW41879   4.244   5.449   1.425 -0.1793 -0.3037  0.1353
13593SOL    HW141880   4.339   5.436   1.418  0.0661  1.8108 -1.1489
13593SOL    HW241881   4.212   5.450   1.335 -1.7167 -2.5083  0.5823
13594SOL     OW41882   7.601   3.828   3.349 -0.0863 -0.0020  0.2943
13594SOL    HW141883   7.516   3.815   3.392 -0.5725  0.1779 -0.5910
13594SOL    HW241884   7.662   3.844   3.421 -0.8986  0.3766  0.9145
13595SOL     OW41885   7.646   5.506   8.315  0.1103 -0.4510  0.0209
13595SOL    HW141886   7.611   5.545   8.395 -2.7643 -1.1333 -0.8087
13595SOL    HW241887   7.678   5.581   8.265  1.5475  0.0257  1.5542
13596SOL     OW41888   5.089   6.748   8.925  0.6549 -0.3680  0.0041
13596SOL    HW141889   5.113   6.656   8.927  0.7858 -0.3345 -0.0269
13596SOL    HW241890   5.073   6.767   8.832 -0.1034 -0.5465  0.0925
13597SOL     OW41891   2.325   2.179   5.736 -0.1718  0.5741 -0.4777
13597SOL    HW141892   2.308   2.273   5.728  2.3213  1.2132  0.7639
13597SOL    HW241893   2.367   2.169   5.821 -1.1432 -1.8451 -0.1851
13598SOL     OW41894   6.826   8.229   0.090  0.0944 -0.0991 -0.1109
13598SOL    HW141895   6.843   8.306   0.144 -0.8846 -1.0069  1.5719
13598SOL    HW241896   6.825   8.156   0.151 -1.1029 -1.1732 -1.3340
13599SOL     OW41897   1.069   6.724   8.957  0.2927 -0.0748 -0.5826
13599SOL    HW141898   0.994   6.769   8.996 -0.0208  0.9074 -2.2270
13599SOL    HW241899   1.064   6.634   8.992 -1.6117 -0.0206 -0.6034
13600SOL     OW41900   7.946   1.387   1.605  0.0502 -0.2174  0.2131
13600SOL    HW141901   8.028   1.435   1.604 -0.2158  0.2432 -0.2674
13600SOL    HW241902   7.917   1.387   1.514  0.0913 -1.3888  0.1875
13601SOL     OW41903   1.664   0.997   1.539 -0.2751  0.1630 -0.1019
13601SOL    HW141904   1.596   0.930   1.538  0.6641 -0.8347  0.9669
13601SOL    HW241905   1.736   0.959   1.589  1.1083  1.1640 -1.2184
13602SOL     OW41906   7.772   3.109   3.644  0.0950 -0.2222 -0.1059
13602SOL    HW141907   7.813   3.109   3.558  0.3685  1.4885  0.0058
13602SOL    HW241908   7.842   3.131   3.705 -0.0120 -1.7504  0.6447
13603SOL     OW41909   4.780   4.938   7.666  0.8424  0.2471 -0.3171
13603SOL    HW141910   4.807   5.019   7.710  1.6035  0.0768 -0.4593
13603SOL    HW241911   4.687   4.931   7.685  0.7252  1.2551 -0.4504
13604SOL     OW41912   2.191   0.743   5.041 -0.1853 -0.0052  0.5336
13604SOL    HW141913   2.164   0.706   4.957  1.4732  0.6095 -0.3241
13604SOL    HW241914   2.194   0.668   5.100 -0.5499 -0.5925 -0.1684
13605SOL     OW41915   1.600   1.701   2.451  0.3797 -0.1913 -0.3445
13605SOL    HW141916   1.630   1.754   2.525 -0.1292 -0.2190 -0.1208
13605SOL    HW241917   1.564   1.764   2.389 -1.5171 -0.3594  0.5151
13606SOL     OW41918   0.892   2.346   1.352  0.3516 -0.3849  0.2424
13606SOL    HW141919   0.802   2.325   1.326  0.6856 -2.2480  0.4564
13606SOL    HW241920   0.940   2.350   1.270 -0.3117  3.2993 -0.1782
13607SOL     OW41921   0.137   1.509   8.728 -0.0162  0.9348 -0.4268
13607SOL    HW141922   0.048   1.486   8.703  0.1680  0.5152 -0.7017
13607SOL    HW241923   0.127   1.563   8.806 -0.5506  1.5042 -0.8789
13608SOL     OW41924   1.207   7.291   1.328 -0.3521  0.1621 -0.4806
13608SOL    HW141925   1.246   7.223   1.383 -1.6599  0.4754  0.9134
13608SOL    HW241926   1.243   7.276   1.241  0.9121 -1.0695  0.2217
13609SOL     OW41927   5.650   9.076   2.272  0.0948  0.1294  0.0052
13609SOL    HW141928   5.696   9.010   2.219 -2.0257 -1.3592 -0.0866
13609SOL    HW241929   5.558   9.053   2.264 -0.6132  2.4141  0.9985
13610SOL     OW41930   5.836   4.862   7.519  0.4457  0.1003  0.1371
13610SOL    HW141931   5.926   4.862   7.487  0.1179 -0.4737 -0.8214
13610SOL    HW241932   5.809   4.771   7.516  0.3072  0.0589  1.8604
13611SOL     OW41933   4.266   6.667   3.248 -0.3976  0.1754  0.4135
13611SOL    HW141934   4.285   6.750   3.205 -0.4275  0.2327  0.5121
13611SOL    HW241935   4.177   6.676   3.281 -0.5560 -0.0512  0.0557
13612SOL     OW41936   6.473   5.924   1.788 -0.1292 -0.2075 -0.0942
13612SOL    HW141937   6.563   5.956   1.797 -0.1098 -0.6412  1.5880
13612SOL    HW241938   6.473   5.875   1.706  0.8525  0.7963 -0.7167
13613SOL     OW41939   0.947   5.046   8.820 -0.1112  0.1588 -0.7927
13613SOL    HW141940   1.042   5.042   8.808  0.0521  1.8350 -0.3264
13613SOL    HW241941   0.911   5.027   8.734  0.7031  0.9496 -1.3270
13614SOL     OW41942   2.872   4.833   7.992 -0.3317 -0.0744 -0.4749
13614SOL    HW141943   2.808   4.850   8.062  1.3260 -1.6641  1.5419
13614SOL    HW241944   2.852   4.745   7.962  0.0994 -0.0812 -0.7490
13615SOL     OW41945   2.725   3.913   1.614  0.1044  0.3050  0.2577
13615SOL    HW141946   2.793   3.968   1.654 -0.8252  2.3832 -0.8783
13615SOL    HW241947   2.768   3.874   1.538  1.1957 -1.8046  1.8632
13616SOL     OW41948   5.215   6.030   6.552 -0.1658 -0.1241  0.3208
13616SOL    HW141949   5.278   6.096   6.582  0.3625 -1.0893  1.4019
13616SOL    HW241950   5.259   5.987   6.479 -0.0984  0.0506  0.2578
13617SOL     OW41951   3.753   3.872   4.135  0.0860  0.6656 -0.2910
13617SOL    HW141952   3.792   3.789   4.163  0.9354 -0.1301 -3.4706
13617SOL    HW241953   3.784   3.936   4.200 -1.6367 -1.5677  2.9941
13618SOL     OW41954   1.590   3.793   2.615 -0.1189  0.6840  0.1732
13618SOL    HW141955   1.577   3.723   2.550 -1.6417 -1.1811  2.3364
13618SOL    HW241956   1.683   3.815   2.607  0.0774 -0.5299 -1.6031
13619SOL     OW41957   4.755   6.243   8.923  0.2080 -0.2158  0.4304
13619SOL    HW141958   4.661   6.249   8.906  0.5684  0.2251 -1.5670
13619SOL    HW241959   4.768   6.151   8.947 -0.5131 -0.6777 -0.8396
13620SOL     OW41960   0.858   2.168   1.998 -0.1976  0.7744 -0.2326
13620SOL    HW141961   0.882   2.076   1.995  1.3124  1.1098  0.6200
13620SOL    HW241962   0.811   2.183   1.916  2.0405 -0.0992 -1.7808
13621SOL     OW41963   3.016   0.256   5.032  0.2280 -0.0930  0.5134
13621SOL    HW141964   3.033   0.314   5.106 -0.8668  1.8228 -0.6540
13621SOL    HW241965   3.074   0.287   4.963  0.4492 -1.1456  0.2094
13622SOL     OW41966   4.239   6.332   8.961 -0.3913 -0.1745 -0.1022
13622SOL    HW141967   4.166   6.387   8.933 -0.7806 -0.2521  0.7300
13622SOL    HW241968   4.238   6.257   8.900 -1.2227 -0.3495  0.1198
13623SOL     OW41969   6.323   7.267   2.930  0.3207 -0.0125 -0.0186
13623SOL    HW141970   6.404   7.219   2.949  0.5247  1.2654  2.8374
13623SOL    HW241971   6.344   7.358   2.951 -1.2365  0.7278 -1.4368
13624SOL     OW41972   3.191   6.131   3.393  0.2443 -0.0134  0.2894
13624SOL    HW141973   3.244   6.061   3.431  0.1119 -0.3900 -0.2094
13624SOL    HW241974   3.254   6.200   3.372  0.6416 -0.6892 -0.8433
13625SOL     OW41975   1.287   1.117   0.759 -0.0956  0.0434 -0.0518
13625SOL    HW141976   1.262   1.194   0.709  1.2272 -0.1291 -1.0070
13625SOL    HW241977   1.380   1.128   0.775 -0.1598 -0.7270  0.9509
13626SOL     OW41978   2.041   1.747   4.778 -0.4857 -0.0098  0.1371
13626SOL    HW141979   1.975   1.678   4.774  0.6743 -1.2630  1.5030
13626SOL    HW241980   2.109   1.712   4.835  1.8768  0.7945 -1.9927
13627SOL     OW41981   6.786   6.261   2.402  0.4696  0.4414  0.7077
13627SOL    HW141982   6.806   6.352   2.424  1.9396  0.6223 -1.0931
13627SOL    HW241983   6.870   6.216   2.413  1.4764  0.5958 -4.2253
13628SOL     OW41984   0.335   5.001   6.895 -0.2350 -0.3497  0.1695
13628SOL    HW141985   0.324   5.018   6.801 -0.4048  0.8389  0.3956
13628SOL    HW241986   0.253   5.029   6.934 -0.0153 -0.4775  0.7240
13629SOL     OW41987   0.229   1.847   4.565  0.0851 -0.5174 -0.1023
13629SOL    HW141988   0.156   1.855   4.503  0.7041  2.4729 -0.6227
13629SOL    HW241989   0.297   1.904   4.530  2.3129 -2.3597  0.9430
13630SOL     OW41990   8.784   1.139   4.675  0.7278  0.5943 -0.1067
13630SOL    HW141991   8.868   1.106   4.643  0.6471  2.1423 -2.1128
13630SOL    HW241992   8.725   1.065   4.669  2.0200 -0.6965  1.9016
13631SOL     OW41993   5.833   4.792   8.612 -0.0753 -0.0269 -0.1361
13631SOL    HW141994   5.875   4.762   8.693  0.3066 -0.3094 -0.4328
13631SOL    HW241995   5.898   4.847   8.570 -0.4325  0.4696 -0.0495
13632SOL     OW41996   8.033   1.985   8.777  0.2711  0.0276 -0.1343
13632SOL    HW141997   7.953   1.960   8.731 -0.0145  1.3282 -0.3981
13632SOL    HW241998   8.009   2.065   8.824  1.3062  0.2147  0.0920
13633SOL     OW41999   5.720   2.835   7.312 -0.6396  0.0097  0.6546
13633SOL    HW142000   5.641   2.887   7.326 -0.5345  0.5097 -0.5296
13633SOL    HW242001   5.715   2.808   7.220  0.9892  0.7553  0.3257
13634SOL     OW42002   0.064   1.519   0.854  0.3793  0.1293 -0.0036
13634SOL    HW142003   0.055   1.425   0.872 -0.7481 -0.1017 -1.5722
13634SOL    HW242004   0.002   1.561   0.913 -1.0313 -0.3579 -1.0857
13635SOL     OW42005   1.928   2.573   2.178  0.2913  0.2179  0.1162
13635SOL    HW142006   2.007   2.625   2.167 -0.0372  0.8257  0.5728
13635SOL    HW242007   1.920   2.525   2.095 -0.0032  1.7409 -0.7805
13636SOL     OW42008   6.252   2.310   4.570 -0.4231 -0.4805 -0.1539
13636SOL    HW142009   6.319   2.349   4.627 -0.2312  0.0129 -0.7091
13636SOL    HW242010   6.199   2.384   4.542 -0.2575 -0.6628 -0.9558
13637SOL     OW42011   1.427   0.172   6.084  0.1861  0.3000  0.4247
13637SOL    HW142012   1.478   0.240   6.128  0.0815 -0.2457  1.4454
13637SOL    HW242013   1.473   0.091   6.106 -0.9861 -0.1893  1.2114
13638SOL     OW42014   8.596   3.761   0.489 -0.0956 -0.2468  0.2344
13638SOL    HW142015   8.504   3.764   0.516  0.1644 -0.7066  1.2324
13638SOL    HW242016   8.631   3.846   0.514 -0.4681  0.2961 -1.0290
13639SOL     OW42017   7.395   8.757   1.585 -0.5554  0.5595  1.0320
13639SOL    HW142018   7.385   8.690   1.516 -3.0749  0.8556  1.0264
13639SOL    HW242019   7.414   8.837   1.537 -1.3744  0.5854  0.7446
13640SOL     OW42020   6.613   4.499   4.640  0.0750 -0.4530  0.0938
13640SOL    HW142021   6.533   4.516   4.590  0.1333 -1.9802 -0.5746
13640SOL    HW242022   6.585   4.506   4.732 -0.5881  0.0480 -0.1353
13641SOL     OW42023   0.905   7.330   0.324 -0.4880 -0.2656 -0.0848
13641SOL    HW142024   0.832   7.275   0.351  0.7723 -1.3612  1.2391
13641SOL    HW242025   0.941   7.364   0.406  0.2463  0.6065 -0.7437
13642SOL     OW42026   2.370   5.087   0.772  0.2338  0.0711  0.2703
13642SOL    HW142027   2.451   5.124   0.737 -0.0583  1.6546  1.2188
13642SOL    HW242028   2.399   5.010   0.821  0.9227 -0.5951 -1.0956
13643SOL     OW42029   5.054   3.728   9.020 -1.0250  0.0858 -0.0464
13643SOL    HW142030   5.100   3.720   9.103  1.0021  2.6462 -0.7880
13643SOL    HW242031   5.073   3.647   8.973  2.3186  0.7677 -0.0610
13644SOL     OW42032   2.535   3.314   6.847  0.0799  0.9199  0.3366
13644SOL    HW142033   2.473   3.269   6.904 -1.4081  1.9722 -0.3755
13644SOL    HW242034   2.583   3.244   6.803 -0.1753  0.0878  1.3607
13645SOL     OW42035   3.744   3.860   1.530  0.1387  0.0729 -0.2820
13645SOL    HW142036   3.802   3.792   1.565  2.0163  1.4902 -0.4861
13645SOL    HW242037   3.784   3.885   1.446 -0.6391  1.2513 -0.3270
13646SOL     OW42038   4.603   4.409   5.973  0.2551  0.4194  0.0326
13646SOL    HW142039   4.529   4.385   5.916 -1.5170  2.1121  1.4555
13646SOL    HW242040   4.675   4.426   5.913 -1.7596  2.9993 -1.9216
13647SOL     OW42041   8.433   0.007   2.618  0.2940  0.0701 -0.2805
13647SOL    HW142042   8.347  -0.021   2.588 -0.0260  0.0958  0.5765
13647SOL    HW242043   8.438   0.100   2.595 -0.9253  0.7242  1.8126
13648SOL     OW42044   1.122   7.735   1.694 -0.6765  0.3014 -0.4253
13648SOL    HW142045   1.034   7.764   1.716  0.1727  1.7831  1.2779
13648SOL    HW242046   1.109   7.651   1.649 -2.9258  0.4378 -0.1532
13649SOL     OW42047   3.447   0.464   4.642  0.0957  0.3275 -0.3716
13649SOL    HW142048   3.482   0.499   4.724  0.1791 -0.1152 -0.2171
13649SOL    HW242049   3.512   0.400   4.613 -0.2490  0.0039 -0.4385
13650SOL     OW42050   0.881   2.286   3.453  0.0049 -0.5783  0.0489
13650SOL    HW142051   0.807   2.225   3.455 -1.0141  0.6230  0.0495
13650SOL    HW242052   0.899   2.305   3.545 -1.1557  0.8107  0.0289
13651SOL     OW42053   5.858   6.535   6.330 -0.4592  0.2191  0.1966
13651SOL    HW142054   5.801   6.460   6.312  1.1872 -2.4651  4.4197
13651SOL    HW242055   5.939   6.514   6.284 -1.3102  1.7147 -2.0985
13652SOL     OW42056   7.017   8.970   4.413  0.2298  0.1574  0.4201
13652SOL    HW142057   6.991   8.931   4.329 -0.5446  0.5318  0.4744
13652SOL    HW242058   6.995   9.063   4.404  1.4133  0.4747  0.5438
13653SOL     OW42059   8.460   1.552   1.956 -0.5790  0.2208 -0.6319
13653SOL    HW142060   8.478   1.589   1.870 -1.7286  0.9277 -0.5870
13653SOL    HW242061   8.526   1.591   2.014  0.2370 -0.3050 -1.1815
13654SOL     OW42062   8.839   7.515   7.268 -0.1332 -0.0529  0.2211
13654SOL    HW142063   8.764   7.559   7.229 -0.3371 -0.5282  0.0707
13654SOL    HW242064   8.832   7.533   7.362 -0.7257 -0.5228  0.2719
13655SOL     OW42065   6.452   0.714   3.909  0.1877  0.3512  0.4417
13655SOL    HW142066   6.359   0.697   3.923  0.6049 -3.5591 -0.4260
13655SOL    HW242067   6.461   0.718   3.813  0.9464  0.3800  0.5075
13656SOL     OW42068   3.354   1.992   1.189 -0.2621 -0.3525 -1.0014
13656SOL    HW142069   3.441   2.024   1.165 -0.0392  0.2103  0.4218
13656SOL    HW242070   3.370   1.915   1.244 -0.5119  1.0210  1.1290
13657SOL     OW42071   8.757   1.697   2.524 -0.0299  0.9097  0.1184
13657SOL    HW142072   8.833   1.639   2.523  0.6413  1.7858 -0.2743
13657SOL    HW242073   8.793   1.784   2.541 -1.0189  1.2330  0.6548
13658SOL     OW42074   1.013   6.679   8.430  0.3723  0.2544  0.1465
13658SOL    HW142075   1.063   6.699   8.509  0.6018  0.1805  0.0193
13658SOL    HW242076   1.002   6.584   8.431  1.3893  0.1233 -0.5163
13659SOL     OW42077   3.622   2.135   0.153  0.5623 -0.4272  0.6494
13659SOL    HW142078   3.607   2.228   0.169  1.9550 -0.2811  1.2389
13659SOL    HW242079   3.711   2.120   0.183  0.6279 -1.7964 -0.1633
13660SOL     OW42080   5.046   7.590   8.960 -0.2007  0.0744  0.3599
13660SOL    HW142081   5.131   7.620   8.926  0.1986 -2.0638 -0.7324
13660SOL    HW242082   4.984   7.615   8.892 -0.1542  0.0158  0.2948
13661SOL     OW42083   6.078   7.379   2.400 -0.8827  0.2152 -0.1032
13661SOL    HW142084   6.169   7.366   2.426 -1.1412  0.6327  1.0626
13661SOL    HW242085   6.066   7.474   2.402 -1.1099  0.2148 -1.0938
13662SOL     OW42086   6.161   8.733   1.584  0.1362  0.0348  0.3394
13662SOL    HW142087   6.183   8.647   1.619 -0.0769  0.7888  2.4766
13662SOL    HW242088   6.120   8.715   1.500 -0.2143 -1.9622  0.8807
13663SOL     OW42089   2.079   1.742   6.360 -0.1842  0.1016  0.7535
13663SOL    HW142090   2.080   1.837   6.348  0.2091  0.0135  0.0522
13663SOL    HW242091   2.153   1.724   6.417  0.1115  0.1542  0.3857
13664SOL     OW42092   5.682   8.840   2.588 -0.8847 -0.0032  0.0839
13664SOL    HW142093   5.610   8.806   2.535 -0.1596  0.3196 -1.1483
13664SOL    HW242094   5.673   8.935   2.584  0.0818  0.0593 -0.7647
13665SOL     OW42095   5.991   6.917   4.671 -0.0535 -0.4918 -0.0837
13665SOL    HW142096   6.046   6.970   4.729 -0.1230 -0.7716  0.2438
13665SOL    HW242097   6.034   6.924   4.585 -0.0060  0.0049 -0.0235
13666SOL     OW42098   3.422   8.410   4.267  0.7450 -0.5150  0.0505
13666SOL    HW142099   3.453   8.486   4.218  0.3589  0.1842  0.8736
13666SOL    HW242100   3.404   8.443   4.355 -0.4505 -1.3317  0.1325
13667SOL     OW42101   6.918   5.353   0.981  0.6635 -0.6376 -0.0857
13667SOL    HW142102   6.991   5.333   0.922 -0.9174 -1.1609 -1.9905
13667SOL    HW242103   6.899   5.269   1.024  0.2964 -0.8551 -0.6601
13668SOL     OW42104   3.478   0.775   4.226  0.2267 -0.0399  0.6788
13668SOL    HW142105   3.483   0.767   4.131  0.5075 -1.2621  0.7828
13668SOL    HW242106   3.565   0.748   4.257  0.9141  2.4532  1.1857
13669SOL     OW42107   7.507   4.014   5.957 -0.4467 -0.7541  0.3339
13669SOL    HW142108   7.481   3.952   5.889 -0.1697 -1.2726  0.6959
13669SOL    HW242109   7.479   4.099   5.923  1.5071 -0.7116 -1.3976
13670SOL     OW42110   3.663   7.423   1.508 -0.0652  0.4695  0.2001
13670SOL    HW142111   3.585   7.397   1.459  0.3730  0.6226 -0.5940
13670SOL    HW242112   3.639   7.507   1.548 -0.4128  0.3665  0.2125
13671SOL     OW42113   1.174   7.379   1.772  0.2429 -0.4436 -0.0870
13671SOL    HW142114   1.155   7.428   1.851  0.1139  1.3130 -1.1505
13671SOL    HW242115   1.266   7.352   1.782  0.7771  1.2465 -0.0557
13672SOL     OW42116   5.093   1.195   7.742 -0.0437 -0.3038 -0.1619
13672SOL    HW142117   5.160   1.215   7.677  0.4605  2.2240  1.0419
13672SOL    HW242118   5.012   1.234   7.708 -0.5721 -1.8929 -0.8127
13673SOL     OW42119   8.012   5.321   3.552  0.3132  0.0303 -0.5407
13673SOL    HW142120   7.923   5.313   3.519 -0.3931 -2.1724  1.5424
13673SOL    HW242121   8.063   5.260   3.498  0.6414  1.3905 -1.8213
13674SOL     OW42122   2.069   0.293   8.295  0.5023 -0.0802 -0.2441
13674SOL    HW142123   2.095   0.213   8.340  0.2593 -0.6922 -1.1614
13674SOL    HW242124   2.029   0.263   8.214  1.0197  0.9877 -0.9222
13675SOL     OW42125   6.655   8.130   7.672 -0.1319 -0.8067  0.5570
13675SOL    HW142126   6.642   8.199   7.738 -1.1178  0.6260 -1.0285
13675SOL    HW242127   6.738   8.152   7.630  0.5814 -1.8167  1.4060
13676SOL     OW42128   1.219   2.255   8.684  0.1407  0.1171  0.1313
13676SOL    HW142129   1.180   2.181   8.638 -0.0803 -0.5306  1.3067
13676SOL    HW242130   1.160   2.271   8.758  1.3782 -0.0462  1.2071
13677SOL     OW42131   0.615   4.790   0.687  0.4216 -0.1425  0.0097
13677SOL    HW142132   0.618   4.705   0.732  1.5052 -0.4079 -0.5434
13677SOL    HW242133   0.693   4.836   0.718 -0.2797  0.7567  0.4827
13678SOL     OW42134   3.457   0.173   8.820 -0.0974 -0.1446 -1.2438
13678SOL    HW142135   3.542   0.174   8.775 -0.5975  1.0137 -2.2201
13678SOL    HW242136   3.394   0.190   8.750 -0.7984  3.5928  0.0998
13679SOL     OW42137   6.434   1.339   8.510  0.1502 -0.0523 -0.6093
13679SOL    HW142138   6.417   1.404   8.441 -2.2651 -0.7707 -0.7768
13679SOL    HW242139   6.378   1.265   8.487 -1.0620 -0.1664  2.3283
13680SOL     OW42140   7.201   8.152   0.501 -0.1406 -0.1491 -0.7329
13680SOL    HW142141   7.253   8.081   0.539  0.3593  0.1482 -0.8579
13680SOL    HW242142   7.195   8.218   0.570 -0.1269 -0.0698 -0.8071
13681SOL     OW42143   0.266   6.918   8.722 -0.5721 -0.2853 -0.7462
13681SOL    HW142144   0.257   6.985   8.654 -0.9711 -2.0559 -2.5050
13681SOL    HW242145   0.355   6.886   8.712 -0.3550  0.0062  0.1520
13682SOL     OW42146   6.916   4.758   5.305  0.0914 -0.3668  0.2391
13682SOL    HW142147   6.963   4.745   5.387  2.2084  1.4241 -0.5992
13682SOL    HW242148   6.828   4.786   5.332  0.4652 -0.6821  1.8875
13683SOL     OW42149   3.961   8.739   7.453  0.0598 -0.3522  0.0322
13683SOL    HW142150   4.011   8.773   7.527  1.3101 -0.7252 -0.6143
13683SOL    HW242151   3.983   8.796   7.380 -0.9425 -0.1606 -0.1308
13684SOL     OW42152   4.759   5.577   2.239 -0.5939  0.2509  0.1525
13684SOL    HW142153   4.832   5.633   2.265 -0.2681 -0.4772  0.8482
13684SOL    HW242154   4.711   5.629   2.175  0.5858  0.7099 -0.3996
13685SOL     OW42155   6.648   7.510   8.532 -0.2129  0.1593 -0.5165
13685SOL    HW142156   6.680   7.448   8.467 -1.1054 -1.0471  0.1518
13685SOL    HW242157   6.630   7.457   8.609  0.3533  1.4753  0.5781
13686SOL     OW42158   1.160   6.187   8.951  0.5517 -0.2905 -0.1419
13686SOL    HW142159   1.105   6.129   8.898  0.6593 -0.0781 -0.4840
13686SOL    HW242160   1.147   6.156   9.041  0.8870 -1.0688 -0.3624
13687SOL     OW42161   4.749   0.277   5.075 -0.3507 -0.5221  0.0589
13687SOL    HW142162   4.663   0.307   5.104  0.1041  0.5312  0.3459
13687SOL    HW242163   4.758   0.310   4.986 -0.3832 -0.9384 -0.1021
13688SOL     OW42164   6.200   2.966   4.074 -0.2583 -0.3688 -0.2730
13688SOL    HW142165   6.200   2.988   3.980 -0.9253 -0.0943 -0.2212
13688SOL    HW242166   6.291   2.974   4.101 -0.1359  0.0686 -0.7902
13689SOL     OW42167   0.437   8.861   2.154 -0.1867  0.0873  0.3523
13689SOL    HW142168   0.500   8.901   2.094 -0.2555 -0.6995 -0.2608
13689SOL    HW242169   0.483   8.856   2.238  1.4178 -2.4377 -0.5604
13690SOL     OW42170   1.093   0.452   3.492  0.1713  0.4387  0.0515
13690SOL    HW142171   1.023   0.426   3.553 -2.3987  1.1430 -2.3639
13690SOL    HW242172   1.102   0.377   3.433  0.8306  0.7106 -0.1932
13691SOL     OW42173   5.137   1.462   7.204 -1.0798  0.0397 -0.7448
13691SOL    HW142174   5.071   1.457   7.273 -0.0108 -2.2042  0.2062
13691SOL    HW242175   5.154   1.371   7.180  2.4623  0.3810 -0.1281
13692SOL     OW42176   3.613   3.499   1.569  0.6277 -0.4989  0.3076
13692SOL    HW142177   3.577   3.537   1.489  1.5742 -0.2506 -0.0170
13692SOL    HW242178   3.649   3.414   1.542 -0.2115 -0.9986  0.7416
13693SOL     OW42179   5.805   7.071   2.443  0.3329  0.3505  0.8963
13693SOL    HW142180   5.735   7.028   2.493 -2.1509  3.5493  0.5033
13693SOL    HW242181   5.877   7.079   2.505 -1.4044  1.1187  2.9544
13694SOL     OW42182   1.938   7.674   7.084 -0.4506  0.3469  0.0092
13694SOL    HW142183   1.907   7.694   7.172  1.3521  0.8612  0.5697
13694SOL    HW242184   1.937   7.758   7.038  1.4178  0.6812  0.4989
13695SOL     OW42185   3.884   1.536   7.911  0.1113  0.3506 -0.8319
13695SOL    HW142186   3.918   1.571   7.994  0.9346 -1.2227 -0.4733
13695SOL    HW242187   3.814   1.477   7.938 -0.5784  0.9117 -1.3648
13696SOL     OW42188   7.531   1.099   7.518  0.5938 -0.0411  0.0697
13696SOL    HW142189   7.583   1.115   7.597  0.0176  0.7380  0.3076
13696SOL    HW242190   7.470   1.173   7.514 -0.9140 -1.2135  0.1505
13697SOL     OW42191   7.418   5.977   2.714  0.1723  0.5182  0.0231
13697SOL    HW142192   7.363   5.989   2.637 -0.0914 -0.0589  0.1163
13697SOL    HW242193   7.427   6.065   2.751 -3.2292  0.2793  1.7416
13698SOL     OW42194   0.270   6.052   5.843 -0.0591  0.0828 -0.3647
13698SOL    HW142195   0.295   5.978   5.898  0.5411  0.6831  0.1783
13698SOL    HW242196   0.174   6.050   5.843 -0.0614 -1.7219 -1.7764
13699SOL     OW42197   5.063   4.066   2.078 -0.3785  0.3598 -0.0342
13699SOL    HW142198   5.157   4.046   2.069 -0.8886 -1.6017 -2.0218
13699SOL    HW242199   5.020   3.999   2.025 -2.9627  0.9217  1.2108
13700SOL     OW42200   1.374   3.365   6.819  0.4028 -0.1484 -0.1546
13700SOL    HW142201   1.351   3.359   6.726  1.2930 -0.2903 -0.3782
13700SOL    HW242202   1.292   3.348   6.865  0.1807 -1.2632 -0.9030
13701SOL     OW42203   1.913   1.719   7.482 -0.1194  0.5652  0.4247
13701SOL    HW142204   1.935   1.780   7.552 -1.1393  0.2371  1.0598
13701SOL    HW242205   1.989   1.661   7.475 -0.3250  0.1061  1.8242
13702SOL     OW42206   0.191   3.830   4.182  0.3067  0.6445  0.1366
13702SOL    HW142207   0.235   3.902   4.227  0.2440 -0.1029  1.4477
13702SOL    HW242208   0.150   3.779   4.252  1.4079 -1.3903 -0.6193
13703SOL     OW42209   8.440   6.081   7.663 -0.2385  0.5144 -0.2603
13703SOL    HW142210   8.381   6.006   7.676 -1.3133  1.1353 -1.3341
13703SOL    HW242211   8.405   6.148   7.722  1.6112 -0.2233  1.8447
13704SOL     OW42212   4.786   0.693   3.426 -0.3582  0.3487  0.1328
13704SOL    HW142213   4.696   0.675   3.398 -0.1532 -0.9070  0.2088
13704SOL    HW242214   4.819   0.608   3.455  0.3665  1.0763  1.5328
13705SOL     OW42215   1.003   1.746   6.295  0.1281  0.5553  0.0275
13705SOL    HW142216   0.929   1.797   6.264  1.2024  1.2627 -1.4940
13705SOL    HW242217   0.989   1.658   6.259  0.9597  1.1717 -1.9068
13706SOL     OW42218   1.281   3.278   8.564  0.1484 -0.0169  0.1266
13706SOL    HW142219   1.227   3.318   8.495  0.5718 -1.7271 -1.2684
13706SOL    HW242220   1.244   3.312   8.645 -1.4984  0.7298 -0.8694
13707SOL     OW42221   7.354   7.841   1.119 -0.2070 -0.1254 -0.1914
13707SOL    HW142222   7.316   7.846   1.206  1.6506  1.4170  0.6092
13707SOL    HW242223   7.299   7.779   1.072  0.7919 -4.0099  3.1659
13708SOL     OW42224   5.640   8.175   8.372 -0.5987  0.5401 -0.2512
13708SOL    HW142225   5.565   8.225   8.406  0.1733  1.0858  0.7084
13708SOL    HW242226   5.715   8.234   8.386  0.1773 -0.4740 -0.0725
13709SOL     OW42227   6.825   5.967   7.880  0.5671 -1.0462  0.7574
13709SOL    HW142228   6.746   5.926   7.846  0.6906 -0.7214  0.0467
13709SOL    HW242229   6.814   5.967   7.975 -1.0125  0.4423  0.6121
13710SOL     OW42230   2.921   5.595   8.915 -0.0666  0.0756 -0.1774
13710SOL    HW142231   2.917   5.684   8.951  1.0207 -0.6319  1.8391
13710SOL    HW242232   2.942   5.608   8.822  2.4063  1.9212  0.5181
13711SOL     OW42233   3.918   4.830   7.791 -0.5231  0.0782  0.1809
13711SOL    HW142234   3.994   4.822   7.733  0.0568  1.2865  0.7474
13711SOL    HW242235   3.949   4.882   7.864 -1.7284  0.0261  0.7478
13712SOL     OW42236   6.436   1.352   5.559  0.0656 -0.0600 -0.1661
13712SOL    HW142237   6.514   1.296   5.547 -0.7221 -1.1870 -0.2138
13712SOL    HW242238   6.415   1.344   5.652 -0.3370 -0.2312 -0.2708
13713SOL     OW42239   4.307   4.909   7.435 -0.1109 -0.6487  0.3281
13713SOL    HW142240   4.390   4.954   7.417 -1.2749  0.9696 -1.3747
13713SOL    HW242241   4.331   4.817   7.447  1.6158 -0.9913 -4.0721
13714SOL     OW42242   0.954   3.467   2.810  0.0781  0.8817 -0.2442
13714SOL    HW142243   0.982   3.385   2.771  0.7525 -0.1230  2.1741
13714SOL    HW242244   0.928   3.522   2.736  2.5052 -0.3923 -2.1702
13715SOL     OW42245   2.515   0.844   1.575 -0.7542 -0.3469 -0.0796
13715SOL    HW142246   2.578   0.795   1.628 -1.1817 -1.4468 -0.5639
13715SOL    HW242247   2.561   0.924   1.551  0.1806 -0.7851  0.2145
13716SOL     OW42248   2.672   5.380   1.610  0.0714 -0.4975 -0.0724
13716SOL    HW142249   2.753   5.383   1.661  0.1633 -0.3713 -0.2239
13716SOL    HW242250   2.603   5.378   1.676  0.2043 -0.8463  0.0578
13717SOL     OW42251   3.965   1.259   2.817 -0.5412 -0.1184 -0.5938
13717SOL    HW142252   4.020   1.314   2.761 -0.9398  0.4787 -0.4052
13717SOL    HW242253   4.003   1.268   2.905 -0.2847 -0.5751 -0.6516
13718SOL     OW42254   4.941   1.238   6.974 -0.3775 -0.1640  0.9042
13718SOL    HW142255   5.015   1.293   6.947  0.4775 -0.3372  2.7080
13718SOL    HW242256   4.905   1.204   6.892  0.3644  1.4131 -0.1319
13719SOL     OW42257   0.761   1.659   7.310 -0.2874 -0.1703  0.5872
13719SOL    HW142258   0.841   1.639   7.261 -1.4651 -0.4231 -1.3523
13719SOL    HW242259   0.753   1.587   7.373 -0.1458 -1.3968 -0.7375
13720SOL     OW42260   1.063   4.636   1.296  0.3322  0.4516 -0.3065
13720SOL    HW142261   1.002   4.673   1.361 -0.1904  0.5917 -0.8615
13720SOL    HW242262   1.120   4.710   1.273  0.6593  0.3432  0.1521
13721SOL     OW42263   6.786   9.092   4.754  0.0067  0.0338 -0.3539
13721SOL    HW142264   6.713   9.073   4.694 -0.9198 -0.6785  0.9488
13721SOL    HW242265   6.748   9.152   4.818  1.3121  1.7346 -1.0973
13722SOL     OW42266   6.400   0.286   3.843 -0.2177  0.2191  0.0970
13722SOL    HW142267   6.493   0.309   3.851 -0.0654 -0.0482 -0.8190
13722SOL    HW242268   6.361   0.360   3.796 -0.2677 -0.1282 -0.4112
13723SOL     OW42269   0.297   7.238   0.937 -0.0267 -1.1317 -0.0888
13723SOL    HW142270   0.221   7.209   0.987 -1.8157  0.5292 -1.6791
13723SOL    HW242271   0.266   7.242   0.846  1.4020  1.2353 -0.5600
13724SOL     OW42272   8.539   4.391   7.960  0.0886  0.1521 -0.4080
13724SOL    HW142273   8.566   4.304   7.990  0.7681  0.4925 -0.0111
13724SOL    HW242274   8.552   4.448   8.036  0.9217  0.8526 -1.0612
13725SOL     OW42275   5.162   7.991   3.200 -0.0476  0.4504  0.6362
13725SOL    HW142276   5.176   7.995   3.294 -1.9128  2.5122  0.8989
13725SOL    HW242277   5.092   7.928   3.188 -1.2947  1.7386  0.8909
13726SOL     OW42278   8.730   0.439   7.160  0.3136 -0.1976  0.3139
13726SOL    HW142279   8.759   0.530   7.156 -0.2353 -0.0562 -1.1208
13726SOL    HW242280   8.808   0.388   7.141  0.4477  0.0130  0.2925
13727SOL     OW42281   2.315   5.613   3.972 -0.2450 -0.0943 -0.4312
13727SOL    HW142282   2.317   5.706   3.995 -1.3528 -0.6160  2.0848
13727SOL    HW242283   2.348   5.568   4.051 -0.7156 -1.8785 -1.1952
13728SOL     OW42284   7.841   8.957   8.880  0.1860 -0.2215  0.1701
13728SOL    HW142285   7.828   8.984   8.971 -1.8906 -1.3015  0.2594
13728SOL    HW242286   7.874   8.867   8.886  1.2826  0.1477 -0.1551
13729SOL     OW42287   7.435   8.765   4.604 -0.6229  0.0128 -0.8084
13729SOL    HW142288   7.367   8.828   4.632  0.5096  0.1330  2.0520
13729SOL    HW242289   7.418   8.687   4.658  0.3696 -0.6654 -1.4547
13730SOL     OW42290   8.072   2.520   2.342  0.2343  0.1826  0.0385
13730SOL    HW142291   8.034   2.466   2.272  3.1001 -1.8328 -0.1392
13730SOL    HW242292   8.141   2.570   2.298  1.0203  0.0747  1.1240
13731SOL     OW42293   5.220   2.398   0.272  0.1186  0.1886 -0.2499
13731SOL    HW142294   5.219   2.335   0.200 -0.0857 -0.9348  0.7111
13731SOL    HW242295   5.251   2.479   0.232  0.6356 -0.5762 -1.4637
13732SOL     OW42296   6.795   1.915   8.282  0.3470 -0.2273 -0.1509
13732SOL    HW142297   6.804   2.007   8.260 -0.7277  0.2315  1.1529
13732SOL    HW242298   6.753   1.875   8.206 -0.9164  0.7667 -0.0089
13733SOL     OW42299   5.495   1.302   2.571 -0.5809 -0.1810  0.1496
13733SOL    HW142300   5.499   1.207   2.560  1.9011  0.0173 -1.7180
13733SOL    HW242301   5.407   1.320   2.604 -0.7069 -3.2019  1.7305
13734SOL     OW42302   9.125   8.929   0.304  0.2393 -0.0642  0.2605
13734SOL    HW142303   9.205   8.887   0.337  1.0051  0.7480 -0.5361
13734SOL    HW242304   9.156   8.999   0.248 -1.0427 -0.3781 -0.8799
13735SOL     OW42305   8.219   4.599   2.029  0.4930  1.0230 -0.2799
13735SOL    HW142306   8.204   4.509   2.058  0.7450  0.9315 -0.4327
13735SOL    HW242307   8.218   4.594   1.934 -1.5742  1.5233 -0.3322
13736SOL     OW42308   4.368   3.231   7.375 -0.2190  0.2851  0.2587
13736SOL    HW142309   4.360   3.259   7.466 -0.9963  0.7805  0.0481
13736SOL    HW242310   4.439   3.285   7.339 -1.1373  1.4087  0.0857
13737SOL     OW42311   0.882   3.154   4.381 -0.0431  0.3880 -0.3386
13737SOL    HW142312   0.977   3.143   4.378  0.1092  1.6609 -0.9000
13737SOL    HW242313   0.847   3.076   4.338  0.6291 -1.1740  1.7723
13738SOL     OW42314   1.356   6.022   2.751 -0.2888 -0.1918 -0.1541
13738SOL    HW142315   1.381   6.056   2.665 -1.7405  2.5664  0.4241
13738SOL    HW242316   1.439   6.017   2.799  0.0153  3.4586 -0.0511
13739SOL     OW42317   1.198   7.341   3.411 -0.0528 -0.1651  1.0356
13739SOL    HW142318   1.157   7.427   3.409  0.3263  0.0079  0.5679
13739SOL    HW242319   1.242   7.333   3.326 -2.3283 -1.9290 -0.0829
13740SOL     OW42320   3.370   7.337   6.864 -0.0837 -0.0963  0.6715
13740SOL    HW142321   3.462   7.362   6.858 -0.2392  1.3375  2.8218
13740SOL    HW242322   3.323   7.407   6.818 -0.1999  0.6300  1.8428
13741SOL     OW42323   4.060   5.374   9.045 -0.4831  0.0862  1.0409
13741SOL    HW142324   4.145   5.370   9.001 -1.0583  0.0361 -0.0893
13741SOL    HW242325   4.081   5.356   9.137  0.4356 -2.5394  0.4232
13742SOL     OW42326   5.639   1.417   0.432  0.1421  0.4958  0.2639
13742SOL    HW142327   5.590   1.352   0.482  2.1673  0.3896  2.2806
13742SOL    HW242328   5.670   1.479   0.497  2.1251  0.8995 -0.9659
13743SOL     OW42329   5.479   6.966   2.188  0.6768  0.2096  0.2075
13743SOL    HW142330   5.497   7.060   2.195 -0.1587  0.2402  2.9598
13743SOL    HW242331   5.562   6.928   2.159  1.0163  1.7439 -1.0150
13744SOL     OW42332   7.886   4.288   2.406  0.0982 -0.3620 -0.0448
13744SOL    HW142333   7.927   4.374   2.414 -2.5708  1.1177 -0.9158
13744SOL    HW242334   7.873   4.259   2.496  0.1019  0.6357  0.2861
13745SOL     OW42335   8.080   1.144   1.706 -0.5366  0.2237  0.0443
13745SOL    HW142336   8.145   1.101   1.650  0.2594 -1.0973  1.8834
13745SOL    HW242337   8.008   1.164   1.647  0.9385  0.4107 -1.7711
13746SOL     OW42338   2.025   1.735   5.219  0.2165  0.2471  0.6189
13746SOL    HW142339   1.930   1.744   5.211  0.1946 -0.4276 -0.0532
13746SOL    HW242340   2.061   1.790   5.150  0.1830 -1.8934 -1.2353
13747SOL     OW42341   5.186   0.810   0.113 -0.0840  0.0076 -0.2384
13747SOL    HW142342   5.271   0.821   0.071  0.8424 -0.3615  1.4507
13747SOL    HW242343   5.207   0.794   0.205 -2.0314  1.0970  0.4411
13748SOL     OW42344   5.808   5.210   3.297  0.1118  0.2579 -0.1885
13748SOL    HW142345   5.880   5.194   3.237 -0.4270 -2.1337 -0.2854
13748SOL    HW242346   5.736   5.158   3.263 -1.7770  2.6585 -0.1635
13749SOL     OW42347   6.839   9.006   8.428  0.4198  0.0423  0.1364
13749SOL    HW142348   6.796   9.084   8.393  0.8002  0.0537 -0.3227
13749SOL    HW242349   6.780   8.974   8.496 -0.3272  0.0540 -0.4867
13750SOL     OW42350   6.801   0.807   7.532 -0.4071 -0.3352 -0.3009
13750SOL    HW142351   6.778   0.900   7.543  0.4297  0.0313 -1.4950
13750SOL    HW242352   6.798   0.771   7.621 -2.0893  0.4991  0.0280
13751SOL     OW42353   0.193   8.442   5.026  0.4701  0.6734 -0.3820
13751SOL    HW142354   0.141   8.480   5.097  0.7741 -0.3512  0.4229
13751SOL    HW242355   0.277   8.489   5.031  0.2287  1.1234 -0.5511
13752SOL     OW42356   2.824   2.818   0.294  0.2260  0.4190  0.0218
13752SOL    HW142357   2.835   2.740   0.240  3.4670 -0.3451  1.5455
13752SOL    HW242358   2.826   2.891   0.233 -1.1898 -0.5877 -1.2799
13753SOL     OW42359   6.133   6.915   3.809  0.0522  0.3001  0.1303
13753SOL    HW142360   6.182   6.954   3.736 -0.9332 -0.2117 -0.8312
13753SOL    HW242361   6.075   6.985   3.839  0.6431  0.5927  0.6074
13754SOL     OW42362   0.879   8.018   2.841  0.3736  0.7165  0.2193
13754SOL    HW142363   0.853   7.930   2.868 -1.1756  1.0130 -0.1998
13754SOL    HW242364   0.818   8.076   2.887  0.3838  1.4676 -0.6829
13755SOL     OW42365   3.802   1.247   0.249 -0.0176  0.0030 -0.4087
13755SOL    HW142366   3.867   1.270   0.316 -0.2328  1.5384 -0.6943
13755SOL    HW242367   3.751   1.327   0.237 -0.9392 -0.7066 -1.3479
13756SOL     OW42368   6.131   1.317   1.070 -0.1015 -0.1811 -0.4882
13756SOL    HW142369   6.172   1.259   1.006  0.3238 -0.8976  0.3892
13756SOL    HW242370   6.138   1.404   1.033  1.6050 -0.3750 -0.7033
13757SOL     OW42371   7.952   5.840   5.794  0.3025  0.6707  0.6036
13757SOL    HW142372   7.917   5.795   5.871 -0.4988  0.0279 -0.1173
13757SOL    HW242373   7.890   5.912   5.779  0.6682  1.0274  0.7713
13758SOL     OW42374   6.430   0.929   0.567  0.0618  0.3154  0.8751
13758SOL    HW142375   6.421   0.853   0.624  0.2455 -0.2802  0.1196
13758SOL    HW242376   6.425   0.894   0.478  1.7042  0.9792  0.4796
13759SOL     OW42377   5.296   7.175   0.956 -0.1186  0.4050 -0.3523
13759SOL    HW142378   5.214   7.199   0.914  0.7172  3.9567 -0.2791
13759SOL    HW242379   5.352   7.144   0.885 -0.7616  0.1648 -0.7588
13760SOL     OW42380   1.246   9.091   6.408  0.2439 -0.5105 -0.2375
13760SOL    HW142381   1.216   9.179   6.430 -0.8963 -1.1528  0.9188
13760SOL    HW242382   1.339   9.102   6.390  0.1479  0.9150  0.0044
13761SOL     OW42383   5.327   0.116   0.397  0.0084 -0.0156 -0.1169
13761SOL    HW142384   5.262   0.070   0.345 -0.2170  1.1189 -0.8788
13761SOL    HW242385   5.411   0.085   0.365 -0.1354  0.3588 -0.8628
13762SOL     OW42386   0.956   4.703   4.817 -0.6932  0.5900 -0.0890
13762SOL    HW142387   0.967   4.736   4.906 -0.6215  0.5282 -0.0751
13762SOL    HW242388   1.009   4.624   4.813  0.0899  1.1230 -0.4803
13763SOL     OW42389   2.601   2.402   6.499  0.3954  0.6625 -0.0343
13763SOL    HW142390   2.515   2.397   6.541  0.0094  0.2658 -0.8561
13763SOL    HW242391   2.638   2.314   6.509  1.3561  1.1884  1.6018
13764SOL     OW42392   5.919   5.324   1.205  0.0597  0.3705  0.1249
13764SOL    HW142393   5.909   5.383   1.279  2.1806 -0.2270  0.9761
13764SOL    HW242394   5.973   5.373   1.143 -0.2035  0.2158 -0.2249
13765SOL     OW42395   6.910   5.020   0.448  0.1946 -0.4455 -0.7432
13765SOL    HW142396   6.875   4.940   0.485  2.8367 -1.5128 -0.3340
13765SOL    HW242397   6.887   5.017   0.355 -2.3530 -0.0974 -0.1820
13766SOL     OW42398   4.945   1.678   1.088 -0.3457  0.6814  0.0290
13766SOL    HW142399   4.944   1.592   1.047  0.3698  1.1251 -0.9361
13766SOL    HW242400   5.037   1.695   1.106 -0.4288  1.4750 -0.2770
13767SOL     OW42401   7.639   6.593   8.797  0.3980 -0.0397 -0.5532
13767SOL    HW142402   7.722   6.552   8.773  0.5370  1.2371 -2.4630
13767SOL    HW242403   7.598   6.615   8.714 -1.3252  0.4512  0.3696
13768SOL     OW42404   6.276   6.477   3.853 -0.1272 -0.5662  0.2394
13768SOL    HW142405   6.259   6.547   3.917  0.3737 -0.5052  0.3077
13768SOL    HW242406   6.313   6.522   3.778  0.1618 -0.7572  0.2689
13769SOL     OW42407   7.345   8.232   8.710 -0.1147  0.1481 -0.0436
13769SOL    HW142408   7.266   8.184   8.687 -0.5203  0.7639  0.0204
13769SOL    HW242409   7.313   8.313   8.751  0.5236  0.7768 -0.7480
13770SOL     OW42410   3.726   9.048   0.300  0.4512  0.5579  0.3763
13770SOL    HW142411   3.770   9.050   0.215  0.0341  1.8132  0.1680
13770SOL    HW242412   3.633   9.058   0.279  0.3680  1.1203  0.9966
13771SOL     OW42413   1.344   1.957   6.875 -0.0146 -0.3245  0.0707
13771SOL    HW142414   1.304   2.029   6.827  1.9981  0.7401 -0.1101
13771SOL    HW242415   1.280   1.886   6.870 -1.3223  0.8841 -1.2067
13772SOL     OW42416   6.032   0.555   0.731  0.6100  0.6659 -0.3337
13772SOL    HW142417   5.969   0.558   0.658  2.1265 -1.0869 -1.8195
13772SOL    HW242418   6.113   0.592   0.694  1.8408 -1.5959 -0.0829
13773SOL     OW42419   5.177   1.031   5.359  0.7837  0.3306 -0.1117
13773SOL    HW142420   5.181   1.088   5.282 -0.3901  0.8095  0.1641
13773SOL    HW242421   5.211   0.947   5.329  0.1977  0.4682 -1.1993
13774SOL     OW42422   5.095   2.129   2.054  0.4991  0.0054 -0.7087
13774SOL    HW142423   5.177   2.081   2.066 -0.1993 -0.8392  1.0288
13774SOL    HW242424   5.028   2.060   2.048 -0.5170  0.6951  1.7229
13775SOL     OW42425   1.030   8.525   4.818 -0.3138  0.0170  0.0643
13775SOL    HW142426   1.059   8.502   4.730  0.4248  1.1759 -0.0162
13775SOL    HW242427   1.003   8.442   4.858 -0.5245 -0.5351 -1.1972
13776SOL     OW42428   1.759   8.226   6.965 -0.8173 -0.5141  0.0363
13776SOL    HW142429   1.763   8.224   7.061 -3.1064  0.0244  0.1891
13776SOL    HW242430   1.691   8.163   6.942 -1.2944  0.3936 -1.1366
13777SOL     OW42431   3.122   0.782   7.586  0.3951  0.1210 -0.0423
13777SOL    HW142432   3.036   0.778   7.545 -0.2265 -0.1967  1.2497
13777SOL    HW242433   3.105   0.790   7.679  1.7771  1.3908  0.1472
13778SOL     OW42434   7.355   5.932   0.906  0.1206 -0.3507 -0.3800
13778SOL    HW142435   7.334   5.986   0.982  1.2286 -0.5698  0.0966
13778SOL    HW242436   7.415   5.865   0.939 -0.4443 -1.2857 -1.1678
13779SOL     OW42437   5.357   8.517   3.604  0.2762 -1.0791  0.3382
13779SOL    HW142438   5.263   8.501   3.596 -0.1653  1.5886 -0.9069
13779SOL    HW242439   5.365   8.572   3.682  1.0428 -2.4143  1.2521
13780SOL     OW42440   7.246   0.213   4.767 -0.0501  0.3621 -0.2540
13780SOL    HW142441   7.155   0.188   4.751  0.2770 -0.6816 -0.5140
13780SOL    HW242442   7.292   0.191   4.686  1.1511 -2.7125  1.1285
13781SOL     OW42443   1.964   6.656   7.875 -0.0220 -0.1887  0.3892
13781SOL    HW142444   2.033   6.617   7.822  0.0832 -0.4474  0.7094
13781SOL    HW242445   1.889   6.597   7.866 -0.0804 -0.1090  0.3427
13782SOL     OW42446   5.615   7.321   2.790  0.2426 -0.2277 -0.8124
13782SOL    HW142447   5.695   7.323   2.738  0.4902 -2.4185 -0.6197
13782SOL    HW242448   5.553   7.269   2.737 -0.0564 -1.0507  0.2960
13783SOL     OW42449   2.959   5.147   3.114  0.1103 -0.1152 -0.5582
13783SOL    HW142450   3.014   5.069   3.103  0.0928 -0.1894 -0.1161
13783SOL    HW242451   3.013   5.209   3.163  0.0650  0.0891 -0.7649
13784SOL     OW42452   2.294   4.526   7.687  0.0552 -0.3290  0.1882
13784SOL    HW142453   2.322   4.609   7.725  0.0407 -0.0980 -0.3058
13784SOL    HW242454   2.341   4.460   7.738  2.6259  0.0687 -1.4328
13785SOL     OW42455   8.397   0.420   1.409 -0.1180  0.5030  0.4579
13785SOL    HW142456   8.418   0.432   1.316 -0.0511  0.8244  0.5120
13785SOL    HW242457   8.303   0.432   1.413 -0.1545  0.2433  0.3948
13786SOL     OW42458   3.671   0.770   0.945  0.5512  0.2054  0.2932
13786SOL    HW142459   3.589   0.742   0.906  0.8224  0.8035 -0.7595
13786SOL    HW242460   3.733   0.770   0.872  1.5780 -0.5696  1.1372
13787SOL     OW42461   1.112   2.256   2.241  0.3570  0.0395  0.4186
13787SOL    HW142462   1.025   2.242   2.202 -0.5174  0.2392  2.2198
13787SOL    HW242463   1.124   2.351   2.237 -0.5978  0.2757  2.3339
13788SOL     OW42464   2.712   1.831   3.722  0.0576  0.0725  0.1140
13788SOL    HW142465   2.667   1.774   3.785  2.8480  0.4262  2.7025
13788SOL    HW242466   2.665   1.914   3.726 -0.9986 -0.5193  0.2224
13789SOL     OW42467   6.008   3.992   1.864  0.8430  0.3208 -0.1056
13789SOL    HW142468   5.967   3.914   1.827  0.4242  1.4385 -2.1350
13789SOL    HW242469   6.102   3.978   1.851  0.8531 -0.3462  0.6244
13790SOL     OW42470   4.922   6.483   4.384  0.4588  0.2550  0.2952
13790SOL    HW142471   4.853   6.419   4.366  1.6186 -0.8705 -0.3223
13790SOL    HW242472   4.903   6.556   4.326  1.0814 -1.0370 -1.6056
13791SOL     OW42473   8.195   3.146   8.675 -0.3406 -0.3757 -0.0101
13791SOL    HW142474   8.224   3.203   8.746 -1.5046 -0.1021  0.2588
13791SOL    HW242475   8.126   3.196   8.630 -0.4340 -1.0201 -0.6034
13792SOL     OW42476   7.419   2.022   5.798  0.1561 -0.3089  0.2466
13792SOL    HW142477   7.412   2.053   5.708  0.5302  2.6395  1.1080
13792SOL    HW242478   7.405   2.101   5.851  1.2069 -1.6916  2.7431
13793SOL     OW42479   0.542   0.279   3.987 -0.6411  0.3422 -0.2648
13793SOL    HW142480   0.517   0.316   3.902 -1.2680 -0.6506 -0.5296
13793SOL    HW242481   0.459   0.265   4.032 -0.2531  2.1444  1.1012
13794SOL     OW42482   2.285   8.176   6.379 -0.3095 -0.1888 -0.3331
13794SOL    HW142483   2.359   8.235   6.365 -1.7911  1.7063 -0.5422
13794SOL    HW242484   2.320   8.105   6.434  1.8311  0.2141 -1.1221
13795SOL     OW42485   8.922   0.813   4.300 -0.2183  0.4028  0.4718
13795SOL    HW142486   8.993   0.867   4.266  1.2906 -0.7760  1.6209
13795SOL    HW242487   8.901   0.753   4.229  0.9349 -0.1747  0.6118
13796SOL     OW42488   7.728   8.947   0.796  0.1288  0.0916  0.1432
13796SOL    HW142489   7.795   8.951   0.727 -1.0637 -0.4770 -1.0908
13796SOL    HW242490   7.665   9.014   0.772 -1.0031 -1.0294 -0.1085
13797SOL     OW42491   6.380   4.990   3.162 -0.1257  0.0673  0.1921
13797SOL    HW142492   6.340   4.979   3.076 -1.6378 -0.1809  0.8907
13797SOL    HW242493   6.367   4.906   3.206 -0.7070  0.6370  1.1685
13798SOL     OW42494   6.254   3.501   5.047 -0.1690  0.2148  0.1327
13798SOL    HW142495   6.246   3.420   5.098  1.2143  0.2124  0.3770
13798SOL    HW242496   6.166   3.540   5.051 -0.3270 -0.2189  1.7923
13799SOL     OW42497   4.368   5.807   4.894  0.7762  0.0882  0.3836
13799SOL    HW142498   4.323   5.837   4.815 -0.4373 -0.3151  0.8944
13799SOL    HW242499   4.312   5.835   4.966  0.5499 -1.7059  0.9727
13800SOL     OW42500   8.405   1.717   4.419  0.0478 -0.1466  0.3960
13800SOL    HW142501   8.493   1.681   4.425  0.0967 -0.0488  0.2495
13800SOL    HW242502   8.384   1.745   4.509 -0.4108 -1.5446  0.7553
13801SOL     OW42503   3.798   0.942   2.366 -0.1116 -0.2190  0.5456
13801SOL    HW142504   3.812   1.000   2.291  0.4742  0.9965  1.5735
13801SOL    HW242505   3.766   1.000   2.436 -1.2229 -1.4215  1.0863
13802SOL     OW42506   1.819   6.153   2.349  0.1200 -0.2424 -0.1018
13802SOL    HW142507   1.830   6.082   2.286  0.8603 -0.7344  0.5501
13802SOL    HW242508   1.731   6.187   2.333  0.2400 -0.4625 -1.2755
13803SOL     OW42509   8.131   5.114   0.853  0.2538 -0.4286  0.3941
13803SOL    HW142510   8.058   5.170   0.826  1.1513  1.0081  0.8561
13803SOL    HW242511   8.090   5.043   0.903 -0.7165  1.1770  1.9679
13804SOL     OW42512   6.543   0.816   2.365 -0.1984  1.0586 -0.6673
13804SOL    HW142513   6.575   0.728   2.384 -1.1769  0.7390 -0.4525
13804SOL    HW242514   6.546   0.824   2.270 -1.4326  0.2651 -0.7904
13805SOL     OW42515   8.234   2.752   6.908  0.0770  0.1108 -0.0233
13805SOL    HW142516   8.229   2.657   6.915  1.5370  0.0425  0.3932
13805SOL    HW242517   8.245   2.783   6.998  1.1761  0.5381 -0.2874
13806SOL     OW42518   6.310   3.638   8.815 -0.1665 -0.4844 -0.6277
13806SOL    HW142519   6.371   3.564   8.809 -1.9286 -2.0294 -0.5525
13806SOL    HW242520   6.318   3.668   8.905  1.7867  0.5844 -1.0980
13807SOL     OW42521   1.225   1.505   2.923 -0.0912 -0.0139  0.5321
13807SOL    HW142522   1.147   1.496   2.979 -0.0532 -0.0197  0.5843
13807SOL    HW242523   1.222   1.595   2.892 -0.2889 -0.1048  0.2816
13808SOL     OW42524   7.179   2.282   1.882 -0.3307 -0.1241  0.0121
13808SOL    HW142525   7.140   2.324   1.959 -0.9182 -0.0830 -0.3072
13808SOL    HW242526   7.106   2.270   1.821  0.4158  1.3133 -1.2123
13809SOL     OW42527   0.586   1.322   4.186  0.1454  0.9186  0.3265
13809SOL    HW142528   0.513   1.384   4.194  0.8352  1.7456  0.3375
13809SOL    HW242529   0.653   1.355   4.246 -0.8923 -2.0310  3.4160
13810SOL     OW42530   7.623   0.757   7.871  0.5223  0.4249  0.4355
13810SOL    HW142531   7.638   0.737   7.963 -1.4065  0.4160  0.7890
13810SOL    HW242532   7.575   0.840   7.872  1.3045  0.9083 -0.6205
13811SOL     OW42533   3.937   2.222   3.661 -0.0938 -1.3810  0.4852
13811SOL    HW142534   3.898   2.257   3.581 -2.4067 -2.9856  0.7997
13811SOL    HW242535   3.884   2.259   3.732  1.9263  0.0303  1.3529
13812SOL     OW42536   0.371   0.393   4.255 -0.2143  0.7708 -0.6270
13812SOL    HW142537   0.322   0.476   4.251 -0.0256  0.8946 -0.4255
13812SOL    HW242538   0.311   0.328   4.221 -0.6796  0.8478  0.0342
13813SOL     OW42539   6.500   6.927   5.042  0.3764 -0.3878  0.4982
13813SOL    HW142540   6.492   6.911   5.136 -1.0561 -0.6488  0.3467
13813SOL    HW242541   6.471   6.846   5.001  1.5487 -0.4819 -0.1810
13814SOL     OW42542   1.515   0.311   3.886  0.1015 -0.5198 -0.1093
13814SOL    HW142543   1.429   0.270   3.879 -1.2254  1.9845  0.4887
13814SOL    HW242544   1.562   0.257   3.950 -0.9962 -1.9017 -0.4134
13815SOL     OW42545   7.899   5.706   1.899  0.0471 -0.0525  0.4466
13815SOL    HW142546   7.946   5.707   1.983 -2.4058  1.8995  1.9137
13815SOL    HW242547   7.858   5.792   1.893 -1.1230 -0.6999 -2.0431
13816SOL     OW42548   7.837   4.079   1.402 -0.3971  0.3191 -0.2782
13816SOL    HW142549   7.883   3.995   1.398 -1.3490 -0.2603  0.2940
13816SOL    HW242550   7.744   4.054   1.404 -0.6970  1.1745  3.0157
13817SOL     OW42551   4.631   5.084   0.531 -0.0276 -0.1193 -0.0263
13817SOL    HW142552   4.589   5.001   0.508  0.4016 -0.0010 -1.3342
13817SOL    HW242553   4.724   5.062   0.541  0.0262  0.1290  0.0144
13818SOL     OW42554   0.889   1.623   4.436  0.1146  0.4977  0.0398
13818SOL    HW142555   0.949   1.612   4.511  0.1794  0.8633  0.0457
13818SOL    HW242556   0.809   1.658   4.475 -0.3528 -0.6236  0.1244
13819SOL     OW42557   4.353   8.399   7.027 -0.0516 -0.3452 -0.0524
13819SOL    HW142558   4.421   8.439   7.081 -1.1441  1.1231  0.3160
13819SOL    HW242559   4.386   8.404   6.938 -0.2043  1.5661 -0.0349
13820SOL     OW42560   0.524   8.694   2.543  0.2202 -0.2067  0.8590
13820SOL    HW142561   0.447   8.674   2.596  0.8297 -0.9009  1.5116
13820SOL    HW242562   0.564   8.770   2.587 -0.6939  0.9004 -0.1439
13821SOL     OW42563   3.674   0.252   3.939 -0.2146  0.2828  0.1048
13821SOL    HW142564   3.683   0.303   4.019 -1.0051  2.5413 -1.1550
13821SOL    HW242565   3.763   0.219   3.922 -0.1549 -0.8371  2.1968
13822SOL     OW42566   5.937   0.855   0.809  0.4157 -0.0133  0.2836
13822SOL    HW142567   5.954   0.785   0.872  1.4479  0.0202  0.0620
13822SOL    HW242568   5.891   0.922   0.859 -0.7134 -0.8815  0.4733
13823SOL     OW42569   7.784   3.113   8.160  0.1411 -0.0315 -0.1890
13823SOL    HW142570   7.752   3.161   8.084 -2.1649 -1.9284 -0.5302
13823SOL    HW242571   7.759   3.168   8.235 -1.2111 -0.0247 -0.6249
13824SOL     OW42572   6.052   0.857   8.366 -0.1928 -0.3888 -0.0565
13824SOL    HW142573   6.125   0.849   8.304 -0.7298 -1.4224 -0.5899
13824SOL    HW242574   6.022   0.767   8.379 -1.2380 -0.0037  0.3235
13825SOL     OW42575   0.273   6.181   3.706 -0.0685 -0.0744 -0.0141
13825SOL    HW142576   0.345   6.223   3.754 -0.3217 -0.7240  0.9879
13825SOL    HW242577   0.237   6.118   3.769 -0.6530 -0.7074 -0.9611
13826SOL     OW42578   3.196   4.646   4.354 -0.1670 -0.0508  0.6198
13826SOL    HW142579   3.182   4.605   4.269 -0.8946  1.2374  0.0940
13826SOL    HW242580   3.175   4.578   4.417 -1.6751 -0.4026 -0.2209
13827SOL     OW42581   4.178   6.017   3.517  0.7651  0.5333 -0.0048
13827SOL    HW142582   4.196   5.959   3.442  0.9855 -0.8680  1.0911
13827SOL    HW242583   4.083   6.018   3.525  0.7937 -0.4677  0.5530
13828SOL     OW42584   3.107   8.885   1.248 -0.2045 -0.1027  0.6292
13828SOL    HW142585   3.041   8.872   1.180 -0.2589  0.7074  0.5226
13828SOL    HW242586   3.082   8.966   1.292  1.8864  1.4576 -0.8200
13829SOL     OW42587   0.456   6.968   8.124 -0.5151 -0.4888  0.0261
13829SOL    HW142588   0.540   6.987   8.083 -0.8195  0.5082 -0.1882
13829SOL    HW242589   0.444   7.038   8.188 -1.2741 -0.4766 -0.1098
13830SOL     OW42590   4.895   3.906   7.006 -0.2350 -0.0111 -0.1182
13830SOL    HW142591   4.969   3.871   6.957 -1.7636 -1.3948 -1.5753
13830SOL    HW242592   4.882   3.994   6.970  1.4033  0.7449  1.0210
13831SOL     OW42593   8.625   0.898   7.762 -0.0961 -0.1014  0.0063
13831SOL    HW142594   8.630   0.991   7.738 -0.3186 -0.1253 -0.1429
13831SOL    HW242595   8.583   0.897   7.847  1.7080  0.0550  0.9453
13832SOL     OW42596   4.164   1.056   2.531  0.4953 -0.6073  0.0098
13832SOL    HW142597   4.136   0.970   2.499 -0.7018 -0.6845  1.1925
13832SOL    HW242598   4.208   1.037   2.615  1.6430 -0.2006 -0.4792
13833SOL     OW42599   1.134   2.535   2.250 -0.0036  0.2758  0.5716
13833SOL    HW142600   1.188   2.574   2.319  0.5576 -0.0992  0.3533
13833SOL    HW242601   1.096   2.610   2.204  0.3803  0.5480  0.6912
13834SOL     OW42602   4.681   6.725   0.135  0.0712  0.1356  0.4682
13834SOL    HW142603   4.733   6.720   0.215  1.3086 -0.1865 -0.3207
13834SOL    HW242604   4.599   6.681   0.157  0.8427 -0.9941  1.2318
13835SOL     OW42605   2.296   3.214   3.820  0.2249  0.1292  0.4706
13835SOL    HW142606   2.278   3.295   3.866  0.7779 -0.4570  1.7699
13835SOL    HW242607   2.235   3.214   3.746 -1.2228  0.7463  1.6114
13836SOL     OW42608   8.618   0.713   8.499  0.0744  0.5508  0.2262
13836SOL    HW142609   8.704   0.688   8.465 -0.3494  0.9326 -1.2073
13836SOL    HW242610   8.637   0.781   8.563  0.7828  1.6089 -1.0539
13837SOL     OW42611   6.519   1.915   2.045 -0.3301  0.3125  0.1191
13837SOL    HW142612   6.484   1.960   1.968  2.9238 -0.5744 -2.0620
13837SOL    HW242613   6.494   1.823   2.032 -2.6665  0.5772  2.0026
13838SOL     OW42614   1.537   3.640   2.385  0.2887  0.7453 -0.1614
13838SOL    HW142615   1.561   3.568   2.442  1.0104  2.3793  1.7275
13838SOL    HW242616   1.608   3.645   2.321  1.0052  0.7048  0.6176
13839SOL     OW42617   2.474   8.347   2.311  0.1791  0.5565 -0.0649
13839SOL    HW142618   2.514   8.432   2.293  1.3348 -0.3049 -1.7576
13839SOL    HW242619   2.394   8.347   2.259  1.7347 -0.5378 -2.6090
13840SOL     OW42620   0.488   1.294   8.176  0.3703 -0.0626  0.0127
13840SOL    HW142621   0.488   1.212   8.226  1.9246  0.8746  1.6621
13840SOL    HW242622   0.398   1.302   8.144 -0.4647 -1.2043  1.8841
13841SOL     OW42623   6.896   0.384   8.133 -0.2070 -0.0285  0.0213
13841SOL    HW142624   6.916   0.344   8.217  2.0914 -0.3564 -0.6074
13841SOL    HW242625   6.951   0.336   8.070  1.0304  2.6457 -1.0895
13842SOL     OW42626   5.670   2.013   3.047 -0.1764 -0.5302 -0.3982
13842SOL    HW142627   5.592   1.958   3.055  0.0812 -0.8446 -0.0015
13842SOL    HW242628   5.742   1.958   3.079  0.1396 -0.0919 -0.3411
13843SOL     OW42629   2.317   4.465   3.953 -0.0049 -0.0198 -0.0777
13843SOL    HW142630   2.253   4.534   3.936 -0.1675 -0.7419 -3.0323
13843SOL    HW242631   2.273   4.405   4.012 -2.0721 -0.3643 -1.8280
13844SOL     OW42632   5.851   9.047   7.279  0.0545 -0.3851  0.5578
13844SOL    HW142633   5.934   9.085   7.308  0.8057 -0.6996 -1.0876
13844SOL    HW242634   5.785   9.110   7.309  0.7924 -0.4457  2.4541
13845SOL     OW42635   4.548   8.051   5.151  0.4375 -0.1870 -0.0630
13845SOL    HW142636   4.477   7.994   5.180  1.0174 -1.5099 -1.1076
13845SOL    HW242637   4.584   8.007   5.074  2.6664  0.2229  0.6608
13846SOL     OW42638   5.283   3.300   6.269 -0.0923  0.0444  0.0290
13846SOL    HW142639   5.302   3.208   6.252 -1.4416 -0.2750  0.1191
13846SOL    HW242640   5.337   3.321   6.345  1.3238 -0.2392 -0.8580
13847SOL     OW42641   0.666   1.730   4.547  0.2594  0.2567  0.0733
13847SOL    HW142642   0.634   1.785   4.475  1.5525  0.0013 -0.7349
13847SOL    HW242643   0.593   1.726   4.609 -1.9731 -1.7266 -2.4255
13848SOL     OW42644   8.729   7.409   8.674 -0.2913  0.4179  0.2224
13848SOL    HW142645   8.651   7.406   8.729 -0.2310 -0.5663  0.2762
13848SOL    HW242646   8.712   7.346   8.604  0.4354  0.2196  0.2129
13849SOL     OW42647   5.496   3.068   1.445 -0.4224 -0.5562 -0.3139
13849SOL    HW142648   5.550   2.992   1.424 -0.4875 -0.7302  0.1326
13849SOL    HW242649   5.424   3.032   1.497 -0.8163 -0.2849 -0.6693
13850SOL     OW42650   0.603   5.794   1.270 -0.0026  0.0892 -0.5229
13850SOL    HW142651   0.583   5.851   1.195  0.5152  0.3368 -0.4747
13850SOL    HW242652   0.582   5.847   1.347  1.3821  0.5845 -0.4544
13851SOL     OW42653   1.252   6.651   5.982 -0.0581  0.3596  0.5143
13851SOL    HW142654   1.337   6.641   6.025  0.5246 -0.0997 -0.6920
13851SOL    HW242655   1.190   6.664   6.054  0.8695 -0.3961  1.4845
13852SOL     OW42656   3.136   6.856   4.577  0.7600 -0.0017  0.0598
13852SOL    HW142657   3.055   6.899   4.551  0.0922 -1.1316  0.2139
13852SOL    HW242658   3.178   6.918   4.637 -2.1255 -1.0936  3.5933
13853SOL     OW42659   8.400   5.345   7.847 -0.3193 -0.4512 -0.4000
13853SOL    HW142660   8.434   5.398   7.775  1.0870 -0.6279  0.0975
13853SOL    HW242661   8.450   5.373   7.924 -1.6380 -0.4152  0.4779
13854SOL     OW42662   5.549   0.940   5.003  0.2721  0.0588 -0.1719
13854SOL    HW142663   5.498   1.006   4.957 -0.5889 -1.2534 -1.1879
13854SOL    HW242664   5.495   0.861   4.999  1.8008 -1.0344 -0.1242
13855SOL     OW42665   7.924   1.250   7.286 -0.5968  0.0137  0.0967
13855SOL    HW142666   7.975   1.325   7.255  0.5106 -0.1467  1.4252
13855SOL    HW242667   7.869   1.226   7.212  0.8492  0.5569 -1.2031
13856SOL     OW42668   7.435   6.524   2.265 -0.1730 -0.6362  0.5230
13856SOL    HW142669   7.423   6.577   2.344  1.0036 -0.9259  0.9160
13856SOL    HW242670   7.475   6.584   2.202 -1.2312 -0.3690  0.0804
13857SOL     OW42671   8.196   0.864   1.800  0.3978  0.4310  0.5101
13857SOL    HW142672   8.145   0.887   1.878  1.0712  1.5876  0.6492
13857SOL    HW242673   8.270   0.813   1.834  0.9265  1.3021  0.7122
13858SOL     OW42674   5.508   4.036   5.785  0.0374  0.2889 -0.0589
13858SOL    HW142675   5.467   4.113   5.823 -1.4819 -1.0134  1.1037
13858SOL    HW242676   5.536   3.984   5.861  1.1204 -0.2662 -0.8144
13859SOL     OW42677   5.244   7.130   6.333 -0.3137  0.6563 -0.2571
13859SOL    HW142678   5.239   7.048   6.283  2.1327 -0.1276  0.6080
13859SOL    HW242679   5.306   7.184   6.284  0.8853  0.4998  1.0034
13860SOL     OW42680   8.230   6.922   4.188 -0.4548  0.0005  0.0636
13860SOL    HW142681   8.316   6.887   4.213 -0.6986 -0.3085  0.4756
13860SOL    HW242682   8.250   6.985   4.118  0.0445 -0.5728 -0.3288
13861SOL     OW42683   0.292   0.343   3.363  0.2004 -0.1426 -0.4269
13861SOL    HW142684   0.385   0.356   3.384  0.1265 -0.4103  0.0752
13861SOL    HW242685   0.266   0.267   3.414 -0.6702  0.8093  0.5903
13862SOL     OW42686   7.821   7.620   8.834 -0.4454 -0.4576  0.1067
13862SOL    HW142687   7.802   7.714   8.833 -0.0205 -0.3748 -0.9062
13862SOL    HW242688   7.892   7.611   8.898  1.0352  0.2368 -1.3655
13863SOL     OW42689   1.610   0.462   5.890 -0.4602 -0.1549  0.4458
13863SOL    HW142690   1.568   0.394   5.838  1.3040 -0.6210 -0.4579
13863SOL    HW242691   1.695   0.425   5.914  0.6356  1.7624 -0.2317
13864SOL     OW42692   2.421   2.400   4.721  0.5248  0.3550 -0.5143
13864SOL    HW142693   2.408   2.380   4.629 -0.3777 -0.6577 -0.1828
13864SOL    HW242694   2.409   2.317   4.766 -0.3869  1.0866  0.6410
13865SOL     OW42695   2.471   8.521   0.017  0.1647 -0.1502 -0.0047
13865SOL    HW142696   2.431   8.475   0.091 -1.0928 -2.1817 -1.8086
13865SOL    HW242697   2.396   8.547  -0.037  1.0533 -2.5169 -2.6182
13866SOL     OW42698   0.096   0.141   5.315 -0.3110 -0.1173  0.3791
13866SOL    HW142699   0.142   0.208   5.366 -3.3677  2.5128 -0.0102
13866SOL    HW242700   0.014   0.128   5.362 -1.1842 -1.1291 -1.3512
13867SOL     OW42701   1.691   8.482   7.364  0.0519  0.2705  0.0024
13867SOL    HW142702   1.715   8.389   7.360 -1.3649 -0.1141 -0.1595
13867SOL    HW242703   1.685   8.501   7.458 -1.7182 -0.3930  0.0502
13868SOL     OW42704   6.113   9.086   6.696  0.4665  0.4945  0.2032
13868SOL    HW142705   6.201   9.050   6.712  1.2410  2.6190  1.0848
13868SOL    HW242706   6.085   9.119   6.781 -1.8902 -1.4056  0.3025
13869SOL     OW42707   9.075   8.310   4.145 -0.1544 -0.2257 -0.5670
13869SOL    HW142708   9.090   8.262   4.226  1.1592 -1.1123 -1.2973
13869SOL    HW242709   9.130   8.387   4.152 -1.1472  0.4606 -0.0245
13870SOL     OW42710   2.541   7.152   8.757  0.3903 -0.4335  0.6143
13870SOL    HW142711   2.502   7.066   8.771 -0.5080 -0.0167  0.7752
13870SOL    HW242712   2.634   7.140   8.775  0.3637 -1.4938  0.0858
13871SOL     OW42713   6.750   6.763   0.246  0.3594 -0.3942  0.4597
13871SOL    HW142714   6.731   6.843   0.195  0.3962 -0.7401 -0.1033
13871SOL    HW242715   6.732   6.788   0.336  1.0586  0.4715  0.3736
13872SOL     OW42716   4.675   3.519   4.174 -0.1831  0.0251  0.3442
13872SOL    HW142717   4.652   3.601   4.218 -3.5137 -0.6670  0.2059
13872SOL    HW242718   4.668   3.540   4.081 -0.7711 -0.3290  0.3048
13873SOL     OW42719   5.857   4.470   2.987  0.2101 -0.1234  0.1646
13873SOL    HW142720   5.918   4.412   3.033 -0.4909  0.4736  1.9206
13873SOL    HW242721   5.815   4.520   3.056 -0.4482  1.2816 -1.1926
13874SOL     OW42722   3.338   8.288   1.590 -0.0708  0.2145  0.1834
13874SOL    HW142723   3.243   8.284   1.603  0.1353 -2.0313  1.5094
13874SOL    HW242724   3.372   8.326   1.671  0.1398  2.0999 -0.7371
13875SOL     OW42725   7.821   0.509   7.832 -0.0546  0.2017  0.3286
13875SOL    HW142726   7.765   0.462   7.895  0.8858 -0.4655  0.6959
13875SOL    HW242727   7.760   0.561   7.780 -1.0890 -0.9474  0.3304
13876SOL     OW42728   5.900   3.244   5.105  0.5949  0.3166  0.4842
13876SOL    HW142729   5.947   3.325   5.086 -0.2191  0.3426 -1.7089
13876SOL    HW242730   5.826   3.244   5.044  0.6569 -2.1356  0.3032
13877SOL     OW42731   2.983   3.091   5.060 -0.0305  0.0766 -0.0473
13877SOL    HW142732   3.039   3.154   5.105 -0.4749  0.0086  0.6143
13877SOL    HW242733   2.997   3.108   4.967  0.7684  0.3369  0.1194
13878SOL     OW42734   1.771   7.094   6.549  0.3044 -0.2393  0.0416
13878SOL    HW142735   1.754   7.081   6.455 -1.1707  0.8700  0.1216
13878SOL    HW242736   1.692   7.063   6.592  0.0923  1.1948  0.7490
13879SOL     OW42737   3.732   6.193   7.794 -0.1038 -0.4737  0.3351
13879SOL    HW142738   3.825   6.181   7.773 -0.0652 -0.7783  0.6760
13879SOL    HW242739   3.707   6.112   7.838 -0.1853  0.1375  1.4603
13880SOL     OW42740   2.478   0.430   5.535  1.4779  0.2337  0.2198
13880SOL    HW142741   2.565   0.463   5.556  0.4523  3.1690  0.2672
13880SOL    HW242742   2.418   0.497   5.567 -0.6188  0.1805 -3.0838
13881SOL     OW42743   8.770   7.221   2.669  0.0122 -0.2614  0.1687
13881SOL    HW142744   8.827   7.297   2.676 -1.0153  0.4038  2.1829
13881SOL    HW242745   8.821   7.149   2.706 -0.4490  0.3907  2.2515
13882SOL     OW42746   3.967   7.907   7.642  0.0464  0.1925  0.3632
13882SOL    HW142747   4.011   7.887   7.725  0.0378  1.7866  0.7773
13882SOL    HW242748   3.876   7.881   7.656  0.1683 -0.0910  0.6393
13883SOL     OW42749   2.436   4.052   6.889  0.3951 -0.0355  0.3097
13883SOL    HW142750   2.418   4.079   6.799  2.0805  2.2586  0.5672
13883SOL    HW242751   2.362   3.996   6.912 -0.0431 -0.7717 -2.4995
13884SOL     OW42752   1.954   2.461   6.848 -0.2007 -0.4471  0.0490
13884SOL    HW142753   1.945   2.453   6.753  0.0809  1.0984 -0.1248
13884SOL    HW242754   1.874   2.504   6.877  0.8086  1.4704  0.1440
13885SOL     OW42755   5.502   6.965   5.992 -0.2073  0.1425 -0.1616
13885SOL    HW142756   5.523   6.876   5.963 -0.6039 -1.0943  2.9558
13885SOL    HW242757   5.406   6.968   5.989 -0.2037  0.3643 -0.0236
13886SOL     OW42758   2.292   6.371   3.502 -0.1414 -0.4396 -0.0545
13886SOL    HW142759   2.214   6.416   3.534  0.1391 -0.9143  1.3506
13886SOL    HW242760   2.345   6.439   3.462 -0.2873  0.2640  0.9292
13887SOL     OW42761   2.548   5.468   7.326 -0.1194 -0.0844  0.0561
13887SOL    HW142762   2.628   5.512   7.356 -0.8028  0.6047  0.9552
13887SOL    HW242763   2.563   5.375   7.344  1.3164 -0.2528 -1.7897
13888SOL     OW42764   2.366   2.138   4.770 -0.0452  1.3222 -0.5182
13888SOL    HW142765   2.364   2.078   4.695 -3.0619 -0.1302  0.5484
13888SOL    HW242766   2.385   2.082   4.845  0.3283  2.3106  0.1445
13889SOL     OW42767   2.529   3.921   0.237  0.0330 -0.1226  0.2941
13889SOL    HW142768   2.443   3.961   0.250  0.2558  0.9916 -1.3184
13889SOL    HW242769   2.588   3.973   0.292 -0.2377 -0.6227  1.0768
13890SOL     OW42770   8.177   1.024   2.244  0.3219  0.5984 -0.0659
13890SOL    HW142771   8.143   0.992   2.161 -0.7397  1.0052  0.2026
13890SOL    HW242772   8.144   1.113   2.252  1.3316  0.9645  0.2848
13891SOL     OW42773   2.101   4.799   8.808  0.4450 -0.6873  0.1805
13891SOL    HW142774   2.091   4.848   8.727 -1.7162 -1.0142  0.1910
13891SOL    HW242775   2.155   4.724   8.784 -1.1818 -1.4570 -1.3188
13892SOL     OW42776   7.634   6.701   5.382 -0.0959  0.0665  0.1139
13892SOL    HW142777   7.706   6.658   5.335  0.4331 -0.8445  1.7074
13892SOL    HW242778   7.676   6.771   5.431 -0.4928  0.3343  0.0746
13893SOL     OW42779   3.846   0.444   6.989 -0.4695 -0.4633  0.2168
13893SOL    HW142780   3.915   0.502   6.956  0.2928 -1.7262 -0.4820
13893SOL    HW242781   3.776   0.503   7.016 -0.4122  0.7577 -2.0217
13894SOL     OW42782   0.160   1.226   8.616 -0.5445 -0.2369  0.0475
13894SOL    HW142783   0.168   1.166   8.691 -2.6537 -1.2812 -0.4925
13894SOL    HW242784   0.229   1.291   8.631  1.4521 -2.4064  1.0043
13895SOL     OW42785   4.320   8.382   4.662 -0.3153  0.5945 -0.6546
13895SOL    HW142786   4.239   8.388   4.713  1.5692 -0.4337  2.7603
13895SOL    HW242787   4.367   8.462   4.683  0.3542  0.3173 -1.0894
13896SOL     OW42788   6.216   8.881   5.272  0.2466  0.6363 -0.1203
13896SOL    HW142789   6.232   8.975   5.276  2.6585  0.2518  0.9782
13896SOL    HW242790   6.283   8.847   5.212 -0.3247 -0.4480 -0.1816
13897SOL     OW42791   7.264   4.074   4.538 -0.1260  0.0294 -0.5242
13897SOL    HW142792   7.223   4.137   4.479 -0.8904 -1.1367 -1.2859
13897SOL    HW242793   7.323   4.126   4.592 -3.4243  2.0095  1.4437
13898SOL     OW42794   6.119   6.248   6.523  0.5548  0.1259 -0.2553
13898SOL    HW142795   6.068   6.167   6.517  0.4704  0.2180 -0.8362
13898SOL    HW242796   6.154   6.261   6.435 -0.9579  1.6992 -0.6901
13899SOL     OW42797   6.251   6.905   7.882  0.5070 -0.0259  0.1372
13899SOL    HW142798   6.259   6.993   7.920 -3.0832 -0.0378  1.3750
13899SOL    HW242799   6.197   6.858   7.945  0.5444 -2.4533 -1.5343
13900SOL     OW42800   0.592   7.465   3.626  0.0024  0.2406  0.0039
13900SOL    HW142801   0.598   7.520   3.704  1.3752 -0.1729  0.2208
13900SOL    HW242802   0.542   7.388   3.654  0.8180 -0.0883  0.6123
13901SOL     OW42803   6.102   6.636   2.238  0.1302  0.4600  0.2618
13901SOL    HW142804   6.025   6.614   2.291  0.0234  1.3776  0.5072
13901SOL    HW242805   6.168   6.572   2.264  0.1596  1.0286  1.7133
13902SOL     OW42806   8.908   0.855   8.815  0.1519  0.2808  0.8391
13902SOL    HW142807   8.858   0.833   8.894  0.1143 -1.8305  0.2776
13902SOL    HW242808   8.909   0.774   8.764  0.3709  1.5323 -1.2420
13903SOL     OW42809   4.786   7.670   3.537 -0.3583 -0.3516  0.5352
13903SOL    HW142810   4.717   7.612   3.504 -1.1049  0.8387 -0.0676
13903SOL    HW242811   4.739   7.735   3.589  0.4792 -0.3610  1.3252
13904SOL     OW42812   2.837   3.139   7.630 -0.5589 -0.0856 -0.3357
13904SOL    HW142813   2.915   3.194   7.620 -0.6775  0.3317  0.8853
13904SOL    HW242814   2.784   3.158   7.552  0.6298 -0.5275 -1.2855
13905SOL     OW42815   3.211   8.363   5.522 -0.0565 -0.1092 -0.1137
13905SOL    HW142816   3.283   8.412   5.482 -0.3589  0.4420  0.0193
13905SOL    HW242817   3.139   8.371   5.461  0.5921 -2.4491 -1.3107
13906SOL     OW42818   1.746   9.044   8.025 -0.5054 -0.1680  0.0839
13906SOL    HW142819   1.812   9.082   7.966  0.2722 -1.1176  0.3169
13906SOL    HW242820   1.794   8.979   8.076 -1.6230 -0.8666  0.2796
13907SOL     OW42821   8.124   3.916   4.207 -0.5838  0.4176 -0.2224
13907SOL    HW142822   8.218   3.919   4.195 -0.6596 -1.9566 -2.1098
13907SOL    HW242823   8.105   3.824   4.227 -2.6164  0.5178 -1.4284
13908SOL     OW42824   6.936   3.653   8.173  0.0332  0.1850 -0.0168
13908SOL    HW142825   6.973   3.608   8.249 -0.8752  1.3521  1.1622
13908SOL    HW242826   6.846   3.622   8.168 -0.5081  1.5647  0.6270
13909SOL     OW42827   0.456   4.381   8.165 -0.5560  0.2020 -0.1051
13909SOL    HW142828   0.365   4.384   8.136 -0.2734  0.2892 -1.0192
13909SOL    HW242829   0.507   4.385   8.084  0.2772  0.9720  0.4446
13910SOL     OW42830   3.416   8.730   2.414 -0.3474 -0.1152 -0.3091
13910SOL    HW142831   3.412   8.814   2.459 -0.4875 -0.0169 -0.5094
13910SOL    HW242832   3.502   8.694   2.439 -0.4292 -0.0685  0.0496
13911SOL     OW42833   4.119   8.595   8.206  0.4811  0.2979  0.1030
13911SOL    HW142834   4.061   8.549   8.267  1.2528 -1.2208 -0.2657
13911SOL    HW242835   4.060   8.653   8.158 -0.8291 -1.3638 -0.4177
13912SOL     OW42836   3.868   4.138   1.980  0.5435  0.3125 -0.2765
13912SOL    HW142837   3.913   4.087   1.913  1.6065  0.2384  0.4753
13912SOL    HW242838   3.838   4.073   2.043  0.6795  0.4985 -0.0203
13913SOL     OW42839   4.841   5.421   0.876  0.0082  0.0162 -0.0958
13913SOL    HW142840   4.886   5.356   0.822  0.9639  1.4000 -1.0471
13913SOL    HW242841   4.845   5.386   0.965  1.4033 -0.7384 -0.4219
13914SOL     OW42842   5.038   7.189   7.205  0.4398 -0.0518 -0.3234
13914SOL    HW142843   4.948   7.161   7.188  0.3568  0.3338 -0.5162
13914SOL    HW242844   5.091   7.144   7.140 -0.1429  3.4234 -3.5480
13915SOL     OW42845   0.448   8.981   4.902  0.3346 -0.1933  0.5878
13915SOL    HW142846   0.397   9.058   4.878  0.2627 -0.6712 -0.8466
13915SOL    HW242847   0.539   9.011   4.899  0.3189 -0.2000 -0.1701
13916SOL     OW42848   6.089   0.937   3.933 -0.2759 -0.1659 -0.4643
13916SOL    HW142849   6.153   0.994   3.891  1.8190 -1.2796  1.0312
13916SOL    HW242850   6.023   0.922   3.865  0.4571  1.8735 -1.7433
13917SOL     OW42851   8.094   6.786   5.476 -0.0656  0.4166 -0.4188
13917SOL    HW142852   8.014   6.734   5.473  0.6412 -1.0969  2.8094
13917SOL    HW242853   8.164   6.725   5.452  0.4809  0.6984  0.4112
13918SOL     OW42854   3.483   0.827   6.052 -0.5937  0.1455 -0.1067
13918SOL    HW142855   3.525   0.818   6.138  0.9887 -1.3213 -0.9742
13918SOL    HW242856   3.529   0.899   6.010  0.1446 -0.5497 -0.5213
13919SOL     OW42857   1.905   5.441   5.869  0.3516 -0.1924 -0.3897
13919SOL    HW142858   1.992   5.446   5.830 -0.3099 -1.3131 -2.1419
13919SOL    HW242859   1.845   5.438   5.795 -0.8620 -4.7095  0.4655
13920SOL     OW42860   4.759   4.983   1.193  0.0670  0.4114  0.6828
13920SOL    HW142861   4.675   5.029   1.195 -0.6912 -0.8771 -0.1703
13920SOL    HW242862   4.754   4.920   1.265  0.3059  0.3252  0.6250
13921SOL     OW42863   7.290   9.098   8.997 -0.5146  0.3239  0.2096
13921SOL    HW142864   7.366   9.119   9.051 -0.8219 -0.6763  1.0541
13921SOL    HW242865   7.316   9.122   8.908  0.9271 -0.3393  0.4253
13922SOL     OW42866   0.308   7.376   5.866 -0.0327  0.1786  0.3404
13922SOL    HW142867   0.340   7.376   5.776 -1.2413  1.7823 -0.1385
13922SOL    HW242868   0.380   7.412   5.917  1.1851 -2.0060  0.2893
13923SOL     OW42869   5.124   2.728   7.678 -0.1595  0.2641 -0.0171
13923SOL    HW142870   5.069   2.661   7.636 -0.4055 -0.3986  1.2878
13923SOL    HW242871   5.071   2.759   7.752  0.0490  1.7618 -0.4734
13924SOL     OW42872   5.224   8.434   2.013 -0.4368  0.2063 -0.3130
13924SOL    HW142873   5.144   8.443   2.065 -1.4159 -1.5426 -1.4633
13924SOL    HW242874   5.203   8.474   1.929 -0.2013 -0.5588 -0.7365
13925SOL     OW42875   1.900   2.723   0.982 -0.0542 -0.3228  0.0046
13925SOL    HW142876   1.993   2.731   1.000 -0.0193  0.6734 -0.5267
13925SOL    HW242877   1.871   2.649   1.035  0.5817  0.7254  1.8931
13926SOL     OW42878   3.585   5.984   1.654 -0.4814  0.0730  0.1694
13926SOL    HW142879   3.572   6.051   1.587 -0.8404  1.4416  1.5367
13926SOL    HW242880   3.628   5.912   1.609 -0.3905  1.0881 -1.4331
13927SOL     OW42881   4.696   5.637   7.720 -0.4940 -0.2331  0.1827
13927SOL    HW142882   4.686   5.578   7.645  2.3171 -0.3882 -0.1892
13927SOL    HW242883   4.779   5.682   7.704  0.0021  0.0468  2.9816
13928SOL     OW42884   8.828   5.486   4.863  0.1472  0.5845 -0.3828
13928SOL    HW142885   8.795   5.403   4.896 -0.8906  1.3369  0.5822
13928SOL    HW242886   8.770   5.508   4.790  0.7760  0.2044 -1.0069
13929SOL     OW42887   2.375   4.566   0.182 -0.3172 -0.3296 -0.1650
13929SOL    HW142888   2.451   4.622   0.200 -1.7484  1.1889  1.6284
13929SOL    HW242889   2.369   4.508   0.258 -1.3650  0.1104  0.1118
13930SOL     OW42890   4.582   5.409   2.075  0.1088 -0.2161 -0.4872
13930SOL    HW142891   4.666   5.380   2.039 -0.5143 -0.3131 -1.9553
13930SOL    HW242892   4.605   5.462   2.151  1.5851  0.7560 -1.5442
13931SOL     OW42893   8.849   0.296   2.175 -0.1620 -0.4791  0.3346
13931SOL    HW142894   8.785   0.308   2.104  0.3037 -2.2737 -0.4437
13931SOL    HW242895   8.850   0.201   2.190  0.4415 -0.2200  2.1236
13932SOL     OW42896   0.846   3.123   0.054  0.1549  0.2065 -0.8602
13932SOL    HW142897   0.752   3.117   0.033  0.0262  0.0209 -0.2801
13932SOL    HW242898   0.852   3.088   0.143  1.0922 -1.8311 -1.6738
13933SOL     OW42899   4.210   3.721   8.465 -0.7776 -0.0386 -0.2567
13933SOL    HW142900   4.199   3.628   8.451  0.6013 -0.7397  2.5400
13933SOL    HW242901   4.130   3.749   8.510 -0.1387 -0.4888  1.2118
13934SOL     OW42902   6.193   1.332   0.753  0.3689  0.3276 -0.9867
13934SOL    HW142903   6.247   1.410   0.769  0.5182  0.5871 -2.5643
13934SOL    HW242904   6.256   1.263   0.730  0.1346  0.2115 -1.2859
13935SOL     OW42905   1.219   3.509   3.714  0.1519  0.1717 -0.7982
13935SOL    HW142906   1.283   3.576   3.689  0.6366 -0.3781 -1.0443
13935SOL    HW242907   1.227   3.442   3.646  1.6746 -1.4925  0.9180
13936SOL     OW42908   0.550   3.457   4.589  0.4567 -0.1009  0.2682
13936SOL    HW142909   0.635   3.412   4.582  1.2229  1.1788  0.8350
13936SOL    HW242910   0.573   3.545   4.620 -1.2050 -0.2216  2.0070
13937SOL     OW42911   6.086   5.054   6.638 -0.7400  0.4901 -0.4137
13937SOL    HW142912   6.050   5.142   6.651  1.0347  1.1210  0.5995
13937SOL    HW242913   6.133   5.060   6.555  0.4025  0.8981  0.2374
13938SOL     OW42914   9.034   0.760   1.178  0.0503  0.5504  1.0688
13938SOL    HW142915   8.965   0.752   1.112  0.1743  1.9924  0.7244
13938SOL    HW242916   9.013   0.694   1.243 -1.0323  0.2251  0.4155
13939SOL     OW42917   6.955   5.486   2.165 -0.5158 -0.3546 -0.3979
13939SOL    HW142918   6.991   5.400   2.144 -0.9258 -0.3448 -1.1828
13939SOL    HW242919   6.966   5.537   2.085 -0.0693  0.3984  0.1322
13940SOL     OW42920   8.710   4.481   8.816 -0.3525 -0.1783  0.5426
13940SOL    HW142921   8.662   4.415   8.767 -1.7337  1.7166 -0.8042
13940SOL    HW242922   8.801   4.449   8.817 -0.4687 -0.8481 -2.3601
13941SOL     OW42923   4.555   7.039   0.366 -0.3773  0.1547 -0.0048
13941SOL    HW142924   4.532   6.948   0.386 -0.0350 -0.3553 -1.7368
13941SOL    HW242925   4.603   7.034   0.283  0.7852  1.7971  0.5156
13942SOL     OW42926   8.919   6.847   2.449  0.4810 -0.4440 -0.3038
13942SOL    HW142927   8.835   6.809   2.472  0.5887 -0.2220  0.4596
13942SOL    HW242928   8.914   6.860   2.354 -0.6750  0.3916 -0.1462
13943SOL     OW42929   1.142   0.457   5.804 -0.7009  0.8671  0.2958
13943SOL    HW142930   1.131   0.530   5.744 -0.2487 -1.0772 -2.3663
13943SOL    HW242931   1.226   0.418   5.778 -0.2778  0.1772  2.5287
13944SOL     OW42932   7.371   0.694   2.041 -0.1848 -0.3788  0.1740
13944SOL    HW142933   7.380   0.628   1.971  1.8045  0.2623 -0.2443
13944SOL    HW242934   7.458   0.698   2.080 -0.8852  0.3889  1.7123
13945SOL     OW42935   7.139   3.761   5.481 -0.1495  0.0968 -0.4109
13945SOL    HW142936   7.088   3.721   5.411 -0.6286 -0.2789  0.1455
13945SOL    HW242937   7.077   3.772   5.553  0.6275 -0.7277  0.4162
13946SOL     OW42938   5.341   3.481   1.105  0.1136  0.5602  0.1276
13946SOL    HW142939   5.270   3.529   1.147  0.0186  0.9179 -0.4296
13946SOL    HW242940   5.413   3.544   1.101  0.0211  0.6300 -0.5174
13947SOL     OW42941   7.570   6.698   2.482 -0.2075  0.1075  0.0838
13947SOL    HW142942   7.620   6.778   2.498 -0.1863 -0.1080  1.1656
13947SOL    HW242943   7.636   6.629   2.474 -0.1986  0.2280 -1.2590
13948SOL     OW42944   3.511   8.942   7.756  0.3692  0.4775 -1.0275
13948SOL    HW142945   3.544   8.869   7.704  0.6188 -2.5222  2.8624
13948SOL    HW242946   3.590   8.991   7.781  0.5888  0.1691 -1.1038
13949SOL     OW42947   3.670   8.396   5.293 -0.0405  0.2972 -0.2593
13949SOL    HW142948   3.737   8.464   5.285  0.3141  0.1852  1.3753
13949SOL    HW242949   3.719   8.317   5.316 -0.7639  0.4028  1.8109
13950SOL     OW42950   5.956   5.948   4.990  0.5559  0.3030 -0.1266
13950SOL    HW142951   5.901   5.923   4.916 -0.1686  1.6229 -0.0765
13950SOL    HW242952   5.958   5.871   5.046 -1.4374  0.2656 -0.0343
13951SOL     OW42953   7.768   9.044   8.290  0.4585  0.3219 -0.0628
13951SOL    HW142954   7.811   9.130   8.293  2.1873 -0.3696 -2.1481
13951SOL    HW242955   7.837   8.981   8.310 -0.6814 -0.6513  0.9791
13952SOL     OW42956   8.989   8.181   5.989 -0.5935 -0.2474 -0.5961
13952SOL    HW142957   8.999   8.273   5.965 -1.2047 -0.4013 -1.4938
13952SOL    HW242958   8.897   8.162   5.974 -0.8919 -0.5468  1.3141
13953SOL     OW42959   5.563   5.797   1.421 -0.2070 -0.1774  0.6593
13953SOL    HW142960   5.475   5.762   1.437  0.5582 -1.6434  1.8308
13953SOL    HW242961   5.608   5.789   1.504  1.2793 -0.1248 -0.1063
13954SOL     OW42962   8.458   1.912   3.047 -0.3998  0.1810  0.2217
13954SOL    HW142963   8.459   1.999   3.087 -0.4253 -0.4998  1.7627
13954SOL    HW242964   8.542   1.907   3.000 -0.0602  0.7600  0.7414
13955SOL     OW42965   2.502   7.045   2.425  0.5901  0.1711  0.0034
13955SOL    HW142966   2.480   6.954   2.406  0.7098  0.2520 -0.5161
13955SOL    HW242967   2.578   7.064   2.370  0.5238  0.6076  0.0591
13956SOL     OW42968   1.649   1.376   4.721  0.0284  0.0505  0.2844
13956SOL    HW142969   1.718   1.441   4.737  0.7995 -0.4111 -0.9726
13956SOL    HW242970   1.641   1.328   4.803 -0.2962  1.4698  1.1223
13957SOL     OW42971   1.226   5.894   2.096 -0.4766 -0.6359 -0.2081
13957SOL    HW142972   1.294   5.826   2.086  1.8579  1.5208  0.0044
13957SOL    HW242973   1.185   5.900   2.011  0.8283 -0.8307 -0.8809
13958SOL     OW42974   3.341   3.197   2.560  0.5602  0.5163  0.6981
13958SOL    HW142975   3.344   3.270   2.622  2.7284  1.6218 -0.6059
13958SOL    HW242976   3.369   3.234   2.476 -2.1138 -0.9538 -1.0051
13959SOL     OW42977   5.034   4.857   1.633  0.2672  0.5850  0.2985
13959SOL    HW142978   4.987   4.814   1.705 -0.0456 -0.8385 -0.7179
13959SOL    HW242979   5.119   4.813   1.630 -0.3332 -0.5718 -1.2381
13960SOL     OW42980   0.830   4.601   5.795 -0.3893  0.1439 -0.5267
13960SOL    HW142981   0.866   4.687   5.772  0.1088 -0.2831 -1.4239
13960SOL    HW242982   0.752   4.592   5.739  0.3141 -0.5263 -1.4348
13961SOL     OW42983   2.145   6.189   0.568  0.2200 -0.6696  0.0995
13961SOL    HW142984   2.224   6.196   0.620  0.8098  1.0124 -0.9356
13961SOL    HW242985   2.076   6.226   0.623  0.4839 -0.5658  0.3623
13962SOL     OW42986   7.363   5.466   0.403 -0.0807 -0.0133 -0.3728
13962SOL    HW142987   7.408   5.454   0.319 -1.0732  1.5418 -1.1700
13962SOL    HW242988   7.338   5.377   0.429 -0.0847 -0.4931 -1.9178
13963SOL     OW42989   6.488   8.418   7.035 -0.4096 -0.1375  0.4774
13963SOL    HW142990   6.499   8.506   7.000 -3.4499 -0.0357 -0.5141
13963SOL    HW242991   6.505   8.360   6.961  1.3518 -0.4492  1.0670
13964SOL     OW42992   6.967   7.376   8.865 -0.2009  0.0258  0.0344
13964SOL    HW142993   6.974   7.457   8.916 -1.1297  0.3745 -0.3662
13964SOL    HW242994   7.029   7.387   8.793  1.3062 -0.5737  1.1880
13965SOL     OW42995   8.265   1.929   6.868 -0.2427  0.1450  0.3974
13965SOL    HW142996   8.292   2.004   6.815  0.1242 -0.5499 -0.4097
13965SOL    HW242997   8.320   1.857   6.838  0.0379 -0.2491  1.7859
13966SOL     OW42998   7.064   1.784   1.548 -0.2671 -0.1045 -0.1620
13966SOL    HW142999   7.144   1.837   1.548 -0.0032 -0.4803  0.3591
13966SOL    HW243000   7.001   1.836   1.598 -0.5615  0.4837 -1.1253
13967SOL     OW43001   2.921   2.470   2.465  0.1866  0.0124 -0.7815
13967SOL    HW143002   2.922   2.462   2.560 -1.1940 -0.9314 -0.8092
13967SOL    HW243003   3.008   2.440   2.438  0.3860 -0.3024  0.1507
13968SOL     OW43004   2.890   8.492   5.613 -0.2258 -0.1252  0.1102
13968SOL    HW143005   2.965   8.435   5.631 -1.4175 -1.8554 -0.0952
13968SOL    HW243006   2.874   8.481   5.519 -0.2220  0.9223 -0.0266
13969SOL     OW43007   4.406   5.451   6.444 -0.3043  0.1270  0.0844
13969SOL    HW143008   4.396   5.375   6.502 -0.5176  0.2604  0.2242
13969SOL    HW243009   4.450   5.516   6.498  0.6535 -0.1900 -0.2959
13970SOL     OW43010   7.342   6.025   1.595 -0.3941  0.3274  0.2296
13970SOL    HW143011   7.423   6.071   1.617 -0.0197 -0.0432 -0.3476
13970SOL    HW243012   7.361   5.981   1.512 -1.1948  0.2497  0.0804
13971SOL     OW43013   0.515   3.962   0.123 -0.5072 -0.0912  0.0970
13971SOL    HW143014   0.514   3.905   0.047 -0.0369 -1.1863  0.8854
13971SOL    HW243015   0.605   3.993   0.129 -0.8666  1.1691 -0.6133
13972SOL     OW43016   1.062   5.398   1.642  0.4617  0.2136 -0.2403
13972SOL    HW143017   1.025   5.327   1.589 -1.0964 -1.6483  3.0188
13972SOL    HW243018   0.986   5.450   1.668  1.2206  1.2394 -0.0248
13973SOL     OW43019   7.274   6.590   0.106  0.0662  0.4069 -0.0488
13973SOL    HW143020   7.262   6.526   0.176 -1.6876 -0.5257 -1.1267
13973SOL    HW243021   7.186   6.609   0.075  0.7097  1.7759 -1.1606
13974SOL     OW43022   8.830   0.316   4.374  0.1354 -0.0242  0.4794
13974SOL    HW143023   8.887   0.377   4.329  1.1622 -0.0897  1.6332
13974SOL    HW243024   8.876   0.232   4.370  0.4812  0.0637  1.9906
13975SOL     OW43025   8.873   2.542   0.862 -0.2907 -0.4339  0.0991
13975SOL    HW143026   8.842   2.460   0.826 -1.1383 -0.0770 -0.0103
13975SOL    HW243027   8.850   2.608   0.796  1.8446 -0.3013 -0.5684
13976SOL     OW43028   5.311   0.561   5.108 -0.5540 -0.2876  0.2403
13976SOL    HW143029   5.350   0.619   5.043 -2.5804  0.1683 -0.6520
13976SOL    HW243030   5.351   0.476   5.091  1.0426  0.4269  0.3001
13977SOL     OW43031   3.661   5.861   0.369  0.1857  0.0326 -0.1812
13977SOL    HW143032   3.713   5.854   0.289  0.0184 -1.0137 -0.2162
13977SOL    HW243033   3.712   5.918   0.426  1.9083 -1.7441  0.1637
13978SOL     OW43034   3.544   1.893   0.868  0.1614 -0.1880 -0.0564
13978SOL    HW143035   3.636   1.897   0.842  0.1329 -0.5606 -0.2236
13978SOL    HW243036   3.501   1.959   0.814  0.2213 -0.4736 -0.4578
13979SOL     OW43037   7.780   2.987   3.034 -0.1018 -0.6397 -0.7295
13979SOL    HW143038   7.822   3.067   3.066 -0.1359 -1.1658  0.7119
13979SOL    HW243039   7.845   2.948   2.976  0.8687 -0.7296  0.3839
13980SOL     OW43040   4.816   1.618   1.691  0.0281  0.3374  0.2501
13980SOL    HW143041   4.801   1.649   1.602 -1.4686  1.8715  0.9834
13980SOL    HW243042   4.768   1.680   1.746 -0.7153 -1.7123  2.0092
13981SOL     OW43043   8.970   5.344   4.655 -0.1466 -0.8634  0.0790
13981SOL    HW143044   8.934   5.400   4.587 -0.7404 -1.9722 -0.5625
13981SOL    HW243045   9.048   5.390   4.686 -0.4417  0.1497 -0.6326
13982SOL     OW43046   2.225   5.474   8.243 -0.2758 -0.1603 -0.7383
13982SOL    HW143047   2.188   5.424   8.171 -0.5347  1.3894 -1.7253
13982SOL    HW243048   2.275   5.544   8.201 -0.6105  0.9093  0.5671
13983SOL     OW43049   8.555   2.637   6.467 -0.6393  0.0252 -0.5895
13983SOL    HW143050   8.480   2.662   6.521 -0.4982  0.2843 -0.5137
13983SOL    HW243051   8.584   2.719   6.427  1.2731  0.4473  1.4569
13984SOL     OW43052   2.976   2.318   7.308  0.5086  1.2232  0.0944
13984SOL    HW143053   3.019   2.266   7.241  1.0396  1.1157  0.5126
13984SOL    HW243054   3.029   2.396   7.316  1.2669  0.6091  1.3731
13985SOL     OW43055   0.881   9.086   6.130  0.2235  0.2855  0.4859
13985SOL    HW143056   0.814   9.056   6.192 -0.3987 -2.4853 -1.3773
13985SOL    HW243057   0.961   9.041   6.158  0.3148  0.2878  0.2259
13986SOL     OW43058   4.039   1.872   2.375 -0.4462 -0.2581 -0.2376
13986SOL    HW143059   4.058   1.950   2.427 -2.1965  1.4899 -1.9906
13986SOL    HW243060   4.124   1.838   2.349  0.3704  0.7194  1.0483
13987SOL     OW43061   5.049   8.855   3.462  0.7860 -0.4692 -0.2253
13987SOL    HW143062   4.984   8.883   3.527 -0.6362 -1.3612 -1.2180
13987SOL    HW243063   5.046   8.759   3.465  1.2096 -0.5182 -1.1247
13988SOL     OW43064   1.364   2.036   1.099  0.1948  0.0248  0.1048
13988SOL    HW143065   1.409   2.059   1.180 -1.0239  0.8988  0.5670
13988SOL    HW243066   1.275   2.014   1.126  0.2109 -1.2863 -0.8248
13989SOL     OW43067   1.103   7.624   0.154  0.0845 -0.0404  0.3326
13989SOL    HW143068   1.092   7.697   0.093 -0.2821 -0.9515 -0.7117
13989SOL    HW243069   1.178   7.650   0.208  0.1731  0.9505 -0.2376
13990SOL     OW43070   6.671   0.996   8.511 -0.3428  0.0249 -0.1607
13990SOL    HW143071   6.611   1.035   8.574  0.1075  0.4880 -0.0112
13990SOL    HW243072   6.659   1.048   8.431 -0.2464  0.0298 -0.1728
13991SOL     OW43073   8.369   7.679   7.791 -0.3142  0.1451  0.1063
13991SOL    HW143074   8.337   7.615   7.728 -0.8541 -1.0995  1.5904
13991SOL    HW243075   8.292   7.699   7.844 -0.2974  2.4439 -0.6177
13992SOL     OW43076   2.330   3.255   5.854  0.6379 -0.0677  0.8393
13992SOL    HW143077   2.361   3.315   5.786  0.3453  2.2012  2.5752
13992SOL    HW243078   2.236   3.272   5.861  0.4312 -1.1843  0.9762
13993SOL     OW43079   4.600   5.326   0.702  0.3593  0.8477  0.0984
13993SOL    HW143080   4.614   5.264   0.630  0.3223 -1.8369  2.2230
13993SOL    HW243081   4.658   5.294   0.771  1.8840  4.4642  0.7450
13994SOL     OW43082   0.126   6.472   0.438 -0.2028  0.4891  0.1599
13994SOL    HW143083   0.030   6.476   0.431 -0.3223 -0.5600  0.9646
13994SOL    HW243084   0.143   6.390   0.483  1.1730 -0.1179 -1.3793
13995SOL     OW43085   7.697   2.281   5.032 -0.0681  0.5085  0.3175
13995SOL    HW143086   7.654   2.338   4.969 -1.2192  1.2584  1.7108
13995SOL    HW243087   7.630   2.216   5.054  0.1061  0.6145  1.1844
13996SOL     OW43088   5.607   3.230   5.432 -0.4373 -0.2407  0.3649
13996SOL    HW143089   5.681   3.262   5.483 -0.3218 -0.6538  0.4610
13996SOL    HW243090   5.563   3.167   5.491  0.2506 -1.4535 -0.3800
13997SOL     OW43091   4.935   2.455   7.586  0.2055 -0.1584  0.3028
13997SOL    HW143092   4.863   2.513   7.563  1.1611  0.6202 -0.8705
13997SOL    HW243093   4.894   2.384   7.635 -1.2905  0.4494 -0.0044
13998SOL     OW43094   4.703   8.644   2.962 -0.3740  0.2777 -0.3106
13998SOL    HW143095   4.755   8.686   2.894 -0.7704  0.1614 -0.6880
13998SOL    HW243096   4.711   8.550   2.944 -0.8028  0.2631 -0.4407
13999SOL     OW43097   6.386   5.600   6.536 -0.1076  0.0329 -0.4087
13999SOL    HW143098   6.398   5.687   6.575  0.1528 -0.5517  0.8703
13999SOL    HW243099   6.399   5.614   6.443 -1.5397  1.6436 -0.4266
14000SOL     OW43100   2.477   6.272   0.949  0.4578  0.0573  0.1348
14000SOL    HW143101   2.506   6.208   1.014  0.8432  1.5709  1.5252
14000SOL    HW243102   2.415   6.224   0.894 -1.4633 -0.8385  2.8433
14001SOL     OW43103   4.875   1.819   7.431 -0.0192  0.2969  0.8637
14001SOL    HW143104   4.896   1.872   7.508  1.3509 -1.5208  1.8123
14001SOL    HW243105   4.955   1.770   7.414 -0.9729 -0.8369 -0.4886
14002SOL     OW43106   0.521   6.177   8.107  0.2214 -0.4377  0.1427
14002SOL    HW143107   0.478   6.093   8.121 -2.8377  0.5948 -2.1252
14002SOL    HW243108   0.604   6.155   8.064 -0.3050 -2.3126  0.0094
14003SOL     OW43109   5.188   3.734   6.146 -0.0215 -0.8771  0.5457
14003SOL    HW143110   5.175   3.732   6.241  0.7654 -2.0443  0.6548
14003SOL    HW243111   5.205   3.826   6.126 -2.0407 -0.3023  1.2450
14004SOL     OW43112   3.916   5.585   6.974 -0.6373  0.4028  0.0414
14004SOL    HW143113   3.915   5.489   6.976  0.6847  0.3507 -0.6431
14004SOL    HW243114   3.893   5.608   6.884 -1.5147  0.7696  0.3417
14005SOL     OW43115   8.622   7.663   3.063 -0.2739 -0.3974 -0.0188
14005SOL    HW143116   8.631   7.570   3.041 -1.9586 -0.8004  0.7705
14005SOL    HW243117   8.661   7.710   2.989 -0.5037 -1.7264 -1.0211
14006SOL     OW43118   1.601   3.237   2.155  0.4917  0.2660 -0.0412
14006SOL    HW143119   1.530   3.196   2.204  0.0844  1.6000  0.5205
14006SOL    HW243120   1.613   3.180   2.079  2.1769 -2.7480  2.2470
14007SOL     OW43121   9.021   8.203   8.377  0.1406  0.6567 -0.3702
14007SOL    HW143122   9.107   8.211   8.419 -0.4313 -2.8297  1.8496
14007SOL    HW243123   8.960   8.189   8.449 -1.9566  0.6186 -2.0597
14008SOL     OW43124   2.136   8.423   8.339 -0.7532 -0.4821  0.0157
14008SOL    HW143125   2.215   8.474   8.322  0.6717 -1.5235  2.8268
14008SOL    HW243126   2.068   8.489   8.354 -0.2415  0.4442 -1.5581
14009SOL     OW43127   8.757   5.771   5.479 -0.1956  0.1965 -0.0766
14009SOL    HW143128   8.844   5.776   5.518 -0.6789  2.1994  0.8971
14009SOL    HW243129   8.769   5.722   5.398  1.6392 -0.4223  0.5331
14010SOL     OW43130   6.160   2.527   2.345 -0.1320  0.5323  0.0628
14010SOL    HW143131   6.165   2.619   2.371 -3.3846  0.1053  2.8899
14010SOL    HW243132   6.089   2.524   2.281  0.3765  0.0476 -0.4910
14011SOL     OW43133   1.452   0.903   5.215 -0.7512  0.0958  0.5945
14011SOL    HW143134   1.482   0.947   5.294 -1.2415  2.3857 -0.4398
14011SOL    HW243135   1.479   0.959   5.143 -0.2390 -1.9687 -0.9394
14012SOL     OW43136   2.850   0.762   8.391 -0.6328 -0.5723 -0.4281
14012SOL    HW143137   2.794   0.833   8.423 -1.0965  0.1376 -2.6646
14012SOL    HW243138   2.934   0.776   8.436 -0.4162  1.9788 -1.4497
14013SOL     OW43139   1.582   4.987   3.551 -0.6555 -0.7694 -0.0557
14013SOL    HW143140   1.532   5.065   3.527 -0.7536 -0.6835  0.4139
14013SOL    HW243141   1.645   4.976   3.481 -1.6201 -1.1269 -0.8981
14014SOL     OW43142   5.997   8.675   8.507  0.0049 -0.0908  0.1286
14014SOL    HW143143   5.943   8.709   8.436  0.8952 -1.1519 -1.1094
14014SOL    HW243144   6.062   8.743   8.524  0.2999 -0.1659 -0.6668
14015SOL     OW43145   1.581   7.370   2.247  0.1223  0.0112  0.1558
14015SOL    HW143146   1.581   7.464   2.230  1.7535  0.0485  0.1721
14015SOL    HW243147   1.568   7.363   2.342  1.0485  0.3011  0.3210
14016SOL     OW43148   7.227   7.705   1.787  1.0745 -0.0192  0.5663
14016SOL    HW143149   7.263   7.777   1.735 -0.0404  0.4722  0.4591
14016SOL    HW243150   7.302   7.646   1.800  2.1190  1.3596  1.0431
14017SOL     OW43151   6.282   3.940   3.144 -0.1549  0.1057 -0.1903
14017SOL    HW143152   6.263   3.976   3.058  0.0567 -1.4477 -0.9219
14017SOL    HW243153   6.233   3.996   3.205 -1.1215  0.6181 -1.3972
14018SOL     OW43154   6.709   5.936   0.017 -0.1892 -0.6057  0.0747
14018SOL    HW143155   6.759   5.977   0.087 -2.2622 -0.2046  1.4046
14018SOL    HW243156   6.629   5.905   0.059 -1.1505 -1.0900 -1.9694
14019SOL     OW43157   7.581   2.544   5.226  0.0080 -0.1851  0.3459
14019SOL    HW143158   7.608   2.519   5.315  2.5889 -0.2089 -0.3812
14019SOL    HW243159   7.571   2.461   5.180 -0.6283 -0.1474  0.4090
14020SOL     OW43160   4.350   0.008   6.296  0.9762  0.2058  0.5351
14020SOL    HW143161   4.333  -0.030   6.210 -0.5113  1.7044  0.0940
14020SOL    HW243162   4.438   0.044   6.290  1.4933 -1.0879  0.1905
14021SOL     OW43163   5.057   7.306   2.176  0.3458  0.3524  0.2968
14021SOL    HW143164   5.106   7.242   2.227 -0.9796 -1.7971 -0.9617
14021SOL    HW243165   5.016   7.362   2.241 -0.1058 -1.3891  1.5879
14022SOL     OW43166   2.276   6.984   3.975  0.4474 -0.2288  0.1501
14022SOL    HW143167   2.185   6.967   3.951  0.4975 -0.2208 -0.0473
14022SOL    HW243168   2.272   7.063   4.030  0.0395 -1.6529  2.3016
14023SOL     OW43169   4.710   7.246   6.256  0.5825 -0.2926  0.4936
14023SOL    HW143170   4.793   7.264   6.302  0.8132  0.4226 -0.1701
14023SOL    HW243171   4.701   7.319   6.195 -0.4140 -0.5085  0.3704
14024SOL     OW43172   8.162   8.691   2.356 -0.5530 -0.1246 -0.2599
14024SOL    HW143173   8.245   8.698   2.404 -1.2232 -1.5533  1.2237
14024SOL    HW243174   8.144   8.780   2.326  0.1979  0.7418  1.6910
14025SOL     OW43175   2.277   2.127   3.735 -0.3264 -0.5991  0.1972
14025SOL    HW143176   2.254   2.212   3.698 -1.7601 -0.1168  2.0214
14025SOL    HW243177   2.198   2.074   3.722 -0.2904 -0.8951  1.1404
14026SOL     OW43178   4.740   7.613   5.089 -0.3011 -0.1912 -0.4194
14026SOL    HW143179   4.775   7.593   5.002  1.0858  1.8765 -0.4250
14026SOL    HW243180   4.649   7.582   5.086  0.8131 -3.8918 -1.1320
14027SOL     OW43181   1.490   2.097   6.391  0.0287 -0.2975 -0.0407
14027SOL    HW143182   1.452   2.102   6.303  1.0587  0.0977 -0.4854
14027SOL    HW243183   1.429   2.043   6.441 -0.1466 -1.2689 -1.2382
14028SOL     OW43184   8.794   6.794   1.740  0.4234 -0.0694  0.6959
14028SOL    HW143185   8.743   6.766   1.664 -0.1694  2.4606  0.0654
14028SOL    HW243186   8.884   6.793   1.711  0.2275  0.5385  0.0494
14029SOL     OW43187   8.404   6.384   8.379 -0.0576  0.7780  0.2590
14029SOL    HW143188   8.409   6.472   8.342 -1.8882  0.1088 -1.7398
14029SOL    HW243189   8.495   6.353   8.379  0.4028  2.0364 -0.5837
14030SOL     OW43190   4.747   4.409   6.611  0.0203 -0.2692 -0.0562
14030SOL    HW143191   4.657   4.379   6.626  0.1868 -0.7770 -0.0860
14030SOL    HW243192   4.736   4.501   6.585 -0.3677  0.1908  1.6147
14031SOL     OW43193   2.168   8.541   7.715 -0.0793  0.3982 -0.1407
14031SOL    HW143194   2.161   8.550   7.810 -2.1481 -0.4263 -0.1656
14031SOL    HW243195   2.115   8.464   7.694 -2.2157  2.2818 -2.2434
14032SOL     OW43196   6.184   3.266   6.500  0.0842 -0.1778 -0.2356
14032SOL    HW143197   6.275   3.239   6.497 -0.0182 -0.4557 -2.5269
14032SOL    HW243198   6.138   3.191   6.539  0.7965 -0.0430  0.9041
14033SOL     OW43199   3.936   0.675   2.088 -0.0150  1.1457  0.2568
14033SOL    HW143200   3.945   0.614   2.016 -0.2849  1.9121 -0.4389
14033SOL    HW243201   3.861   0.730   2.065 -0.1572  1.3527  1.1555
14034SOL     OW43202   6.149   8.907   0.885  0.1851  0.6197  0.3132
14034SOL    HW143203   6.160   8.926   0.792  2.0651  2.1901  0.7895
14034SOL    HW243204   6.070   8.955   0.911  1.2533  2.5623  0.0969
14035SOL     OW43205   0.234   7.644   1.103  0.0694 -0.6634  0.3934
14035SOL    HW143206   0.185   7.698   1.166 -0.1927 -1.6616  1.0680
14035SOL    HW243207   0.174   7.574   1.079 -0.1787  0.1921 -1.7306
14036SOL     OW43208   3.511   7.724   0.668  0.0092 -0.6830 -0.4650
14036SOL    HW143209   3.441   7.788   0.654 -0.3512 -0.6044  1.3654
14036SOL    HW243210   3.576   7.744   0.601 -0.9356  0.3749 -1.1127
14037SOL     OW43211   6.779   5.642   6.314 -0.4122 -0.4106  0.3281
14037SOL    HW143212   6.724   5.650   6.236  0.3799 -0.1439 -0.2245
14037SOL    HW243213   6.864   5.612   6.280  0.3669  1.0213  0.8884
14038SOL     OW43214   3.621   4.146   4.222 -0.1199  0.1965 -0.6614
14038SOL    HW143215   3.576   4.159   4.305 -1.0543  1.7620 -1.3702
14038SOL    HW243216   3.552   4.123   4.160  0.6616 -1.7317 -0.8879
14039SOL     OW43217   4.335   1.766   0.260  0.3629 -0.4344  0.4214
14039SOL    HW143218   4.372   1.853   0.248  0.3931 -0.2159  1.8720
14039SOL    HW243219   4.343   1.724   0.174  1.1464  0.6802 -0.0774
14040SOL     OW43220   4.923   9.048   5.470  0.5082  0.0368  0.4865
14040SOL    HW143221   4.918   9.134   5.428 -0.4612 -0.3617 -0.2462
14040SOL    HW243222   5.000   9.008   5.431 -0.7010 -0.5610 -1.4524
14041SOL     OW43223   5.485   3.809   1.766 -0.2697  0.0938  0.6466
14041SOL    HW143224   5.418   3.769   1.821 -0.5090  1.5857  1.4988
14041SOL    HW243225   5.567   3.768   1.794 -0.5640 -0.1553  1.1534
14042SOL     OW43226   4.812   0.402   2.968 -0.2193 -0.1655 -0.2046
14042SOL    HW143227   4.902   0.429   2.949  0.8035 -1.4908  2.2981
14042SOL    HW243228   4.787   0.346   2.895  0.3269  1.4992 -1.7408
14043SOL     OW43229   0.442   8.605   7.705 -0.1912 -0.2434 -0.3944
14043SOL    HW143230   0.447   8.516   7.670  1.5854 -0.4678  0.3478
14043SOL    HW243231   0.476   8.660   7.634 -0.1561 -0.2778 -0.4045
14044SOL     OW43232   8.527   5.791   8.807 -0.2962 -0.1991  0.0694
14044SOL    HW143233   8.498   5.711   8.851  1.5065 -0.5728  0.6512
14044SOL    HW243234   8.535   5.856   8.877  0.4790 -0.1722 -0.0380
14045SOL     OW43235   6.025   4.102   5.955 -0.3064  0.1122 -0.0879
14045SOL    HW143236   6.027   4.049   6.035  0.7309  2.2083  1.3597
14045SOL    HW243237   5.934   4.130   5.947 -0.6301 -0.9122 -0.2568
14046SOL     OW43238   8.413   0.154   7.225  0.6155  0.4987  0.4528
14046SOL    HW143239   8.336   0.210   7.218 -0.7552 -1.2232  0.9430
14046SOL    HW243240   8.476   0.206   7.274 -0.3246  1.8648  0.2714
14047SOL     OW43241   2.969   2.532   1.123 -0.2284  0.7081 -0.0813
14047SOL    HW143242   2.900   2.498   1.181 -0.6184  2.7346  0.7139
14047SOL    HW243243   2.921   2.572   1.050  0.0755  2.0143  0.4140
14048SOL     OW43244   0.576   5.258   5.978 -0.5201 -0.2922  0.0678
14048SOL    HW143245   0.492   5.303   5.968 -1.2013 -1.6503 -0.5162
14048SOL    HW243246   0.553   5.172   6.014  0.7732 -0.1275  1.3996
14049SOL     OW43247   3.832   5.782   8.023 -0.4347 -0.3793 -0.2403
14049SOL    HW143248   3.817   5.793   7.929 -1.6052  0.2550 -0.0025
14049SOL    HW243249   3.798   5.862   8.063 -0.8211 -1.0315  0.8000
14050SOL     OW43250   5.092   2.174   3.602  0.0300  0.3635 -0.4123
14050SOL    HW143251   5.026   2.205   3.664  0.1855  0.2576 -0.1970
14050SOL    HW243252   5.170   2.159   3.654  0.6020  1.6732 -0.8519
14051SOL     OW43253   8.275   7.184   8.672 -0.1004 -0.0821  0.2235
14051SOL    HW143254   8.186   7.153   8.688  0.0566  0.1578  1.7516
14051SOL    HW243255   8.266   7.279   8.661 -0.0613 -0.0837  0.1777
14052SOL     OW43256   0.044   2.354   3.799 -0.6774 -0.2750 -0.1790
14052SOL    HW143257   0.102   2.427   3.823 -0.4900 -0.4931  0.0397
14052SOL    HW243258  -0.021   2.394   3.742 -0.9678  0.1973  0.4643
14053SOL     OW43259   6.551   2.023   8.389 -0.0460  0.2071 -0.5271
14053SOL    HW143260   6.633   1.977   8.368  0.8311  0.6131  1.7171
14053SOL    HW243261   6.537   2.006   8.482 -1.2890  2.0317 -0.3257
14054SOL     OW43262   7.380   1.391   2.055 -0.2120  0.1744  0.1540
14054SOL    HW143263   7.337   1.435   2.128 -0.0008  1.3752 -0.4349
14054SOL    HW243264   7.418   1.312   2.094  0.2407  0.9991  1.4165
14055SOL     OW43265   2.074   7.646   4.160 -0.5338 -0.5099  0.2439
14055SOL    HW143266   2.111   7.669   4.245 -1.1692 -1.1553  0.7112
14055SOL    HW243267   2.137   7.586   4.120 -0.4012 -0.4847  0.4197
14056SOL     OW43268   1.078   7.247   4.146  0.6311 -0.3429 -0.1839
14056SOL    HW143269   1.082   7.183   4.074 -1.6216 -0.7880  0.0041
14056SOL    HW243270   1.005   7.217   4.200  2.3203 -0.0793  2.4203
14057SOL     OW43271   5.888   5.724   6.661  0.1450 -0.6056 -0.1324
14057SOL    HW143272   5.813   5.701   6.715 -0.2756  0.2324 -0.3407
14057SOL    HW243273   5.867   5.811   6.626  1.5572  0.0120  0.4648
14058SOL     OW43274   5.528   0.168   0.689  0.2573  0.7741  0.0828
14058SOL    HW143275   5.519   0.109   0.614  0.1687 -0.0204  0.7052
14058SOL    HW243276   5.474   0.128   0.758  1.8297  0.4560  1.1752
14059SOL     OW43277   4.997   4.134   5.315 -0.5044 -0.4376  0.4790
14059SOL    HW143278   4.968   4.054   5.272  2.3638 -0.5052 -1.5983
14059SOL    HW243279   5.083   4.112   5.351  0.8607  1.9202 -1.0676
14060SOL     OW43280   1.690   8.321   4.123  0.3005  0.1678  0.3745
14060SOL    HW143281   1.696   8.356   4.034 -1.4941  1.2703  0.6309
14060SOL    HW243282   1.643   8.239   4.113 -1.2270  0.9988  0.4113
14061SOL     OW43283   9.036   5.042   7.458  0.4442  0.0808  0.7333
14061SOL    HW143284   9.020   4.989   7.536  1.5223  0.4411  1.2133
14061SOL    HW243285   8.951   5.044   7.413  0.1552 -1.2871  1.1694
14062SOL     OW43286   8.297   3.436   7.154  0.1510 -0.2975 -0.4014
14062SOL    HW143287   8.323   3.439   7.062 -0.9201 -0.1791 -0.7197
14062SOL    HW243288   8.309   3.345   7.180 -1.2294 -0.7385 -1.1985
14063SOL     OW43289   8.166   5.857   5.221 -0.0903  0.0506  0.4377
14063SOL    HW143290   8.261   5.859   5.227 -0.1628  1.4649  1.8250
14063SOL    HW243291   8.144   5.765   5.208  1.5235 -0.1152 -1.6386
14064SOL     OW43292   2.337   4.340   8.145  0.3062  0.0450  0.1511
14064SOL    HW143293   2.376   4.258   8.116 -0.5969 -1.1983  2.1979
14064SOL    HW243294   2.259   4.350   8.089  1.4954  0.6390 -1.4808
14065SOL     OW43295   7.795   8.034   6.162  0.4820 -0.3437 -0.1851
14065SOL    HW143296   7.739   7.962   6.134  0.8250 -0.5016 -0.4726
14065SOL    HW243297   7.750   8.113   6.131  0.0967 -0.4324  0.1488
14066SOL     OW43298   3.372   6.985   2.286 -0.2875 -0.2470 -0.5561
14066SOL    HW143299   3.438   7.039   2.242 -0.0637 -1.4669 -1.7575
14066SOL    HW243300   3.409   6.897   2.287  0.1442 -0.1799  2.9420
14067SOL     OW43301   3.367   7.624   2.178 -0.4022 -0.1340  0.0473
14067SOL    HW143302   3.448   7.608   2.227  0.3847 -1.8513 -1.6926
14067SOL    HW243303   3.316   7.544   2.192 -0.1770 -0.6430 -1.8207
14068SOL     OW43304   6.909   7.901   2.404  0.3092  0.1843  0.1320
14068SOL    HW143305   6.971   7.892   2.332 -0.0121 -0.9167 -0.0206
14068SOL    HW243306   6.935   7.835   2.467 -0.8279 -0.4496 -0.0333
14069SOL     OW43307   7.943   1.345   3.744  0.5535 -0.4574 -0.1814
14069SOL    HW143308   7.956   1.316   3.834 -0.9405 -1.3186 -0.2074
14069SOL    HW243309   7.867   1.402   3.747  0.8216 -0.0496 -0.8229
14070SOL     OW43310   4.171   0.367   2.828 -0.2823 -0.3717 -0.6403
14070SOL    HW143311   4.093   0.326   2.867 -0.3180  1.0682  0.9180
14070SOL    HW243312   4.228   0.293   2.807 -0.4375 -1.3094  1.8308
14071SOL     OW43313   0.820   8.955   4.686  0.3145 -0.7009  0.5359
14071SOL    HW143314   0.821   8.865   4.654 -0.3356 -1.2342  1.9048
14071SOL    HW243315   0.807   8.947   4.781 -1.0693  0.8446  0.5440
14072SOL     OW43316   7.016   7.107   3.417  0.1223  0.2479 -0.0423
14072SOL    HW143317   7.111   7.113   3.405  0.1137  0.9017  0.1778
14072SOL    HW243318   6.990   7.033   3.363  0.9884 -1.0019  1.1795
14073SOL     OW43319   4.109   5.781   8.640  0.1907 -0.2503  0.0800
14073SOL    HW143320   4.075   5.840   8.708  0.3465  0.3601 -0.3599
14073SOL    HW243321   4.197   5.813   8.622  0.6508 -1.2393  0.5310
14074SOL     OW43322   3.798   5.820   8.387  0.6825 -0.1269  0.3472
14074SOL    HW143323   3.771   5.838   8.477  3.4501 -3.2885  2.0494
14074SOL    HW243324   3.885   5.860   8.380  1.0813 -1.0902 -0.4067
14075SOL     OW43325   7.685   6.086   0.402 -0.3039  0.0709 -0.0504
14075SOL    HW143326   7.719   6.081   0.313 -2.4110 -0.4568 -0.8787
14075SOL    HW243327   7.761   6.071   0.458  0.8952 -0.5366 -1.7718
14076SOL     OW43328   0.125   6.288   2.397  0.1667 -0.0066 -0.6277
14076SOL    HW143329   0.131   6.377   2.363  0.0449  0.4691  0.5213
14076SOL    HW243330   0.196   6.283   2.461  0.4387 -0.8849 -0.9923
14077SOL     OW43331   4.134   8.699   4.494  0.3254 -0.3845 -0.1415
14077SOL    HW143332   4.106   8.699   4.402  0.0758  1.7978 -0.1256
14077SOL    HW243333   4.229   8.705   4.489  0.7599 -4.5841 -0.1823
14078SOL     OW43334   8.241   2.725   8.028 -0.1438 -0.0073  0.1354
14078SOL    HW143335   8.170   2.752   8.086 -1.7802  0.3995 -1.9681
14078SOL    HW243336   8.255   2.633   8.049  0.6405  0.5708  2.4577
14079SOL     OW43337   3.172   1.062   1.958  0.0890 -0.2596  0.2622
14079SOL    HW143338   3.161   1.155   1.975  2.9467  0.2390 -0.1793
14079SOL    HW243339   3.149   1.051   1.865 -0.5007 -0.0780  0.3806
14080SOL     OW43340   0.787   1.545   6.828  0.0340  0.4893  0.8419
14080SOL    HW143341   0.852   1.576   6.892 -0.5245  1.4512  0.9620
14080SOL    HW243342   0.739   1.624   6.802 -0.6917 -0.1132  0.3023
14081SOL     OW43343   4.835   4.652   2.292 -0.3026 -0.7491 -0.5445
14081SOL    HW143344   4.835   4.744   2.320  0.3754 -1.0608  0.5116
14081SOL    HW243345   4.840   4.602   2.373  2.7946 -1.6623 -1.1955
14082SOL     OW43346   7.294   5.564   5.891 -0.5601 -0.0495 -0.0074
14082SOL    HW143347   7.330   5.513   5.819 -0.5603 -0.9464  0.6001
14082SOL    HW243348   7.247   5.635   5.850  0.2275 -0.0093 -0.8661
14083SOL     OW43349   8.150   4.596   1.756 -0.2817 -0.6143 -0.2144
14083SOL    HW143350   8.120   4.667   1.699  0.2448 -0.3861 -0.2107
14083SOL    HW243351   8.074   4.576   1.811 -0.4632 -0.1166 -0.2793
14084SOL     OW43352   0.422   4.592   7.629 -0.1402  0.0971 -0.2378
14084SOL    HW143353   0.438   4.590   7.535 -0.0428 -0.8796 -0.2117
14084SOL    HW243354   0.371   4.513   7.647  2.0454 -1.1495  0.8958
14085SOL     OW43355   4.637   6.566   2.541 -0.4796 -0.0565  0.3607
14085SOL    HW143356   4.718   6.594   2.498 -0.2368  0.3903  1.0857
14085SOL    HW243357   4.572   6.564   2.471 -0.2335  1.2195  0.0693
14086SOL     OW43358   8.518   5.842   3.477 -0.6220  0.2804 -0.3002
14086SOL    HW143359   8.513   5.755   3.517  0.9906 -0.7519 -2.1990
14086SOL    HW243360   8.600   5.842   3.429  0.1696  3.4306  0.8180
14087SOL     OW43361   1.969   3.218   7.510  0.2667 -0.3172 -0.4534
14087SOL    HW143362   1.917   3.226   7.590  0.4614 -1.7502 -0.1553
14087SOL    HW243363   2.030   3.146   7.528  0.5917 -0.3869 -1.7322
14088SOL     OW43364   2.494   8.584   5.802 -0.7354  0.5916 -0.2474
14088SOL    HW143365   2.408   8.568   5.841 -1.0772  3.2071  0.2679
14088SOL    HW243366   2.475   8.600   5.709 -0.2539 -2.7550 -1.0403
14089SOL     OW43367   5.481   0.348   3.665 -0.1735 -0.4243  0.4215
14089SOL    HW143368   5.416   0.416   3.681 -0.9760 -1.0179 -0.2224
14089SOL    HW243369   5.521   0.332   3.750 -0.1876  0.6361  0.6323
14090SOL     OW43370   1.867   8.053   5.175 -0.2542  0.4992  0.2124
14090SOL    HW143371   1.844   8.103   5.097  0.4859 -0.3224 -0.5589
14090SOL    HW243372   1.823   8.099   5.247 -2.2081  0.3971 -0.8483
14091SOL     OW43373   4.129   3.326   7.853  0.2051  0.3678  0.0912
14091SOL    HW143374   4.072   3.360   7.922  1.5125 -1.3176  2.1620
14091SOL    HW243375   4.076   3.258   7.810 -0.1714  0.4717  0.3816
14092SOL     OW43376   0.463   2.240   0.306 -0.0125 -0.1248  0.1870
14092SOL    HW143377   0.390   2.239   0.244  0.7502 -0.3861 -0.7317
14092SOL    HW243378   0.437   2.304   0.372 -0.6849  0.4448 -0.6005
14093SOL     OW43379   3.671   0.493   5.738 -0.7298  0.1540  0.4687
14093SOL    HW143380   3.650   0.456   5.823 -2.7396  0.2786  0.0877
14093SOL    HW243381   3.763   0.518   5.744 -0.0737 -2.2466  1.6973
14094SOL     OW43382   8.780   7.780   1.392 -0.1923  0.1012  0.6026
14094SOL    HW143383   8.828   7.827   1.461  3.1586 -1.1750 -0.6372
14094SOL    HW243384   8.775   7.843   1.320 -0.9729  0.4321  0.9352
14095SOL     OW43385   8.627   0.922   1.044  0.3338  0.2715  0.1764
14095SOL    HW143386   8.649   0.908   0.952 -0.0973 -1.8362  0.3585
14095SOL    HW243387   8.532   0.929   1.046  0.3353  0.2279  0.4789
14096SOL     OW43388   2.285   1.277   8.508 -0.1683 -0.3289  0.4174
14096SOL    HW143389   2.372   1.239   8.521 -0.9413 -2.6349 -0.6546
14096SOL    HW243390   2.301   1.357   8.458  1.3468 -0.4580  0.6374
14097SOL     OW43391   4.118   7.071   2.251 -0.5611  0.1562 -0.0247
14097SOL    HW143392   4.209   7.083   2.277 -1.0571  2.1503  1.0193
14097SOL    HW243393   4.116   7.092   2.158  0.3348 -1.7075 -0.4853
14098SOL     OW43394   0.767   6.986   5.082 -0.7787  0.4800  0.1897
14098SOL    HW143395   0.839   6.992   5.145 -1.2012  0.4001  0.6856
14098SOL    HW243396   0.692   6.961   5.134 -0.9650 -0.3935 -0.4785
14099SOL     OW43397   2.307   8.758   8.209 -0.1456 -0.2204  0.0253
14099SOL    HW143398   2.349   8.693   8.153  1.2897  0.1407  0.6377
14099SOL    HW243399   2.378   8.817   8.235 -1.0188  0.3496  1.2022
14100SOL     OW43400   4.371   8.740   8.681 -0.3436 -0.5831 -0.4785
14100SOL    HW143401   4.415   8.686   8.616  2.0961  0.0817  0.5019
14100SOL    HW243402   4.301   8.783   8.633  0.2582 -1.4503 -2.2346
14101SOL     OW43403   7.123   1.884   2.605 -0.3005  0.2623 -0.4861
14101SOL    HW143404   7.157   1.972   2.623 -0.1920 -0.1288  1.4048
14101SOL    HW243405   7.062   1.896   2.532 -0.4841  1.9359 -0.0903
14102SOL     OW43406   0.840   7.318   0.888 -0.7288 -0.2939 -0.4127
14102SOL    HW143407   0.779   7.302   0.816 -2.6640  1.0586  0.8193
14102SOL    HW243408   0.790   7.295   0.966 -0.4140  2.6735  0.7826
14103SOL     OW43409   8.012   5.228   6.971  0.1746  0.1988  0.8197
14103SOL    HW143410   7.938   5.289   6.969  1.4011  1.7968  1.5070
14103SOL    HW243411   7.975   5.144   6.947 -1.9935  0.8176  1.7761
14104SOL     OW43412   4.973   7.928   7.145 -0.8197 -0.2111 -0.0523
14104SOL    HW143413   4.993   7.963   7.231 -0.6813  1.0677 -0.5753
14104SOL    HW243414   4.888   7.967   7.123  0.1380  1.2632 -1.3738
14105SOL     OW43415   6.102   7.119   1.870  0.1216 -0.3383 -0.3414
14105SOL    HW143416   6.149   7.171   1.936  1.0323 -1.2627 -0.2440
14105SOL    HW243417   6.169   7.065   1.830 -0.6789 -0.8419 -1.0268
14106SOL     OW43418   8.133   7.801   4.502 -0.3023 -0.5603 -0.0982
14106SOL    HW143419   8.070   7.831   4.436 -1.0188 -2.2292 -0.2173
14106SOL    HW243420   8.209   7.858   4.490 -1.5001  1.0589 -0.4130
14107SOL     OW43421   3.350   6.259   6.127  0.3630  0.2344 -0.0318
14107SOL    HW143422   3.363   6.352   6.147 -1.5082  0.1963  1.6021
14107SOL    HW243423   3.359   6.215   6.211 -2.0429 -0.6358 -0.1626
14108SOL     OW43424   2.787   5.256   4.377  0.3503 -0.1966 -0.7114
14108SOL    HW143425   2.864   5.213   4.412  2.0494  1.4840 -2.1673
14108SOL    HW243426   2.805   5.267   4.284 -0.0115  3.3526 -0.5234
14109SOL     OW43427   0.179   1.339   1.256  0.3754  0.4833  0.2799
14109SOL    HW143428   0.181   1.252   1.296  1.1441 -0.3738 -1.4829
14109SOL    HW243429   0.270   1.370   1.261  0.5163  0.3002 -0.8507
14110SOL     OW43430   8.970   0.613   0.635 -0.3710 -0.2456  0.3896
14110SOL    HW143431   9.051   0.562   0.635 -1.1396 -1.5129  0.9347
14110SOL    HW243432   8.991   0.692   0.585  0.5481 -1.6216 -1.5087
14111SOL     OW43433   0.348   1.465   4.049 -0.0358  0.1772  0.2206
14111SOL    HW143434   0.278   1.456   3.984 -1.6028 -1.2963  1.9839
14111SOL    HW243435   0.306   1.442   4.132  2.5214 -0.6750  1.3820
14112SOL     OW43436   1.332   1.224   1.230 -0.7257  0.0347  0.5301
14112SOL    HW143437   1.289   1.163   1.170 -0.5724  0.8813 -0.4686
14112SOL    HW243438   1.393   1.273   1.175  0.4344 -0.0986  1.6427
14113SOL     OW43439   5.105   0.215   4.243 -0.2091 -0.2257 -0.1485
14113SOL    HW143440   5.085   0.308   4.226 -0.3988 -0.1834  0.2785
14113SOL    HW243441   5.029   0.168   4.209 -1.7515  0.0226  2.6061
14114SOL     OW43442   1.279   3.241   5.514  0.2900  0.2054 -0.1043
14114SOL    HW143443   1.305   3.218   5.425  0.8920 -0.6127  0.2691
14114SOL    HW243444   1.186   3.262   5.507 -0.3044 -2.2602 -0.5274
14115SOL     OW43445   0.514   5.379   4.692  0.1648  1.0065 -0.2998
14115SOL    HW143446   0.597   5.350   4.654 -1.4866 -1.3852 -2.4501
14115SOL    HW243447   0.517   5.348   4.782  0.8392 -0.8626 -0.9115
14116SOL     OW43448   3.765   6.981   4.188  0.0401 -0.1361  0.3262
14116SOL    HW143449   3.706   7.046   4.150 -0.1066  0.7705  1.9906
14116SOL    HW243450   3.852   7.020   4.180  0.1659 -0.5265 -0.2352
14117SOL     OW43451   4.774   5.670   8.854 -0.5414 -0.1105 -0.5122
14117SOL    HW143452   4.839   5.609   8.819  0.5058  0.7133 -0.0653
14117SOL    HW243453   4.722   5.617   8.915  1.0931 -0.3340  0.7612
14118SOL     OW43454   8.569   5.283   8.578 -0.3245 -0.2161 -0.5182
14118SOL    HW143455   8.645   5.311   8.628 -1.3505  1.3483  0.2467
14118SOL    HW243456   8.519   5.229   8.640 -0.7993  0.4031 -0.3468
14119SOL     OW43457   6.408   3.715   0.306 -0.0249  0.0089  0.3942
14119SOL    HW143458   6.379   3.626   0.325  1.8109 -0.4626  1.2147
14119SOL    HW243459   6.481   3.729   0.366  0.8914  1.4017 -0.9867
14120SOL     OW43460   5.517   8.942   1.789  0.1234 -0.1350  0.2512
14120SOL    HW143461   5.446   8.900   1.739  0.7576 -0.9084 -0.0239
14120SOL    HW243462   5.477   9.021   1.824 -0.4885  0.1731 -1.0548
14121SOL     OW43463   6.346   9.086   6.990 -0.4029  0.0099 -0.0958
14121SOL    HW143464   6.348   9.061   7.083  1.2722  0.2820 -0.0274
14121SOL    HW243465   6.435   9.113   6.971 -0.5728 -0.6097 -1.9629
14122SOL     OW43466   3.645   5.711   7.204 -0.0201  0.0437  0.1638
14122SOL    HW143467   3.647   5.625   7.162 -2.0498 -0.3733  0.8496
14122SOL    HW243468   3.699   5.766   7.147  1.3156 -1.6510 -0.2967
14123SOL     OW43469   3.546   7.916   4.455  0.2445 -0.3220  0.0756
14123SOL    HW143470   3.513   7.907   4.365 -1.6567  0.5200  0.6280
14123SOL    HW243471   3.485   7.864   4.508 -0.5716  1.6549  1.1990
14124SOL     OW43472   5.649   2.484   3.379  0.4294 -0.1698  0.5272
14124SOL    HW143473   5.710   2.551   3.411  0.1250 -0.7174  2.3803
14124SOL    HW243474   5.651   2.416   3.446 -1.8488 -0.4401  0.3947
14125SOL     OW43475   8.503   2.260   5.238 -0.2983 -0.2318  0.1862
14125SOL    HW143476   8.559   2.337   5.232 -1.5503  0.8043  1.1356
14125SOL    HW243477   8.464   2.266   5.326  1.6916 -3.4833  1.4751
14126SOL     OW43478   5.379   3.931   0.290 -0.5982  0.2827  0.7426
14126SOL    HW143479   5.336   3.987   0.355 -0.3127  0.1127  1.0762
14126SOL    HW243480   5.404   3.852   0.338 -1.6197 -0.4435  0.1218
14127SOL     OW43481   7.541   5.417   2.815 -0.3045 -0.3269 -0.0298
14127SOL    HW143482   7.449   5.423   2.838 -0.5841  2.3137 -1.4918
14127SOL    HW243483   7.581   5.368   2.888 -2.8208 -1.6721  0.5497
14128SOL     OW43484   6.135   7.771   8.762 -0.1796  0.0165 -0.3048
14128SOL    HW143485   6.127   7.817   8.846  0.2337 -1.1933  0.4289
14128SOL    HW243486   6.227   7.746   8.757 -0.2283 -0.0279 -1.0602
14129SOL     OW43487   0.596   6.530   2.274 -0.2184 -0.0634  0.3387
14129SOL    HW143488   0.539   6.487   2.211  1.8036 -0.5907 -1.2498
14129SOL    HW243489   0.615   6.616   2.236  0.1726  0.0352  0.7364
14130SOL     OW43490   1.787   2.009   7.064  0.4084  0.1522  0.0565
14130SOL    HW143491   1.877   2.019   7.034  0.0510  0.0908 -1.0806
14130SOL    HW243492   1.736   1.997   6.984 -0.7414  1.1327  0.6101
14131SOL     OW43493   6.404   5.921   0.142  0.5270  0.0292  0.5325
14131SOL    HW143494   6.456   6.000   0.123  0.8277 -0.2004  0.3950
14131SOL    HW243495   6.314   5.947   0.123  0.8927 -0.5121 -2.3666
14132SOL     OW43496   4.906   0.004   0.563  0.0042  0.4620  0.8230
14132SOL    HW143497   4.990   0.050   0.555 -0.1871  0.4640 -2.0161
14132SOL    HW243498   4.843   0.073   0.583  0.5547  0.5222  2.5339
14133SOL     OW43499   4.848   6.647   5.250  0.2305 -0.0084 -0.4574
14133SOL    HW143500   4.849   6.722   5.189  1.0275 -0.4610 -1.0204
14133SOL    HW243501   4.860   6.571   5.193 -1.3906 -0.6522  0.0151
14134SOL     OW43502   8.054   8.354   8.701 -0.6823  0.0189 -0.2455
14134SOL    HW143503   8.006   8.345   8.620 -0.3249  3.2115 -0.9330
14134SOL    HW243504   8.015   8.430   8.745  0.7648 -0.0713  1.3354
14135SOL     OW43505   3.419   7.381   3.530  0.6754 -0.3803  0.2429
14135SOL    HW143506   3.402   7.306   3.586  0.4722 -1.0376 -0.6824
14135SOL    HW243507   3.344   7.385   3.471  0.4470  0.8500  0.5905
14136SOL     OW43508   8.928   8.544   5.334 -0.0599 -0.4459  0.3162
14136SOL    HW143509   8.888   8.473   5.284  0.8474 -0.7103 -0.0444
14136SOL    HW243510   8.855   8.601   5.358 -0.5076 -0.2933 -1.3195
14137SOL     OW43511   4.144   4.737   7.615 -0.1618 -0.3344  0.1456
14137SOL    HW143512   4.175   4.787   7.539  0.6658 -0.4236  0.4183
14137SOL    HW243513   4.223   4.715   7.663 -0.7092  0.1914  1.3367
14138SOL     OW43514   8.678   8.488   0.169  0.0111  0.1106  0.2890
14138SOL    HW143515   8.740   8.561   0.169 -0.4102  0.5400 -1.5637
14138SOL    HW243516   8.732   8.411   0.155  0.2815  0.3212  0.1413
14139SOL     OW43517   3.732   3.718   5.305 -0.1314  0.2361 -0.2975
14139SOL    HW143518   3.746   3.632   5.346  0.0599 -0.2173 -1.2750
14139SOL    HW243519   3.809   3.730   5.249 -0.4396  0.7831 -0.6059
14140SOL     OW43520   3.681   4.405   6.522  0.2257 -0.6308  0.1673
14140SOL    HW143521   3.697   4.467   6.451 -1.1743 -1.2482 -0.7467
14140SOL    HW243522   3.749   4.423   6.586  0.4749  1.1354 -0.5400
14141SOL     OW43523   4.750   6.951   2.546  0.0485  0.2662 -0.2009
14141SOL    HW143524   4.739   7.027   2.489  0.3033  3.0782  3.1665
14141SOL    HW243525   4.661   6.931   2.577  0.3547  2.0537  2.1173
14142SOL     OW43526   7.489   4.735   4.387 -0.2284  0.1504 -0.0343
14142SOL    HW143527   7.507   4.799   4.456 -1.2263  0.0956  0.3010
14142SOL    HW243528   7.393   4.736   4.378 -0.0590  2.1450 -3.3160
14143SOL     OW43529   2.319   3.401   9.104  0.3565 -0.0660  0.0627
14143SOL    HW143530   2.320   3.443   9.190  0.8886 -0.5471  0.2902
14143SOL    HW243531   2.234   3.426   9.067  0.9628  1.9060 -0.1452
14144SOL     OW43532   0.683   1.048   1.418 -0.0342 -0.3405  0.0643
14144SOL    HW143533   0.654   1.026   1.330  1.0160 -2.5354  0.1934
14144SOL    HW243534   0.754   0.986   1.436  1.8717  2.0128  1.3376
14145SOL     OW43535   3.814   3.477   6.340  0.2273 -0.2700 -0.2130
14145SOL    HW143536   3.757   3.549   6.312  1.0626  0.5237  0.0465
14145SOL    HW243537   3.898   3.494   6.295  0.1947 -1.5533 -0.7877
14146SOL     OW43538   5.541   1.635   7.165 -0.2818 -0.2076  0.0413
14146SOL    HW143539   5.565   1.725   7.140  0.5325 -0.3969  0.1062
14146SOL    HW243540   5.450   1.642   7.193 -1.6721 -0.1475 -3.8383
14147SOL     OW43541   7.792   4.365   5.992 -0.3309 -0.0775 -0.5610
14147SOL    HW143542   7.857   4.325   6.051 -2.0318  0.7845  2.0937
14147SOL    HW243543   7.839   4.436   5.949  0.9620 -0.6286 -0.1069
14148SOL     OW43544   7.880   9.102   0.264  0.2463 -0.8412 -0.1223
14148SOL    HW143545   7.900   9.137   0.177  0.2125 -1.6988 -0.4859
14148SOL    HW243546   7.961   9.113   0.314  0.8895 -2.0876 -0.8554
14149SOL     OW43547   1.393   6.841   5.301  0.9669  0.5922 -0.4995
14149SOL    HW143548   1.469   6.878   5.345 -1.0047  0.9346  3.0483
14149SOL    HW243549   1.374   6.902   5.230  2.6969  1.6864 -0.0825
14150SOL     OW43550   8.600   5.402   5.229  0.1430  0.6608  0.2870
14150SOL    HW143551   8.616   5.371   5.139 -0.1276 -0.1102  0.4981
14150SOL    HW243552   8.599   5.497   5.221 -2.1525  0.5993 -0.9314
14151SOL     OW43553   5.270   6.815   7.201 -0.1069 -0.4559  0.1607
14151SOL    HW143554   5.361   6.825   7.229  0.0689  0.1691 -0.6086
14151SOL    HW243555   5.230   6.764   7.271  1.1366 -1.8897 -0.1216
14152SOL     OW43556   3.957   8.804   0.518 -0.1763 -0.2088 -0.2344
14152SOL    HW143557   3.930   8.895   0.504  1.2600  0.3591  0.5178
14152SOL    HW243558   3.927   8.784   0.607 -1.5748 -0.9169 -0.8252
14153SOL     OW43559   5.490   8.716   7.790 -0.2384 -0.3058 -0.1091
14153SOL    HW143560   5.535   8.653   7.846 -1.6304 -2.1990 -1.0301
14153SOL    HW243561   5.451   8.779   7.851  1.8167  0.1703  0.7910
14154SOL     OW43562   8.644   6.388   8.704  0.1071 -0.5887 -0.1538
14154SOL    HW143563   8.566   6.443   8.696  0.5257  0.1514  0.7269
14154SOL    HW243564   8.610   6.299   8.706 -0.6200 -0.3469 -1.1014
14155SOL     OW43565   4.307   8.033   5.755  0.0855  0.3055  0.4286
14155SOL    HW143566   4.399   8.015   5.737 -0.1292 -0.3828 -0.0112
14155SOL    HW243567   4.260   7.961   5.714 -0.6614  0.7267  0.5259
14156SOL     OW43568   4.707   3.857   4.756 -0.1978  0.5050 -0.1940
14156SOL    HW143569   4.641   3.895   4.813  0.5251  0.7174  0.5125
14156SOL    HW243570   4.691   3.898   4.671 -0.6091  0.9797  0.1053
14157SOL     OW43571   0.133   5.702   6.439  0.1197 -0.2433  0.0209
14157SOL    HW143572   0.136   5.608   6.456  1.0158 -0.3713 -0.7849
14157SOL    HW243573   0.118   5.709   6.345  0.5462  0.4111 -0.0060
14158SOL     OW43574   0.170   6.345   4.392  0.1510  0.0970  0.0396
14158SOL    HW143575   0.149   6.253   4.406 -2.5286  0.7226  0.7180
14158SOL    HW243576   0.207   6.348   4.304  0.4788 -1.6393  0.0816
14159SOL     OW43577   8.196   6.856   0.676  0.4052 -0.0433 -0.1727
14159SOL    HW143578   8.202   6.951   0.667 -1.6996  0.1414 -0.1113
14159SOL    HW243579   8.182   6.825   0.587 -0.7150 -0.1103  0.0188
14160SOL     OW43580   6.562   5.393   1.243 -0.1372  0.1822  0.5933
14160SOL    HW143581   6.524   5.314   1.204 -1.1413  0.2638  1.3521
14160SOL    HW243582   6.619   5.428   1.175 -0.5620 -0.5793 -0.1812
14161SOL     OW43583   8.345   7.800   6.971  0.4411  0.3576  0.5253
14161SOL    HW143584   8.373   7.743   6.900 -1.1698 -0.0749  0.2075
14161SOL    HW243585   8.392   7.882   6.956 -0.9456  0.7905 -1.9316
14162SOL     OW43586   6.982   0.622   3.995  0.4576 -0.2297  0.0381
14162SOL    HW143587   6.894   0.647   3.969  0.3052  0.8589  1.4955
14162SOL    HW243588   7.032   0.704   3.995  0.7451 -0.3651  1.9139
14163SOL     OW43589   8.594   2.956   5.766 -0.2409 -0.0271 -0.3458
14163SOL    HW143590   8.660   2.931   5.703  0.3493  0.5471  0.0293
14163SOL    HW243591   8.544   3.025   5.723  0.2647  0.4779 -0.1355
14164SOL     OW43592   2.797   4.460   0.071  0.0316  0.6149  0.3594
14164SOL    HW143593   2.708   4.489   0.089  0.4249  1.9440  0.2871
14164SOL    HW243594   2.816   4.395   0.138 -1.4354 -0.6648 -0.4127
14165SOL     OW43595   8.816   3.469   2.012  1.1160 -0.2287  1.2781
14165SOL    HW143596   8.886   3.493   1.951  0.3387 -0.6837  0.1677
14165SOL    HW243597   8.739   3.514   1.978  0.2441 -2.0066  0.7764
14166SOL     OW43598   7.582   1.701   1.816  0.5693 -0.6060 -0.1118
14166SOL    HW143599   7.556   1.751   1.894  1.3467 -2.1890  1.2457
14166SOL    HW243600   7.664   1.657   1.842  1.1631 -0.7324 -2.0400
14167SOL     OW43601   0.729   3.664   6.141 -0.0352 -0.6309 -0.1035
14167SOL    HW143602   0.805   3.645   6.196  1.0249  0.2875 -1.2043
14167SOL    HW243603   0.688   3.579   6.128  1.8011 -1.4641 -0.8830
14168SOL     OW43604   6.670   6.820   0.487 -0.2061  0.2402 -0.0267
14168SOL    HW143605   6.736   6.794   0.551  0.6212  0.5283 -0.7348
14168SOL    HW243606   6.586   6.794   0.526  0.1269  1.8016  1.8907
14169SOL     OW43607   2.532   8.127   4.600  0.2910  0.1767 -0.3286
14169SOL    HW143608   2.441   8.122   4.571  0.0555  0.6354  0.3044
14169SOL    HW243609   2.579   8.162   4.525 -0.2213  0.8411 -0.3460
14170SOL     OW43610   3.624   5.441   7.098 -0.1477 -0.0680 -0.0481
14170SOL    HW143611   3.530   5.445   7.081 -0.2133 -2.6781 -0.7251
14170SOL    HW243612   3.650   5.353   7.071  2.3622  0.2994  0.8557
14171SOL     OW43613   6.038   1.299   0.522 -0.1353  0.2968  0.0059
14171SOL    HW143614   6.025   1.225   0.581 -2.1655  0.3226 -0.3579
14171SOL    HW243615   6.120   1.339   0.552 -0.4948 -0.3813  2.0595
14172SOL     OW43616   8.714   2.918   2.542  0.1907 -0.4531 -0.0604
14172SOL    HW143617   8.777   2.850   2.518  1.8435  0.5198  1.2784
14172SOL    HW243618   8.636   2.898   2.491  1.7084 -1.5031 -2.1061
14173SOL     OW43619   8.399   7.542   4.271 -0.1212  0.3907  0.2692
14173SOL    HW143620   8.446   7.548   4.188 -1.4422  2.1131 -0.4180
14173SOL    HW243621   8.321   7.489   4.250  0.2585 -0.4003  0.7984
14174SOL     OW43622   3.774   4.937   4.154  0.1510  0.8259 -0.5859
14174SOL    HW143623   3.867   4.960   4.148  0.1696  0.8293 -0.3062
14174SOL    HW243624   3.766   4.857   4.102 -0.1725  2.1470 -2.6938
14175SOL     OW43625   7.270   7.599   6.558  0.0834 -0.0587 -0.1143
14175SOL    HW143626   7.268   7.602   6.463  1.6686 -2.9973 -0.3604
14175SOL    HW243627   7.263   7.506   6.579 -0.8996  0.5576  2.6927
14176SOL     OW43628   5.053   0.010   1.904 -0.3118 -0.2436  0.2801
14176SOL    HW143629   4.962   0.031   1.880  0.3283  0.2720 -1.9243
14176SOL    HW243630   5.106   0.075   1.857  1.2975 -1.8397 -0.2519
14177SOL     OW43631   6.683   4.041   0.764  0.1226  0.7395 -0.0683
14177SOL    HW143632   6.621   4.059   0.694 -0.4798  0.5324  0.4070
14177SOL    HW243633   6.714   3.952   0.747  2.2372  1.6928 -1.7590
14178SOL     OW43634   2.976   7.410   5.832  0.1214 -0.0874  0.2201
14178SOL    HW143635   2.903   7.361   5.795  0.9011 -1.3576  0.3188
14178SOL    HW243636   3.031   7.432   5.757  0.2461 -0.1785  0.2836
14179SOL     OW43637   6.735   8.687   6.342 -0.2393  0.5782 -0.1363
14179SOL    HW143638   6.647   8.648   6.334 -0.6269  1.2654  0.6424
14179SOL    HW243639   6.787   8.619   6.387 -0.5816  0.4699  0.1048
14180SOL     OW43640   1.278   5.315   1.365  0.2938 -0.8608  0.4243
14180SOL    HW143641   1.323   5.339   1.446  0.5546 -0.1477  0.0793
14180SOL    HW243642   1.304   5.383   1.303 -1.8325  0.0242  0.4074
14181SOL     OW43643   2.893   8.129   6.106  0.5582  0.6184 -0.3147
14181SOL    HW143644   2.856   8.043   6.088  0.8086  0.4542 -0.0615
14181SOL    HW243645   2.890   8.174   6.021  1.0267  0.1283 -0.6012
14182SOL     OW43646   2.553   2.049   3.768  0.0314 -0.1537 -0.2793
14182SOL    HW143647   2.471   2.078   3.728  0.3289  1.2386  0.0614
14182SOL    HW243648   2.527   2.010   3.852 -0.3646 -0.7780 -0.6805
14183SOL     OW43649   0.344   4.368   5.657 -0.7269  0.3772  0.5375
14183SOL    HW143650   0.318   4.451   5.697  0.4449  0.8176  0.3979
14183SOL    HW243651   0.304   4.370   5.570 -0.9779  0.6437  0.6563
14184SOL     OW43652   1.424   5.374   7.104 -0.4113 -0.6047  0.1027
14184SOL    HW143653   1.337   5.386   7.066 -0.7811  0.2266  1.1353
14184SOL    HW243654   1.440   5.456   7.151  0.9710 -0.7146 -0.1335
14185SOL     OW43655   7.417   3.889   1.277 -0.5033 -0.2826 -0.2585
14185SOL    HW143656   7.465   3.966   1.307 -0.3267 -0.4316 -0.1637
14185SOL    HW243657   7.416   3.897   1.181 -1.8860  0.6950 -0.1969
14186SOL     OW43658   8.491   2.034   3.435  0.4537 -0.4477  0.2459
14186SOL    HW143659   8.505   2.120   3.475 -0.7404 -0.2428  0.2385
14186SOL    HW243660   8.466   1.978   3.509  0.8097 -0.6931  0.1828
14187SOL     OW43661   1.873   4.879   1.414  0.2027  0.1357 -0.9534
14187SOL    HW143662   1.852   4.971   1.396  0.5922  0.0803 -1.7278
14187SOL    HW243663   1.945   4.859   1.354  1.6767 -0.0187  0.7848
14188SOL     OW43664   1.283   6.662   7.899  0.0795  0.3740 -0.7044
14188SOL    HW143665   1.215   6.596   7.914 -0.1830  0.4124 -1.6537
14188SOL    HW243666   1.249   6.716   7.827  1.8795 -0.7154 -2.5044
14189SOL     OW43667   4.520   6.350   2.964 -0.1423  0.7101 -0.0294
14189SOL    HW143668   4.485   6.264   2.938  0.3710  0.2049  0.8761
14189SOL    HW243669   4.520   6.401   2.884  0.5792 -0.5103 -0.8493
14190SOL     OW43670   0.803   8.676   4.852  0.3874 -0.2412  0.1815
14190SOL    HW143671   0.775   8.649   4.940 -1.4017 -1.9643 -0.8435
14190SOL    HW243672   0.885   8.628   4.838  1.3680  1.0147  1.3401
14191SOL     OW43673   5.224   9.012   5.522  0.0369 -0.5749 -0.0010
14191SOL    HW143674   5.209   9.060   5.441  2.4176 -0.6034 -0.5417
14191SOL    HW243675   5.318   9.022   5.539 -0.3881 -0.4133  2.8670
14192SOL     OW43676   2.359   0.655   8.404 -0.3948 -0.1791  0.1308
14192SOL    HW143677   2.372   0.689   8.315  0.5642 -0.0318  0.3149
14192SOL    HW243678   2.386   0.563   8.398  1.9797  0.4069  0.7698
14193SOL     OW43679   0.008   9.080   6.870  0.0569 -0.0957  0.1773
14193SOL    HW143680  -0.045   9.027   6.810  0.3676  1.4029 -1.5318
14193SOL    HW243681   0.002   9.036   6.954 -1.9447 -1.2694 -0.5271
14194SOL     OW43682   4.951   3.193   5.209  0.0129 -0.2288  0.6003
14194SOL    HW143683   4.881   3.194   5.143 -0.7515  0.1079  1.3948
14194SOL    HW243684   4.913   3.239   5.284  0.8083 -0.7554  1.3397
14195SOL     OW43685   3.515   5.658   1.923  0.0926  0.0979 -0.7003
14195SOL    HW143686   3.515   5.573   1.967 -2.2102  0.0937 -0.5691
14195SOL    HW243687   3.548   5.639   1.835  1.4533 -0.5420 -0.0736
14196SOL     OW43688   7.645   2.801   5.873 -0.0862  0.0540 -0.3925
14196SOL    HW143689   7.711   2.800   5.942 -0.4176  2.0452  0.0316
14196SOL    HW243690   7.688   2.843   5.799 -0.4099 -0.0546 -0.6459
14197SOL     OW43691   0.971   2.461   8.274  0.2410 -0.1718  0.9033
14197SOL    HW143692   1.024   2.398   8.323  0.9214 -1.5264 -1.4091
14197SOL    HW243693   0.899   2.409   8.238  0.3232  0.5296 -0.3392
14198SOL     OW43694   7.866   0.910   7.209  0.5221  0.4107  0.4825
14198SOL    HW143695   7.782   0.951   7.230  0.9517  1.8836 -0.4702
14198SOL    HW243696   7.899   0.878   7.293 -0.8105  0.1468  0.9237
14199SOL     OW43697   6.727   4.685   4.192 -0.5586  0.4695 -0.4191
14199SOL    HW143698   6.639   4.654   4.173  0.4214 -1.9379 -1.4932
14199SOL    HW243699   6.775   4.606   4.218  2.0322  1.0521 -2.8849
14200SOL     OW43700   6.173   6.306   1.933  0.0936  0.1621  0.7155
14200SOL    HW143701   6.237   6.239   1.908 -1.2765 -0.9647  0.1235
14200SOL    HW243702   6.221   6.364   1.992  1.5121 -0.9340  0.6868
14201SOL     OW43703   2.043   7.909   8.458  0.1470 -0.2478 -0.3352
14201SOL    HW143704   1.948   7.897   8.447  0.0461  0.5853 -0.4809
14201SOL    HW243705   2.059   7.999   8.428  0.6987  0.2728  1.4004
14202SOL     OW43706   8.866   1.427   8.319  0.2618  0.6187 -0.1832
14202SOL    HW143707   8.897   1.336   8.315  0.2220  0.4782  1.6770
14202SOL    HW243708   8.770   1.419   8.315  0.0965  0.2904  2.5701
14203SOL     OW43709   5.711   1.872   5.034  0.5515  0.0539  0.4135
14203SOL    HW143710   5.669   1.916   4.961 -0.6189 -2.0894 -0.2995
14203SOL    HW243711   5.755   1.942   5.082 -0.0743  1.7624 -1.3574
14204SOL     OW43712   8.475   4.061   5.911 -0.1314  0.1831 -0.0523
14204SOL    HW143713   8.380   4.066   5.903 -0.2373 -1.4288 -0.1641
14204SOL    HW243714   8.506   4.146   5.879 -1.4975  0.4781 -0.6773
14205SOL     OW43715   6.862   7.077   3.029 -0.1518  0.6372 -0.0392
14205SOL    HW143716   6.880   7.077   2.935  0.7705 -0.1849  0.1233
14205SOL    HW243717   6.858   7.170   3.052 -1.8782  0.8783 -1.1339
14206SOL     OW43718   3.660   8.070   3.480 -0.0528 -0.2972  0.0852
14206SOL    HW143719   3.596   8.135   3.452  0.2415 -0.6645 -1.5956
14206SOL    HW243720   3.608   8.003   3.524 -0.8084 -0.4247 -0.9552
14207SOL     OW43721   1.546   1.708   5.346 -0.1201 -0.2332  0.2578
14207SOL    HW143722   1.481   1.672   5.406 -0.0802 -0.1691  0.3387
14207SOL    HW243723   1.497   1.772   5.294 -0.4615 -1.2059 -0.6565
14208SOL     OW43724   7.703   5.821   8.625 -0.1012  0.6772 -0.2455
14208SOL    HW143725   7.615   5.801   8.593 -0.5224 -0.8613  1.6350
14208SOL    HW243726   7.693   5.904   8.671 -0.6141  0.4404  0.0820
14209SOL     OW43727   7.725   0.954   8.481  0.1282  0.0512  0.3122
14209SOL    HW143728   7.750   0.981   8.393  0.5468  2.7516  1.1487
14209SOL    HW243729   7.711   1.036   8.528  0.0831 -1.2810  2.8131
14210SOL     OW43730   2.046   0.812   0.834  0.1459 -0.9072  0.0838
14210SOL    HW143731   2.076   0.753   0.765 -0.6963  0.2211 -1.2973
14210SOL    HW243732   1.951   0.815   0.824 -0.0588 -1.2716  1.7671
14211SOL     OW43733   0.791   5.649   4.372  0.5451  0.2608 -0.0022
14211SOL    HW143734   0.710   5.683   4.333  2.2191  2.1800 -2.0906
14211SOL    HW243735   0.822   5.583   4.311 -0.0549 -1.4412  1.4656
14212SOL     OW43736   7.074   0.452   5.837 -0.9612 -0.5017  1.1918
14212SOL    HW143737   7.052   0.543   5.816 -0.7699 -1.2319 -3.2251
14212SOL    HW243738   6.990   0.410   5.855 -1.5960 -0.1804 -0.7568
14213SOL     OW43739   6.231   3.929   0.974  0.0833  0.0641 -0.5498
14213SOL    HW143740   6.212   3.837   0.960 -0.3469  0.3807 -2.2900
14213SOL    HW243741   6.323   3.930   1.000  0.4305 -0.7977 -1.6439
14214SOL     OW43742   7.261   6.359   1.224 -0.5238 -0.5288  0.4049
14214SOL    HW143743   7.315   6.432   1.255 -0.2288 -0.0393 -1.1731
14214SOL    HW243744   7.177   6.370   1.269 -0.2670  0.4012  0.6845
14215SOL     OW43745   0.122   8.754   8.913 -0.1189 -0.8292 -0.5269
14215SOL    HW143746   0.034   8.727   8.885 -0.5156 -0.9445  0.7439
14215SOL    HW243747   0.123   8.736   9.007  0.0009  2.5028  0.2329
14216SOL     OW43748   7.296   4.549   1.534  0.2421  0.3567  0.2444
14216SOL    HW143749   7.246   4.586   1.461 -1.7341  1.3014  1.9336
14216SOL    HW243750   7.344   4.624   1.570 -0.6683  0.4872  1.2784
14217SOL     OW43751   7.367   7.057   4.894  0.3837  0.5453 -0.2268
14217SOL    HW143752   7.277   7.037   4.922  0.7246 -0.5149  0.1586
14217SOL    HW243753   7.387   6.988   4.831  1.3470  0.0603  0.5888
14218SOL     OW43754   5.874   5.386   1.810 -0.2203 -0.5057  0.1833
14218SOL    HW143755   5.942   5.447   1.781 -2.1904  1.0672 -1.4218
14218SOL    HW243756   5.874   5.317   1.744 -1.0659  0.2107 -0.5789
14219SOL     OW43757   1.108   0.456   7.430  0.3257 -0.4518 -0.2598
14219SOL    HW143758   1.113   0.387   7.365  0.9812 -0.8766  0.2320
14219SOL    HW243759   1.198   0.484   7.443 -0.1006  2.4299 -2.4508
14220SOL     OW43760   5.830   3.020   6.085 -0.1135  0.3851  0.0613
14220SOL    HW143761   5.773   2.944   6.091 -0.4583  0.7453  3.8816
14220SOL    HW243762   5.918   2.984   6.075 -0.5281 -0.3054 -1.5024
14221SOL     OW43763   2.630   0.500   4.431 -0.1677  0.2772  0.5718
14221SOL    HW143764   2.652   0.591   4.451 -0.3000  0.1793  1.1943
14221SOL    HW243765   2.711   0.462   4.398  0.2739  0.2524  1.6376
14222SOL     OW43766   5.576   7.823   8.068  0.3944  0.6916 -0.6149
14222SOL    HW143767   5.664   7.836   8.104  0.1583 -0.7077  0.5565
14222SOL    HW243768   5.590   7.784   7.982  0.9136  0.8347 -0.5990
14223SOL     OW43769   7.595   5.968   4.415 -0.1042 -0.1683 -0.4255
14223SOL    HW143770   7.605   5.881   4.454  0.0574 -0.4350 -1.0546
14223SOL    HW243771   7.506   5.995   4.439 -1.1933 -1.6583 -2.4731
14224SOL     OW43772   1.243   1.055   1.021 -0.4306 -0.1673 -0.3122
14224SOL    HW143773   1.325   1.008   1.037 -0.8909 -0.5839  0.9231
14224SOL    HW243774   1.248   1.081   0.929  1.6892  1.0075  0.0576
14225SOL     OW43775   2.445   6.097   5.744  0.2847  0.4894  0.2342
14225SOL    HW143776   2.473   6.146   5.820 -0.0213  0.1212  0.5905
14225SOL    HW243777   2.415   6.013   5.779  1.3793 -0.2014 -0.4275
14226SOL     OW43778   1.024   6.025   6.572 -0.1402  0.4523  0.0199
14226SOL    HW143779   0.968   5.989   6.504 -0.8981 -0.0523  0.8921
14226SOL    HW243780   1.077   6.091   6.527  1.2811 -1.6683 -1.6171
14227SOL     OW43781   0.573   1.502   2.492  0.0909 -0.2706 -0.0702
14227SOL    HW143782   0.654   1.552   2.505  0.0679 -0.0178 -0.8066
14227SOL    HW243783   0.546   1.476   2.579  1.8675 -1.8008  0.0887
14228SOL     OW43784   7.310   1.708   4.631 -0.2448 -0.2707  0.0393
14228SOL    HW143785   7.259   1.647   4.578  0.2411 -1.5931  1.0319
14228SOL    HW243786   7.361   1.759   4.567 -2.5092  0.8641 -0.9505
14229SOL     OW43787   8.683   9.126   5.497  0.2152  0.1634  0.3444
14229SOL    HW143788   8.636   9.182   5.559  0.8241 -0.9732  1.8779
14229SOL    HW243789   8.771   9.164   5.493  0.1463  0.2984  0.0783
14230SOL     OW43790   3.918   7.612   8.355  0.0621  0.1052  0.4846
14230SOL    HW143791   3.866   7.685   8.321  1.4106  0.7973 -0.1810
14230SOL    HW243792   4.000   7.653   8.383  0.5920 -1.0783  0.6962
14231SOL     OW43793   1.845   4.735   6.534  0.5942  0.1424  0.6951
14231SOL    HW143794   1.858   4.828   6.515 -2.3091  0.3170 -1.0735
14231SOL    HW243795   1.808   4.699   6.453  1.6658 -2.5989  1.3076
14232SOL     OW43796   4.083   8.426   0.282  0.1849  0.5770 -0.0461
14232SOL    HW143797   4.124   8.503   0.242 -1.0349  0.3612 -1.8289
14232SOL    HW243798   4.018   8.462   0.342 -0.7186  0.9717 -1.2361
14233SOL     OW43799   8.209   5.228   3.063 -0.3123  0.1264 -0.7427
14233SOL    HW143800   8.184   5.219   2.971 -1.0280 -0.2870 -0.5151
14233SOL    HW243801   8.217   5.323   3.076  0.4651  0.1634 -1.3947
14234SOL     OW43802   0.887   4.924   5.420 -0.6876  0.1731 -0.3410
14234SOL    HW143803   0.915   4.991   5.358 -0.7642  0.2821 -0.2583
14234SOL    HW243804   0.802   4.895   5.387  0.2169 -1.3309 -1.5358
14235SOL     OW43805   0.141   5.424   8.392 -0.3591  0.0122  0.2344
14235SOL    HW143806   0.109   5.337   8.416 -0.1598 -0.1410 -0.0495
14235SOL    HW243807   0.150   5.422   8.297  1.9420 -0.4765  0.3887
14236SOL     OW43808   1.548   8.989   1.521  0.0489  0.0599 -0.2084
14236SOL    HW143809   1.465   8.967   1.563 -0.2721  0.5878 -0.5525
14236SOL    HW243810   1.612   8.930   1.561 -0.2020  0.7105  1.1977
14237SOL     OW43811   6.689   2.864   7.911 -0.0450  0.0309 -0.3394
14237SOL    HW143812   6.687   2.775   7.875  0.8229 -0.2785  0.3381
14237SOL    HW243813   6.782   2.883   7.923 -0.2603  0.5193  0.7438
14238SOL     OW43814   2.999   1.459   5.673 -0.2371  0.1774 -0.5501
14238SOL    HW143815   2.946   1.538   5.683 -0.5335  0.1812 -1.9746
14238SOL    HW243816   3.023   1.435   5.763 -1.1161  1.2145 -0.0137
14239SOL     OW43817   4.651   3.366   3.179  0.0791  0.1494  0.2270
14239SOL    HW143818   4.573   3.312   3.195 -0.0333 -0.2410 -1.4643
14239SOL    HW243819   4.711   3.308   3.132  2.4516 -0.3385  3.5432
14240SOL     OW43820   6.326   1.429   3.060 -0.1401 -0.6955  0.3647
14240SOL    HW143821   6.312   1.340   3.091 -1.8913 -0.5963 -0.0385
14240SOL    HW243822   6.407   1.457   3.104 -0.3378 -1.9689  1.6153
14241SOL     OW43823   6.115   4.540   3.499  0.0895 -0.4609  0.3270
14241SOL    HW143824   6.026   4.511   3.478  0.3229 -0.6307 -0.4426
14241SOL    HW243825   6.103   4.604   3.570 -0.6980  0.0079 -0.2161
14242SOL     OW43826   3.884   5.790   5.486  0.2929  0.0484  0.2005
14242SOL    HW143827   3.816   5.723   5.488 -0.3714  0.7042  0.2457
14242SOL    HW243828   3.965   5.742   5.468  0.1781 -1.0325  2.2803
14243SOL     OW43829   5.450   3.132   5.780 -0.6485  0.3811 -0.4498
14243SOL    HW143830   5.483   3.088   5.702  2.5703  2.0670 -0.1833
14243SOL    HW243831   5.495   3.217   5.781 -1.5456  0.9387  2.5765
14244SOL     OW43832   8.228   8.524   4.147  0.3662 -0.2937 -0.2571
14244SOL    HW143833   8.277   8.603   4.171 -0.3656 -0.4877  2.1186
14244SOL    HW243834   8.280   8.452   4.181 -1.2123 -0.5350  1.8239
14245SOL     OW43835   6.318   4.328   8.425  0.0510  0.0176 -0.5790
14245SOL    HW143836   6.325   4.411   8.379 -1.6750  0.6387  0.1853
14245SOL    HW243837   6.409   4.302   8.442  0.6300  1.4703 -1.2912
14246SOL     OW43838   3.409   5.530   6.933 -0.9649  0.9619  0.7315
14246SOL    HW143839   3.371   5.446   6.911 -0.9592  0.2099  3.2912
14246SOL    HW243840   3.344   5.572   6.990 -0.0034  1.6984  1.3219
14247SOL     OW43841   0.828   6.454   3.915  0.6827 -0.1236 -0.8178
14247SOL    HW143842   0.862   6.542   3.933 -1.8377  0.6950  0.5087
14247SOL    HW243843   0.806   6.419   4.002  0.0376 -1.3396 -1.4455
14248SOL     OW43844   8.375   1.530   3.002  0.0865 -0.1571  0.2381
14248SOL    HW143845   8.382   1.563   2.913  1.9351 -0.0632  0.3806
14248SOL    HW243846   8.281   1.533   3.022 -0.1154  2.4056 -0.7220
14249SOL     OW43847   7.219   0.179   1.005  0.0408  0.1729  0.4806
14249SOL    HW143848   7.151   0.132   1.054  0.2593 -1.1231 -0.3967
14249SOL    HW243849   7.203   0.271   1.024 -1.3982 -0.1597  1.0115
14250SOL     OW43850   2.492   6.459   9.037  0.6869 -0.1194 -0.2106
14250SOL    HW143851   2.585   6.447   9.020  0.7674  0.7983 -0.4234
14250SOL    HW243852   2.449   6.396   8.978  1.1343  0.0947 -0.7786
14251SOL     OW43853   0.246   3.859   1.969  0.5357 -0.0062 -0.7837
14251SOL    HW143854   0.308   3.856   1.896  0.6907 -0.0078 -0.6538
14251SOL    HW243855   0.160   3.871   1.928  0.4315 -1.5348 -1.0769
14252SOL     OW43856   0.084   1.829   6.124  0.2291 -0.1721 -0.1178
14252SOL    HW143857  -0.009   1.824   6.102  0.5258 -0.2137 -1.4341
14252SOL    HW243858   0.106   1.921   6.113  0.0529  0.1068  1.5575
14253SOL     OW43859   1.534   8.607   3.175  0.2601  0.1943  0.9586
14253SOL    HW143860   1.566   8.556   3.250  1.1771 -1.0022 -0.1924
14253SOL    HW243861   1.440   8.615   3.190  0.4869  0.3172  2.4220
14254SOL     OW43862   1.713   5.195   3.959  0.0711 -0.0883 -0.5356
14254SOL    HW143863   1.746   5.194   4.049 -1.4634  1.4089  0.1219
14254SOL    HW243864   1.765   5.130   3.913  1.1953 -0.5922  1.3347
14255SOL     OW43865   5.977   3.298   6.314 -0.0470  0.1370 -0.3550
14255SOL    HW143866   6.056   3.277   6.364  0.1899  1.5622 -0.0944
14255SOL    HW243867   5.945   3.213   6.284  0.1215 -0.7139  1.7103
14256SOL     OW43868   3.379   3.524   6.844 -0.0250  0.0228  0.6240
14256SOL    HW143869   3.304   3.467   6.863 -0.1940  0.1093  0.2345
14256SOL    HW243870   3.452   3.465   6.828 -0.4345 -0.1449 -0.8133
14257SOL     OW43871   1.151   7.047   3.705  0.5580  0.1201 -0.1038
14257SOL    HW143872   1.088   6.999   3.652  0.9936  1.3354 -1.8114
14257SOL    HW243873   1.235   7.003   3.688  0.3549 -0.9998  1.5432
14258SOL     OW43874   2.891   5.000   4.957 -0.0142 -0.1000  0.2865
14258SOL    HW143875   2.866   5.036   4.871 -0.2402  1.9033  1.1489
14258SOL    HW243876   2.968   4.947   4.939  1.5027  2.3215 -0.8225
14259SOL     OW43877   0.470   5.324   2.218 -0.2409  0.5236 -0.0124
14259SOL    HW143878   0.410   5.336   2.145 -2.0026 -2.8266  0.6770
14259SOL    HW243879   0.556   5.314   2.178 -0.8884  0.6378 -1.4788
14260SOL     OW43880   0.894   1.895   1.943 -0.1577 -0.3423 -0.5854
14260SOL    HW143881   0.857   1.808   1.962 -0.4065 -0.2185 -0.4938
14260SOL    HW243882   0.890   1.902   1.848  0.4004 -0.6641 -0.6376
14261SOL     OW43883   0.544   4.157   1.750  0.0487 -0.4154 -0.4430
14261SOL    HW143884   0.588   4.072   1.751  0.3214 -0.2803 -0.5969
14261SOL    HW243885   0.572   4.197   1.667 -0.5906 -0.4375 -0.6754
14262SOL     OW43886   6.521   3.231   1.341  0.3250 -0.1391  0.1420
14262SOL    HW143887   6.441   3.212   1.292  1.8494 -0.3511 -2.5090
14262SOL    HW243888   6.588   3.239   1.273  2.5982 -0.1913  2.2538
14263SOL     OW43889   4.609   1.278   0.948  0.5833 -0.3643 -0.2845
14263SOL    HW143890   4.528   1.329   0.945  0.6245 -0.3037 -0.3968
14263SOL    HW243891   4.606   1.225   0.869  1.1042  0.3379 -0.7906
14264SOL     OW43892   7.578   2.487   2.405 -0.0150 -0.1382  0.0910
14264SOL    HW143893   7.491   2.453   2.426  0.0261 -0.9620 -0.9753
14264SOL    HW243894   7.633   2.409   2.398  0.6594  0.3323  0.1029
14265SOL     OW43895   3.582   6.617   8.127  0.3311  0.1222  0.2444
14265SOL    HW143896   3.516   6.662   8.181  1.6990  0.3072  1.8174
14265SOL    HW243897   3.548   6.528   8.119 -0.4820  0.4023  0.3876
14266SOL     OW43898   6.891   2.990   3.603 -0.3852  0.0555  0.1943
14266SOL    HW143899   6.803   3.018   3.577  0.4318  0.7430 -2.0278
14266SOL    HW243900   6.939   3.072   3.619  0.2229 -0.2741  0.0967
14267SOL     OW43901   4.840   5.126   5.316  0.5944 -0.3640  0.2720
14267SOL    HW143902   4.815   5.033   5.310 -1.4068 -0.0031  2.0705
14267SOL    HW243903   4.907   5.136   5.248 -0.2677 -2.7424 -1.0788
14268SOL     OW43904   0.318   2.730   1.761 -0.1394  0.0432 -0.0630
14268SOL    HW143905   0.254   2.670   1.722  1.8324 -1.4688 -1.1743
14268SOL    HW243906   0.305   2.722   1.855 -1.8992  0.1662 -0.2748
14269SOL     OW43907   0.999   3.988   2.172 -0.6309 -0.2985 -0.3763
14269SOL    HW143908   0.911   3.961   2.147 -1.7775  1.3057  1.6868
14269SOL    HW243909   0.990   4.022   2.260  1.4485  2.9311 -1.2461
14270SOL     OW43910   2.450   0.945   2.498 -0.6468  0.2773 -0.1999
14270SOL    HW143911   2.539   0.962   2.467 -0.5900  0.3174 -0.0120
14270SOL    HW243912   2.426   0.863   2.455 -1.2677  1.2815 -1.8637
14271SOL     OW43913   7.618   3.257   2.929 -0.0753  0.4497 -0.2318
14271SOL    HW143914   7.689   3.254   2.992 -0.5983  0.3267  0.3562
14271SOL    HW243915   7.622   3.173   2.883 -1.1179 -0.4479  1.2268
14272SOL     OW43916   4.026   7.345   2.265 -0.4618 -0.4711 -0.1393
14272SOL    HW143917   4.108   7.362   2.313 -0.6720 -0.9181  0.3947
14272SOL    HW243918   4.027   7.250   2.251 -2.0203 -0.8593  1.9844
14273SOL     OW43919   4.123   5.042   6.374  0.1418 -0.3110 -0.2397
14273SOL    HW143920   4.129   5.137   6.383  2.0810 -0.3694 -0.5366
14273SOL    HW243921   4.103   5.011   6.462 -3.6341  0.4803 -0.6296
14274SOL     OW43922   5.992   7.951   6.878 -0.1638 -0.4281 -0.2220
14274SOL    HW143923   5.908   7.906   6.873 -0.2823 -0.3480  0.8137
14274SOL    HW243924   5.980   8.030   6.827 -1.0688  0.0846  0.7418
14275SOL     OW43925   0.669   4.402   7.181 -0.6305 -0.3331 -0.1692
14275SOL    HW143926   0.671   4.494   7.208 -0.1612  0.0114 -1.3328
14275SOL    HW243927   0.694   4.354   7.260  1.3455  0.6885 -0.1055
14276SOL     OW43928   2.176   5.003   3.072 -0.6810 -0.3936 -0.2680
14276SOL    HW143929   2.106   5.055   3.032 -1.3333  0.7723  2.1965
14276SOL    HW243930   2.166   5.018   3.166  1.7182 -1.7379  0.2765
14277SOL     OW43931   6.146   6.601   3.299 -0.1214 -0.0170  0.1475
14277SOL    HW143932   6.142   6.672   3.363  0.3529 -1.0381  1.3674
14277SOL    HW243933   6.222   6.622   3.245  0.4740  0.0241  0.9828
14278SOL     OW43934   1.728   2.499   0.241  0.2161  0.1183  0.3769
14278SOL    HW143935   1.815   2.519   0.205 -0.8157  1.0376 -1.7877
14278SOL    HW243936   1.711   2.570   0.303  0.4920  0.6402 -0.1353
14279SOL     OW43937   5.306   4.138   4.995  0.7302  0.5504  0.2906
14279SOL    HW143938   5.275   4.062   5.044 -0.0375  0.6763  0.0249
14279SOL    HW243939   5.226   4.189   4.979  0.9862  0.5512 -1.0158
14280SOL     OW43940   8.892   5.054   8.777 -0.6482  0.4203 -0.7460
14280SOL    HW143941   8.807   5.012   8.767  0.0699 -1.0839 -0.8744
14280SOL    HW243942   8.939   5.032   8.697  0.1386  0.5405 -0.3281
14281SOL     OW43943   0.811   8.670   1.363  0.1837 -0.0241 -0.2527
14281SOL    HW143944   0.879   8.737   1.367  1.2981 -1.1047 -0.3132
14281SOL    HW243945   0.751   8.700   1.295  0.4662  1.0533 -0.0500
14282SOL     OW43946   8.119   8.284   4.496  0.1303  0.2034 -0.6026
14282SOL    HW143947   8.025   8.291   4.517  0.5459  1.5476  1.0195
14282SOL    HW243948   8.122   8.228   4.419 -2.2236  2.2909 -2.3601
14283SOL     OW43949   7.960   5.383   6.291  0.1551 -0.0229 -0.9117
14283SOL    HW143950   7.992   5.339   6.369 -1.1147  1.4279  0.4847
14283SOL    HW243951   7.865   5.391   6.305  0.2028  2.2605 -1.5219
14284SOL     OW43952   1.221   6.933   2.880  0.0134  0.1367  0.5925
14284SOL    HW143953   1.264   6.973   2.957 -1.2991  0.8401  0.9904
14284SOL    HW243954   1.215   7.004   2.817 -1.0589  0.2213  0.7648
14285SOL     OW43955   6.699   5.262   5.600 -0.5102 -0.0979 -0.5469
14285SOL    HW143956   6.674   5.178   5.560  1.0561 -0.8219 -0.1024
14285SOL    HW243957   6.699   5.245   5.694 -0.7264  0.5725 -0.4219
14286SOL     OW43958   2.815   7.002   7.006 -0.8193  0.2364  0.2541
14286SOL    HW143959   2.865   6.975   7.083 -1.4701 -2.5084 -0.1856
14286SOL    HW243960   2.776   7.086   7.031  1.8637  1.2166  1.5276
14287SOL     OW43961   3.176   8.931   7.150  0.3108  0.4082 -0.1291
14287SOL    HW143962   3.134   8.852   7.117 -0.0926  0.8879 -0.7862
14287SOL    HW243963   3.134   8.948   7.234  1.5433 -0.9841  0.8283
14288SOL     OW43964   4.868   6.272   2.339 -0.5099  0.2278  0.5128
14288SOL    HW143965   4.896   6.230   2.257  0.9036  0.5667  0.7876
14288SOL    HW243966   4.837   6.358   2.312 -1.1656 -0.0982  0.2102
14289SOL     OW43967   9.071   4.212   0.750  0.0505  0.3696 -0.2468
14289SOL    HW143968   9.103   4.213   0.660 -1.0568  2.2122 -0.6684
14289SOL    HW243969   8.976   4.225   0.742  0.0817  1.8173  1.2057
14290SOL     OW43970   8.515   8.585   2.800 -0.1962 -0.0379  0.4000
14290SOL    HW143971   8.500   8.655   2.862 -1.5629 -0.4752  0.5914
14290SOL    HW243972   8.585   8.618   2.743 -1.2925  1.7835  0.0250
14291SOL     OW43973   7.519   4.945   4.684 -0.0769  0.6000  0.6915
14291SOL    HW143974   7.581   4.885   4.724 -0.2966 -0.6154 -0.7213
14291SOL    HW243975   7.571   5.024   4.664  0.3524  0.6642  1.9952
14292SOL     OW43976   6.415   7.289   7.733  0.0497 -0.0162 -0.1639
14292SOL    HW143977   6.363   7.318   7.658 -1.1203 -1.5436 -0.0016
14292SOL    HW243978   6.501   7.271   7.696  0.2506  1.6940 -0.6192
14293SOL     OW43979   4.958   1.212   5.018 -0.0634  0.2243  0.2371
14293SOL    HW143980   4.947   1.304   4.993  0.0648  0.3018  0.4611
14293SOL    HW243981   4.922   1.163   4.944  0.5661  0.4481 -0.2291
14294SOL     OW43982   2.693   7.373   7.654  0.3000  0.1118  0.4478
14294SOL    HW143983   2.779   7.395   7.618  0.2403 -0.6366 -0.1831
14294SOL    HW243984   2.632   7.387   7.582  0.0460 -0.4339  0.5479
14295SOL     OW43985   5.963   8.374   4.048  0.2647 -0.2334  0.0809
14295SOL    HW143986   5.909   8.296   4.039 -0.1019  0.0390 -0.0875
14295SOL    HW243987   5.955   8.419   3.963  0.7260 -0.1745  0.0657
14296SOL     OW43988   5.128   1.777   7.440 -0.1400  0.3795 -0.1757
14296SOL    HW143989   5.193   1.707   7.429 -0.5472  0.0999 -0.8846
14296SOL    HW243990   5.137   1.830   7.361  1.1186  1.9628  0.9597
14297SOL     OW43991   8.030   5.994   0.689  0.2122  0.0490  0.2527
14297SOL    HW143992   8.027   5.976   0.783  2.6709  2.1294  0.8435
14297SOL    HW243993   8.073   5.917   0.652 -0.7458 -0.7792  0.7906
14298SOL     OW43994   3.331   6.605   7.578 -0.1777  0.4595 -0.1632
14298SOL    HW143995   3.375   6.598   7.663  0.4707  0.9831 -0.4418
14298SOL    HW243996   3.292   6.692   7.578 -1.6837 -0.1954  0.2845
14299SOL     OW43997   8.074   6.104   6.488  0.0663  0.5578  0.0109
14299SOL    HW143998   8.141   6.163   6.523 -1.0507  0.6579  2.1091
14299SOL    HW243999   8.034   6.063   6.565 -1.8445  0.0195 -1.1797
14300SOL     OW44000   1.715   8.832   6.416 -0.2949 -0.3691  0.2699
14300SOL    HW144001   1.777   8.782   6.468 -0.6317 -1.2288 -0.1375
14300SOL    HW244002   1.751   8.830   6.327  1.3489  2.7528  0.6915
14301SOL     OW44003   3.329   5.001   0.766 -0.0634 -0.2008 -0.6332
14301SOL    HW144004   3.419   4.990   0.798 -0.4608 -2.1901 -0.0876
14301SOL    HW244005   3.330   5.087   0.723  1.2104  1.4093  2.2867
14302SOL     OW44006   6.653   2.361   5.192 -0.2733 -0.2778 -0.3633
14302SOL    HW144007   6.616   2.281   5.156 -1.8725  0.6803 -0.9824
14302SOL    HW244008   6.721   2.332   5.252 -1.1131 -2.1018 -0.2299
14303SOL     OW44009   6.998   3.387   7.089 -0.0744  0.0098  0.4380
14303SOL    HW144010   7.066   3.366   7.153 -0.2610  0.6717  0.8693
14303SOL    HW244011   7.038   3.452   7.032 -0.8040  1.5641  1.6185
14304SOL     OW44012   0.099   2.469   8.449  0.0389  0.4821 -0.9722
14304SOL    HW144013   0.081   2.527   8.374  0.2083 -1.3056 -2.4643
14304SOL    HW244014   0.188   2.491   8.474  0.5513  0.0580 -2.3262
14305SOL     OW44015   6.642   1.291   3.068 -0.5023 -0.3661 -0.8650
14305SOL    HW144016   6.603   1.342   2.997  0.7853 -0.5816 -1.7709
14305SOL    HW244017   6.598   1.206   3.064 -2.7395  0.6462  0.7258
14306SOL     OW44018   1.012   7.866   8.540 -0.0806  0.4903  0.4049
14306SOL    HW144019   1.026   7.779   8.577  1.4490  0.9102  0.9039
14306SOL    HW244020   0.988   7.920   8.615  2.9880  1.3328  0.9286
14307SOL     OW44021   4.694   5.081   2.217 -0.1697  0.3266 -0.9364
14307SOL    HW144022   4.605   5.111   2.201 -0.3202 -0.2503 -1.1929
14307SOL    HW244023   4.740   5.159   2.248 -1.1001  0.3221  0.5704
14308SOL     OW44024   4.612   4.675   8.525  0.0211  0.7091 -0.1001
14308SOL    HW144025   4.646   4.734   8.592 -0.6520  0.4905  0.4476
14308SOL    HW244026   4.594   4.593   8.572 -0.8267  0.6790 -0.4618
14309SOL     OW44027   8.244   7.457   3.004  0.1078 -0.2610  0.2298
14309SOL    HW144028   8.285   7.542   3.019  1.3651 -1.0160  1.2233
14309SOL    HW244029   8.302   7.413   2.942  0.6235 -1.1746  1.3204
14310SOL     OW44030   8.853   0.721   2.035 -0.2548 -0.3881 -0.8072
14310SOL    HW144031   8.783   0.677   1.988 -0.8776  0.2236 -0.4758
14310SOL    HW244032   8.897   0.652   2.084 -2.3633 -0.4660  1.1900
14311SOL     OW44033   7.392   4.970   7.821 -0.2689  0.2322  1.0519
14311SOL    HW144034   7.350   4.913   7.756 -2.2100  1.1483  1.4568
14311SOL    HW244035   7.483   4.976   7.791 -1.0005  0.3026 -1.3639
14312SOL     OW44036   1.239   7.870   5.019  0.1764  1.0329  0.4833
14312SOL    HW144037   1.262   7.858   4.926 -0.1848  1.8763  0.2839
14312SOL    HW244038   1.268   7.788   5.060  2.0679  1.3749 -0.0339
14313SOL     OW44039   6.734   7.819   3.672  0.0440 -0.1969  0.5378
14313SOL    HW144040   6.750   7.911   3.690 -0.5139  0.1282 -0.5336
14313SOL    HW244041   6.812   7.774   3.705  0.8729  0.7947 -0.0172
14314SOL     OW44042   2.721   7.883   6.035  0.1978 -0.0435  0.7533
14314SOL    HW144043   2.682   7.826   6.102  0.4105 -2.1392 -0.7844
14314SOL    HW244044   2.654   7.948   6.017 -0.6766 -0.6950  1.5564
14315SOL     OW44045   0.297   3.245   7.107 -0.0205 -0.0191  0.3498
14315SOL    HW144046   0.288   3.339   7.125  1.7028 -0.0377  1.5844
14315SOL    HW244047   0.286   3.204   7.193 -1.4725 -1.0381 -0.2915
14316SOL     OW44048   6.775   0.762   3.032 -0.3231  0.3602  0.0271
14316SOL    HW144049   6.728   0.774   3.115 -2.3027 -0.3348 -0.9483
14316SOL    HW244050   6.849   0.705   3.055 -2.3213 -2.0702  0.8832
14317SOL     OW44051   6.179   4.995   3.500 -0.3531 -0.3543  0.2890
14317SOL    HW144052   6.125   5.004   3.422 -1.3737 -1.1849  0.8674
14317SOL    HW244053   6.174   4.902   3.523  0.2484 -0.2024  1.1118
14318SOL     OW44054   2.854   6.076   7.439  0.4232 -0.1468 -0.5709
14318SOL    HW144055   2.922   6.124   7.487  0.2467  0.8866 -1.3122
14318SOL    HW244056   2.779   6.075   7.498  0.5868  0.0770 -0.3591
14319SOL     OW44057   2.854   0.476   0.092 -1.2160 -0.5281 -0.8246
14319SOL    HW144058   2.830   0.551   0.147  0.0466 -0.4680 -0.3424
14319SOL    HW244059   2.936   0.444   0.129 -0.7400 -0.9613 -2.2156
14320SOL     OW44060   4.045   7.369   7.687  0.2074  0.5864 -0.0191
14320SOL    HW144061   3.991   7.415   7.750 -0.6497  0.6074 -0.7449
14320SOL    HW244062   4.131   7.410   7.694  0.1620  0.4890  1.2200
14321SOL     OW44063   3.001   4.701   4.652  0.3320 -0.0260  0.5398
14321SOL    HW144064   2.946   4.729   4.579  1.4664  1.2953  0.1317
14321SOL    HW244065   2.943   4.700   4.728 -0.3576  0.9236  0.0479
14322SOL     OW44066   6.052   6.657   8.291  0.7568  0.0057  0.0131
14322SOL    HW144067   6.139   6.641   8.327  0.2606 -0.0523  1.2517
14322SOL    HW244068   5.993   6.646   8.366 -0.2724  0.5107 -0.6998
14323SOL     OW44069   6.148   6.020   3.306 -0.3823  0.1117 -0.1347
14323SOL    HW144070   6.119   6.096   3.255 -0.4931 -0.4396 -0.9156
14323SOL    HW244071   6.243   6.030   3.310 -0.1422 -0.7752 -2.0749
14324SOL     OW44072   6.849   3.388   5.311 -0.3002  0.8448  0.3136
14324SOL    HW144073   6.757   3.407   5.295 -0.0542  1.3106 -0.6239
14324SOL    HW244074   6.863   3.303   5.270 -0.4687  0.4507  1.0600
14325SOL     OW44075   4.144   1.044   8.011  0.3960 -0.0734 -0.3851
14325SOL    HW144076   4.189   1.087   8.083 -0.0254  1.7684 -1.1677
14325SOL    HW244077   4.211   1.036   7.943  0.7685 -1.7240  0.1318
14326SOL     OW44078   1.613   4.143   4.136  0.0478 -0.0711  0.1641
14326SOL    HW144079   1.700   4.177   4.157  1.3563 -1.9662 -1.8138
14326SOL    HW244080   1.613   4.053   4.168 -2.0968  0.5537  2.2045
14327SOL     OW44081   4.717   3.987   8.505 -0.6786 -0.0800 -0.0021
14327SOL    HW144082   4.730   3.933   8.427  0.4423 -1.3103  0.9894
14327SOL    HW244083   4.775   4.062   8.492  0.2994 -0.7953  0.0864
14328SOL     OW44084   4.343   4.958   3.454  0.5114 -0.6331  0.0628
14328SOL    HW144085   4.314   4.879   3.500  0.5428 -0.2320  0.7807
14328SOL    HW244086   4.413   4.993   3.508 -0.8138  0.9746  0.8267
14329SOL     OW44087   1.772   2.576   0.646 -0.2218  0.1322 -0.5357
14329SOL    HW144088   1.749   2.512   0.714  0.2554 -0.6318 -1.0796
14329SOL    HW244089   1.867   2.574   0.641 -0.1297  1.6009  0.0976
14330SOL     OW44090   5.693   0.734   5.893  0.3710 -0.8893 -0.1294
14330SOL    HW144091   5.754   0.661   5.885 -0.0850 -1.1839 -1.0496
14330SOL    HW244092   5.744   0.810   5.864  0.0397 -1.2872 -1.8671
14331SOL     OW44093   4.237   9.006   6.519 -0.4202  0.4303  0.1257
14331SOL    HW144094   4.263   9.039   6.433  0.4899 -0.2895  0.1147
14331SOL    HW244095   4.309   9.031   6.577 -1.2520  1.3534  0.8053
14332SOL     OW44096   0.141   7.309   9.066 -0.3108  0.1052  0.2050
14332SOL    HW144097   0.170   7.399   9.086  0.1979 -0.1710  0.7485
14332SOL    HW244098   0.092   7.318   8.985  1.9833  0.4933 -1.2428
14333SOL     OW44099   1.410   0.142   5.640 -0.3335  0.3913 -0.1101
14333SOL    HW144100   1.335   0.083   5.634 -0.7509  0.6661  1.7184
14333SOL    HW244101   1.415   0.184   5.555 -0.0078 -2.2591 -1.5128
14334SOL     OW44102   1.234   6.809   0.119 -0.3951  0.4116 -0.1336
14334SOL    HW144103   1.158   6.814   0.178 -0.5612  0.6908 -0.3693
14334SOL    HW244104   1.292   6.744   0.160 -1.2540 -0.6226 -0.5292
14335SOL     OW44105   8.384   5.485   2.501 -0.0422  0.0390  0.0370
14335SOL    HW144106   8.346   5.547   2.563  0.0152 -0.4052  0.5260
14335SOL    HW244107   8.478   5.494   2.512 -0.0278 -1.4664  1.4944
14336SOL     OW44108   1.491   4.874   8.557 -0.2181 -0.3404  0.3102
14336SOL    HW144109   1.423   4.885   8.490 -0.6451 -0.6611  0.6824
14336SOL    HW244110   1.447   4.828   8.629  0.3771 -0.4940  0.5852
14337SOL     OW44111   7.857   2.587   5.643 -0.9409 -0.1033  0.2121
14337SOL    HW144112   7.950   2.566   5.656 -0.9023 -2.7176 -3.1143
14337SOL    HW244113   7.854   2.682   5.645  1.7065  0.0563  0.9204
14338SOL     OW44114   1.144   2.525   5.468 -0.0167  0.2679  0.1361
14338SOL    HW144115   1.192   2.536   5.386 -0.7572  0.4974 -0.2717
14338SOL    HW244116   1.204   2.476   5.525  0.6109  0.3677 -0.4382
14339SOL     OW44117   7.401   5.353   7.090  0.3377  0.2438  0.0790
14339SOL    HW144118   7.463   5.286   7.118  1.6467  1.9919  1.6323
14339SOL    HW244119   7.317   5.325   7.128  0.3128 -1.6285 -1.2176
14340SOL     OW44120   1.839   7.138   6.061 -0.1040 -0.4074  0.0902
14340SOL    HW144121   1.890   7.218   6.048  1.3327 -1.2705  0.2264
14340SOL    HW244122   1.889   7.070   6.016 -0.2284 -1.5949  1.6438
14341SOL     OW44123   0.120   0.026   7.303  0.1394 -0.7318  0.3484
14341SOL    HW144124   0.059   0.095   7.328 -0.8966 -1.6977  0.5860
14341SOL    HW244125   0.162  -0.000   7.385  0.4242 -0.4863  0.2813
14342SOL     OW44126   2.177   2.545   8.379  0.2661  0.0340 -0.0204
14342SOL    HW144127   2.172   2.628   8.332 -0.0406 -0.7003 -1.3201
14342SOL    HW244128   2.216   2.483   8.317  0.0908 -0.9057  0.7698
14343SOL     OW44129   1.246   7.306   0.651  0.1541  0.2921  0.0272
14343SOL    HW144130   1.166   7.259   0.628 -0.2385  1.6241 -1.4786
14343SOL    HW244131   1.308   7.236   0.674 -0.5403 -0.9813 -1.6939
14344SOL     OW44132   4.538   5.712   7.012  0.2040  0.6758  0.1439
14344SOL    HW144133   4.585   5.795   7.014 -0.9927  1.4687 -1.6437
14344SOL    HW244134   4.465   5.727   6.951  0.4129 -1.9094 -0.8900
14345SOL     OW44135   1.588   4.038   2.108  0.2009 -0.1497  0.0097
14345SOL    HW144136   1.552   3.973   2.047 -1.2599 -0.7343  1.4253
14345SOL    HW244137   1.655   4.084   2.057 -0.2144 -1.3294 -1.6896
14346SOL     OW44138   2.457   5.572   3.720  0.6098  0.2062 -0.3947
14346SOL    HW144139   2.467   5.642   3.655  2.2597  0.3116 -0.0740
14346SOL    HW244140   2.421   5.616   3.797 -3.9054 -0.3446 -1.8977
14347SOL     OW44141   2.706   7.277   2.008  0.7561  0.2373  0.3471
14347SOL    HW144142   2.615   7.280   2.036  0.5427 -0.4596 -0.2540
14347SOL    HW244143   2.724   7.365   1.973  0.4679  0.5247  0.9059
14348SOL     OW44144   8.880   4.097   2.170  0.4210  0.0033 -0.1611
14348SOL    HW144145   8.938   4.106   2.094 -1.3036 -0.7854 -1.6437
14348SOL    HW244146   8.901   4.173   2.225  1.0732  1.1224 -1.8721
14349SOL     OW44147   4.826   5.440   5.107 -0.2271 -0.2146 -0.1386
14349SOL    HW144148   4.813   5.365   5.050 -1.4875  0.5934 -0.9755
14349SOL    HW244149   4.756   5.432   5.172  1.4686 -1.3785  1.6449
14350SOL     OW44150   2.261   0.047   7.741  0.4413 -0.3172 -0.2787
14350SOL    HW144151   2.302  -0.025   7.693 -0.1858 -1.0678  0.2782
14350SOL    HW244152   2.327   0.116   7.742  0.0073  0.3038 -3.4272
14351SOL     OW44153   6.700   9.010   3.821 -0.3020 -0.0745  0.6113
14351SOL    HW144154   6.739   9.061   3.892 -0.9723  0.1540  0.8308
14351SOL    HW244155   6.606   9.015   3.838 -0.5852  1.0511 -0.9804
14352SOL     OW44156   2.848   1.781   1.861 -0.0047 -0.0360 -1.1450
14352SOL    HW144157   2.896   1.858   1.828 -0.9266  0.2484 -1.8770
14352SOL    HW244158   2.756   1.803   1.848 -0.3559 -0.5194  0.3560
14353SOL     OW44159   7.694   7.738   3.095  0.3635 -0.2622  0.1904
14353SOL    HW144160   7.660   7.708   3.011 -1.6678 -0.5086  1.0606
14353SOL    HW244161   7.646   7.687   3.160  2.2251 -0.4135  1.5258
14354SOL     OW44162   4.358   1.842   8.566  0.3133 -0.2742 -0.0206
14354SOL    HW144163   4.338   1.925   8.610 -0.4712  0.1341 -1.1001
14354SOL    HW244164   4.389   1.785   8.636  0.8748  0.9230  0.7447
14355SOL     OW44165   4.960   4.545   1.201 -0.3165  0.8383 -0.2836
14355SOL    HW144166   4.958   4.604   1.275 -0.1728 -0.9307  1.2109
14355SOL    HW244167   5.053   4.538   1.178 -0.2338  0.4651  0.1588
14356SOL     OW44168   6.790   3.668   2.103  0.1703  0.4052  0.2814
14356SOL    HW144169   6.826   3.757   2.108 -0.2184  0.5245  1.3400
14356SOL    HW244170   6.866   3.612   2.091  0.3403  0.9378 -1.3846
14357SOL     OW44171   2.997   5.717   2.922 -0.1189  0.1857 -0.0292
14357SOL    HW144172   3.015   5.790   2.862 -0.2769 -0.4036 -0.8024
14357SOL    HW244173   2.921   5.673   2.884  1.5716 -1.9950 -1.0809
14358SOL     OW44174   7.806   1.808   5.394 -0.9342 -0.1212  0.6612
14358SOL    HW144175   7.809   1.736   5.332 -0.4970  0.3223  0.1583
14358SOL    HW244176   7.751   1.776   5.466  2.1989 -2.4248  2.2771
14359SOL     OW44177   1.636   3.670   8.054  0.1188  0.3169 -0.4778
14359SOL    HW144178   1.708   3.697   8.112  0.6386 -0.3706 -0.7840
14359SOL    HW244179   1.654   3.714   7.971  2.1505 -2.4427 -1.6613
14360SOL     OW44180   8.883   1.405   5.598  0.4062 -0.0516 -0.8298
14360SOL    HW144181   8.856   1.313   5.591 -1.6333  0.5111 -0.9795
14360SOL    HW244182   8.973   1.406   5.566  1.0122 -2.2305  0.5801
14361SOL     OW44183   1.140   7.918   6.258 -0.5117  0.2300  0.3140
14361SOL    HW144184   1.132   7.833   6.214 -1.7670 -0.9848  2.7292
14361SOL    HW244185   1.053   7.956   6.250 -0.8111 -0.0936  1.8517
14362SOL     OW44186   6.328   1.894   5.445 -0.4322  0.3271 -0.0116
14362SOL    HW144187   6.309   1.865   5.356  1.3054  1.3465 -0.7596
14362SOL    HW244188   6.342   1.813   5.494 -0.0471 -0.2178 -1.0032
14363SOL     OW44189   1.933   3.243   0.097  0.1471  0.1145  0.1379
14363SOL    HW144190   2.028   3.233   0.105  0.1169 -1.1899 -0.8518
14363SOL    HW244191   1.904   3.267   0.185  1.5811  2.4961  0.0534
14364SOL     OW44192   8.565   2.317   2.604  0.4145 -0.2952 -0.1240
14364SOL    HW144193   8.581   2.250   2.538  2.0770 -0.7331  0.6475
14364SOL    HW244194   8.641   2.310   2.663 -0.1084  1.2910  0.7907
14365SOL     OW44195   4.061   7.693   3.657  0.1973 -0.5921  0.2316
14365SOL    HW144196   3.997   7.764   3.650  0.7168 -0.1844 -0.5343
14365SOL    HW244197   4.020   7.620   3.611  0.4925 -0.1668 -0.7309
14366SOL     OW44198   2.941   6.932   4.974 -0.5296  0.0236  0.0940
14366SOL    HW144199   3.020   6.914   5.026 -0.0672 -1.8339 -1.1535
14366SOL    HW244200   2.965   7.007   4.920 -0.5371  1.0947  1.5131
14367SOL     OW44201   1.196   3.457   2.987  0.2027 -0.0844 -0.1618
14367SOL    HW144202   1.111   3.476   2.947  0.8451  1.8337 -0.6794
14367SOL    HW244203   1.256   3.445   2.913  0.6679 -0.0608  0.2021
14368SOL     OW44204   7.104   6.550   6.324  0.0850  0.3421 -0.4097
14368SOL    HW144205   7.169   6.611   6.287 -1.3010  3.4214  1.8672
14368SOL    HW244206   7.033   6.549   6.260 -0.0125  1.4359 -0.3403
14369SOL     OW44207   0.510   1.640   2.927 -0.0819 -0.1974 -0.0416
14369SOL    HW144208   0.461   1.696   2.867 -1.0485 -1.2255 -0.2372
14369SOL    HW244209   0.484   1.669   3.014 -1.5829 -1.1665 -0.1410
14370SOL     OW44210   5.226   5.292   3.083 -0.4626  0.7111 -0.3223
14370SOL    HW144211   5.209   5.202   3.109  0.8360  1.3669  3.4057
14370SOL    HW244212   5.147   5.340   3.109 -0.5926  0.8879 -1.0141
14371SOL     OW44213   1.393   7.195   8.727 -0.3955  0.5364 -0.5557
14371SOL    HW144214   1.384   7.173   8.820  1.2001  0.4174 -0.3942
14371SOL    HW244215   1.390   7.110   8.682  0.5926  0.4146 -0.4221
14372SOL     OW44216   2.157   3.468   2.786 -0.2292 -0.3831 -0.2586
14372SOL    HW144217   2.098   3.512   2.725  1.3932  1.5253 -0.5781
14372SOL    HW244218   2.230   3.529   2.797  0.3305 -1.3631  2.3487
14373SOL     OW44219   7.863   0.022   6.782 -0.2146  0.1056 -0.0763
14373SOL    HW144220   7.918   0.012   6.860  1.1176  1.1791 -0.8485
14373SOL    HW244221   7.806   0.097   6.804 -0.2992 -0.0132  0.1163
14374SOL     OW44222   6.885   7.719   3.002  0.2569 -0.0901 -0.2160
14374SOL    HW144223   6.859   7.628   2.996  0.6589 -0.3306  1.3066
14374SOL    HW244224   6.869   7.743   3.093 -0.8778  1.6963 -0.8339
14375SOL     OW44225   2.653   1.345   3.904  0.1677  0.5326  0.0626
14375SOL    HW144226   2.559   1.358   3.909 -0.3227 -2.0668 -0.5598
14375SOL    HW244227   2.668   1.316   3.814  1.4532  0.2461  0.3461
14376SOL     OW44228   1.391   4.362   8.802 -0.7096 -0.2243 -0.2590
14376SOL    HW144229   1.388   4.267   8.792 -1.8433 -0.2322 -0.0081
14376SOL    HW244230   1.484   4.382   8.815 -0.5295 -1.3579  0.3070
14377SOL     OW44231   2.352   6.069   1.848  0.1248 -0.5194  0.7040
14377SOL    HW144232   2.360   6.159   1.818  2.5289 -1.1301 -0.8080
14377SOL    HW244233   2.270   6.038   1.810 -0.0884  0.6468  0.1679
14378SOL     OW44234   3.133   7.239   5.961  0.4279 -0.0416 -0.3703
14378SOL    HW144235   3.077   7.163   5.977  0.9789 -0.3692  0.0231
14378SOL    HW244236   3.072   7.309   5.939 -0.4400  0.4228  3.0269
14379SOL     OW44237   8.557   5.726   5.672  0.8027  0.3400 -0.0775
14379SOL    HW144238   8.603   5.776   5.604  1.4144 -0.8481 -0.5613
14379SOL    HW244239   8.621   5.663   5.703 -0.1763 -0.6687 -0.0375
14380SOL     OW44240   8.833   7.960   1.620  0.2944  0.3294 -0.4209
14380SOL    HW144241   8.904   8.024   1.628  0.0810  0.6788 -1.2416
14380SOL    HW244242   8.811   7.938   1.710 -0.5066  2.3779 -0.0663
14381SOL     OW44243   8.188   0.804   8.542  0.0459  0.0649  0.1061
14381SOL    HW144244   8.099   0.816   8.573  0.6033 -0.1674  1.8815
14381SOL    HW244245   8.181   0.735   8.476 -0.9877 -0.4268  0.7063
14382SOL     OW44246   4.285   6.002   6.555 -0.2439  0.0599 -0.1753
14382SOL    HW144247   4.247   5.916   6.536  0.1068  0.0761 -1.0306
14382SOL    HW244248   4.318   5.995   6.644 -0.3056 -0.6678 -0.2024
14383SOL     OW44249   1.210   2.015   2.176  0.6930  0.1247  0.1259
14383SOL    HW144250   1.300   2.040   2.197  0.7224  1.5164 -1.4471
14383SOL    HW244251   1.159   2.093   2.196  0.3709  0.6014 -2.2612
14384SOL     OW44252   7.954   7.042   2.842 -0.2937 -0.0017 -0.1831
14384SOL    HW144253   7.954   6.962   2.788 -0.4518 -0.5443  0.6099
14384SOL    HW244254   7.875   7.035   2.896 -0.7412  1.0840 -0.6577
14385SOL     OW44255   5.903   3.680   0.702 -0.0255  0.3464 -0.4976
14385SOL    HW144256   5.886   3.752   0.763 -1.9238 -1.2346  0.9492
14385SOL    HW244257   5.975   3.712   0.646 -0.4375  3.1106  0.4323
14386SOL     OW44258   9.002   1.236   0.309  0.0311  0.0645  0.1138
14386SOL    HW144259   8.907   1.242   0.320 -0.0834  0.1332 -0.7987
14386SOL    HW244260   9.013   1.190   0.225  0.8149 -1.6161  1.0866
14387SOL     OW44261   2.779   6.799   7.457  0.5873  0.3007 -0.4800
14387SOL    HW144262   2.842   6.737   7.494  0.1447 -0.3638 -0.8058
14387SOL    HW244263   2.693   6.762   7.479  0.2757  1.5871  0.6218
14388SOL     OW44264   1.516   2.721   6.673 -0.2722 -0.0468 -0.2873
14388SOL    HW144265   1.435   2.713   6.724  0.3874  1.0667  0.9776
14388SOL    HW244266   1.541   2.812   6.683  0.9496 -0.2935 -0.9853
14389SOL     OW44267   1.668   7.231   9.059 -0.1066  0.4105 -0.2477
14389SOL    HW144268   1.602   7.279   9.109 -1.7616 -1.0803 -0.9217
14389SOL    HW244269   1.672   7.275   8.975 -0.4759  0.3190 -0.3142
14390SOL     OW44270   1.511   8.229   5.462 -0.1722 -0.0604  0.1221
14390SOL    HW144271   1.443   8.297   5.460 -1.6452 -1.4944 -0.4706
14390SOL    HW244272   1.506   8.193   5.551  0.5623  0.5108  0.4129
14391SOL     OW44273   4.852   7.480   7.120 -0.4497  0.2107 -0.5238
14391SOL    HW144274   4.907   7.426   7.177 -1.0001 -0.3971 -0.5416
14391SOL    HW244275   4.900   7.487   7.038 -0.8597 -1.2394 -0.9224
14392SOL     OW44276   3.759   8.611   8.868  0.1842 -0.0588 -0.4778
14392SOL    HW144277   3.766   8.699   8.904 -1.5064  0.1779 -0.6306
14392SOL    HW244278   3.680   8.614   8.813  0.8837 -1.2841 -1.6226
14393SOL     OW44279   8.481   1.438   0.830 -0.4268 -0.6012 -0.1554
14393SOL    HW144280   8.494   1.354   0.875  0.5860 -0.1221  0.4820
14393SOL    HW244281   8.403   1.475   0.871  0.5253 -0.1386  1.3037
14394SOL     OW44282   6.200   4.579   3.911  0.2049 -0.1205  0.6101
14394SOL    HW144283   6.260   4.540   3.974  0.8730 -3.0985 -1.6108
14394SOL    HW244284   6.114   4.541   3.933  0.0018  0.5791  1.0446
14395SOL     OW44285   2.940   7.523   7.613  0.1887 -0.0053  0.4076
14395SOL    HW144286   2.904   7.611   7.622  0.4289 -0.0173  1.5874
14395SOL    HW244287   3.023   7.526   7.661 -0.3394 -1.1816  1.4341
14396SOL     OW44288   5.214   4.352   8.570 -0.4012 -0.4453  0.2921
14396SOL    HW144289   5.254   4.418   8.513  1.6066 -3.3736 -1.9761
14396SOL    HW244290   5.270   4.351   8.648 -0.5242  0.5366  0.4109
14397SOL     OW44291   6.035   2.841   7.330 -0.1665  0.0002 -0.3573
14397SOL    HW144292   6.060   2.752   7.310  1.3993  0.4966 -0.7426
14397SOL    HW244293   5.940   2.837   7.345 -0.3439 -1.4680 -1.6642
14398SOL     OW44294   5.800   3.919   8.638 -0.0653 -0.0867  0.0791
14398SOL    HW144295   5.764   3.843   8.685 -2.1652 -0.1222 -1.4541
14398SOL    HW244296   5.827   3.884   8.554 -0.0465  0.6710 -0.2336
14399SOL     OW44297   6.964   5.856   2.911 -0.0129  0.5225  0.0653
14399SOL    HW144298   6.974   5.865   3.006  0.1397  0.0156  0.0989
14399SOL    HW244299   6.872   5.880   2.895  0.3455  2.0745  0.1447
14400SOL     OW44300   4.220   2.548   0.412 -0.3159  0.4243 -0.2821
14400SOL    HW144301   4.197   2.472   0.358 -0.1617 -0.0277  0.2791
14400SOL    HW244302   4.138   2.573   0.454  0.0731 -0.8984  1.3551
14401SOL     OW44303   1.159   5.918   2.946  0.1404  0.1016 -0.1531
14401SOL    HW144304   1.207   5.990   2.905 -1.5193  1.7616  0.6555
14401SOL    HW244305   1.170   5.932   3.040 -0.8076 -0.2567  0.0245
14402SOL     OW44306   8.030   7.079   7.607 -0.2921 -0.3042 -1.0847
14402SOL    HW144307   7.971   7.009   7.580 -0.7262 -0.7942  0.9615
14402SOL    HW244308   8.003   7.101   7.696  1.1745  1.0234 -0.9150
14403SOL     OW44309   9.067   8.904   0.740 -0.0383  0.0101  0.1168
14403SOL    HW144310   9.001   8.958   0.697  0.5457  0.6777  0.0426
14403SOL    HW244311   9.039   8.901   0.832  0.3336  1.1067  0.2854
14404SOL     OW44312   2.232   2.835   2.825  0.7265  0.0721 -0.0505
14404SOL    HW144313   2.309   2.860   2.774  1.3152  0.1225  0.8353
14404SOL    HW244314   2.201   2.916   2.864  1.1657 -0.1803  0.8467
14405SOL     OW44315   7.890   7.153   4.162  0.3050 -0.3181  0.2045
14405SOL    HW144316   7.886   7.201   4.245  0.4316 -0.0701  0.0700
14405SOL    HW244317   7.964   7.192   4.116  0.7027 -0.9692  0.2848
14406SOL     OW44318   4.243   1.336   4.226  0.7599 -0.3322 -0.1524
14406SOL    HW144319   4.288   1.405   4.177  2.8060 -1.5715 -0.1204
14406SOL    HW244320   4.279   1.343   4.315  1.0806 -1.4832 -0.1745
14407SOL     OW44321   4.276   8.303   5.760 -0.0296 -0.1358 -0.5025
14407SOL    HW144322   4.270   8.208   5.764 -0.4392 -0.0968 -0.0713
14407SOL    HW244323   4.199   8.334   5.808 -0.2957  0.4123 -1.2583
14408SOL     OW44324   7.074   0.380   4.362 -0.3246 -0.2317  0.0567
14408SOL    HW144325   7.004   0.420   4.414 -1.4344 -1.0082 -0.7937
14408SOL    HW244326   7.063   0.286   4.375  0.6104 -0.3635 -0.0477
14409SOL     OW44327   1.779   6.699   2.936 -0.3397 -0.2074  0.1256
14409SOL    HW144328   1.720   6.773   2.921  1.0532  1.2892  1.5078
14409SOL    HW244329   1.758   6.669   3.024  0.9940  0.4360  0.6899
14410SOL     OW44330   5.936   4.523   1.213 -0.4952  0.5779 -0.3573
14410SOL    HW144331   5.912   4.612   1.240 -2.2394  0.1150 -0.2607
14410SOL    HW244332   5.912   4.468   1.286 -0.7134 -0.1313 -0.9509
14411SOL     OW44333   6.267   8.544   4.455 -0.5654  0.3770  0.8182
14411SOL    HW144334   6.321   8.583   4.387 -0.9025  0.7311  0.7492
14411SOL    HW244335   6.187   8.518   4.410 -0.5755  0.1228  0.9769
14412SOL     OW44336   3.303   2.342   7.914 -0.0928 -0.5768  1.0936
14412SOL    HW144337   3.335   2.259   7.950 -1.6547 -1.3839  0.6998
14412SOL    HW244338   3.224   2.319   7.866  0.2656  0.9409 -0.3135
14413SOL     OW44339   8.311   8.574   3.886  0.4566 -0.5440 -0.1845
14413SOL    HW144340   8.266   8.539   3.963  0.4229 -0.5400 -0.2019
14413SOL    HW244341   8.242   8.582   3.820  0.2531  0.4996  0.1345
14414SOL     OW44342   7.805   0.568   5.886 -0.9112 -0.9000  0.0496
14414SOL    HW144343   7.760   0.566   5.970  0.8057  0.1516  1.0498
14414SOL    HW244344   7.856   0.487   5.884 -0.9637 -0.9322  0.0135
14415SOL     OW44345   7.314   5.960   1.329 -0.1010 -0.0585 -0.1524
14415SOL    HW144346   7.318   5.883   1.273  1.0863  0.8336 -1.3765
14415SOL    HW244347   7.318   6.034   1.268  1.2098  0.9438  1.0796
14416SOL     OW44348   5.816   3.468   3.851  0.4349 -0.0286 -0.1880
14416SOL    HW144349   5.872   3.411   3.798 -0.7721  0.5504 -2.1556
14416SOL    HW244350   5.761   3.513   3.788 -0.5493  1.2715  1.5346
14417SOL     OW44351   1.346   6.826   5.699  0.3467 -0.2901  0.8695
14417SOL    HW144352   1.297   6.752   5.663 -1.0049  1.7911 -1.9893
14417SOL    HW244353   1.287   6.865   5.763 -0.8766  0.8117 -0.8453
14418SOL     OW44354   7.311   6.538   0.990  0.4807 -0.2387  0.3746
14418SOL    HW144355   7.237   6.555   0.932  0.3500 -1.2207  0.2273
14418SOL    HW244356   7.270   6.510   1.072  0.6620 -2.1890 -0.1513
14419SOL     OW44357   1.376   6.581   7.484  0.1066  0.0393 -0.0406
14419SOL    HW144358   1.469   6.563   7.493 -0.2056 -1.6667 -0.0144
14419SOL    HW244359   1.334   6.532   7.555 -0.8868  0.0777 -0.5772
14420SOL     OW44360   8.985   1.920   4.015 -0.3993 -0.2463  0.5365
14420SOL    HW144361   8.901   1.909   3.971 -1.1537  0.3165  1.7685
14420SOL    HW244362   9.013   2.009   3.992 -0.8086  0.0593  1.1834
14421SOL     OW44363   6.041   1.001   2.403 -0.3224 -0.2558  0.7900
14421SOL    HW144364   6.018   0.934   2.468  2.4746 -1.3665  0.7873
14421SOL    HW244365   5.989   0.979   2.326 -1.2908 -0.9001  1.5972
14422SOL     OW44366   2.013   2.315   7.080 -0.0662 -0.1737  0.1472
14422SOL    HW144367   1.998   2.395   7.029  2.4649  1.2999  1.5274
14422SOL    HW244368   2.058   2.256   7.019 -0.1284  0.2445 -0.3097
14423SOL     OW44369   6.945   7.739   0.477  0.1260  0.8654 -0.6039
14423SOL    HW144370   7.013   7.752   0.410 -1.2683  0.9583 -2.0615
14423SOL    HW244371   6.913   7.827   0.496  0.7360  0.8724  0.4678
14424SOL     OW44372   3.797   7.767   2.720  0.2114 -0.0532  0.2338
14424SOL    HW144373   3.864   7.826   2.688  1.1269  0.1805  2.3787
14424SOL    HW244374   3.832   7.734   2.803 -1.6354 -1.1646  0.6349
14425SOL     OW44375   5.859   5.740   3.848  0.5001  0.5221  0.1577
14425SOL    HW144376   5.804   5.662   3.862  2.7613 -1.0325  0.8883
14425SOL    HW244377   5.796   5.812   3.838 -1.7473 -1.5196 -1.8019
14426SOL     OW44378   6.871   8.970   0.770 -0.9629  0.3672  0.5214
14426SOL    HW144379   6.884   8.963   0.865 -1.1395 -0.7113  0.4783
14426SOL    HW244380   6.790   9.021   0.761 -0.2038  1.6877  0.9073
14427SOL     OW44381   6.822   9.116   6.198 -0.0704 -0.7400 -0.2328
14427SOL    HW144382   6.758   9.045   6.194 -0.8502 -0.1154  0.5416
14427SOL    HW244383   6.769   9.195   6.198  0.5457 -0.2243  2.1861
14428SOL     OW44384   6.738   6.335   5.173  0.1618  0.5582 -0.5615
14428SOL    HW144385   6.789   6.372   5.101  0.2009 -0.8071 -1.2620
14428SOL    HW244386   6.801   6.281   5.221  0.1387  1.4666  0.5281
14429SOL     OW44387   4.204   6.328   6.801  0.7256 -0.4013  0.1690
14429SOL    HW144388   4.272   6.379   6.757  0.4658 -0.3491 -0.1769
14429SOL    HW244389   4.244   6.301   6.883  0.8689  0.3686  0.3639
14430SOL     OW44390   7.223   7.966   2.896  0.5415 -0.6625 -0.2708
14430SOL    HW144391   7.148   7.998   2.845  0.8023  0.5070  0.0436
14430SOL    HW244392   7.235   8.032   2.964  2.0939 -0.6320 -0.5409
14431SOL     OW44393   3.174   5.721   7.291  0.0029  0.1179  0.0646
14431SOL    HW144394   3.109   5.749   7.355  0.2774 -0.7159  0.7146
14431SOL    HW244395   3.122   5.685   7.219 -0.3254  1.5191 -0.4301
14432SOL     OW44396   4.259   2.630   0.867  0.6198 -0.5279  0.0220
14432SOL    HW144397   4.337   2.605   0.817  0.6018 -0.0197 -0.2681
14432SOL    HW244398   4.259   2.571   0.942  2.2702  0.5817  0.9791
14433SOL     OW44399   6.205   8.019   3.037  0.1870  0.0912  0.0232
14433SOL    HW144400   6.219   8.095   3.092 -1.4024  0.5373 -0.1396
14433SOL    HW244401   6.120   8.034   2.996  0.4300 -1.1624 -1.0116
14434SOL     OW44402   4.153   7.014   2.857 -0.0042 -0.3431 -0.4824
14434SOL    HW144403   4.143   6.942   2.794 -0.2627  0.4272 -1.3463
14434SOL    HW244404   4.116   6.980   2.938 -0.1632 -1.1719 -0.8872
14435SOL     OW44405   5.248   5.977   7.609 -0.5992  0.1448  0.6029
14435SOL    HW144406   5.210   6.008   7.691 -1.7537  2.1532 -0.5989
14435SOL    HW244407   5.174   5.942   7.560  0.1611 -1.5025  0.5636
14436SOL     OW44408   7.134   0.826   5.205  0.3408  0.3875 -0.3541
14436SOL    HW144409   7.160   0.734   5.201 -2.5823 -0.5753  0.4002
14436SOL    HW244410   7.115   0.849   5.114  2.8182  0.9001 -0.8182
14437SOL     OW44411   8.881   3.202   3.727 -0.2530 -0.5994  0.8193
14437SOL    HW144412   8.941   3.175   3.657 -1.3533 -0.1888 -0.3313
14437SOL    HW244413   8.888   3.132   3.792  1.2967 -0.6630  0.6313
14438SOL     OW44414   4.117   2.811   4.681 -0.4811  0.1902  0.2170
14438SOL    HW144415   4.062   2.768   4.747  0.1323  1.0958  1.3728
14438SOL    HW244416   4.083   2.780   4.597 -0.9300 -1.4443  0.9586
14439SOL     OW44417   2.174   2.212   7.559 -0.0461  0.1893 -0.1428
14439SOL    HW144418   2.244   2.275   7.578 -0.5719  1.0742 -1.0635
14439SOL    HW244419   2.197   2.176   7.474 -1.2281  1.2543 -0.9430
14440SOL     OW44420   5.971   7.010   3.551  0.3187 -0.4069  0.4124
14440SOL    HW144421   5.975   7.020   3.646  0.3526  0.5247  0.3165
14440SOL    HW244422   6.000   7.094   3.516 -0.5838 -0.4210 -0.4184
14441SOL     OW44423   0.518   2.805   6.078 -0.3130 -0.3178 -0.8036
14441SOL    HW144424   0.564   2.836   5.999 -0.6341  1.5058 -0.3104
14441SOL    HW244425   0.429   2.836   6.068  0.0012  1.3348  0.9689
14442SOL     OW44426   8.118   5.362   0.032  0.0240  0.2555 -0.2231
14442SOL    HW144427   8.083   5.392   0.116 -0.3764  0.7592 -0.5742
14442SOL    HW244428   8.199   5.316   0.056 -0.6669 -0.5909  0.5521
14443SOL     OW44429   8.511   0.923   6.274 -0.0736  0.5404  0.1240
14443SOL    HW144430   8.428   0.967   6.290 -0.2924 -0.0252  0.5884
14443SOL    HW244431   8.493   0.866   6.198 -0.1747  0.2653  0.3512
14444SOL     OW44432   6.345   6.707   3.667 -0.0155 -0.1034 -0.4356
14444SOL    HW144433   6.285   6.780   3.675  0.7051  0.5791 -1.1274
14444SOL    HW244434   6.357   6.695   3.573  2.5429  1.1745 -0.3571
14445SOL     OW44435   3.555   6.976   9.086 -0.1821 -0.0489 -0.4490
14445SOL    HW144436   3.506   7.003   9.163  1.6034 -1.0510  1.1276
14445SOL    HW244437   3.497   6.913   9.042 -0.6808 -0.5026  0.8240
14446SOL     OW44438   1.229   6.894   1.361 -1.0283  0.8874  0.1434
14446SOL    HW144439   1.222   6.974   1.413 -2.0053  1.8507 -1.3957
14446SOL    HW244440   1.241   6.925   1.271  0.9668 -0.7109 -0.2261
14447SOL     OW44441   5.070   5.027   6.770 -0.5078 -0.3472 -0.0752
14447SOL    HW144442   4.978   5.047   6.791 -0.9049  1.7598 -3.1775
14447SOL    HW244443   5.119   5.102   6.802  0.5700 -2.2553  3.2087
14448SOL     OW44444   2.741   4.236   6.366 -0.8506  0.3164  0.4921
14448SOL    HW144445   2.762   4.149   6.332 -1.9374  0.1983  0.1099
14448SOL    HW244446   2.751   4.294   6.291 -2.7618  0.1249  0.0436
14449SOL     OW44447   8.226   5.899   2.102 -1.1214  0.1565  0.5569
14449SOL    HW144448   8.188   5.981   2.134 -0.5588  1.1504 -1.1532
14449SOL    HW244449   8.197   5.894   2.010  0.8334 -0.2842 -0.0808
14450SOL     OW44450   2.255   4.839   5.288 -0.0172  0.2441  0.0998
14450SOL    HW144451   2.320   4.908   5.301  0.0512  0.4763 -1.3732
14450SOL    HW244452   2.300   4.758   5.315  0.3180  0.6002  0.6353
14451SOL     OW44453   0.165   0.613   4.191  0.2181  0.1499 -0.3168
14451SOL    HW144454   0.155   0.579   4.102 -0.8914 -0.6605  0.0967
14451SOL    HW244455   0.121   0.698   4.190 -1.1234 -0.5138 -0.1875
14452SOL     OW44456   4.942   2.834   2.348  0.6267  0.4489  0.1552
14452SOL    HW144457   4.901   2.913   2.313  0.1516 -0.4431 -1.3778
14452SOL    HW244458   5.036   2.854   2.349  0.5774  0.7741 -0.9271
14453SOL     OW44459   5.710   3.499   5.223  1.0689  0.4008  0.0862
14453SOL    HW144460   5.684   3.414   5.189  2.8674 -0.0973 -0.0949
14453SOL    HW244461   5.640   3.522   5.284 -0.0933 -0.5907 -0.8226
14454SOL     OW44462   2.625   7.122   2.699  0.2144 -0.0948 -0.4678
14454SOL    HW144463   2.571   7.056   2.654  0.2952  0.2445 -1.0756
14454SOL    HW244464   2.715   7.099   2.675  0.3092 -0.3375  0.1062
14455SOL     OW44465   5.612   4.782   1.389 -0.1686 -0.5805  0.6716
14455SOL    HW144466   5.703   4.794   1.365 -0.0994 -0.0088  1.2016
14455SOL    HW244467   5.570   4.748   1.310  0.3484 -0.1395  0.2067
14456SOL     OW44468   8.028   5.335   0.567 -1.2282 -0.2687  0.4251
14456SOL    HW144469   8.063   5.249   0.544 -0.3290  0.6564 -1.9723
14456SOL    HW244470   7.963   5.317   0.635 -1.4966 -2.9082 -0.4054
14457SOL     OW44471   4.070   5.281   5.784  0.4380 -0.6163 -0.2872
14457SOL    HW144472   4.155   5.288   5.826 -0.6709  2.3534  1.8180
14457SOL    HW244473   4.019   5.223   5.841  0.5628 -1.1032 -0.6648
14458SOL     OW44474   7.686   6.148   2.718  0.0860  0.5086 -0.5190
14458SOL    HW144475   7.770   6.114   2.689 -0.6795 -1.7444 -0.2806
14458SOL    HW244476   7.672   6.109   2.804 -1.2125  0.8438 -0.5480
14459SOL     OW44477   4.210   6.367   4.404  0.5226  0.2025 -0.4947
14459SOL    HW144478   4.165   6.383   4.486 -0.9539  0.3822 -1.3075
14459SOL    HW244479   4.303   6.374   4.425  0.1307  2.2983  0.7278
14460SOL     OW44480   7.178   2.549   5.603  0.1896 -0.1906 -0.2976
14460SOL    HW144481   7.116   2.620   5.621 -1.2381 -1.3888 -0.3033
14460SOL    HW244482   7.222   2.577   5.523 -0.0483  0.8682 -0.0841
14461SOL     OW44483   8.918   3.603   7.316  0.3761 -0.2234 -0.2562
14461SOL    HW144484   8.973   3.682   7.322  0.5571 -0.3499 -0.2293
14461SOL    HW244485   8.860   3.609   7.391 -0.7477  0.7359 -1.1710
14462SOL     OW44486   6.073   9.059   5.813  0.1330 -0.3895  0.5001
14462SOL    HW144487   6.147   9.027   5.761  1.2842 -0.0618  1.8661
14462SOL    HW244488   5.996   9.021   5.771  1.0651 -0.7604 -0.9601
14463SOL     OW44489   8.728   8.637   5.697  0.6460  0.2562  0.1264
14463SOL    HW144490   8.716   8.711   5.638  1.1170  0.1777 -0.0767
14463SOL    HW244491   8.802   8.661   5.752  0.0741  0.4130  0.8286
14464SOL     OW44492   7.262   0.089   5.069  0.3675  0.2606 -0.2523
14464SOL    HW144493   7.271  -0.006   5.067  0.0500  0.2202  0.1691
14464SOL    HW244494   7.267   0.112   5.162 -1.6585  0.4352 -0.1310
14465SOL     OW44495   5.670   6.373   8.303  0.2525 -0.0470  0.5178
14465SOL    HW144496   5.623   6.311   8.246  0.4133 -0.4909  0.8597
14465SOL    HW244497   5.608   6.444   8.316  0.3674  0.2707 -0.5564
14466SOL     OW44498   0.846   0.667   5.712  0.1629 -0.1658 -0.5241
14466SOL    HW144499   0.817   0.753   5.744 -3.5301 -0.8753 -1.4630
14466SOL    HW244500   0.852   0.613   5.791  1.9496  0.7181  0.0058
14467SOL     OW44501   5.054   0.764   8.224 -0.1764  0.1433 -0.6408
14467SOL    HW144502   4.984   0.714   8.182 -2.0287  1.3511  0.8359
14467SOL    HW244503   5.088   0.821   8.155  0.5557 -1.6124 -1.7991
14468SOL     OW44504   6.140   3.521   7.956  0.4640  0.0465  0.0593
14468SOL    HW144505   6.198   3.543   8.029 -1.0412  0.4015  1.2080
14468SOL    HW244506   6.129   3.604   7.909  1.0681 -0.0779 -0.3098
14469SOL     OW44507   3.534   2.983   3.045 -0.0821 -0.0758  0.3718
14469SOL    HW144508   3.466   2.953   3.105  0.1448 -0.0091  0.6640
14469SOL    HW244509   3.586   3.044   3.096  0.6198 -0.6509  0.3624
14470SOL     OW44510   3.859   6.609   8.769 -0.1966  0.4951 -0.0946
14470SOL    HW144511   3.884   6.686   8.820 -1.3210  0.6040  0.3113
14470SOL    HW244512   3.769   6.625   8.743  0.1931  0.2234 -1.7331
14471SOL     OW44513   3.509   3.636   0.612 -0.3045  0.0014  0.0410
14471SOL    HW144514   3.553   3.678   0.538  0.4938  0.1263  0.5778
14471SOL    HW244515   3.506   3.543   0.588  0.9968 -0.1378  0.3441
14472SOL     OW44516   8.557   6.561   5.947  0.3828 -0.7275  0.0936
14472SOL    HW144517   8.521   6.649   5.955  1.4835 -0.4306  3.1152
14472SOL    HW244518   8.529   6.517   6.027  1.7345 -2.3915 -0.3092
14473SOL     OW44519   4.988   2.685   1.818 -0.1952 -0.5058 -0.4314
14473SOL    HW144520   4.896   2.708   1.832  0.2402  2.0413 -1.1810
14473SOL    HW244521   4.989   2.640   1.734 -0.8655 -1.5573  0.1017
14474SOL     OW44522   7.480   7.140   1.790  0.2661 -0.4925 -0.5073
14474SOL    HW144523   7.504   7.081   1.862 -0.0252 -1.1955 -0.9729
14474SOL    HW244524   7.391   7.114   1.767  0.7560 -1.0605 -1.8707
14475SOL     OW44525   5.812   1.711   8.603 -0.3665 -0.4196  0.3952
14475SOL    HW144526   5.720   1.730   8.623 -0.8648 -0.7418 -1.4180
14475SOL    HW244527   5.809   1.654   8.526  1.3751  0.8754 -0.7371
14476SOL     OW44528   2.687   3.178   6.635  0.4226  0.0601  0.0046
14476SOL    HW144529   2.711   3.264   6.598  0.8515  0.7526  1.7833
14476SOL    HW244530   2.771   3.140   6.661  0.0086  0.8720  2.8487
14477SOL     OW44531   8.228   6.620   3.694  0.1158  0.4613  0.2384
14477SOL    HW144532   8.300   6.647   3.638  1.8442 -0.1966  1.9996
14477SOL    HW244533   8.150   6.655   3.653  1.3309  0.4294 -2.2602
14478SOL     OW44534   7.442   1.075   4.874  0.2556  0.6048 -0.7357
14478SOL    HW144535   7.393   1.105   4.950 -0.0206  0.9744 -1.0540
14478SOL    HW244536   7.391   1.000   4.840 -0.3321  1.2495 -1.3129
14479SOL     OW44537   0.740   4.628   1.698  0.0088  0.1064 -0.1306
14479SOL    HW144538   0.653   4.656   1.670  0.2320  0.6005 -0.3237
14479SOL    HW244539   0.749   4.663   1.787  0.2416  0.5469 -0.3287
14480SOL     OW44540   4.113   5.702   2.111  0.4382  0.1354  0.2546
14480SOL    HW144541   4.069   5.730   2.031 -1.4590 -2.5901  0.1950
14480SOL    HW244542   4.069   5.750   2.181 -0.2965 -0.0287 -0.0867
14481SOL     OW44543   6.451   8.238   0.996 -0.0301  0.4425  0.4005
14481SOL    HW144544   6.364   8.276   1.008  0.3840  1.1482  1.2746
14481SOL    HW244545   6.498   8.302   0.942 -0.7151 -0.9802 -2.0568
14482SOL     OW44546   5.105   0.620   5.270  0.0015  0.3784  0.0028
14482SOL    HW144547   5.164   0.589   5.200  0.6850 -1.0734  1.1557
14482SOL    HW244548   5.047   0.546   5.285  0.7750  0.1104  1.9133
14483SOL     OW44549   7.914   9.124   3.508  0.6698  0.3588  0.1380
14483SOL    HW144550   7.886   9.102   3.596  0.5119 -0.8463 -0.1931
14483SOL    HW244551   8.004   9.092   3.503  0.2931 -0.6497 -0.4937
14484SOL     OW44552   6.886   5.542   2.929 -0.5005 -0.1316 -0.3846
14484SOL    HW144553   6.910   5.630   2.900  0.1422  0.0776  0.7403
14484SOL    HW244554   6.855   5.554   3.019 -1.4676 -0.9101 -0.5972
14485SOL     OW44555   8.335   0.797   4.541  1.0915 -0.2193  0.6281
14485SOL    HW144556   8.337   0.878   4.593  1.6010 -0.8118  1.5702
14485SOL    HW244557   8.246   0.793   4.507  1.4591  1.4671 -0.6462
14486SOL     OW44558   0.648   2.570   8.283 -0.0733 -0.1838 -0.3179
14486SOL    HW144559   0.699   2.624   8.344 -0.0818  0.2252 -0.6695
14486SOL    HW244560   0.576   2.626   8.255 -0.2292 -0.4663 -0.4908
14487SOL     OW44561   2.220   5.151   4.409  0.3745 -0.0727  0.0031
14487SOL    HW144562   2.213   5.213   4.481 -0.1144  0.4502 -0.4833
14487SOL    HW244563   2.205   5.065   4.449 -0.3425  0.2547  0.4460
14488SOL     OW44564   3.374   8.363   7.871 -0.6558  0.0765 -0.2472
14488SOL    HW144565   3.362   8.456   7.848 -2.5689  0.0981  0.6377
14488SOL    HW244566   3.336   8.315   7.798  2.4015 -0.1686 -1.8523
14489SOL     OW44567   2.718   2.622   7.427 -0.3158  0.0556 -0.0739
14489SOL    HW144568   2.639   2.582   7.390  0.4005 -1.2216 -0.2604
14489SOL    HW244569   2.780   2.624   7.354  0.4294 -0.6368  0.5151
14490SOL     OW44570   2.148   3.627   8.159  0.4193 -0.0846 -0.0561
14490SOL    HW144571   2.106   3.706   8.194 -1.3466 -0.4997 -1.0566
14490SOL    HW244572   2.074   3.570   8.137  1.6561 -2.8405  2.3521
14491SOL     OW44573   5.033   3.106   4.885 -0.1888  0.0847 -0.3026
14491SOL    HW144574   5.092   3.033   4.863  1.1219  1.4628 -1.6515
14491SOL    HW244575   4.945   3.069   4.880  0.4836 -1.8506  0.9721
14492SOL     OW44576   1.825   3.006   2.042 -0.1916 -0.2632  0.4538
14492SOL    HW144577   1.745   2.958   2.021 -0.3934 -0.6394  1.9560
14492SOL    HW244578   1.863   2.957   2.115  0.4553  0.9648  0.9569
14493SOL     OW44579   2.531   5.557   1.948  0.2794  0.2433 -0.4064
14493SOL    HW144580   2.562   5.555   2.038  0.4310  1.0254 -0.4330
14493SOL    HW244581   2.611   5.547   1.895  0.2660  0.4427 -0.4627
14494SOL     OW44582   1.452   0.162   8.762 -0.7329  0.0472  0.3872
14494SOL    HW144583   1.417   0.227   8.822 -0.2394  2.4635 -1.7726
14494SOL    HW244584   1.545   0.155   8.784 -0.6927  0.4392  0.3472
14495SOL     OW44585   1.618   4.171   1.522  0.6320 -0.3952  0.4067
14495SOL    HW144586   1.601   4.077   1.532 -0.7776 -0.2612 -0.3998
14495SOL    HW244587   1.597   4.208   1.607  0.1984 -0.6959  0.4373
14496SOL     OW44588   6.958   1.041   5.870 -0.5865  0.2787 -0.7994
14496SOL    HW144589   7.038   1.085   5.840  0.5928 -1.8289 -0.9442
14496SOL    HW244590   6.908   1.026   5.790 -1.0513  1.3907 -0.7367
14497SOL     OW44591   7.433   4.478   6.406 -0.3465 -0.1141  0.0244
14497SOL    HW144592   7.527   4.488   6.399 -0.4882  0.5515 -1.1351
14497SOL    HW244593   7.401   4.477   6.315 -1.3987 -0.9063  0.3729
14498SOL     OW44594   5.377   2.842   5.373 -0.4275 -0.3057  0.2413
14498SOL    HW144595   5.416   2.847   5.286 -0.6849 -0.4566  0.1161
14498SOL    HW244596   5.379   2.749   5.394  0.8807 -0.1387  0.9720
14499SOL     OW44597   0.587   1.314   2.716 -0.2304  0.0965  0.2459
14499SOL    HW144598   0.670   1.300   2.671  0.5211  0.7094  1.3942
14499SOL    HW244599   0.612   1.348   2.802 -1.6682  0.1654  0.6571
14500SOL     OW44600   6.646   4.187   2.271 -0.3133 -0.2884  0.6483
14500SOL    HW144601   6.611   4.188   2.360  0.1994  1.3490  0.8754
14500SOL    HW244602   6.710   4.116   2.271 -0.2410 -0.2411  1.6240
14501SOL     OW44603   0.888   7.016   8.836 -0.1886 -0.4368  0.1116
14501SOL    HW144604   0.812   7.070   8.858 -0.2828 -0.2493 -0.6684
14501SOL    HW244605   0.963   7.071   8.859 -0.2855 -0.1256 -0.3195
14502SOL     OW44606   0.391   1.637   1.964  0.5172 -0.3061 -0.2902
14502SOL    HW144607   0.414   1.693   2.039  0.1641  0.1223 -0.4972
14502SOL    HW244608   0.416   1.688   1.887 -0.1571 -0.2670 -0.4918
14503SOL     OW44609   8.006   3.455   2.881  0.1971 -0.1394 -0.2514
14503SOL    HW144610   7.944   3.437   2.810 -1.6441 -1.4784  1.5836
14503SOL    HW244611   8.039   3.368   2.906  0.1470  0.2097  1.0787
14504SOL     OW44612   3.864   6.683   6.516 -0.0939  0.3124 -0.4928
14504SOL    HW144613   3.912   6.735   6.451  1.6948 -0.0712  0.4340
14504SOL    HW244614   3.931   6.625   6.553 -1.6391 -1.3434 -0.1757
14505SOL     OW44615   0.511   6.672   5.034 -0.1218  0.3128  0.5149
14505SOL    HW144616   0.420   6.657   5.058  0.0415 -1.4547  0.2357
14505SOL    HW244617   0.521   6.627   4.950  1.1422 -0.0238  0.8180
14506SOL     OW44618   3.647   0.074   2.139 -0.8110 -0.7074 -0.6099
14506SOL    HW144619   3.562   0.076   2.182 -0.7400 -1.1739 -0.4509
14506SOL    HW244620   3.636   0.131   2.062 -0.5693  1.1618  0.6645
14507SOL     OW44621   3.820   8.882   6.871  0.4897 -0.5446 -1.3287
14507SOL    HW144622   3.742   8.914   6.916  0.2608 -1.0765 -1.3467
14507SOL    HW244623   3.805   8.904   6.779  0.2458 -0.8750 -1.3683
14508SOL     OW44624   7.109   7.913   2.209 -0.1059 -0.0671  0.4654
14508SOL    HW144625   7.192   7.900   2.254  0.2306  0.4681  0.0176
14508SOL    HW244626   7.110   7.850   2.138 -0.6730 -0.9682  1.2325
14509SOL     OW44627   2.337   3.323   2.303  0.5383  0.0142 -0.1989
14509SOL    HW144628   2.413   3.380   2.312  2.0965 -1.4011 -2.9326
14509SOL    HW244629   2.308   3.336   2.212 -1.0974 -1.1374  0.1019
14510SOL     OW44630   8.020   0.124   0.510 -0.4726 -0.4414 -0.1828
14510SOL    HW144631   8.061   0.168   0.585 -1.0674 -1.2978  0.6612
14510SOL    HW244632   7.927   0.145   0.517 -0.8834 -2.2955  0.6189
14511SOL     OW44633   6.857   6.046   0.215  0.3578 -0.2677 -0.5334
14511SOL    HW144634   6.838   5.973   0.274  0.0658  0.8550  0.8099
14511SOL    HW244635   6.951   6.039   0.197  0.4783 -0.5390  0.1904
14512SOL     OW44636   1.070   2.440   3.767 -0.1057 -0.5913 -0.1943
14512SOL    HW144637   1.131   2.373   3.798  0.8658  0.5664  0.4925
14512SOL    HW244638   1.006   2.448   3.839 -0.2928 -0.8447 -0.3284
14513SOL     OW44639   1.984   2.584   2.434  0.6767 -0.0133 -0.1331
14513SOL    HW144640   1.953   2.574   2.344 -0.7143 -1.1478  0.4296
14513SOL    HW244641   1.942   2.664   2.464  0.0002 -0.3881 -0.0608
14514SOL     OW44642   2.116   1.221   0.556  0.1792 -0.0149 -0.0508
14514SOL    HW144643   2.208   1.199   0.568  0.9670  3.1532  0.5915
14514SOL    HW244644   2.111   1.254   0.467 -0.7307 -1.5753 -0.6216
14515SOL     OW44645   2.256   4.456   8.397 -0.2961  0.0721  0.6968
14515SOL    HW144646   2.290   4.471   8.308 -1.1173 -1.7658  0.0199
14515SOL    HW244647   2.263   4.361   8.409 -1.9853  0.0519  1.8443
14516SOL     OW44648   1.883   2.854   1.342 -0.0037  0.5493  0.4714
14516SOL    HW144649   1.829   2.814   1.274  1.2148 -2.1026  0.9097
14516SOL    HW244650   1.869   2.798   1.419  3.3076 -0.3408  0.5918
14517SOL     OW44651   7.677   6.948   6.892  0.1344 -0.3823 -0.3337
14517SOL    HW144652   7.673   7.003   6.970  1.5074 -0.1551 -0.4028
14517SOL    HW244653   7.629   6.998   6.825  0.4478  0.2329 -0.1022
14518SOL     OW44654   6.486   7.257   2.666  0.3563 -0.2146 -0.3719
14518SOL    HW144655   6.490   7.190   2.733  0.2200  1.0338  0.9308
14518SOL    HW244656   6.544   7.326   2.697  1.2162 -0.0809 -2.1175
14519SOL     OW44657   7.086   8.246   3.861 -0.6929 -0.2356 -0.1407
14519SOL    HW144658   7.059   8.306   3.791  1.6767  0.8709 -0.1866
14519SOL    HW244659   7.134   8.301   3.923  2.8002 -2.1943 -0.8594
14520SOL     OW44660   5.093   5.630   5.100 -0.1313 -0.1848 -0.0679
14520SOL    HW144661   5.130   5.656   5.184 -0.5838 -1.8739  0.7024
14520SOL    HW244662   4.999   5.625   5.115 -0.4384  1.3822 -1.2438
14521SOL     OW44663   2.950   3.669   7.955 -0.0739  0.4024  0.1691
14521SOL    HW144664   2.965   3.763   7.954  2.3996  0.1251 -2.5065
14521SOL    HW244665   2.968   3.640   7.865  1.2855 -2.8678  1.3162
14522SOL     OW44666   4.695   5.216   3.192  0.6029 -0.7132  0.4289
14522SOL    HW144667   4.624   5.154   3.179  1.0992 -0.9428 -1.4497
14522SOL    HW244668   4.662   5.277   3.258 -0.6703 -1.7804  0.8147
14523SOL     OW44669   6.424   8.492   1.413 -0.4834 -0.4188 -0.0211
14523SOL    HW144670   6.360   8.544   1.365  0.1972 -1.2408 -1.9021
14523SOL    HW244671   6.429   8.534   1.499 -0.6827  1.9805 -1.1130
14524SOL     OW44672   7.039   7.449   0.416  0.8120 -0.1599 -0.1285
14524SOL    HW144673   6.961   7.504   0.409  2.0356  1.4071 -2.4888
14524SOL    HW244674   7.103   7.502   0.463  2.1119  0.6830 -2.7030
14525SOL     OW44675   7.656   6.436   0.714  0.4050  0.3750 -0.8445
14525SOL    HW144676   7.639   6.509   0.773 -0.0773 -0.5521  0.2008
14525SOL    HW244677   7.631   6.358   0.764  0.9586 -0.5160 -1.9064
14526SOL     OW44678   4.878   6.720   8.054  0.4983  0.0800 -0.0708
14526SOL    HW144679   4.844   6.730   7.965 -0.8011 -0.6582  0.3189
14526SOL    HW244680   4.866   6.807   8.093  0.0626  0.1224 -0.2854
14527SOL     OW44681   8.884   2.274   3.316  0.4650 -0.8133  0.7113
14527SOL    HW144682   8.903   2.367   3.300 -0.1650 -1.0977 -2.1407
14527SOL    HW244683   8.934   2.227   3.249 -0.7146 -2.3995  0.8912
14528SOL     OW44684   9.027   5.894   6.019  0.3873 -0.1115  0.2796
14528SOL    HW144685   9.084   5.971   6.008  0.3594 -0.1962 -0.5510
14528SOL    HW244686   8.981   5.888   5.936  0.5448 -1.1613  0.2639
14529SOL     OW44687   2.944   4.290   5.141 -0.0458  0.5125 -0.2181
14529SOL    HW144688   2.853   4.293   5.170 -0.3360  0.2862 -1.0649
14529SOL    HW244689   2.994   4.265   5.219 -0.6700  0.9528  0.3258
14530SOL     OW44690   8.135   8.094   4.195  0.9573 -0.0562 -0.1820
14530SOL    HW144691   8.076   8.063   4.126 -0.7701 -0.0356  1.2070
14530SOL    HW244692   8.188   8.017   4.218  0.4778 -0.4833 -0.4881
14531SOL     OW44693   6.432   1.488   5.239 -0.0190  0.0845  0.6359
14531SOL    HW144694   6.468   1.523   5.320 -0.7407  0.7846  0.6655
14531SOL    HW244695   6.495   1.422   5.211  0.2819 -0.1032  1.7149
14532SOL     OW44696   6.715   6.227   3.499  0.8402 -0.1326  0.7396
14532SOL    HW144697   6.736   6.320   3.496 -1.0112  0.3236  0.2096
14532SOL    HW244698   6.721   6.197   3.408 -3.9025  0.9111 -0.2151
14533SOL     OW44699   6.719   5.299   7.570 -0.2126 -0.0801  0.0492
14533SOL    HW144700   6.793   5.353   7.601  0.2952 -1.3518  1.1676
14533SOL    HW244701   6.755   5.250   7.496  0.0508 -0.6312  0.5356
14534SOL     OW44702   2.828   8.707   3.541 -0.4247  0.5334 -0.0102
14534SOL    HW144703   2.781   8.787   3.516  1.4841  1.1424 -1.9833
14534SOL    HW244704   2.881   8.733   3.616 -0.8666  0.7058  0.2476
14535SOL     OW44705   7.979   7.202   6.008 -0.0597  0.8054  0.3212
14535SOL    HW144706   7.949   7.248   5.930 -2.2056 -1.3212 -0.2074
14535SOL    HW244707   7.899   7.184   6.058  1.1196  0.9008  2.3494
14536SOL     OW44708   5.701   0.429   3.027 -0.1287  0.1792 -0.3427
14536SOL    HW144709   5.676   0.433   3.119  0.3725  0.7447 -0.2189
14536SOL    HW244710   5.636   0.483   2.982 -0.6877 -0.5364 -0.3957
14537SOL     OW44711   0.885   2.819   1.254  0.1886 -0.3237  0.3795
14537SOL    HW144712   0.920   2.761   1.322  2.8349  2.1489  1.2951
14537SOL    HW244713   0.840   2.888   1.302  1.5722  1.1336 -0.3157
14538SOL     OW44714   0.533   1.197   4.973 -0.3743 -0.1473  0.2323
14538SOL    HW144715   0.626   1.180   4.986 -0.4102 -0.1495  0.4905
14538SOL    HW244716   0.515   1.273   5.028 -0.2257  0.7112 -0.8658
14539SOL     OW44717   7.195   2.826   4.446  0.6420 -0.0228  0.7386
14539SOL    HW144718   7.200   2.908   4.397 -1.0497  0.3786  1.1642
14539SOL    HW244719   7.109   2.828   4.488 -0.4931 -3.0616 -1.1098
14540SOL     OW44720   8.513   3.089   3.073  0.0883 -0.2165 -0.3729
14540SOL    HW144721   8.551   3.065   2.988  0.8807 -0.2414 -0.0165
14540SOL    HW244722   8.584   3.078   3.136 -0.7328 -1.0994  0.4447
14541SOL     OW44723   9.132   7.011   2.593  0.4001  0.3197 -0.1231
14541SOL    HW144724   9.041   7.006   2.564  1.0421 -0.3252 -2.1795
14541SOL    HW244725   9.165   7.093   2.556  0.7955  0.3035  0.1877
14542SOL     OW44726   4.702   8.083   2.679  0.1130  0.0194  0.0379
14542SOL    HW144727   4.790   8.119   2.685 -0.2091  0.5719  2.4104
14542SOL    HW244728   4.706   8.001   2.729 -0.7633  0.1589  0.3592
14543SOL     OW44729   1.523   4.450   5.457  0.0526 -0.2064  0.8035
14543SOL    HW144730   1.571   4.470   5.537  0.9479  0.2893  0.1516
14543SOL    HW244731   1.587   4.459   5.387 -1.0324  0.7086 -0.1166
14544SOL     OW44732   3.715   1.454   0.592 -0.5432 -0.1389 -0.5671
14544SOL    HW144733   3.679   1.524   0.537  0.3877  1.6826  1.0091
14544SOL    HW244734   3.660   1.455   0.671 -1.1845 -1.9738 -0.9382
14545SOL     OW44735   2.865   1.533   6.177  0.7550  0.0824  0.2684
14545SOL    HW144736   2.822   1.469   6.120  1.6105 -0.8908  0.6984
14545SOL    HW244737   2.958   1.516   6.167  0.9736  0.9350  0.7776
14546SOL     OW44738   6.799   8.425   6.962  0.1228  0.2933 -0.1013
14546SOL    HW144739   6.771   8.411   7.053 -1.2413 -0.8450 -0.6542
14546SOL    HW244740   6.796   8.520   6.950 -0.6292  0.3928  0.7611
14547SOL     OW44741   7.751   9.017   8.012  0.0398 -0.3124 -0.1578
14547SOL    HW144742   7.674   9.032   7.957  0.7599  1.1275 -0.8141
14547SOL    HW244743   7.722   9.040   8.100 -0.4808 -0.4858 -0.2779
14548SOL     OW44744   8.459   3.190   7.500  0.3361 -0.4634  0.7057
14548SOL    HW144745   8.376   3.235   7.519 -0.5908 -1.8861  0.1941
14548SOL    HW244746   8.486   3.227   7.415  0.8026  0.7715  1.3690
14549SOL     OW44747   1.176   2.702   3.788 -0.1088 -0.3349  0.1369
14549SOL    HW144748   1.112   2.632   3.773  0.5248 -0.9495  0.2879
14549SOL    HW244749   1.126   2.771   3.833 -1.4669  0.5171 -2.4467
14550SOL     OW44750   5.301   1.595   3.496 -0.4446 -0.3565  0.1440
14550SOL    HW144751   5.309   1.500   3.507 -0.4493 -0.3318  0.3620
14550SOL    HW244752   5.348   1.631   3.572  1.5311 -0.1624 -1.0956
14551SOL     OW44753   0.043   6.984   2.237  0.1054 -0.5710  0.4004
14551SOL    HW144754   0.035   6.953   2.327 -2.0993  1.4421  1.0046
14551SOL    HW244755  -0.047   6.983   2.204  0.5457  0.9967 -0.9548
14552SOL     OW44756   7.494   8.758   0.219  0.3595  0.1550  0.4580
14552SOL    HW144757   7.494   8.666   0.247 -1.4268 -0.0440 -0.0839
14552SOL    HW244758   7.487   8.807   0.301  0.5446 -0.2181  0.7042
14553SOL     OW44759   2.921   3.877   7.466 -0.6728  0.0214 -0.2581
14553SOL    HW144760   2.906   3.809   7.401 -0.2701  1.2663 -1.6978
14553SOL    HW244761   2.846   3.870   7.526 -1.6619 -0.3954 -1.5134
14554SOL     OW44762   6.799   6.522   3.748 -0.3909 -0.4868  0.4691
14554SOL    HW144763   6.829   6.568   3.826  0.0584 -1.5605  0.9451
14554SOL    HW244764   6.711   6.491   3.770  0.5802 -2.7541  1.4508
14555SOL     OW44765   2.975   7.412   1.243  0.0727  0.1273 -0.0531
14555SOL    HW144766   2.967   7.422   1.148 -0.0231  0.6366  0.0049
14555SOL    HW244767   2.990   7.318   1.256  0.3588  0.0945 -0.5872
14556SOL     OW44768   4.722   2.687   1.417 -0.0776  0.2875 -0.4082
14556SOL    HW144769   4.683   2.609   1.377  0.0228  0.3339 -0.5942
14556SOL    HW244770   4.656   2.716   1.480 -0.2544  0.2426 -0.5723
14557SOL     OW44771   7.203   3.675   0.942  0.0184  0.1463  0.1727
14557SOL    HW144772   7.238   3.660   1.030 -1.3672 -1.2996  0.5243
14557SOL    HW244773   7.250   3.614   0.886  0.8967  1.0629 -0.1181
14558SOL     OW44774   7.689   4.786   0.022  0.0991  0.5594 -0.5759
14558SOL    HW144775   7.763   4.842   0.001  1.9145 -1.0140  1.1857
14558SOL    HW244776   7.649   4.826   0.100 -0.1785  0.7715 -0.8263
14559SOL     OW44777   1.816   0.862   0.652  0.0366  0.3291 -0.7945
14559SOL    HW144778   1.759   0.842   0.726  1.0025 -0.9039 -0.3438
14559SOL    HW244779   1.790   0.800   0.584  0.8767 -0.3128 -0.5495
14560SOL     OW44780   4.342   7.321   2.611  0.2042  0.8882 -0.4788
14560SOL    HW144781   4.337   7.228   2.632  0.5401  0.5860 -1.6743
14560SOL    HW244782   4.421   7.352   2.657  0.4682  0.4282 -0.6143
14561SOL     OW44783   5.072   6.731   3.648 -0.6101  0.4739  0.3532
14561SOL    HW144784   5.004   6.665   3.633 -1.3375  1.3931 -0.5274
14561SOL    HW244785   5.041   6.809   3.603  1.3211  0.7524 -0.6084
14562SOL     OW44786   4.753   2.046   0.194  0.5043  0.2167 -0.4433
14562SOL    HW144787   4.718   2.135   0.185 -0.9372 -0.3887 -1.2638
14562SOL    HW244788   4.803   2.031   0.114  1.2417  0.4847 -0.0386
14563SOL     OW44789   8.839   1.950   7.252  0.3395 -0.6094 -0.3637
14563SOL    HW144790   8.873   1.864   7.274  0.5723 -0.0829  1.5172
14563SOL    HW244791   8.753   1.954   7.294 -0.4010 -0.5120 -1.8321
14564SOL     OW44792   3.289   1.945   8.758  0.2843 -0.3423  0.3421
14564SOL    HW144793   3.368   1.893   8.745 -0.4674 -2.1190  2.4248
14564SOL    HW244794   3.229   1.888   8.806 -2.2558  0.9879 -1.0059
14565SOL     OW44795   7.959   3.061   1.316  0.0512 -0.2903 -0.6182
14565SOL    HW144796   8.039   3.012   1.296  1.3101  1.5843 -0.4375
14565SOL    HW244797   7.906   3.054   1.237  0.0887 -2.0640 -0.5204
14566SOL     OW44798   4.562   5.714   4.319  0.0134  0.1163  0.5341
14566SOL    HW144799   4.551   5.660   4.396 -1.7136 -0.4089 -0.0423
14566SOL    HW244800   4.640   5.766   4.337  1.0385 -1.6910  1.6040
14567SOL     OW44801   9.119   5.199   0.604 -0.2372  0.0722 -0.7164
14567SOL    HW144802   9.210   5.180   0.581 -0.3566 -0.8463 -0.4353
14567SOL    HW244803   9.090   5.258   0.534 -0.0712 -1.3301 -2.0205
14568SOL     OW44804   8.710   1.552   3.525 -0.7195  0.0803  0.2819
14568SOL    HW144805   8.629   1.600   3.541  0.0938  1.3392  0.7619
14568SOL    HW244806   8.774   1.619   3.504 -0.1699 -1.0222 -1.8058
14569SOL     OW44807   7.493   1.009   7.908  0.3486  0.6474  0.5887
14569SOL    HW144808   7.543   1.089   7.927 -2.6328  2.7030  0.4283
14569SOL    HW244809   7.476   0.972   7.995  0.4314  1.0676  0.7922
14570SOL     OW44810   0.023   0.154   6.588  0.1543  0.0021 -0.3172
14570SOL    HW144811  -0.000   0.092   6.656 -0.3360  0.1283 -0.3649
14570SOL    HW244812   0.114   0.133   6.566  0.2272 -0.2156  0.1795
14571SOL     OW44813   3.930   7.611   7.493 -0.7280 -0.8722 -0.2923
14571SOL    HW144814   3.924   7.549   7.565  0.2213 -1.7609 -0.9446
14571SOL    HW244815   4.011   7.660   7.510 -0.3252 -1.3074 -0.8940
14572SOL     OW44816   1.881   6.823   8.929  0.5375  0.0356  0.1165
14572SOL    HW144817   1.808   6.762   8.931  1.5112 -1.2184 -0.9096
14572SOL    HW244818   1.840   6.909   8.916 -0.8075 -0.4531  0.9557
14573SOL     OW44819   2.656   2.604   6.813 -0.8116 -0.1816  0.5714
14573SOL    HW144820   2.699   2.518   6.818 -1.9055 -0.6767  2.7253
14573SOL    HW244821   2.563   2.583   6.802 -1.1840  0.6736  1.8897
14574SOL     OW44822   7.939   3.516   3.702 -0.0072  0.1265  0.0868
14574SOL    HW144823   7.944   3.591   3.761 -2.1989  0.6522 -0.2864
14574SOL    HW244824   7.931   3.440   3.759  0.8656  0.3096  0.4624
14575SOL     OW44825   5.478   7.516   8.129  0.2375 -0.1521 -0.0094
14575SOL    HW144826   5.496   7.578   8.200  0.9045 -0.3847  0.0400
14575SOL    HW244827   5.421   7.450   8.169 -2.7117  1.7824 -0.7650
14576SOL     OW44828   4.002   3.399   2.342  0.1247  0.1806 -0.0937
14576SOL    HW144829   3.976   3.310   2.368  1.6581 -0.1419  0.4705
14576SOL    HW244830   4.084   3.413   2.388  0.3448  1.5756 -0.8785
14577SOL     OW44831   3.900   1.663   4.009  0.2402  0.1414 -0.3913
14577SOL    HW144832   3.855   1.664   3.925 -1.3861  1.7970  0.4357
14577SOL    HW244833   3.945   1.747   4.013  1.8623 -0.6875 -0.3593
14578SOL     OW44834   3.841   4.746   6.132  0.8294  0.1200  0.0493
14578SOL    HW144835   3.855   4.836   6.102  0.6913 -0.5416 -2.1412
14578SOL    HW244836   3.858   4.692   6.055 -0.0697 -1.6798  1.0553
14579SOL     OW44837   1.031   6.195   7.737  0.1323 -0.1181 -0.7912
14579SOL    HW144838   1.061   6.157   7.820 -0.5040 -0.2255 -0.6017
14579SOL    HW244839   0.939   6.216   7.753  0.5960  2.1092 -0.6626
14580SOL     OW44840   6.336   6.832   5.846 -0.2437 -0.0897  0.2177
14580SOL    HW144841   6.401   6.781   5.894 -1.5762 -1.0978  1.0487
14580SOL    HW244842   6.308   6.899   5.908 -2.1234 -1.5257  1.0224
14581SOL     OW44843   2.792   1.679   8.002 -0.4587 -0.5775  0.2144
14581SOL    HW144844   2.764   1.712   7.917  2.3554 -0.1756 -0.6566
14581SOL    HW244845   2.831   1.754   8.045  1.2249 -1.5071  0.4082
14582SOL     OW44846   7.897   6.889   5.024  0.0191 -0.1957 -0.3264
14582SOL    HW144847   7.834   6.892   5.095 -0.1254  1.1427 -0.4929
14582SOL    HW244848   7.956   6.962   5.040  1.3838 -1.2499 -0.3322
14583SOL     OW44849   5.837   0.373   2.117 -0.0500 -0.3782  1.4093
14583SOL    HW144850   5.823   0.295   2.063  0.3122  0.4037  0.1621
14583SOL    HW244851   5.907   0.347   2.177 -0.7231 -1.3861  1.7985
14584SOL     OW44852   1.724   4.249   0.654 -0.3568  0.0276 -0.1460
14584SOL    HW144853   1.804   4.291   0.687 -0.2928 -0.0488 -0.2033
14584SOL    HW244854   1.666   4.322   0.633  0.1698  0.1349 -1.3007
14585SOL     OW44855   2.152   2.984   1.723 -0.3669 -0.2781  0.7299
14585SOL    HW144856   2.205   2.957   1.648 -0.5221 -0.7870  0.8044
14585SOL    HW244857   2.169   3.078   1.731 -1.0103 -0.0192 -0.4994
14586SOL     OW44858   1.683   2.893   2.940  0.4212  0.8086 -0.1203
14586SOL    HW144859   1.757   2.835   2.955  2.1676  2.5852 -1.3139
14586SOL    HW244860   1.713   2.979   2.971 -0.6489  1.8187 -1.6961
14587SOL     OW44861   6.215   8.348   4.879  0.4345  0.4853  0.0952
14587SOL    HW144862   6.228   8.360   4.973  0.2904 -0.4840  0.2535
14587SOL    HW244863   6.302   8.361   4.841  1.2108 -2.1450  0.7280
14588SOL     OW44864   3.835   3.897   2.472  0.3527  0.2241  0.5145
14588SOL    HW144865   3.900   3.918   2.405  0.5868  0.3467  0.7820
14588SOL    HW244866   3.762   3.858   2.423  0.7478 -0.1877  0.2446
14589SOL     OW44867   3.295   8.147   7.275 -0.6334 -0.1862  0.2100
14589SOL    HW144868   3.259   8.236   7.271  4.0861  2.0335  0.3842
14589SOL    HW244869   3.329   8.131   7.187  0.2437 -0.9867  0.6793
14590SOL     OW44870   6.624   6.729   1.476  0.1082  0.5030 -0.6672
14590SOL    HW144871   6.542   6.686   1.500  0.0674  0.3368 -1.1010
14590SOL    HW244872   6.668   6.667   1.419  0.1909  0.9054 -1.0445
14591SOL     OW44873   3.114   6.465   1.622 -0.1228 -0.2126 -0.2442
14591SOL    HW144874   3.084   6.395   1.679  0.1602 -0.4662 -0.4024
14591SOL    HW244875   3.041   6.527   1.619 -0.7146 -0.9165 -0.7932
14592SOL     OW44876   8.525   7.958   4.060 -0.2855  0.3220  0.1285
14592SOL    HW144877   8.570   7.919   3.985 -0.1259  1.6039 -0.4804
14592SOL    HW244878   8.523   8.052   4.039  0.0747  0.7471  1.8858
14593SOL     OW44879   1.631   0.450   6.499 -0.6636 -0.1751 -0.0509
14593SOL    HW144880   1.699   0.516   6.513 -0.6258 -0.0855 -0.6241
14593SOL    HW244881   1.609   0.419   6.587 -2.5881  2.4918  0.5128
14594SOL     OW44882   8.931   4.242   1.547  0.7001 -0.0938 -0.6185
14594SOL    HW144883   9.003   4.207   1.599  0.3571 -2.8511 -1.7870
14594SOL    HW244884   8.853   4.198   1.582 -0.0272  0.7865 -1.1045
14595SOL     OW44885   2.576   6.449   0.716  0.3914  0.2186  0.0197
14595SOL    HW144886   2.550   6.413   0.801 -0.5682  2.0037  0.5158
14595SOL    HW244887   2.527   6.530   0.708  0.4319  0.0674 -2.2884
14596SOL     OW44888   9.102   3.396   3.367  0.2141  0.2110  0.6412
14596SOL    HW144889   9.140   3.372   3.451  0.6678  0.2317  0.4471
14596SOL    HW244890   9.174   3.437   3.319 -0.4933  1.8498  0.9078
14597SOL     OW44891   8.407   0.535   7.480  0.2679 -0.6764  0.0200
14597SOL    HW144892   8.467   0.494   7.418 -0.2859 -0.9350 -0.3604
14597SOL    HW244893   8.332   0.561   7.427 -0.1323 -0.7227  0.5492
14598SOL     OW44894   3.829   4.867   0.042 -0.2392  0.1702 -0.9874
14598SOL    HW144895   3.854   4.795   0.100  3.6278  2.1489  0.1973
14598SOL    HW244896   3.837   4.831  -0.046  0.0245 -1.2427 -0.4209
14599SOL     OW44897   3.864   4.568   1.653  0.4243  0.6540 -0.0819
14599SOL    HW144898   3.935   4.524   1.607 -0.8075 -1.0416 -0.4687
14599SOL    HW244899   3.795   4.577   1.588  0.5192  3.0671  0.0429
14600SOL     OW44900   4.721   3.548   8.727  0.5716  0.4754  0.0478
14600SOL    HW144901   4.734   3.641   8.743  1.6523  0.2287  0.7786
14600SOL    HW244902   4.810   3.514   8.713  0.0084  0.0185 -3.0591
14601SOL     OW44903   5.877   7.166   8.857  0.0420  0.7388  0.1899
14601SOL    HW144904   5.964   7.131   8.875 -0.8048 -1.5212  0.2257
14601SOL    HW244905   5.891   7.232   8.788  1.5370 -1.1503 -1.4365
14602SOL     OW44906   8.695   1.823   1.855 -0.6728  0.4426 -0.2148
14602SOL    HW144907   8.627   1.814   1.788 -0.9880  2.3827 -0.2251
14602SOL    HW244908   8.648   1.816   1.938 -0.3420 -1.5629 -0.1634
14603SOL     OW44909   0.381   0.628   0.390  0.0470 -0.3052  0.3838
14603SOL    HW144910   0.318   0.683   0.436  1.6846  2.1184 -0.0566
14603SOL    HW244911   0.389   0.549   0.444 -1.4521  0.4373  1.7557
14604SOL     OW44912   8.586   5.401   6.202  0.0101  0.0560  0.6556
14604SOL    HW144913   8.594   5.394   6.297 -1.1743 -0.7626  0.7192
14604SOL    HW244914   8.669   5.365   6.169 -0.4981 -1.8707  1.3551
14605SOL     OW44915   0.849   7.687   3.558  0.0790  0.5417  0.0835
14605SOL    HW144916   0.885   7.600   3.545 -1.3614 -0.2817  1.2897
14605SOL    HW244917   0.881   7.714   3.644  2.1079  2.0868 -1.0566
14606SOL     OW44918   3.180   0.447   4.502  0.2581 -0.6465 -0.5304
14606SOL    HW144919   3.257   0.465   4.556  0.6186  0.4790 -1.3851
14606SOL    HW244920   3.183   0.513   4.433 -1.4828 -0.5755 -0.5820
14607SOL     OW44921   7.701   5.996   0.681 -0.4787 -0.1904  0.1868
14607SOL    HW144922   7.629   6.054   0.655 -0.1561  0.0589 -0.1610
14607SOL    HW244923   7.774   6.055   0.698  0.1361 -0.5403 -1.0983
14608SOL     OW44924   5.207   1.819   6.785  0.0068 -0.3683 -0.3643
14608SOL    HW144925   5.211   1.902   6.831  1.2267 -0.2067 -0.7308
14608SOL    HW244926   5.182   1.755   6.852 -2.8852  0.5266 -0.4535
14609SOL     OW44927   6.307   2.107   6.361  0.1195  0.0275 -0.3044
14609SOL    HW144928   6.344   2.161   6.291  1.0307  1.5861  1.3069
14609SOL    HW244929   6.213   2.107   6.343  0.4222 -0.5069 -2.1004
14610SOL     OW44930   5.539   1.758   8.653  0.1503 -0.2959  0.5420
14610SOL    HW144931   5.551   1.847   8.686  2.0665 -0.7376  1.1938
14610SOL    HW244932   5.521   1.705   8.730 -1.6511 -0.4221  0.0860
14611SOL     OW44933   6.776   1.088   4.487  0.5016 -0.1633 -0.3364
14611SOL    HW144934   6.739   1.168   4.450 -0.6480 -0.2927  0.4987
14611SOL    HW244935   6.734   1.017   4.437 -0.5332 -0.3147  0.7047
14612SOL     OW44936   7.842   0.331   4.444 -0.2620  0.6113  0.3205
14612SOL    HW144937   7.801   0.354   4.527  0.9274  1.4367  0.6985
14612SOL    HW244938   7.837   0.411   4.391  0.2270  0.5132  0.1174
14613SOL     OW44939   5.220   9.101   8.127 -0.1397 -0.2593  0.4920
14613SOL    HW144940   5.223   9.152   8.046  0.7088  1.0406  1.3064
14613SOL    HW244941   5.272   9.023   8.108 -1.1124 -0.6685 -0.6369
14614SOL     OW44942   8.412   2.870   3.414  0.0621 -0.0327  0.6766
14614SOL    HW144943   8.457   2.853   3.497  0.3634 -0.7591  0.3743
14614SOL    HW244944   8.334   2.920   3.438 -0.5694 -1.3737  1.5646
14615SOL     OW44945   6.186   3.972   5.785 -0.0157 -0.3950 -0.2553
14615SOL    HW144946   6.128   4.014   5.848 -0.5000 -0.7679 -0.4423
14615SOL    HW244947   6.274   3.980   5.823 -0.3354 -0.9004  0.6218
14616SOL     OW44948   6.353   2.581   1.913 -0.2238  0.0391 -0.4500
14616SOL    HW144949   6.270   2.536   1.926  0.3539 -1.5124 -1.7836
14616SOL    HW244950   6.391   2.588   2.000 -0.1892 -2.4007 -0.2059
14617SOL     OW44951   2.430   0.006   6.047  0.3678  0.0268  0.0018
14617SOL    HW144952   2.481   0.078   6.085  0.9766 -0.1055 -0.5336
14617SOL    HW244953   2.461  -0.072   6.093 -0.3340  0.0990  0.6226
14618SOL     OW44954   3.721   8.582   3.072 -0.1705 -0.0068 -0.0438
14618SOL    HW144955   3.668   8.513   3.032 -1.4632  0.3305  1.0014
14618SOL    HW244956   3.802   8.584   3.020 -0.3642 -1.8628 -0.4730
14619SOL     OW44957   4.210   7.623   7.680  0.0785  0.1948 -0.0191
14619SOL    HW144958   4.278   7.571   7.723  2.9369  2.2580 -1.7595
14619SOL    HW244959   4.183   7.686   7.747 -0.0055 -0.5227  0.6347
14620SOL     OW44960   4.764   7.384   1.497 -0.5116 -0.0899  0.0400
14620SOL    HW144961   4.781   7.414   1.407 -1.5025 -0.6618 -0.3473
14620SOL    HW244962   4.822   7.308   1.508 -1.6976 -1.1420 -0.7690
14621SOL     OW44963   0.997   3.252   1.375 -0.3625 -0.3485  0.9123
14621SOL    HW144964   1.062   3.205   1.428  0.0144 -2.0668 -0.9742
14621SOL    HW244965   0.922   3.193   1.371 -0.0563 -0.6718 -1.1336
14622SOL     OW44966   2.853   4.757   3.181  0.7734 -0.2847  0.0496
14622SOL    HW144967   2.845   4.693   3.110  0.7924 -1.3145  0.9535
14622SOL    HW244968   2.791   4.727   3.247  0.5561  0.8222  0.3661
14623SOL     OW44969   3.744   6.400   8.316  0.1386 -0.4885 -0.4551
14623SOL    HW144970   3.771   6.373   8.228 -3.3691 -0.7174 -1.6037
14623SOL    HW244971   3.801   6.475   8.336 -0.2412  0.9109 -3.8518
14624SOL     OW44972   9.100   8.103   0.544 -0.2325 -0.0087  0.4490
14624SOL    HW144973   9.190   8.079   0.565 -0.0414 -0.8937 -1.2300
14624SOL    HW244974   9.080   8.175   0.604  2.3285  1.6913 -0.5598
14625SOL     OW44975   8.454   3.857   2.714 -0.6772  0.6588  0.3654
14625SOL    HW144976   8.486   3.774   2.677  0.2697  1.6806 -1.1963
14625SOL    HW244977   8.392   3.890   2.649 -0.4853  1.5459  0.6221
14626SOL     OW44978   6.747   7.760   6.635  0.8577 -0.5170  0.0699
14626SOL    HW144979   6.801   7.697   6.587  0.2619 -0.4655 -0.6896
14626SOL    HW244980   6.775   7.845   6.602 -0.3986 -0.5312 -1.1313
14627SOL     OW44981   5.094   0.145   8.320  0.3053 -0.0364  0.3816
14627SOL    HW144982   5.019   0.086   8.329  0.5197 -0.6015 -1.2106
14627SOL    HW244983   5.169   0.087   8.305  1.3722  0.4373  3.2105
14628SOL     OW44984   6.620   5.346   8.969  0.6172  0.4949  0.2991
14628SOL    HW144985   6.637   5.378   8.881  1.0675  0.9038  0.5316
14628SOL    HW244986   6.536   5.300   8.962  0.7955  0.2591 -0.4065
14629SOL     OW44987   5.943   4.086   0.493  0.1832 -0.3036  0.1869
14629SOL    HW144988   5.908   4.011   0.444 -0.3536  0.8346 -1.2356
14629SOL    HW244989   5.981   4.047   0.571 -0.7495 -1.9933 -0.1434
14630SOL     OW44990   0.433   0.025   2.035 -0.3631  0.4220  0.3256
14630SOL    HW144991   0.528   0.039   2.031 -0.6183  1.9805 -1.1715
14630SOL    HW244992   0.418  -0.007   2.124  1.6901 -1.0333  0.2172
14631SOL     OW44993   6.471   5.061   4.269  0.4300  0.2023 -0.8714
14631SOL    HW144994   6.487   5.025   4.182 -2.8834  0.0040 -1.5278
14631SOL    HW244995   6.456   4.984   4.324  0.0920  0.3878 -0.7013
14632SOL     OW44996   0.712   4.759   3.496 -0.6634  0.1886  0.2693
14632SOL    HW144997   0.796   4.761   3.450 -0.3686  0.2490  0.8052
14632SOL    HW244998   0.648   4.788   3.430 -0.4248 -0.8970 -0.4588
14633SOL     OW44999   5.607   0.672   8.879 -0.3886  0.2421  0.3563
14633SOL    HW145000   5.693   0.684   8.839 -0.9007  0.3773 -0.7487
14633SOL    HW245001   5.551   0.643   8.807 -1.1699 -0.2760  1.1523
14634SOL     OW45002   1.622   3.447   2.644 -0.2238  0.7679 -0.1161
14634SOL    HW145003   1.711   3.474   2.666 -0.0172  0.1332 -0.1543
14634SOL    HW245004   1.633   3.368   2.592 -0.8458 -0.0656  0.9824
14635SOL     OW45005   0.656   7.827   0.479 -0.4393 -0.0921  0.0322
14635SOL    HW145006   0.684   7.742   0.446 -0.4845  1.5155 -5.0401
14635SOL    HW245007   0.569   7.811   0.515  0.6136 -2.5233  1.7118
14636SOL     OW45008   2.635   0.941   7.459 -0.0702  0.0057 -0.0707
14636SOL    HW145009   2.722   0.977   7.438 -0.4045  1.3670  0.7833
14636SOL    HW245010   2.616   0.882   7.386  0.8091  1.0627 -1.2082
14637SOL     OW45011   1.348   4.098   9.031  0.1204 -0.1040 -0.2957
14637SOL    HW145012   1.297   4.021   9.005  0.6937 -0.8298  0.6656
14637SOL    HW245013   1.439   4.073   9.015  0.2999  0.4530 -0.1618
14638SOL     OW45014   1.266   8.962   1.869  0.7440 -0.5705  0.3861
14638SOL    HW145015   1.357   8.957   1.898  0.8508 -1.8442 -0.1141
14638SOL    HW245016   1.216   8.926   1.941  0.8424 -1.8756 -0.1639
14639SOL     OW45017   5.844   6.826   0.518  0.3683 -0.3420  0.1361
14639SOL    HW145018   5.824   6.920   0.513  3.1943  0.3500  0.1297
14639SOL    HW245019   5.868   6.812   0.609 -1.2330 -1.3924  0.4287
14640SOL     OW45020   0.393   8.150   6.863  0.0381  0.4279 -0.4798
14640SOL    HW145021   0.483   8.123   6.882 -0.1734 -1.5849 -2.0454
14640SOL    HW245022   0.399   8.199   6.782 -0.2750  0.3184 -0.5690
14641SOL     OW45023   8.514   4.039   5.021  0.8621  0.2021  0.0822
14641SOL    HW145024   8.555   4.096   4.955  1.2773  1.5067  1.4222
14641SOL    HW245025   8.585   4.019   5.082  0.2279 -0.0696  0.7423
14642SOL     OW45026   3.940   5.351   3.857 -0.2092  0.2266  0.1205
14642SOL    HW145027   3.874   5.282   3.866 -0.3933  0.5166  1.0315
14642SOL    HW245028   3.953   5.384   3.945  0.2929  0.9823 -0.2272
14643SOL     OW45029   1.965   6.407   6.034  0.5002 -0.5395 -0.3029
14643SOL    HW145030   2.017   6.333   6.002  0.8058 -0.9293  1.0544
14643SOL    HW245031   2.010   6.436   6.113  0.4872  1.2448 -0.9191
14644SOL     OW45032   2.144   1.311   0.293  0.4166  0.3603 -0.1234
14644SOL    HW145033   2.130   1.238   0.233  1.2696 -0.7115  0.9199
14644SOL    HW245034   2.206   1.368   0.248  0.2770  0.0897 -0.6612
14645SOL     OW45035   3.141   6.316   6.450  0.0623 -0.0685 -0.1534
14645SOL    HW145036   3.173   6.404   6.469  1.4436 -0.7625  0.8880
14645SOL    HW245037   3.218   6.269   6.419 -0.7200 -0.8586 -0.9633
14646SOL     OW45038   3.058   8.307   4.479 -0.3074 -0.0801  0.2415
14646SOL    HW145039   2.966   8.301   4.503 -0.6071 -1.1809 -1.1025
14646SOL    HW245040   3.058   8.313   4.384  1.0623 -2.2139  0.0499
14647SOL     OW45041   5.683   6.158   8.643  0.1881  0.3589 -0.3013
14647SOL    HW145042   5.693   6.127   8.733 -0.1948  4.1708  1.2210
14647SOL    HW245043   5.655   6.249   8.651 -0.5347  0.7022 -4.3266
14648SOL     OW45044   3.256   7.090   8.970  0.1781 -0.5079  0.1731
14648SOL    HW145045   3.196   7.032   9.016 -0.9509  0.6792  0.2421
14648SOL    HW245046   3.219   7.100   8.883  1.3121 -1.2570 -0.4252
14649SOL     OW45047   4.630   5.073   5.865 -0.5822  0.0194  0.5044
14649SOL    HW145048   4.536   5.077   5.883 -0.8020  0.5342 -0.6504
14649SOL    HW245049   4.644   4.984   5.831 -0.4160 -0.4699  1.8001
14650SOL     OW45050   7.088   1.070   2.053 -0.4765 -0.0870 -0.3935
14650SOL    HW145051   7.048   0.999   2.103  1.2509 -0.6567  0.2570
14650SOL    HW245052   7.126   1.026   1.976 -0.5533  0.3459 -0.6837
14651SOL     OW45053   4.081   7.557   5.922  0.1534 -0.4450  0.2066
14651SOL    HW145054   4.156   7.591   5.972  0.2374  3.7832 -2.2722
14651SOL    HW245055   4.120   7.501   5.855  0.7227 -0.9952  0.9904
14652SOL     OW45056   8.025   2.921   1.716  0.2833  0.1019 -0.4043
14652SOL    HW145057   8.068   2.955   1.795  0.2325 -0.7668  0.0152
14652SOL    HW245058   7.967   2.992   1.688  0.6420  0.5969  0.0805
14653SOL     OW45059   8.601   1.800   0.309  0.8519 -0.0041 -0.2187
14653SOL    HW145060   8.603   1.706   0.293 -2.7936 -0.0609 -1.1703
14653SOL    HW245061   8.618   1.809   0.403  1.9863 -1.4853 -0.2436
14654SOL     OW45062   6.581   8.126   1.237 -0.0523  0.6103  0.1154
14654SOL    HW145063   6.511   8.135   1.172 -0.0839 -0.4019 -0.0212
14654SOL    HW245064   6.537   8.088   1.313  0.5922 -1.6117 -0.5402
14655SOL     OW45065   1.385   1.875   5.847 -0.3526  1.2386 -0.2272
14655SOL    HW145066   1.377   1.793   5.896 -1.0600  0.3897 -1.6645
14655SOL    HW245067   1.414   1.939   5.911  0.8348 -0.2657  0.8275
14656SOL     OW45068   6.696   4.233   6.752 -0.4564  0.3676 -0.5595
14656SOL    HW145069   6.748   4.230   6.672  1.1904  0.1623  0.4638
14656SOL    HW245070   6.625   4.294   6.733  0.8781  1.6571 -1.6160
14657SOL     OW45071   0.034   2.245   8.882 -0.1682  0.1838  0.2412
14657SOL    HW145072   0.061   2.181   8.816 -1.5412  0.1805 -0.3562
14657SOL    HW245073   0.114   2.292   8.904  0.6230 -0.8892 -0.2484
14658SOL     OW45074   1.828   5.145   2.003 -0.0663  0.2162 -0.0027
14658SOL    HW145075   1.767   5.162   1.931 -1.2920  0.8495  1.1492
14658SOL    HW245076   1.811   5.216   2.065  1.7597  0.3255  0.4192
14659SOL     OW45077   4.427   1.664   8.734 -0.0775  0.6418  0.3884
14659SOL    HW145078   4.451   1.583   8.688 -2.8036 -0.5099  0.7899
14659SOL    HW245079   4.488   1.668   8.808  0.0140 -1.1791  0.4696
14660SOL     OW45080   6.263   0.880   1.164 -0.0565 -0.0374  0.0094
14660SOL    HW145081   6.186   0.907   1.215  0.0260 -0.4088  0.3328
14660SOL    HW245082   6.318   0.834   1.227 -0.5304 -1.6317 -0.6918
14661SOL     OW45083   4.167   7.746   1.865  0.3060 -0.3117 -0.6677
14661SOL    HW145084   4.229   7.713   1.799 -0.2419  1.3180 -2.0692
14661SOL    HW245085   4.213   7.820   1.906  0.2568 -0.7093  0.1287
14662SOL     OW45086   4.449   2.765   0.072  0.0682 -0.0634  0.4310
14662SOL    HW145087   4.415   2.746  -0.015  1.6432 -0.8052 -0.0765
14662SOL    HW245088   4.531   2.811   0.056 -0.8146  2.0577  1.5949
14663SOL     OW45089   5.777   8.502   0.409  0.6279  0.3464  0.0634
14663SOL    HW145090   5.777   8.431   0.473  0.1661 -0.8856 -1.2615
14663SOL    HW245091   5.705   8.481   0.350  1.8838  0.7188 -1.6519
14664SOL     OW45092   4.842   7.285   7.626 -0.7392 -0.3317 -0.2039
14664SOL    HW145093   4.906   7.308   7.558  0.4791 -0.1392  0.9690
14664SOL    HW245094   4.894   7.244   7.695 -2.0194 -0.9668  0.4207
14665SOL     OW45095   0.656   9.059   2.891  0.3299  0.1547  0.0394
14665SOL    HW145096   0.570   9.092   2.916 -0.1525 -1.6090  0.8750
14665SOL    HW245097   0.684   9.008   2.967  2.0379  0.5381 -0.2978
14666SOL     OW45098   2.665   6.172   2.806  0.3212 -0.2211 -0.2601
14666SOL    HW145099   2.601   6.192   2.737 -0.7288 -0.9391  0.4753
14666SOL    HW245100   2.674   6.254   2.855 -0.1928 -0.1660 -0.2509
14667SOL     OW45101   5.509   9.010   6.614  0.3052  0.5696 -0.1796
14667SOL    HW145102   5.442   8.997   6.546 -0.6281  0.8663  0.6640
14667SOL    HW245103   5.566   8.933   6.606  0.6466  0.9521 -1.7694
14668SOL     OW45104   5.455   8.840   2.392 -0.3944 -0.3408  0.0680
14668SOL    HW145105   5.373   8.813   2.432 -0.6003 -1.7097 -1.1963
14668SOL    HW245106   5.433   8.859   2.301  0.9190 -2.2968 -0.7240
14669SOL     OW45107   3.587   3.495   7.506  0.1971 -0.3363 -0.3143
14669SOL    HW145108   3.500   3.533   7.499 -0.4838 -2.0515 -2.2954
14669SOL    HW245109   3.640   3.542   7.441  0.7517  0.5950  0.7744
14670SOL     OW45110   0.550   2.609   0.025 -0.0815 -0.2072  0.2864
14670SOL    HW145111   0.464   2.570   0.005 -0.1063 -0.4163  0.7689
14670SOL    HW245112   0.557   2.602   0.120 -0.1901  1.1986  0.4118
14671SOL     OW45113   4.530   4.219   7.588 -0.0331  0.1422 -0.2984
14671SOL    HW145114   4.599   4.191   7.528  0.6604  0.7331  0.1970
14671SOL    HW245115   4.451   4.221   7.535  0.1962 -1.1407 -0.7428
14672SOL     OW45116   1.449   0.717   4.830 -1.0219  0.5243  0.0538
14672SOL    HW145117   1.488   0.777   4.767 -0.1803 -0.5301 -0.4766
14672SOL    HW245118   1.364   0.755   4.852 -0.1770  2.3159  0.3715
14673SOL     OW45119   4.816   7.704   3.047  0.1188  0.1472 -0.3896
14673SOL    HW145120   4.814   7.617   3.007  0.2698 -0.3622  0.6841
14673SOL    HW245121   4.892   7.747   3.007 -0.0304 -0.1576 -1.0192
14674SOL     OW45122   4.084   1.865   8.179  0.0018  0.2813  0.5374
14674SOL    HW145123   4.054   1.954   8.161  1.3281  0.8759  1.2124
14674SOL    HW245124   4.169   1.875   8.220 -0.2518 -1.2699  1.5380
14675SOL     OW45125   4.669   4.926   9.052  0.4774 -0.6446  0.0740
14675SOL    HW145126   4.671   4.936   9.147  4.1721  0.2919  0.0349
14675SOL    HW245127   4.740   4.864   9.032  0.7361  0.2570 -2.1554
14676SOL     OW45128   7.843   3.340   6.776  0.1049 -0.1843  0.7829
14676SOL    HW145129   7.911   3.306   6.717 -0.2726 -1.0397  0.8221
14676SOL    HW245130   7.870   3.309   6.863  0.7467  1.2095  1.1047
14677SOL     OW45131   1.963   0.230   8.616 -0.4901 -0.4572  0.4944
14677SOL    HW145132   1.906   0.256   8.544 -0.1637 -0.0210  0.3850
14677SOL    HW245133   2.037   0.186   8.575 -1.3984 -2.2733  0.7338
14678SOL     OW45134   3.130   7.517   1.860  0.1733  0.0641 -0.7511
14678SOL    HW145135   3.180   7.571   1.921 -0.2239 -0.1413 -0.2388
14678SOL    HW245136   3.087   7.580   1.802  0.5040  0.2611 -0.7891
14679SOL     OW45137   5.989   4.343   6.266  0.3103 -0.1398 -0.1708
14679SOL    HW145138   5.990   4.409   6.196 -2.7880 -0.4988 -0.7065
14679SOL    HW245139   6.054   4.278   6.239  2.0889  1.7207 -0.5763
14680SOL     OW45140   2.804   8.539   1.055  0.4029  0.2371 -0.0947
14680SOL    HW145141   2.746   8.584   1.117 -1.7244 -0.1893 -1.6392
14680SOL    HW245142   2.865   8.606   1.026 -0.5589  1.2568  0.1631
14681SOL     OW45143   6.847   3.086   7.300 -0.0397 -0.2833  0.3153
14681SOL    HW145144   6.779   3.052   7.242  1.7372 -1.3143 -1.3019
14681SOL    HW245145   6.801   3.143   7.361 -1.8719  2.5442 -3.3070
14682SOL     OW45146   0.735   5.093   3.375  0.4679 -0.1412  0.3002
14682SOL    HW145147   0.739   5.130   3.463  0.4466 -0.2979  0.3669
14682SOL    HW245148   0.797   5.021   3.376  0.1730 -0.3957  0.3055
14683SOL     OW45149   8.362   5.193   5.619 -0.4407 -0.2842  0.7067
14683SOL    HW145150   8.419   5.261   5.583  1.2301 -1.3320  1.2454
14683SOL    HW245151   8.300   5.175   5.549 -0.3007  1.0972  0.1972
14684SOL     OW45152   1.164   1.677   1.127 -0.4178 -0.0635  0.1781
14684SOL    HW145153   1.145   1.672   1.220  2.3074 -0.3205  0.8180
14684SOL    HW245154   1.135   1.764   1.100  1.3762  1.1962  2.0104
14685SOL     OW45155   5.372   7.410   1.063 -0.0718  0.2218 -0.1084
14685SOL    HW145156   5.301   7.461   1.103 -0.0600  1.1984 -1.2867
14685SOL    HW245157   5.334   7.323   1.050  0.4743 -0.7224  3.5905
14686SOL     OW45158   6.275   2.053   6.661 -0.3710 -0.0834 -0.1147
14686SOL    HW145159   6.255   2.087   6.574  0.2629 -0.1588 -0.2865
14686SOL    HW245160   6.237   1.965   6.662 -3.9882  1.2904  1.0567
14687SOL     OW45161   4.165   2.302   8.905  0.5003  0.0087  0.2095
14687SOL    HW145162   4.121   2.268   8.827  2.9767  1.6436 -2.0797
14687SOL    HW245163   4.187   2.393   8.883  1.1152  0.6368  2.9502
14688SOL     OW45164   4.667   3.442   0.429 -0.2743  0.2956 -0.5355
14688SOL    HW145165   4.633   3.447   0.340 -0.1707  0.4858 -0.5650
14688SOL    HW245166   4.739   3.378   0.423 -1.3527 -0.9832 -0.2350
14689SOL     OW45167   6.855   2.079   3.648 -0.0075 -0.3575 -0.1366
14689SOL    HW145168   6.918   2.010   3.667 -1.0296 -1.1477  0.4594
14689SOL    HW245169   6.775   2.052   3.692 -0.9959  0.2572 -1.4776
14690SOL     OW45170   0.610   0.789   0.687  0.0555 -0.1627  0.8091
14690SOL    HW145171   0.621   0.716   0.627 -0.5933 -0.7735  1.4102
14690SOL    HW245172   0.650   0.863   0.643  2.2449 -1.2241  0.8796
14691SOL     OW45173   0.926   2.382   1.674 -0.4634  0.1200  0.0036
14691SOL    HW145174   0.917   2.442   1.749  1.9810 -0.0678  0.5597
14691SOL    HW245175   0.849   2.398   1.620 -2.0741  0.6302  2.3004
14692SOL     OW45176   5.213   3.181   5.070 -0.3322  0.2752  0.6223
14692SOL    HW145177   5.165   3.143   5.144 -1.5841  1.6171  0.5401
14692SOL    HW245178   5.145   3.202   5.006  0.6762 -0.3030 -0.6746
14693SOL     OW45179   8.545   5.673   6.625 -0.3685 -0.3930 -0.6141
14693SOL    HW145180   8.544   5.703   6.717  1.8589 -0.6465 -0.4471
14693SOL    HW245181   8.514   5.583   6.629  0.2291 -0.5840 -0.0105
14694SOL     OW45182   7.969   4.248   2.135 -1.0651  0.7287 -0.3183
14694SOL    HW145183   7.924   4.224   2.216 -0.2057 -0.2980 -0.1291
14694SOL    HW245184   8.045   4.299   2.164 -0.4545 -0.1029 -0.4238
14695SOL     OW45185   2.387   1.165   5.424  0.6973 -0.0572  0.3705
14695SOL    HW145186   2.463   1.211   5.388  0.1587  0.6791  0.1444
14695SOL    HW245187   2.361   1.104   5.355 -1.5966  2.7730 -1.5206
14696SOL     OW45188   6.364   4.938   6.938 -0.1188 -0.1526 -0.3495
14696SOL    HW145189   6.421   5.015   6.950 -2.6366  2.0163 -1.2387
14696SOL    HW245190   6.282   4.962   6.982 -0.8246 -2.6386 -0.1557
14697SOL     OW45191   2.550   8.473   8.704  0.3646 -0.0249  0.0059
14697SOL    HW145192   2.632   8.430   8.678  0.6518  0.8744 -0.6222
14697SOL    HW245193   2.578   8.539   8.768  0.5246  2.0383 -2.0728
14698SOL     OW45194   7.874   6.872   3.247  0.1855 -0.0475  0.0801
14698SOL    HW145195   7.832   6.933   3.307  0.2988 -0.7085  0.8568
14698SOL    HW245196   7.952   6.917   3.217  1.0328 -0.3192  1.7517
14699SOL     OW45197   1.000   2.889   3.174  0.8617 -0.1081 -0.1755
14699SOL    HW145198   1.076   2.842   3.209  0.3736 -1.3954 -0.7600
14699SOL    HW245199   0.962   2.828   3.111  0.1940  1.1053 -0.9860
14700SOL     OW45200   0.026   6.797   6.187  0.0234  0.1901  0.0409
14700SOL    HW145201  -0.063   6.832   6.184 -0.3031 -0.5468  0.6566
14700SOL    HW245202   0.081   6.871   6.212 -0.3397  0.7761 -0.8514
14701SOL     OW45203   5.637   5.592   4.732 -0.1114 -0.3909 -0.3972
14701SOL    HW145204   5.708   5.624   4.676 -0.3752  0.6406 -0.1532
14701SOL    HW245205   5.570   5.560   4.672  0.2362 -0.6801 -0.6356
14702SOL     OW45206   8.182   5.686   8.813 -0.5884  0.2178 -0.0887
14702SOL    HW145207   8.241   5.761   8.825 -0.6932  0.7244 -2.3781
14702SOL    HW245208   8.241   5.611   8.802 -0.4693 -0.3828  3.3062
14703SOL     OW45209   5.593   2.578   1.652 -0.1266  0.2728 -0.6147
14703SOL    HW145210   5.589   2.488   1.686 -1.6933  0.2828 -0.6856
14703SOL    HW245211   5.682   2.587   1.617  1.4162  0.0359  2.8060
14704SOL     OW45212   0.027   0.140   2.068  0.1346  0.2754 -0.1338
14704SOL    HW145213  -0.037   0.083   2.112 -0.0373 -1.4588 -2.4260
14704SOL    HW245214  -0.020   0.174   1.992  1.8108 -0.9581 -1.8260
14705SOL     OW45215   5.970   6.166   1.788  0.0284  0.2627 -0.0780
14705SOL    HW145216   6.017   6.154   1.705 -0.2981  1.8782 -0.5307
14705SOL    HW245217   6.024   6.227   1.838 -0.3880  0.2524  0.3951
14706SOL     OW45218   4.960   4.811   3.600  0.4680  0.2133 -0.3448
14706SOL    HW145219   5.034   4.849   3.647 -0.4910 -0.3407  1.6852
14706SOL    HW245220   4.954   4.722   3.633  0.3044 -0.5225 -2.2247
14707SOL     OW45221   3.682   3.174   7.886  0.4778  0.3645  0.0202
14707SOL    HW145222   3.710   3.210   7.802  0.3626 -0.4434 -0.3750
14707SOL    HW245223   3.751   3.199   7.947  0.0265  1.9023 -0.0654
14708SOL     OW45224   2.475   5.657   0.967 -0.3611  0.0363  0.6221
14708SOL    HW145225   2.442   5.647   1.056  1.1095 -0.0047  1.1863
14708SOL    HW245226   2.515   5.573   0.946  0.0758  0.3270  0.2635
14709SOL     OW45227   3.904   5.133   6.773  0.2415  0.4385  0.3024
14709SOL    HW145228   3.952   5.209   6.739  0.5572 -0.3476 -1.0547
14709SOL    HW245229   3.813   5.147   6.746  0.0737  0.8923  1.0663
14710SOL     OW45230   0.411   8.529   8.393 -0.2593  0.6015  0.3522
14710SOL    HW145231   0.432   8.466   8.324  1.9542 -0.3402  1.7995
14710SOL    HW245232   0.489   8.584   8.400  0.3776 -0.5038  3.2902
14711SOL     OW45233   5.112   0.209   7.228  0.4320  0.1896 -0.2013
14711SOL    HW145234   5.029   0.175   7.197  0.2110  1.3570 -0.9843
14711SOL    HW245235   5.089   0.268   7.300  0.6335  0.0298 -0.0057
14712SOL     OW45236   0.167   8.824   0.645  0.4579  0.1036  0.4999
14712SOL    HW145237   0.081   8.850   0.680  0.1443 -0.9828  0.5803
14712SOL    HW245238   0.209   8.907   0.620 -1.2337  0.5737 -1.0012
14713SOL     OW45239   1.516   3.283   5.982 -0.4635 -0.1726 -0.2848
14713SOL    HW145240   1.541   3.373   5.961 -2.3533  0.5750  0.4108
14713SOL    HW245241   1.570   3.260   6.058 -0.5834  0.7139  0.0867
14714SOL     OW45242   8.374   3.119   4.411 -0.2581  0.4702 -0.0318
14714SOL    HW145243   8.303   3.068   4.449  0.1981 -0.5181 -0.4846
14714SOL    HW245244   8.436   3.130   4.484  0.2667 -0.7857 -0.2631
14715SOL     OW45245   3.896   0.882   5.939  0.0884 -0.0073 -0.0107
14715SOL    HW145246   3.849   0.914   5.862 -1.2471  0.6341  1.0254
14715SOL    HW245247   3.982   0.924   5.934  0.4670 -0.9006 -1.7500
14716SOL     OW45248   1.567   7.429   0.925  0.2903  0.3306  0.7407
14716SOL    HW145249   1.550   7.430   0.831  1.3391  0.6680  0.5371
14716SOL    HW245250   1.521   7.506   0.958 -0.4078 -0.0074  0.5763
14717SOL     OW45251   8.527   5.572   4.276 -0.1601  0.1063  0.4040
14717SOL    HW145252   8.612   5.544   4.310  0.1196  1.5393  0.9881
14717SOL    HW245253   8.516   5.524   4.194  0.5915 -1.0965  0.9799
14718SOL     OW45254   3.346   3.211   7.041  0.0767  0.7560  0.5136
14718SOL    HW145255   3.378   3.159   7.114  2.4558  2.2025  0.6444
14718SOL    HW245256   3.403   3.187   6.968 -0.9086  0.8372 -0.2992
14719SOL     OW45257   7.544   7.583   8.752 -0.3348 -0.5962 -0.2662
14719SOL    HW145258   7.630   7.552   8.780 -0.2146 -0.8655 -0.9129
14719SOL    HW245259   7.489   7.573   8.830  0.4419  0.5273  0.4632
14720SOL     OW45260   4.228   3.637   2.942 -0.0064  0.6066  0.2007
14720SOL    HW145261   4.140   3.606   2.964 -0.1580  1.7079  1.2875
14720SOL    HW245262   4.225   3.731   2.961  1.3967  0.6676  0.2140
14721SOL     OW45263   8.687   6.741   7.220  0.5004  0.3984 -0.8382
14721SOL    HW145264   8.768   6.784   7.192  0.8187 -0.4766 -1.3000
14721SOL    HW245265   8.627   6.753   7.147  0.7885 -0.4434 -1.2286
14722SOL     OW45266   4.049   4.643   4.949  0.1381  0.4132  0.0024
14722SOL    HW145267   4.091   4.592   5.019  0.2936  1.2206  0.5044
14722SOL    HW245268   4.122   4.679   4.899  0.0265 -0.2987 -0.6856
14723SOL     OW45269   0.920   7.753   6.001  0.4137  0.3851  0.2094
14723SOL    HW145270   0.934   7.729   5.909  0.3712  0.8104  0.0892
14723SOL    HW245271   1.004   7.732   6.044  0.2729 -0.2595  0.1718
14724SOL     OW45272   9.057   4.311   5.166 -0.0134 -0.3321 -0.0780
14724SOL    HW145273   8.990   4.364   5.209 -0.1822 -0.8473  0.3047
14724SOL    HW245274   9.012   4.273   5.091  0.0891  0.0106 -0.3147
14725SOL     OW45275   1.975   0.787   5.966  0.6874 -0.3504 -0.2062
14725SOL    HW145276   1.909   0.747   6.023  1.6247  0.1520  1.3091
14725SOL    HW245277   1.945   0.767   5.877 -0.6087 -1.5553  0.4463
14726SOL     OW45278   4.965   4.049   3.096  0.5751  0.1061  0.1700
14726SOL    HW145279   4.966   4.139   3.062  4.0752  0.5457  1.0507
14726SOL    HW245280   4.946   4.059   3.189  0.5232 -0.1230  0.1845
14727SOL     OW45281   4.948   2.795   9.073  0.1114 -0.2637 -0.0188
14727SOL    HW145282   4.992   2.737   9.012  0.1571 -0.5178  0.2542
14727SOL    HW245283   5.016   2.855   9.103 -0.1631  0.6142 -1.1046
14728SOL     OW45284   6.063   5.384   5.078  0.1158  0.4174  0.3362
14728SOL    HW145285   6.152   5.371   5.044 -0.3678 -0.6335 -0.5528
14728SOL    HW245286   6.009   5.322   5.030 -0.7091 -0.7487  2.6045
14729SOL     OW45287   1.886   1.705   6.815  0.9740  0.2557 -0.0051
14729SOL    HW145288   1.890   1.625   6.866 -2.5577 -1.2177 -1.6573
14729SOL    HW245289   1.893   1.676   6.724  1.3381  2.0421 -0.5955
14730SOL     OW45290   3.068   6.331   8.627 -0.0299 -0.2178 -0.2243
14730SOL    HW145291   3.086   6.403   8.688  2.5407 -0.1898 -0.8982
14730SOL    HW245292   3.068   6.253   8.682  1.1156 -0.0772 -0.0085
14731SOL     OW45293   2.603   5.211   1.837 -0.3579 -0.7366 -0.1100
14731SOL    HW145294   2.516   5.186   1.866 -1.9403  2.4723 -1.5574
14731SOL    HW245295   2.653   5.227   1.917 -2.1429  0.4365  0.8172
14732SOL     OW45296   7.921   1.109   6.812  0.1528 -0.6597 -0.5923
14732SOL    HW145297   7.959   1.043   6.871 -1.0236  0.0106  0.9657
14732SOL    HW245298   7.985   1.181   6.812  0.0343 -0.5514  0.0794
14733SOL     OW45299   9.103   8.711   8.394  0.0687 -0.6730  0.2609
14733SOL    HW145300   9.154   8.750   8.465 -0.4142 -2.0522  1.4016
14733SOL    HW245301   9.139   8.623   8.385  1.9166  0.2492 -3.0438
14734SOL     OW45302   2.698   8.317   3.363  0.5006 -0.4413  0.1191
14734SOL    HW145303   2.641   8.393   3.376  1.8527  0.7726 -0.7315
14734SOL    HW245304   2.756   8.317   3.439 -0.5560 -1.6595  0.9705
14735SOL     OW45305   0.951   6.132   3.364 -0.5328 -0.2285  0.7931
14735SOL    HW145306   0.882   6.078   3.325  1.3476 -0.2813 -2.8416
14735SOL    HW245307   0.978   6.191   3.294  2.0798  0.8623  2.5689
14736SOL     OW45308   4.947   0.707   2.017  0.3886  0.3284  0.0009
14736SOL    HW145309   5.034   0.740   1.995  0.7715 -1.6323 -1.6882
14736SOL    HW245310   4.891   0.737   1.945  0.8186 -2.7480 -1.7929
14737SOL     OW45311   2.503   4.171   7.287 -0.2114 -1.4738  0.0892
14737SOL    HW145312   2.513   4.248   7.231 -0.4070  1.0326  3.2349
14737SOL    HW245313   2.590   4.157   7.323 -0.8716 -0.3535  2.2795
14738SOL     OW45314   6.650   4.430   2.613  0.6668 -0.3409 -0.1720
14738SOL    HW145315   6.618   4.461   2.529 -0.5283  0.4033  0.5290
14738SOL    HW245316   6.744   4.415   2.599  0.4708 -0.3488 -1.6512
14739SOL     OW45317   4.723   8.678   7.726  0.4415  0.5611 -0.0035
14739SOL    HW145318   4.768   8.630   7.657  0.5813 -0.0013  0.4660
14739SOL    HW245319   4.777   8.756   7.739  0.9029  0.2344  0.0740
14740SOL     OW45320   5.837   7.384   1.206  0.1074 -0.7365  0.0912
14740SOL    HW145321   5.778   7.333   1.150 -0.6607 -0.5114  0.6831
14740SOL    HW245322   5.861   7.325   1.277 -0.6094 -0.3593  0.6593
14741SOL     OW45323   6.251   2.275   6.831  0.1707  0.3236  0.5013
14741SOL    HW145324   6.186   2.266   6.899 -1.6976  0.9143 -1.1145
14741SOL    HW245325   6.252   2.191   6.786  0.1921  0.4606  0.2392
14742SOL     OW45326   1.845   8.874   2.575 -0.1746  0.0586  0.0460
14742SOL    HW145327   1.764   8.924   2.561 -1.7071 -2.6027 -1.3992
14742SOL    HW245328   1.887   8.873   2.489  0.7766  0.3601  0.4973
14743SOL     OW45329   7.212   2.136   8.046  0.4516 -0.3063  0.3260
14743SOL    HW145330   7.183   2.069   8.108  0.3181 -0.3916  0.1719
14743SOL    HW245331   7.298   2.106   8.016  1.2856  0.5892  1.7458
14744SOL     OW45332   4.254   7.062   8.280 -0.2338 -0.2545  0.2713
14744SOL    HW145333   4.255   7.072   8.185  1.1140  0.4737  0.3305
14744SOL    HW245334   4.170   7.099   8.308  0.0648  1.0714 -0.5036
14745SOL     OW45335   8.805   8.686   8.761 -0.6479  0.8240  0.0479
14745SOL    HW145336   8.805   8.733   8.844  0.4544 -0.7635  1.0313
14745SOL    HW245337   8.725   8.633   8.763  0.0766 -0.3103  0.8384
14746SOL     OW45338   5.051   7.355   7.402  0.0043  0.2548 -0.3100
14746SOL    HW145339   5.139   7.372   7.437  0.4025 -1.6191 -0.3292
14746SOL    HW245340   5.064   7.285   7.338 -1.6458 -0.7389  0.3903
14747SOL     OW45341   8.194   3.613   3.963 -0.2658 -0.1500 -0.0442
14747SOL    HW145342   8.172   3.640   4.052 -1.0045 -0.9728  0.0462
14747SOL    HW245343   8.289   3.619   3.959 -0.1013 -1.2032  1.2023
14748SOL     OW45344   2.870   2.095   1.429  0.2024  0.1766  0.3629
14748SOL    HW145345   2.794   2.037   1.434 -1.6110  2.4638  0.5259
14748SOL    HW245346   2.945   2.035   1.431 -1.5575 -2.2252 -0.6283
14749SOL     OW45347   6.934   5.616   2.470 -0.4663 -0.3220 -0.2314
14749SOL    HW145348   6.876   5.640   2.397 -0.6486 -0.3434 -0.0942
14749SOL    HW245349   7.020   5.647   2.443 -0.0890 -2.2036 -1.4182
14750SOL     OW45350   6.777   8.256   3.965 -0.1276  0.3735  0.6608
14750SOL    HW145351   6.812   8.336   3.925  1.2470 -0.1213  0.7989
14750SOL    HW245352   6.836   8.239   4.038  0.1933 -1.2940  0.0481
14751SOL     OW45353   7.239   2.509   5.889 -0.4323 -0.1668  0.8822
14751SOL    HW145354   7.333   2.525   5.883 -0.2404 -1.6302 -1.2828
14751SOL    HW245355   7.199   2.582   5.842 -0.0302 -1.6519 -2.0222
14752SOL     OW45356   4.972   8.693   7.280  0.2041 -0.1098 -0.0330
14752SOL    HW145357   5.059   8.682   7.317  0.0939 -0.6599  0.0746
14752SOL    HW245358   4.982   8.762   7.215  0.7069 -0.1227  0.0266
14753SOL     OW45359   8.829   7.871   8.962  0.2881  0.2193  0.6988
14753SOL    HW145360   8.747   7.918   8.946  1.5806  2.2386 -0.4800
14753SOL    HW245361   8.833   7.860   9.057 -1.1322  0.4323  0.8051
14754SOL     OW45362   7.413   5.450   3.883 -0.2810  0.3893 -0.3463
14754SOL    HW145363   7.372   5.430   3.967  0.6390 -2.1163 -0.3881
14754SOL    HW245364   7.364   5.398   3.820  0.2774  0.6820 -1.0341
14755SOL     OW45365   6.986   7.989   1.891 -0.1617  0.2039  0.3661
14755SOL    HW145366   7.002   7.911   1.943  1.8746 -0.1860 -0.7380
14755SOL    HW245367   6.967   8.057   1.955 -2.3082 -1.2174  1.3346
14756SOL     OW45368   7.353   4.374   8.005  0.3967  0.0258 -0.3042
14756SOL    HW145369   7.296   4.450   7.994  1.3942  0.8345  0.0557
14756SOL    HW245370   7.369   4.343   7.915 -1.9669 -1.2869 -0.3761
14757SOL     OW45371   8.701   0.253   6.397  0.4459 -0.1012  0.0791
14757SOL    HW145372   8.642   0.316   6.438  0.3168 -0.0937 -0.1185
14757SOL    HW245373   8.654   0.223   6.319  0.9284  0.3121 -0.3771
14758SOL     OW45374   2.381   0.947   1.347 -0.2688  0.5798 -0.4128
14758SOL    HW145375   2.396   0.936   1.441  0.7756  1.4769 -0.4511
14758SOL    HW245376   2.445   1.013   1.320 -1.6704  1.5639 -1.4449
14759SOL     OW45377   1.902   0.051   5.640  0.2731 -0.2769 -0.6281
14759SOL    HW145378   1.829   0.084   5.691  0.0932  0.8159 -1.5442
14759SOL    HW245379   1.897   0.099   5.557  0.2890 -2.2772 -1.8518
14760SOL     OW45380   4.132   4.042   3.256 -0.2453 -0.1629  0.7863
14760SOL    HW145381   4.157   4.120   3.208  1.1179 -0.2295  1.3610
14760SOL    HW245382   4.085   4.075   3.333 -3.2071 -0.0769 -0.9008
14761SOL     OW45383   1.711   6.360   0.172 -0.4401 -0.1395 -0.3501
14761SOL    HW145384   1.655   6.283   0.172 -0.4451 -0.1471 -0.9863
14761SOL    HW245385   1.757   6.356   0.087  0.0051  0.2307 -0.1333
14762SOL     OW45386   2.763   0.165   6.413  0.2724 -0.2660  0.3826
14762SOL    HW145387   2.741   0.134   6.325  0.0035 -1.5240  0.8709
14762SOL    HW245388   2.840   0.114   6.438  0.5523  0.3309  0.7472
14763SOL     OW45389   3.354   7.732   6.777  0.6287  0.2286  0.0070
14763SOL    HW145390   3.381   7.793   6.709  0.4737  0.7033  0.3707
14763SOL    HW245391   3.340   7.786   6.854 -2.1149  0.1577 -0.3296
14764SOL     OW45392   2.582   9.084   2.221  0.3409  0.1100  0.1846
14764SOL    HW145393   2.672   9.050   2.216 -0.4414 -1.9067 -1.7493
14764SOL    HW245394   2.588   9.172   2.184  1.4245 -0.2537 -0.5621
14765SOL     OW45395   1.602   6.478   0.805  0.2204 -0.1904 -0.4253
14765SOL    HW145396   1.618   6.547   0.741  0.6586  1.0503  0.9674
14765SOL    HW245397   1.592   6.524   0.888  2.4989 -1.8722  0.9054
14766SOL     OW45398   5.355   7.036   6.836  0.1684  0.0121  0.0435
14766SOL    HW145399   5.413   7.090   6.888  0.6576 -0.5891  0.1365
14766SOL    HW245400   5.339   7.087   6.757 -0.2126  0.7320  0.5734
14767SOL     OW45401   0.067   8.932   4.462 -0.6818 -0.4086  0.0164
14767SOL    HW145402   0.121   8.924   4.384  0.7415 -0.0479  0.9354
14767SOL    HW245403  -0.003   8.868   4.450  1.1149 -2.4172 -0.2643
14768SOL     OW45404   2.993   4.313   2.995 -0.6492  0.1425 -0.1015
14768SOL    HW145405   3.087   4.332   2.996 -0.8025  1.0245 -0.8922
14768SOL    HW245406   2.980   4.255   3.070  0.2893  1.1345  0.8868
14769SOL     OW45407   2.317   6.197   5.528  0.3075  0.3638  0.1670
14769SOL    HW145408   2.338   6.289   5.518  0.5681  0.2368 -0.4733
14769SOL    HW245409   2.394   6.159   5.572  0.5631  0.2958 -0.3275
14770SOL     OW45410   7.488   7.027   2.615 -0.4241 -0.4361  0.3975
14770SOL    HW145411   7.561   6.997   2.562 -1.9716 -0.4301 -1.8925
14770SOL    HW245412   7.490   6.971   2.692  1.1235 -1.3985 -0.2881
14771SOL     OW45413   8.363   7.299   6.916  1.0362  0.1148 -0.0651
14771SOL    HW145414   8.336   7.212   6.885  1.9845 -0.1235 -0.2427
14771SOL    HW245415   8.433   7.325   6.856  0.4445  1.2196 -0.3031
14772SOL     OW45416   8.245   0.135   5.162  0.1741 -0.3445  0.0838
14772SOL    HW145417   8.191   0.058   5.175 -1.1258  0.6033  0.5153
14772SOL    HW245418   8.313   0.129   5.229 -0.9667 -0.2354  1.2896
14773SOL     OW45419   1.107   7.515   5.766 -0.1710 -0.3993 -0.2557
14773SOL    HW145420   1.118   7.572   5.842 -0.9716  0.3664 -0.6939
14773SOL    HW245421   1.143   7.566   5.693 -0.3196 -0.7153 -0.5531
14774SOL     OW45422   3.736   8.927   2.051 -0.5989 -0.4086  0.3924
14774SOL    HW145423   3.774   8.905   1.966 -2.2611 -1.3690 -0.1544
14774SOL    HW245424   3.723   9.022   2.048 -0.1956 -0.3692 -0.2303
14775SOL     OW45425   4.929   4.849   4.931  0.2280  0.1349 -0.0739
14775SOL    HW145426   4.998   4.899   4.887 -0.4418  1.4947  0.3700
14775SOL    HW245427   4.848   4.893   4.905 -0.2788  0.1036  1.3881
14776SOL     OW45428   5.067   4.702   3.277 -0.0027  0.5137 -0.4188
14776SOL    HW145429   5.038   4.780   3.324  1.1774  1.3454 -1.0199
14776SOL    HW245430   5.076   4.635   3.345  0.0737  1.2233  0.2806
14777SOL     OW45431   5.085   7.705   2.107 -0.1466 -0.0228 -0.0999
14777SOL    HW145432   5.029   7.660   2.045 -1.1386 -0.7687  1.2982
14777SOL    HW245433   5.128   7.773   2.055 -1.4858 -0.1547 -1.4419
14778SOL     OW45434   7.887   6.501   8.027  0.4988 -0.7792 -0.9451
14778SOL    HW145435   7.812   6.534   7.978  0.2611 -0.3861 -0.3188
14778SOL    HW245436   7.925   6.578   8.068 -1.1028 -1.4068  1.9976
14779SOL     OW45437   7.587   6.721   1.619 -0.1862 -0.3954  0.1351
14779SOL    HW145438   7.615   6.638   1.657 -0.4347 -0.2397  0.6617
14779SOL    HW245439   7.554   6.698   1.532 -0.1445 -0.8270  0.2341
14780SOL     OW45440   8.825   0.137   8.366  0.0102 -0.8066  0.0765
14780SOL    HW145441   8.845   0.221   8.409  0.0067 -0.6940 -0.1389
14780SOL    HW245442   8.867   0.145   8.280 -0.9699 -0.5622 -0.3862
14781SOL     OW45443   0.085   5.483   5.788 -0.8591 -0.6461  0.4485
14781SOL    HW145444   0.087   5.568   5.744  0.4757 -1.1671 -0.5785
14781SOL    HW245445   0.033   5.428   5.730  1.3073 -1.4674 -0.8546
14782SOL     OW45446   8.034   5.624   4.561 -0.3567  0.9579 -0.5607
14782SOL    HW145447   8.026   5.570   4.640 -0.1373  0.5394 -0.8225
14782SOL    HW245448   8.123   5.609   4.530 -0.5015  0.9615 -0.9964
14783SOL     OW45449   5.294   4.656   0.402  0.3108  0.5605 -0.1873
14783SOL    HW145450   5.303   4.580   0.460 -1.5870  0.8359  0.5360
14783SOL    HW245451   5.217   4.636   0.349 -0.7873  2.3620  0.6485
14784SOL     OW45452   8.567   1.334   6.318 -0.4904  0.3952  0.0202
14784SOL    HW145453   8.495   1.290   6.364 -0.8101 -1.1482 -1.7981
14784SOL    HW245454   8.604   1.266   6.262 -0.3515  2.1841 -2.2030
14785SOL     OW45455   0.656   2.713   1.155 -0.2018  0.0824  0.1906
14785SOL    HW145456   0.659   2.621   1.180 -1.5821 -0.7101 -2.1925
14785SOL    HW245457   0.742   2.747   1.176  0.9116 -2.2088 -0.3406
14786SOL     OW45458   4.020   4.947   2.145  0.0958  0.4700  0.0014
14786SOL    HW145459   4.072   5.010   2.095  0.6162  1.2858  1.4862
14786SOL    HW245460   4.041   4.862   2.106  1.2072  0.9738 -0.5532
14787SOL     OW45461   2.164   6.650   2.313  0.0115 -0.7062 -0.3697
14787SOL    HW145462   2.198   6.569   2.352 -0.9247 -0.7671  0.3550
14787SOL    HW245463   2.139   6.704   2.388 -0.9837 -0.4530 -0.8795
14788SOL     OW45464   1.368   0.917   8.481 -0.5836  0.0029  0.0249
14788SOL    HW145465   1.358   0.893   8.389 -3.0192  0.9311 -0.0067
14788SOL    HW245466   1.280   0.940   8.510  0.4109  1.5079  2.0942
14789SOL     OW45467   6.017   2.132   7.012  0.6944 -0.4438  0.7662
14789SOL    HW145468   6.002   2.038   7.021 -2.3764  0.0444  1.9737
14789SOL    HW245469   5.999   2.168   7.099  0.4780  1.3868  0.0175
14790SOL     OW45470   2.347   2.389   6.633  0.5517  0.2103 -0.3998
14790SOL    HW145471   2.286   2.444   6.582  0.3441  0.4011  0.0540
14790SOL    HW245472   2.307   2.302   6.631  1.5024 -0.2370 -2.1789
14791SOL     OW45473   2.656   6.051   7.618 -0.2867 -0.0471  0.0830
14791SOL    HW145474   2.690   5.969   7.655  1.1484  1.0217  1.2883
14791SOL    HW245475   2.603   6.089   7.689  0.7820  1.0316  0.3502
14792SOL     OW45476   0.101   3.102   3.315  0.6785 -0.2578 -0.1601
14792SOL    HW145477   0.138   3.189   3.328 -0.3984  0.3484 -0.9945
14792SOL    HW245478   0.072   3.101   3.224  1.2053 -1.7073 -0.3463
14793SOL     OW45479   8.836   5.230   1.701 -0.6260  0.5830  0.4806
14793SOL    HW145480   8.744   5.210   1.682 -0.3185 -0.2149 -0.2216
14793SOL    HW245481   8.851   5.315   1.659 -0.1672 -0.7889 -2.4330
14794SOL     OW45482   6.231   5.123   8.479  0.0971  0.3480 -0.0703
14794SOL    HW145483   6.220   5.164   8.565 -0.5483  0.5690 -0.2486
14794SOL    HW245484   6.305   5.169   8.440 -0.4554  1.1968 -0.1672
14795SOL     OW45485   5.349   6.270   5.880  0.0840 -0.1009  0.0351
14795SOL    HW145486   5.432   6.224   5.883  0.4082  0.1824 -2.4909
14795SOL    HW245487   5.353   6.333   5.952  2.0691 -0.0702 -0.0670
14796SOL     OW45488   3.287   1.295   1.795  0.6465  0.5791  0.1906
14796SOL    HW145489   3.315   1.304   1.704  0.7055 -1.2387 -0.0119
14796SOL    HW245490   3.191   1.295   1.791  0.6288 -1.1201 -0.1088
14797SOL     OW45491   6.941   1.730   5.930 -0.5939  0.4322  0.2432
14797SOL    HW145492   6.976   1.645   5.903  0.0844  1.4205 -2.2450
14797SOL    HW245493   6.847   1.723   5.914 -0.6950 -0.1502  1.0128
14798SOL     OW45494   8.810   1.858   8.629 -0.2342  0.3248 -0.3325
14798SOL    HW145495   8.766   1.885   8.548 -0.1841 -0.2504 -0.5594
14798SOL    HW245496   8.863   1.783   8.603  1.4427  1.4202 -0.2209
14799SOL     OW45497   7.624   2.170   0.422 -0.2380  0.9091  0.4320
14799SOL    HW145498   7.645   2.080   0.446 -0.5340  0.3410 -1.2794
14799SOL    HW245499   7.635   2.220   0.503 -1.7180 -0.9161  1.8344
14800SOL     OW45500   7.861   6.821   7.518  0.3179  0.1485 -0.3073
14800SOL    HW145501   7.794   6.801   7.583  1.0393  0.7736  0.6687
14800SOL    HW245502   7.826   6.896   7.470 -0.3717 -0.5337 -0.8980
14801SOL     OW45503   1.344   7.623   5.168  0.3403  0.2105  0.1975
14801SOL    HW145504   1.436   7.598   5.164  0.0361 -1.3096  1.6520
14801SOL    HW245505   1.298   7.554   5.119 -0.1618  0.0429  0.8854
14802SOL     OW45506   8.972   0.197   1.147 -0.2114 -0.7499  0.3978
14802SOL    HW145507   9.044   0.145   1.183 -0.4105 -1.0714  0.3343
14802SOL    HW245508   9.014   0.278   1.117  0.2030 -1.1299 -0.0702
14803SOL     OW45509   1.790   2.951   6.370  0.1615 -0.0362  0.0310
14803SOL    HW145510   1.767   2.897   6.445  0.0148  0.5602  0.4218
14803SOL    HW245511   1.824   2.889   6.305  1.0908 -0.4604  0.8999
14804SOL     OW45512   5.946   6.067   6.386  0.6742  0.2923  0.0205
14804SOL    HW145513   5.936   6.159   6.363  0.8496  0.2324 -0.2898
14804SOL    HW245514   5.857   6.031   6.383  0.3955  0.7644  1.4948
14805SOL     OW45515   0.755   5.784   9.050 -0.0620  0.2916 -0.3547
14805SOL    HW145516   0.768   5.724   8.977  0.2177 -0.2126  0.0975
14805SOL    HW245517   0.731   5.867   9.010 -3.8148 -0.8744 -0.9371
14806SOL     OW45518   8.605   8.841   6.299  0.5384 -0.0921  0.0772
14806SOL    HW145519   8.664   8.912   6.322 -1.3695  1.8856 -0.7992
14806SOL    HW245520   8.566   8.815   6.383  0.8645  0.2525  0.3394
14807SOL     OW45521   7.850   8.360   2.652 -0.3573 -0.0872  0.2837
14807SOL    HW145522   7.856   8.370   2.747 -1.9078 -2.4593  0.7189
14807SOL    HW245523   7.940   8.363   2.621  0.4506 -2.1993  2.2191
14808SOL     OW45524   8.766   4.233   7.426  0.0503 -0.4391  0.2098
14808SOL    HW145525   8.762   4.194   7.338 -0.1988 -0.0786  0.0558
14808SOL    HW245526   8.706   4.308   7.421 -2.4305 -2.1973  1.6114
14809SOL     OW45527   1.560   4.720   7.209 -0.4567 -0.1422 -1.0548
14809SOL    HW145528   1.536   4.697   7.119 -0.6502 -0.8086 -0.8378
14809SOL    HW245529   1.588   4.638   7.248  0.3520  0.2838 -0.7228
14810SOL     OW45530   8.739   0.544   3.735 -0.1856 -0.4871  0.1964
14810SOL    HW145531   8.664   0.533   3.677  0.4511 -1.2123 -0.5143
14810SOL    HW245532   8.702   0.579   3.815 -1.4854 -2.0900  0.3501
14811SOL     OW45533   3.205   2.370   1.131 -0.3400 -0.4130  0.1828
14811SOL    HW145534   3.221   2.372   1.037  0.0876 -0.7128  0.2473
14811SOL    HW245535   3.133   2.432   1.144  1.4069  1.7436  0.0188
14812SOL     OW45536   6.408   3.263   7.857  0.1709 -0.2997  0.5627
14812SOL    HW145537   6.412   3.184   7.804 -0.9388  0.0629 -0.0881
14812SOL    HW245538   6.381   3.331   7.797 -2.4507 -0.1293  1.7918
14813SOL     OW45539   3.248   2.117   2.697  0.1427 -0.8298 -0.0731
14813SOL    HW145540   3.184   2.184   2.725  0.4408 -0.5135 -0.1389
14813SOL    HW245541   3.250   2.124   2.602  1.6332  0.4553  0.0133
14814SOL     OW45542   8.480   0.481   6.846  0.0214 -0.0194 -0.3921
14814SOL    HW145543   8.515   0.392   6.847 -0.4997 -0.2286  0.0657
14814SOL    HW245544   8.554   0.536   6.821  1.1520 -0.2553  2.1694
14815SOL     OW45545   6.464   2.134   1.269  0.0384  0.2734  0.0841
14815SOL    HW145546   6.424   2.143   1.183  2.2862 -0.0481 -1.0673
14815SOL    HW245547   6.429   2.052   1.303 -1.2324  0.6372 -0.2965
14816SOL     OW45548   2.807   0.455   1.324 -0.0554 -0.8988  0.5681
14816SOL    HW145549   2.786   0.455   1.231 -1.1333  0.9047  0.7523
14816SOL    HW245550   2.842   0.542   1.341  0.2249 -1.2337  1.8302
14817SOL     OW45551   7.406   8.541   6.964  0.2573  0.4562 -0.6390
14817SOL    HW145552   7.499   8.542   6.944  0.0116  1.0002 -1.9043
14817SOL    HW245553   7.378   8.452   6.946  0.6452  0.1099  0.4013
14818SOL     OW45554   1.520   4.176   5.304 -0.5895 -0.0563 -0.0075
14818SOL    HW145555   1.568   4.196   5.385 -0.4176 -2.7485  0.6516
14818SOL    HW245556   1.471   4.097   5.325  0.4146 -1.5573 -2.8948
14819SOL     OW45557   9.106   0.134   8.527 -0.2952 -0.1233 -0.2580
14819SOL    HW145558   9.135   0.084   8.451  0.8585 -0.1330  0.1718
14819SOL    HW245559   9.035   0.082   8.564  0.6543 -1.2967 -0.0206
14820SOL     OW45560   8.627   1.986   8.108 -0.3702 -0.3200  0.2175
14820SOL    HW145561   8.567   1.912   8.116 -0.4852 -0.2118  0.3541
14820SOL    HW245562   8.581   2.059   8.149 -0.5031 -0.0314 -0.4221
14821SOL     OW45563   1.610   1.922   6.567  0.1296 -0.3557  0.1553
14821SOL    HW145564   1.572   1.987   6.508  1.8366  0.8356  0.2854
14821SOL    HW245565   1.703   1.943   6.569  0.4180 -1.5710  1.7822
14822SOL     OW45566   1.057   7.039   3.948  0.3820  0.1914 -0.1023
14822SOL    HW145567   0.965   7.034   3.922 -0.5207  1.7642  2.3902
14822SOL    HW245568   1.104   7.056   3.867 -1.3293 -1.9761 -1.6439
14823SOL     OW45569   4.399   7.909   1.129 -0.4716  0.6402 -0.5866
14823SOL    HW145570   4.468   7.961   1.087  0.2488  0.2029  0.0356
14823SOL    HW245571   4.364   7.966   1.197  0.7611  0.1106  0.5284
14824SOL     OW45572   6.432   3.157   8.380 -0.6043 -0.5630 -0.2166
14824SOL    HW145573   6.406   3.180   8.291  0.0676 -0.5092 -0.4079
14824SOL    HW245574   6.357   3.182   8.434 -1.4775 -1.6388 -0.8887
14825SOL     OW45575   0.139   5.280   7.498 -0.0923  0.0764  0.2374
14825SOL    HW145576   0.163   5.224   7.571  0.9524  0.6233  0.3301
14825SOL    HW245577   0.179   5.238   7.421  1.5601  1.1692  0.4393
14826SOL     OW45578   3.059   7.724   7.311  0.0584 -0.1829 -0.0956
14826SOL    HW145579   3.053   7.630   7.296 -2.2927 -0.1614  0.3429
14826SOL    HW245580   3.046   7.763   7.224 -2.6044 -0.2549  0.1999
14827SOL     OW45581   7.788   0.674   8.445  0.0660 -0.0345  0.5225
14827SOL    HW145582   7.796   0.767   8.466  0.2225 -0.0134  0.3702
14827SOL    HW245583   7.823   0.629   8.522  1.4458  0.0518 -0.0154
14828SOL     OW45584   8.116   7.794   6.629  0.4780 -0.1986  0.3730
14828SOL    HW145585   8.208   7.811   6.610  0.6366  1.0267  2.0029
14828SOL    HW245586   8.069   7.859   6.577  0.6940  0.5938  1.1214
14829SOL     OW45587   1.230   9.008   8.982 -0.0187 -0.4842 -0.4176
14829SOL    HW145588   1.314   9.046   8.957 -1.2156  1.3319 -1.9569
14829SOL    HW245589   1.172   9.083   8.993 -1.8602 -1.7469 -0.9980
14830SOL     OW45590   1.078   9.131   0.245  0.7501  0.0497  0.4266
14830SOL    HW145591   1.108   9.167   0.161 -1.4357  0.8009 -0.0967
14830SOL    HW245592   1.058   9.208   0.298 -2.8676 -0.2238 -0.2978
14831SOL     OW45593   3.335   5.751   2.875 -0.2219 -0.0944  0.2567
14831SOL    HW145594   3.430   5.761   2.861 -0.3452 -0.3194 -0.8025
14831SOL    HW245595   3.328   5.675   2.933  0.1956 -1.0290 -0.8721
14832SOL     OW45596   7.715   7.579   8.091 -0.2908  0.2872  0.4596
14832SOL    HW145597   7.786   7.642   8.106  0.8987 -1.1847  1.3052
14832SOL    HW245598   7.685   7.598   8.002  2.2077  0.0235 -0.5492
14833SOL     OW45599   3.432   8.455   7.076 -0.1765  0.1196 -0.4547
14833SOL    HW145600   3.413   8.485   6.987  0.4111 -0.8814 -0.9325
14833SOL    HW245601   3.527   8.466   7.085  0.0549 -1.5701 -0.6484
14834SOL     OW45602   8.341   4.520   2.385 -0.3089  0.3653  0.0022
14834SOL    HW145603   8.306   4.470   2.311  0.6393 -0.8320  0.3279
14834SOL    HW245604   8.268   4.528   2.446 -0.5092 -0.5467 -0.1046
14835SOL     OW45605   0.430   6.869   0.242 -0.2573  0.3402 -0.0282
14835SOL    HW145606   0.428   6.930   0.168 -1.8570  0.8238  0.3725
14835SOL    HW245607   0.371   6.798   0.217  1.2191 -0.8701 -0.2871
14836SOL     OW45608   1.740   1.576   4.988 -0.5480  0.1575 -0.6084
14836SOL    HW145609   1.747   1.666   5.018  0.8050 -0.1291  0.0247
14836SOL    HW245610   1.719   1.583   4.894 -0.7012  1.1174 -0.5088
14837SOL     OW45611   4.868   7.459   1.054  0.6422  0.5071  0.1426
14837SOL    HW145612   4.841   7.502   0.972 -0.2848 -0.3785 -0.0384
14837SOL    HW245613   4.798   7.479   1.116  0.8367  0.3280  0.4248
14838SOL     OW45614   4.372   6.466   6.644 -0.1725 -0.4948 -0.1726
14838SOL    HW145615   4.387   6.422   6.560  2.6025  1.5686 -0.9078
14838SOL    HW245616   4.394   6.557   6.627 -2.0224  0.5095  2.2346
14839SOL     OW45617   2.530   1.050   4.166  0.7001  0.1066  0.0152
14839SOL    HW145618   2.522   1.145   4.169 -0.3482  0.0500 -0.3166
14839SOL    HW245619   2.603   1.029   4.224  1.1478  1.1340 -0.1656
14840SOL     OW45620   0.481   8.044   6.418  0.1387  0.1685 -0.3436
14840SOL    HW145621   0.539   7.973   6.446 -0.2821  0.1599  0.5481
14840SOL    HW245622   0.421   8.002   6.356  0.5269 -0.0172 -0.5986
14841SOL     OW45623   4.707   8.047   5.419 -0.2889 -0.3032 -0.1371
14841SOL    HW145624   4.636   8.036   5.355 -1.7642  1.0892  1.2014
14841SOL    HW245625   4.781   8.080   5.367 -1.1538 -0.0897 -1.2751
14842SOL     OW45626   6.688   8.078   2.495  0.4204  0.2829  0.0686
14842SOL    HW145627   6.772   8.042   2.469  0.2757 -0.2839  0.3618
14842SOL    HW245628   6.708   8.138   2.566  0.4097 -1.2348  1.4093
14843SOL     OW45629   4.433   3.387   6.087 -0.2312 -0.3871 -0.5820
14843SOL    HW145630   4.409   3.364   6.177  0.7571  1.5543  0.2244
14843SOL    HW245631   4.524   3.360   6.079 -0.3634 -0.7059 -1.0849
14844SOL     OW45632   7.145   4.673   1.303 -0.0065 -0.4512  0.3348
14844SOL    HW145633   7.120   4.718   1.222  0.0388  0.1693  0.6595
14844SOL    HW245634   7.062   4.661   1.350  0.0365 -0.3013  0.4501
14845SOL     OW45635   8.629   3.341   1.599  0.2515  0.1226  0.6528
14845SOL    HW145636   8.583   3.357   1.681 -1.5522 -2.3972  0.2706
14845SOL    HW245637   8.564   3.361   1.531  1.6161  1.8794 -0.1991
14846SOL     OW45638   1.288   1.960   0.500  0.8528  0.3248 -0.5741
14846SOL    HW145639   1.360   1.942   0.560  0.1291  0.9330  0.5222
14846SOL    HW245640   1.281   2.056   0.498  0.6822  0.3022 -1.4078
14847SOL     OW45641   1.889   9.117   1.566 -0.2202  0.0189  0.0788
14847SOL    HW145642   1.842   9.074   1.495  0.3442 -3.0219  1.4170
14847SOL    HW245643   1.820   9.146   1.626 -0.5772  0.3833 -0.4939
14848SOL     OW45644   0.237   2.561   0.024  0.3152  0.3787  0.1048
14848SOL    HW145645   0.148   2.548   0.056  0.4662  0.0029  0.3730
14848SOL    HW245646   0.264   2.646   0.060 -0.1201  0.7490 -0.4098
14849SOL     OW45647   7.751   1.165   6.526  0.7027  0.0945 -0.3282
14849SOL    HW145648   7.708   1.250   6.533 -0.7225 -0.6688  0.4704
14849SOL    HW245649   7.807   1.161   6.604 -1.1472 -0.7011  1.0388
14850SOL     OW45650   6.029   8.373   1.564  0.6169  0.2952  0.0088
14850SOL    HW145651   6.091   8.319   1.516  0.7966  0.0148  0.5519
14850SOL    HW245652   6.084   8.427   1.622  0.3733  0.2445  0.2888
14851SOL     OW45653   0.654   1.511   9.062  0.5594 -0.2446 -0.1757
14851SOL    HW145654   0.613   1.442   9.009  1.3191 -0.1890 -0.8629
14851SOL    HW245655   0.716   1.552   9.002 -0.4774  1.6166 -0.0420
14852SOL     OW45656   5.152   3.883   2.781  0.0409  0.5237 -0.3595
14852SOL    HW145657   5.143   3.829   2.859  0.2578 -0.2618 -0.8585
14852SOL    HW245658   5.117   3.828   2.710 -1.0187  1.5726 -0.6873
14853SOL     OW45659   5.735   1.084   0.915  0.2837  0.8212 -0.2099
14853SOL    HW145660   5.794   1.104   0.988  1.1210  2.6966 -1.3323
14853SOL    HW245661   5.718   1.169   0.875  0.7292 -0.2742 -2.8826
14854SOL     OW45662   3.217   3.021   2.354  0.2045 -0.1076  0.3502
14854SOL    HW145663   3.225   3.054   2.265 -0.5378  0.3797  0.4633
14854SOL    HW245664   3.239   3.095   2.410  0.1009 -0.2475  0.5806
14855SOL     OW45665   9.121   2.016   2.339 -0.4415 -0.3598 -0.4822
14855SOL    HW145666   9.148   2.108   2.342  0.3390 -0.5233 -1.6897
14855SOL    HW245667   9.192   1.972   2.293 -1.5415 -1.2914 -1.3404
14856SOL     OW45668   5.768   1.871   3.581  0.1736  0.1267 -0.3775
14856SOL    HW145669   5.742   1.849   3.491 -0.8737 -0.7771  0.1321
14856SOL    HW245670   5.732   1.958   3.595  2.8252  1.5890 -1.7942
14857SOL     OW45671   6.295   6.032   7.522 -0.1633 -0.0788  0.1299
14857SOL    HW145672   6.360   6.075   7.578 -1.0510  0.1237  1.0319
14857SOL    HW245673   6.266   6.101   7.462  0.8674 -0.3241 -0.6969
14858SOL     OW45674   5.171   5.975   8.925  0.3091  0.5038  0.1036
14858SOL    HW145675   5.170   6.005   9.016  2.8787 -0.1679  0.4527
14858SOL    HW245676   5.241   6.026   8.884  0.7891 -0.8460 -0.8307
14859SOL     OW45677   3.715   1.101   3.085  0.2783  0.1258  0.5322
14859SOL    HW145678   3.697   1.184   3.130  1.3210  0.5139  0.2758
14859SOL    HW245679   3.668   1.035   3.135  1.1621  0.5763  2.0307
14860SOL     OW45680   7.371   2.760   7.475  0.8772  0.3921 -0.1255
14860SOL    HW145681   7.354   2.772   7.382  0.0391  0.5177  0.0391
14860SOL    HW245682   7.381   2.849   7.509 -2.2401  0.6050  0.5164
14861SOL     OW45683   4.582   2.082   7.622  0.1790  0.6083 -1.0885
14861SOL    HW145684   4.676   2.094   7.638  0.1598 -0.0079 -0.4348
14861SOL    HW245685   4.579   2.030   7.542  0.5663 -2.1908  0.5454
14862SOL     OW45686   1.018   1.989   5.692 -0.3836  0.4499  0.8863
14862SOL    HW145687   0.969   1.951   5.619 -1.4267  1.0963  1.2335
14862SOL    HW245688   1.037   1.914   5.749 -1.0699  0.2073  0.8024
14863SOL     OW45689   0.701   2.397   0.572 -0.1421  0.5507  0.0410
14863SOL    HW145690   0.633   2.430   0.514 -1.0376 -0.8259  0.2672
14863SOL    HW245691   0.676   2.428   0.659 -0.0587  0.6775  0.0205
14864SOL     OW45692   0.423   7.823   7.388  0.3653 -0.5073  0.0710
14864SOL    HW145693   0.332   7.813   7.416 -0.5066 -0.0741 -2.3783
14864SOL    HW245694   0.455   7.899   7.438 -0.6735 -0.5388  0.8092
14865SOL     OW45695   1.619   5.118   1.283  0.0117  0.6649 -0.4236
14865SOL    HW145696   1.679   5.140   1.211 -0.7233  1.4327 -0.8192
14865SOL    HW245697   1.670   5.136   1.362  1.8785 -2.9145 -0.6032
14866SOL     OW45698   7.292   2.030   3.947  0.1034  0.0117  0.2585
14866SOL    HW145699   7.243   1.981   4.013 -0.6689 -0.0315 -0.3311
14866SOL    HW245700   7.364   1.971   3.923 -1.7171 -1.6042 -1.6110
14867SOL     OW45701   6.340   4.456   7.217 -0.1609  0.1752 -0.1903
14867SOL    HW145702   6.319   4.454   7.124  0.8704  1.4174 -0.4806
14867SOL    HW245703   6.362   4.548   7.235 -0.8552  0.0612  1.3986
14868SOL     OW45704   6.529   8.515   6.297  1.0086  0.3088  0.3400
14868SOL    HW145705   6.456   8.559   6.341  0.8049  0.8578 -0.5110
14868SOL    HW245706   6.526   8.425   6.329 -0.3744  0.1892 -0.0561
14869SOL     OW45707   2.586   1.639   8.214  0.4351 -0.3902  0.3979
14869SOL    HW145708   2.562   1.548   8.227  1.0643 -0.9699 -1.9637
14869SOL    HW245709   2.681   1.641   8.226  0.3286  0.1230  1.2032
14870SOL     OW45710   6.934   1.686   4.259  0.8757  0.3913  0.0875
14870SOL    HW145711   6.881   1.622   4.211  0.6954  1.2945 -0.9561
14870SOL    HW245712   6.978   1.634   4.327 -0.8929 -0.4749  0.6299
14871SOL     OW45713   7.420   0.696   8.481 -0.8579  0.0747  0.2129
14871SOL    HW145714   7.379   0.614   8.510  1.3223 -0.7488  1.1376
14871SOL    HW245715   7.513   0.676   8.474 -0.1215  2.6898  1.2695
14872SOL     OW45716   3.125   2.393   5.581 -0.2584  0.4085 -0.1040
14872SOL    HW145717   3.181   2.400   5.658  0.6848 -0.5377 -0.6883
14872SOL    HW245718   3.160   2.457   5.519 -1.2269  1.4189  0.3391
14873SOL     OW45719   6.145   6.539   6.492 -0.3714  0.6263 -0.0111
14873SOL    HW145720   6.154   6.444   6.496  2.1802  0.7826 -0.4597
14873SOL    HW245721   6.147   6.560   6.399  2.1533  1.2755  0.1275
14874SOL     OW45722   7.071   1.918   3.776 -0.0658 -0.9690 -0.1958
14874SOL    HW145723   7.090   1.881   3.862  1.9668 -0.4091 -0.3630
14874SOL    HW245724   7.112   1.858   3.714  0.4310 -0.1871 -0.6419
14875SOL     OW45725   5.495   5.638   3.259 -0.3940 -0.2351  0.3745
14875SOL    HW145726   5.544   5.695   3.319  0.4615 -0.5414 -0.0137
14875SOL    HW245727   5.490   5.554   3.304 -0.4773 -0.2303  0.3735
14876SOL     OW45728   4.725   2.962   8.212  0.7668 -0.4798 -0.0948
14876SOL    HW145729   4.802   2.909   8.231  2.0044  1.4894  0.7848
14876SOL    HW245730   4.737   2.993   8.123  1.1437  0.0076  0.1182
14877SOL     OW45731   0.928   2.365   2.630 -0.2579 -0.2711  0.3539
14877SOL    HW145732   0.892   2.430   2.570  1.5153  0.7933  0.3881
14877SOL    HW245733   0.953   2.292   2.573  1.4592  0.7511 -0.2843
14878SOL     OW45734   4.189   7.991   3.393  0.6734 -0.5306  0.4820
14878SOL    HW145735   4.136   8.062   3.355 -0.5917 -0.5015  2.1864
14878SOL    HW245736   4.279   8.014   3.371  0.1117  0.1368 -1.3499
14879SOL     OW45737   2.577   6.103   1.652  0.0244 -0.4358  0.7799
14879SOL    HW145738   2.672   6.108   1.645  0.2798 -0.6890  3.0950
14879SOL    HW245739   2.561   6.018   1.694 -1.3835 -1.1719 -1.0905
14880SOL     OW45740   1.702   8.657   9.099  0.1221 -0.2583 -0.0528
14880SOL    HW145741   1.743   8.743   9.111 -1.6574  0.5815  0.3683
14880SOL    HW245742   1.680   8.630   9.188 -1.5576  0.0300 -0.3478
14881SOL     OW45743   6.870   4.461   2.960  0.0240 -0.1108 -0.2430
14881SOL    HW145744   6.903   4.439   2.872  0.8653  0.2203 -0.0144
14881SOL    HW245745   6.776   4.442   2.955  0.0656 -0.1287 -1.2073
14882SOL     OW45746   3.547   4.477   4.164  0.2554  0.7640  0.0011
14882SOL    HW145747   3.549   4.525   4.081 -2.2131 -0.8593 -1.1441
14882SOL    HW245748   3.585   4.391   4.143 -0.7360  0.2074  0.3988
14883SOL     OW45749   3.960   0.970   3.149  0.3375  0.0565 -0.0547
14883SOL    HW145750   3.963   0.986   3.243  0.0346 -0.4683  0.0530
14883SOL    HW245751   3.893   1.029   3.116 -1.7010 -1.7893  0.5308
14884SOL     OW45752   4.511   3.963   1.994  0.5974 -0.4227  0.3039
14884SOL    HW145753   4.562   3.959   2.074  0.4918 -0.5253  0.3664
14884SOL    HW245754   4.420   3.972   2.024  0.6254  0.3650  0.1937
14885SOL     OW45755   2.916   0.439   8.010 -0.3327 -0.4845  0.0771
14885SOL    HW145756   2.839   0.450   7.953 -0.4090 -0.2315  0.2266
14885SOL    HW245757   2.966   0.519   7.997 -1.0537  0.2171  1.4262
14886SOL     OW45758   8.135   4.881   0.563 -0.2937  0.2685 -0.5334
14886SOL    HW145759   8.114   4.825   0.638 -2.3781  0.8890 -0.5883
14886SOL    HW245760   8.221   4.850   0.533  0.4712 -0.2030  1.8900
14887SOL     OW45761   8.652   0.671   3.200 -0.2286  0.0655 -0.4226
14887SOL    HW145762   8.738   0.660   3.160 -0.1560 -0.0597 -0.2355
14887SOL    HW245763   8.670   0.714   3.284 -0.3791  0.3344 -0.5293
14888SOL     OW45764   3.648   8.407   4.977 -0.1017  0.2378 -0.4162
14888SOL    HW145765   3.694   8.460   4.911 -1.7669  1.3706 -0.7414
14888SOL    HW245766   3.636   8.466   5.051  1.3789 -0.9043  0.7947
14889SOL     OW45767   6.055   5.493   8.701  0.2103  0.1774  0.0492
14889SOL    HW145768   6.061   5.584   8.730 -0.0135  0.3183 -0.3429
14889SOL    HW245769   6.037   5.499   8.607  1.5537 -0.2868 -0.2512
14890SOL     OW45770   0.957   4.449   4.353 -0.0779 -1.0046 -0.7000
14890SOL    HW145771   0.873   4.496   4.351  0.7433  0.5256 -0.8092
14890SOL    HW245772   0.939   4.370   4.403 -1.3724 -0.2425  0.0975
14891SOL     OW45773   8.464   7.791   3.805 -0.1738  0.6068  0.3743
14891SOL    HW145774   8.370   7.798   3.788  0.0699  0.2788 -1.2488
14891SOL    HW245775   8.500   7.874   3.772  0.2775  0.0918 -0.4661
14892SOL     OW45776   7.109   3.004   8.732 -0.4703  0.3802 -0.2037
14892SOL    HW145777   7.132   2.915   8.704  1.2376  1.4411 -2.4491
14892SOL    HW245778   7.046   2.991   8.803  1.3344 -2.6499  1.0417
14893SOL     OW45779   7.020   5.982   6.913  0.1289  0.3339 -1.0129
14893SOL    HW145780   6.944   6.038   6.898  1.4395  2.0422 -1.6203
14893SOL    HW245781   7.094   6.033   6.882  1.5241 -1.3749 -0.6736
14894SOL     OW45782   9.085   4.270   4.691  0.1725 -0.4480  0.7717
14894SOL    HW145783   9.153   4.337   4.700  1.7489 -2.0811  1.4383
14894SOL    HW245784   9.038   4.273   4.774 -2.3187  2.3597 -0.5298
14895SOL     OW45785   4.337   5.023   6.186  0.1336  0.4926 -0.0556
14895SOL    HW145786   4.282   5.018   6.264  2.3212  0.5126  1.6088
14895SOL    HW245787   4.365   5.114   6.182 -1.0491  0.8322 -1.7538
14896SOL     OW45788   0.943   7.719   7.113 -0.2399  0.0743 -0.1078
14896SOL    HW145789   1.003   7.749   7.182  0.8225 -0.3296 -0.8352
14896SOL    HW245790   0.970   7.629   7.096 -0.5921  0.1275 -0.9539
14897SOL     OW45791   0.929   5.496   4.181 -0.1933  0.0100  0.2634
14897SOL    HW145792   1.007   5.450   4.211 -0.3268  0.7473  1.8374
14897SOL    HW245793   0.958   5.545   4.104  0.5762 -0.6768  0.1053
14898SOL     OW45794   1.782   1.838   5.221  0.1092 -0.3973 -0.2921
14898SOL    HW145795   1.705   1.784   5.238  0.0577 -0.6202 -1.1907
14898SOL    HW245796   1.771   1.914   5.277 -0.7237 -0.4710 -0.3497
14899SOL     OW45797   3.929   7.400   1.445 -0.2490  0.0735  0.5079
14899SOL    HW145798   3.937   7.458   1.369  0.8777 -1.5313 -0.6625
14899SOL    HW245799   3.839   7.412   1.475 -0.3519  1.6372 -0.3328
14900SOL     OW45800   5.995   8.845   5.071 -0.1202  0.0742 -0.1253
14900SOL    HW145801   6.061   8.861   5.139  0.1013  3.7714 -0.9772
14900SOL    HW245802   6.030   8.773   5.020  2.9614  1.3559 -0.0545
14901SOL     OW45803   8.816   7.816   7.469 -0.4109 -0.3173  0.0159
14901SOL    HW145804   8.753   7.876   7.509  1.1421  0.3032  1.6679
14901SOL    HW245805   8.784   7.729   7.491 -0.5821 -0.0069  1.0677
14902SOL     OW45806   6.842   4.129   6.015  0.1173 -0.4097 -0.2480
14902SOL    HW145807   6.926   4.115   5.970  0.6378 -0.8844  0.8390
14902SOL    HW245808   6.846   4.071   6.091  0.3178  2.0996  1.8119
14903SOL     OW45809   6.826   6.557   6.140  0.0319 -0.2228 -0.0857
14903SOL    HW145810   6.811   6.645   6.173 -0.9762  0.2042 -1.5858
14903SOL    HW245811   6.897   6.566   6.076 -0.5825 -0.3360 -0.8041
14904SOL     OW45812   3.343   8.360   0.649 -0.2215  0.4366  0.1861
14904SOL    HW145813   3.325   8.452   0.668  0.8640  0.2300  2.6281
14904SOL    HW245814   3.323   8.315   0.731  0.4707 -1.3299 -0.5647
14905SOL     OW45815   2.668   0.747   5.065  0.3324 -0.6454 -0.5932
14905SOL    HW145816   2.589   0.695   5.080  0.0323 -0.3985 -1.2831
14905SOL    HW245817   2.726   0.690   5.015  0.5771 -0.8049 -0.1396
14906SOL     OW45818   6.143   3.261   0.820  0.3595  1.1283  0.3870
14906SOL    HW145819   6.108   3.347   0.844  0.8530  0.9914  1.6636
14906SOL    HW245820   6.225   3.254   0.868  0.9885  0.4738 -0.7410
14907SOL     OW45821   6.620   8.938   6.239 -0.1461  0.1362  0.6053
14907SOL    HW145822   6.534   8.979   6.237  0.7425  2.1985  1.6650
14907SOL    HW245823   6.622   8.890   6.322  0.1407  1.1082  1.1721
14908SOL     OW45824   4.534   5.810   2.718 -0.1315 -0.1034  0.0558
14908SOL    HW145825   4.577   5.895   2.724 -1.7255  0.6909  0.5384
14908SOL    HW245826   4.604   5.750   2.691  0.7716  1.5577 -1.4894
14909SOL     OW45827   6.836   6.487   1.983  0.0758 -0.0458  0.0086
14909SOL    HW145828   6.799   6.420   2.039 -0.7943 -0.4866 -1.0519
14909SOL    HW245829   6.855   6.442   1.901 -1.1721  1.0957 -0.9710
14910SOL     OW45830   8.036   4.160   7.810 -0.0049  0.0016 -0.3734
14910SOL    HW145831   8.101   4.091   7.798  0.1335  0.0146  0.2405
14910SOL    HW245832   7.990   4.165   7.726  1.9589  1.2283 -1.4542
14911SOL     OW45833   5.784   6.311   1.482  0.6352 -0.3087 -0.1978
14911SOL    HW145834   5.841   6.379   1.517  1.2713 -1.0513  0.2503
14911SOL    HW245835   5.766   6.254   1.557 -0.8713  0.0132 -0.2787
14912SOL     OW45836   3.682   0.622   3.480 -0.1809  0.4006 -0.3345
14912SOL    HW145837   3.670   0.564   3.555 -3.0121  1.3346  0.0314
14912SOL    HW245838   3.674   0.565   3.404 -0.9645  0.0058  0.0407
14913SOL     OW45839   2.190   4.172   7.857  0.3260  0.2625 -0.2068
14913SOL    HW145840   2.137   4.175   7.778  0.1224  0.0378 -0.0789
14913SOL    HW245841   2.142   4.225   7.921 -0.4352 -1.0306  0.3254
14914SOL     OW45842   5.707   7.966   4.281 -0.1584 -0.4896  0.2739
14914SOL    HW145843   5.625   7.929   4.247  0.0617 -0.0082 -0.8437
14914SOL    HW245844   5.679   8.031   4.345 -0.6883  0.0154 -0.4526
14915SOL     OW45845   3.442   8.389   1.820  0.5824  0.5341 -0.2866
14915SOL    HW145846   3.528   8.358   1.794  1.1251  1.7701 -0.0257
14915SOL    HW245847   3.459   8.468   1.870 -0.5523 -0.5446  1.9492
14916SOL     OW45848   5.392   4.068   8.845  0.2343 -0.8478 -0.1270
14916SOL    HW145849   5.309   4.026   8.867  0.2158  0.3612  2.5161
14916SOL    HW245850   5.372   4.162   8.845  1.5177 -0.5494  0.1069
14917SOL     OW45851   4.865   1.824   4.252  0.4132  0.7352  0.1550
14917SOL    HW145852   4.892   1.865   4.170 -0.7552  1.5363  0.1303
14917SOL    HW245853   4.786   1.775   4.229  0.5334  0.3120  0.6426
14918SOL     OW45854   2.392   0.475   6.406  0.0405  0.1378  0.0394
14918SOL    HW145855   2.421   0.433   6.487  3.3126  0.2494 -0.9434
14918SOL    HW245856   2.305   0.438   6.391  0.0614 -1.2415  2.6342
14919SOL     OW45857   8.735   7.919   3.253 -0.0698  0.6014  0.8683
14919SOL    HW145858   8.688   7.941   3.173  0.9827  0.6088  0.2361
14919SOL    HW245859   8.666   7.898   3.316 -0.9165 -1.4527 -0.6099
14920SOL     OW45860   2.956   2.624   5.242 -0.2535 -0.5365  0.0350
14920SOL    HW145861   2.995   2.594   5.160  1.6955  0.2873  0.6228
14920SOL    HW245862   2.905   2.701   5.217  0.4740 -0.1797 -0.3884
14921SOL     OW45863   6.673   1.835   8.053  0.0755 -0.3640  0.8177
14921SOL    HW145864   6.624   1.903   8.006  1.5064  0.6300  0.7070
14921SOL    HW245865   6.609   1.765   8.067 -1.0331  0.3460 -0.4374
14922SOL     OW45866   1.263   0.109   1.607  0.1521 -0.5154  0.1305
14922SOL    HW145867   1.273   0.160   1.526 -1.6493  0.2866  0.3544
14922SOL    HW245868   1.239   0.021   1.578  2.1264 -0.9848 -0.2293
14923SOL     OW45869   5.392   3.368   7.289 -0.8693  0.2409  0.2128
14923SOL    HW145870   5.362   3.441   7.233  2.2805  1.7631  0.3063
14923SOL    HW245871   5.367   3.289   7.241 -1.5302  1.4363 -1.5188
14924SOL     OW45872   0.388   1.088   4.049  0.2835  0.3170  0.4018
14924SOL    HW145873   0.304   1.068   4.091  0.7319 -0.7562  0.8287
14924SOL    HW245874   0.421   1.164   4.096 -0.9085  1.4101 -0.4535
14925SOL     OW45875   7.215   6.436   6.699 -0.2481  0.4861  0.1634
14925SOL    HW145876   7.246   6.517   6.740 -1.7874  0.6029  1.1898
14925SOL    HW245877   7.222   6.371   6.768  0.3121 -0.1109 -0.4460
14926SOL     OW45878   3.812   6.919   8.692  0.2360 -0.4794  0.4991
14926SOL    HW145879   3.812   6.930   8.787 -1.3142  0.5784  0.4133
14926SOL    HW245880   3.729   6.875   8.673  1.5257 -2.7594 -0.1971
14927SOL     OW45881   5.296   7.930   7.035  0.2317  0.3780 -0.1027
14927SOL    HW145882   5.254   7.862   7.088  1.7888  0.0343  0.7533
14927SOL    HW245883   5.223   7.979   6.997 -0.9519 -1.4356 -0.3455
14928SOL     OW45884   6.336   6.891   2.363  0.2183  0.1330  0.1014
14928SOL    HW145885   6.315   6.859   2.450 -1.2124 -1.2019 -0.6942
14928SOL    HW245886   6.309   6.983   2.364 -0.1159  0.0347  0.9440
14929SOL     OW45887   4.566   5.747   8.643  0.2876 -0.1663 -0.7809
14929SOL    HW145888   4.583   5.793   8.725 -2.0522  0.6042 -0.6581
14929SOL    HW245889   4.604   5.660   8.656  1.5063  0.5084  0.4116
14930SOL     OW45890   3.576   3.011   2.611 -0.4831 -0.1244 -0.0683
14930SOL    HW145891   3.590   2.940   2.547 -0.9281 -0.2854  0.0050
14930SOL    HW245892   3.492   3.049   2.585  0.1438  0.9206 -0.6112
14931SOL     OW45893   5.271   5.400   7.140  0.1890  0.1705 -0.0192
14931SOL    HW145894   5.300   5.455   7.212 -0.8682 -0.6015  1.0427
14931SOL    HW245895   5.337   5.330   7.135 -0.3013 -0.3828  0.9529
14932SOL     OW45896   6.642   4.968   0.250 -0.1592 -0.6043 -0.2208
14932SOL    HW145897   6.602   4.993   0.167 -2.8846 -1.3738  0.7427
14932SOL    HW245898   6.645   5.049   0.301  3.3471  0.3122 -1.6088
14933SOL     OW45899   0.640   7.028   7.927 -0.2045  0.3659  0.3751
14933SOL    HW145900   0.617   7.120   7.934  0.1029  0.4128  0.8314
14933SOL    HW245901   0.736   7.027   7.927 -0.2028  0.0975 -0.3833
14934SOL     OW45902   6.186   3.026   0.159 -0.0260  0.0494 -0.3101
14934SOL    HW145903   6.218   3.116   0.160 -0.3532  0.1691  0.5117
14934SOL    HW245904   6.170   3.005   0.251  0.8335 -1.1442 -0.4009
14935SOL     OW45905   6.647   7.047   2.053 -0.1561 -0.6056  0.5692
14935SOL    HW145906   6.642   6.962   2.011  3.5544 -0.4127 -0.6713
14935SOL    HW245907   6.741   7.060   2.069 -0.8143  2.1661  3.0689
14936SOL     OW45908   0.297   6.545   8.228 -0.1086 -0.3729 -0.0290
14936SOL    HW145909   0.299   6.580   8.317  0.6428  0.8989 -0.5216
14936SOL    HW245910   0.311   6.622   8.171 -2.7240 -0.7694 -1.3647
14937SOL     OW45911   1.277   4.932   6.489  0.1056 -0.1135  0.1650
14937SOL    HW145912   1.358   4.962   6.530 -0.7243  1.3185  0.8139
14937SOL    HW245913   1.265   4.843   6.521  0.9342 -0.0034  0.7984
14938SOL     OW45914   5.235   4.986   7.369  0.5182 -0.0397 -0.1584
14938SOL    HW145915   5.236   5.009   7.276  1.2743 -1.6606 -0.5874
14938SOL    HW245916   5.142   4.978   7.390  0.3483 -0.5092 -1.0207
14939SOL     OW45917   8.892   1.447   2.035  0.0899  0.2944 -0.6216
14939SOL    HW145918   8.946   1.372   2.061 -0.0110  0.3216 -0.3403
14939SOL    HW245919   8.808   1.408   2.009  0.7962  0.0538 -2.7691
14940SOL     OW45920   2.912   1.669   2.200 -0.2249 -0.3488 -0.5860
14940SOL    HW145921   2.933   1.669   2.293 -2.3467 -1.1623 -0.0424
14940SOL    HW245922   2.908   1.761   2.176 -2.7286  0.0479  0.9632
14941SOL     OW45923   9.021   7.070   6.226 -0.1545 -0.0993  0.5578
14941SOL    HW145924   8.947   7.010   6.216  0.2160 -0.3190 -1.3896
14941SOL    HW245925   8.996   7.147   6.174  1.0675 -0.3063 -0.3988
14942SOL     OW45926   0.837   4.618   8.227  0.2302  0.0200 -0.3246
14942SOL    HW145927   0.805   4.614   8.137 -1.3462  0.1005  0.1922
14942SOL    HW245928   0.862   4.710   8.240  0.8855 -0.0897 -0.8129
14943SOL     OW45929   8.408   6.444   6.167 -0.6224 -0.1006 -0.8314
14943SOL    HW145930   8.323   6.418   6.131 -0.5983 -0.4028 -0.6766
14943SOL    HW245931   8.457   6.362   6.173 -0.1939  0.1252 -1.2413
14944SOL     OW45932   2.534   4.519   8.509 -0.1044 -0.4335  0.2538
14944SOL    HW145933   2.488   4.469   8.576 -2.6950  0.3248 -0.8167
14944SOL    HW245934   2.560   4.600   8.553 -2.5312  0.4325  0.2516
14945SOL     OW45935   8.233   8.599   5.879 -1.0196 -0.4947  0.2835
14945SOL    HW145936   8.187   8.623   5.799  0.1224 -0.5629 -0.4112
14945SOL    HW245937   8.281   8.519   5.857  0.1434  0.0684  0.7034
14946SOL     OW45938   5.321   7.288   3.848 -0.1935  0.4001  0.3340
14946SOL    HW145939   5.403   7.262   3.805  0.1968 -0.1826  1.3861
14946SOL    HW245940   5.341   7.285   3.941 -1.2010  1.0267  0.5862
14947SOL     OW45941   1.971   7.194   6.994 -0.3792 -0.1070  0.6546
14947SOL    HW145942   1.994   7.271   6.942  0.6024 -0.8042  0.0020
14947SOL    HW245943   1.876   7.197   7.002 -0.9065 -1.0965 -3.0861
14948SOL     OW45944   5.867   4.089   7.423 -0.0076  0.2239 -0.0428
14948SOL    HW145945   5.879   4.026   7.493  0.2936  0.7957  0.4288
14948SOL    HW245946   5.950   4.137   7.418 -0.4938  1.1203  0.1522
14949SOL     OW45947   4.337   8.560   5.215  0.1376  0.0947 -0.3526
14949SOL    HW145948   4.257   8.516   5.184 -1.0977  0.3850  2.1835
14949SOL    HW245949   4.350   8.526   5.303  0.8871  2.5306  0.5356
14950SOL     OW45950   0.957   0.042   4.254  0.2011 -0.0158  0.4477
14950SOL    HW145951   0.941   0.039   4.348 -1.3250 -1.2763  0.1857
14950SOL    HW245952   0.873   0.020   4.214  0.8958  0.1413 -1.2171
14951SOL     OW45953   0.517   0.510   7.776  0.1863  0.4720  0.2360
14951SOL    HW145954   0.500   0.423   7.811  1.2093 -0.2153 -0.8982
14951SOL    HW245955   0.504   0.569   7.850 -0.3120 -0.6641  1.0728
14952SOL     OW45956   1.266   1.614   2.069 -0.1570 -0.2122 -0.3087
14952SOL    HW145957   1.181   1.572   2.077 -0.7242  1.0160  0.2693
14952SOL    HW245958   1.248   1.700   2.030  0.6271  0.6044  1.0232
14953SOL     OW45959   3.795   6.616   5.572 -0.2494  0.1043  0.8459
14953SOL    HW145960   3.751   6.694   5.541 -0.0200 -0.0135  0.2126
14953SOL    HW245961   3.729   6.547   5.565  0.6588 -0.6196 -2.4869
14954SOL     OW45962   3.009   4.400   9.041 -0.4246 -0.3371  0.1910
14954SOL    HW145963   2.999   4.485   8.999  0.9052  0.6604  1.7671
14954SOL    HW245964   2.938   4.397   9.105  0.7505  0.5581  1.5938
14955SOL     OW45965   0.716   5.481   6.047 -0.1598  0.5934  0.5407
14955SOL    HW145966   0.675   5.414   5.994 -0.0955  0.0415  1.1725
14955SOL    HW245967   0.656   5.494   6.121  1.2259 -0.9539  2.0158
14956SOL     OW45968   7.328   2.085   1.313  0.2864 -0.1002 -0.6141
14956SOL    HW145969   7.424   2.076   1.315  0.4582  1.0692  2.7616
14956SOL    HW245970   7.302   2.041   1.232  3.8940  2.3418 -3.4535
14957SOL     OW45971   7.672   8.683   7.537 -0.0668  0.0378  0.2837
14957SOL    HW145972   7.600   8.734   7.501 -0.3568 -0.4596  0.1496
14957SOL    HW245973   7.750   8.734   7.516 -0.5234  1.7340  2.4064
14958SOL     OW45974   5.687   7.838   1.474  0.3668  0.1321 -0.2487
14958SOL    HW145975   5.746   7.871   1.543  0.5349  0.0311 -0.3444
14958SOL    HW245976   5.740   7.776   1.425  0.3767  0.5096 -0.7255
14959SOL     OW45977   7.636   0.663   7.318  0.4706 -0.3299  0.0909
14959SOL    HW145978   7.556   0.703   7.284  0.4225 -0.4984  0.0047
14959SOL    HW245979   7.626   0.570   7.299  0.5926 -0.3799  0.2681
14960SOL     OW45980   4.318   9.090   2.929 -0.2658  0.0453  0.7517
14960SOL    HW145981   4.407   9.057   2.944 -1.0175 -2.6196 -0.1184
14960SOL    HW245982   4.262   9.012   2.934 -2.2490  1.2174 -1.2037
14961SOL     OW45983   7.775   1.113   7.679 -0.3003 -0.1741 -0.2028
14961SOL    HW145984   7.816   1.196   7.655 -0.9860  0.0275 -0.7124
14961SOL    HW245985   7.728   1.132   7.760 -1.4873  0.2811 -0.9771
14962SOL     OW45986   3.589   3.207   7.521  0.2879 -0.3086  0.2656
14962SOL    HW145987   3.657   3.185   7.457  1.3038 -1.2122  1.5945
14962SOL    HW245988   3.604   3.299   7.542  0.3430 -0.1832 -0.3240
14963SOL     OW45989   1.081   0.440   0.781 -0.7497 -0.3608 -0.7989
14963SOL    HW145990   1.110   0.530   0.791 -1.5267 -0.2501  0.9902
14963SOL    HW245991   1.127   0.407   0.704  2.7424  0.2947  0.8172
14964SOL     OW45992   4.014   7.519   3.900 -0.3352 -0.3747 -0.3596
14964SOL    HW145993   4.063   7.528   3.818 -0.4815  1.0828 -0.3130
14964SOL    HW245994   3.956   7.444   3.885 -0.5133  0.0029 -1.6739
14965SOL     OW45995   7.904   7.406   2.156 -0.3205 -0.0027 -0.2349
14965SOL    HW145996   7.923   7.314   2.174 -0.6366  0.1307  0.8588
14965SOL    HW245997   7.989   7.444   2.133 -0.0491 -0.3980  0.0948
14966SOL     OW45998   1.957   7.569   3.409  0.6659 -0.0059  0.1325
14966SOL    HW145999   2.049   7.553   3.387  0.9258  0.6793  0.6762
14966SOL    HW246000   1.916   7.483   3.407  1.5269 -0.4494  0.8077
14967SOL     OW46001   8.207   2.738   7.213 -0.1327  0.0585  0.1755
14967SOL    HW146002   8.218   2.659   7.266  3.2021  0.2723  0.0210
14967SOL    HW246003   8.123   2.774   7.240  0.2635 -1.1693  3.5179
14968SOL     OW46004   6.704   8.794   7.384  0.5871 -0.2918 -0.3602
14968SOL    HW146005   6.680   8.791   7.477  3.0182 -1.1321  0.3156
14968SOL    HW246006   6.678   8.709   7.349  2.7144 -1.3658  0.4683
14969SOL     OW46007   3.012   6.159   0.180  0.1889 -0.0676 -0.2546
14969SOL    HW146008   2.929   6.204   0.194 -0.1893 -0.7621 -0.2318
14969SOL    HW246009   2.989   6.080   0.132  1.0164  0.4160 -1.4838
14970SOL     OW46010   7.598   6.459   0.407  0.4472 -0.3756  0.4796
14970SOL    HW146011   7.511   6.488   0.433  1.2442  1.8057  1.0153
14970SOL    HW246012   7.646   6.450   0.490  1.4736  1.2367  0.1099
14971SOL     OW46013   1.962   4.550   5.550  0.0565 -0.0140  0.7159
14971SOL    HW146014   1.917   4.510   5.624  0.1985  0.0518  0.8384
14971SOL    HW246015   1.892   4.578   5.492 -0.0329 -0.8455  0.4142
14972SOL     OW46016   7.585   3.108   2.331  0.2105  0.6955 -0.0002
14972SOL    HW146017   7.606   3.021   2.296 -0.2525 -0.1886  1.7919
14972SOL    HW246018   7.495   3.124   2.302 -0.2185 -0.0913  0.8229
14973SOL     OW46019   7.366   8.527   6.209 -0.5840  0.0895 -0.2855
14973SOL    HW146020   7.314   8.561   6.282 -0.6576 -1.5960  0.4914
14973SOL    HW246021   7.421   8.601   6.182 -2.4241  1.5323 -0.2829
14974SOL     OW46022   6.616   0.733   2.818  0.0152 -0.1035 -0.0646
14974SOL    HW146023   6.692   0.735   2.876  0.3898 -1.2068 -0.4800
14974SOL    HW246024   6.541   0.728   2.877  0.3185  0.0928  0.3419
14975SOL     OW46025   6.277   3.694   8.395 -0.3469  0.1987 -0.2705
14975SOL    HW146026   6.341   3.626   8.416 -1.5178 -1.2923 -1.3186
14975SOL    HW246027   6.263   3.741   8.477  1.0970 -0.2850  0.2792
14976SOL     OW46028   4.463   7.294   1.650 -0.1441  0.3738 -0.1002
14976SOL    HW146029   4.414   7.347   1.587  0.8905  1.1396 -0.2780
14976SOL    HW246030   4.533   7.352   1.681  0.0324 -0.3622  0.9197
14977SOL     OW46031   7.431   2.950   4.325 -0.5268  0.4545  0.3379
14977SOL    HW146032   7.382   3.032   4.322 -1.3301 -0.0297  0.1146
14977SOL    HW246033   7.468   2.940   4.238 -1.1379  0.1508  0.1127
14978SOL     OW46034   6.561   6.473   3.846  0.3126 -0.2318  0.5522
14978SOL    HW146035   6.495   6.542   3.858  0.7071  0.0951  0.9045
14978SOL    HW246036   6.567   6.430   3.931 -0.4998 -1.2280  0.1120
14979SOL     OW46037   5.981   5.510   2.285  0.0842  0.1048  0.2188
14979SOL    HW146038   6.030   5.512   2.203 -1.9823 -0.3234 -1.0955
14979SOL    HW246039   6.022   5.440   2.336  0.3173 -0.8429 -1.2096
14980SOL     OW46040   3.399   4.376   5.855  0.2692 -0.4517  0.5609
14980SOL    HW146041   3.433   4.430   5.783 -1.3523  0.4546  0.4298
14980SOL    HW246042   3.366   4.297   5.812 -0.6530  0.0674  0.2702
14981SOL     OW46043   5.718   1.283   2.866  0.5287 -0.4830  0.1851
14981SOL    HW146044   5.629   1.307   2.841  0.9648 -0.5259 -1.5878
14981SOL    HW246045   5.725   1.307   2.958 -1.2275 -0.2523  0.2931
14982SOL     OW46046   8.940   5.821   3.084  0.0817  0.3734 -0.0734
14982SOL    HW146047   8.915   5.751   3.024  1.5736 -0.0136 -0.2939
14982SOL    HW246048   9.036   5.817   3.086  0.1083  1.0699  1.5161
14983SOL     OW46049   8.363   2.132   6.514  0.2922  0.1852  0.3980
14983SOL    HW146050   8.374   2.201   6.448 -0.1247  0.6323  0.7876
14983SOL    HW246051   8.352   2.052   6.464  0.9434  0.3701 -0.0623
14984SOL     OW46052   4.042   5.951   3.938 -0.0448  0.3224 -0.7184
14984SOL    HW146053   4.056   6.019   4.005  1.1613  1.8550 -2.4293
14984SOL    HW246054   3.947   5.948   3.928 -0.4169 -1.2130  2.2348
14985SOL     OW46055   2.909   8.803   4.775  0.7507  0.6139 -1.1552
14985SOL    HW146056   3.001   8.798   4.799  0.3915 -0.3442  0.1250
14985SOL    HW246057   2.888   8.716   4.742 -0.0647  0.3622 -0.0072
14986SOL     OW46058   6.198   8.808   2.994  0.3591  0.1000  0.2721
14986SOL    HW146059   6.155   8.834   3.076  0.2397  0.6947  0.0246
14986SOL    HW246060   6.163   8.868   2.929  3.2002  2.1562  0.4441
14987SOL     OW46061   1.593   8.018   8.907  0.2130 -0.0909  0.4530
14987SOL    HW146062   1.601   7.993   8.815  0.5617  0.9385  0.1857
14987SOL    HW246063   1.675   8.063   8.926  0.5018 -1.0342  1.5212
14988SOL     OW46064   5.852   2.621   3.530 -0.1840 -0.3976 -0.0617
14988SOL    HW146065   5.853   2.715   3.512 -0.1302 -0.2469  0.6971
14988SOL    HW246066   5.933   2.588   3.489 -0.4642 -0.2115 -0.7834
14989SOL     OW46067   7.964   6.919   7.091 -0.1600  0.2514  0.0951
14989SOL    HW146068   7.909   6.905   7.168 -1.1481 -1.5475 -0.8593
14989SOL    HW246069   8.002   6.833   7.073  0.4894  0.7661 -1.1018
14990SOL     OW46070   9.018   4.139   3.682 -0.1474  0.1015 -0.4308
14990SOL    HW146071   9.093   4.081   3.674  1.0236  1.6039 -0.7515
14990SOL    HW246072   8.942   4.080   3.686  1.0738 -1.4725  0.5540
14991SOL     OW46073   3.670   2.556   2.170 -0.0729 -0.2117 -0.0208
14991SOL    HW146074   3.638   2.568   2.259  0.0278 -0.7132  0.0896
14991SOL    HW246075   3.595   2.521   2.121 -0.5274  1.3379 -0.4733
14992SOL     OW46076   5.831   4.182   8.516 -0.1670  0.5855 -0.6352
14992SOL    HW146077   5.863   4.120   8.451  1.0059  0.0649  0.3994
14992SOL    HW246078   5.887   4.259   8.506  0.0628  0.4760 -0.1944
14993SOL     OW46079   3.090   9.054   3.893 -0.0322 -0.4584 -0.7768
14993SOL    HW146080   3.127   9.132   3.935 -0.0774  0.0334 -1.6311
14993SOL    HW246081   3.021   9.025   3.952  0.8274 -0.6129  0.1885
14994SOL     OW46082   5.234   2.495   1.792 -0.0125  0.1809  0.0797
14994SOL    HW146083   5.184   2.574   1.811  0.4356  0.1629  1.4068
14994SOL    HW246084   5.172   2.423   1.801 -0.1465  0.2890  0.0147
14995SOL     OW46085   2.607   1.249   0.951 -0.2078  0.3271  0.4360
14995SOL    HW146086   2.601   1.169   1.003  0.6271  0.1275  0.2418
14995SOL    HW246087   2.516   1.274   0.936 -0.5035 -0.9603 -0.0732
14996SOL     OW46088   5.974   3.772   3.286  0.1019  0.0911  0.2115
14996SOL    HW146089   5.970   3.800   3.377 -0.6886 -0.1507  0.2609
14996SOL    HW246090   6.054   3.719   3.280 -0.3536 -0.7041  1.0023
14997SOL     OW46091   4.046   8.201   3.209 -0.0356  0.5459  0.0994
14997SOL    HW146092   4.023   8.293   3.225  2.0259  1.3119 -1.0516
14997SOL    HW246093   4.090   8.201   3.124  1.9397 -1.1614  1.0416
14998SOL     OW46094   5.024   5.440   3.699  0.2599  0.2499 -0.0910
14998SOL    HW146095   4.982   5.369   3.651 -0.2112  0.7033 -0.3553
14998SOL    HW246096   4.952   5.495   3.729  0.6589  1.1409 -0.7160
14999SOL     OW46097   1.484   7.848   6.200 -0.0133  0.1993 -0.3814
14999SOL    HW146098   1.457   7.872   6.111 -2.1215 -0.3861  0.0453
14999SOL    HW246099   1.447   7.917   6.255  0.5144  0.0786  0.1264
15000SOL     OW46100   3.925   1.845   7.594 -0.0296 -0.1926 -0.5183
15000SOL    HW146101   3.961   1.814   7.511  1.3015  0.0772 -0.0582
15000SOL    HW246102   3.976   1.799   7.661 -0.6756  0.0516  0.1535
15001SOL     OW46103   7.892   4.930   4.120  0.3056 -0.5201 -0.1839
15001SOL    HW146104   7.897   5.025   4.133 -1.5145 -0.3955 -0.0756
15001SOL    HW246105   7.934   4.894   4.198  0.9676  0.1865 -0.1958
15002SOL     OW46106   0.919   0.634   5.195 -0.3646 -0.3963  0.7802
15002SOL    HW146107   0.976   0.587   5.134 -0.3266 -1.0881  1.3334
15002SOL    HW246108   0.906   0.719   5.155 -0.8642 -1.0561 -0.5125
15003SOL     OW46109   6.563   0.976   7.024 -0.1696 -0.3433  0.1188
15003SOL    HW146110   6.586   0.901   6.969 -1.9627  0.7023 -2.2056
15003SOL    HW246111   6.496   0.942   7.083  0.4925 -1.0442  0.4862
15004SOL     OW46112   4.555   2.804   8.060  0.1574 -0.2901 -0.0728
15004SOL    HW146113   4.550   2.862   7.984 -3.2263  0.0893  0.2593
15004SOL    HW246114   4.613   2.849   8.121 -0.5659  1.6315 -0.7323
15005SOL     OW46115   4.343   7.828   0.874  0.3365 -0.1762  0.0304
15005SOL    HW146116   4.269   7.767   0.881  0.8244 -0.7965 -0.1851
15005SOL    HW246117   4.347   7.870   0.960 -0.8175  0.5196 -0.2247
15006SOL     OW46118   1.437   5.265   1.784 -0.3646  0.1244  0.2105
15006SOL    HW146119   1.425   5.333   1.718 -1.1155  1.2058  1.4140
15006SOL    HW246120   1.353   5.219   1.787  0.2502 -1.1343 -0.8512
15007SOL     OW46121   5.778   2.825   8.877 -0.1641 -0.3206  0.5087
15007SOL    HW146122   5.715   2.850   8.809 -0.2117 -0.1526  0.6139
15007SOL    HW246123   5.861   2.813   8.829  0.2684  1.6595  0.6547
15008SOL     OW46124   5.878   6.545   1.647  0.4055  0.3769  0.1374
15008SOL    HW146125   5.927   6.546   1.565  1.2224  0.3925  0.6185
15008SOL    HW246126   5.941   6.573   1.714 -0.2211  0.2788  0.7863
15009SOL     OW46127   4.031   4.588   7.301 -0.4586  0.2514 -0.3869
15009SOL    HW146128   3.973   4.513   7.291 -0.1713  0.2682 -2.4289
15009SOL    HW246129   4.118   4.550   7.316 -0.5573  0.2177  0.1428
15010SOL     OW46130   6.974   1.460   2.785 -0.4090  1.0246  0.0889
15010SOL    HW146131   6.928   1.509   2.853  1.1594 -0.2972  2.2461
15010SOL    HW246132   6.989   1.374   2.825 -1.1334 -0.5095 -2.7150
15011SOL     OW46133   5.918   4.056   8.284  0.0340 -0.0840 -0.3276
15011SOL    HW146134   5.846   4.075   8.224  1.6105  0.1821 -2.2484
15011SOL    HW246135   5.991   4.109   8.251  2.1887 -3.0744 -0.8106
15012SOL     OW46136   0.391   2.088   3.462 -0.1166  0.1467  0.3763
15012SOL    HW146137   0.480   2.115   3.484  0.0337  0.3544 -0.4450
15012SOL    HW246138   0.335   2.157   3.499  0.0008 -0.3608  1.5334
15013SOL     OW46139   2.187   8.080   3.773 -0.6214 -0.1657  0.1000
15013SOL    HW146140   2.179   8.122   3.859 -3.0649 -0.0085 -0.1376
15013SOL    HW246141   2.174   8.150   3.710  0.3212 -0.4342 -0.4228
15014SOL     OW46142   1.053   2.741   6.548  0.2064 -0.2140  0.1414
15014SOL    HW146143   0.997   2.772   6.619 -1.4042 -2.3656 -0.0966
15014SOL    HW246144   1.036   2.800   6.475 -1.0508 -0.2788  0.3714
15015SOL     OW46145   7.661   2.782   7.384  0.2790 -0.1670  0.6536
15015SOL    HW146146   7.710   2.802   7.464 -0.1810 -0.3089  0.9729
15015SOL    HW246147   7.571   2.768   7.413 -0.1468  0.9631 -0.0467
15016SOL     OW46148   1.817   1.884   0.003  0.4978 -0.0649 -0.3160
15016SOL    HW146149   1.754   1.934   0.054 -0.0608  0.1903 -1.2271
15016SOL    HW246150   1.901   1.900   0.046  0.6005  2.8513 -1.3614
15017SOL     OW46151   5.409   5.298   8.062 -0.1225 -0.0927 -0.2689
15017SOL    HW146152   5.462   5.328   7.988  1.7136 -1.2831  0.4729
15017SOL    HW246153   5.431   5.205   8.070 -0.5130 -0.0604  1.5590
15018SOL     OW46154   2.571   6.940   1.008 -0.8539  0.0103  0.1093
15018SOL    HW146155   2.557   6.921   0.915 -1.1615 -0.1464  0.1905
15018SOL    HW246156   2.549   6.859   1.054  0.8834 -0.4599  0.1936
15019SOL     OW46157   6.758   5.857   3.883 -0.1182  0.0516  0.1924
15019SOL    HW146158   6.772   5.941   3.839  1.4920 -0.6860 -0.8220
15019SOL    HW246159   6.839   5.842   3.932 -0.7136 -0.5405  1.0220
15020SOL     OW46160   2.498   1.110   7.187  0.5333  0.0199  0.7559
15020SOL    HW146161   2.517   1.151   7.272 -0.2606 -0.0818  0.9840
15020SOL    HW246162   2.476   1.184   7.130 -0.5800 -0.0517  1.0826
15021SOL     OW46163   4.922   0.012   1.195  0.3447  0.6206  0.0606
15021SOL    HW146164   4.922   0.001   1.290  0.8738  1.0785  0.1233
15021SOL    HW246165   4.832  -0.004   1.168  0.7781 -2.9359  0.2192
15022SOL     OW46166   8.232   1.226   5.749  0.1807 -0.3616  0.3165
15022SOL    HW146167   8.241   1.181   5.833  0.8282 -1.7075 -0.4374
15022SOL    HW246168   8.291   1.179   5.690  1.8071  2.2012 -0.2717
15023SOL     OW46169   5.836   8.070   0.381 -0.2692  0.0201 -0.0978
15023SOL    HW146170   5.857   8.099   0.470  0.8490 -0.5329 -0.1562
15023SOL    HW246171   5.843   8.150   0.328  0.1502  0.1501  0.1464
15024SOL     OW46172   0.464   7.736   6.589  0.2989  0.2446 -0.3380
15024SOL    HW146173   0.487   7.643   6.582  1.0226  0.4376 -0.6219
15024SOL    HW246174   0.369   7.737   6.585  0.3251 -0.3991 -1.5950
15025SOL     OW46175   9.023   8.593   7.347 -0.2020 -0.4648 -0.0702
15025SOL    HW146176   9.007   8.509   7.304 -2.7782  0.1140 -0.3913
15025SOL    HW246177   9.058   8.649   7.278 -2.1475 -0.2073 -0.9055
15026SOL     OW46178   6.423   2.982   1.983 -0.0889  0.0710  0.4539
15026SOL    HW146179   6.365   3.010   1.913 -0.6771  0.1818  0.9807
15026SOL    HW246180   6.488   2.927   1.939  0.9516  2.0024 -0.5634
15027SOL     OW46181   0.796   8.575   8.353 -0.4795  0.0302 -0.2914
15027SOL    HW146182   0.791   8.480   8.340 -0.8341  0.3099 -2.7398
15027SOL    HW246183   0.825   8.586   8.444 -1.0224 -2.3920  0.2430
15028SOL     OW46184   6.057   9.102   0.253  0.0504 -0.2232 -0.0148
15028SOL    HW146185   6.012   9.027   0.216 -1.6414  0.4401  0.6019
15028SOL    HW246186   6.060   9.166   0.182 -1.8911  0.5008  0.4917
15029SOL     OW46187   8.775   4.476   3.266 -0.1147 -0.2322 -0.4747
15029SOL    HW146188   8.831   4.460   3.190  1.4327  0.0513  0.5684
15029SOL    HW246189   8.760   4.389   3.303  0.5723 -0.2125 -0.1311
15030SOL     OW46190   2.893   4.851   1.629 -0.0484  0.0142  0.0901
15030SOL    HW146191   2.883   4.784   1.697 -3.7300  1.4660  1.2521
15030SOL    HW246192   2.906   4.801   1.548 -0.6994 -2.0252  1.1729
15031SOL     OW46193   6.129   3.592   1.279 -0.0242 -0.1036 -0.2902
15031SOL    HW146194   6.073   3.571   1.354  0.5781 -0.1683  0.1488
15031SOL    HW246195   6.137   3.687   1.281  1.4394 -0.2167  0.8125
15032SOL     OW46196   0.047   8.746   2.241  0.3592  0.3283  0.8078
15032SOL    HW146197   0.071   8.808   2.310  1.1854  1.6540 -0.6141
15032SOL    HW246198   0.082   8.784   2.160 -2.1752 -0.2062 -0.6688
15033SOL     OW46199   7.436   7.292   7.565  0.4184 -0.2832 -0.0990
15033SOL    HW146200   7.506   7.237   7.600  0.9119  0.0631 -0.5338
15033SOL    HW246201   7.356   7.244   7.586  0.7815 -0.6825  0.4059
15034SOL     OW46202   2.741   1.252   6.993 -0.0585  0.0573 -0.0163
15034SOL    HW146203   2.836   1.259   7.005  0.5392 -2.6707 -1.9715
15034SOL    HW246204   2.712   1.196   7.065  0.0494 -0.0909 -0.0865
15035SOL     OW46205   7.081   4.391   5.951 -0.3165  0.6430 -0.2956
15035SOL    HW146206   7.046   4.336   5.882  1.3020 -0.1704 -0.5202
15035SOL    HW246207   7.167   4.419   5.919 -0.0596  1.2539  0.8498
15036SOL     OW46208   6.653   3.441   2.341  0.5980 -0.1524 -0.0962
15036SOL    HW146209   6.715   3.502   2.381 -1.0466  2.1437 -0.8730
15036SOL    HW246210   6.703   3.402   2.268  2.4338 -1.6706  1.8316
15037SOL     OW46211   0.544   2.927   0.430 -0.1704 -0.1475 -0.3633
15037SOL    HW146212   0.528   3.016   0.462 -2.1520 -0.8376  0.6719
15037SOL    HW246213   0.523   2.931   0.337  0.7768  0.6768 -0.5667
15038SOL     OW46214   9.037   2.946   9.124 -0.3088 -0.1464  0.1994
15038SOL    HW146215   9.025   2.872   9.183  0.0406 -1.8037 -1.6859
15038SOL    HW246216   9.121   2.984   9.150  0.3345 -1.4701  0.1845
15039SOL     OW46217   8.274   8.234   5.377 -0.5112 -0.7800  0.0400
15039SOL    HW146218   8.363   8.251   5.406 -0.3253  1.9876 -1.8037
15039SOL    HW246219   8.274   8.256   5.284 -3.0484 -0.9969 -0.0889
15040SOL     OW46220   7.282   6.064   4.846  0.1828 -0.2793  0.3656
15040SOL    HW146221   7.279   6.155   4.876  0.9487 -0.0218 -0.3237
15040SOL    HW246222   7.373   6.038   4.856  0.0569 -0.8272  0.1222
15041SOL     OW46223   3.528   8.535   6.006 -0.6491 -0.5904  0.1597
15041SOL    HW146224   3.587   8.464   6.029 -0.6879 -0.4752  0.6230
15041SOL    HW246225   3.446   8.491   5.981 -0.4232 -0.7412 -0.3285
15042SOL     OW46226   1.379   2.259   7.990 -0.2391 -0.2541 -0.3804
15042SOL    HW146227   1.322   2.182   7.988  0.3546 -0.7549  1.0571
15042SOL    HW246228   1.466   2.224   7.970 -0.1615  0.2593 -0.9717
15043SOL     OW46229   8.954   4.254   6.548  0.7806  0.3568  0.3347
15043SOL    HW146230   8.991   4.255   6.637  2.1693 -1.8419 -0.1477
15043SOL    HW246231   8.913   4.168   6.540  0.4263  0.6321 -1.0580
15044SOL     OW46232   5.171   5.527   8.320 -0.2083  0.1342 -0.1969
15044SOL    HW146233   5.254   5.491   8.351  0.0133  0.3633 -0.5171
15044SOL    HW246234   5.167   5.504   8.228 -1.1952 -1.1525  0.1432
15045SOL     OW46235   5.387   4.018   2.452  0.3648  0.3153  0.4886
15045SOL    HW146236   5.317   4.064   2.405 -3.0218 -0.9626  3.8333
15045SOL    HW246237   5.394   3.934   2.408 -1.2613 -0.0804  0.9422
15046SOL     OW46238   7.482   8.375   1.447 -0.3926 -0.1341 -0.1386
15046SOL    HW146239   7.512   8.453   1.401  0.6956 -1.3156 -1.5421
15046SOL    HW246240   7.520   8.383   1.535 -1.2486  1.4344  0.1093
15047SOL     OW46241   8.863   2.246   0.841  0.3572 -0.1461  0.3572
15047SOL    HW146242   8.896   2.217   0.756 -0.3233  0.4070 -0.1142
15047SOL    HW246243   8.768   2.234   0.835  0.0222  2.1849  0.0995
15048SOL     OW46244   1.066   3.342   4.616  0.3186  0.2467  0.5116
15048SOL    HW146245   1.116   3.261   4.627 -0.3250 -0.4310 -1.2050
15048SOL    HW246246   1.111   3.406   4.672  2.2454 -0.6984  0.1416
15049SOL     OW46247   1.474   0.215   5.038 -0.3102  0.2092 -0.1704
15049SOL    HW146248   1.469   0.304   5.071  0.1097 -0.4162  1.6954
15049SOL    HW246249   1.396   0.172   5.074  0.8450 -0.8425  1.1910
15050SOL     OW46250   8.845   8.954   0.304 -0.5670 -0.5133  0.2761
15050SOL    HW146251   8.848   9.009   0.226 -1.1750 -2.0275 -0.8747
15050SOL    HW246252   8.936   8.930   0.319 -0.3871  0.1874  0.3391
15051SOL     OW46253   8.565   2.918   7.295 -0.4003 -0.0275 -0.1828
15051SOL    HW146254   8.634   2.981   7.316 -1.4255  0.7724  0.9988
15051SOL    HW246255   8.553   2.868   7.375 -0.7145 -0.6194 -0.5952
15052SOL     OW46256   5.314   2.927   4.090 -0.2476 -0.1226 -0.0583
15052SOL    HW146257   5.410   2.935   4.082 -0.3322  0.3972 -0.6126
15052SOL    HW246258   5.281   3.015   4.070 -0.6895  0.5268  3.0329
15053SOL     OW46259   6.125   8.991   0.620 -0.3111 -0.2811  0.5387
15053SOL    HW146260   6.178   9.059   0.579 -0.3936  0.3057  1.3809
15053SOL    HW246261   6.038   9.001   0.582 -0.3608  0.1864  0.7716
15054SOL     OW46262   6.395   6.229   6.718  0.0700 -0.0208  0.3253
15054SOL    HW146263   6.460   6.216   6.649  0.0776  2.2481 -0.1833
15054SOL    HW246264   6.323   6.171   6.694  1.2947 -1.5160  0.1158
15055SOL     OW46265   4.788   7.484   6.666  0.6595  0.0491 -0.0649
15055SOL    HW146266   4.742   7.408   6.630  2.5060 -0.7790 -0.8102
15055SOL    HW246267   4.833   7.451   6.743  1.3293  0.4019 -0.2898
15056SOL     OW46268   3.041   0.664   1.804  0.0473  0.3920 -0.3069
15056SOL    HW146269   2.991   0.582   1.803  0.5858  0.0519  0.0394
15056SOL    HW246270   3.002   0.716   1.733 -0.5284 -0.0218 -0.3079
15057SOL     OW46271   7.260   2.912   2.066 -0.0421 -0.0411 -0.1220
15057SOL    HW146272   7.327   2.856   2.103  0.6334  2.1681  2.3587
15057SOL    HW246273   7.299   2.947   1.986  1.3713  0.3543  0.7027
15058SOL     OW46274   2.048   8.609   1.737  0.0195 -0.0470  0.1381
15058SOL    HW146275   2.082   8.661   1.664 -0.2139  0.0600  0.1044
15058SOL    HW246276   2.018   8.527   1.697  1.5630 -0.7549  0.3610
15059SOL     OW46277   2.497   8.520   0.558  0.2625 -0.6131 -0.4936
15059SOL    HW146278   2.527   8.603   0.596  0.2389 -0.2239 -1.3100
15059SOL    HW246279   2.405   8.535   0.537  0.2775 -0.8195 -0.7148
15060SOL     OW46280   3.966   2.860   4.420  0.6676  0.0866  0.1577
15060SOL    HW146281   3.921   2.944   4.431 -2.1046 -1.0217 -1.4056
15060SOL    HW246282   4.020   2.872   4.342 -1.9739 -0.2585 -1.8896
15061SOL     OW46283   3.212   5.224   8.443 -0.4168  0.1685 -0.2287
15061SOL    HW146284   3.178   5.296   8.496  0.0724 -0.1260  0.4992
15061SOL    HW246285   3.290   5.195   8.490  0.1321  0.0236 -1.2184
15062SOL     OW46286   3.773   2.717   3.895 -0.3372  0.1291 -0.1580
15062SOL    HW146287   3.802   2.808   3.905 -0.6297  0.4149 -1.6777
15062SOL    HW246288   3.855   2.667   3.886 -0.2068  0.4625 -0.8922
15063SOL     OW46289   3.136   2.895   8.265  0.4273  0.3032  0.0700
15063SOL    HW146290   3.158   2.918   8.355 -0.0959 -2.4268  0.9952
15063SOL    HW246291   3.219   2.904   8.217  0.6724  1.9333  0.7355
15064SOL     OW46292   6.864   1.053   5.159  0.1006 -0.0869 -0.4173
15064SOL    HW146293   6.889   1.013   5.076  1.2432 -0.2602 -0.0048
15064SOL    HW246294   6.805   1.124   5.134 -0.2410 -0.6661 -1.3090
15065SOL     OW46295   0.136   6.614   3.663  0.0204  0.3166 -0.6206
15065SOL    HW146296   0.052   6.644   3.628  1.0448  1.3345 -2.3349
15065SOL    HW246297   0.192   6.691   3.658  2.2535 -1.3021 -3.4629
15066SOL     OW46298   3.143   5.783   6.119 -0.5750 -0.2872  0.4620
15066SOL    HW146299   3.089   5.852   6.158 -1.0153  1.3022 -2.5749
15066SOL    HW246300   3.083   5.732   6.065  0.1788 -1.5049  0.7310
15067SOL     OW46301   4.160   5.371   7.665 -0.0554 -0.1636 -0.3192
15067SOL    HW146302   4.075   5.406   7.691 -0.3240 -0.1629 -1.1692
15067SOL    HW246303   4.152   5.355   7.571  1.0051  0.1956 -0.4886
15068SOL     OW46304   9.052   8.633   3.767  0.8781  0.0050  0.0511
15068SOL    HW146305   9.016   8.546   3.751 -0.7745  0.3878  1.3873
15068SOL    HW246306   8.978   8.683   3.802  2.4171  1.2069  1.7639
15069SOL     OW46307   4.741   4.862   5.382  0.1725 -0.3465 -0.1732
15069SOL    HW146308   4.785   4.777   5.381 -1.2574 -1.1347 -1.0101
15069SOL    HW246309   4.656   4.845   5.340 -0.1143  1.5216 -0.4444
15070SOL     OW46310   8.102   1.215   7.810 -0.3051 -0.2271  0.5368
15070SOL    HW146311   8.163   1.199   7.738 -0.3461 -1.0892  0.6855
15070SOL    HW246312   8.097   1.310   7.816  2.8351 -0.0295  2.0610
15071SOL     OW46313   0.184   1.756   0.732 -0.2061 -0.7211 -0.0441
15071SOL    HW146314   0.200   1.825   0.797 -2.0878  0.3639 -0.6569
15071SOL    HW246315   0.109   1.708   0.766 -1.2548 -0.1080 -1.4031
15072SOL     OW46316   7.194   1.726   3.602  0.0665  0.4845 -0.1891
15072SOL    HW146317   7.271   1.773   3.569 -1.4974  1.3878 -2.9454
15072SOL    HW246318   7.222   1.635   3.607  1.3294  0.7788 -1.1968
15073SOL     OW46319   3.311   4.620   0.764 -0.1336 -0.1515 -0.1236
15073SOL    HW146320   3.308   4.525   0.770 -0.4523 -0.0584  1.6619
15073SOL    HW246321   3.301   4.638   0.670 -0.4703 -1.8436 -0.4501
15074SOL     OW46322   6.688   5.462   3.115 -0.0400 -0.4950  0.0074
15074SOL    HW146323   6.728   5.378   3.092  1.1589 -0.0405  0.3457
15074SOL    HW246324   6.736   5.490   3.193  0.1253  0.8856 -0.5750
15075SOL     OW46325   1.802   1.427   2.883  0.1869  0.0742  0.2641
15075SOL    HW146326   1.721   1.462   2.920  0.7450 -0.9222  2.5874
15075SOL    HW246327   1.846   1.504   2.847 -0.5747  1.0751  1.3575
15076SOL     OW46328   6.283   3.537   3.151  0.3003 -0.5653  0.2782
15076SOL    HW146329   6.354   3.473   3.157  0.7290 -0.1820 -0.5737
15076SOL    HW246330   6.237   3.515   3.070 -0.1008 -0.3578  0.4476
15077SOL     OW46331   8.865   2.264   6.858 -0.0170  0.2350  0.0668
15077SOL    HW146332   8.848   2.213   6.937  1.7364 -1.5230 -0.6133
15077SOL    HW246333   8.906   2.345   6.890 -0.2783  0.0059  1.0030
15078SOL     OW46334   3.104   5.549   1.582 -0.0268 -0.0656  0.0103
15078SOL    HW146335   3.176   5.584   1.635 -1.0384  0.5195  1.0451
15078SOL    HW246336   3.058   5.489   1.640 -2.6073  2.3908  0.7460
15079SOL     OW46337   1.346   6.477   8.288  0.6781 -0.0989  0.0065
15079SOL    HW146338   1.347   6.565   8.251 -0.6441  0.2334  0.6972
15079SOL    HW246339   1.436   6.462   8.318  0.5109  1.7924  1.6304
15080SOL     OW46340   5.770   1.327   1.669  0.3697 -0.0215 -0.0894
15080SOL    HW146341   5.714   1.400   1.643 -0.0351 -0.2847  0.0273
15080SOL    HW246342   5.857   1.352   1.640  0.4009  0.9204  0.7381
15081SOL     OW46343   8.585   6.177   0.364  0.4737 -0.1400 -0.3291
15081SOL    HW146344   8.642   6.119   0.415 -0.4517 -1.2385 -0.5015
15081SOL    HW246345   8.641   6.210   0.294  1.5710  0.8272  0.9546
15082SOL     OW46346   6.391   0.975   7.314 -0.6196 -0.2462 -0.7139
15082SOL    HW146347   6.377   0.884   7.340  1.6505 -1.0289 -1.9280
15082SOL    HW246348   6.431   1.016   7.390 -0.9115 -0.4692 -0.4380
15083SOL     OW46349   8.379   8.446   2.135  0.1554  0.2594  0.8064
15083SOL    HW146350   8.318   8.506   2.092  0.9218 -0.7359 -1.8721
15083SOL    HW246351   8.461   8.496   2.141  0.3253  0.0605  0.1601
15084SOL     OW46352   5.625   7.201   3.047 -0.0068 -0.3877  0.0138
15084SOL    HW146353   5.589   7.119   3.014 -1.3506  0.5947 -1.0802
15084SOL    HW246354   5.639   7.254   2.969  2.4663 -0.1478  0.5405
15085SOL     OW46355   6.260   2.788   0.803 -0.0377 -0.0573 -0.4394
15085SOL    HW146356   6.226   2.803   0.891  1.0893  0.8461 -0.1244
15085SOL    HW246357   6.191   2.740   0.758 -1.7721  1.7325  0.1336
15086SOL     OW46358   6.557   0.319   8.606 -0.3226  0.1110 -0.1255
15086SOL    HW146359   6.527   0.383   8.541  0.3057  1.0855  0.5214
15086SOL    HW246360   6.651   0.335   8.614 -0.3787 -0.0309  0.9824
15087SOL     OW46361   0.031   8.521   1.047 -0.5404  0.3319 -0.5425
15087SOL    HW146362   0.055   8.432   1.020 -0.5915 -0.1284  0.8546
15087SOL    HW246363   0.073   8.578   0.983  0.6083 -0.6422 -0.6867
15088SOL     OW46364   6.294   1.771   5.195  0.0225 -0.1918  0.8858
15088SOL    HW146365   6.380   1.732   5.181 -0.1986  0.2372 -2.5543
15088SOL    HW246366   6.233   1.700   5.180 -0.2676  0.1117  0.6086
15089SOL     OW46367   4.577   0.543   7.037  0.4994  0.1456 -0.6930
15089SOL    HW146368   4.571   0.557   7.131 -1.4553 -0.5436 -0.6643
15089SOL    HW246369   4.612   0.625   7.002 -1.1626  1.3848  0.4023
15090SOL     OW46370   2.854   7.673   2.512 -0.6685 -0.0145  0.3666
15090SOL    HW146371   2.855   7.724   2.431  1.1764  1.7242  1.3954
15090SOL    HW246372   2.844   7.739   2.582 -2.2137 -1.4547  1.5879
15091SOL     OW46373   5.571   2.564   2.173  0.2628 -0.3288 -0.0852
15091SOL    HW146374   5.519   2.577   2.094  0.4460 -2.9489 -0.7205
15091SOL    HW246375   5.643   2.626   2.165  0.2998 -0.5679 -2.0024
15092SOL     OW46376   7.904   3.328   5.086 -0.6754  0.1943  0.5603
15092SOL    HW146377   7.963   3.367   5.150  2.7025 -0.1507 -2.0514
15092SOL    HW246378   7.861   3.402   5.044  0.8677  0.7660 -0.0726
15093SOL     OW46379   4.095   0.836   8.981 -0.2137  0.1714 -0.0050
15093SOL    HW146380   4.044   0.755   8.990 -1.2693  0.6710 -1.2575
15093SOL    HW246381   4.071   0.887   9.059  0.1109 -0.5222  0.5621
15094SOL     OW46382   2.188   6.374   8.849  0.0891  0.3628  0.2382
15094SOL    HW146383   2.138   6.415   8.920  1.1917  1.3080  0.4985
15094SOL    HW246384   2.235   6.302   8.892 -0.6649 -0.2351  0.0832
15095SOL     OW46385   6.812   6.506   1.663 -0.0989  0.0408 -0.1969
15095SOL    HW146386   6.728   6.485   1.703  0.1011 -0.2371  0.0837
15095SOL    HW246387   6.824   6.600   1.680 -0.3995  0.1044 -0.3317
15096SOL     OW46388   8.361   1.976   0.517 -0.4017 -0.5618  0.1107
15096SOL    HW146389   8.447   2.000   0.551  0.0019 -2.8602  0.9414
15096SOL    HW246390   8.364   2.002   0.425  0.5740  0.8391  0.5122
15097SOL     OW46391   1.064   8.053   5.306  0.5708 -0.3645  0.1540
15097SOL    HW146392   1.145   8.004   5.297 -0.6396 -2.3012 -0.7573
15097SOL    HW246393   1.016   8.036   5.225 -0.3827  1.4946  0.2612
15098SOL     OW46394   7.029   0.793   0.279 -0.0091  0.1944  0.4495
15098SOL    HW146395   7.064   0.804   0.368 -1.3734  1.0855  0.8994
15098SOL    HW246396   7.013   0.882   0.248  1.1324 -0.0690 -1.0091
15099SOL     OW46397   5.866   4.074   2.084  0.0926  0.0534  0.2883
15099SOL    HW146398   5.853   4.153   2.033 -1.0391 -0.4052 -0.1676
15099SOL    HW246399   5.922   4.019   2.030  3.3401  1.6164  1.8084
15100SOL     OW46400   0.222   8.618   1.955 -0.0389 -0.0468 -0.2172
15100SOL    HW146401   0.208   8.696   1.902  1.1641 -0.7034 -1.5528
15100SOL    HW246402   0.317   8.613   1.966 -0.2099 -0.2693  1.5375
15101SOL     OW46403   2.509   3.741   5.294 -0.1569 -0.2046 -0.3073
15101SOL    HW146404   2.452   3.689   5.236 -0.5610  0.5344 -0.5991
15101SOL    HW246405   2.543   3.678   5.357  2.1238 -1.5463 -2.6593
15102SOL     OW46406   2.723   3.014   2.363 -0.2512  0.3366 -0.6596
15102SOL    HW146407   2.691   2.940   2.415  0.2544  0.1722 -0.5809
15102SOL    HW246408   2.677   3.006   2.280  0.4495 -0.5821 -0.9765
15103SOL     OW46409   8.835   1.251   2.746  0.0192  0.2710 -0.1812
15103SOL    HW146410   8.822   1.319   2.680  0.6732  1.0221  0.4498
15103SOL    HW246411   8.877   1.179   2.698  3.5850  2.0302 -0.0530
15104SOL     OW46412   6.505   1.042   7.550  0.2420  0.1745 -0.4436
15104SOL    HW146413   6.552   1.117   7.514  1.9803 -0.4990  0.3125
15104SOL    HW246414   6.558   1.014   7.624 -0.4727 -1.6791 -0.5750
15105SOL     OW46415   6.180   6.437   0.679 -0.6512 -0.0721 -0.3067
15105SOL    HW146416   6.202   6.357   0.726  0.3352  0.6082  0.4187
15105SOL    HW246417   6.112   6.411   0.617 -0.1085 -1.5333 -0.3056
15106SOL     OW46418   8.538   2.350   6.121  0.1907  0.3198  0.0604
15106SOL    HW146419   8.470   2.350   6.189  0.5597 -1.4061  0.4758
15106SOL    HW246420   8.508   2.283   6.058 -0.1201  1.8477 -1.4866
15107SOL     OW46421   4.390   3.425   6.345 -0.1384 -0.0649  0.4790
15107SOL    HW146422   4.409   3.519   6.347  2.0444 -0.4232 -0.4735
15107SOL    HW246423   4.461   3.385   6.395 -0.5088 -1.2914  0.0614
15108SOL     OW46424   0.549   7.272   2.264 -0.0049 -0.0228  0.0101
15108SOL    HW146425   0.546   7.253   2.170 -1.0892 -1.2619  0.2520
15108SOL    HW246426   0.593   7.356   2.271  0.5765 -0.1704 -1.5702
15109SOL     OW46427   0.668   1.184   5.333 -0.0499  0.6630 -0.2758
15109SOL    HW146428   0.623   1.117   5.280  2.4329  0.0898 -1.8447
15109SOL    HW246429   0.609   1.200   5.406 -1.5785 -1.9274 -0.8022
15110SOL     OW46430   6.753   7.152   5.859  0.2041 -0.7115 -0.0932
15110SOL    HW146431   6.671   7.137   5.905 -0.2559  1.1013 -0.2200
15110SOL    HW246432   6.787   7.233   5.897  1.5260 -1.0006 -0.6009
15111SOL     OW46433   8.026   3.333   5.500 -0.0203  0.2130  0.5476
15111SOL    HW146434   8.070   3.354   5.582  0.1381 -2.3145  1.1881
15111SOL    HW246435   7.949   3.283   5.526  0.2216 -0.9462 -0.8504
15112SOL     OW46436   1.550   3.543   3.015 -0.1738 -0.4871  0.6097
15112SOL    HW146437   1.493   3.582   3.081  0.2306  0.2990  0.5109
15112SOL    HW246438   1.520   3.581   2.932 -0.1130 -0.7871  0.4501
15113SOL     OW46439   4.203   0.249   4.174  0.1391 -0.5722 -0.2564
15113SOL    HW146440   4.262   0.323   4.171 -1.7747  1.0355 -0.3633
15113SOL    HW246441   4.172   0.239   4.084  0.9302 -2.0067 -0.3965
15114SOL     OW46442   7.879   8.013   0.886 -0.1167 -0.1847  0.2673
15114SOL    HW146443   7.864   7.919   0.881 -2.1322  0.1376 -0.5282
15114SOL    HW246444   7.854   8.037   0.975 -0.6294 -0.2435  0.1394
15115SOL     OW46445   3.965   9.107   6.356 -1.4715 -0.7730  0.2330
15115SOL    HW146446   3.984   9.200   6.366 -0.5610 -0.8600 -0.5691
15115SOL    HW246447   4.009   9.066   6.431 -1.7715 -0.5774  0.5197
15116SOL     OW46448   4.284   7.823   8.257  0.6127 -0.8733  0.1298
15116SOL    HW146449   4.251   7.912   8.268 -0.2430 -1.0108 -1.1300
15116SOL    HW246450   4.231   7.770   8.317 -1.2725 -1.0188 -1.5397
15117SOL     OW46451   4.582   7.972   0.062 -0.5553  0.2619 -0.1684
15117SOL    HW146452   4.659   7.941   0.014 -1.4410 -1.4641 -0.5333
15117SOL    HW246453   4.614   7.988   0.151  0.0301 -1.5949  0.0074
15118SOL     OW46454   1.746   8.145   4.445 -0.1237 -0.0974 -0.4547
15118SOL    HW146455   1.756   8.133   4.351 -3.0509  1.2280 -1.0499
15118SOL    HW246456   1.757   8.239   4.459 -2.6521  0.2154 -0.0473
15119SOL     OW46457   2.126   0.518   0.010  0.0878  0.1182 -0.0390
15119SOL    HW146458   2.207   0.491  -0.033  2.1818  2.8825  1.8319
15119SOL    HW246459   2.128   0.474   0.095 -0.9959 -0.6639 -0.3970
15120SOL     OW46460   5.235   4.658   2.799 -0.4644 -0.4955 -0.0183
15120SOL    HW146461   5.324   4.647   2.765 -0.7502 -1.5369 -0.4679
15120SOL    HW246462   5.180   4.663   2.720 -0.6910  1.3655  0.2229
15121SOL     OW46463   5.954   3.510   5.106 -0.9540 -0.6983  0.0632
15121SOL    HW146464   5.941   3.572   5.034 -1.0365 -1.0586 -0.2323
15121SOL    HW246465   5.875   3.518   5.159 -0.5577  0.1407  0.5547
15122SOL     OW46466   7.128   5.338   1.344  0.0409  0.3564 -0.5221
15122SOL    HW146467   7.089   5.414   1.301  0.5375  0.9645  0.0845
15122SOL    HW246468   7.083   5.332   1.429  0.9484  0.8093  0.0060
15123SOL     OW46469   4.815   8.586   7.481 -0.4114 -0.3347  0.0537
15123SOL    HW146470   4.726   8.614   7.459 -0.2709 -0.5264 -0.8315
15123SOL    HW246471   4.870   8.631   7.417  0.1686  0.0873  0.8491
15124SOL     OW46472   6.525   7.086   3.834 -0.6855 -0.2524 -0.3457
15124SOL    HW146473   6.582   7.163   3.826 -0.2000 -0.7825 -2.8156
15124SOL    HW246474   6.443   7.112   3.793 -1.7227 -0.0584  1.7026
15125SOL     OW46475   8.929   3.447   3.884  0.3238 -0.1134 -0.2088
15125SOL    HW146476   8.932   3.380   3.816  3.2843  1.3532 -1.7119
15125SOL    HW246477   9.001   3.426   3.943  1.4793  1.7599 -0.8474
15126SOL     OW46478   6.686   0.140   1.746 -0.2020  0.2335  0.4542
15126SOL    HW146479   6.611   0.083   1.729 -0.2330  0.5919 -0.6998
15126SOL    HW246480   6.668   0.178   1.833 -0.4376 -1.0809  1.0035
15127SOL     OW46481   6.678   6.951   3.172 -0.2923 -0.2780 -0.0094
15127SOL    HW146482   6.746   6.997   3.122 -1.0137 -0.3350 -1.0516
15127SOL    HW246483   6.638   7.019   3.226  1.8195 -0.5532  2.0800
15128SOL     OW46484   0.827   1.873   7.815 -0.0767  0.7784  0.0288
15128SOL    HW146485   0.892   1.816   7.773  0.1246 -0.3002  1.6654
15128SOL    HW246486   0.751   1.869   7.759  0.6270  0.5005 -0.9288
15129SOL     OW46487   4.821   3.918   1.122 -0.0088 -0.3230 -0.6023
15129SOL    HW146488   4.792   3.935   1.212 -0.1783  0.7418 -0.8403
15129SOL    HW246489   4.743   3.882   1.079 -0.2211  0.0802 -0.5658
15130SOL     OW46490   2.760   1.638   0.073 -0.1416 -0.7430  0.2138
15130SOL    HW146491   2.715   1.694   0.136  0.2222  0.6370 -0.6916
15130SOL    HW246492   2.834   1.692   0.042  0.9500 -2.1823  0.1890
15131SOL     OW46493   3.262   2.945   8.496  0.3418 -0.3245 -0.0049
15131SOL    HW146494   3.195   2.943   8.565  1.6548 -0.6962  1.3034
15131SOL    HW246495   3.342   2.914   8.538  1.6665  1.2459 -1.2103
15132SOL     OW46496   4.948   7.581   7.551 -0.5442 -0.3722 -0.2917
15132SOL    HW146497   5.029   7.630   7.537 -0.1254 -1.0495 -0.3220
15132SOL    HW246498   4.961   7.500   7.503 -1.1126 -0.6271 -0.0274
15133SOL     OW46499   3.777   5.212   5.859  0.0995  0.9066 -0.2595
15133SOL    HW146500   3.707   5.234   5.797 -0.0888  0.2271 -0.2941
15133SOL    HW246501   3.746   5.246   5.943 -0.9391 -0.6083  0.0166
15134SOL     OW46502   1.512   3.630   3.984  0.7517 -0.1222 -0.5165
15134SOL    HW146503   1.571   3.558   4.009  2.3079  2.0305  2.7975
15134SOL    HW246504   1.566   3.688   3.931  1.1897  1.0097  1.0897
15135SOL     OW46505   8.550   8.440   4.896 -0.3952  0.2339 -0.0374
15135SOL    HW146506   8.631   8.388   4.898 -0.2865  0.4282  0.5122
15135SOL    HW246507   8.525   8.439   4.803 -0.8129 -1.4482  0.0491
15136SOL     OW46508   3.446   4.837   3.969  0.0914  0.0322 -0.1477
15136SOL    HW146509   3.459   4.859   3.877 -0.3451 -0.7135 -0.3970
15136SOL    HW246510   3.530   4.798   3.996 -0.0325 -0.4329 -0.4350
15137SOL     OW46511   1.895   7.236   5.056  0.2453  0.5159  0.0914
15137SOL    HW146512   1.939   7.318   5.032  0.4189  0.5499  0.5215
15137SOL    HW246513   1.919   7.175   4.986  1.3853  0.3986  0.5600
15138SOL     OW46514   7.209   8.634   4.724  0.0098  0.0046 -0.0332
15138SOL    HW146515   7.156   8.643   4.804  0.0449 -1.4730  0.1868
15138SOL    HW246516   7.158   8.576   4.668  0.9505 -0.6669 -0.2136
15139SOL     OW46517   8.068   2.261   1.966  0.0597 -0.7796 -0.4724
15139SOL    HW146518   7.981   2.291   1.994 -0.5149 -2.6327 -0.1811
15139SOL    HW246519   8.127   2.293   2.034 -0.3854  0.4176 -0.6237
15140SOL     OW46520   8.840   6.153   7.878  0.2483  0.2450 -0.3251
15140SOL    HW146521   8.903   6.082   7.887  1.7591  1.3546 -1.6062
15140SOL    HW246522   8.860   6.212   7.950 -1.8288 -1.1025  1.5173
15141SOL     OW46523   3.504   6.625   8.534  0.1689  0.1000 -0.0633
15141SOL    HW146524   3.416   6.632   8.497 -0.3799 -0.4038  1.1227
15141SOL    HW246525   3.553   6.697   8.493 -0.2962 -0.6263 -2.0255
15142SOL     OW46526   5.569   1.770   1.807 -0.3366 -0.5769  0.0888
15142SOL    HW146527   5.561   1.779   1.902  1.0777 -1.4650  0.3223
15142SOL    HW246528   5.625   1.843   1.781  0.6188 -1.2564  0.1874
15143SOL     OW46529   1.325   4.412   0.605  0.7695  0.2955  0.2202
15143SOL    HW146530   1.330   4.346   0.674 -0.5400 -0.5972 -0.4810
15143SOL    HW246531   1.288   4.365   0.530 -0.1244  1.7990 -0.3360
15144SOL     OW46532   0.830   3.620   8.806  0.4537  0.0650  0.6553
15144SOL    HW146533   0.873   3.636   8.722 -2.1314 -3.4050 -1.6260
15144SOL    HW246534   0.899   3.584   8.862  2.3232  2.7663  0.2738
15145SOL     OW46535   7.482   2.337   7.272  0.3291  0.3310 -0.6454
15145SOL    HW146536   7.576   2.345   7.257  0.1439 -0.0857 -2.1832
15145SOL    HW246537   7.442   2.379   7.196 -0.7458  1.0622  0.2975
15146SOL     OW46538   4.681   7.491   1.229 -0.0557 -0.1729 -0.1857
15146SOL    HW146539   4.643   7.571   1.265  0.5203 -0.5285  1.2991
15146SOL    HW246540   4.607   7.433   1.216 -0.2533 -0.1568  0.7940
15147SOL     OW46541   1.877   8.944   6.113  0.2388 -0.0930  0.0705
15147SOL    HW146542   1.905   9.001   6.042  1.3345 -1.1508 -0.3747
15147SOL    HW246543   1.956   8.899   6.141 -0.4166 -0.6576  1.0820
15148SOL     OW46544   6.359   2.641   5.055 -0.2084 -0.0546  0.2428
15148SOL    HW146545   6.311   2.568   5.016  0.6568 -0.4011 -0.2106
15148SOL    HW246546   6.301   2.716   5.045 -0.8529 -0.5515  0.1519
15149SOL     OW46547   7.252   0.858   0.959  0.0764 -0.0926 -0.0619
15149SOL    HW146548   7.201   0.934   0.933 -0.5330 -0.2337  0.6702
15149SOL    HW246549   7.290   0.882   1.044  0.9963 -0.1068 -0.4501
15150SOL     OW46550   3.354   0.502   7.791 -0.2973 -0.0745  0.2912
15150SOL    HW146551   3.310   0.455   7.721  0.9352  0.3654 -0.8342
15150SOL    HW246552   3.364   0.438   7.862 -2.2436 -0.3086  0.3958
15151SOL     OW46553   4.851   5.137   4.174 -0.0273 -0.5045  0.1072
15151SOL    HW146554   4.805   5.064   4.132  0.5489 -1.3224  0.8308
15151SOL    HW246555   4.794   5.212   4.161  0.4353 -0.5293 -2.7035
15152SOL     OW46556   7.786   1.215   7.039  0.1004 -0.6701 -0.0494
15152SOL    HW146557   7.808   1.205   6.946 -0.7142 -0.3739 -0.2801
15152SOL    HW246558   7.733   1.138   7.059  0.2508 -0.7182  0.1677
15153SOL     OW46559   1.186   6.645   1.795  0.1979  0.1385  0.2668
15153SOL    HW146560   1.250   6.627   1.726  0.9148  0.5877  0.7978
15153SOL    HW246561   1.129   6.568   1.795  0.9079 -0.4036 -0.0301
15154SOL     OW46562   8.941   5.129   6.376 -0.2938  0.0543 -0.0996
15154SOL    HW146563   8.874   5.175   6.427 -1.0806  1.2960 -2.1102
15154SOL    HW246564   8.898   5.049   6.348 -0.3560  0.0485  0.0105
15155SOL     OW46565   3.164   3.853   5.738 -0.0015  0.3178 -0.5309
15155SOL    HW146566   3.083   3.839   5.787  0.2106 -3.7171 -1.0218
15155SOL    HW246567   3.232   3.809   5.790  0.6145 -2.1945 -3.1683
15156SOL     OW46568   5.485   2.039   2.754  0.2184  0.1981 -0.0710
15156SOL    HW146569   5.515   2.106   2.693  1.7517  0.3263  0.7654
15156SOL    HW246570   5.560   1.980   2.765  0.2511  0.5314  2.1230
15157SOL     OW46571   3.736   0.398   5.375 -0.1153 -0.6269 -0.6037
15157SOL    HW146572   3.642   0.384   5.390 -0.0395 -1.6132 -0.9685
15157SOL    HW246573   3.739   0.461   5.304 -0.4860  0.4941  0.3403
15158SOL     OW46574   0.306   6.657   8.482  0.0357  0.6669  0.0076
15158SOL    HW146575   0.236   6.641   8.545  0.2174 -0.4378 -0.0517
15158SOL    HW246576   0.387   6.652   8.534  0.1923 -0.3526 -0.3071
15159SOL     OW46577   1.675   0.805   2.001 -0.8484 -0.6230  0.4838
15159SOL    HW146578   1.674   0.882   1.944  1.3098 -0.2305  0.8757
15159SOL    HW246579   1.598   0.754   1.974 -1.2713  0.7353 -1.0726
15160SOL     OW46580   6.505   0.127   4.100 -0.0541  0.4109 -0.1994
15160SOL    HW146581   6.456   0.179   4.036 -0.0370  0.0724 -0.4880
15160SOL    HW246582   6.529   0.047   4.053  0.6454  0.5052 -0.0152
15161SOL     OW46583   6.381   1.511   8.289  0.7909 -0.1036 -0.1920
15161SOL    HW146584   6.289   1.492   8.269  0.8295  0.5240 -1.0248
15161SOL    HW246585   6.382   1.604   8.313  0.8733 -0.6300  2.0695
15162SOL     OW46586   6.411   4.117   6.621  0.3732 -0.2530  0.0016
15162SOL    HW146587   6.363   4.087   6.545  1.4508  0.5535 -1.0362
15162SOL    HW246588   6.358   4.089   6.696 -1.6754  0.5884 -1.0645
15163SOL     OW46589   3.589   3.738   4.388 -0.2352  0.3405 -0.6478
15163SOL    HW146590   3.555   3.790   4.461 -1.4691  0.4059 -1.2349
15163SOL    HW246591   3.674   3.707   4.418 -1.0802 -0.3758  1.1748
15164SOL     OW46592   2.938   3.863   1.171 -0.2613 -0.5629 -0.5115
15164SOL    HW146593   2.916   3.857   1.263 -1.4723 -1.2632 -0.8215
15164SOL    HW246594   3.033   3.875   1.169 -0.2810 -0.1030  0.8178
15165SOL     OW46595   2.994   2.204   5.392 -0.0892  0.0791  1.0800
15165SOL    HW146596   3.009   2.262   5.467 -0.1198  0.9469  0.4365
15165SOL    HW246597   3.054   2.131   5.405 -0.0546  0.2450  1.9200
15166SOL     OW46598   0.790   3.634   5.229  0.8368  0.2674  0.3753
15166SOL    HW146599   0.758   3.636   5.138  0.7138  2.0110  0.4087
15166SOL    HW246600   0.816   3.725   5.246 -0.6445  0.3367  2.6219
15167SOL     OW46601   4.017   2.398   1.871  0.6655 -0.1718 -0.0106
15167SOL    HW146602   4.096   2.363   1.911  0.2000 -1.2289  0.0285
15167SOL    HW246603   4.003   2.343   1.794  0.2469  0.3308 -0.3047
15168SOL     OW46604   1.343   7.779   5.383  0.1119  0.4122 -0.0439
15168SOL    HW146605   1.341   7.740   5.295  3.0455 -1.6034  0.6350
15168SOL    HW246606   1.424   7.829   5.386  0.5641 -0.3552  1.7920
15169SOL     OW46607   5.912   4.087   3.318  0.0936  0.9757  0.0519
15169SOL    HW146608   5.985   4.063   3.375 -0.7726 -1.2825  0.2886
15169SOL    HW246609   5.942   4.066   3.230 -0.8375 -1.6585  0.2997
15170SOL     OW46610   1.974   0.889   9.095  0.4339  0.4297  0.2409
15170SOL    HW146611   1.984   0.938   9.013 -1.2062 -1.4049 -1.1290
15170SOL    HW246612   1.893   0.923   9.133  0.3608  0.1796  0.3053
15171SOL     OW46613   6.275   5.710   7.864  0.6134 -0.0562 -0.2840
15171SOL    HW146614   6.195   5.697   7.916 -0.2858 -1.1083 -1.8499
15171SOL    HW246615   6.282   5.805   7.854 -0.9352  0.0312 -0.8179
15172SOL     OW46616   1.472   7.017   5.901  0.3119  0.2815 -0.0646
15172SOL    HW146617   1.473   6.929   5.864  0.5419  1.3305 -2.8668
15172SOL    HW246618   1.380   7.035   5.921  0.3332 -0.7383  1.0222
15173SOL     OW46619   5.279   0.536   3.712  0.0750 -0.4754 -0.0003
15173SOL    HW146620   5.212   0.589   3.756  1.8796  1.8670  0.1214
15173SOL    HW246621   5.238   0.510   3.630 -0.5776  2.1407 -0.6096
15174SOL     OW46622   4.368   3.797   6.164  0.7282 -0.6082  0.1253
15174SOL    HW146623   4.400   3.878   6.124  1.2433 -1.1011 -0.4629
15174SOL    HW246624   4.311   3.758   6.097 -2.3808  0.9575  1.6191
15175SOL     OW46625   5.557   1.945   4.573  0.2443 -0.4748 -0.1825
15175SOL    HW146626   5.471   1.987   4.573  1.2335  1.7273 -1.9278
15175SOL    HW246627   5.549   1.874   4.509  0.2556  1.0187 -1.8893
15176SOL     OW46628   7.866   5.289   1.920 -0.3966  0.3073  0.5269
15176SOL    HW146629   7.869   5.311   2.014 -2.2449 -1.9738  1.1922
15176SOL    HW246630   7.804   5.217   1.914 -1.1565  1.1020 -2.6469
15177SOL     OW46631   5.381   6.300   1.152  0.2312 -0.7512  0.1162
15177SOL    HW146632   5.337   6.381   1.127 -0.4643 -1.8529 -2.5446
15177SOL    HW246633   5.382   6.302   1.248 -4.2676  0.1457  0.3742
15178SOL     OW46634   6.663   0.728   6.921  0.0131 -0.1605 -0.4043
15178SOL    HW146635   6.744   0.715   6.970  0.1513 -0.6035 -0.7471
15178SOL    HW246636   6.692   0.744   6.831 -0.2713 -0.0762 -0.4812
15179SOL     OW46637   7.838   4.360   6.523 -0.2331 -0.7214  0.1383
15179SOL    HW146638   7.779   4.296   6.561 -1.8861  0.6169 -0.0696
15179SOL    HW246639   7.787   4.441   6.518  1.6277  0.5258 -0.0008
15180SOL     OW46640   1.269   2.019   4.783  0.4258  0.6548  0.3102
15180SOL    HW146641   1.268   2.112   4.764 -0.8007  0.3857 -1.1332
15180SOL    HW246642   1.296   2.013   4.875 -0.3151  2.4716  0.6805
15181SOL     OW46643   8.762   0.995   1.258 -0.0539 -0.2918  0.2042
15181SOL    HW146644   8.734   1.011   1.168 -0.8316  0.3064  0.5433
15181SOL    HW246645   8.755   1.080   1.301  1.8649 -0.2159  0.4307
15182SOL     OW46646   3.761   3.289   9.080  0.9564 -0.0815 -0.1622
15182SOL    HW146647   3.822   3.313   9.149 -0.7987  0.5947  1.2110
15182SOL    HW246648   3.703   3.224   9.120  1.7240 -2.0079 -1.9432
15183SOL     OW46649   7.179   1.698   2.162  0.1634  0.3193  0.4998
15183SOL    HW146650   7.092   1.731   2.141  0.3244  1.1614  1.1106
15183SOL    HW246651   7.229   1.775   2.191  1.4413  0.0407 -0.8258
15184SOL     OW46652   6.107   3.542   4.031 -0.0439 -0.3659  0.4042
15184SOL    HW146653   6.033   3.573   4.084  0.5755  0.4358  0.8264
15184SOL    HW246654   6.130   3.458   4.070 -1.6834 -1.3740 -0.6888
15185SOL     OW46655   8.946   6.016   0.647  0.0224  0.4305  0.1300
15185SOL    HW146656   9.039   6.011   0.670 -0.3790  0.1652  1.8796
15185SOL    HW246657   8.920   5.925   0.634  0.1739  0.5622 -1.1474
15186SOL     OW46658   6.751   4.820   0.554 -0.0118 -0.2643  0.1066
15186SOL    HW146659   6.690   4.877   0.601 -0.5514  0.5130 -1.4654
15186SOL    HW246660   6.715   4.732   0.565  0.2654 -0.2168  1.6921
15187SOL     OW46661   2.009   4.068   1.386 -0.2357 -0.1346  0.1965
15187SOL    HW146662   1.975   4.156   1.404  1.2545  0.4077  0.6021
15187SOL    HW246663   2.079   4.083   1.322  0.6712 -0.8840  0.9871
15188SOL     OW46664   2.760   6.849   1.869 -0.1143 -0.1638 -0.0794
15188SOL    HW146665   2.707   6.902   1.929 -0.2620  0.2775 -0.5892
15188SOL    HW246666   2.850   6.862   1.898 -0.0479  1.2030 -0.8175
15189SOL     OW46667   0.949   0.674   2.337  0.0655  0.4772 -0.0887
15189SOL    HW146668   0.989   0.760   2.323  1.3729 -0.3056 -1.4017
15189SOL    HW246669   0.960   0.658   2.431 -1.2610  2.2148  0.4210
15190SOL     OW46670   5.468   6.147   7.591  0.2389  0.7949 -0.2011
15190SOL    HW146671   5.407   6.077   7.570 -0.2116  0.4854  1.9224
15190SOL    HW246672   5.417   6.227   7.582 -1.0986  0.4714  3.0648
15191SOL     OW46673   7.222   8.502   2.571 -0.1571 -0.1097 -0.2622
15191SOL    HW146674   7.279   8.499   2.494 -0.3072  2.0794 -0.5326
15191SOL    HW246675   7.278   8.475   2.644 -0.4701 -4.0464 -1.2314
15192SOL     OW46676   8.439   0.145   3.829  0.4237  0.0660  0.0660
15192SOL    HW146677   8.386   0.224   3.831 -1.2640 -0.9908 -0.4209
15192SOL    HW246678   8.448   0.119   3.921 -1.1655 -0.5069  0.0831
15193SOL     OW46679   9.099   8.546   0.350 -0.0652  0.5748  0.0978
15193SOL    HW146680   9.057   8.577   0.430 -0.0547 -0.2128  0.4134
15193SOL    HW246681   9.181   8.595   0.345 -1.8976  3.8270 -1.6916
15194SOL     OW46682   1.109   1.230   2.554 -0.3037  0.0549 -0.0920
15194SOL    HW146683   1.180   1.167   2.540  1.1277  1.8287 -1.2791
15194SOL    HW246684   1.131   1.272   2.637  0.5065  1.1281 -0.8234
15195SOL     OW46685   3.794   1.584   3.024 -0.0137  0.0671 -0.3190
15195SOL    HW146686   3.889   1.573   3.031 -0.0320  0.0441 -0.1091
15195SOL    HW246687   3.774   1.652   3.088  0.2002  1.8494 -2.0312
15196SOL     OW46688   7.618   5.652   1.230  0.0928 -0.3346  0.0491
15196SOL    HW146689   7.707   5.675   1.257  0.3812 -2.0503  0.6756
15196SOL    HW246690   7.586   5.593   1.298 -0.1828 -2.6290 -1.9155
15197SOL     OW46691   2.241   8.973   3.796 -0.1130  0.1915  0.1556
15197SOL    HW146692   2.251   9.022   3.877  0.3572 -1.6167  1.2647
15197SOL    HW246693   2.146   8.964   3.784 -0.1819  0.3433  0.5949
15198SOL     OW46694   4.456   6.639   8.566  0.5689  0.2136 -0.0177
15198SOL    HW146695   4.527   6.693   8.599  1.4777 -0.4209 -0.8950
15198SOL    HW246696   4.393   6.702   8.531  1.0940  0.7496 -0.0158
15199SOL     OW46697   6.992   5.441   4.052 -0.4873 -0.3235  0.6671
15199SOL    HW146698   7.081   5.407   4.059 -0.3918 -0.7011 -1.6217
15199SOL    HW246699   6.937   5.363   4.047 -0.7469 -0.1028  0.0692
15200SOL     OW46700   4.004   8.293   3.583 -0.6448  0.5928  0.2292
15200SOL    HW146701   3.982   8.360   3.519 -1.5356 -0.7834 -0.9816
15200SOL    HW246702   4.099   8.301   3.595  0.0299 -0.6410 -3.1661
15201SOL     OW46703   4.865   0.488   7.145  0.3108 -0.3745 -0.2791
15201SOL    HW146704   4.779   0.494   7.188  0.5140 -1.3468  0.2809
15201SOL    HW246705   4.927   0.475   7.217  1.0098  0.8123 -0.6312
15202SOL     OW46706   3.330   7.339   5.416 -0.4975  0.4951 -0.4476
15202SOL    HW146707   3.361   7.274   5.352 -1.7269 -0.1761 -0.3971
15202SOL    HW246708   3.248   7.373   5.378 -1.0220  0.3920  0.5596
15203SOL     OW46709   2.332   0.842   4.095 -0.8035  0.3859 -0.2138
15203SOL    HW146710   2.390   0.766   4.106  0.1254  0.7627 -2.1388
15203SOL    HW246711   2.380   0.914   4.136 -2.5975 -0.3209  3.5292
15204SOL     OW46712   3.713   7.242   0.718 -0.3516  0.9743  0.1688
15204SOL    HW146713   3.752   7.224   0.632 -0.2189 -1.1311  0.6291
15204SOL    HW246714   3.630   7.287   0.698 -1.5079 -1.5879 -1.2398
15205SOL     OW46715   4.511   8.586   8.458 -0.0201 -0.1681 -0.4444
15205SOL    HW146716   4.539   8.666   8.414  2.0314 -0.7325 -0.2990
15205SOL    HW246717   4.452   8.543   8.396 -1.5766  1.6521 -0.3104
15206SOL     OW46718   8.823   6.254   6.784  0.0316 -0.2091  0.2517
15206SOL    HW146719   8.775   6.325   6.826 -0.3514 -0.0631 -0.4139
15206SOL    HW246720   8.762   6.181   6.783 -1.0178  0.5782 -2.4650
15207SOL     OW46721   4.014   1.135   1.210  0.3731  0.4920  0.0695
15207SOL    HW146722   4.030   1.214   1.261  0.2077  0.2110  0.5611
15207SOL    HW246723   4.082   1.137   1.142  0.0920  1.2801 -0.2041
15208SOL     OW46724   4.727   6.090   8.594  0.1845 -0.3628  0.1833
15208SOL    HW146725   4.638   6.108   8.625  0.2887 -0.6877  0.6785
15208SOL    HW246726   4.768   6.041   8.665  1.1227  0.7239  0.4083
15209SOL     OW46727   5.879   8.240   2.214 -0.4176  0.2314 -0.3163
15209SOL    HW146728   5.971   8.225   2.238 -0.5546 -0.4440 -0.1913
15209SOL    HW246729   5.873   8.334   2.200  0.4910  0.1932 -1.1015
15210SOL     OW46730   8.283   5.105   7.840 -0.4150 -0.4105  0.8504
15210SOL    HW146731   8.312   5.048   7.768 -1.9379 -0.3565  0.1537
15210SOL    HW246732   8.334   5.184   7.830 -1.7409  0.2553 -1.2486
15211SOL     OW46733   0.528   1.010   1.862  0.3728 -0.0348 -0.3486
15211SOL    HW146734   0.551   1.102   1.872 -0.6042  0.1443  0.3870
15211SOL    HW246735   0.603   0.963   1.898  0.4330  0.4976  0.2419
15212SOL     OW46736   0.024   5.915   4.476  0.5671  0.3203  0.8699
15212SOL    HW146737   0.106   5.961   4.494  0.7550  0.0010  0.8166
15212SOL    HW246738   0.010   5.860   4.553  0.5317  0.1845  0.7667
15213SOL     OW46739   5.732   7.672   0.705 -0.2848 -0.2715 -0.1876
15213SOL    HW146740   5.746   7.749   0.759  0.0860 -0.9400  0.6909
15213SOL    HW246741   5.639   7.676   0.682 -0.1781  0.6385 -0.4842
15214SOL     OW46742   4.391   3.992   4.033 -0.3614 -0.0213 -0.2554
15214SOL    HW146743   4.387   3.916   3.975  1.1640  0.6695 -1.3262
15214SOL    HW246744   4.440   4.058   3.984 -1.1547  1.4766  0.8620
15215SOL     OW46745   1.311   1.690   7.501 -0.2046  0.4692  0.3633
15215SOL    HW146746   1.405   1.705   7.510  0.4547 -2.6842 -0.0514
15215SOL    HW246747   1.292   1.715   7.410  0.5142  0.0206  0.0766
15216SOL     OW46748   0.680   6.983   5.459  0.2925 -0.3687 -0.4228
15216SOL    HW146749   0.629   6.941   5.390  0.1571 -1.5806  0.3946
15216SOL    HW246750   0.630   6.968   5.539  0.4726  0.9690 -0.0237
15217SOL     OW46751   0.720   7.403   1.843  0.2117  0.3286  0.1390
15217SOL    HW146752   0.655   7.394   1.913  0.3957 -1.3810  0.1224
15217SOL    HW246753   0.699   7.333   1.781  1.4730  0.3590 -0.3536
15218SOL     OW46754   4.973   4.771   7.036  0.0458  0.1243 -0.2571
15218SOL    HW146755   4.982   4.730   6.950 -0.9588  0.3598 -0.4878
15218SOL    HW246756   4.909   4.841   7.023 -2.4149 -1.6646  1.2527
15219SOL     OW46757   2.302   8.574   1.004  0.1785 -0.2825  0.3939
15219SOL    HW146758   2.369   8.519   0.963 -2.3298 -0.8901 -3.4418
15219SOL    HW246759   2.251   8.514   1.058  0.6520 -0.5416  0.5559
15220SOL     OW46760   4.284   6.720   1.306  0.0698 -0.3360  0.3513
15220SOL    HW146761   4.272   6.667   1.385  0.0494 -0.3712  0.3253
15220SOL    HW246762   4.324   6.801   1.336  0.4357 -0.5101  0.3465
15221SOL     OW46763   6.988   1.358   5.617 -0.3708 -0.5189 -0.1215
15221SOL    HW146764   7.083   1.345   5.607 -0.2516  1.1232 -1.6648
15221SOL    HW246765   6.949   1.295   5.556 -0.3671 -2.0462  1.3932
15222SOL     OW46766   8.483   5.468   4.039  0.2945 -0.2786 -0.8173
15222SOL    HW146767   8.420   5.504   3.976  0.5018  0.7942 -0.4360
15222SOL    HW246768   8.546   5.421   3.986 -0.1493 -0.3150 -1.3170
15223SOL     OW46769   6.552   0.285   4.679 -0.7194 -0.2647  0.1743
15223SOL    HW146770   6.544   0.194   4.652 -0.8140 -0.2401  0.1188
15223SOL    HW246771   6.600   0.327   4.608 -0.7036 -0.2638  0.1853
15224SOL     OW46772   6.302   3.358   7.621  0.3538 -0.0359  0.1460
15224SOL    HW146773   6.307   3.276   7.573 -0.7985  0.5717 -1.0785
15224SOL    HW246774   6.216   3.394   7.599  1.0278  1.7565  0.2206
15225SOL     OW46775   2.871   3.179   3.368  0.3474  0.1670  0.7174
15225SOL    HW146776   2.826   3.182   3.284  0.5568  1.2192  0.6391
15225SOL    HW246777   2.945   3.120   3.353 -0.2080 -0.4800  0.4698
15226SOL     OW46778   6.150   6.687   4.639  0.1052  0.3011  0.4157
15226SOL    HW146779   6.096   6.736   4.700 -1.8054 -0.8782 -0.2337
15226SOL    HW246780   6.139   6.596   4.665  0.6389 -0.0795 -0.6301
15227SOL     OW46781   5.775   6.337   7.884 -0.0868 -0.2837  0.0146
15227SOL    HW146782   5.746   6.423   7.853 -2.0549 -0.6863  0.6331
15227SOL    HW246783   5.843   6.357   7.948  1.3352  0.6820 -1.6894
15228SOL     OW46784   2.862   2.851   7.665 -0.4351  0.0168  0.2746
15228SOL    HW146785   2.911   2.815   7.592 -1.6521 -0.3675 -0.3751
15228SOL    HW246786   2.881   2.945   7.662  1.5264 -0.3069  1.0478
15229SOL     OW46787   2.555   8.171   8.645 -0.3075  0.2862 -0.0501
15229SOL    HW146788   2.536   8.091   8.693  1.9727 -0.7958 -0.7991
15229SOL    HW246789   2.572   8.236   8.713 -2.6556  0.3297  0.5686
15230SOL     OW46790   4.434   8.519   0.320 -0.3283 -0.0226  0.1003
15230SOL    HW146791   4.364   8.541   0.259 -1.7444 -3.7555  0.1384
15230SOL    HW246792   4.511   8.506   0.264 -0.4570  0.9000 -0.3133
15231SOL     OW46793   8.789   6.386   4.942  0.7049 -0.3012  0.3571
15231SOL    HW146794   8.798   6.470   4.987 -0.1387 -1.5411  3.0044
15231SOL    HW246795   8.860   6.333   4.976  1.7836 -0.4545 -1.9721
15232SOL     OW46796   4.443   6.469   1.853 -0.0408  0.0879 -0.0992
15232SOL    HW146797   4.432   6.375   1.871  0.1996 -0.0495 -0.6534
15232SOL    HW246798   4.420   6.479   1.761  1.0690  0.3729 -0.3646
15233SOL     OW46799   5.658   7.230   4.666  0.8280 -0.0565  0.1650
15233SOL    HW146800   5.643   7.319   4.633  1.0070 -0.1941 -0.2994
15233SOL    HW246801   5.704   7.242   4.749  0.4047  0.2978  0.3498
15234SOL     OW46802   8.398   6.614   0.108  0.3441 -0.1480 -0.6509
15234SOL    HW146803   8.395   6.544   0.174 -0.7850  0.5199  0.0426
15234SOL    HW246804   8.485   6.651   0.117 -0.4779  1.3930  2.0991
15235SOL     OW46805   4.844   2.509   2.501  0.8448  0.4743  0.0747
15235SOL    HW146806   4.791   2.563   2.559 -0.3885 -1.2992  0.6857
15235SOL    HW246807   4.889   2.448   2.560 -0.9296 -1.7903 -0.7579
15236SOL     OW46808   6.197   2.827   4.973 -0.0629 -0.1996  0.0633
15236SOL    HW146809   6.230   2.847   4.885  1.5350  2.8765  1.2041
15236SOL    HW246810   6.117   2.879   4.981  0.6912  0.8707  0.9374
15237SOL     OW46811   1.354   5.869   7.591 -0.6132  0.0969 -0.0111
15237SOL    HW146812   1.404   5.836   7.517 -0.6023  0.1089 -0.0091
15237SOL    HW246813   1.273   5.817   7.591 -0.5071 -0.0667  0.1140
15238SOL     OW46814   6.617   8.476   8.972 -0.0687  0.1582 -0.1317
15238SOL    HW146815   6.675   8.529   9.026  0.4281  0.6943 -1.1571
15238SOL    HW246816   6.675   8.435   8.908 -0.6504 -0.3904 -0.3155
15239SOL     OW46817   4.659   5.458   5.323 -0.0607  0.5238 -0.1409
15239SOL    HW146818   4.696   5.546   5.318 -0.4564  0.6692 -0.5887
15239SOL    HW246819   4.569   5.471   5.352  0.4271  0.1181  1.6499
15240SOL     OW46820   8.439   2.551   2.343  0.2836 -0.6423 -0.4275
15240SOL    HW146821   8.383   2.577   2.417  0.5209 -0.8027 -0.1907
15240SOL    HW246822   8.391   2.480   2.301 -0.4635  0.2851 -1.1936
15241SOL     OW46823   1.561   7.945   4.910 -0.5391 -0.0513  0.5133
15241SOL    HW146824   1.544   7.945   4.816 -0.0714 -1.2883  0.4116
15241SOL    HW246825   1.583   7.854   4.931  1.5460  0.5889  1.4196
15242SOL     OW46826   5.985   6.837   6.776 -0.5066  0.6024  0.2580
15242SOL    HW146827   6.076   6.846   6.747 -0.6415 -0.1995 -0.4538
15242SOL    HW246828   5.968   6.743   6.771 -1.1325  0.6578  1.1639
15243SOL     OW46829   3.086   2.176   1.626 -0.4099 -0.6162  0.2770
15243SOL    HW146830   3.060   2.262   1.657  2.0822  0.0065  0.8698
15243SOL    HW246831   3.064   2.175   1.533  0.1952  0.9747  0.0889
15244SOL     OW46832   5.224   3.056   7.316  0.5472 -0.4381  0.3960
15244SOL    HW146833   5.157   3.045   7.248  1.8505  3.9389 -1.9875
15244SOL    HW246834   5.176   3.088   7.392 -0.4353 -0.6345 -0.1224
15245SOL     OW46835   3.172   5.641   1.174  0.1683  0.2580 -0.0951
15245SOL    HW146836   3.222   5.702   1.227 -0.7342 -0.5742  1.8053
15245SOL    HW246837   3.162   5.685   1.089  1.4654  1.7263  0.4790
15246SOL     OW46838   1.399   8.039   1.437 -0.1566  0.7397  0.5491
15246SOL    HW146839   1.417   8.109   1.500 -1.3836  0.0529  1.6986
15246SOL    HW246840   1.400   7.959   1.489  0.6850 -0.0730 -0.6550
15247SOL     OW46841   4.777   4.305   5.711 -0.0646 -0.1665 -0.2791
15247SOL    HW146842   4.684   4.295   5.692 -0.2041 -2.7006  1.3671
15247SOL    HW246843   4.819   4.231   5.667  1.2174  0.8667 -0.8994
15248SOL     OW46844   2.310   0.752   2.338  0.6591  0.1240  0.1630
15248SOL    HW146845   2.353   0.779   2.257  1.1122 -0.2074  0.2930
15248SOL    HW246846   2.309   0.657   2.335 -1.5742  0.1111 -0.6221
15249SOL     OW46847   4.296   5.193   3.878  0.1117  0.0948  0.0883
15249SOL    HW146848   4.202   5.178   3.868  0.0936  1.4798 -3.8995
15249SOL    HW246849   4.336   5.128   3.820  1.8202 -1.1609  2.4955
15250SOL     OW46850   1.435   5.028   2.533  0.0229 -0.4727  0.6593
15250SOL    HW146851   1.388   4.999   2.456 -1.0202  2.5288  0.0286
15250SOL    HW246852   1.408   4.968   2.602 -1.2716 -1.4854 -0.6742
15251SOL     OW46853   2.489   1.503   4.333  0.0031 -0.3040 -0.1473
15251SOL    HW146854   2.569   1.511   4.281 -0.2348 -0.1799 -0.4976
15251SOL    HW246855   2.439   1.583   4.314  0.0977 -0.0593  0.5911
15252SOL     OW46856   5.215   7.550   2.481  0.5473  0.5564  0.2672
15252SOL    HW146857   5.203   7.465   2.524 -0.8655  0.0812 -0.9986
15252SOL    HW246858   5.309   7.556   2.467  0.7610 -0.4253  1.0976
15253SOL     OW46859   1.084   8.492   4.546 -0.1652  0.4385  0.5467
15253SOL    HW146860   1.159   8.552   4.551  0.6750 -0.5599  0.3798
15253SOL    HW246861   1.118   8.416   4.498 -1.7277  0.5826 -0.8771
15254SOL     OW46862   1.172   1.757   6.794 -0.2174 -0.0575  0.1514
15254SOL    HW146863   1.221   1.675   6.783  0.9420  0.7035 -0.6105
15254SOL    HW246864   1.127   1.768   6.710  0.6512  0.7079 -0.2321
15255SOL     OW46865   4.584   7.953   8.417  0.1335  0.3641  0.8959
15255SOL    HW146866   4.657   8.011   8.439 -1.7911  3.1457  0.4912
15255SOL    HW246867   4.566   7.971   8.324 -0.6345 -0.8148  0.7875
15256SOL     OW46868   8.013   4.055   8.279 -0.5724 -0.4261 -0.2212
15256SOL    HW146869   8.053   4.008   8.353 -0.2445 -0.5769 -0.4917
15256SOL    HW246870   8.045   4.009   8.202 -1.4948 -0.7169 -0.4345
15257SOL     OW46871   3.218   3.093   8.825 -0.5126 -0.0869  0.7277
15257SOL    HW146872   3.274   3.116   8.751 -1.9892 -1.3485 -0.8329
15257SOL    HW246873   3.225   3.168   8.884 -1.3859  2.2174 -1.9042
15258SOL     OW46874   0.535   1.769   1.765  0.3372 -0.0588  0.2286
15258SOL    HW146875   0.625   1.749   1.790  0.7950 -0.5354 -1.6750
15258SOL    HW246876   0.535   1.768   1.669 -1.8275 -0.7048  0.1661
15259SOL     OW46877   1.766   2.377   7.979  0.5421  0.3128  0.2689
15259SOL    HW146878   1.714   2.453   7.953  0.5959  0.7314  1.3178
15259SOL    HW246879   1.706   2.324   8.032 -0.1144 -1.4259 -2.0781
15260SOL     OW46880   4.783   2.616   0.943  0.5977 -0.0045 -0.3047
15260SOL    HW146881   4.782   2.684   0.876  1.4564  0.8025  0.4602
15260SOL    HW246882   4.691   2.603   0.967  0.3736  0.4213 -0.9216
15261SOL     OW46883   9.114   8.247   7.992  0.5354  0.4131  0.1251
15261SOL    HW146884   9.170   8.218   7.920  0.6877 -0.6818  0.6749
15261SOL    HW246885   9.090   8.167   8.039  1.2980  1.1806  1.9265
15262SOL     OW46886   7.519   1.193   1.606 -0.1132 -1.0047 -0.4702
15262SOL    HW146887   7.563   1.260   1.658 -2.4711 -0.2530  0.6898
15262SOL    HW246888   7.502   1.236   1.522  0.1047 -0.7995 -0.4108
15263SOL     OW46889   4.426   2.751   3.788  0.2824  0.2395 -0.4417
15263SOL    HW146890   4.386   2.838   3.783 -0.7704 -0.2530 -0.9687
15263SOL    HW246891   4.511   2.762   3.746 -0.7536  0.5384 -2.5907
15264SOL     OW46892   2.968   8.942   3.367 -0.4489 -0.0116  0.2070
15264SOL    HW146893   2.975   8.858   3.322  0.7203 -0.0687  0.4820
15264SOL    HW246894   3.024   9.001   3.318 -1.7503  0.8035 -0.3666
15265SOL     OW46895   1.459   0.991   7.191 -0.0002  0.6612 -0.0675
15265SOL    HW146896   1.421   0.990   7.103  3.4890  0.2418 -1.7384
15265SOL    HW246897   1.506   1.074   7.196  0.3028  0.4354  1.2062
15266SOL     OW46898   6.184   2.614   2.647 -0.7109 -0.0308  0.1632
15266SOL    HW146899   6.100   2.570   2.636 -1.4499  1.0692  1.1815
15266SOL    HW246900   6.172   2.700   2.605 -0.2635  0.3226  0.7405
15267SOL     OW46901   5.652   4.017   8.871  0.3561 -0.2916  0.0514
15267SOL    HW146902   5.561   4.039   8.855  0.2650 -0.1224  0.7537
15267SOL    HW246903   5.650   3.956   8.945  0.7862 -0.5969 -0.1810
15268SOL     OW46904   7.723   5.052   5.869 -0.1034  1.2948 -0.5550
15268SOL    HW146905   7.763   5.096   5.944  0.8361  1.9024 -1.3824
15268SOL    HW246906   7.762   5.095   5.793  0.8997 -0.9797 -1.4282
15269SOL     OW46907   1.857   7.603   7.794 -0.1522 -0.0728  0.1343
15269SOL    HW146908   1.946   7.586   7.825  0.0289  0.1960 -0.2255
15269SOL    HW246909   1.868   7.629   7.702 -0.3294  2.6032  0.7825
15270SOL     OW46910   8.682   3.106   3.318  0.6880 -0.7628  0.1528
15270SOL    HW146911   8.723   3.183   3.277  1.4688 -1.1500  0.1827
15270SOL    HW246912   8.706   3.112   3.410  2.2328 -1.9328 -0.1278
15271SOL     OW46913   3.180   1.281   3.355 -0.0971 -0.5622  0.4474
15271SOL    HW146914   3.158   1.259   3.264  2.8659  0.6453 -0.6806
15271SOL    HW246915   3.231   1.361   3.349  1.0926 -1.0143  3.0987
15272SOL     OW46916   1.757   0.251   7.972 -0.3890  0.7994  0.1090
15272SOL    HW146917   1.751   0.206   7.887  0.5622  0.4095  0.2336
15272SOL    HW246918   1.674   0.232   8.015 -0.2813 -0.2612 -0.1329
15273SOL     OW46919   5.324   3.418   2.142  0.3904 -0.1906  0.1689
15273SOL    HW146920   5.383   3.343   2.142  0.3952 -0.2626  2.4280
15273SOL    HW246921   5.238   3.380   2.121  0.9566 -0.1710 -2.5317
15274SOL     OW46922   7.449   5.139   6.645 -0.1855 -0.0940 -0.5713
15274SOL    HW146923   7.392   5.128   6.721 -0.4060  0.3615 -0.6672
15274SOL    HW246924   7.422   5.223   6.607  0.2525 -0.0851 -0.8681
15275SOL     OW46925   0.408   6.082   3.440 -0.4545 -0.0764  0.3343
15275SOL    HW146926   0.361   6.112   3.518 -2.0121 -0.8087 -0.2892
15275SOL    HW246927   0.500   6.089   3.464 -0.8881  0.2902  2.0232
15276SOL     OW46928   2.415   1.849   6.216  0.2149  0.6449 -0.0085
15276SOL    HW146929   2.501   1.808   6.224  0.1177  0.5451  0.5748
15276SOL    HW246930   2.359   1.799   6.276  0.1818  1.8447  0.9893
15277SOL     OW46931   0.168   7.051   3.255 -0.1199 -0.1858 -0.5561
15277SOL    HW146932   0.261   7.039   3.273  0.3451  0.5062 -2.3126
15277SOL    HW246933   0.128   6.966   3.274  0.5929 -0.1010  1.6107
15278SOL     OW46934   7.305   3.654   8.257  0.4080 -0.0346  0.2630
15278SOL    HW146935   7.256   3.733   8.236 -0.6341 -1.1678 -1.9240
15278SOL    HW246936   7.394   3.684   8.271 -0.6697  2.0686  4.1060
15279SOL     OW46937   6.550   1.736   6.100 -0.0480 -0.4713 -0.3072
15279SOL    HW146938   6.501   1.813   6.073  0.8118  0.2088  0.0062
15279SOL    HW246939   6.493   1.692   6.163 -0.3944  0.1025 -0.2152
15280SOL     OW46940   5.019   8.949   1.703 -0.1009  0.3724  0.6514
15280SOL    HW146941   4.973   8.875   1.744 -0.7326  0.7264  0.6024
15280SOL    HW246942   5.026   9.014   1.773  1.7838 -0.2756  1.1293
15281SOL     OW46943   2.388   1.739   6.788  0.5588  0.2735 -0.5667
15281SOL    HW146944   2.465   1.688   6.814  0.3441  0.5048  0.5506
15281SOL    HW246945   2.421   1.829   6.782  0.2830  0.4384  0.3397
15282SOL     OW46946   1.256   5.980   8.174  0.0472 -0.2622 -0.1690
15282SOL    HW146947   1.216   5.907   8.221 -0.7453  1.5520  2.1532
15282SOL    HW246948   1.256   6.052   8.237  3.7514  0.9036 -1.2401
15283SOL     OW46949   0.746   4.271   4.223  0.6290 -0.1339  0.5277
15283SOL    HW146950   0.831   4.228   4.225  0.5901 -0.2387  2.8833
15283SOL    HW246951   0.761   4.358   4.259 -0.1753 -0.0033  0.5791
15284SOL     OW46952   0.748   4.322   8.642  0.3172 -0.1173 -0.3799
15284SOL    HW146953   0.709   4.329   8.555  0.6196  1.4897 -0.4206
15284SOL    HW246954   0.780   4.411   8.661  2.9029 -1.0731  0.1419
15285SOL     OW46955   3.960   2.921   8.015 -0.4089  0.0487 -0.0343
15285SOL    HW146956   4.053   2.932   7.997 -0.7353 -0.2759 -2.1318
15285SOL    HW246957   3.949   2.827   8.030 -0.3997  0.0918  0.2494
15286SOL     OW46958   6.635   0.616   3.318 -0.7044  0.2609 -0.1991
15286SOL    HW146959   6.624   0.703   3.280  1.3855  0.1196 -1.2246
15286SOL    HW246960   6.666   0.632   3.407 -1.2257  0.5378 -0.0582
15287SOL     OW46961   0.209   1.778   6.601  0.0088 -0.1007  0.0282
15287SOL    HW146962   0.119   1.786   6.568  0.6021  0.8137 -1.4231
15287SOL    HW246963   0.225   1.860   6.646  0.7846  0.5886 -1.4568
15288SOL     OW46964   1.892   6.779   4.672 -0.0677 -0.6084  0.4981
15288SOL    HW146965   1.963   6.748   4.616 -0.2683  0.7152 -0.5463
15288SOL    HW246966   1.856   6.855   4.625  0.0197  0.8262  2.6328
15289SOL     OW46967   7.963   6.027   3.021  0.0021 -0.3616  0.3335
15289SOL    HW146968   7.993   6.031   3.112  1.5613 -0.8692 -0.1266
15289SOL    HW246969   8.033   5.980   2.975 -0.8567 -0.2942 -1.0941
15290SOL     OW46970   5.268   1.320   3.953  0.9705  0.2340  0.0883
15290SOL    HW146971   5.178   1.352   3.942  1.5968  1.9348 -0.3104
15290SOL    HW246972   5.266   1.269   4.034 -0.3036  0.4031  0.1783
15291SOL     OW46973   3.611   6.607   4.580 -0.5007  0.3287 -0.2835
15291SOL    HW146974   3.561   6.638   4.656 -0.5401  1.6646 -0.8122
15291SOL    HW246975   3.545   6.597   4.511 -0.3883 -0.3188 -0.2961
15292SOL     OW46976   3.044   7.158   3.618  0.2763  0.2390 -0.2529
15292SOL    HW146977   3.138   7.171   3.614  0.2624  0.1189 -1.0451
15292SOL    HW246978   3.033   7.083   3.677  0.7050 -0.0573 -0.5484
15293SOL     OW46979   7.118   1.698   6.150  0.1610  0.4722  0.4894
15293SOL    HW146980   7.181   1.745   6.095  0.0489  1.2533  1.0205
15293SOL    HW246981   7.033   1.718   6.111 -0.0993  2.5450  1.9853
15294SOL     OW46982   7.282   6.214   6.060  0.0639 -0.5153  0.4054
15294SOL    HW146983   7.290   6.168   6.144 -1.3144  1.3232  1.6175
15294SOL    HW246984   7.347   6.284   6.064  0.4522 -0.8260 -0.3570
15295SOL     OW46985   7.272   2.750   8.167  0.3523 -0.1897  0.3821
15295SOL    HW146986   7.309   2.662   8.174  0.6060 -0.1686 -0.6196
15295SOL    HW246987   7.345   2.808   8.191  0.2236 -0.2385  0.9091
15296SOL     OW46988   5.364   3.908   6.768 -0.4496  0.1644  0.1892
15296SOL    HW146989   5.306   3.834   6.749  0.0747 -0.1381 -0.2426
15296SOL    HW246990   5.320   3.984   6.730 -2.5868  0.6837  3.2684
15297SOL     OW46991   6.707   1.145   6.594 -0.4474  0.4770  0.7659
15297SOL    HW146992   6.640   1.192   6.643  0.8797  2.4962  0.7525
15297SOL    HW246993   6.664   1.121   6.512 -2.0259 -0.9852  1.9555
15298SOL     OW46994   2.296   3.310   4.665  0.1407 -0.2157  0.2487
15298SOL    HW146995   2.242   3.239   4.629  3.7470 -3.1626  0.0984
15298SOL    HW246996   2.291   3.299   4.760  0.7146 -0.6898  0.2250
15299SOL     OW46997   1.865   7.074   0.036  0.4524 -0.0520 -0.4460
15299SOL    HW146998   1.780   7.105   0.003  1.3239  2.0400 -0.8688
15299SOL    HW246999   1.925   7.084  -0.038  1.1775 -1.1824 -0.0451
15300SOL     OW47000   5.850   3.185   8.742 -0.3671  0.2701  0.7790
15300SOL    HW147001   5.818   3.095   8.734 -0.5908  0.3973  0.2422
15300SOL    HW247002   5.776   3.235   8.777 -0.7955  0.5739 -0.5109
15301SOL     OW47003   2.219   8.553   4.119  0.3622 -0.6735  0.3094
15301SOL    HW147004   2.222   8.521   4.209 -0.5064 -1.2712  0.1314
15301SOL    HW247005   2.126   8.565   4.100  0.4884 -1.1682 -0.7184
15302SOL     OW47006   2.021   3.564   2.549 -0.6278  0.3176  0.3771
15302SOL    HW147007   1.992   3.474   2.564  0.5260 -0.0860  0.2826
15302SOL    HW247008   1.952   3.603   2.495 -0.9643 -0.6265  0.1125
15303SOL     OW47009   8.261   3.866   7.364  0.0718 -0.4111  0.2206
15303SOL    HW147010   8.177   3.911   7.352 -0.3678 -1.0821  0.7506
15303SOL    HW247011   8.240   3.773   7.352  1.0156 -0.4785 -1.1063
15304SOL     OW47012   5.834   6.184   2.394 -0.4836 -0.2005 -0.7541
15304SOL    HW147013   5.749   6.194   2.435 -0.6059 -0.8740 -0.8231
15304SOL    HW247014   5.892   6.155   2.464 -0.5849 -0.8838 -0.9386
15305SOL     OW47015   7.566   4.582   1.180 -0.3239 -0.1184  0.4543
15305SOL    HW147016   7.493   4.634   1.146 -0.7405 -1.1053 -0.1923
15305SOL    HW247017   7.630   4.648   1.210 -1.3618  0.7588  0.8259
15306SOL     OW47018   2.521   5.692   7.606 -0.0142  0.4903 -0.1074
15306SOL    HW147019   2.457   5.661   7.671  0.8750  0.7460  0.9096
15306SOL    HW247020   2.591   5.731   7.658  0.6939  0.7563 -1.2342
15307SOL     OW47021   8.146   2.962   4.215  0.4725  0.2595 -0.0244
15307SOL    HW147022   8.162   2.891   4.153  0.4814  1.3863 -1.3618
15307SOL    HW247023   8.231   3.006   4.224  0.6266 -0.2724  1.3049
15308SOL     OW47024   7.431   4.241   4.083 -0.0789  0.2470  0.1870
15308SOL    HW147025   7.456   4.251   3.992 -1.1106  1.1514 -0.0137
15308SOL    HW247026   7.335   4.247   4.083 -0.1019  0.1781  1.3126
15309SOL     OW47027   5.544   6.565   3.823 -0.2374  0.1098  0.2328
15309SOL    HW147028   5.599   6.643   3.822  0.6324 -0.4776  0.9170
15309SOL    HW247029   5.605   6.493   3.843 -0.9657 -0.7810 -0.6534
15310SOL     OW47030   0.598   6.388   1.303  0.0875  0.0642  0.2540
15310SOL    HW147031   0.537   6.348   1.364  1.0205  0.1778  1.2988
15310SOL    HW247032   0.551   6.465   1.269 -0.9943 -0.8269 -0.3368
15311SOL     OW47033   0.396   1.015   6.802  0.3825 -0.1352  0.5632
15311SOL    HW147034   0.386   0.931   6.847 -0.8401 -0.2137  0.1860
15311SOL    HW247035   0.491   1.029   6.797  0.5817 -0.5624  2.3335
15312SOL     OW47036   2.104   4.793   5.072 -0.3533  0.0266 -0.2618
15312SOL    HW147037   2.138   4.820   5.158 -0.8622 -0.4688  0.0990
15312SOL    HW247038   2.063   4.708   5.088  0.6758 -0.6824 -1.2587
15313SOL     OW47039   1.356   2.704   9.023  0.7621 -0.3329 -0.2241
15313SOL    HW147040   1.321   2.721   9.110 -0.6012  1.1811 -1.0179
15313SOL    HW247041   1.314   2.623   8.994  0.5751 -0.3816  0.1890
15314SOL     OW47042   5.076   7.561   6.918  0.4616 -0.4243  0.1528
15314SOL    HW147043   5.080   7.632   6.855 -0.9329  0.3540  0.8820
15314SOL    HW247044   5.018   7.496   6.878  1.1135 -0.8076 -0.1790
15315SOL     OW47045   3.753   4.401   3.629 -0.7135  0.0197 -0.1502
15315SOL    HW147046   3.757   4.478   3.573  2.5477 -0.3637 -0.6689
15315SOL    HW247047   3.727   4.330   3.570 -0.2992  0.1385 -0.4796
15316SOL     OW47048   7.513   2.542   5.613 -0.4402 -0.1214  0.4340
15316SOL    HW147049   7.581   2.505   5.557  1.6149 -0.7896  3.1998
15316SOL    HW247050   7.520   2.636   5.601 -0.3061 -0.2587 -0.6786
15317SOL     OW47051   8.985   0.795   2.996 -0.9550 -0.6687  0.4925
15317SOL    HW147052   9.056   0.732   2.997  1.4256  1.7948 -0.2904
15317SOL    HW247053   8.949   0.789   2.907  0.9788  0.7190 -0.4610
15318SOL     OW47054   0.826   5.869   7.166  0.4764 -0.1761  0.2721
15318SOL    HW147055   0.870   5.864   7.080  1.7090  1.5967  0.7503
15318SOL    HW247056   0.733   5.873   7.145  0.7431  0.0756 -0.9705
15319SOL     OW47057   5.296   2.470   8.939 -0.3330 -0.2250  0.4538
15319SOL    HW147058   5.335   2.473   9.027  0.6530  1.2432  0.0160
15319SOL    HW247059   5.361   2.427   8.885 -0.5949 -0.4100  0.2831
15320SOL     OW47060   6.677   5.762   7.024 -0.2464  0.3795  0.0145
15320SOL    HW147061   6.634   5.782   6.941 -1.1413  0.0456  0.3802
15320SOL    HW247062   6.694   5.847   7.064 -1.5569  0.5033  0.3409
15321SOL     OW47063   7.631   6.576   2.873 -0.9450  0.2071  0.6126
15321SOL    HW147064   7.558   6.518   2.897 -1.4450  0.2114 -0.8173
15321SOL    HW247065   7.676   6.530   2.802 -0.4589  0.8977  0.4666
15322SOL     OW47066   7.893   8.755   3.592  0.1191 -0.2855  0.4283
15322SOL    HW147067   7.815   8.733   3.541 -0.9263  1.4629  1.1669
15322SOL    HW247068   7.892   8.851   3.596  2.4243 -0.2068  0.3238
15323SOL     OW47069   1.769   7.949   8.459  0.1045 -0.0717 -0.1877
15323SOL    HW147070   1.800   8.038   8.475  1.3949 -0.5043 -0.1465
15323SOL    HW247071   1.752   7.913   8.546 -1.3584  0.4221 -0.2365
15324SOL     OW47072   2.225   0.309   1.785 -0.0537 -0.4755  1.0202
15324SOL    HW147073   2.221   0.315   1.690  1.6597  0.3370  0.9569
15324SOL    HW247074   2.134   0.310   1.814 -0.6342 -1.5988 -0.6406
15325SOL     OW47075   6.271   3.486   0.345  0.1486  0.1008  0.1307
15325SOL    HW147076   6.192   3.513   0.297 -0.2361 -1.3310 -0.0692
15325SOL    HW247077   6.243   3.480   0.436 -0.7700 -3.0376 -0.2518
15326SOL     OW47078   7.025   2.136   0.811 -0.0169 -0.9596  0.2449
15326SOL    HW147079   6.951   2.130   0.871  0.1728 -1.6089  0.4286
15326SOL    HW247080   7.008   2.214   0.758 -0.9633 -1.2488  0.1041
15327SOL     OW47081   0.263   0.591   3.233 -0.0014  0.5157  0.4264
15327SOL    HW147082   0.206   0.657   3.273  2.0307  1.1520  2.4672
15327SOL    HW247083   0.274   0.524   3.300  1.1436  0.0914 -0.1658
15328SOL     OW47084   6.736   7.316   3.018  0.0763 -0.1815  0.5364
15328SOL    HW147085   6.749   7.373   3.094  0.8345 -0.1106  0.3564
15328SOL    HW247086   6.713   7.376   2.947  1.9091  0.0233  0.0908
15329SOL     OW47087   7.230   6.776   8.567  0.3215  0.3908  0.1052
15329SOL    HW147088   7.200   6.755   8.655 -1.5396 -0.8567 -0.7758
15329SOL    HW247089   7.194   6.863   8.549 -0.5784  0.0043  0.0253
15330SOL     OW47090   5.020   4.271   6.653 -0.4871  0.4849  0.2386
15330SOL    HW147091   5.088   4.333   6.679 -1.0713  1.4367 -0.4549
15330SOL    HW247092   4.940   4.323   6.648 -0.7908 -0.0951 -1.3953
15331SOL     OW47093   7.545   9.014   7.811  0.5113 -0.3387 -0.5596
15331SOL    HW147094   7.608   8.942   7.808  1.9340  0.8696 -2.4500
15331SOL    HW247095   7.474   8.986   7.753 -0.4087 -1.4178  1.0369
15332SOL     OW47096   6.478   7.600   3.242  0.4207 -0.1893 -0.4538
15332SOL    HW147097   6.438   7.549   3.312  0.0751 -1.1980 -1.3489
15332SOL    HW247098   6.432   7.571   3.163  2.9206 -1.4435 -1.5474
15333SOL     OW47099   5.783   8.934   5.304 -0.2096 -0.0470 -0.5760
15333SOL    HW147100   5.834   8.916   5.226  0.2462  1.2148 -0.6007
15333SOL    HW247101   5.804   8.863   5.364  0.3249 -0.4095 -1.1838
15334SOL     OW47102   7.192   1.760   3.117 -0.7044 -0.2385  0.2686
15334SOL    HW147103   7.284   1.739   3.103 -0.4077 -0.5856  2.4961
15334SOL    HW247104   7.184   1.851   3.087  0.1035 -0.5045 -0.8406
15335SOL     OW47105   4.302   5.615   8.321  0.0600 -0.1580  0.2525
15335SOL    HW147106   4.366   5.595   8.390  0.0569  4.2969  1.8545
15335SOL    HW247107   4.354   5.649   8.249 -0.2787  1.1275  0.5899
15336SOL     OW47108   8.149   7.261   3.164 -0.3235 -0.0631  0.5808
15336SOL    HW147109   8.167   7.321   3.092 -1.9620 -0.9491 -0.6373
15336SOL    HW247110   8.194   7.300   3.240  1.1562  1.0699 -0.8113
15337SOL     OW47111   2.480   0.077   8.399  0.5609 -0.6391 -0.3877
15337SOL    HW147112   2.482   0.012   8.470  1.0012 -0.1999  0.0167
15337SOL    HW247113   2.485   0.025   8.319 -2.4291 -1.3045 -0.2323
15338SOL     OW47114   2.593   6.853   6.701 -0.1064 -0.8215 -0.2351
15338SOL    HW147115   2.595   6.887   6.611 -1.3282 -2.3298 -0.8739
15338SOL    HW247116   2.568   6.929   6.754  1.5441  0.3285 -1.0128
15339SOL     OW47117   0.138   6.345   0.843  0.5744  0.0297 -0.1212
15339SOL    HW147118   0.063   6.392   0.880 -0.7064 -0.7075 -1.6418
15339SOL    HW247119   0.174   6.294   0.915  0.3303  1.2684  0.9063
15340SOL     OW47120   0.081   3.743   2.285 -0.4333  0.9336 -0.7266
15340SOL    HW147121   0.099   3.703   2.371 -1.7685 -0.1567 -0.9137
15340SOL    HW247122   0.031   3.822   2.305 -2.1564 -0.1498 -0.5046
15341SOL     OW47123   4.806   2.150   0.495 -0.6385  0.0842  0.2501
15341SOL    HW147124   4.734   2.209   0.472 -2.0511 -2.2186 -1.7092
15341SOL    HW247125   4.846   2.128   0.411  0.3110 -1.1521  1.0004
15342SOL     OW47126   2.154   4.218   0.377 -0.4620  0.0614 -0.3376
15342SOL    HW147127   2.122   4.179   0.458  0.4808  2.3827  1.2512
15342SOL    HW247128   2.075   4.253   0.334 -1.1468 -2.3040 -1.1903
15343SOL     OW47129   7.419   7.750   8.608 -0.2071 -0.5616  0.0849
15343SOL    HW147130   7.367   7.698   8.546 -0.9423  0.6082 -0.3111
15343SOL    HW247131   7.483   7.688   8.643 -0.3223 -1.4562 -1.2075
15344SOL     OW47132   6.576   2.286   3.746 -0.4107 -0.1259 -0.3163
15344SOL    HW147133   6.626   2.205   3.750  1.9566  1.2997  1.1918
15344SOL    HW247134   6.551   2.304   3.837 -1.1206  0.7253 -0.6586
15345SOL     OW47135   5.796   2.812   7.967 -0.5407 -0.1398 -0.0288
15345SOL    HW147136   5.705   2.834   7.946 -0.3809  2.0667  1.2831
15345SOL    HW247137   5.835   2.895   7.993  1.7752 -1.1115 -0.1835
15346SOL     OW47138   5.780   8.757   4.742  0.3482  0.7750  0.1310
15346SOL    HW147139   5.746   8.753   4.831 -0.2299  0.9917 -0.0695
15346SOL    HW247140   5.848   8.690   4.739 -1.4008 -1.1016  0.0178
15347SOL     OW47141   4.172   8.611   7.893  0.1867 -0.6024  0.0898
15347SOL    HW147142   4.154   8.597   7.986 -1.8807 -1.8165 -0.4197
15347SOL    HW247143   4.260   8.575   7.880  0.8181  0.2626  1.6889
15348SOL     OW47144   1.464   0.224   4.585 -0.0810  0.3869  0.1443
15348SOL    HW147145   1.436   0.315   4.599  1.5044  0.9617 -0.1535
15348SOL    HW247146   1.386   0.180   4.553 -0.4718  2.1043 -1.4980
15349SOL     OW47147   5.108   3.179   5.882  0.2626  0.1131  0.1927
15349SOL    HW147148   5.047   3.244   5.915 -0.1037  0.9988 -2.0435
15349SOL    HW247149   5.070   3.150   5.799  1.6754 -1.1317 -0.0722
15350SOL     OW47150   2.054   3.351   3.032  0.4101  0.4353 -0.2410
15350SOL    HW147151   2.088   3.395   2.954  1.1859 -0.0594 -0.1936
15350SOL    HW247152   1.988   3.411   3.066 -1.7316 -0.3519 -2.5932
15351SOL     OW47153   0.037   2.380   2.932  0.1627  0.4621 -0.0679
15351SOL    HW147154   0.074   2.296   2.906 -0.6189  0.7209 -2.2017
15351SOL    HW247155  -0.055   2.375   2.907 -0.0148  1.7390  0.2636
15352SOL     OW47156   5.518   1.738   3.672  0.8068 -0.3073  0.5676
15352SOL    HW147157   5.597   1.789   3.656  0.4177  0.2380  0.3848
15352SOL    HW247158   5.491   1.763   3.761 -0.1623  0.8744 -0.0299
15353SOL     OW47159   6.593   7.433   8.133  0.1520  0.3372  0.2067
15353SOL    HW147160   6.626   7.522   8.138  2.9129 -0.5010 -0.7354
15353SOL    HW247161   6.641   7.395   8.059 -0.0142 -2.2484  1.3271
15354SOL     OW47162   3.968   6.389   8.913  0.0937 -0.2449 -0.1834
15354SOL    HW147163   3.914   6.443   8.854 -0.3527  0.7226  1.0795
15354SOL    HW247164   3.948   6.421   9.000  2.8080  0.2142  0.3440
15355SOL     OW47165   5.787   8.680   7.975 -0.7435  0.1099  0.5887
15355SOL    HW147166   5.809   8.616   7.907 -0.7577  0.1363  0.5596
15355SOL    HW247167   5.699   8.656   8.003 -1.7492  1.5738 -1.1052
15356SOL     OW47168   4.589   2.843   8.503 -0.1084 -0.0172  0.7473
15356SOL    HW147169   4.548   2.912   8.555  0.2289  0.9947 -0.2937
15356SOL    HW247170   4.681   2.869   8.497  0.2058 -1.0034  1.0272
15357SOL     OW47171   4.272   8.938   4.673 -0.4103  0.1548 -0.1394
15357SOL    HW147172   4.181   8.918   4.654 -0.1818 -0.6758 -0.4260
15357SOL    HW247173   4.314   8.852   4.681  0.5504  0.5197 -1.0306
15358SOL     OW47174   1.573   0.548   1.913 -0.1301  0.2211  0.2332
15358SOL    HW147175   1.572   0.548   2.009 -2.5909  0.6473  0.2728
15358SOL    HW247176   1.571   0.456   1.889  1.0864  0.0962  0.5595
15359SOL     OW47177   2.815   4.540   2.955 -0.0055  0.1679  0.3618
15359SOL    HW147178   2.892   4.484   2.960 -0.9201 -1.0370  1.4032
15359SOL    HW247179   2.741   4.480   2.954 -0.9807  1.3275  0.4016
15360SOL     OW47180   0.021   2.746   8.893 -0.1897  0.2966 -0.4312
15360SOL    HW147181   0.111   2.763   8.921  0.5425  1.1216 -2.9834
15360SOL    HW247182  -0.033   2.788   8.960  1.2867 -0.3046  1.2222
15361SOL     OW47183   2.245   1.663   3.581 -0.0751  0.0410  0.1054
15361SOL    HW147184   2.190   1.606   3.527 -0.8343  0.8436  0.0146
15361SOL    HW247185   2.335   1.643   3.553 -0.2881 -1.3551  0.3296
15362SOL     OW47186   1.080   1.194   0.346  0.3744 -0.0344  0.1724
15362SOL    HW147187   1.052   1.225   0.260 -0.8821 -1.1048  0.1601
15362SOL    HW247188   1.070   1.269   0.403 -0.3676  0.2469 -0.3099
15363SOL     OW47189   2.305   7.769   6.537  0.2407 -0.4245  0.4758
15363SOL    HW147190   2.285   7.677   6.521 -1.3394 -0.1133  0.4668
15363SOL    HW247191   2.318   7.775   6.632  2.1495 -0.9467  0.2813
15364SOL     OW47192   1.900   5.944   7.405  0.6186  0.2823 -0.4193
15364SOL    HW147193   1.918   6.008   7.337 -0.3826  0.2495 -0.7393
15364SOL    HW247194   1.856   5.994   7.474  0.2347  0.0350 -0.4787
15365SOL     OW47195   7.789   7.325   1.250 -0.2857  0.0104  0.0534
15365SOL    HW147196   7.877   7.361   1.235 -0.5113  0.2834 -0.6510
15365SOL    HW247197   7.757   7.305   1.162 -1.1495  0.4274  0.2685
15366SOL     OW47198   7.237   4.922   2.054  0.2323 -0.0374  0.1091
15366SOL    HW147199   7.220   4.891   1.965 -2.5367 -0.1502  0.5824
15366SOL    HW247200   7.250   5.017   2.044 -1.8932  0.2619 -0.2958
15367SOL     OW47201   8.495   5.757   0.373 -0.3020  0.1485  0.0786
15367SOL    HW147202   8.505   5.837   0.424  0.3795  0.0898  0.0441
15367SOL    HW247203   8.479   5.788   0.283  1.3715  0.2807 -0.2210
15368SOL     OW47204   1.729   1.961   7.612  0.3317 -0.1519 -0.1904
15368SOL    HW147205   1.818   1.934   7.591  0.6209  0.9815 -0.4723
15368SOL    HW247206   1.731   2.057   7.608 -0.0255  0.1212  3.2230
15369SOL     OW47207   7.640   8.239   4.897 -0.2577  0.0042  0.5544
15369SOL    HW147208   7.635   8.334   4.904  1.4205  0.7008 -4.0465
15369SOL    HW247209   7.724   8.215   4.936  1.5344  1.2472 -2.2046
15370SOL     OW47210   2.766   8.318   1.244  0.7155 -0.0192  0.7499
15370SOL    HW147211   2.851   8.335   1.285  0.8316 -0.6896  0.7955
15370SOL    HW247212   2.755   8.390   1.183 -1.1329  3.2107  4.4402
15371SOL     OW47213   1.315   7.444   2.945  0.6052 -0.6097  0.4097
15371SOL    HW147214   1.370   7.507   2.898  0.7392 -1.2851 -0.3434
15371SOL    HW247215   1.311   7.367   2.888 -1.0318 -0.6224  0.4999
15372SOL     OW47216   1.873   5.454   0.210 -0.8737  0.3498 -0.3876
15372SOL    HW147217   1.942   5.393   0.235 -1.7087 -0.0431  1.0232
15372SOL    HW247218   1.816   5.460   0.287 -1.1729  2.4039 -0.7122
15373SOL     OW47219   8.001   5.867   1.488  0.4864 -0.3552  0.2551
15373SOL    HW147220   8.083   5.822   1.509  1.2167  1.2593  1.0342
15373SOL    HW247221   7.977   5.912   1.568 -0.6302  0.0080 -0.2695
15374SOL     OW47222   2.585   1.254   7.422  0.0519 -0.5067 -0.7360
15374SOL    HW147223   2.641   1.228   7.495  2.2629 -1.1312 -2.5497
15374SOL    HW247224   2.638   1.316   7.372 -1.4922  0.0948 -1.6993
15375SOL     OW47225   3.741   3.359   3.554 -0.2139 -0.6520  0.1092
15375SOL    HW147226   3.763   3.391   3.641 -0.7372  0.8507 -0.2918
15375SOL    HW247227   3.778   3.270   3.552  0.0444 -0.6197  1.7465
15376SOL     OW47228   7.204   4.777   5.606 -0.0385 -0.0242  0.2949
15376SOL    HW147229   7.109   4.787   5.597  0.0658  1.8744  0.8123
15376SOL    HW247230   7.217   4.684   5.623 -1.5950 -0.7562 -2.0235
15377SOL     OW47231   8.876   8.650   3.360  0.4490  0.1785 -0.7689
15377SOL    HW147232   8.846   8.653   3.451  1.8734 -0.6158 -0.2472
15377SOL    HW247233   8.825   8.718   3.316 -1.0022 -0.0994  0.3865
15378SOL     OW47234   3.597   2.809   4.145  0.1877  0.6126  0.3435
15378SOL    HW147235   3.689   2.807   4.172  0.2941 -0.5088 -0.0508
15378SOL    HW247236   3.597   2.770   4.057 -0.7562 -0.0929  0.6413
15379SOL     OW47237   5.672   0.699   2.695  0.0370 -0.1726  0.0715
15379SOL    HW147238   5.617   0.770   2.662 -0.7833  0.0702  1.8254
15379SOL    HW247239   5.636   0.620   2.654  0.8367  0.3557 -1.7441
15380SOL     OW47240   8.737   5.828   6.539 -0.1088  0.3774 -0.3787
15380SOL    HW147241   8.667   5.765   6.556  0.5822 -1.3219 -3.2032
15380SOL    HW247242   8.797   5.818   6.612 -0.8106 -1.1047  0.0237
15381SOL     OW47243   8.865   6.875   4.738  0.1242 -0.3239 -0.3937
15381SOL    HW147244   8.922   6.829   4.677  0.7936  0.3969 -0.3311
15381SOL    HW247245   8.924   6.908   4.806 -0.0041  2.2183 -1.4032
15382SOL     OW47246   7.255   3.399   4.770  0.6613 -0.3573  0.0437
15382SOL    HW147247   7.216   3.388   4.684 -2.3282  1.3550  1.0240
15382SOL    HW247248   7.347   3.377   4.758  0.2036 -0.9347 -3.3725
15383SOL     OW47249   0.192   1.828   2.259 -0.5318 -0.3518 -0.5387
15383SOL    HW147250   0.204   1.739   2.294  0.5460  0.7950  2.2448
15383SOL    HW247251   0.268   1.841   2.202 -0.8770 -1.2899 -1.2523
15384SOL     OW47252   3.592   4.716   0.876  0.0498 -0.6293  0.8921
15384SOL    HW147253   3.513   4.682   0.832 -0.5713  0.8246  0.8265
15384SOL    HW247254   3.567   4.723   0.968 -1.3322  3.3243  0.4380
15385SOL     OW47255   7.119   6.907   7.410 -0.1564 -0.2372  0.3494
15385SOL    HW147256   7.026   6.930   7.418 -0.5345 -1.9280  1.1210
15385SOL    HW247257   7.164   6.971   7.464 -0.9175  0.2557  0.4188
15386SOL     OW47258   6.190   0.475   7.517 -0.1012 -0.4150  0.4454
15386SOL    HW147259   6.224   0.547   7.464  0.4975  0.1825  1.5830
15386SOL    HW247260   6.167   0.407   7.454 -0.0506  0.5179 -0.6110
15387SOL     OW47261   6.536   5.881   4.580 -0.1565  0.1916  0.6488
15387SOL    HW147262   6.600   5.916   4.642  0.2505  1.5035 -0.4588
15387SOL    HW247263   6.588   5.851   4.505 -0.7669  0.4588  0.1036
15388SOL     OW47264   2.772   7.707   5.821  0.2287 -0.1811  0.0964
15388SOL    HW147265   2.682   7.675   5.813 -0.8050  2.7410 -1.7226
15388SOL    HW247266   2.767   7.776   5.887  0.9729  0.4327 -0.4672
15389SOL     OW47267   1.744   4.087   8.175  0.5762 -0.8087  0.1924
15389SOL    HW147268   1.790   4.160   8.216 -1.7161  0.7150  0.2666
15389SOL    HW247269   1.780   4.083   8.086  1.7781 -0.5884  0.6545
15390SOL     OW47270   2.980   8.465   3.379 -0.5722  0.3529  0.3255
15390SOL    HW147271   2.967   8.559   3.376 -0.5303  0.3821  0.9665
15390SOL    HW247272   2.930   8.436   3.455 -2.2696 -0.4226 -0.9975
15391SOL     OW47273   2.757   2.151   6.131  0.6911  0.1482 -0.2899
15391SOL    HW147274   2.704   2.099   6.071  1.1875  0.0096 -0.6188
15391SOL    HW247275   2.821   2.195   6.075  1.4092 -0.2841  0.1691
15392SOL     OW47276   1.231   7.640   2.570 -0.3217  0.2377 -0.2264
15392SOL    HW147277   1.273   7.724   2.589 -0.0825 -0.1305  0.9712
15392SOL    HW247278   1.153   7.640   2.626 -0.7762  0.0112 -0.8499
15393SOL     OW47279   8.919   3.290   2.931 -0.1511 -0.3666  0.4274
15393SOL    HW147280   8.885   3.239   2.857  2.1584 -2.2456  0.5308
15393SOL    HW247281   8.989   3.343   2.893  0.6935 -0.9437  1.1169
15394SOL     OW47282   2.373   5.743   8.274  0.5189  0.3923 -0.0704
15394SOL    HW147283   2.463   5.772   8.261  1.2632 -1.7001 -0.0044
15394SOL    HW247284   2.363   5.737   8.370 -0.0414  1.5433 -0.0381
15395SOL     OW47285   3.343   5.239   5.110 -0.6805 -0.0063 -0.1367
15395SOL    HW147286   3.423   5.188   5.100 -0.0111  0.7644  1.0664
15395SOL    HW247287   3.274   5.174   5.122 -0.0052 -0.6461  0.2983
15396SOL     OW47288   0.343   2.044   8.951 -0.0562  0.0038 -0.0574
15396SOL    HW147289   0.280   2.041   8.879 -0.2412  1.3336  0.0161
15396SOL    HW247290   0.372   2.135   8.953  0.3549 -0.1408  1.2142
15397SOL     OW47291   2.833   0.947   3.913 -0.0941  0.2989  0.3697
15397SOL    HW147292   2.806   0.856   3.925  1.1351 -0.0021  1.1084
15397SOL    HW247293   2.752   0.996   3.907 -0.7952 -0.9467 -0.9186
15398SOL     OW47294   8.631   0.925   4.409 -0.0932  0.1882 -0.2816
15398SOL    HW147295   8.607   0.867   4.481  0.1654 -1.6289 -1.5985
15398SOL    HW247296   8.718   0.957   4.432 -1.3099  2.3655  1.7938
15399SOL     OW47297   7.787   7.304   2.383 -0.3159  0.1652  0.4405
15399SOL    HW147298   7.803   7.210   2.376  1.2569  0.5003 -1.0932
15399SOL    HW247299   7.812   7.339   2.297 -0.5770  2.0230  1.0831
15400SOL     OW47300   7.519   1.629   3.582 -0.9481 -0.2602  0.0722
15400SOL    HW147301   7.457   1.603   3.514 -1.7072  0.5585  0.4257
15400SOL    HW247302   7.567   1.549   3.603 -2.6731 -1.2024  0.6020
15401SOL     OW47303   6.010   4.410   8.395  0.2366  0.4140 -0.5059
15401SOL    HW147304   6.091   4.362   8.381  0.0634 -0.1103  0.2398
15401SOL    HW247305   6.037   4.501   8.409  0.6929  0.2533 -0.3408
15402SOL     OW47306   4.058   5.531   7.938  0.7828 -0.0740 -0.2209
15402SOL    HW147307   4.094   5.576   7.861  1.6145 -0.6612 -0.1901
15402SOL    HW247308   4.051   5.599   8.004  2.0533  0.0329 -0.1701
15403SOL     OW47309   0.854   2.978   2.237 -0.6340  0.2274 -0.4022
15403SOL    HW147310   0.788   3.045   2.253  1.6521  2.9107 -1.1744
15403SOL    HW247311   0.936   3.019   2.265  0.9823 -2.1009 -1.3973
15404SOL     OW47312   4.824   6.844   5.046 -0.3677 -0.4028  0.1787
15404SOL    HW147313   4.763   6.915   5.067 -0.5709 -0.6455  0.4314
15404SOL    HW247314   4.768   6.766   5.044 -0.5108 -0.2959 -2.1042
15405SOL     OW47315   2.451   4.351   7.838 -0.2663  0.0086  0.4580
15405SOL    HW147316   2.404   4.269   7.857 -1.7674  0.4935 -0.9330
15405SOL    HW247317   2.544   4.326   7.838 -0.6974 -1.7499 -0.1235
15406SOL     OW47318   0.231   5.270   7.209 -0.0248  0.5061 -0.9341
15406SOL    HW147319   0.312   5.278   7.259 -0.2672 -0.1642 -0.4243
15406SOL    HW247320   0.199   5.359   7.201 -0.5712  0.5397  1.0962
15407SOL     OW47321   6.775   7.039   4.539  0.2969 -0.7270 -0.0481
15407SOL    HW147322   6.779   6.943   4.536  1.4936 -0.9533  3.4939
15407SOL    HW247323   6.827   7.062   4.616 -2.4197  2.5552  1.0418
15408SOL     OW47324   7.809   5.024   2.570 -0.1105  0.1159 -0.4162
15408SOL    HW147325   7.758   5.067   2.638  1.6032  1.1842  0.2407
15408SOL    HW247326   7.884   5.081   2.556  1.9080 -2.2813 -0.0342
15409SOL     OW47327   5.602   3.593   0.699  0.0566  0.3934  0.8945
15409SOL    HW147328   5.688   3.612   0.737 -0.1001  1.3974  0.7690
15409SOL    HW247329   5.542   3.654   0.742 -0.2424  1.0906 -0.4644
15410SOL     OW47330   2.375   0.179   2.937  0.4324  0.0329  0.1419
15410SOL    HW147331   2.386   0.252   2.997  0.4279 -0.9892  1.4301
15410SOL    HW247332   2.301   0.129   2.972 -0.2346 -0.0489 -1.2971
15411SOL     OW47333   8.604   7.747   5.820  0.0458 -0.1497  0.2750
15411SOL    HW147334   8.581   7.655   5.834  0.4870 -0.1809  0.8746
15411SOL    HW247335   8.555   7.772   5.742  2.3918 -1.8028 -1.8922
15412SOL     OW47336   6.613   5.105   3.276  0.4148 -0.1409 -0.4371
15412SOL    HW147337   6.570   5.062   3.203  0.8452 -1.9165  0.3171
15412SOL    HW247338   6.542   5.124   3.338  0.3319 -0.5504 -0.4053
15413SOL     OW47339   7.849   1.604   9.113 -0.2669  0.3120  0.1180
15413SOL    HW147340   7.762   1.615   9.075 -0.7052  0.1660  1.0466
15413SOL    HW247341   7.877   1.517   9.083 -1.5126 -0.7295  1.8160
15414SOL     OW47342   2.449   7.404   8.770  0.1914 -0.3292 -0.3747
15414SOL    HW147343   2.368   7.379   8.815 -0.0352  0.3973 -0.3663
15414SOL    HW247344   2.512   7.337   8.795  0.6418  1.0794  2.6496
15415SOL     OW47345   3.365   6.725   4.444  0.2923  0.5303 -0.6222
15415SOL    HW147346   3.396   6.815   4.456 -2.0221  1.2540  0.5614
15415SOL    HW247347   3.279   6.735   4.403  0.5841 -1.2405 -1.7414
15416SOL     OW47348   0.831   6.379   4.808  0.1482 -0.1064  0.1600
15416SOL    HW147349   0.755   6.377   4.867  1.3351 -0.4447  1.7282
15416SOL    HW247350   0.892   6.315   4.844  1.5171  0.7109 -0.6049
15417SOL     OW47351   6.807   0.722   8.795 -0.0194 -0.0728 -0.4202
15417SOL    HW147352   6.885   0.745   8.745 -0.1462  0.9046 -0.1898
15417SOL    HW247353   6.736   0.723   8.731  0.0030  0.0432 -0.4447
15418SOL     OW47354   5.816   2.194   3.896  0.2433 -0.1027  0.5592
15418SOL    HW147355   5.804   2.267   3.835 -0.6004 -0.9786 -0.3587
15418SOL    HW247356   5.910   2.192   3.912  0.4410  0.3707 -0.4432
15419SOL     OW47357   1.259   8.679   2.027 -0.4831  0.3915  0.8610
15419SOL    HW147358   1.195   8.750   2.029 -1.4382 -0.3307 -1.3077
15419SOL    HW247359   1.208   8.599   2.038  0.2709 -0.0961  0.9024
15420SOL     OW47360   1.473   4.380   1.039 -0.0639 -0.1881  0.3275
15420SOL    HW147361   1.486   4.472   1.063 -1.3232 -0.2746  1.4148
15420SOL    HW247362   1.437   4.339   1.117 -2.2179 -0.9882 -0.9888
15421SOL     OW47363   2.069   5.302   3.776 -0.0934  0.2968 -0.2305
15421SOL    HW147364   2.131   5.354   3.724  1.3086 -0.3711  0.6970
15421SOL    HW247365   2.122   5.232   3.814 -1.4310 -0.3071  0.6197
15422SOL     OW47366   6.825   9.121   1.437  0.2365 -0.0944 -0.1765
15422SOL    HW147367   6.878   9.129   1.358 -0.0636 -0.9980 -0.4789
15422SOL    HW247368   6.737   9.150   1.411 -0.1969 -1.6703 -0.5585
15423SOL     OW47369   4.454   6.731   6.470 -0.4760  0.0108  0.5749
15423SOL    HW147370   4.363   6.755   6.483 -0.4195  1.2814 -1.0414
15423SOL    HW247371   4.504   6.807   6.501 -0.1160  0.4464 -0.9831
15424SOL     OW47372   2.672   8.155   3.137 -0.6604 -0.2030  0.3967
15424SOL    HW147373   2.661   8.229   3.078  1.3885 -0.5914 -0.5703
15424SOL    HW247374   2.684   8.194   3.223  2.6800  0.8674 -0.3884
15425SOL     OW47375   5.430   1.802   3.917  0.1235  0.2174 -0.1351
15425SOL    HW147376   5.336   1.802   3.899  0.0397 -2.1802 -0.0635
15425SOL    HW247377   5.435   1.793   4.012  0.4623  1.5489 -0.0129
15426SOL     OW47378   3.783   6.162   7.210 -0.2020  0.5255 -0.3811
15426SOL    HW147379   3.699   6.207   7.205 -1.2424 -1.3937 -1.5178
15426SOL    HW247380   3.797   6.147   7.304 -2.0275 -0.6297 -0.2489
15427SOL     OW47381   3.045   5.604   2.406 -0.1828  0.2487 -0.0631
15427SOL    HW147382   3.055   5.666   2.479  1.1367  0.4531 -0.3905
15427SOL    HW247383   2.981   5.645   2.349  0.2248  1.0391  0.0310
15428SOL     OW47384   0.777   5.365   4.599 -0.6322  0.1974  0.1076
15428SOL    HW147385   0.802   5.442   4.651  0.4356  0.1020 -0.2290
15428SOL    HW247386   0.817   5.292   4.646  0.4334  0.1181 -0.8742
15429SOL     OW47387   3.623   4.202   3.465  0.0020 -0.0908 -0.1310
15429SOL    HW147388   3.533   4.205   3.433 -0.6732  2.6071  1.6694
15429SOL    HW247389   3.620   4.144   3.541 -0.1838 -0.0977 -0.1430
15430SOL     OW47390   6.674   1.359   9.002 -0.3400  0.4473  0.1598
15430SOL    HW147391   6.585   1.323   9.006 -0.3152 -0.0101 -2.1142
15430SOL    HW247392   6.661   1.454   9.003 -0.9978  0.4039 -1.5267
15431SOL     OW47393   2.163   6.314   8.599 -0.0305  0.2971  0.4137
15431SOL    HW147394   2.077   6.353   8.583 -0.4053 -0.0989  1.3757
15431SOL    HW247395   2.176   6.321   8.694  0.5534 -0.5525  0.4115
15432SOL     OW47396   2.274   7.353   8.213 -0.0954 -0.4161  0.2521
15432SOL    HW147397   2.186   7.338   8.248  0.2059 -2.2581  0.2669
15432SOL    HW247398   2.305   7.267   8.187  0.8498  0.4993 -1.8481
15433SOL     OW47399   7.246   2.083   0.985  0.1639  0.6282  0.4758
15433SOL    HW147400   7.174   2.103   0.926  0.6110  0.7940 -0.0248
15433SOL    HW247401   7.210   2.019   1.046  0.3347 -1.5021 -1.4778
15434SOL     OW47402   3.037   2.971   7.988 -0.0907 -0.6706  0.1012
15434SOL    HW147403   3.067   2.949   8.076  0.9105 -1.5045 -0.4406
15434SOL    HW247404   3.117   2.993   7.940 -0.6468 -0.0621 -0.5724
15435SOL     OW47405   6.984   3.259   0.701 -0.1097  0.2425 -0.2493
15435SOL    HW147406   7.061   3.307   0.732  0.9375 -1.5238  0.0589
15435SOL    HW247407   6.996   3.170   0.736 -2.6535  0.0703  0.3798
15436SOL     OW47408   0.388   4.408   2.026  0.3463  0.4436 -0.0165
15436SOL    HW147409   0.335   4.453   1.960 -0.0820 -1.8795 -1.3943
15436SOL    HW247410   0.468   4.385   1.979  0.7607  0.2474  0.7882
15437SOL     OW47411   3.518   0.096   3.668  0.7228  0.1189  0.4492
15437SOL    HW147412   3.583   0.026   3.678 -1.5631 -2.2056  0.3165
15437SOL    HW247413   3.477   0.077   3.584 -0.1165  1.5241  0.5230
15438SOL     OW47414   1.510   7.257   1.278  0.3610 -0.5078  0.2872
15438SOL    HW147415   1.534   7.350   1.283  0.7663 -0.5184 -1.1336
15438SOL    HW247416   1.464   7.240   1.361  0.8342  0.7903  0.8442
15439SOL     OW47417   3.142   8.616   8.071  0.1101 -0.1747 -0.6884
15439SOL    HW147418   3.131   8.709   8.052 -1.4977 -0.1092  0.2750
15439SOL    HW247419   3.112   8.571   7.992  0.4851  0.1322 -1.0011
15440SOL     OW47420   3.592   4.100   6.507  0.1726  0.0349  0.0997
15440SOL    HW147421   3.617   4.172   6.449 -1.9352  1.3229  0.7040
15440SOL    HW247422   3.641   4.115   6.588  1.0634 -0.2471 -0.3669
15441SOL     OW47423   7.128   7.972   4.973 -0.1532 -0.3965  0.6105
15441SOL    HW147424   7.142   8.050   5.026  0.6012  0.5161 -0.8674
15441SOL    HW247425   7.203   7.970   4.913 -0.8504 -1.5130 -0.2636
15442SOL     OW47426   3.496   7.592   8.090 -0.1631 -0.3576  0.1216
15442SOL    HW147427   3.429   7.629   8.147 -1.3492 -1.5423 -0.4502
15442SOL    HW247428   3.492   7.647   8.011  0.8898  0.7520  0.8151
15443SOL     OW47429   0.992   0.585   8.185  0.2655 -0.4356  0.1674
15443SOL    HW147430   0.963   0.588   8.276  0.0667  1.6664  0.0813
15443SOL    HW247431   0.938   0.517   8.145 -0.9718 -0.0960  1.1987
15444SOL     OW47432   0.209   3.929   8.332  0.2433  0.0883  0.4954
15444SOL    HW147433   0.265   3.978   8.272  0.3922  0.2455  0.7604
15444SOL    HW247434   0.212   3.839   8.300  0.0989  0.2209  0.1016
15445SOL     OW47435   6.781   3.781   8.482 -0.2807  0.0284 -0.0879
15445SOL    HW147436   6.752   3.826   8.403  0.5506 -2.3540 -1.8782
15445SOL    HW247437   6.723   3.705   8.490 -0.2462  0.1226  1.5430
15446SOL     OW47438   8.128   4.163   9.115 -0.2557  0.0780  0.2243
15446SOL    HW147439   8.063   4.233   9.118  1.6603  1.9895  0.2048
15446SOL    HW247440   8.095   4.102   9.049 -1.5687  1.4363 -0.4403
15447SOL     OW47441   3.526   8.262   3.935  0.0406 -0.7034 -0.5510
15447SOL    HW147442   3.477   8.199   3.987  0.1847 -0.2305  0.1687
15447SOL    HW247443   3.618   8.249   3.959 -0.0915  1.3358  1.4131
15448SOL     OW47444   0.040   4.684   4.297  0.1957 -0.3094 -0.6821
15448SOL    HW147445  -0.019   4.624   4.343  0.9544 -1.2639 -0.9194
15448SOL    HW247446   0.125   4.642   4.302  1.0480  1.4383  0.3626
15449SOL     OW47447   9.123   1.032   6.714 -0.1101  0.2412  0.2446
15449SOL    HW147448   9.119   0.939   6.692 -0.4112 -0.0688  1.4888
15449SOL    HW247449   9.129   1.033   6.810 -0.3205  1.5070  0.2606
15450SOL     OW47450   2.086   2.833   0.447 -0.1111  0.3673 -0.1812
15450SOL    HW147451   2.156   2.877   0.400 -0.6466  1.7792  0.2952
15450SOL    HW247452   2.022   2.902   0.466  0.0951 -0.1085  2.6621
15451SOL     OW47453   6.530   2.597   7.012 -0.3912  0.5080 -0.4209
15451SOL    HW147454   6.548   2.507   7.040 -1.7302  0.2267 -0.4226
15451SOL    HW247455   6.543   2.650   7.090 -1.1677  0.1035 -0.0121
15452SOL     OW47456   7.531   6.817   0.197 -1.6382  0.2496 -0.5022
15452SOL    HW147457   7.547   6.864   0.279 -0.7719  0.0684 -0.5553
15452SOL    HW247458   7.471   6.873   0.148 -0.3544  1.4970 -0.7242
15453SOL     OW47459   7.364   3.144   9.033  0.0310  0.7565  0.6074
15453SOL    HW147460   7.388   3.070   8.977  2.8295  1.5080  0.6595
15453SOL    HW247461   7.311   3.105   9.102  1.1619 -1.1820  0.4648
15454SOL     OW47462   8.827   8.231   8.186  0.1504 -0.5631  0.0798
15454SOL    HW147463   8.892   8.220   8.256  0.3277 -0.1681 -0.0179
15454SOL    HW247464   8.840   8.156   8.129 -0.2779 -1.1172  0.6959
15455SOL     OW47465   0.307   5.649   3.714 -0.2544 -0.4375  0.0768
15455SOL    HW147466   0.244   5.721   3.718 -0.1628 -0.3608  0.1382
15455SOL    HW247467   0.386   5.688   3.678 -0.5235 -0.7322 -0.8926
15456SOL     OW47468   6.932   3.338   4.667  0.2511  0.4215  0.2812
15456SOL    HW147469   6.962   3.358   4.756  0.2248  2.2510 -0.0756
15456SOL    HW247470   6.838   3.324   4.677  0.8209 -3.8755  1.1716
15457SOL     OW47471   7.235   2.692   5.311 -0.4616  0.1782  0.2614
15457SOL    HW147472   7.210   2.600   5.318 -1.2696  0.2908 -0.8061
15457SOL    HW247473   7.280   2.699   5.227  1.1922  0.4366  1.1300
15458SOL     OW47474   2.755   4.574   6.353 -0.4241  0.1451  0.4410
15458SOL    HW147475   2.683   4.637   6.355 -0.1394  0.5110 -0.3785
15458SOL    HW247476   2.757   4.542   6.263 -1.9998 -2.7642  1.3265
15459SOL     OW47477   8.427   6.525   3.230  0.8598 -0.0758  0.3017
15459SOL    HW147478   8.387   6.593   3.175 -0.4750  2.2715  3.8458
15459SOL    HW247479   8.359   6.459   3.240  0.5839  0.2036  0.2929
15460SOL     OW47480   1.623   2.131   0.993  0.4758  0.7605 -0.1029
15460SOL    HW147481   1.673   2.087   0.925 -1.1003  1.3019 -1.7107
15460SOL    HW247482   1.535   2.139   0.956 -0.5009  0.8861  2.1179
15461SOL     OW47483   3.746   5.811   3.673  0.1826 -0.7229 -0.5162
15461SOL    HW147484   3.693   5.874   3.722  0.4832 -1.5772  0.9702
15461SOL    HW247485   3.784   5.754   3.740  0.4142 -2.1128 -1.7750
15462SOL     OW47486   1.086   3.479   4.353 -0.1922  0.4505  0.1201
15462SOL    HW147487   0.999   3.516   4.345 -1.1441 -1.7603 -0.4548
15462SOL    HW247488   1.088   3.439   4.440  0.5355  1.1560  0.4358
15463SOL     OW47489   2.938   6.381   3.698  0.1485  0.1452  0.1257
15463SOL    HW147490   2.877   6.311   3.674 -1.2283  1.6315 -0.8671
15463SOL    HW247491   3.016   6.335   3.730 -0.3065 -1.8456 -1.4483
15464SOL     OW47492   1.292   7.730   0.600  0.4351  0.2999  0.0312
15464SOL    HW147493   1.243   7.675   0.660 -0.9238  1.7306  0.3081
15464SOL    HW247494   1.383   7.722   0.629  0.0579 -0.5625  1.0435
15465SOL     OW47495   8.735   2.257   1.803 -0.3293 -0.3129 -0.0933
15465SOL    HW147496   8.771   2.186   1.855 -0.8755 -0.5895 -0.0865
15465SOL    HW247497   8.695   2.213   1.728 -0.7060 -0.0150 -0.0663
15466SOL     OW47498   5.589   7.058   1.151  0.7575 -0.0807 -0.4030
15466SOL    HW147499   5.530   7.133   1.157 -1.1410 -1.4890 -0.1937
15466SOL    HW247500   5.597   7.026   1.242 -0.7817 -1.7299 -0.7782
15467SOL     OW47501   3.017   3.415   8.473  0.5758 -0.0804  0.3960
15467SOL    HW147502   2.984   3.498   8.439  0.7215  0.7798  2.2120
15467SOL    HW247503   2.988   3.349   8.410 -1.3682  1.0944 -0.0107
15468SOL     OW47504   2.121   8.576   1.446 -0.0766 -0.0332 -0.0022
15468SOL    HW147505   2.074   8.658   1.462  0.8910  0.5013  0.1927
15468SOL    HW247506   2.195   8.601   1.391 -1.4281 -1.2943 -2.5655
15469SOL     OW47507   6.631   8.123   3.714  0.2431 -0.0491  0.4650
15469SOL    HW147508   6.599   8.092   3.798 -0.1751 -0.7161  0.0679
15469SOL    HW247509   6.557   8.110   3.654  0.5672  0.3248 -0.0268
15470SOL     OW47510   0.516   3.810   1.540 -0.1137 -0.0677  0.1717
15470SOL    HW147511   0.599   3.846   1.508 -0.2714  0.7675  0.6744
15470SOL    HW247512   0.530   3.716   1.541  0.4342 -0.0105 -0.8377
15471SOL     OW47513   8.447   5.924   2.878  0.3124  0.0157  0.6847
15471SOL    HW147514   8.481   5.929   2.967  0.7534 -0.7872  0.5719
15471SOL    HW247515   8.523   5.902   2.824 -0.6395 -4.1729  0.7174
15472SOL     OW47516   0.909   5.240   4.350  0.0906 -0.0877  0.7695
15472SOL    HW147517   0.864   5.222   4.432  1.3998  0.3405  1.6104
15472SOL    HW247518   0.916   5.336   4.347  0.4694 -0.1249  0.3929
15473SOL     OW47519   2.954   7.634   0.309 -0.1237 -0.0693 -0.4737
15473SOL    HW147520   3.021   7.643   0.378 -0.7157 -0.9896  0.2485
15473SOL    HW247521   2.905   7.716   0.313  0.7238  0.4640 -0.7625
15474SOL     OW47522   4.397   7.408   8.358  0.4108 -0.2797 -0.9355
15474SOL    HW147523   4.375   7.318   8.382 -1.8406  0.6140  0.7346
15474SOL    HW247524   4.411   7.405   8.263 -2.0496 -1.9987 -1.3267
15475SOL     OW47525   1.327   5.293   3.705  0.0928 -0.3321  0.5109
15475SOL    HW147526   1.412   5.249   3.708  0.1543 -0.2779 -0.3939
15475SOL    HW247527   1.346   5.383   3.730  0.8492  0.4721 -2.6414
15476SOL     OW47528   6.961   1.187   4.144  0.0529 -0.1396 -0.1694
15476SOL    HW147529   7.006   1.104   4.165  0.0104 -0.6150 -1.8540
15476SOL    HW247530   6.879   1.160   4.103  0.3814  0.7306 -1.4456
15477SOL     OW47531   1.877   2.765   7.994  0.8453  0.1229 -0.7680
15477SOL    HW147532   1.797   2.741   7.948  0.3658  2.1102 -1.0719
15477SOL    HW247533   1.848   2.791   8.081  1.5128 -1.6948  0.0365
15478SOL     OW47534   3.261   6.606   4.683 -0.3063  0.1415  0.4615
15478SOL    HW147535   3.293   6.541   4.621 -1.4731  0.2815 -0.3133
15478SOL    HW247536   3.232   6.680   4.629 -0.1373  0.8016  1.2501
15479SOL     OW47537   8.180   8.110   7.220 -0.0115 -0.1746 -0.1765
15479SOL    HW147538   8.211   8.126   7.308  0.7227 -0.7569 -0.3237
15479SOL    HW247539   8.197   8.017   7.204  1.4079  0.2632 -1.5122
15480SOL     OW47540   5.020   3.157   8.246 -0.3077 -0.5083  0.6559
15480SOL    HW147541   4.960   3.089   8.275  0.0486 -0.6284  1.1162
15480SOL    HW247542   5.075   3.115   8.180 -1.2064 -0.1984 -0.3202
15481SOL     OW47543   5.978   2.793   8.664 -0.2440 -0.5923  0.4057
15481SOL    HW147544   6.026   2.844   8.599 -0.5343 -3.0219 -1.9034
15481SOL    HW247545   6.046   2.762   8.725  0.3107  0.2518  0.2337
15482SOL     OW47546   1.245   8.464   4.154  0.1764  0.5093  0.1317
15482SOL    HW147547   1.265   8.448   4.246  0.7961  0.0799 -0.0695
15482SOL    HW247548   1.151   8.450   4.147 -0.0572  1.6420  0.9178
15483SOL     OW47549   1.983   2.152   0.996 -0.0902  0.0936 -0.5793
15483SOL    HW147550   1.990   2.068   0.951  1.3261  0.8560 -1.8879
15483SOL    HW247551   2.040   2.142   1.073  0.1449 -0.1329 -0.7784
15484SOL     OW47552   0.371   0.307   4.600  0.3025 -0.5200  0.5075
15484SOL    HW147553   0.465   0.319   4.597  0.3950 -1.2814  0.1214
15484SOL    HW247554   0.337   0.363   4.530  0.5075 -0.5949  0.3470
15485SOL     OW47555   7.237   0.032   3.379 -0.4696  0.9837 -0.0496
15485SOL    HW147556   7.210  -0.060   3.385 -0.4989  0.9925 -0.0461
15485SOL    HW247557   7.170   0.080   3.427 -0.8611  1.0807 -0.6725
15486SOL     OW47558   0.489   2.766   7.081  0.1100  0.3180 -0.0520
15486SOL    HW147559   0.493   2.712   7.003 -2.0265  1.5416 -1.1107
15486SOL    HW247560   0.471   2.854   7.048  0.9155  1.2071  1.7394
15487SOL     OW47561   2.172   6.025   6.793  0.1433  0.0691  0.0294
15487SOL    HW147562   2.206   5.948   6.838 -2.0622 -0.6119  0.6595
15487SOL    HW247563   2.190   6.010   6.701 -0.7200 -1.5179  0.0766
15488SOL     OW47564   3.712   0.791   6.273 -0.5761 -0.1300  0.7308
15488SOL    HW147565   3.801   0.817   6.253 -0.5771  0.7722  1.8241
15488SOL    HW247566   3.708   0.790   6.369 -1.7420 -0.1557  0.6959
15489SOL     OW47567   5.853   5.668   9.003 -0.8414 -0.5532 -0.2609
15489SOL    HW147568   5.938   5.683   9.045 -0.3307  1.0300 -1.7574
15489SOL    HW247569   5.798   5.632   9.073  0.8286 -0.9190  0.9298
15490SOL     OW47570   1.849   7.198   0.284 -0.4101 -0.0653 -0.2122
15490SOL    HW147571   1.850   7.161   0.196  0.9118  0.3314 -0.3922
15490SOL    HW247572   1.784   7.146   0.332 -1.0002 -0.4062 -1.3604
15491SOL     OW47573   7.976   4.829   7.979  0.2865 -0.2573 -0.4777
15491SOL    HW147574   7.929   4.748   7.958 -0.1920  0.2023 -1.2374
15491SOL    HW247575   8.032   4.844   7.902 -1.8452  1.7160 -1.7737
15492SOL     OW47576   4.004   6.537   3.946 -0.2955 -0.0020 -0.0408
15492SOL    HW147577   4.096   6.520   3.966 -0.3221 -0.4547 -0.2991
15492SOL    HW247578   4.006   6.587   3.864 -0.3025 -0.5394 -0.3725
15493SOL     OW47579   4.492   8.123   0.754  0.1443 -0.0935  0.1034
15493SOL    HW147580   4.476   8.188   0.685  1.1793  1.1953  1.0228
15493SOL    HW247581   4.425   8.142   0.820  1.5619  1.2945  1.2006
15494SOL     OW47582   4.740   7.994   7.514 -0.3187 -0.9950  0.3749
15494SOL    HW147583   4.747   8.077   7.561  0.2506 -1.0821  0.4503
15494SOL    HW247584   4.662   8.004   7.460  1.7591  1.1273 -2.6090
15495SOL     OW47585   4.581   1.983   8.821  0.3540  0.0422 -0.0385
15495SOL    HW147586   4.530   1.987   8.740 -0.6737  1.6930  0.6376
15495SOL    HW247587   4.558   2.064   8.867  0.0027 -1.3737  2.4349
15496SOL     OW47588   2.739   1.658   8.498 -0.1538 -0.1124 -0.0128
15496SOL    HW147589   2.690   1.609   8.564 -0.5800 -0.9789 -0.9281
15496SOL    HW247590   2.698   1.745   8.497 -0.1901 -0.1175  0.7994
15497SOL     OW47591   1.919   8.051   8.078  0.1815 -0.0015  0.0433
15497SOL    HW147592   1.933   8.143   8.100  1.7908  0.4847 -2.5065
15497SOL    HW247593   1.828   8.033   8.101  0.3956  1.6191  2.4030
15498SOL     OW47594   1.515   4.175   5.771  0.1621 -0.1405  0.6059
15498SOL    HW147595   1.598   4.220   5.758  0.6063 -0.7246  1.3115
15498SOL    HW247596   1.486   4.203   5.858 -0.0307 -0.4678  0.6494
15499SOL     OW47597   6.248   8.446   4.087  0.0123 -0.3267 -0.6481
15499SOL    HW147598   6.153   8.440   4.079 -0.0779 -0.5318  0.4398
15499SOL    HW247599   6.271   8.526   4.039 -0.5992 -0.7233 -1.6430
15500SOL     OW47600   0.682   6.867   0.369  0.6223  0.0419  0.0128
15500SOL    HW147601   0.607   6.866   0.309  1.0049 -0.0725 -0.4691
15500SOL    HW247602   0.647   6.833   0.451  0.6172 -2.0639 -0.7995
15501SOL     OW47603   2.271   3.599   8.741  0.2659  0.6834  0.2099
15501SOL    HW147604   2.365   3.605   8.723  0.2287 -1.3468 -1.0013
15501SOL    HW247605   2.261   3.631   8.831  2.5772 -1.7571  1.4756
15502SOL     OW47606   8.056   5.161   1.214  0.2725 -0.1890 -0.0252
15502SOL    HW147607   8.014   5.213   1.146 -0.1422 -0.2435  0.1818
15502SOL    HW247608   8.133   5.123   1.172  0.6631  0.7121 -0.1338
15503SOL     OW47609   8.424   5.740   6.871 -0.8067  0.1319 -0.0352
15503SOL    HW147610   8.393   5.656   6.904  0.4634 -0.0430  0.7996
15503SOL    HW247611   8.426   5.797   6.949  1.4093 -0.0322  0.0952
15504SOL     OW47612   1.416   2.851   0.355 -0.0870 -0.4650 -0.1929
15504SOL    HW147613   1.389   2.866   0.445  0.1513 -1.5574  0.0675
15504SOL    HW247614   1.395   2.933   0.310  1.0301  0.5977  1.1351
15505SOL     OW47615   3.983   1.768   7.083 -0.3538 -0.0040 -0.4270
15505SOL    HW147616   4.033   1.849   7.073 -2.3434  1.1317 -1.8257
15505SOL    HW247617   4.038   1.701   7.041  1.1130  0.6613  0.3445
15506SOL     OW47618   5.202   8.796   2.522  0.1869 -0.1638  0.0257
15506SOL    HW147619   5.130   8.859   2.531  0.8746  0.5462  0.7354
15506SOL    HW247620   5.160   8.717   2.488 -0.5516  0.9445 -1.8193
15507SOL     OW47621   0.283   8.535   1.230  0.1842  0.0789  0.2388
15507SOL    HW147622   0.319   8.601   1.170 -0.8860  0.9697  0.5537
15507SOL    HW247623   0.353   8.522   1.294 -0.3249  2.4970  1.3992
15508SOL     OW47624   0.950   7.425   3.493  0.3745 -0.5771 -0.2405
15508SOL    HW147625   0.973   7.355   3.554  2.7371 -0.1303 -0.5050
15508SOL    HW247626   0.931   7.379   3.411 -2.1493 -1.1323  0.5860
15509SOL     OW47627   2.827   6.525   3.325  0.6569  0.4035 -0.6335
15509SOL    HW147628   2.804   6.617   3.309 -1.5376  0.0001 -0.1711
15509SOL    HW247629   2.883   6.528   3.403 -0.6696  1.2881  0.3398
15510SOL     OW47630   3.369   7.429   6.485 -0.2778 -0.5266  0.4253
15510SOL    HW147631   3.282   7.399   6.459 -0.1813  0.4482 -1.1222
15510SOL    HW247632   3.426   7.405   6.412  0.4381  0.3144  0.6907
15511SOL     OW47633   5.578   1.210   8.616  0.5303 -0.0799  0.3405
15511SOL    HW147634   5.534   1.136   8.575 -0.5983  0.1390  1.1189
15511SOL    HW247635   5.639   1.241   8.549  0.2258 -1.0143 -0.3981
15512SOL     OW47636   6.632   7.766   3.436  0.0081  0.2199 -0.4372
15512SOL    HW147637   6.643   7.767   3.531 -0.2763  0.2002 -0.4032
15512SOL    HW247638   6.581   7.687   3.419 -0.2071  0.3913 -0.5776
15513SOL     OW47639   5.069   4.056   6.352 -0.3891  0.6840  0.1518
15513SOL    HW147640   5.091   4.144   6.381 -0.8818  0.7067  0.4728
15513SOL    HW247641   5.113   4.046   6.267  1.1198  0.5924  0.9226
15514SOL     OW47642   3.422   1.836   1.431 -0.2211 -0.5430 -0.2488
15514SOL    HW147643   3.417   1.747   1.465 -1.8272 -0.6725 -0.7629
15514SOL    HW247644   3.363   1.886   1.487  0.0525  0.0392 -0.4765
15515SOL     OW47645   2.608   5.582   2.208 -0.1379  0.2076  0.3403
15515SOL    HW147646   2.561   5.656   2.245 -0.1771  0.2355  0.2349
15515SOL    HW247647   2.700   5.609   2.207 -0.2544  0.6079 -0.5323
15516SOL     OW47648   9.125   1.524   1.950 -0.2628 -0.0165 -0.0363
15516SOL    HW147649   9.170   1.439   1.948 -1.3862 -0.6322 -0.1822
15516SOL    HW247650   9.032   1.501   1.948 -0.6101  1.1840  1.0355
15517SOL     OW47651   7.109   5.109   8.927  0.6952 -0.0761  0.2810
15517SOL    HW147652   7.049   5.174   8.890 -1.1793 -1.6201  0.4179
15517SOL    HW247653   7.166   5.084   8.855  0.5151  0.7266 -0.1403
15518SOL     OW47654   6.374   8.430   3.585 -0.3749  0.4777  0.0828
15518SOL    HW147655   6.437   8.485   3.631  1.2489 -0.9986 -0.3071
15518SOL    HW247656   6.376   8.462   3.495 -0.5258  0.7044  0.1566
15519SOL     OW47657   6.822   6.441   4.491 -0.1357 -0.2201 -0.2108
15519SOL    HW147658   6.914   6.461   4.476 -0.1593  0.3023  0.2880
15519SOL    HW247659   6.775   6.508   4.442 -0.2546 -0.6905 -0.7406
15520SOL     OW47660   8.584   3.494   0.638  0.1141 -0.7605 -0.0938
15520SOL    HW147661   8.540   3.570   0.676 -0.3552 -0.3769 -1.3620
15520SOL    HW247662   8.676   3.506   0.661 -0.2190 -0.8834  1.4466
15521SOL     OW47663   3.015   0.814   2.025  0.3357  0.2133  0.2861
15521SOL    HW147664   3.073   0.891   2.022 -0.3204  0.6850 -1.4360
15521SOL    HW247665   3.045   0.758   1.953 -1.2246  0.4227 -0.5889
15522SOL     OW47666   5.489   4.935   1.721  0.0595 -0.6392 -0.1270
15522SOL    HW147667   5.531   4.991   1.655  0.1483 -1.6116 -0.9195
15522SOL    HW247668   5.496   4.985   1.802  1.1863 -0.0169 -0.5797
15523SOL     OW47669   2.086   5.947   4.273  0.2595  0.2769 -0.2110
15523SOL    HW147670   1.992   5.961   4.261  0.1987 -1.1450 -1.7466
15523SOL    HW247671   2.126   6.033   4.261 -0.7431  0.6753 -0.7478
15524SOL     OW47672   1.525   6.169   8.498 -0.3173 -0.0431 -0.2624
15524SOL    HW147673   1.535   6.121   8.580  0.8719  2.3747  1.1312
15524SOL    HW247674   1.432   6.159   8.475 -0.1447 -2.8752 -0.0999
15525SOL     OW47675   0.425   7.091   3.821 -0.5067  0.0117 -0.3437
15525SOL    HW147676   0.333   7.065   3.822 -0.1638 -1.3322 -1.1534
15525SOL    HW247677   0.459   7.066   3.907 -0.4440 -1.3447 -0.7335
15526SOL     OW47678   2.018   0.155   3.753  0.8035  0.2728 -0.0017
15526SOL    HW147679   2.019   0.157   3.658  1.4672 -1.6383 -0.0909
15526SOL    HW247680   1.925   0.161   3.777  0.6740  1.2825 -0.7223
15527SOL     OW47681   2.516   7.490   3.224  0.6009 -0.0069 -0.2518
15527SOL    HW147682   2.479   7.574   3.197  0.5232  0.1874  0.4200
15527SOL    HW247683   2.446   7.427   3.210  1.0697 -0.1859 -1.9384
15528SOL     OW47684   3.785   0.493   3.848  0.3802 -0.3647 -0.0375
15528SOL    HW147685   3.824   0.581   3.839 -1.0022  0.2078 -0.6854
15528SOL    HW247686   3.784   0.477   3.942 -0.6526  0.9513  0.2089
15529SOL     OW47687   1.049   4.417   6.846 -0.4484  0.1443 -0.6071
15529SOL    HW147688   1.107   4.476   6.894 -0.6855  1.4586 -1.8555
15529SOL    HW247689   0.961   4.436   6.881 -0.4412  0.0632 -0.5466
15530SOL     OW47690   1.336   7.747   7.377 -0.1116  0.1432 -0.1857
15530SOL    HW147691   1.341   7.751   7.472  0.0986 -0.2825 -0.1747
15530SOL    HW247692   1.246   7.771   7.356 -0.1223  0.3647  0.1114
15531SOL     OW47693   0.810   1.027   6.556 -0.0540 -0.4367 -0.1028
15531SOL    HW147694   0.761   0.978   6.623 -1.1816  0.2458 -0.4026
15531SOL    HW247695   0.900   0.997   6.567 -0.3363 -0.9156  1.2128
15532SOL     OW47696   1.577   7.589   8.934 -0.3136  0.9264  0.0737
15532SOL    HW147697   1.515   7.541   8.878 -1.6936  0.1676  2.1581
15532SOL    HW247698   1.658   7.592   8.882 -0.8896 -1.5782 -1.1496
15533SOL     OW47699   2.018   2.282   4.676  0.1720 -0.2777 -0.1746
15533SOL    HW147700   2.072   2.283   4.755 -2.6983  1.1731  1.9726
15533SOL    HW247701   1.978   2.195   4.676  1.3261 -0.8292 -0.9494
15534SOL     OW47702   5.142   5.113   1.845  0.0137  0.6728  0.0314
15534SOL    HW147703   5.110   5.050   1.910  1.6197  0.2311  0.4461
15534SOL    HW247704   5.068   5.127   1.786 -0.8940 -0.3363  0.8882
15535SOL     OW47705   3.836   5.208   5.489 -0.5119 -0.2398 -0.3286
15535SOL    HW147706   3.869   5.285   5.536  0.9217 -2.1420  2.0818
15535SOL    HW247707   3.868   5.219   5.400 -0.0965  1.7923  0.0157
15536SOL     OW47708   0.456   2.898   1.146 -0.4032  0.2583  0.0832
15536SOL    HW147709   0.501   2.948   1.214 -1.0094  1.3141 -0.2658
15536SOL    HW247710   0.496   2.811   1.149  0.6403  0.7470  0.7403
15537SOL     OW47711   2.910   1.311   3.464 -0.3845  0.1031  0.2721
15537SOL    HW147712   2.870   1.289   3.379  1.6864 -1.6383 -0.3633
15537SOL    HW247713   3.000   1.279   3.456 -0.2753 -0.6432  3.3375
15538SOL     OW47714   5.150   6.133   6.066  0.5522 -1.0211  0.3713
15538SOL    HW147715   5.141   6.224   6.093  2.0301 -0.8938  0.5394
15538SOL    HW247716   5.077   6.088   6.108  0.8812 -0.2351  1.8654
15539SOL     OW47717   0.449   7.595   2.776  0.4875  0.2798 -0.3849
15539SOL    HW147718   0.494   7.544   2.709  3.2927  2.0712 -0.0497
15539SOL    HW247719   0.443   7.536   2.851  0.3100 -0.6920 -1.1399
15540SOL     OW47720   0.691   0.486   5.590 -0.1257 -0.0236  0.2290
15540SOL    HW147721   0.613   0.473   5.644 -0.8297  2.4040 -0.0638
15540SOL    HW247722   0.734   0.562   5.628 -0.8476  2.0509 -2.7014
15541SOL     OW47723   3.741   0.245   9.011  0.3448  1.0297  1.0020
15541SOL    HW147724   3.807   0.313   8.998  0.1059  1.0535 -0.2288
15541SOL    HW247725   3.664   0.291   9.044 -0.0262  1.4889 -0.4174
15542SOL     OW47726   7.940   8.395   1.037  0.3195  0.2421  0.2820
15542SOL    HW147727   7.890   8.350   0.968 -0.9318  3.1227 -0.8370
15542SOL    HW247728   7.877   8.405   1.109  0.5423  0.3488  0.4611
15543SOL     OW47729   8.636   3.808   6.722  0.1280 -0.7981  0.1854
15543SOL    HW147730   8.572   3.763   6.777  0.1043 -0.6251  0.2995
15543SOL    HW247731   8.636   3.757   6.640 -0.0201 -0.9071  0.2515
15544SOL     OW47732   2.772   5.835   4.107  0.2340  0.4409  0.5922
15544SOL    HW147733   2.806   5.791   4.029  1.9239  1.7009  0.5506
15544SOL    HW247734   2.685   5.865   4.081 -0.1779 -1.1838  0.0049
15545SOL     OW47735   4.641   4.854   3.649 -0.3390 -0.3057  0.3921
15545SOL    HW147736   4.637   4.831   3.556  0.2058 -1.7843  0.6994
15545SOL    HW247737   4.731   4.836   3.674 -0.1425  1.3240  0.9339
15546SOL     OW47738   2.331   4.185   8.436 -0.0981  0.4856 -0.0782
15546SOL    HW147739   2.281   4.163   8.357 -0.4550  1.6773 -0.2115
15546SOL    HW247740   2.416   4.142   8.424 -0.5259 -0.2292 -0.6077
15547SOL     OW47741   8.898   6.309   8.895  0.0798  0.3148  0.0685
15547SOL    HW147742   8.983   6.353   8.893  0.3775 -0.2491 -1.8418
15547SOL    HW247743   8.837   6.373   8.859 -0.1600  0.4101  0.6301
15548SOL     OW47744   8.473   5.525   8.382  0.0085  0.5741  0.1863
15548SOL    HW147745   8.394   5.509   8.433 -1.2394  2.5768 -0.9745
15548SOL    HW247746   8.498   5.439   8.348 -1.3262 -0.1830  1.0557
15549SOL     OW47747   8.685   0.091   4.916  0.9885  0.4055 -0.3271
15549SOL    HW147748   8.761   0.074   4.972  0.9263 -0.2102 -0.4165
15549SOL    HW247749   8.683   0.186   4.905  0.7277  0.5993  1.1212
15550SOL     OW47750   2.720   1.421   7.235 -0.5817 -0.0051  0.1130
15550SOL    HW147751   2.701   1.443   7.144  0.1522 -0.5885 -0.1895
15550SOL    HW247752   2.807   1.458   7.250 -1.2167  1.2119  0.9812
15551SOL     OW47753   8.730   8.846   4.961  0.2084  0.2699 -0.2131
15551SOL    HW147754   8.717   8.875   5.051 -2.0409 -1.8853  0.2646
15551SOL    HW247755   8.807   8.894   4.932  1.1427  0.9138  2.9024
15552SOL     OW47756   4.537   5.083   6.423  0.1328  0.0825 -0.2060
15552SOL    HW147757   4.492   5.136   6.357 -0.6921 -0.3481  0.0003
15552SOL    HW247758   4.475   5.014   6.444  0.2875  0.3394  1.1954
15553SOL     OW47759   4.749   6.932   3.781  0.1422  0.3014  0.2125
15553SOL    HW147760   4.741   6.892   3.695  0.3594  0.2967  0.1954
15553SOL    HW247761   4.668   6.907   3.826 -0.3703  1.0222 -0.2873
15554SOL     OW47762   2.503   4.410   3.201 -0.2691 -0.1486  0.0617
15554SOL    HW147763   2.547   4.353   3.138  0.7218 -0.6096  1.1498
15554SOL    HW247764   2.432   4.451   3.151  1.8799  1.3078 -2.0028
15555SOL     OW47765   3.107   7.364   6.441  0.2483  0.0133  0.7433
15555SOL    HW147766   3.100   7.454   6.408 -0.9342 -0.3316 -0.0042
15555SOL    HW247767   3.057   7.365   6.522 -0.4929 -0.1617  0.2975
15556SOL     OW47768   7.667   8.466   3.193  0.6695  0.7623  0.1269
15556SOL    HW147769   7.617   8.545   3.214 -0.6574  0.4686 -1.6518
15556SOL    HW247770   7.623   8.396   3.241 -0.0259  0.6702 -0.6172
15557SOL     OW47771   7.082   0.508   3.622 -0.6890  0.4317  0.1848
15557SOL    HW147772   7.064   0.524   3.715 -0.2792  1.2257  0.1426
15557SOL    HW247773   7.112   0.593   3.589  1.0292 -0.2793 -0.2191
15558SOL     OW47774   9.121   0.403   0.389 -0.0332 -0.5455  0.3331
15558SOL    HW147775   9.129   0.480   0.445  0.3163 -1.4488  1.5598
15558SOL    HW247776   9.069   0.341   0.439 -1.5272 -0.6238 -1.2181
15559SOL     OW47777   8.303   3.275   6.749  0.2543  0.0666 -0.2056
15559SOL    HW147778   8.250   3.343   6.708  0.2150  1.8658  2.5864
15559SOL    HW247779   8.248   3.198   6.749 -1.0741  0.9811 -0.3639
15560SOL     OW47780   4.234   5.364   2.844 -0.5133 -0.2276 -0.3207
15560SOL    HW147781   4.220   5.305   2.770  2.0299  0.3872 -1.4051
15560SOL    HW247782   4.285   5.436   2.807 -1.1009  1.2539  1.5843
15561SOL     OW47783   4.817   6.587   7.179 -0.0115  0.0813 -0.7170
15561SOL    HW147784   4.889   6.550   7.230  2.1473 -0.0766 -3.5950
15561SOL    HW247785   4.745   6.525   7.191  0.0188  0.5546  2.7414
15562SOL     OW47786   6.989   8.474   8.744 -0.4411  0.0575  0.8479
15562SOL    HW147787   6.947   8.412   8.685 -0.0599  1.2451 -0.7367
15562SOL    HW247788   6.936   8.553   8.739  0.1693  0.5166  1.3158
15563SOL     OW47789   1.254   5.881   4.225  0.3657  0.6381 -0.2110
15563SOL    HW147790   1.309   5.898   4.149 -0.3843  1.3155 -0.6117
15563SOL    HW247791   1.294   5.805   4.267 -0.3746 -1.0861 -2.4218
15564SOL     OW47792   3.511   7.841   6.245 -0.0774  0.4441 -0.1048
15564SOL    HW147793   3.591   7.866   6.292 -0.2796 -1.5231  1.3979
15564SOL    HW247794   3.541   7.782   6.176 -0.2113 -0.1415  0.3372
15565SOL     OW47795   2.651   4.815   1.889 -0.1460  0.1078 -0.1768
15565SOL    HW147796   2.559   4.840   1.893 -0.1894 -0.0520 -0.1696
15565SOL    HW247797   2.650   4.721   1.874  0.0169  0.3702 -2.0375
15566SOL     OW47798   7.062   0.296   8.625 -0.5844 -0.3472 -0.3971
15566SOL    HW147799   7.120   0.220   8.630 -0.0761  0.0729  0.1880
15566SOL    HW247800   7.022   0.301   8.711 -0.5507  0.1031 -0.4058
15567SOL     OW47801   8.775   7.460   5.154 -0.0782 -0.0662  0.3479
15567SOL    HW147802   8.809   7.371   5.150 -0.0225 -0.0647  0.8179
15567SOL    HW247803   8.811   7.497   5.235 -0.3385  0.2856  0.3064
15568SOL     OW47804   2.124   9.130   6.026 -0.0964 -0.3207  0.6896
15568SOL    HW147805   2.213   9.124   6.061 -0.5928 -2.7066  1.7228
15568SOL    HW247806   2.129   9.086   5.941 -0.1550  0.1869  0.4195
15569SOL     OW47807   4.809   8.350   2.940  0.0195 -0.5101 -0.1847
15569SOL    HW147808   4.826   8.256   2.939  1.2128 -0.4940  3.1315
15569SOL    HW247809   4.895   8.390   2.923 -0.7505  0.0890 -3.0551
15570SOL     OW47810   6.055   6.670   3.899 -0.1102  0.3413 -0.3527
15570SOL    HW147811   6.049   6.627   3.814  0.9620  0.6084 -0.5822
15570SOL    HW247812   6.085   6.759   3.879 -1.1689  0.8439  0.2049
15571SOL     OW47813   3.590   5.887   2.980 -0.6516  0.0186 -0.1640
15571SOL    HW147814   3.605   5.793   2.988 -1.1406  0.0287  1.0769
15571SOL    HW247815   3.528   5.907   3.050 -2.3959  0.8623 -1.8913
15572SOL     OW47816   6.723   3.705   6.010  0.0286 -0.5099  0.0950
15572SOL    HW147817   6.809   3.691   5.970  0.3955  0.9087  0.3332
15572SOL    HW247818   6.738   3.693   6.104 -0.3695 -1.6875  0.0317
15573SOL     OW47819   5.771   6.601   1.258 -0.8753 -0.6420  0.1510
15573SOL    HW147820   5.715   6.573   1.185  0.4123 -0.2969 -1.0153
15573SOL    HW247821   5.731   6.681   1.290  0.2230  0.9897 -2.2790
15574SOL     OW47822   6.682   1.335   3.367 -0.2416  0.6225 -0.6756
15574SOL    HW147823   6.615   1.350   3.300 -0.0202  0.3974 -0.9477
15574SOL    HW247824   6.759   1.380   3.334  0.0935 -0.1289 -0.9446
15575SOL     OW47825   5.535   4.177   8.278 -0.0336 -0.7200  0.0957
15575SOL    HW147826   5.601   4.247   8.282  0.4598 -1.2153  2.3385
15575SOL    HW247827   5.585   4.100   8.250  0.1509 -0.8725  0.8183
15576SOL     OW47828   0.838   0.948   1.740 -0.5301  0.1713 -0.5748
15576SOL    HW147829   0.838   0.903   1.655  0.2271  0.6928 -0.8589
15576SOL    HW247830   0.859   1.039   1.719 -0.7615  0.3946  0.1324
15577SOL     OW47831   6.990   1.479   5.854 -0.6086 -0.9860  0.1667
15577SOL    HW147832   6.963   1.405   5.909  0.8622 -1.5315  0.1956
15577SOL    HW247833   6.996   1.442   5.766  0.3993 -0.9842  0.2267
15578SOL     OW47834   3.568   7.960   7.538 -0.1211 -0.9019  0.4213
15578SOL    HW147835   3.543   8.036   7.591  1.0916 -0.2061  0.0374
15578SOL    HW247836   3.611   7.901   7.601 -0.1290 -0.8017  0.5225
15579SOL     OW47837   0.225   4.146   6.844  0.0925 -0.4665 -0.2776
15579SOL    HW147838   0.170   4.205   6.897 -0.1726  0.0650 -1.1213
15579SOL    HW247839   0.243   4.195   6.764 -0.3396 -1.6259 -1.1186
15580SOL     OW47840   4.395   5.068   5.389  0.7320 -0.2977 -0.2479
15580SOL    HW147841   4.406   5.074   5.483  0.4556 -0.4642 -0.2051
15580SOL    HW247842   4.321   5.009   5.376  1.2657 -0.9112 -0.5878
15581SOL     OW47843   5.655   7.540   1.703  0.3999  0.4541  0.0314
15581SOL    HW147844   5.610   7.455   1.705  0.4358  0.4387  0.2323
15581SOL    HW247845   5.617   7.588   1.777  0.2471  0.6818 -0.1933
15582SOL     OW47846   9.059   5.091   6.018 -0.2000  0.6186  0.1408
15582SOL    HW147847   9.018   5.118   6.101 -0.4949 -0.3189  0.3044
15582SOL    HW247848   8.986   5.086   5.956 -0.0167  1.0579 -0.1161
15583SOL     OW47849   8.482   2.042   0.274 -0.4147  0.5079  0.2020
15583SOL    HW147850   8.432   2.038   0.193  1.4750 -0.4337 -1.0139
15583SOL    HW247851   8.530   1.959   0.276  1.3562  1.4780  1.0347
15584SOL     OW47852   1.572   7.393   7.567  0.2515 -0.0891  0.0559
15584SOL    HW147853   1.610   7.422   7.483  0.4197  0.7198  0.3960
15584SOL    HW247854   1.530   7.310   7.547  0.0606  0.2238 -0.8943
15585SOL     OW47855   6.965   4.792   7.785  0.4931  0.2205  0.0375
15585SOL    HW147856   6.951   4.887   7.778  1.9936  0.5858  1.3163
15585SOL    HW247857   6.959   4.774   7.879 -0.7911 -1.1588 -0.2712
15586SOL     OW47858   1.058   9.103   5.065 -0.2087  0.3712  0.1074
15586SOL    HW147859   1.075   9.009   5.065  0.0479  0.3205 -2.9667
15586SOL    HW247860   0.996   9.117   5.137 -0.6264 -2.1944  0.3153
15587SOL     OW47861   7.906   4.536   1.884  0.5729 -0.1404  0.0775
15587SOL    HW147862   7.836   4.490   1.838  2.6404 -1.8685 -1.5046
15587SOL    HW247863   7.875   4.541   1.975 -1.6761 -0.6004 -0.5976
15588SOL     OW47864   4.372   5.913   8.581  0.1475  0.5852  0.4151
15588SOL    HW147865   4.376   5.911   8.485 -0.5882 -2.4712  0.3616
15588SOL    HW247866   4.443   5.857   8.610 -0.2500  0.6776  1.6294
15589SOL     OW47867   0.579   6.018   4.531 -0.2415 -0.3868 -0.0194
15589SOL    HW147868   0.624   6.033   4.448  0.2599 -0.0804  0.3053
15589SOL    HW247869   0.595   5.926   4.551 -0.2360 -0.4224 -0.1884
15590SOL     OW47870   6.569   8.910   1.548  0.2216 -0.5098 -0.0015
15590SOL    HW147871   6.614   8.970   1.488  0.1959 -0.7548 -0.2721
15590SOL    HW247872   6.513   8.858   1.491 -0.8560  0.1865  0.4031
15591SOL     OW47873   1.885   7.463   6.510 -0.1308 -0.2006 -0.5908
15591SOL    HW147874   1.950   7.400   6.478  0.2340  0.2494 -0.7384
15591SOL    HW247875   1.802   7.430   6.477 -0.0511 -1.0526  0.0057
15592SOL     OW47876   0.820   2.859   5.098 -0.4630 -0.4099 -0.5881
15592SOL    HW147877   0.835   2.804   5.021 -2.7564  0.5673 -1.8572
15592SOL    HW247878   0.752   2.814   5.148  0.1475 -0.4363  0.2361
15593SOL     OW47879   6.477   1.663   1.979 -0.3728  0.6003 -0.3725
15593SOL    HW147880   6.518   1.615   1.907  0.4049  0.5126  0.1102
15593SOL    HW247881   6.393   1.619   1.992  0.4179 -0.8114  0.2074
15594SOL     OW47882   4.603   0.651   4.406 -0.2971  0.1242 -0.0851
15594SOL    HW147883   4.664   0.577   4.405  1.3359  1.3978  0.0941
15594SOL    HW247884   4.582   0.666   4.314 -0.3580 -0.3501 -0.1481
15595SOL     OW47885   7.111   7.621   4.462 -0.2861 -0.4668 -0.1721
15595SOL    HW147886   7.018   7.602   4.449 -0.4428  0.1311  0.0557
15595SOL    HW247887   7.156   7.554   4.410 -0.8027 -1.6205  0.7955
15596SOL     OW47888   6.666   5.136   2.404 -0.6208 -0.8100 -0.1089
15596SOL    HW147889   6.744   5.123   2.350 -1.1500 -1.4506 -0.7450
15596SOL    HW247890   6.654   5.231   2.406  0.2212 -0.7002  0.0664
15597SOL     OW47891   9.085   0.236   9.064 -0.7737 -0.0775 -0.3711
15597SOL    HW147892   9.045   0.251   9.149  1.6383 -2.3614  1.3122
15597SOL    HW247893   9.115   0.323   9.036  1.3998  0.3962  2.8264
15598SOL     OW47894   9.090   6.538   1.391 -0.0083 -0.4215 -0.4769
15598SOL    HW147895   9.109   6.590   1.313 -0.2869 -1.5122 -1.3000
15598SOL    HW247896   9.094   6.448   1.361 -2.7628 -0.8412  0.0945
15599SOL     OW47897   0.347   2.313   6.981 -0.1209  0.1387  0.1710
15599SOL    HW147898   0.294   2.353   7.050  0.2408  0.0183  0.5259
15599SOL    HW247899   0.302   2.334   6.900 -0.7389 -0.0065  0.4744
15600SOL     OW47900   3.302   6.129   4.166 -0.1390  0.8822 -0.2054
15600SOL    HW147901   3.262   6.212   4.138  1.8165  1.7752 -0.5326
15600SOL    HW247902   3.386   6.127   4.120  0.2351 -0.8730  0.5039
15601SOL     OW47903   8.453   8.169   7.777 -0.0927  0.0756 -0.2949
15601SOL    HW147904   8.462   8.083   7.737  0.7938 -0.7761  1.6151
15601SOL    HW247905   8.516   8.224   7.731  0.4004 -0.6905 -0.5498
15602SOL     OW47906   6.733   0.988   7.260 -0.0522 -0.0040  0.1340
15602SOL    HW147907   6.669   1.046   7.218 -1.3906  0.2562  2.3531
15602SOL    HW247908   6.685   0.908   7.279  0.7784 -0.4741  0.3264
15603SOL     OW47909   0.360   7.954   1.340  0.4749  0.3205  0.0243
15603SOL    HW147910   0.364   8.039   1.296 -0.4069  0.2738 -0.1633
15603SOL    HW247911   0.425   7.959   1.409  0.6822  1.0193 -0.2177
15604SOL     OW47912   5.282   4.648   3.095  0.3438  0.7154  0.5282
15604SOL    HW147913   5.229   4.722   3.124 -0.9418  0.4575 -0.9861
15604SOL    HW247914   5.219   4.580   3.072  1.3095  0.3089 -1.1368
15605SOL     OW47915   4.892   5.223   3.571  0.2408 -0.7452  0.2405
15605SOL    HW147916   4.827   5.218   3.501  0.4733  0.4102 -0.0736
15605SOL    HW247917   4.859   5.163   3.638 -0.2413 -1.4969 -0.6391
15606SOL     OW47918   1.679   2.780   5.678  0.5278 -0.1942  0.2988
15606SOL    HW147919   1.593   2.741   5.662  0.4943 -0.4298  0.9963
15606SOL    HW247920   1.667   2.833   5.756  0.1426  2.6737 -1.5717
15607SOL     OW47921   3.951   2.497   3.883 -0.1374  0.0578  0.2562
15607SOL    HW147922   4.044   2.474   3.894  0.2614  2.1035  1.8419
15607SOL    HW247923   3.938   2.498   3.789  1.8551  1.0322 -0.0655
15608SOL     OW47924   6.399   1.305   9.039 -0.2713 -0.4799  0.1531
15608SOL    HW147925   6.319   1.274   9.081 -0.4527  0.1530  0.2754
15608SOL    HW247926   6.369   1.369   8.974 -0.1410 -2.4512 -1.9946
15609SOL     OW47927   2.128   4.479   5.859 -0.4484 -0.4774 -0.3193
15609SOL    HW147928   2.137   4.484   5.764  1.9611 -1.7676 -0.2524
15609SOL    HW247929   2.197   4.417   5.886 -1.1593 -0.2668  2.2496
15610SOL     OW47930   7.455   1.353   8.949 -0.1178 -0.6274  0.1080
15610SOL    HW147931   7.372   1.355   8.901 -0.0169 -0.9430 -0.0856
15610SOL    HW247932   7.512   1.300   8.894  0.1441 -0.5952  0.3518
15611SOL     OW47933   4.147   8.487   4.043 -0.9086 -0.0390  0.1151
15611SOL    HW147934   4.056   8.497   4.014 -0.7451 -0.5304 -0.5929
15611SOL    HW247935   4.151   8.400   4.082 -1.3178  0.9132  2.4421
15612SOL     OW47936   1.309   3.959   8.630 -0.2767 -0.0053  0.5995
15612SOL    HW147937   1.287   4.032   8.572 -1.0212 -0.4769  0.2691
15612SOL    HW247938   1.369   3.997   8.695 -0.4067  0.8187  0.2535
15613SOL     OW47939   7.879   0.836   3.906 -0.5651 -0.4625  0.2634
15613SOL    HW147940   7.940   0.833   3.832  0.3475 -1.5595  1.0260
15613SOL    HW247941   7.792   0.830   3.865 -0.1905  0.9447 -0.8292
15614SOL     OW47942   0.058   2.844   7.954  0.0054 -0.2659  1.0670
15614SOL    HW147943   0.095   2.839   8.042  2.6019 -1.0604  0.0238
15614SOL    HW247944   0.089   2.928   7.920  0.4047 -0.6701  0.3894
15615SOL     OW47945   6.664   1.193   5.549  0.2045  0.0048 -0.2121
15615SOL    HW147946   6.705   1.171   5.633 -1.2083 -0.6277  0.3524
15615SOL    HW247947   6.689   1.122   5.490  1.9989  0.9453 -0.6382
15616SOL     OW47948   3.688   0.662   2.368  0.5562  0.2531  0.4183
15616SOL    HW147949   3.610   0.713   2.391  0.4200  0.0137  0.4809
15616SOL    HW247950   3.734   0.718   2.305  0.6585  0.6754  0.8623
15617SOL     OW47951   0.647   0.004   5.122  0.1238  0.4000  0.1982
15617SOL    HW147952   0.707   0.010   5.196 -1.4840  0.5339  1.5361
15617SOL    HW247953   0.594  -0.073   5.140  0.5775 -0.3829 -1.5353
15618SOL     OW47954   3.639   5.013   1.669  0.0702  0.0398  0.0685
15618SOL    HW147955   3.671   5.057   1.747 -3.4807  1.9993  0.6332
15618SOL    HW247956   3.544   5.022   1.674 -0.3867 -0.8407 -3.8646
15619SOL     OW47957   8.160   5.702   1.667  0.5429  0.4197 -0.1128
15619SOL    HW147958   8.156   5.630   1.730  0.8461 -0.7168 -1.3356
15619SOL    HW247959   8.216   5.669   1.596  0.0638  1.5682 -1.0702
15620SOL     OW47960   4.785   6.545   7.774 -0.8159 -0.6678  0.2191
15620SOL    HW147961   4.853   6.528   7.708 -0.0974 -0.9533  1.0052
15620SOL    HW247962   4.779   6.640   7.779 -0.1122 -0.6285  0.4834
15621SOL     OW47963   7.366   1.595   7.117  0.5419  0.1061  0.0711
15621SOL    HW147964   7.277   1.625   7.099  0.4978  0.0896  0.2598
15621SOL    HW247965   7.357   1.500   7.129  0.7436 -0.0483 -0.9356
15622SOL     OW47966   0.561   7.275   7.937 -0.4269  0.1319 -0.2346
15622SOL    HW147967   0.561   7.358   7.889 -0.2561  0.2924  0.0430
15622SOL    HW247968   0.501   7.290   8.010  0.4195  0.3602  0.4220
15623SOL     OW47969   5.383   8.225   6.810 -0.4067  0.3826 -0.4778
15623SOL    HW147970   5.435   8.187   6.880  1.1117 -1.5623 -2.5035
15623SOL    HW247971   5.319   8.157   6.787  0.0961  0.3423 -1.9020
15624SOL     OW47972   5.107   7.660   8.413 -0.3736 -0.1224  0.3571
15624SOL    HW147973   5.045   7.589   8.427  0.5634 -1.1759 -0.6805
15624SOL    HW247974   5.080   7.699   8.329 -1.0518  0.9638  1.0490
15625SOL     OW47975   4.882   3.762   7.842 -0.2521  0.1480 -0.1549
15625SOL    HW147976   4.834   3.680   7.853 -0.4755  0.3335  0.2587
15625SOL    HW247977   4.926   3.776   7.926  1.8171 -0.8212 -0.9914
15626SOL     OW47978   0.922   1.901   8.157 -0.3382 -0.5900 -0.2541
15626SOL    HW147979   0.839   1.946   8.173 -0.4290 -0.9230  0.2808
15626SOL    HW247980   0.896   1.818   8.116 -0.0411  0.6849 -3.2697
15627SOL     OW47981   2.353   5.588   0.030 -0.6437  0.4221  0.1637
15627SOL    HW147982   2.412   5.642  -0.021  0.4615  1.1641  2.1178
15627SOL    HW247983   2.282   5.566  -0.031  1.0282  0.4715 -1.9050
15628SOL     OW47984   7.431   7.609   5.733 -0.4738 -0.0907 -0.2948
15628SOL    HW147985   7.505   7.565   5.694 -0.1951 -1.1827  1.3729
15628SOL    HW247986   7.451   7.702   5.724  0.4218 -0.3482 -1.0911
15629SOL     OW47987   5.806   0.918   7.255  0.6837  0.1471  0.1564
15629SOL    HW147988   5.723   0.943   7.214  1.5447  0.8141 -1.2492
15629SOL    HW247989   5.850   0.864   7.190  2.1490  1.3491  0.0965
15630SOL     OW47990   4.443   4.902   8.919  0.3050 -0.2428  0.0139
15630SOL    HW147991   4.393   4.984   8.920 -2.1154 -1.6334  0.3919
15630SOL    HW247992   4.525   4.923   8.964 -0.5932  1.7728  0.8085
15631SOL     OW47993   0.522   0.564   3.529  0.1647  0.2035  0.4095
15631SOL    HW147994   0.547   0.553   3.437  1.3925  0.3989  0.7025
15631SOL    HW247995   0.460   0.637   3.528  1.7551  1.6152 -0.0542
15632SOL     OW47996   6.895   7.125   4.813 -0.7932  0.6171  0.0134
15632SOL    HW147997   6.983   7.087   4.818 -0.0105  2.2529 -0.5803
15632SOL    HW247998   6.862   7.121   4.903 -0.3689 -0.5631  0.1334
15633SOL     OW47999   0.982   6.076   3.613 -0.1909 -0.1578 -0.0437
15633SOL    HW148000   0.966   6.168   3.637  1.2560  0.4522 -1.2718
15633SOL    HW248001   0.974   6.075   3.518  1.0076 -1.0649 -0.1494
15634SOL     OW48002   1.428   6.493   3.363 -0.0263  0.2671  0.7405
15634SOL    HW148003   1.465   6.412   3.327 -0.5885 -0.3912  1.6149
15634SOL    HW248004   1.343   6.501   3.321  0.3402  0.8266  0.0809
15635SOL     OW48005   3.162   1.815   4.028  0.2199 -0.4374  0.5981
15635SOL    HW148006   3.128   1.872   3.959 -0.2478 -0.5505  0.7332
15635SOL    HW248007   3.235   1.769   3.988  0.0035 -0.4372  0.2017
15636SOL     OW48008   2.896   4.799   0.114 -0.0910 -0.4072 -0.3166
15636SOL    HW148009   2.992   4.807   0.116 -0.1924  1.3520  2.6925
15636SOL    HW248010   2.881   4.715   0.070  2.6805  0.1530 -2.7444
15637SOL     OW48011   2.741   7.616   7.845 -0.1602 -0.6669 -0.0015
15637SOL    HW148012   2.836   7.628   7.841 -0.2976  0.4026 -0.3377
15637SOL    HW248013   2.724   7.542   7.787  0.4330 -0.6061 -0.2642
15638SOL     OW48014   8.650   1.560   3.266 -1.1300  0.0830 -0.2846
15638SOL    HW148015   8.685   1.513   3.343  0.0877  0.7197 -0.4168
15638SOL    HW248016   8.568   1.599   3.297 -1.6695 -1.3030  0.1091
15639SOL     OW48017   2.122   8.630   4.855  0.2164 -0.2198 -0.0116
15639SOL    HW148018   2.167   8.699   4.904  1.6897 -1.1813  0.0311
15639SOL    HW248019   2.086   8.572   4.922  0.4882 -0.4437 -0.0616
15640SOL     OW48020   5.526   7.356   6.629  0.0197  0.4519 -0.2416
15640SOL    HW148021   5.516   7.446   6.599 -0.0144 -0.0071 -1.6464
15640SOL    HW248022   5.585   7.316   6.566 -1.1020 -0.9030 -0.4741
15641SOL     OW48023   6.245   0.925   2.589  0.4462 -0.5190  0.1507
15641SOL    HW148024   6.194   0.918   2.670  1.0594  1.6518  0.7994
15641SOL    HW248025   6.263   0.835   2.564 -1.0725 -1.2717  1.5911
15642SOL     OW48026   0.275   1.750   0.146  0.0493 -0.2175 -0.5210
15642SOL    HW148027   0.182   1.769   0.135 -0.0482 -0.0385  0.4989
15642SOL    HW248028   0.277   1.679   0.210  0.6136 -0.0974 -0.4021
15643SOL     OW48029   4.997   1.394   3.384 -0.3756 -0.0005  0.4626
15643SOL    HW148030   4.930   1.332   3.413 -1.5323  0.6165 -0.7402
15643SOL    HW248031   4.978   1.474   3.433 -0.4816  0.1502  0.1781
15644SOL     OW48032   1.308   7.273   4.280  0.1294 -0.2490 -0.1125
15644SOL    HW148033   1.221   7.294   4.245  0.4457  0.4698 -0.4862
15644SOL    HW248034   1.367   7.332   4.234  0.4927  1.1844  2.0449
15645SOL     OW48035   5.959   6.894   5.571 -0.2673 -0.2449 -0.5885
15645SOL    HW148036   5.957   6.985   5.601 -0.1823 -0.1705 -0.8103
15645SOL    HW248037   6.038   6.857   5.612 -0.5383 -0.3433 -0.1424
15646SOL     OW48038   1.995   4.426   7.691  0.6766  0.4482 -0.6550
15646SOL    HW148039   1.913   4.382   7.714  1.0067 -0.4077 -1.0664
15646SOL    HW248040   2.014   4.482   7.766 -2.1911  3.6063 -2.0351
15647SOL     OW48041   2.166   3.011   8.972  0.4691 -0.8145 -0.0733
15647SOL    HW148042   2.215   3.035   9.051  1.4879  0.3312 -1.0018
15647SOL    HW248043   2.234   2.993   8.907 -0.3480 -1.5404 -0.7478
15648SOL     OW48044   6.439   3.088   6.227  0.3963  0.4778 -0.1286
15648SOL    HW148045   6.478   3.106   6.142  0.9246  4.0704  0.7274
15648SOL    HW248046   6.372   3.022   6.209  2.0526 -0.6311 -2.8463
15649SOL     OW48047   4.307   3.460   1.670  0.1861  0.0751  0.1375
15649SOL    HW148048   4.316   3.496   1.758  2.0375 -2.0814  0.9315
15649SOL    HW248049   4.362   3.516   1.615 -0.1420  0.8097  0.5483
15650SOL     OW48050   4.741   6.052   5.517  0.2554 -0.5076 -0.2294
15650SOL    HW148051   4.719   6.067   5.425 -3.1138  1.3007  0.7018
15650SOL    HW248052   4.657   6.029   5.557  1.3175  0.3398  2.6831
15651SOL     OW48053   3.358   4.551   3.929  0.0042 -0.5085 -0.0609
15651SOL    HW148054   3.362   4.643   3.957 -0.6782 -0.3410 -0.4694
15651SOL    HW248055   3.282   4.516   3.974  0.1639 -0.8302 -0.0417
15652SOL     OW48056   1.528   7.759   6.554 -0.7231  0.9431 -0.0157
15652SOL    HW148057   1.502   7.674   6.590 -0.3472  0.6568 -0.4196
15652SOL    HW248058   1.446   7.796   6.520 -0.8720  0.7110  0.0860
15653SOL     OW48059   5.946   0.067   1.983  0.3430  0.0417  0.1781
15653SOL    HW148060   5.940  -0.009   1.925 -0.2598 -0.0974  0.4146
15653SOL    HW248061   6.001   0.038   2.055  3.2253  0.9867 -1.4935
15654SOL     OW48062   2.987   1.150   8.257  0.3146 -0.0772 -0.1564
15654SOL    HW148063   3.050   1.209   8.298 -0.0164 -0.5397  1.0747
15654SOL    HW248064   3.041   1.084   8.213  0.6849  0.1920 -0.1112
15655SOL     OW48065   6.735   5.653   2.638  0.2021 -0.1464 -0.2377
15655SOL    HW148066   6.809   5.624   2.585 -0.0924 -0.3061 -0.5648
15655SOL    HW248067   6.709   5.574   2.687 -0.3559 -0.3489 -0.8414
15656SOL     OW48068   6.974   8.783   1.736  0.2564 -0.2020 -0.1303
15656SOL    HW148069   6.979   8.819   1.648 -1.0541  0.9068  0.1998
15656SOL    HW248070   7.023   8.845   1.790 -1.9767  1.1940  0.4375
15657SOL     OW48071   3.805   5.887   0.915 -0.2979 -0.1138 -0.0845
15657SOL    HW148072   3.812   5.792   0.925 -0.3235  0.0177  1.4006
15657SOL    HW248073   3.760   5.916   0.994 -1.0959  1.0518 -0.9434
15658SOL     OW48074   2.643   7.349   0.700  0.5541  0.4506  0.0860
15658SOL    HW148075   2.552   7.376   0.700  0.4996  0.2917 -0.5292
15658SOL    HW248076   2.645   7.272   0.643  1.0992  0.5736 -0.0702
15659SOL     OW48077   3.352   5.761   0.189 -0.3116 -0.5105  0.5229
15659SOL    HW148078   3.401   5.685   0.222 -0.5501 -0.7918  0.2431
15659SOL    HW248079   3.414   5.806   0.132 -0.0242 -0.2418  1.0440
15660SOL     OW48080   2.454   7.767   0.818  0.3155 -0.0160  0.0057
15660SOL    HW148081   2.425   7.773   0.728 -0.2809 -0.9933  0.1150
15660SOL    HW248082   2.398   7.827   0.867 -0.2072 -0.4208 -0.0903
15661SOL     OW48083   1.107   6.016   1.567  0.0605  0.0858 -0.3410
15661SOL    HW148084   1.061   6.097   1.589 -0.0994  0.0172 -0.4202
15661SOL    HW248085   1.190   6.045   1.529 -0.1000  0.2165 -0.5964
15662SOL     OW48086   6.657   8.605   3.285 -0.2357 -0.3443 -0.2865
15662SOL    HW148087   6.663   8.510   3.296  0.0620 -0.4164 -0.9768
15662SOL    HW248088   6.747   8.632   3.266 -0.1714  0.1990  0.7529
15663SOL     OW48089   6.296   1.475   8.856 -0.0269 -0.3340 -0.4161
15663SOL    HW148090   6.249   1.512   8.931  0.4284  1.9367 -1.1904
15663SOL    HW248091   6.256   1.516   8.780  0.7093 -1.2543 -1.3257
15664SOL     OW48092   2.817   7.953   3.300 -0.4441 -0.2296  1.0703
15664SOL    HW148093   2.770   7.982   3.222  0.0712 -0.9109  0.4841
15664SOL    HW248094   2.866   8.030   3.328 -1.9942  0.5247  1.7804
15665SOL     OW48095   5.064   2.428   4.309  0.5619 -0.2869  0.6644
15665SOL    HW148096   5.100   2.510   4.344 -0.8406  0.0537  1.3851
15665SOL    HW248097   4.978   2.452   4.276  1.5686 -0.7246 -2.6602
15666SOL     OW48098   6.540   7.894   3.224  0.3484  0.3352  0.8869
15666SOL    HW148099   6.575   7.821   3.277 -0.6501 -0.3444  0.6373
15666SOL    HW248100   6.501   7.851   3.148 -2.3578  0.9075  1.8536
15667SOL     OW48101   2.022   1.708   1.558  0.0712  0.2901 -0.5408
15667SOL    HW148102   1.990   1.644   1.494  3.1024  0.9962 -3.0308
15667SOL    HW248103   2.072   1.656   1.621  0.8505 -0.0629 -1.4112
15668SOL     OW48104   7.112   7.074   8.612 -0.0644 -0.6315 -0.1409
15668SOL    HW148105   7.024   7.110   8.607 -0.2234 -0.8570  0.8782
15668SOL    HW248106   7.123   7.049   8.704  0.6749 -1.5684 -0.4643
15669SOL     OW48107   2.521   4.197   1.616 -0.1578 -0.5279  0.3766
15669SOL    HW148108   2.528   4.179   1.522  1.9091 -1.2239  0.6131
15669SOL    HW248109   2.481   4.283   1.622  0.1243 -0.2732 -1.1614
15670SOL     OW48110   2.832   4.266   6.698  0.0879  0.1771  0.2855
15670SOL    HW148111   2.894   4.204   6.737  1.2769  2.0397  1.5593
15670SOL    HW248112   2.750   4.250   6.744 -0.1693 -1.6534 -0.7171
15671SOL     OW48113   2.366   4.521   3.598  0.3199 -0.0692 -0.1253
15671SOL    HW148114   2.346   4.525   3.505 -1.6363  3.0475  0.2734
15671SOL    HW248115   2.361   4.428   3.620 -0.0822 -0.7881 -2.9291
15672SOL     OW48116   3.258   6.834   3.055 -0.1194 -0.3149  0.2700
15672SOL    HW148117   3.318   6.772   3.015 -0.2668  0.0060 -0.4544
15672SOL    HW248118   3.210   6.873   2.982  1.0020  1.7490  0.5767
15673SOL     OW48119   8.431   7.870   5.255  0.4914 -0.1596 -0.4919
15673SOL    HW148120   8.445   7.951   5.205 -1.0720  0.3636 -0.1226
15673SOL    HW248121   8.457   7.893   5.345 -3.7424  1.3549  0.5929
15674SOL     OW48122   2.417   1.936   3.119  0.0439  0.3929 -0.0252
15674SOL    HW148123   2.427   2.017   3.169 -1.7763  1.4661 -1.2627
15674SOL    HW248124   2.344   1.891   3.162  1.0364 -0.6072  0.6440
15675SOL     OW48125   1.829   2.420   3.764 -0.1095  0.0876 -0.6127
15675SOL    HW148126   1.877   2.503   3.769  0.3812 -0.1330 -1.4597
15675SOL    HW248127   1.746   2.438   3.807  0.4229  0.7022  0.2064
15676SOL     OW48128   2.741   4.467   8.083 -0.1943 -0.1671  0.1783
15676SOL    HW148129   2.814   4.523   8.111 -0.8573 -0.2326  2.1866
15676SOL    HW248130   2.707   4.429   8.164 -1.4214 -1.4468 -0.8819
15677SOL     OW48131   5.167   4.889   3.772  0.4861 -0.5566  0.3109
15677SOL    HW148132   5.240   4.884   3.709  0.7758 -1.0107  0.6735
15677SOL    HW248133   5.168   4.804   3.816 -0.7981 -0.8975 -0.2546
15678SOL     OW48134   0.206   4.986   8.746 -0.0471 -0.0687  0.6155
15678SOL    HW148135   0.285   4.967   8.696 -0.6330  2.3375 -1.4073
15678SOL    HW248136   0.146   4.915   8.722  0.7264 -0.6715  0.4025
15679SOL     OW48137   0.058   5.255   2.318  0.2887 -0.2816  0.1553
15679SOL    HW148138  -0.037   5.243   2.322  0.1187  0.8234 -0.0957
15679SOL    HW248139   0.092   5.171   2.288 -0.6541 -0.5447 -0.2066
15680SOL     OW48140   2.272   1.561   4.637  0.2068  0.2799 -0.5754
15680SOL    HW148141   2.357   1.604   4.636  0.6424 -0.5527 -0.3510
15680SOL    HW248142   2.209   1.632   4.628  0.9190  0.9160 -0.6456
15681SOL     OW48143   2.082   6.553   4.169  0.0898  0.1673  0.3014
15681SOL    HW148144   2.003   6.502   4.189 -0.5837  0.9487 -0.3188
15681SOL    HW248145   2.146   6.523   4.234 -0.7709 -0.3318  0.9542
15682SOL     OW48146   5.282   4.730   1.698  0.3340 -0.2786  0.0704
15682SOL    HW148147   5.262   4.710   1.790 -1.1403  2.3547  0.4217
15682SOL    HW248148   5.351   4.795   1.703  0.9445 -0.8515 -0.7679
15683SOL     OW48149   0.788   3.340   3.235 -0.1080  0.3887  0.8167
15683SOL    HW148150   0.865   3.397   3.233 -0.6119  1.1070 -1.9649
15683SOL    HW248151   0.818   3.257   3.200 -0.7972  1.1095 -1.7144
15684SOL     OW48152   1.154   2.188   3.404 -0.4672  0.5870 -0.4536
15684SOL    HW148153   1.232   2.234   3.436  0.4129 -1.3620  0.3515
15684SOL    HW248154   1.185   2.138   3.328 -0.4022 -1.6199  0.9219
15685SOL     OW48155   2.546   3.428   8.089 -0.4939 -0.0319 -0.3757
15685SOL    HW148156   2.541   3.523   8.079 -0.6248  0.0890  0.6706
15685SOL    HW248157   2.457   3.397   8.074 -0.6043  0.0988 -0.0106
15686SOL     OW48158   2.111   5.648   1.435  0.6370 -0.1370  0.1850
15686SOL    HW148159   2.055   5.719   1.404 -2.2053 -2.1960  0.2871
15686SOL    HW248160   2.145   5.679   1.519  0.0232  1.3395 -0.0842
15687SOL     OW48161   7.419   8.067   4.436  0.3443  0.0235 -0.3065
15687SOL    HW148162   7.363   7.998   4.470  1.5070 -1.5665 -1.4694
15687SOL    HW248163   7.480   8.086   4.507 -0.1586  0.0612  0.1175
15688SOL     OW48164   5.740   6.702   0.006  0.0603  0.0454  0.6539
15688SOL    HW148165   5.738   6.798   0.002 -2.2918  0.0410 -0.1688
15688SOL    HW248166   5.824   6.681   0.045  0.4163  2.4699  1.3606
15689SOL     OW48167   3.075   6.158   5.377 -0.3827  0.2590 -0.1348
15689SOL    HW148168   3.158   6.119   5.405 -1.6567 -1.7597  1.1962
15689SOL    HW248169   3.088   6.181   5.286  1.4580 -0.5933 -0.1287
15690SOL     OW48170   0.544   2.018   8.361 -0.7598  0.0707 -0.1339
15690SOL    HW148171   0.543   1.922   8.365 -1.3241  0.1161  1.2698
15690SOL    HW248172   0.546   2.037   8.267 -0.2014 -1.3099 -0.4336
15691SOL     OW48173   5.010   2.455   0.965  0.1848  0.0383  0.3554
15691SOL    HW148174   4.941   2.520   0.978  0.8045  0.7419  0.2171
15691SOL    HW248175   5.065   2.463   1.043  2.3205  2.2911 -1.2192
15692SOL     OW48176   7.031   2.894   6.025 -0.8040 -0.2958 -0.2108
15692SOL    HW148177   7.066   2.843   6.097  2.5103  1.9375 -0.0146
15692SOL    HW248178   7.059   2.848   5.946  0.5508  0.1983 -0.0343
15693SOL     OW48179   8.315   2.745   5.482 -0.6619  0.5577 -0.1349
15693SOL    HW148180   8.399   2.717   5.521 -0.9916  2.1282  1.8718
15693SOL    HW248181   8.261   2.666   5.483  0.7315 -0.4670 -1.3989
15694SOL     OW48182   7.164   4.292   2.516 -0.2301  0.6011  0.7068
15694SOL    HW148183   7.143   4.385   2.515 -1.2506  0.4017  1.5707
15694SOL    HW248184   7.255   4.287   2.488 -0.9407  1.6154 -2.0858
15695SOL     OW48185   2.154   2.632   6.878 -0.0080  0.0752 -0.0862
15695SOL    HW148186   2.086   2.564   6.880  0.8307 -0.8017 -0.7403
15695SOL    HW248187   2.107   2.713   6.900 -1.4708 -0.3252 -1.5566
15696SOL     OW48188   6.607   8.808   6.746 -0.3272 -0.0479  0.5182
15696SOL    HW148189   6.618   8.792   6.840  0.3276  0.3888  0.5266
15696SOL    HW248190   6.694   8.834   6.716 -0.8871  1.5322  0.1397
15697SOL     OW48191   8.040   3.103   0.870 -0.3426  0.6063  0.1480
15697SOL    HW148192   7.974   3.035   0.883  0.7723 -0.3751  0.9122
15697SOL    HW248193   8.069   3.091   0.779 -0.4534  0.3417  0.1466
15698SOL     OW48194   5.574   0.233   3.889  0.5032 -0.1159 -0.3081
15698SOL    HW148195   5.612   0.233   3.978 -0.0822  1.6073 -0.0169
15698SOL    HW248196   5.576   0.141   3.862  1.5114 -0.5574  1.1404
15699SOL     OW48197   5.138   0.504   6.484 -0.0641 -0.0938 -0.3826
15699SOL    HW148198   5.174   0.512   6.395  1.2080 -0.9930  0.0227
15699SOL    HW248199   5.134   0.410   6.499  1.2215  0.0510  1.0749
15700SOL     OW48200   1.200   5.944   3.226  0.3227  0.0969  0.2145
15700SOL    HW148201   1.286   5.985   3.219 -0.3007  1.2744 -1.3881
15700SOL    HW248202   1.169   5.967   3.314  1.6160 -0.3225  0.7977
15701SOL     OW48203   2.492   6.747   7.500  0.0876 -0.0384 -0.4278
15701SOL    HW148204   2.432   6.774   7.430  1.0511 -1.0565 -1.6861
15701SOL    HW248205   2.446   6.770   7.580 -0.7190  1.9213 -1.3735
15702SOL     OW48206   7.111   0.631   8.197 -0.0593  0.7331  0.1393
15702SOL    HW148207   7.141   0.542   8.212  0.9023  0.9110 -0.6294
15702SOL    HW248208   7.131   0.677   8.279  0.5499  0.5213  0.1158
15703SOL     OW48209   0.017   5.506   4.963 -0.3629  0.0413 -0.3077
15703SOL    HW148210  -0.054   5.453   5.000 -0.3620 -0.0470 -0.4332
15703SOL    HW248211   0.012   5.491   4.869 -0.4460  0.3707 -0.3552
15704SOL     OW48212   4.495   2.470   2.346 -0.0465  0.0629  0.1482
15704SOL    HW148213   4.419   2.510   2.389 -0.2824  0.9463 -1.0438
15704SOL    HW248214   4.550   2.544   2.321  0.1917 -0.4313 -0.8386
15705SOL     OW48215   4.743   6.059   7.309 -0.3113  0.9027 -0.2312
15705SOL    HW148216   4.832   6.046   7.277  0.3675 -0.2932  1.9115
15705SOL    HW248217   4.706   5.971   7.314 -0.6453  1.0900  1.3907
15706SOL     OW48218   3.463   4.805   0.335 -0.2616  0.3846  0.1114
15706SOL    HW148219   3.441   4.713   0.320 -1.2844  0.4458  1.1137
15706SOL    HW248220   3.510   4.832   0.256 -0.3703 -0.8596 -0.3946
15707SOL     OW48221   4.825   5.732   1.903 -0.1064  0.1993 -0.4265
15707SOL    HW148222   4.746   5.746   1.956  0.9685  2.6393  0.6785
15707SOL    HW248223   4.887   5.797   1.935  3.2983 -3.1246  0.4120
15708SOL     OW48224   4.711   0.821   4.905 -0.4990 -0.3558  0.1432
15708SOL    HW148225   4.733   0.913   4.890 -2.5461  0.6329  2.4171
15708SOL    HW248226   4.776   0.792   4.970 -0.3471 -0.2525  0.0381
15709SOL     OW48227   8.986   2.570   6.237  0.4943 -0.4397 -0.0570
15709SOL    HW148228   9.007   2.478   6.225  0.8204 -0.4626  0.6267
15709SOL    HW248229   8.905   2.583   6.188 -0.1687 -1.3533  0.7643
15710SOL     OW48230   0.929   8.825   2.328 -0.2923  0.4688  0.3221
15710SOL    HW148231   0.834   8.824   2.343 -0.3666 -1.3924 -0.0044
15710SOL    HW248232   0.957   8.734   2.344  1.3118  0.8076 -0.3214
15711SOL     OW48233   4.080   5.591   0.185  0.3018  0.2129 -0.4048
15711SOL    HW148234   4.173   5.573   0.199  0.1069 -1.1543 -0.7417
15711SOL    HW248235   4.035   5.514   0.219 -0.7566  1.0564  0.1944
15712SOL     OW48236   6.502   5.155   7.138  0.3538 -0.0293  0.4642
15712SOL    HW148237   6.548   5.227   7.181  0.4689  0.0305  0.2417
15712SOL    HW248238   6.570   5.091   7.117  0.5464  0.6352 -1.0508
15713SOL     OW48239   0.702   6.765   2.160 -0.1915  0.2428 -0.3294
15713SOL    HW148240   0.681   6.760   2.067  0.1824 -0.6511 -0.3804
15713SOL    HW248241   0.751   6.847   2.169 -1.1804  0.8937 -0.7107
15714SOL     OW48242   6.508   4.464   2.366 -0.3033  0.1152  0.0037
15714SOL    HW148243   6.511   4.452   2.271  1.7846 -1.2835  0.1853
15714SOL    HW248244   6.436   4.409   2.395 -0.5115  0.0138 -0.6830
15715SOL     OW48245   4.576   6.334   6.795 -0.6012 -0.4341 -0.6166
15715SOL    HW148246   4.524   6.279   6.854 -2.1788 -0.8364 -2.2773
15715SOL    HW248247   4.512   6.370   6.734  0.3530  3.2399  0.2947
15716SOL     OW48248   7.144   5.043   0.600 -0.3965 -0.1136  0.0005
15716SOL    HW148249   7.125   5.110   0.665  0.2213  0.3027 -0.2421
15716SOL    HW248250   7.063   5.036   0.549 -0.3506  0.7109 -0.2005
15717SOL     OW48251   6.413   2.349   5.621 -0.1111 -0.5974  0.3829
15717SOL    HW148252   6.449   2.277   5.569  1.5596  0.3797  0.0854
15717SOL    HW248253   6.405   2.422   5.558 -1.2902 -0.3601  0.7851
15718SOL     OW48254   0.448   1.288   6.454 -0.3026 -0.2609  0.3620
15718SOL    HW148255   0.458   1.381   6.474  0.0673 -0.4188  0.9030
15718SOL    HW248256   0.490   1.242   6.526  0.2819 -0.8452 -0.3262
15719SOL     OW48257   1.121   8.695   0.554 -0.4484  0.0320  0.1116
15719SOL    HW148258   1.097   8.736   0.471 -1.6966  0.9895  0.9073
15719SOL    HW248259   1.194   8.638   0.532  0.5696  1.7657 -1.2753
15720SOL     OW48260   0.757   4.207   1.980 -0.1197  0.1333  0.6172
15720SOL    HW148261   0.756   4.256   1.898 -2.1926  0.5406  0.8302
15720SOL    HW248262   0.745   4.115   1.954  1.2328  0.0056  0.3749
15721SOL     OW48263   6.474   5.104   1.486  0.3956  0.2625  0.2369
15721SOL    HW148264   6.495   5.153   1.565 -0.5726  0.4689  0.3787
15721SOL    HW248265   6.474   5.170   1.417  0.6330  0.1870  0.1633
15722SOL     OW48266   2.153   0.805   0.297  0.5308 -0.0821 -0.4342
15722SOL    HW148267   2.125   0.853   0.375  1.5564 -1.3377  0.7603
15722SOL    HW248268   2.075   0.759   0.267  0.5143 -1.0245  0.9602
15723SOL     OW48269   8.906   5.280   2.885  0.1669  0.0658  0.5191
15723SOL    HW148270   8.833   5.240   2.836 -0.6780  1.2278  0.7863
15723SOL    HW248271   8.910   5.229   2.966 -1.6513  1.1602  1.3596
15724SOL     OW48272   5.682   5.378   1.409  0.0796  0.3623  0.2300
15724SOL    HW148273   5.681   5.457   1.355  0.6179 -0.3320 -0.8244
15724SOL    HW248274   5.774   5.367   1.432  0.1720 -0.5407 -0.5260
15725SOL     OW48275   7.291   1.130   5.131  0.1181 -0.2731  0.7733
15725SOL    HW148276   7.213   1.084   5.099  0.4366 -0.5041  0.3217
15725SOL    HW248277   7.257   1.198   5.189 -0.5203  0.6152 -0.6047
15726SOL     OW48278   7.141   6.362   3.239 -0.0188  0.7307 -0.2892
15726SOL    HW148279   7.124   6.268   3.240 -1.4510  0.9587  0.0621
15726SOL    HW248280   7.170   6.381   3.150 -1.0923  0.1543 -0.7769
15727SOL     OW48281   0.316   5.100   0.127 -0.7057 -0.4642 -0.4827
15727SOL    HW148282   0.351   5.019   0.088  0.3202 -0.0846 -0.3650
15727SOL    HW248283   0.301   5.157   0.052  2.2230  0.6461 -0.3670
15728SOL     OW48284   5.000   6.039   1.766 -0.0290 -0.4500 -0.1487
15728SOL    HW148285   5.073   6.026   1.705  0.1630 -2.4299  0.4390
15728SOL    HW248286   4.922   6.025   1.713 -0.0537  1.9970 -0.8573
15729SOL     OW48287   3.570   7.961   8.239 -0.2085 -0.5788 -0.2018
15729SOL    HW148288   3.593   7.899   8.307  0.0989 -0.4439 -0.1779
15729SOL    HW248289   3.509   8.022   8.280 -0.1837 -0.6200 -0.1054
15730SOL     OW48290   0.288   5.940   1.896  0.1802  0.0804 -0.3970
15730SOL    HW148291   0.344   5.892   1.956  0.9123  0.5678 -0.6681
15730SOL    HW248292   0.262   5.876   1.830  0.3794 -0.1655 -0.2369
15731SOL     OW48293   1.615   2.741   1.864 -0.7922  0.0717 -0.3345
15731SOL    HW148294   1.660   2.695   1.794 -0.4314  1.8941 -1.3756
15731SOL    HW248295   1.655   2.708   1.945  1.5815  0.7371 -1.1658
15732SOL     OW48296   6.468   4.782   3.847 -0.2388 -0.7940  0.1664
15732SOL    HW148297   6.511   4.708   3.891  0.8788  1.4094  3.0924
15732SOL    HW248298   6.405   4.814   3.911  0.5252  1.8069 -0.2760
15733SOL     OW48299   2.014   0.895   7.716  0.1225 -0.1600 -0.2038
15733SOL    HW148300   2.101   0.913   7.751  0.8075 -0.2853 -1.7508
15733SOL    HW248301   1.967   0.853   7.788  1.7349 -1.1933  0.3003
15734SOL     OW48302   6.043   6.952   4.384 -0.4510 -0.4157 -0.2653
15734SOL    HW148303   5.985   7.027   4.374  0.1480  0.1857  0.5632
15734SOL    HW248304   6.131   6.989   4.380 -0.1190 -0.6126  2.8114
15735SOL     OW48305   4.657   7.040   5.155  0.2343  0.1919  0.1505
15735SOL    HW148306   4.709   7.031   5.234  0.6339 -0.7309 -0.2010
15735SOL    HW248307   4.694   7.116   5.111  1.4239 -0.5297 -0.1666
15736SOL     OW48308   2.355   4.530   4.826  0.2327 -0.3288 -0.1326
15736SOL    HW148309   2.298   4.607   4.829 -0.9497 -1.2028  0.9686
15736SOL    HW248310   2.338   4.492   4.739 -1.3046 -0.8562  0.3569
15737SOL     OW48311   6.820   7.160   8.542 -0.6071 -0.8543 -0.3763
15737SOL    HW148312   6.809   7.242   8.494 -0.1246 -1.0057 -0.7524
15737SOL    HW248313   6.750   7.104   8.509 -0.4055 -0.8879 -0.7492
15738SOL     OW48314   3.307   8.600   7.779 -0.0462  0.8587  0.4619
15738SOL    HW148315   3.371   8.638   7.719  0.8763  0.7950  1.3754
15738SOL    HW248316   3.240   8.561   7.722  0.9320  0.5799 -0.5266
15739SOL     OW48317   7.536   5.314   7.639 -0.0388 -0.4445 -0.6873
15739SOL    HW148318   7.531   5.247   7.571  1.4584 -1.3317  0.0483
15739SOL    HW248319   7.615   5.364   7.619  0.5317 -0.8372  0.4905
15740SOL     OW48320   0.071   8.026   2.807 -0.2302 -0.0580 -0.5731
15740SOL    HW148321   0.111   7.946   2.842 -1.1486 -0.5038 -0.5238
15740SOL    HW248322   0.051   8.078   2.885  3.3422  1.7741 -0.6455
15741SOL     OW48323   1.674   4.312   4.820  0.3842 -0.0145  0.4198
15741SOL    HW148324   1.679   4.309   4.915  2.0717 -2.1299  0.3532
15741SOL    HW248325   1.583   4.293   4.799  0.3976 -1.5850  1.6152
15742SOL     OW48326   7.594   4.649   7.898 -0.5558 -0.1322 -0.2889
15742SOL    HW148327   7.550   4.708   7.959 -1.3719 -1.4340  0.4329
15742SOL    HW248328   7.524   4.593   7.864 -0.0394  0.2749 -2.1031
15743SOL     OW48329   6.056   5.026   6.968  0.4545  0.0502  0.0505
15743SOL    HW148330   5.964   5.003   6.981 -0.0126  1.6339 -0.2634
15743SOL    HW248331   6.068   5.022   6.873  0.9161 -0.7945  0.1273
15744SOL     OW48332   1.162   8.727   7.863 -0.1497 -0.4385  0.6449
15744SOL    HW148333   1.169   8.705   7.770 -1.5138 -2.6585  1.0230
15744SOL    HW248334   1.245   8.698   7.901  0.4717  0.6069  0.1535
15745SOL     OW48335   8.056   2.371   5.025 -0.2711  0.1763  0.1607
15745SOL    HW148336   8.132   2.426   5.045 -1.4006  1.7877  0.1979
15745SOL    HW248337   8.062   2.298   5.087  0.7834  0.7337  0.7413
15746SOL     OW48338   8.973   6.619   0.689 -0.6793 -0.2463  0.3898
15746SOL    HW148339   9.009   6.578   0.611 -5.6287 -1.7123 -1.4438
15746SOL    HW248340   8.979   6.552   0.757  1.0691  0.0494  0.5854
15747SOL     OW48341   7.026   7.588   5.557  0.0975 -0.0414 -0.2836
15747SOL    HW148342   6.957   7.635   5.604 -1.0676 -1.5793 -0.3870
15747SOL    HW248343   7.009   7.607   5.464  1.9771  2.4189 -0.2368
15748SOL     OW48344   4.247   2.311   0.215  0.0616  0.4738 -0.3695
15748SOL    HW148345   4.156   2.334   0.197 -0.3495 -1.7387 -1.4483
15748SOL    HW248346   4.287   2.303   0.129  0.3412 -1.8932 -0.0803
15749SOL     OW48347   7.407   8.522   9.028 -0.1339  0.1661  0.2730
15749SOL    HW148348   7.348   8.506   9.101  0.0483 -0.3401  0.3153
15749SOL    HW248349   7.362   8.486   8.951  0.2840 -0.6002  0.3710
15750SOL     OW48350   1.532   8.072   3.152  0.3632 -0.3673  0.4514
15750SOL    HW148351   1.589   7.995   3.158  0.3923 -0.6349 -2.1583
15750SOL    HW248352   1.476   8.055   3.077  0.5171  2.2220 -0.3565
15751SOL     OW48353   6.703   0.779   5.362  0.3508  0.0629 -0.2795
15751SOL    HW148354   6.681   0.867   5.333  2.0953  1.2127  1.5535
15751SOL    HW248355   6.794   0.786   5.391 -1.0503 -0.6036  5.7036
15752SOL     OW48356   8.969   0.078   6.011  0.2203  0.5128 -0.5738
15752SOL    HW148357   8.961   0.006   6.074 -0.7955  0.7686 -0.3994
15752SOL    HW248358   8.969   0.157   6.065  0.6953  0.6801 -0.8111
15753SOL     OW48359   3.960   2.332   7.729 -0.2082  0.2738 -0.1612
15753SOL    HW148360   3.981   2.249   7.686 -1.8614 -0.6800  0.7378
15753SOL    HW248361   3.866   2.342   7.716  0.0010  2.1837 -0.4819
15754SOL     OW48362   8.828   7.757   0.747  0.2407 -0.5142 -0.3092
15754SOL    HW148363   8.864   7.812   0.678  1.2279 -0.4917  0.2021
15754SOL    HW248364   8.870   7.789   0.827 -0.5549 -0.8216  0.2411
15755SOL     OW48365   2.663   1.079   0.669  0.5133  0.5116  0.4580
15755SOL    HW148366   2.732   1.143   0.685 -0.0562  1.5285 -0.9099
15755SOL    HW248367   2.608   1.082   0.747  2.2411 -0.6963  1.8090
15756SOL     OW48368   1.232   1.692   7.238 -0.2023 -0.1820  0.3260
15756SOL    HW148369   1.167   1.623   7.255  0.0219 -0.3452  0.5238
15756SOL    HW248370   1.180   1.767   7.209 -0.5258 -0.1467  0.9693
15757SOL     OW48371   0.385   3.174   0.440 -0.4660  0.3463  0.4418
15757SOL    HW148372   0.353   3.108   0.377 -0.3104  1.9908 -1.4765
15757SOL    HW248373   0.339   3.153   0.521  0.6777 -2.9987  0.4078
15758SOL     OW48374   3.189   7.124   3.068  0.6501  0.0976  0.0998
15758SOL    HW148375   3.125   7.179   3.023  0.3937  0.1730  0.5458
15758SOL    HW248376   3.254   7.103   3.001  0.9374  1.2249  0.0058
15759SOL     OW48377   5.339   3.505   4.914  0.1948 -0.1435 -0.6769
15759SOL    HW148378   5.315   3.413   4.922  1.1688 -0.2923  1.1656
15759SOL    HW248379   5.256   3.550   4.899 -0.4703 -1.1950 -0.2595
15760SOL     OW48380   6.784   0.475   4.998 -0.0455 -0.4674 -0.4044
15760SOL    HW148381   6.777   0.566   5.029  0.0958 -1.1248  1.7574
15760SOL    HW248382   6.696   0.453   4.969  0.1655  0.6817 -2.0404
15761SOL     OW48383   5.700   3.009   1.870 -0.2922  0.3089  0.0311
15761SOL    HW148384   5.766   2.996   1.938 -0.6539 -0.0622  0.3153
15761SOL    HW248385   5.730   2.954   1.797 -0.3843 -0.0037  0.2284
15762SOL     OW48386   7.225   6.797   4.507 -0.0894  0.1105  0.4718
15762SOL    HW148387   7.286   6.726   4.523 -0.7649 -0.3218  1.1811
15762SOL    HW248388   7.142   6.768   4.547 -0.8503  0.5468 -0.7351
15763SOL     OW48389   2.423   1.446   1.191  0.0646 -0.5467  0.0862
15763SOL    HW148390   2.497   1.432   1.251  0.4700  1.5092  0.1420
15763SOL    HW248391   2.347   1.454   1.248  0.4209  1.2096  0.3822
15764SOL     OW48392   4.381   4.761   6.969  0.4589 -0.1791  0.1571
15764SOL    HW148393   4.419   4.702   7.034  0.8567  0.3365  0.4088
15764SOL    HW248394   4.303   4.797   7.011  0.3142 -0.3932  0.0711
15765SOL     OW48395   8.967   0.326   6.433  0.3091 -0.8252  0.1340
15765SOL    HW148396   8.998   0.260   6.494 -1.4554  0.3601  2.4778
15765SOL    HW248397   8.874   0.307   6.420  0.5288 -0.7974 -1.9382
15766SOL     OW48398   0.690   4.953   1.631  0.0346  0.6407 -0.8850
15766SOL    HW148399   0.732   4.984   1.551 -0.0390  1.9505 -0.4478
15766SOL    HW248400   0.643   4.874   1.605  2.5313 -0.7649 -1.4509
15767SOL     OW48401   3.418   1.302   6.579 -0.0780 -0.4324 -0.1943
15767SOL    HW148402   3.481   1.247   6.533 -0.9133 -1.6116  0.0384
15767SOL    HW248403   3.334   1.258   6.567 -0.8846  1.1080 -0.4997
15768SOL     OW48404   7.419   1.931   2.487 -0.2025  0.2867 -0.2884
15768SOL    HW148405   7.487   1.863   2.488  1.6712  2.0442  1.4555
15768SOL    HW248406   7.344   1.890   2.529  0.1905 -1.3109 -1.0635
15769SOL     OW48407   5.826   7.667   3.779 -0.4423  0.0261 -0.1802
15769SOL    HW148408   5.751   7.722   3.804  0.2389  0.7178  0.3782
15769SOL    HW248409   5.891   7.728   3.745  0.0100 -0.5318 -0.3284
15770SOL     OW48410   4.291   5.026   8.273 -0.5120 -0.7964 -0.1283
15770SOL    HW148411   4.382   5.046   8.296 -0.7585  0.5938 -0.2947
15770SOL    HW248412   4.290   5.024   8.178 -0.7723 -0.2273 -0.1400
15771SOL     OW48413   0.987   1.003   1.106  0.1258  0.5960  0.5500
15771SOL    HW148414   1.076   1.018   1.075 -0.0187 -0.1876 -0.2795
15771SOL    HW248415   0.993   1.009   1.201  1.2969 -0.6579  0.5751
15772SOL     OW48416   5.788   8.917   1.468  0.1560  0.4748  0.8267
15772SOL    HW148417   5.739   8.966   1.402  0.6163 -0.5254 -0.2805
15772SOL    HW248418   5.866   8.887   1.422 -0.1093 -1.2907  1.4743
15773SOL     OW48419   0.180   4.946   3.102 -0.0314 -0.2193 -0.0709
15773SOL    HW148420   0.089   4.927   3.079  0.0818  0.9182 -1.6488
15773SOL    HW248421   0.210   4.868   3.149 -1.5346 -0.9997 -0.3431
15774SOL     OW48422   4.906   8.190   5.012  0.3831  0.1111 -0.2477
15774SOL    HW148423   4.820   8.223   4.983  1.5346  1.3829 -2.5217
15774SOL    HW248424   4.887   8.142   5.092 -2.7371 -1.2602 -1.6085
15775SOL     OW48425   3.980   4.697   6.389 -0.0955  0.0149  0.3189
15775SOL    HW148426   3.939   4.759   6.449  1.7507  1.3229  0.3005
15775SOL    HW248427   3.933   4.709   6.306 -0.4774  0.6014  0.6144
15776SOL     OW48428   1.512   5.171   5.179 -0.7118  0.6592 -0.4420
15776SOL    HW148429   1.459   5.236   5.225 -0.8949 -0.0325  0.3570
15776SOL    HW248430   1.590   5.161   5.235 -0.2289  0.8981 -1.0614
15777SOL     OW48431   3.441   6.042   3.921  0.2857  0.2390 -0.1940
15777SOL    HW148432   3.372   5.997   3.872  0.7522 -0.8573  0.1372
15777SOL    HW248433   3.496   6.080   3.853 -0.2939  0.6063 -0.4724
15778SOL     OW48434   8.308   5.803   8.025 -0.0866 -0.3635  0.3067
15778SOL    HW148435   8.357   5.795   8.107 -0.6823  1.2612  0.8763
15778SOL    HW248436   8.234   5.745   8.036  0.8725 -1.6693  0.0752
15779SOL     OW48437   6.284   6.424   4.298  0.2640 -0.4330 -0.5794
15779SOL    HW148438   6.339   6.444   4.374 -0.3624  1.4005 -0.5443
15779SOL    HW248439   6.327   6.468   4.225  0.7032 -1.9399 -1.2641
15780SOL     OW48440   6.662   6.947   7.710 -0.1599 -0.0037 -0.2829
15780SOL    HW148441   6.690   7.036   7.689 -1.7772  0.6324  0.1104
15780SOL    HW248442   6.610   6.956   7.790 -0.7930 -1.2160 -0.5256
15781SOL     OW48443   8.130   3.035   5.292  0.1879  0.0971 -0.7890
15781SOL    HW148444   8.190   2.965   5.266  0.3686 -0.5533  1.2595
15781SOL    HW248445   8.052   2.990   5.322  0.2340  0.7720  0.3811
15782SOL     OW48446   8.939   1.850   1.626  0.0530  0.4490  0.0923
15782SOL    HW148447   8.883   1.778   1.655  1.1971 -0.1929  0.7717
15782SOL    HW248448   9.010   1.808   1.579  0.6208  1.1499  0.2978
15783SOL     OW48449   0.135   8.704   8.109 -0.1063  0.4301  0.2181
15783SOL    HW148450   0.063   8.749   8.064 -0.6708 -1.4909 -0.9071
15783SOL    HW248451   0.100   8.617   8.128  0.9947  0.3585  2.1845
15784SOL     OW48452   7.367   7.473   8.053  0.4083  0.2052  0.6039
15784SOL    HW148453   7.285   7.510   8.018  0.2132 -0.4736  0.3352
15784SOL    HW248454   7.434   7.500   7.990  0.2388 -0.0569  0.3123
15785SOL     OW48455   6.463   7.059   9.061 -0.8811  0.3614  0.0788
15785SOL    HW148456   6.384   7.012   9.089 -0.3941  0.2351  1.3334
15785SOL    HW248457   6.437   7.104   8.981 -2.2055  0.2461  0.4110
15786SOL     OW48458   7.851   7.324   5.426  0.1214  0.3029  0.0193
15786SOL    HW148459   7.841   7.231   5.404 -0.9222  0.1152  1.1531
15786SOL    HW248460   7.942   7.333   5.453  0.1645 -0.4483  0.1502
15787SOL     OW48461   6.575   4.497   3.539 -0.0457  0.0720 -0.1000
15787SOL    HW148462   6.597   4.435   3.469 -0.3607 -0.7745  0.5197
15787SOL    HW248463   6.652   4.495   3.596  0.8226  1.8550 -1.1344
15788SOL     OW48464   7.920   1.325   9.063 -0.1542 -0.6479  0.2735
15788SOL    HW148465   7.869   1.251   9.096 -0.3915 -0.6969 -0.2073
15788SOL    HW248466   8.005   1.287   9.038 -0.3841 -0.8151 -0.2661
15789SOL     OW48467   2.345   2.785   3.482  0.2381  0.1065  0.0905
15789SOL    HW148468   2.274   2.721   3.480  0.1160  0.1719  1.2304
15789SOL    HW248469   2.375   2.784   3.574 -1.0044  2.9990  0.6247
15790SOL     OW48470   3.948   5.891   2.238 -0.3382  0.4128 -0.6243
15790SOL    HW148471   3.896   5.859   2.311 -0.1374  0.0920 -0.6172
15790SOL    HW248472   3.885   5.910   2.169 -0.6247  1.5721 -0.0764
15791SOL     OW48473   7.617   2.638   4.654  0.7060  0.1075  0.6604
15791SOL    HW148474   7.694   2.583   4.664 -0.6538 -2.0089  0.0258
15791SOL    HW248475   7.564   2.595   4.587 -0.7788  1.8114  0.6329
15792SOL     OW48476   6.218   0.638   7.889  0.1053  1.1152  0.6282
15792SOL    HW148477   6.132   0.677   7.874 -0.1412  1.4202  2.5847
15792SOL    HW248478   6.276   0.685   7.829 -0.6353  2.7942  1.1583
15793SOL     OW48479   5.167   2.841   5.166 -0.0389  0.5824 -0.0890
15793SOL    HW148480   5.213   2.853   5.249 -1.6885  0.5993  0.8667
15793SOL    HW248481   5.076   2.825   5.192 -0.2039 -1.7466 -1.7673
15794SOL     OW48482   3.888   4.764   8.801  0.1834  0.3798 -0.1720
15794SOL    HW148483   3.906   4.774   8.707  0.9516  1.2688  0.0538
15794SOL    HW248484   3.968   4.795   8.844 -0.5817  1.0608  0.8032
15795SOL     OW48485   8.325   7.257   6.432  0.0983 -0.2983 -0.9518
15795SOL    HW148486   8.239   7.300   6.426  0.2285 -0.0106 -0.7869
15795SOL    HW248487   8.323   7.212   6.517  0.0086 -0.5201 -1.0697
15796SOL     OW48488   5.389   3.953   4.208  0.0761 -0.1844 -0.3353
15796SOL    HW148489   5.399   3.895   4.284  1.4791 -0.9421 -1.0589
15796SOL    HW248490   5.342   4.029   4.243 -1.3936 -1.5017  0.7524
15797SOL     OW48491   4.729   4.317   7.192 -0.4530  0.2390 -0.2148
15797SOL    HW148492   4.805   4.337   7.138 -0.3486  0.4508  0.0104
15797SOL    HW248493   4.764   4.308   7.281 -0.9395  2.1162  0.1995
15798SOL     OW48494   2.089   6.802   6.597  0.6394 -0.0563 -0.5170
15798SOL    HW148495   2.071   6.895   6.587  0.2349 -0.1781 -0.9449
15798SOL    HW248496   2.036   6.759   6.529 -0.3368 -0.7100  0.6040
15799SOL     OW48497   5.618   3.349   5.746  1.1770  0.0006 -0.1585
15799SOL    HW148498   5.654   3.276   5.798  0.2733 -1.0412 -0.9611
15799SOL    HW248499   5.683   3.363   5.677  1.2081 -0.2401 -0.1790
15800SOL     OW48500   2.846   1.058   4.541 -0.1133 -0.0721 -0.1450
15800SOL    HW148501   2.862   0.986   4.601 -0.3200  0.4299  0.5273
15800SOL    HW248502   2.804   1.125   4.595 -0.3310  0.3747 -0.8595
15801SOL     OW48503   2.301   3.126   0.094  0.3647  0.4621 -0.0288
15801SOL    HW148504   2.335   3.212   0.069  1.0608 -0.1977 -1.4848
15801SOL    HW248505   2.379   3.071   0.102 -0.0229  0.1291  1.6279
15802SOL     OW48506   8.295   3.767   8.211 -0.3781 -0.4303 -0.1502
15802SOL    HW148507   8.288   3.671   8.207  1.5749 -0.5895 -1.6201
15802SOL    HW248508   8.237   3.798   8.142  0.1775 -0.6853 -0.7511
15803SOL     OW48509   6.876   8.807   3.015  0.2905  0.3685  0.0998
15803SOL    HW148510   6.928   8.868   2.963  1.1762  0.9485  1.6045
15803SOL    HW248511   6.856   8.855   3.095 -1.1640 -0.4479  0.2620
15804SOL     OW48512   4.224   7.680   2.320 -0.5723  0.0245 -0.3092
15804SOL    HW148513   4.274   7.628   2.257 -1.6479 -2.0632  0.4799
15804SOL    HW248514   4.201   7.619   2.389 -3.2537  1.1510 -0.0907
15805SOL     OW48515   4.532   4.432   1.498 -0.0315 -0.2345 -0.0655
15805SOL    HW148516   4.617   4.388   1.496 -1.0879 -2.7655  2.7204
15805SOL    HW248517   4.548   4.513   1.548  0.7008 -0.8977  0.8142
15806SOL     OW48518   2.256   6.002   5.345  0.3219  0.0508  0.4130
15806SOL    HW148519   2.167   6.032   5.328  0.5315 -0.1638 -1.2100
15806SOL    HW248520   2.295   6.071   5.399  0.0016  1.4788 -1.1091
15807SOL     OW48521   3.321   1.305   1.527 -0.1724  0.0997 -0.1830
15807SOL    HW148522   3.392   1.246   1.499 -0.5062 -0.4714  0.1523
15807SOL    HW248523   3.242   1.265   1.491 -0.1712  1.8623 -2.4132
15808SOL     OW48524   6.548   5.101   3.610  0.2554  0.4792  0.2589
15808SOL    HW148525   6.577   5.181   3.654  0.2463  0.1191  0.9154
15808SOL    HW248526   6.479   5.131   3.551  0.7526  1.0693 -0.0471
15809SOL     OW48527   1.494   1.407   6.936 -0.4607  0.3232  0.1003
15809SOL    HW148528   1.466   1.456   6.859  0.1579  1.1181  0.3740
15809SOL    HW248529   1.472   1.464   7.010 -0.4074 -0.1334  0.4766
15810SOL     OW48530   1.117   0.676   5.628 -0.3256  0.0611  0.3209
15810SOL    HW148531   1.042   0.711   5.677 -0.7267  1.4315 -1.1809
15810SOL    HW248532   1.150   0.751   5.578  0.6932 -1.0286 -0.7118
15811SOL     OW48533   8.077   1.498   7.290 -0.1764 -0.1245 -0.0369
15811SOL    HW148534   8.098   1.578   7.339 -0.3417 -0.6026  0.8509
15811SOL    HW248535   8.150   1.440   7.308  0.3456  0.1074 -1.3545
15812SOL     OW48536   3.254   8.998   7.605  0.4976 -0.4383  0.3461
15812SOL    HW148537   3.330   8.965   7.654  0.8102  0.4048  0.4533
15812SOL    HW248538   3.220   9.069   7.660 -0.2475 -0.6726  0.1910
15813SOL     OW48539   4.587   3.742   1.855  0.6471  0.2174 -0.5725
15813SOL    HW148540   4.561   3.818   1.906 -1.6559 -0.3444 -0.8007
15813SOL    HW248541   4.608   3.675   1.921  0.4815  0.3683 -0.3652
15814SOL     OW48542   0.083   8.252   0.923 -0.6649  0.6679  0.0546
15814SOL    HW148543   0.000   8.229   0.880 -0.1228 -1.9851  0.2641
15814SOL    HW248544   0.135   8.293   0.854 -1.1809 -0.1365 -0.8409
15815SOL     OW48545   4.335   0.152   2.692  0.2221 -0.3743  0.8007
15815SOL    HW148546   4.417   0.110   2.716 -0.1484 -1.3879  0.3221
15815SOL    HW248547   4.272   0.080   2.684 -0.5531  0.3199  0.4946
15816SOL     OW48548   7.435   3.515   3.954  0.1635 -0.2948  0.1847
15816SOL    HW148549   7.423   3.425   3.924 -0.3988  0.1533 -0.9825
15816SOL    HW248550   7.363   3.530   4.015 -0.5964 -0.1874 -0.7136
15817SOL     OW48551   6.115   4.600   1.536 -0.7347  0.0190  0.2735
15817SOL    HW148552   6.021   4.605   1.518 -0.6187  2.1500 -0.0009
15817SOL    HW248553   6.155   4.581   1.451 -0.9764 -3.4178  0.7700
15818SOL     OW48554   4.995   7.155   2.795  0.0879  0.3893  0.0002
15818SOL    HW148555   5.005   7.062   2.774 -1.1931  0.6819 -2.2185
15818SOL    HW248556   4.973   7.156   2.888  0.3325 -1.4993  0.1356
15819SOL     OW48557   8.350   4.973   3.452 -0.2828  0.2738  0.7739
15819SOL    HW148558   8.352   4.899   3.391 -0.2805 -0.5923  1.8034
15819SOL    HW248559   8.406   4.946   3.525  1.1262  1.9952  0.3959
15820SOL     OW48560   1.056   1.397   7.993  0.0873  0.2434  0.7183
15820SOL    HW148561   1.105   1.325   8.033 -2.4125 -1.5941  0.7416
15820SOL    HW248562   0.981   1.410   8.051 -1.6832  0.0286 -1.3875
15821SOL     OW48563   6.414   6.742   6.871  0.0081 -0.4853 -0.7534
15821SOL    HW148564   6.362   6.818   6.896  0.2905 -0.1698 -1.1124
15821SOL    HW248565   6.362   6.699   6.803 -0.2326 -0.7122 -0.4271
15822SOL     OW48566   0.841   2.689   7.062 -0.8467 -0.3953  0.3202
15822SOL    HW148567   0.908   2.757   7.069 -0.5808 -0.6531  0.3460
15822SOL    HW248568   0.862   2.645   6.979  0.1670 -1.6689  1.2135
15823SOL     OW48569   0.597   6.907   3.542 -0.0586 -0.4529 -0.0550
15823SOL    HW148570   0.588   6.852   3.464  0.1708 -0.6295  0.0410
15823SOL    HW248571   0.621   6.846   3.611 -1.6122 -0.5078  0.4765
15824SOL     OW48572   5.554   6.557   3.322  0.0622 -0.0693  0.0752
15824SOL    HW148573   5.489   6.608   3.275  0.6007 -0.0483 -0.6696
15824SOL    HW248574   5.559   6.474   3.275  1.6379  0.4834 -0.8326
15825SOL     OW48575   6.511   8.818   1.305  0.6397 -0.0582  0.0806
15825SOL    HW148576   6.596   8.786   1.273 -0.5465 -5.2090  1.1925
15825SOL    HW248577   6.456   8.821   1.227  1.1006  0.5422 -0.2324
15826SOL     OW48578   2.480   7.517   6.136 -0.2081 -0.1294  0.4828
15826SOL    HW148579   2.563   7.563   6.142 -0.7988  1.0098  0.1823
15826SOL    HW248580   2.504   7.424   6.133  1.0096  0.1590  0.9486
15827SOL     OW48581   5.795   8.612   7.467  0.5896 -0.0336 -0.4635
15827SOL    HW148582   5.716   8.558   7.464  0.8543 -0.4134 -0.7207
15827SOL    HW248583   5.767   8.695   7.506  0.8363 -1.4302  2.9482
15828SOL     OW48584   6.767   3.600   0.859 -0.4184 -0.6823 -0.0314
15828SOL    HW148585   6.741   3.508   0.850  1.1444 -1.1731  0.0212
15828SOL    HW248586   6.771   3.615   0.954 -1.8726 -0.1582 -0.0249
15829SOL     OW48587   1.741   2.528   4.138 -0.0996  0.5348 -0.4843
15829SOL    HW148588   1.755   2.602   4.197 -3.6557  1.8465 -1.0361
15829SOL    HW248589   1.803   2.462   4.167  1.4994  2.8070  1.6754
15830SOL     OW48590   8.355   1.178   4.621 -0.1491  0.6816  0.1159
15830SOL    HW148591   8.384   1.107   4.678 -1.9736  0.0232  0.2855
15830SOL    HW248592   8.311   1.239   4.680 -0.0474  1.1264 -0.2678
15831SOL     OW48593   6.349   5.146   0.882 -0.0661  0.0025  0.0827
15831SOL    HW148594   6.256   5.129   0.867  0.0721 -2.1366  1.2839
15831SOL    HW248595   6.395   5.076   0.835  0.9766  1.1858 -0.7215
15832SOL     OW48596   6.487   5.756   2.572 -0.0857 -0.0928 -0.9037
15832SOL    HW148597   6.573   5.721   2.598 -1.3970 -3.8606 -1.0483
15832SOL    HW248598   6.433   5.750   2.651 -0.6272  1.0018 -1.1628
15833SOL     OW48599   8.146   1.679   0.754  0.1908 -0.1599  0.2716
15833SOL    HW148600   8.232   1.721   0.755  0.5333 -0.8549  0.5566
15833SOL    HW248601   8.109   1.698   0.840 -1.0603  2.3467 -0.7120
15834SOL     OW48602   7.908   3.845   5.049 -0.3106  0.1899  0.3008
15834SOL    HW148603   7.881   3.930   5.013  1.6222  0.9586  0.5894
15834SOL    HW248604   7.827   3.806   5.082 -1.6578  0.8189 -2.0207
15835SOL     OW48605   8.411   0.515   8.496  0.0698  0.0618  0.2349
15835SOL    HW148606   8.348   0.545   8.430 -0.9179 -0.3626  0.9574
15835SOL    HW248607   8.490   0.566   8.479 -0.8617  1.5164  0.0885
15836SOL     OW48608   0.805   0.390   1.781 -0.5654 -0.4361  0.3809
15836SOL    HW148609   0.834   0.481   1.769  0.0766 -0.4486  1.5834
15836SOL    HW248610   0.731   0.397   1.841  0.0009 -0.7526  1.1308
15837SOL     OW48611   7.078   1.713   4.943 -0.7666  0.1172  0.2425
15837SOL    HW148612   7.013   1.643   4.949 -0.1629 -0.5252 -0.4794
15837SOL    HW248613   7.065   1.765   5.022 -0.6480 -1.3255  1.2579
15838SOL     OW48614   0.113   0.364   2.472  0.2531 -0.3479 -0.5939
15838SOL    HW148615   0.041   0.303   2.458 -0.8111  1.3058 -3.1224
15838SOL    HW248616   0.190   0.318   2.440 -0.4103 -0.6476 -1.8251
15839SOL     OW48617   4.743   4.979   8.058  0.7079  0.0231  0.3753
15839SOL    HW148618   4.761   4.994   8.151  1.3718  0.0155  0.2517
15839SOL    HW248619   4.804   5.036   8.012  1.5251 -1.1758 -0.0724
15840SOL     OW48620   0.020   1.597   1.260 -0.5290 -0.3789 -0.0503
15840SOL    HW148621   0.039   1.531   1.327  1.3665  0.3155  0.1654
15840SOL    HW248622   0.102   1.604   1.210 -1.8652 -0.8325 -2.4402
15841SOL     OW48623   0.187   3.334   4.563  0.4089  0.2865 -0.1456
15841SOL    HW148624   0.121   3.272   4.532  0.9017  0.3784 -1.4252
15841SOL    HW248625   0.139   3.415   4.578  0.1167  0.1639 -0.4142
15842SOL     OW48626   1.322   7.747   0.320 -0.1408  0.1285 -0.1994
15842SOL    HW148627   1.266   7.779   0.390 -0.1262  0.8979 -0.5274
15842SOL    HW248628   1.380   7.683   0.362 -0.2182  0.4862  0.4553
15843SOL     OW48629   3.751   6.700   1.080  0.1762  0.5532  0.8416
15843SOL    HW148630   3.807   6.777   1.075  1.6081 -0.5295 -0.9159
15843SOL    HW248631   3.760   6.671   1.171  1.9812  0.8104  0.7952
15844SOL     OW48632   0.327   3.939   1.684 -0.0471  0.7154 -0.6482
15844SOL    HW148633   0.414   3.921   1.648  0.6365  0.2743  1.1327
15844SOL    HW248634   0.283   3.854   1.682  0.6985  0.2301  1.2873
15845SOL     OW48635   9.053   8.719   6.531  0.4843  0.0344  0.1383
15845SOL    HW148636   8.997   8.642   6.537 -0.5556  0.8466  1.4476
15845SOL    HW248637   9.080   8.722   6.440  1.1781 -2.2859  0.2121
15846SOL     OW48638   3.912   6.894   0.729  0.0014 -0.2533 -0.1154
15846SOL    HW148639   3.952   6.826   0.675 -0.6820  0.4062 -1.4966
15846SOL    HW248640   3.825   6.907   0.692 -0.2556  0.6693  0.7534
15847SOL     OW48641   7.555   8.731   3.982 -0.2171 -0.2253  0.1318
15847SOL    HW148642   7.650   8.736   3.976 -0.2327  0.8542  0.5892
15847SOL    HW248643   7.526   8.726   3.891  0.1897  1.9153 -0.1853
15848SOL     OW48644   5.079   3.262   2.105 -0.4176 -0.4012  0.0572
15848SOL    HW148645   5.057   3.242   2.196 -1.3492  2.6178  0.6468
15848SOL    HW248646   4.997   3.296   2.068  0.4753  0.5059 -1.1966
15849SOL     OW48647   8.463   5.658   3.002  0.2538 -0.1923 -0.0277
15849SOL    HW148648   8.524   5.610   2.947  0.2583 -1.3344  0.9407
15849SOL    HW248649   8.457   5.744   2.961  1.4893 -0.4867 -0.8894
15850SOL     OW48650   1.815   0.456   2.614 -0.2670  0.2939 -0.4950
15850SOL    HW148651   1.742   0.414   2.659 -0.0342  0.4199  0.0054
15850SOL    HW248652   1.839   0.394   2.545 -1.0178  0.3689 -0.8397
15851SOL     OW48653   7.240   7.091   3.891 -0.2307 -0.1401 -0.2424
15851SOL    HW148654   7.321   7.069   3.936 -1.0780 -0.8387  1.0085
15851SOL    HW248655   7.202   7.162   3.943 -0.2883  0.3775 -0.9805
15852SOL     OW48656   6.509   3.752   0.876 -0.1957  0.1171 -0.6517
15852SOL    HW148657   6.566   3.777   0.949  0.2445  0.2496 -1.0317
15852SOL    HW248658   6.566   3.700   0.819 -0.9068 -1.2093 -0.2061
15853SOL     OW48659   6.030   7.071   2.594 -0.8332 -0.4377  0.2150
15853SOL    HW148660   6.077   7.150   2.621  0.9607 -1.6273  0.7707
15853SOL    HW248661   6.099   7.005   2.584 -1.9994 -1.3483 -2.5409
15854SOL     OW48662   5.913   7.862   5.033 -0.3619  0.1856  0.1550
15854SOL    HW148663   5.851   7.892   4.967 -0.0342  1.1050  0.2521
15854SOL    HW248664   5.979   7.931   5.037 -0.4583  0.2189  1.5400
15855SOL     OW48665   4.510   7.492   5.469  0.4563 -0.2388  0.0321
15855SOL    HW148666   4.571   7.436   5.421  1.9069 -0.8100  2.3891
15855SOL    HW248667   4.524   7.580   5.432  0.9203 -0.7763 -1.1114
15856SOL     OW48668   7.094   4.402   6.856 -0.4680  0.6869  0.4647
15856SOL    HW148669   7.040   4.428   6.781 -2.4147  1.7410  2.1360
15856SOL    HW248670   7.094   4.306   6.853  1.3389  0.6717 -2.0590
15857SOL     OW48671   8.915   5.201   3.368  0.2578 -0.6567  0.2022
15857SOL    HW148672   8.824   5.174   3.377 -0.3515  0.8679 -0.9908
15857SOL    HW248673   8.944   5.215   3.458 -0.6017 -1.3867  0.6097
15858SOL     OW48674   0.039   0.028   1.252 -0.0251  0.4284 -0.5114
15858SOL    HW148675   0.135   0.028   1.250  0.0437  1.6821  0.6119
15858SOL    HW248676   0.017   0.003   1.341 -0.7468  0.0993 -0.7759
15859SOL     OW48677   3.058   5.434   1.325 -0.6502  0.0822  0.4679
15859SOL    HW148678   3.053   5.471   1.413 -0.7880  1.4168 -0.0757
15859SOL    HW248679   3.090   5.506   1.271  1.5821 -1.3082 -0.2264
15860SOL     OW48680   8.065   7.455   0.960 -0.3681 -0.1681  0.3741
15860SOL    HW148681   8.024   7.494   1.036 -1.0061  0.0776 -0.0916
15860SOL    HW248682   7.999   7.459   0.891 -0.8136 -2.9237  0.5393
15861SOL     OW48683   8.414   8.473   0.208  0.0425 -0.1235  0.4417
15861SOL    HW148684   8.376   8.557   0.182 -1.1523 -1.1634 -1.4396
15861SOL    HW248685   8.506   8.478   0.180 -0.2626  0.2230 -0.5230
15862SOL     OW48686   1.564   8.801   7.694 -0.6323 -0.5860 -0.4809
15862SOL    HW148687   1.559   8.836   7.783  0.2156 -0.9543 -0.2763
15862SOL    HW248688   1.516   8.864   7.641  1.6308  1.4647 -0.2828
15863SOL     OW48689   4.421   6.436   1.172  0.0894  0.0671 -0.3623
15863SOL    HW148690   4.456   6.523   1.192 -0.8534  0.4571 -0.3152
15863SOL    HW248691   4.496   6.377   1.177  0.7847  0.9180 -0.6251
15864SOL     OW48692   4.536   4.139   5.608 -0.1966 -0.2854 -0.2986
15864SOL    HW148693   4.582   4.164   5.527  0.9149  2.0180  0.9353
15864SOL    HW248694   4.601   4.089   5.658 -0.5558 -0.8540 -0.3910
15865SOL     OW48695   4.179   0.987   6.905 -0.1728 -0.2365 -0.5567
15865SOL    HW148696   4.186   1.074   6.946  1.5996  0.3659 -1.9739
15865SOL    HW248697   4.100   0.992   6.852 -0.3036  0.3595 -0.3172
15866SOL     OW48698   6.926   5.987   8.535  0.4890  0.6339 -0.4336
15866SOL    HW148699   6.871   6.065   8.524  1.0325  0.9467 -1.0608
15866SOL    HW248700   7.013   6.016   8.506  1.0776  0.2624  0.8713
15867SOL     OW48701   7.326   0.242   2.818  0.0553  0.6912  0.0969
15867SOL    HW148702   7.376   0.187   2.758 -0.4016  2.6874 -2.2916
15867SOL    HW248703   7.390   0.307   2.849  0.1014  0.1459  1.1587
15868SOL     OW48704   8.427   0.936   2.275 -0.3590  0.4176 -0.5951
15868SOL    HW148705   8.478   1.016   2.281 -0.5316  0.4299  2.6917
15868SOL    HW248706   8.336   0.965   2.266 -0.3384  0.6049 -0.2353
15869SOL     OW48707   0.297   5.183   3.888  0.2876  0.1115 -0.7566
15869SOL    HW148708   0.388   5.154   3.895  0.4652  0.7952 -0.0113
15869SOL    HW248709   0.299   5.252   3.822  0.4114  0.4686 -0.3879
15870SOL     OW48710   4.460   0.230   2.162  0.1738  0.5175  0.4352
15870SOL    HW148711   4.441   0.235   2.256 -1.1457  0.0645  0.2061
15870SOL    HW248712   4.496   0.316   2.140  0.6483  0.5754  1.3808
15871SOL     OW48713   1.686   7.695   6.297 -0.1221 -0.2254  0.4289
15871SOL    HW148714   1.661   7.699   6.390  1.6664  3.4758  0.9698
15871SOL    HW248715   1.625   7.754   6.253  0.2274 -0.4682 -0.4023
15872SOL     OW48716   9.114   6.677   0.123  0.0847  0.2118  0.0602
15872SOL    HW148717   9.121   6.734   0.046  0.6055 -1.3347 -1.0736
15872SOL    HW248718   9.057   6.725   0.183  0.5514  1.9533 -0.8139
15873SOL     OW48719   4.868   0.412   3.533 -0.1308 -0.5626 -0.2119
15873SOL    HW148720   4.876   0.431   3.627  0.0897 -3.3002  0.3880
15873SOL    HW248721   4.906   0.325   3.523 -1.2130 -0.8108 -2.6760
15874SOL     OW48722   3.762   3.186   7.334 -0.0597 -0.5990  0.3331
15874SOL    HW148723   3.820   3.119   7.371  2.1060  1.7107  1.3419
15874SOL    HW248724   3.820   3.245   7.287 -2.2177 -0.8394 -2.9850
15875SOL     OW48725   2.653   6.116   6.374 -0.2338 -0.0756 -0.1890
15875SOL    HW148726   2.742   6.141   6.398 -0.3042 -0.2582  0.2768
15875SOL    HW248727   2.611   6.198   6.348  0.2646 -0.0829 -1.0765
15876SOL     OW48728   8.234   7.553   1.312 -0.1846 -0.1198 -0.2484
15876SOL    HW148729   8.301   7.511   1.366 -0.0972 -0.0296 -0.2873
15876SOL    HW248730   8.276   7.632   1.279 -0.2609 -0.1406 -0.3933
15877SOL     OW48731   7.450   4.388   9.122  0.2874 -0.2442  0.6474
15877SOL    HW148732   7.370   4.343   9.150 -0.9227  0.4079 -1.5389
15877SOL    HW248733   7.477   4.343   9.043  1.6389  0.0636  0.9152
15878SOL     OW48734   1.058   0.395   4.236 -0.4068 -0.0235  0.5328
15878SOL    HW148735   1.048   0.336   4.161 -0.3855 -0.4356  0.8512
15878SOL    HW248736   1.006   0.472   4.213 -0.0544  0.0337 -0.0905
15879SOL     OW48737   2.442   3.488   3.088  0.0744  0.0837 -0.0207
15879SOL    HW148738   2.413   3.431   3.159  1.2891 -1.7817 -0.9226
15879SOL    HW248739   2.533   3.506   3.107  0.1245  0.4230 -0.5561
15880SOL     OW48740   4.901   8.285   8.463  0.0683 -0.0676 -0.4278
15880SOL    HW148741   4.905   8.360   8.523  1.4333  0.1557 -0.7774
15880SOL    HW248742   4.844   8.222   8.508  0.0544  0.5964  0.5236
15881SOL     OW48743   5.123   4.229   1.117  0.1732 -0.7487 -0.4129
15881SOL    HW148744   5.129   4.184   1.201  1.3913  1.1753  0.6135
15881SOL    HW248745   5.073   4.170   1.061  1.2166 -3.0982  0.9791
15882SOL     OW48746   1.219   8.583   8.959  0.0166 -0.2530 -0.2223
15882SOL    HW148747   1.184   8.620   8.878  3.0917 -0.3164 -1.7445
15882SOL    HW248748   1.313   8.597   8.952  0.6503 -2.5763  2.1875
15883SOL     OW48749   7.307   2.033   6.387 -0.2530 -0.1004  0.3105
15883SOL    HW148750   7.291   2.071   6.301 -1.1571  0.8130  0.8539
15883SOL    HW248751   7.266   1.947   6.383  1.3086 -0.8356 -0.7457
15884SOL     OW48752   3.470   7.998   5.411  0.3555  0.9356  0.2153
15884SOL    HW148753   3.403   7.930   5.416  1.8642 -0.6084  0.7742
15884SOL    HW248754   3.423   8.080   5.420 -1.3643 -0.1187  1.3661
15885SOL     OW48755   4.190   2.016   2.922 -0.2065 -0.2471  0.5114
15885SOL    HW148756   4.233   1.953   2.864 -2.3169 -0.1847 -1.2591
15885SOL    HW248757   4.252   2.089   2.929  0.6426 -0.8365 -0.5841
15886SOL     OW48758   0.135   7.484   4.556  0.1370 -0.1833  0.1241
15886SOL    HW148759   0.192   7.423   4.508  0.3310 -0.0440  0.1768
15886SOL    HW248760   0.148   7.568   4.512  1.2858  0.2280  1.2200
15887SOL     OW48761   8.244   1.045   5.017  0.5235 -0.2834 -0.2155
15887SOL    HW148762   8.267   1.134   4.991  0.4750 -0.5055 -1.0508
15887SOL    HW248763   8.148   1.044   5.016  0.4907  0.0571  1.2254
15888SOL     OW48764   6.066   1.896   2.039 -0.7526 -0.1323  0.1387
15888SOL    HW148765   6.106   1.959   2.100 -0.2492  0.0084 -0.3348
15888SOL    HW248766   6.087   1.810   2.076 -0.2273 -0.0535  0.0306
15889SOL     OW48767   5.518   7.079   6.231  0.0143  0.2720 -0.3108
15889SOL    HW148768   5.545   7.038   6.149  1.4700 -1.7475  1.0911
15889SOL    HW248769   5.548   7.019   6.299  0.0077  2.5008  1.7851
15890SOL     OW48770   2.950   6.234   6.241  0.1051  0.4982  0.3953
15890SOL    HW148771   3.009   6.265   6.309  0.3347  2.0238 -0.4649
15890SOL    HW248772   3.004   6.179   6.185 -0.2435 -1.3531  1.7776
15891SOL     OW48773   1.094   6.772   7.606 -0.4126 -0.9798  0.6445
15891SOL    HW148774   1.148   6.725   7.542 -2.7969 -0.3524 -2.0877
15891SOL    HW248775   1.145   6.850   7.628 -0.3656 -0.0122 -2.4210
15892SOL     OW48776   0.088   3.698   4.397  0.0754 -0.4648  0.8401
15892SOL    HW148777   0.033   3.656   4.464 -0.0919 -1.9596 -0.1816
15892SOL    HW248778   0.163   3.639   4.387  0.4120  0.0639  0.1473
15893SOL     OW48779   0.159   2.587   3.061  0.5895  0.1513  0.3527
15893SOL    HW148780   0.119   2.673   3.045  0.3875  0.3323  1.7161
15893SOL    HW248781   0.098   2.524   3.023  0.6591  0.5866 -0.5165
15894SOL     OW48782   7.272   6.739   8.219 -0.1963 -0.2076  0.2286
15894SOL    HW148783   7.315   6.695   8.293  0.4053 -2.0130 -1.1068
15894SOL    HW248784   7.179   6.716   8.228 -0.1093 -0.5029  0.3852
15895SOL     OW48785   0.552   4.196   6.750 -0.0251 -0.1106  0.2409
15895SOL    HW148786   0.610   4.268   6.726  0.3673 -0.3226  0.5363
15895SOL    HW248787   0.534   4.210   6.843 -2.2691  1.2283 -0.3184
15896SOL     OW48788   0.295   2.523   0.720  0.4074 -0.2653  0.3644
15896SOL    HW148789   0.252   2.545   0.802  0.2342 -0.2365  0.2663
15896SOL    HW248790   0.363   2.590   0.710 -0.7252  0.7986 -0.3967
15897SOL     OW48791   8.150   6.340   6.137  0.3393  0.2130  0.1714
15897SOL    HW148792   8.085   6.288   6.184  0.0873  1.2024  0.9642
15897SOL    HW248793   8.157   6.298   6.051 -1.9994  0.5609 -0.2700
15898SOL     OW48794   0.748   7.952   7.744  0.5460  0.0186  0.1762
15898SOL    HW148795   0.710   8.039   7.739  0.9108  0.1648 -0.0580
15898SOL    HW248796   0.673   7.893   7.750  0.1869  0.1355 -2.3661
15899SOL     OW48797   8.503   5.937   5.990 -0.1268 -0.6467  0.5642
15899SOL    HW148798   8.487   5.859   6.043  1.7987 -1.3796  0.1796
15899SOL    HW248799   8.464   5.917   5.905 -0.1832 -0.9364  0.6570
15900SOL     OW48800   6.285   2.381   4.977 -0.2659 -0.3798  0.0050
15900SOL    HW148801   6.320   2.296   5.004 -0.9978 -0.6494  0.1181
15900SOL    HW248802   6.190   2.369   4.974 -0.4972  0.7896  1.2722
15901SOL     OW48803   6.962   7.249   4.426  0.0982 -0.3236  0.1398
15901SOL    HW148804   6.886   7.211   4.471 -0.2780  0.3187  0.0695
15901SOL    HW248805   6.968   7.337   4.463  1.1195 -0.5392  0.5028
15902SOL     OW48806   3.845   0.796   3.944 -0.0995 -0.3045 -0.3574
15902SOL    HW148807   3.812   0.876   3.986  0.5334 -0.1657 -0.1106
15902SOL    HW248808   3.932   0.820   3.912 -0.6752 -0.3282 -2.0143
15903SOL     OW48809   1.165   8.258   1.507 -0.1688 -0.3649 -0.2078
15903SOL    HW148810   1.079   8.285   1.538 -0.4253 -1.9226  0.4809
15903SOL    HW248811   1.149   8.182   1.452  0.3229  1.9270 -3.9154
15904SOL     OW48812   8.932   0.488   7.797  0.5490  0.1092  0.6670
15904SOL    HW148813   8.953   0.545   7.871  0.5034 -1.4951  1.9676
15904SOL    HW248814   8.840   0.464   7.811 -0.3786  1.9822 -1.4880
15905SOL     OW48815   8.327   2.379   4.089  0.3783 -0.8892 -0.5738
15905SOL    HW148816   8.409   2.426   4.077 -0.9819  1.2121 -2.3402
15905SOL    HW248817   8.344   2.291   4.054  1.1453  0.3609 -3.6687
15906SOL     OW48818   5.972   4.819   3.938 -0.3737  0.2765 -0.3153
15906SOL    HW148819   5.942   4.899   3.894 -2.1934 -0.2533 -0.0863
15906SOL    HW248820   5.971   4.841   4.031  2.2027  0.9663 -0.3796
15907SOL     OW48821   2.467   8.667   5.203  0.1927  0.3178  0.5016
15907SOL    HW148822   2.518   8.615   5.265 -1.8324 -0.7849  1.3446
15907SOL    HW248823   2.380   8.628   5.205 -0.3745  1.2797 -1.8691
15908SOL     OW48824   7.440   4.237   8.892  0.2319  0.5642  0.2762
15908SOL    HW148825   7.524   4.257   8.850 -0.0439  0.6499 -0.2371
15908SOL    HW248826   7.409   4.159   8.846  1.0293 -0.7582  1.8794
15909SOL     OW48827   4.424   3.443   7.142  0.1937 -0.7465  0.1789
15909SOL    HW148828   4.476   3.426   7.221 -1.9564 -2.7153  1.2864
15909SOL    HW248829   4.414   3.538   7.140 -0.3871 -0.6675  2.8177
15910SOL     OW48830   5.765   7.222   7.017 -0.2094  0.3744 -0.0580
15910SOL    HW148831   5.808   7.179   6.943  0.3389  0.2619  0.3207
15910SOL    HW248832   5.690   7.268   6.978 -0.3555 -0.2898 -0.5695
15911SOL     OW48833   7.329   2.541   4.013  0.0553 -0.3839  0.8844
15911SOL    HW148834   7.402   2.494   4.054 -0.2547 -1.2237  0.5028
15911SOL    HW248835   7.298   2.601   4.080  0.4371 -0.7629  1.4049
15912SOL     OW48836   4.223   7.277   5.365  0.0173 -0.2493 -0.2464
15912SOL    HW148837   4.307   7.260   5.322 -1.2017 -1.5251 -2.2832
15912SOL    HW248838   4.232   7.235   5.451  1.5182 -0.2181 -0.3618
15913SOL     OW48839   3.309   3.577   5.613  0.4793 -0.4321 -0.2860
15913SOL    HW148840   3.250   3.631   5.560  1.2363  0.1429 -0.5670
15913SOL    HW248841   3.397   3.607   5.588  0.9225 -1.8465 -0.4884
15914SOL     OW48842   3.138   3.322   7.951  0.3633  0.1176 -0.2247
15914SOL    HW148843   3.150   3.273   7.870 -2.1910 -2.3593  0.7363
15914SOL    HW248844   3.186   3.271   8.017  0.3387  0.6963  0.2479
15915SOL     OW48845   0.051   0.274   3.219 -0.2023  0.4463  0.4926
15915SOL    HW148846   0.081   0.236   3.136 -0.4179  0.2656  0.4979
15915SOL    HW248847   0.130   0.312   3.258 -0.0410  0.2551  0.3545
15916SOL     OW48848   8.171   6.141   1.540  0.1645  0.9430 -0.2859
15916SOL    HW148849   8.126   6.118   1.459 -0.1310  2.0496 -0.4463
15916SOL    HW248850   8.105   6.131   1.608  0.5445 -0.4811 -0.0786
15917SOL     OW48851   7.321   7.995   0.679 -0.1744 -0.0459 -0.1461
15917SOL    HW148852   7.276   7.946   0.748  0.0683  0.9556  0.7511
15917SOL    HW248853   7.413   7.971   0.688 -0.3146 -0.9658 -1.0281
15918SOL     OW48854   6.826   5.298   3.535 -0.3014  0.0049 -0.4230
15918SOL    HW148855   6.740   5.332   3.513  0.4383  1.5644 -1.0519
15918SOL    HW248856   6.811   5.206   3.555 -2.0176  0.1103 -1.0658
15919SOL     OW48857   2.958   7.440   3.580  0.1693  0.0284 -0.2209
15919SOL    HW148858   2.945   7.346   3.591  1.0600 -0.0505  0.2457
15919SOL    HW248859   3.024   7.463   3.646  0.6020  0.8138 -0.9151
15920SOL     OW48860   9.046   9.062   2.780 -0.1629  0.6406 -0.3044
15920SOL    HW148861   9.045   9.028   2.869  1.1565  0.5013 -0.3132
15920SOL    HW248862   9.135   9.042   2.748 -0.0968  2.0641 -1.1061
15921SOL     OW48863   8.519   0.601   5.739 -0.2444  0.3064 -0.2811
15921SOL    HW148864   8.581   0.541   5.779 -1.3980 -0.6285  0.1900
15921SOL    HW248865   8.442   0.597   5.796 -1.2173  0.4343 -1.5333
15922SOL     OW48866   1.908   2.701   2.912  0.0039 -0.1063 -0.0887
15922SOL    HW148867   1.947   2.730   2.995  0.1785 -1.1163  0.1976
15922SOL    HW248868   1.919   2.606   2.913 -0.3378 -0.1615 -1.1039
15923SOL     OW48869   8.907   4.783   5.308 -0.1801  0.3714 -0.0221
15923SOL    HW148870   8.957   4.767   5.228 -0.7493  0.6310 -0.4338
15923SOL    HW248871   8.827   4.825   5.278 -1.0641 -0.8527  0.5360
15924SOL     OW48872   2.939   0.883   0.594 -0.3008 -0.1857  0.7606
15924SOL    HW148873   2.860   0.831   0.581 -0.0755 -1.5417  4.0057
15924SOL    HW248874   3.010   0.819   0.600  0.6306  0.8138  0.7311
15925SOL     OW48875   0.691   4.208   2.905  0.1478  0.3419 -0.0145
15925SOL    HW148876   0.689   4.171   2.994 -2.0267  0.6136  0.1068
15925SOL    HW248877   0.755   4.280   2.910  0.8308 -0.3099  1.0254
15926SOL     OW48878   3.484   0.661   7.394  0.6594 -0.8410 -0.1700
15926SOL    HW148879   3.433   0.716   7.454  0.7268  0.4838 -1.2918
15926SOL    HW248880   3.569   0.651   7.437  0.9086  0.5854 -0.2845
15927SOL     OW48881   1.835   8.211   8.544 -0.2320  0.2722 -0.2935
15927SOL    HW148882   1.880   8.225   8.628  1.0654 -0.9577 -0.7354
15927SOL    HW248883   1.904   8.222   8.478 -0.6502 -1.2404 -1.0307
15928SOL     OW48884   0.773   4.145   5.052 -0.0986  0.1461 -0.1856
15928SOL    HW148885   0.786   4.194   5.133  0.2887  0.5928 -0.5111
15928SOL    HW248886   0.834   4.185   4.990 -2.2914  1.6673 -1.5171
15929SOL     OW48887   7.524   3.723   4.174 -0.1649 -0.7397  0.5273
15929SOL    HW148888   7.589   3.725   4.103 -1.0870 -2.2326 -0.4124
15929SOL    HW248889   7.467   3.798   4.156  0.6549 -0.0338  0.7689
15930SOL     OW48890   2.567   7.126   1.729  0.0978  0.1160  0.2585
15930SOL    HW148891   2.521   7.181   1.666  1.5960 -0.6789 -1.6237
15930SOL    HW248892   2.628   7.185   1.773 -1.1610  0.7346  1.2619
15931SOL     OW48893   2.855   0.447   1.790  0.9597 -0.1995 -0.1955
15931SOL    HW148894   2.865   0.387   1.864  1.5251 -0.2274 -0.2844
15931SOL    HW248895   2.922   0.418   1.727  2.1771  1.3495  0.3218
15932SOL     OW48896   8.754   4.305   4.766 -0.1392 -0.0367  0.7128
15932SOL    HW148897   8.695   4.243   4.722 -0.2517  1.2882 -1.0923
15932SOL    HW248898   8.697   4.352   4.827 -0.4964 -0.2290  0.5331
15933SOL     OW48899   1.641   8.674   5.395  0.2811 -0.0108 -0.6772
15933SOL    HW148900   1.596   8.759   5.392 -0.5713 -0.2112  2.7841
15933SOL    HW248901   1.572   8.610   5.379  0.3464 -0.1483 -0.4106
15934SOL     OW48902   5.225   6.257   5.035  0.1336 -0.1313  0.0065
15934SOL    HW148903   5.133   6.236   5.052 -0.0741  0.2139 -0.6423
15934SOL    HW248904   5.266   6.258   5.122 -0.7805  1.1408  0.4635
15935SOL     OW48905   8.574   5.465   6.950 -0.2306  0.7797 -0.3111
15935SOL    HW148906   8.488   5.455   6.911 -2.4989  3.1371  3.4938
15935SOL    HW248907   8.582   5.392   7.011  1.0661 -0.0406 -1.3862
15936SOL     OW48908   8.906   5.920   2.280  0.3451 -0.0831 -0.3732
15936SOL    HW148909   8.885   5.836   2.239  1.1347 -0.5175  0.0946
15936SOL    HW248910   9.000   5.931   2.265  0.3562  0.4360  0.0763
15937SOL     OW48911   0.340   0.052   3.146  0.2514 -0.8759  0.0943
15937SOL    HW148912   0.364   0.145   3.152 -0.4759 -0.7399  1.0594
15937SOL    HW248913   0.338   0.035   3.052  0.6655  0.0098 -0.0945
15938SOL     OW48914   4.172   5.947   7.811  0.4016 -0.2394 -0.0834
15938SOL    HW148915   4.137   5.858   7.811 -0.7752  0.1954 -1.1378
15938SOL    HW248916   4.200   5.961   7.721 -1.3722  1.1529 -0.4729
15939SOL     OW48917   7.994   7.973   5.284  0.2027  0.0473 -0.1041
15939SOL    HW148918   7.931   7.902   5.276 -1.4735  1.4430  0.2040
15939SOL    HW248919   8.061   7.938   5.343 -0.7283 -1.1778  0.2779
15940SOL     OW48920   8.808   4.866   4.905 -0.1645  0.0963 -0.1171
15940SOL    HW148921   8.876   4.813   4.947  0.4307  0.6862 -0.3171
15940SOL    HW248922   8.837   4.957   4.916 -0.4975  0.3181 -0.9269
15941SOL     OW48923   0.164   7.802   0.881 -0.6078 -0.3147 -0.1613
15941SOL    HW148924   0.089   7.797   0.822  0.4193 -0.2476 -1.4937
15941SOL    HW248925   0.154   7.725   0.938 -2.3532  0.3639  0.5376
15942SOL     OW48926   1.036   1.783   5.145 -0.3520 -0.2267 -0.6060
15942SOL    HW148927   1.068   1.845   5.211  0.2633 -0.9421 -0.2208
15942SOL    HW248928   1.032   1.699   5.191 -2.4568 -0.2600 -0.7346
15943SOL     OW48929   7.654   1.942   7.101  0.0344 -0.3446 -0.0057
15943SOL    HW148930   7.653   1.854   7.063 -2.2639 -1.9207  3.2563
15943SOL    HW248931   7.742   1.953   7.135  0.7582 -0.7526 -1.6582
15944SOL     OW48932   7.008   4.095   1.196 -0.1839  0.0832  0.3939
15944SOL    HW148933   7.041   4.185   1.205  0.5877 -0.0071 -1.0968
15944SOL    HW248934   6.953   4.098   1.118 -0.5381 -0.6450  0.6111
15945SOL     OW48935   4.437   8.016   3.077  0.7483 -0.2785 -0.3709
15945SOL    HW148936   4.458   7.937   3.127  0.9010  0.4767  0.7690
15945SOL    HW248937   4.390   7.982   3.000 -0.6977 -1.3697  0.9321
15946SOL     OW48938   5.848   7.796   8.109  0.0382 -0.1375  0.0365
15946SOL    HW148939   5.854   7.794   8.204  0.3872 -0.8661  0.0062
15946SOL    HW248940   5.909   7.865   8.082 -0.7998  0.7645  0.3830
15947SOL     OW48941   1.104   6.133   5.616 -0.5060 -0.1194 -0.1342
15947SOL    HW148942   1.089   6.161   5.707 -0.6430  1.7200 -0.6727
15947SOL    HW248943   1.085   6.040   5.617 -0.2242 -0.2114  1.7904
15948SOL     OW48944   4.722   4.589   8.258  0.1749  0.2738  0.0952
15948SOL    HW148945   4.816   4.574   8.255  0.0858 -0.5842  1.0719
15948SOL    HW248946   4.689   4.523   8.320 -1.0897  0.4152 -0.4006
15949SOL     OW48947   4.416   7.897   6.378 -0.0488  0.6491 -0.3944
15949SOL    HW148948   4.346   7.961   6.386  0.3078  1.1837 -1.3968
15949SOL    HW248949   4.496   7.945   6.400  0.1316  0.3435 -0.3719
15950SOL     OW48950   5.258   7.647   7.973  0.6745 -0.5651 -0.0431
15950SOL    HW148951   5.220   7.693   8.048 -1.1014 -1.0144 -0.6296
15950SOL    HW248952   5.352   7.643   7.993  0.1693 -1.4133  2.5574
15951SOL     OW48953   1.510   8.596   2.010  0.1489  0.3405  0.0143
15951SOL    HW148954   1.425   8.641   2.009 -0.9295 -1.6183 -0.4582
15951SOL    HW248955   1.492   8.512   2.051  1.4087 -0.9657 -1.9700
15952SOL     OW48956   7.942   8.465   6.393 -0.0377  0.3573  0.4779
15952SOL    HW148957   7.857   8.505   6.413 -0.1193 -0.0566  0.9692
15952SOL    HW248958   7.922   8.373   6.378  0.3211  0.2650  0.5680
15953SOL     OW48959   8.924   6.870   0.591 -0.4972 -0.0994  0.4819
15953SOL    HW148960   8.947   6.876   0.498  2.3120  1.1455  1.1430
15953SOL    HW248961   8.952   6.782   0.616  0.9786  0.3756  0.6115
15954SOL     OW48962   7.926   5.274   6.554  0.2744  0.5724  0.7070
15954SOL    HW148963   7.895   5.360   6.584  1.1278  1.1613 -0.0311
15954SOL    HW248964   7.852   5.215   6.569 -1.3788  1.9749 -1.3520
15955SOL     OW48965   4.422   2.727   3.238  0.4070  0.1073  0.0779
15955SOL    HW148966   4.431   2.708   3.331  0.4905 -1.1526 -0.1721
15955SOL    HW248967   4.458   2.815   3.228 -0.0891  0.4754  1.3125
15956SOL     OW48968   1.855   5.748   6.244 -0.4859 -0.1759 -0.4388
15956SOL    HW148969   1.854   5.843   6.251  0.6420 -0.1746  0.0430
15956SOL    HW248970   1.920   5.729   6.176 -0.3720 -0.6119 -0.2143
15957SOL     OW48971   4.017   7.458   1.714  0.1919 -0.0677 -0.0534
15957SOL    HW148972   4.007   7.434   1.622 -2.5989  0.5860 -0.0238
15957SOL    HW248973   4.103   7.424   1.739  0.9946 -0.3228 -2.8582
15958SOL     OW48974   6.360   2.218   0.083  0.0750 -0.4307  0.2286
15958SOL    HW148975   6.423   2.284   0.052 -1.1563  1.1178  0.8491
15958SOL    HW248976   6.275   2.251   0.052 -0.6200 -1.5410  0.8945
15959SOL     OW48977   4.736   5.159   0.883  0.5007  0.3961 -0.1360
15959SOL    HW148978   4.827   5.139   0.864  0.4516  0.6881 -0.7054
15959SOL    HW248979   4.738   5.200   0.970  1.2271  2.6206 -1.1238
15960SOL     OW48980   3.181   1.463   1.217 -0.3182 -0.4003 -0.2930
15960SOL    HW148981   3.173   1.531   1.150  0.1616 -0.6141 -0.5680
15960SOL    HW248982   3.271   1.470   1.248 -0.0116 -1.4269 -0.8830
15961SOL     OW48983   5.664   8.015   6.919 -0.8291 -0.9000 -0.4675
15961SOL    HW148984   5.656   8.102   6.957 -0.7875 -0.7819 -0.7284
15961SOL    HW248985   5.667   7.956   6.994 -0.4255 -0.6406 -0.2776
15962SOL     OW48986   4.357   6.111   8.793 -0.2314 -0.8302 -0.0662
15962SOL    HW148987   4.314   6.070   8.718  1.5671 -0.7954 -1.1784
15962SOL    HW248988   4.431   6.053   8.812 -0.0727 -0.2883  1.0362
15963SOL     OW48989   0.494   8.912   1.849 -0.0343  0.0365 -0.0703
15963SOL    HW148990   0.577   8.957   1.832  0.9952 -1.1995  1.3682
15963SOL    HW248991   0.439   8.932   1.773  2.0524 -0.1576 -1.7206
15964SOL     OW48992   8.434   6.005   0.209 -0.5475  0.2336 -0.2478
15964SOL    HW148993   8.465   6.068   0.274  1.3292 -1.5268  0.6686
15964SOL    HW248994   8.344   5.986   0.236 -0.8125  1.7339  0.0383
15965SOL     OW48995   4.068   0.252   8.164  0.2696 -0.3601 -0.3759
15965SOL    HW148996   4.125   0.329   8.161  0.5162 -0.5611 -1.0510
15965SOL    HW248997   4.034   0.251   8.253 -0.2179  0.8791 -0.5309
15966SOL     OW48998   4.785   5.669   2.782  0.4721  0.5266 -0.4729
15966SOL    HW148999   4.843   5.743   2.762 -0.7142  1.1392 -1.8693
15966SOL    HW249000   4.819   5.597   2.729  0.7398  0.5047 -0.2718
15967SOL     OW49001   1.746   7.325   4.763  0.7906  0.0032  0.1478
15967SOL    HW149002   1.777   7.355   4.677  1.4460 -0.2996  0.2692
15967SOL    HW249003   1.824   7.328   4.819  0.7819 -1.4243  0.2858
15968SOL     OW49004   6.339   2.299   1.008 -0.2295 -0.3252  0.3067
15968SOL    HW149005   6.300   2.375   1.051 -0.0431 -0.6611  1.1089
15968SOL    HW249006   6.354   2.326   0.918 -0.1602  0.5909  0.5829
15969SOL     OW49007   2.940   7.658   8.913  0.2357 -0.2682 -0.2766
15969SOL    HW149008   2.897   7.725   8.965 -1.1419  0.7287 -2.5718
15969SOL    HW249009   2.923   7.576   8.960 -1.0213  0.5803  0.7961
15970SOL     OW49010   8.991   0.672   8.050  0.6393 -0.0740  0.0610
15970SOL    HW149011   9.040   0.734   7.995 -0.5043 -0.0977 -1.0262
15970SOL    HW249012   8.915   0.721   8.081  1.1609 -0.1290  1.4811
15971SOL     OW49013   8.955   4.221   0.280  0.2675 -0.2737 -0.6808
15971SOL    HW149014   8.903   4.261   0.350  0.1818 -0.8480 -0.4104
15971SOL    HW249015   9.043   4.214   0.316  0.4869  0.4888 -1.0560
15972SOL     OW49016   4.648   4.366   1.884 -0.6538  0.3506 -0.0400
15972SOL    HW149017   4.722   4.407   1.930  0.6704 -0.7127 -1.1513
15972SOL    HW249018   4.579   4.432   1.887  1.0057  2.2154 -0.7084
15973SOL     OW49019   0.999   8.841   7.444  0.0068 -0.2257 -0.2848
15973SOL    HW149020   1.064   8.771   7.449 -0.4808 -0.6461  0.3117
15973SOL    HW249021   1.046   8.914   7.404  1.1790 -0.1392  1.1780
15974SOL     OW49022   5.384   0.955   0.514  0.0929  0.4784 -0.0693
15974SOL    HW149023   5.470   0.916   0.533 -0.2243  0.0163  0.4550
15974SOL    HW249024   5.341   0.958   0.599  0.1146  2.0065 -0.0927
15975SOL     OW49025   8.852   6.815   7.915 -0.2349 -0.3480 -0.1621
15975SOL    HW149026   8.779   6.863   7.953 -0.6081 -1.6499  0.8317
15975SOL    HW249027   8.826   6.799   7.824 -1.0060 -0.4337  0.0707
15976SOL     OW49028   8.257   7.098   7.425 -0.4237 -0.2295 -0.1487
15976SOL    HW149029   8.326   7.129   7.483  0.4867 -1.2698 -0.6383
15976SOL    HW249030   8.177   7.105   7.476 -0.0992  1.7736  0.1549
15977SOL     OW49031   8.550   6.276   3.980  0.0640  0.3968  0.7070
15977SOL    HW149032   8.636   6.244   4.008 -0.6036 -2.4017 -0.1155
15977SOL    HW249033   8.490   6.248   4.050 -0.4743  0.4024  0.2569
15978SOL     OW49034   2.122   2.187   7.928 -0.6267 -0.4169  0.2937
15978SOL    HW149035   2.209   2.157   7.955 -0.5613 -0.9841 -0.5167
15978SOL    HW249036   2.104   2.261   7.985  1.0697  0.7394 -0.5707
15979SOL     OW49037   1.246   5.583   8.131 -0.2218 -0.0721  0.1051
15979SOL    HW149038   1.192   5.510   8.104  0.2569  0.0831 -1.3545
15979SOL    HW249039   1.293   5.551   8.208 -0.7501 -0.9591  0.0676
15980SOL     OW49040   6.486   3.415   2.879 -0.2839 -0.2590  0.3324
15980SOL    HW149041   6.406   3.365   2.863 -0.1925  0.0537 -1.3373
15980SOL    HW249042   6.460   3.507   2.866 -0.0262 -0.0055  1.5019
15981SOL     OW49043   7.304   3.991   0.735 -0.0298 -0.3814  0.1400
15981SOL    HW149044   7.358   4.070   0.735  0.5944 -0.6556 -2.8238
15981SOL    HW249045   7.366   3.920   0.719 -0.6991 -1.3921  1.8186
15982SOL     OW49046   7.818   1.703   2.335 -0.6522  0.3827 -0.2769
15982SOL    HW149047   7.814   1.751   2.252  0.7891  0.7729 -0.1394
15982SOL    HW249048   7.759   1.629   2.323 -0.1893  0.2380 -1.7907
15983SOL     OW49049   2.475   1.792   0.303  0.1596 -0.2475 -0.0538
15983SOL    HW149050   2.398   1.791   0.360 -1.2032 -1.8446 -1.7959
15983SOL    HW249051   2.548   1.770   0.360 -0.8016  0.2692  1.4448
15984SOL     OW49052   5.563   2.313   7.493 -0.1221 -0.4374  0.0691
15984SOL    HW149053   5.539   2.321   7.401 -0.3114 -0.3289  0.1287
15984SOL    HW249054   5.590   2.401   7.518 -1.1211 -0.2224  0.4142
15985SOL     OW49055   1.878   4.318   5.117  0.2974 -0.4385  0.6539
15985SOL    HW149056   1.868   4.244   5.177 -0.5364 -1.4278 -0.6434
15985SOL    HW249057   1.789   4.349   5.101  0.5787  0.3606  0.5864
15986SOL     OW49058   6.106   2.404   1.864 -0.1333  0.5956 -0.7373
15986SOL    HW149059   6.101   2.402   1.769  1.3702  1.0033 -0.8581
15986SOL    HW249060   6.040   2.341   1.894 -0.1132 -0.0882 -2.0737
15987SOL     OW49061   8.225   4.906   6.960 -0.0872 -0.0606 -0.3972
15987SOL    HW149062   8.252   4.833   6.904  1.2752 -0.2332  0.4290
15987SOL    HW249063   8.155   4.949   6.912 -2.4458 -3.1275  0.0191
15988SOL     OW49064   0.851   7.615   1.747  0.1982  0.6932  0.0110
15988SOL    HW149065   0.809   7.624   1.661  1.8949 -0.7972 -1.0342
15988SOL    HW249066   0.818   7.532   1.781  0.1473  0.8905  0.4397
15989SOL     OW49067   8.193   8.103   1.759 -0.1638  0.0871 -0.2235
15989SOL    HW149068   8.129   8.072   1.694  0.9864 -0.9602 -0.9062
15989SOL    HW249069   8.274   8.112   1.709  0.3271  1.0408  0.7108
15990SOL     OW49070   4.579   5.841   0.107  0.3073  0.9927 -0.2965
15990SOL    HW149071   4.606   5.767   0.051 -0.8929  0.1930  0.1506
15990SOL    HW249072   4.648   5.846   0.174  0.6952  0.6445 -0.6582
15991SOL     OW49073   2.756   6.319   6.032 -0.1647  0.7656  0.3658
15991SOL    HW149074   2.806   6.294   5.955  0.1691  0.7968  0.5674
15991SOL    HW249075   2.811   6.294   6.106 -0.3974  0.9036  0.5927
15992SOL     OW49076   4.559   0.515   2.192 -0.1084 -0.3950 -0.1120
15992SOL    HW149077   4.654   0.515   2.204 -0.1802  0.6657  0.6751
15992SOL    HW249078   4.543   0.585   2.129 -0.2919 -1.3819 -1.1938
15993SOL     OW49079   0.782   0.165   3.741 -0.0247 -0.6649 -0.5883
15993SOL    HW149080   0.718   0.140   3.808 -0.8972 -1.8492 -1.7978
15993SOL    HW249081   0.757   0.113   3.664  0.0707  1.6479 -2.2951
15994SOL     OW49082   7.724   3.924   3.594  0.1980  0.0857  0.3098
15994SOL    HW149083   7.713   3.894   3.685 -1.3430  0.9948  0.4657
15994SOL    HW249084   7.817   3.944   3.587  0.5492 -1.0308  1.3549
15995SOL     OW49085   7.910   7.793   1.599  0.3428  0.2454 -0.1466
15995SOL    HW149086   7.853   7.867   1.618  0.0048 -0.1794  0.5143
15995SOL    HW249087   7.881   7.762   1.513 -0.7499 -0.2607  0.3922
15996SOL     OW49088   5.642   6.052   1.341  0.4984  0.5045  0.3500
15996SOL    HW149089   5.673   6.099   1.418  0.7526 -0.2488  0.7157
15996SOL    HW249090   5.632   5.962   1.371 -1.4228  0.5794  0.0830
15997SOL     OW49091   1.897   1.950   5.701 -0.2884 -0.2569 -0.2999
15997SOL    HW149092   1.983   1.933   5.738 -0.1524  0.6362 -0.1731
15997SOL    HW249093   1.876   1.871   5.651  0.4865 -0.5858 -0.1219
15998SOL     OW49094   4.587   8.233   1.135  0.5319  0.2645 -0.3812
15998SOL    HW149095   4.495   8.256   1.123  0.4154 -0.5676 -1.1880
15998SOL    HW249096   4.609   8.265   1.223  0.4617  3.6020 -1.4636
15999SOL     OW49097   6.516   6.308   2.526  0.0983  0.0971 -0.3033
15999SOL    HW149098   6.476   6.354   2.452 -1.4155 -2.2876 -1.0847
15999SOL    HW249099   6.608   6.298   2.500  0.2240  1.6963 -0.5733
16000SOL     OW49100   2.855   6.946   6.145  0.0809  1.1959  0.5464
16000SOL    HW149101   2.882   6.989   6.226  0.4596  1.1064  0.4707
16000SOL    HW249102   2.893   7.001   6.076  0.9379  0.4987  0.4546
16001SOL     OW49103   7.646   4.825   8.322  0.2513 -0.1694 -0.4788
16001SOL    HW149104   7.705   4.763   8.364  1.1737  0.0835 -1.3464
16001SOL    HW249105   7.567   4.824   8.375  0.5222 -1.5550 -0.0748
16002SOL     OW49106   3.970   7.047   2.495  0.6723  0.6526  0.1446
16002SOL    HW149107   4.028   7.050   2.419 -0.3654  0.6887 -0.6623
16002SOL    HW249108   4.013   6.987   2.556 -0.6600 -3.2106 -2.3530
16003SOL     OW49109   5.910   1.007   3.755 -0.5397  0.0517  0.2602
16003SOL    HW149110   5.884   1.055   3.676 -0.7873  0.8550  0.8093
16003SOL    HW249111   5.898   1.071   3.826 -2.3569 -1.2949  1.2347
16004SOL     OW49112   5.169   6.243   4.146 -0.4098 -0.1657  0.7586
16004SOL    HW149113   5.105   6.222   4.214  0.9266  0.4397  2.2767
16004SOL    HW249114   5.139   6.195   4.069 -1.7052 -1.2876  1.9109
16005SOL     OW49115   8.316   3.842   2.990 -0.3136 -0.2878 -0.3392
16005SOL    HW149116   8.267   3.882   3.061  1.2567 -0.3112  0.8101
16005SOL    HW249117   8.263   3.768   2.961 -1.0565 -0.1662  0.6791
16006SOL     OW49118   8.209   7.248   1.030 -0.0649  0.6120 -0.0323
16006SOL    HW149119   8.258   7.226   0.950  1.1162 -0.2792  0.8983
16006SOL    HW249120   8.164   7.329   1.008  0.6888  0.6957 -1.4211
16007SOL     OW49121   6.276   1.814   2.796  0.3206  0.1493  0.0025
16007SOL    HW149122   6.259   1.720   2.803  2.4950 -0.4636 -1.8230
16007SOL    HW249123   6.316   1.838   2.879  2.7077 -1.3037 -0.6429
16008SOL     OW49124   0.786   1.822   2.528 -0.3975  0.6461 -0.2375
16008SOL    HW149125   0.813   1.737   2.495 -3.4370 -0.2558 -0.6468
16008SOL    HW249126   0.758   1.871   2.451 -1.1739  1.0238  0.2703
16009SOL     OW49127   1.509   2.960   2.534 -0.5298 -0.5352  0.8676
16009SOL    HW149128   1.524   2.867   2.519 -1.1852 -0.6253  0.7544
16009SOL    HW249129   1.480   2.994   2.450  0.9657  0.0470  0.5609
16010SOL     OW49130   2.563   4.721   3.565 -0.2775  0.3260  0.0720
16010SOL    HW149131   2.574   4.746   3.657  2.0217 -1.5471  0.4106
16010SOL    HW249132   2.495   4.654   3.567  0.8895 -0.8782  0.6924
16011SOL     OW49133   6.041   1.056   1.891 -0.4711 -0.3827 -0.8232
16011SOL    HW149134   6.063   1.150   1.897 -1.2142 -0.1726 -1.2898
16011SOL    HW249135   6.047   1.037   1.797 -2.3906 -0.2740 -1.0085
16012SOL     OW49136   4.370   5.165   1.039 -0.0289 -0.5748  0.3824
16012SOL    HW149137   4.423   5.105   0.987 -0.1734 -1.4707  1.2444
16012SOL    HW249138   4.286   5.167   0.995  0.1437 -0.5909  0.0517
16013SOL     OW49139   5.562   6.005   0.672  0.1046 -0.0774  0.6908
16013SOL    HW149140   5.612   6.004   0.590 -0.6932  0.8141  0.1835
16013SOL    HW249141   5.575   6.092   0.708  0.6818 -0.5526  1.6805
16014SOL     OW49142   0.995   1.833   4.867 -0.0881  0.4018 -0.1513
16014SOL    HW149143   1.005   1.742   4.837  0.7575  0.2089  0.6614
16014SOL    HW249144   1.082   1.871   4.856 -0.4110  1.0836 -0.3597
16015SOL     OW49145   6.968   6.811   4.697 -0.2460  0.2428 -0.4859
16015SOL    HW149146   6.894   6.784   4.750  0.4059 -0.3561  0.1398
16015SOL    HW249147   7.030   6.850   4.759  0.6086 -0.6383 -0.7504
16016SOL     OW49148   1.179   1.739   8.460 -0.1500 -0.0805 -0.1280
16016SOL    HW149149   1.117   1.803   8.494 -1.2949 -2.1157  1.8833
16016SOL    HW249150   1.216   1.697   8.538  1.6688 -0.8556 -1.3408
16017SOL     OW49151   5.003   0.211   0.244  0.2326  0.3316 -0.2098
16017SOL    HW149152   5.041   0.208   0.332 -0.8575 -3.0051  0.2849
16017SOL    HW249153   5.044   0.138   0.199 -1.2342  0.3245 -1.5852
16018SOL     OW49154   6.293   7.556   7.114  0.0884  0.0356  0.4085
16018SOL    HW149155   6.207   7.585   7.084 -0.5154 -1.9968  0.0325
16018SOL    HW249156   6.353   7.624   7.085 -0.9797 -0.0124 -2.1501
16019SOL     OW49157   5.148   4.813   4.098  0.5708 -0.4674  1.4685
16019SOL    HW149158   5.203   4.747   4.058  0.8294  0.2267  0.6441
16019SOL    HW249159   5.120   4.775   4.181  0.5152 -1.6934  0.8984
16020SOL     OW49160   4.503   3.256   1.625  0.1695  0.1010 -0.5395
16020SOL    HW149161   4.447   3.334   1.632 -0.7886 -0.6315  0.2141
16020SOL    HW249162   4.474   3.213   1.545  0.7542  0.5462 -0.9992
16021SOL     OW49163   3.504   7.337   7.427 -0.2118  0.1821  0.0747
16021SOL    HW149164   3.539   7.347   7.515 -1.4134  0.3045  0.5608
16021SOL    HW249165   3.548   7.259   7.392 -2.5165 -2.2990  2.2499
16022SOL     OW49166   3.002   0.060   4.740 -0.5436  0.4972  0.4165
16022SOL    HW149167   3.047   0.006   4.806 -1.3727 -0.3862  0.2875
16022SOL    HW249168   3.071   0.115   4.703  0.5884 -1.2718 -0.2317
16023SOL     OW49169   0.330   6.353   3.123  0.3109 -0.1056  0.1229
16023SOL    HW149170   0.359   6.442   3.102 -0.1644 -0.1025 -0.5214
16023SOL    HW249171   0.235   6.359   3.132 -0.2177 -1.1321 -3.2137
16024SOL     OW49172   4.884   4.827   0.990  0.6549  0.4092 -0.5983
16024SOL    HW149173   4.957   4.886   0.969  0.2700  0.8304 -0.7553
16024SOL    HW249174   4.833   4.875   1.055 -0.3066  0.7460 -1.5770
16025SOL     OW49175   0.198   3.654   7.427  0.3504  0.2175 -0.0558
16025SOL    HW149176   0.127   3.629   7.487  0.1614  1.1983  0.1394
16025SOL    HW249177   0.161   3.724   7.373  0.9950  0.3588 -0.3218
16026SOL     OW49178   8.068   7.949   3.215 -0.1028  0.6082 -0.3547
16026SOL    HW149179   8.017   8.026   3.191 -0.2636  0.2674 -1.1268
16026SOL    HW249180   8.158   7.970   3.190 -0.2749  0.2436 -1.2974
16027SOL     OW49181   5.818   3.693   2.039 -0.0480  0.2623 -0.4932
16027SOL    HW149182   5.820   3.598   2.053  1.8788  0.4913  1.2353
16027SOL    HW249183   5.743   3.723   2.091  0.5196 -0.1261  0.5823
16028SOL     OW49184   2.504   4.650   8.044 -0.0784 -0.2120  0.5172
16028SOL    HW149185   2.466   4.656   7.956 -0.5868 -0.5761  0.7131
16028SOL    HW249186   2.532   4.559   8.052 -3.3349 -1.2248  2.0702
16029SOL     OW49187   0.904   2.038   6.991  0.0588  0.0551 -0.0489
16029SOL    HW149188   0.834   1.979   7.018  0.2731  0.4780  1.4801
16029SOL    HW249189   0.860   2.119   6.968 -0.1822 -0.4891 -1.6307
16030SOL     OW49190   8.363   3.881   3.420 -0.2600 -0.4681  0.0065
16030SOL    HW149191   8.302   3.809   3.434  0.8004 -1.5306 -0.6078
16030SOL    HW249192   8.412   3.887   3.501  0.7908 -1.6032 -0.5073
16031SOL     OW49193   6.251   3.417   4.703 -0.5163 -0.7095  0.1093
16031SOL    HW149194   6.297   3.399   4.621 -2.5449 -0.6067 -1.1301
16031SOL    HW249195   6.229   3.510   4.699  0.6909 -0.3384  1.5141
16032SOL     OW49196   5.634   0.974   6.738  0.1659  0.0454 -0.3123
16032SOL    HW149197   5.725   1.004   6.734  0.6415 -0.8207  2.3556
16032SOL    HW249198   5.595   1.024   6.810 -0.5381 -1.8375  0.6678
16033SOL     OW49199   7.172   6.559   0.686 -0.6321 -0.1853 -0.3011
16033SOL    HW149200   7.243   6.592   0.632 -0.9913 -0.5327 -1.0111
16033SOL    HW249201   7.128   6.637   0.719  0.6401  0.0305  0.9223
16034SOL     OW49202   2.208   4.114   3.042  0.3349 -0.5260  0.2251
16034SOL    HW149203   2.134   4.087   2.988  0.8687 -3.4267  0.7393
16034SOL    HW249204   2.169   4.158   3.117 -1.0329 -2.6846  0.8900
16035SOL     OW49205   4.814   8.428   7.883  0.9530  0.3253  0.2629
16035SOL    HW149206   4.789   8.519   7.865  0.9787  0.1329 -0.7990
16035SOL    HW249207   4.904   8.434   7.914  1.0542  0.6482 -0.0778
16036SOL     OW49208   9.077   6.069   2.906  0.8280 -0.3790 -0.0665
16036SOL    HW149209   9.086   5.976   2.886  2.3919 -0.3363  0.2536
16036SOL    HW249210   9.135   6.083   2.981 -0.4319  0.5963  0.7610
16037SOL     OW49211   2.741   0.274   7.428  0.0514  0.3270  0.3398
16037SOL    HW149212   2.804   0.266   7.499  1.0631  0.5410 -0.5175
16037SOL    HW249213   2.701   0.360   7.441  2.3931  1.7250 -1.0279
16038SOL     OW49214   2.569   0.655   3.488 -0.3636 -0.0065  0.4906
16038SOL    HW149215   2.600   0.712   3.417  0.9396 -1.1889  0.0656
16038SOL    HW249216   2.628   0.673   3.561 -1.8565  1.3962  1.4368
16039SOL     OW49217   1.673   6.060   6.292 -0.4601  0.1326 -0.0169
16039SOL    HW149218   1.611   6.095   6.229  0.2910 -0.7247 -1.2591
16039SOL    HW249219   1.621   6.001   6.347 -0.7078 -0.8777 -1.2878
16040SOL     OW49220   6.065   4.409   2.665  0.1300 -0.0962 -0.0321
16040SOL    HW149221   6.043   4.474   2.731 -0.4023  0.0780 -0.3753
16040SOL    HW249222   6.034   4.447   2.583 -0.3988 -0.8833 -0.2053
16041SOL     OW49223   6.363   7.227   3.383  0.4829  0.0793 -0.1540
16041SOL    HW149224   6.354   7.288   3.456  2.2348  0.6087 -0.3409
16041SOL    HW249225   6.308   7.263   3.314 -0.2474  0.2149  0.4900
16042SOL     OW49226   5.987   7.163   3.790 -0.1336  0.5183 -0.5136
16042SOL    HW149227   5.944   7.248   3.781 -0.1713  0.6114  0.4722
16042SOL    HW249228   5.960   7.131   3.876  1.5499  0.4624  0.0194
16043SOL     OW49229   1.371   0.365   9.045  0.3857  0.3416 -0.2644
16043SOL    HW149230   1.424   0.436   9.009 -1.8050  0.5339 -3.6279
16043SOL    HW249231   1.311   0.408   9.105  0.8129  0.8998 -0.2260
16044SOL     OW49232   0.281   8.595   3.947 -0.0855  0.0517  0.0661
16044SOL    HW149233   0.280   8.565   4.038 -0.1227  0.8176  0.3231
16044SOL    HW249234   0.365   8.563   3.913 -0.1429 -0.3806  0.3147
16045SOL     OW49235   0.393   4.246   6.339 -0.0034  0.0646  1.0102
16045SOL    HW149236   0.485   4.269   6.356  0.0238  0.8417 -0.0442
16045SOL    HW249237   0.397   4.162   6.293  0.3180  0.8615 -0.4912
16046SOL     OW49238   4.575   2.223   8.530 -0.0320  0.2868  0.0388
16046SOL    HW149239   4.635   2.294   8.505 -2.0219  2.7224  1.6614
16046SOL    HW249240   4.626   2.143   8.516  2.9323  2.0718 -0.3981
16047SOL     OW49241   4.408   1.581   6.827  0.2020 -0.3389  0.0732
16047SOL    HW149242   4.436   1.598   6.917 -0.5892 -0.9519  0.4453
16047SOL    HW249243   4.472   1.628   6.773  1.8218 -1.5250  0.8838
16048SOL     OW49244   7.074   3.105   7.453 -0.2113 -0.2313  0.4469
16048SOL    HW149245   7.015   3.133   7.383 -1.3118 -0.5582  1.2024
16048SOL    HW249246   7.065   3.010   7.455  0.0149 -0.2463  0.8413
16049SOL     OW49247   3.703   3.935   3.264  0.1836  0.6492 -0.1566
16049SOL    HW149248   3.682   3.874   3.335  2.7098  1.2271  1.2090
16049SOL    HW249249   3.720   4.018   3.307 -1.8697  2.0621 -1.8711
16050SOL     OW49250   2.899   8.801   3.851  0.0489  0.2152  0.0170
16050SOL    HW149251   2.877   8.854   3.928 -0.9864  0.1130 -0.1837
16050SOL    HW249252   2.949   8.728   3.885 -0.1988  0.2973  0.5647
16051SOL     OW49253   0.719   1.794   1.341  0.2185  0.6696  0.4592
16051SOL    HW149254   0.703   1.878   1.297  0.6977  0.5949  0.1323
16051SOL    HW249255   0.794   1.756   1.294 -2.1143 -1.6115 -1.7209
16052SOL     OW49256   3.693   4.929   3.561 -0.6627  0.0020 -0.2537
16052SOL    HW149257   3.658   4.973   3.483 -1.0614  0.1763  0.0216
16052SOL    HW249258   3.783   4.958   3.567 -0.6381  0.0130 -0.6341
16053SOL     OW49259   0.758   1.440   0.152 -0.4915  0.1859  0.1325
16053SOL    HW149260   0.726   1.455   0.063 -1.6537 -1.4985  0.2235
16053SOL    HW249261   0.687   1.470   0.209 -0.7726 -0.9687  0.4121
16054SOL     OW49262   3.352   3.680   2.682 -0.1300  0.0058 -0.1636
16054SOL    HW149263   3.330   3.625   2.607  0.9896 -1.9698  0.8741
16054SOL    HW249264   3.375   3.765   2.644 -2.2782 -0.0660 -1.7932
16055SOL     OW49265   6.405   5.463   2.108  0.6027 -0.2079 -0.1490
16055SOL    HW149266   6.474   5.509   2.059 -0.0455 -0.0270 -0.9021
16055SOL    HW249267   6.402   5.509   2.192  2.9130 -1.6086  0.8003
16056SOL     OW49268   5.703   0.586   7.438  0.5297 -0.4856 -0.2719
16056SOL    HW149269   5.636   0.525   7.406 -1.0573  1.2687 -0.4888
16056SOL    HW249270   5.665   0.622   7.519 -0.2368  2.7412 -1.9303
16057SOL     OW49271   5.250   5.389   0.823 -0.5035 -0.1738  0.5057
16057SOL    HW149272   5.214   5.430   0.744 -1.3028 -0.3516  0.7692
16057SOL    HW249273   5.330   5.438   0.841 -0.3869 -0.0396 -0.3316
16058SOL     OW49274   1.579   2.660   7.561  0.5406 -0.6225 -0.0957
16058SOL    HW149275   1.543   2.612   7.636 -0.9967  1.4950  0.6234
16058SOL    HW249276   1.503   2.677   7.505  1.1902  0.1932 -0.7535
16059SOL     OW49277   0.687   8.435   0.433  0.0439  0.0745 -0.2542
16059SOL    HW149278   0.729   8.498   0.374 -0.4417  0.2710 -0.3985
16059SOL    HW249279   0.727   8.451   0.518 -0.1271  0.6414 -0.2721
16060SOL     OW49280   1.717   0.680   0.501 -0.1435 -0.4508  0.5377
16060SOL    HW149281   1.714   0.600   0.553 -0.4372 -2.0398 -1.7281
16060SOL    HW249282   1.654   0.664   0.430  1.5796  0.7324 -1.3678
16061SOL     OW49283   2.241   1.911   8.643 -0.5944  0.3170 -0.9009
16061SOL    HW149284   2.311   1.954   8.692 -0.6557  0.5930 -1.0554
16061SOL    HW249285   2.183   1.874   8.710 -0.1814 -0.1097 -0.7736
16062SOL     OW49286   8.245   4.722   4.028  0.2215 -0.0783  0.6669
16062SOL    HW149287   8.265   4.809   4.064  1.9006 -0.0942 -0.1424
16062SOL    HW249288   8.255   4.663   4.103 -0.1419  0.3216  1.0379
16063SOL     OW49289   4.176   1.504   0.171  0.0874  0.1204  0.3529
16063SOL    HW149290   4.269   1.482   0.173  0.0625 -0.0241  0.0543
16063SOL    HW249291   4.173   1.594   0.139  0.1088  0.0142  0.0508
16064SOL     OW49292   6.998   2.627   1.368  0.2875  0.4898 -0.0967
16064SOL    HW149293   6.917   2.598   1.325  1.0526 -0.5444 -0.8672
16064SOL    HW249294   7.018   2.558   1.431  0.4459  0.8686  0.2747
16065SOL     OW49295   3.378   6.803   0.802  0.3890 -0.1626  0.5472
16065SOL    HW149296   3.429   6.825   0.880  0.8881 -0.5816  0.3428
16065SOL    HW249297   3.411   6.717   0.775 -1.2085 -0.9923  1.0798
16066SOL     OW49298   2.647   8.382   2.965  0.1050  0.1501 -0.6134
16066SOL    HW149299   2.725   8.432   2.988 -0.0333  1.4079 -2.6446
16066SOL    HW249300   2.576   8.426   3.013  0.4329 -0.2016  0.2198
16067SOL     OW49301   5.050   1.838   7.750  0.1524 -0.4119 -0.2312
16067SOL    HW149302   5.022   1.842   7.659  0.0005  1.2506 -0.1447
16067SOL    HW249303   5.146   1.833   7.745  0.2133  0.6929 -0.5041
16068SOL     OW49304   3.517   6.358   7.804 -0.5581  0.3399  0.2210
16068SOL    HW149305   3.499   6.360   7.898  1.2488 -1.0325  0.6479
16068SOL    HW249306   3.583   6.290   7.793 -0.8930  0.2971 -2.0949
16069SOL     OW49307   1.692   6.679   8.232 -0.2957  0.1518 -0.7167
16069SOL    HW149308   1.749   6.602   8.243 -0.3323  0.2655  0.3547
16069SOL    HW249309   1.686   6.717   8.319 -1.2099  0.7207 -1.0157
16070SOL     OW49310   2.844   1.359   4.365 -0.4912  0.1644  0.1052
16070SOL    HW149311   2.825   1.309   4.286  1.0656 -3.2479  1.6459
16070SOL    HW249312   2.933   1.392   4.352 -0.7850  0.8869 -0.1203
16071SOL     OW49313   5.247   0.657   1.414  0.0077 -0.9362 -0.5573
16071SOL    HW149314   5.221   0.595   1.482 -1.6662  0.1369 -0.1438
16071SOL    HW249315   5.195   0.736   1.433 -1.4658 -0.9786 -3.7552
16072SOL     OW49316   4.013   5.306   5.313  0.1008  0.5139 -0.2813
16072SOL    HW149317   4.065   5.310   5.393 -0.7119  1.9122  0.2106
16072SOL    HW249318   4.072   5.269   5.248  0.6601 -1.0557  1.0295
16073SOL     OW49319   1.856   2.544   1.768  0.0671 -0.6369  0.0081
16073SOL    HW149320   1.852   2.498   1.851 -1.2154  0.6000  0.6748
16073SOL    HW249321   1.828   2.479   1.703 -0.5760 -1.1285  0.7622
16074SOL     OW49322   5.388   7.145   4.734 -0.1879 -0.3573 -0.0094
16074SOL    HW149323   5.479   7.116   4.727 -0.1210 -0.1458 -0.0240
16074SOL    HW249324   5.394   7.239   4.751 -0.4112 -0.2171 -0.6878
16075SOL     OW49325   6.239   3.053   3.808 -0.0228  0.1576 -0.3684
16075SOL    HW149326   6.231   3.009   3.723  1.7413 -0.5672 -0.1900
16075SOL    HW249327   6.222   3.145   3.790  2.8778  0.4458 -2.0298
16076SOL     OW49328   0.122   8.406   6.613  0.0609  0.2137  0.1476
16076SOL    HW149329   0.071   8.445   6.541 -1.8875 -2.3825 -0.0165
16076SOL    HW249330   0.060   8.402   6.686  0.4724 -1.6110  0.4364
16077SOL     OW49331   3.627   0.830   1.219  0.1568  0.8013  0.6704
16077SOL    HW149332   3.678   0.905   1.250  1.0549  0.2302  0.6168
16077SOL    HW249333   3.677   0.796   1.145 -0.7882  0.7705  0.0389
16078SOL     OW49334   0.503   6.702   2.677 -0.4772  0.2288  0.0403
16078SOL    HW149335   0.501   6.798   2.674  0.9725  0.3196  0.9591
16078SOL    HW249336   0.431   6.679   2.737 -0.5427  0.7753  0.1780
16079SOL     OW49337   4.984   0.832   6.156  0.4486 -0.8029  0.0931
16079SOL    HW149338   5.076   0.810   6.136  1.4342  2.2257  0.8414
16079SOL    HW249339   4.989   0.916   6.202 -2.7908 -0.1342 -0.5758
16080SOL     OW49340   0.551   3.197   7.926 -0.0621 -0.2777  0.4276
16080SOL    HW149341   0.482   3.249   7.967 -0.1308  1.2719 -1.5201
16080SOL    HW249342   0.505   3.126   7.881 -0.3147  0.2068 -0.0838
16081SOL     OW49343   8.959   2.073   7.932 -0.8858 -0.3198 -0.4082
16081SOL    HW149344   8.911   2.141   7.980 -0.7100 -0.5384  0.0765
16081SOL    HW249345   8.978   2.006   7.997 -1.6082 -1.1371 -1.0072
16082SOL     OW49346   7.439   1.800   3.805 -0.3034  0.4692  0.1758
16082SOL    HW149347   7.526   1.835   3.787  0.0083 -0.4323 -0.0878
16082SOL    HW249348   7.426   1.731   3.741 -0.6155 -0.3983  1.1418
16083SOL     OW49349   7.230   2.968   6.397 -0.6385  0.6131 -0.0424
16083SOL    HW149350   7.136   2.966   6.378 -0.5241  0.3958 -0.6285
16083SOL    HW249351   7.269   2.915   6.327 -0.2064 -0.4887  1.0043
16084SOL     OW49352   3.314   4.035   6.946 -0.5183  0.3510 -0.3139
16084SOL    HW149353   3.317   3.945   6.913 -1.4957  0.0939  0.2582
16084SOL    HW249354   3.276   4.086   6.874 -0.3981  0.2259 -0.4669
16085SOL     OW49355   3.907   6.324   5.881  0.3306 -0.1716  0.1868
16085SOL    HW149356   3.956   6.386   5.828 -1.0580  0.8437  0.0410
16085SOL    HW249357   3.834   6.297   5.826 -0.7493  0.3756  1.3027
16086SOL     OW49358   2.106   4.055   8.888 -0.1176 -0.1282 -0.1175
16086SOL    HW149359   2.022   4.009   8.883  0.5691 -1.4513 -0.0461
16086SOL    HW249360   2.121   4.089   8.800 -1.4057  1.4386  0.2193
16087SOL     OW49361   5.758   0.403   5.365  0.4236 -0.2534 -0.3947
16087SOL    HW149362   5.663   0.411   5.358  0.2466 -0.0973  1.4648
16087SOL    HW249363   5.787   0.376   5.278 -1.2317  0.4327 -1.2111
16088SOL     OW49364   2.393   0.923   0.335 -0.1976  0.1481 -0.0664
16088SOL    HW149365   2.360   0.986   0.398  1.2620 -1.0173  2.0074
16088SOL    HW249366   2.317   0.870   0.311 -1.0353  1.4463 -0.3537
16089SOL     OW49367   7.776   3.372   0.421 -0.2897 -0.4075 -0.5281
16089SOL    HW149368   7.700   3.351   0.367 -0.2770  1.6043 -1.4529
16089SOL    HW249369   7.742   3.375   0.510 -0.6852 -2.1409 -0.5968
16090SOL     OW49370   6.612   4.800   7.600  0.3256  0.2587 -0.4397
16090SOL    HW149371   6.585   4.892   7.593  1.3647  0.6115 -0.0274
16090SOL    HW249372   6.533   4.750   7.577 -0.3163  1.2461 -0.4620
16091SOL     OW49373   4.357   3.868   6.858 -0.0454  0.1071  0.3563
16091SOL    HW149374   4.365   3.797   6.921  1.1725  0.2068  0.3527
16091SOL    HW249375   4.445   3.876   6.821  0.1369  2.3546  1.1600
16092SOL     OW49376   6.377   1.635   1.649  0.2273  0.9134  0.0690
16092SOL    HW149377   6.323   1.647   1.728 -0.6531  0.2037 -0.4093
16092SOL    HW249378   6.315   1.606   1.582  1.2756 -0.3571 -0.3829
16093SOL     OW49379   8.142   8.479   0.868  0.4464 -0.3718  0.0483
16093SOL    HW149380   8.066   8.446   0.915 -3.6230  0.2042 -5.1680
16093SOL    HW249381   8.173   8.405   0.817  2.0564 -0.0463  0.5037
16094SOL     OW49382   8.459   4.404   0.109  0.1853  0.0286  0.9893
16094SOL    HW149383   8.510   4.411   0.190  3.0025  0.4038 -0.6718
16094SOL    HW249384   8.449   4.310   0.095  0.8472 -0.0710  1.1296
16095SOL     OW49385   7.411   2.286   5.646 -0.1558  0.1314  0.4285
16095SOL    HW149386   7.436   2.378   5.638  0.8285 -0.1973 -0.4920
16095SOL    HW249387   7.315   2.288   5.644 -0.1469  1.0285 -1.2878
16096SOL     OW49388   2.042   3.528   9.085 -0.4335 -0.6769 -0.1107
16096SOL    HW149389   1.952   3.538   9.117  0.2075  2.1229  1.2142
16096SOL    HW249390   2.035   3.535   8.990 -1.5376  0.6768  0.0406
16097SOL     OW49391   6.311   2.656   9.035 -0.1634  0.0913  0.0982
16097SOL    HW149392   6.301   2.750   9.021  1.3487  0.5339  1.6291
16097SOL    HW249393   6.382   2.630   8.976 -0.6940 -0.1232 -0.4460
16098SOL     OW49394   6.424   4.472   5.613  0.4640  0.1164  0.7394
16098SOL    HW149395   6.433   4.496   5.521  0.9639  0.2673  0.8258
16098SOL    HW249396   6.352   4.527   5.645 -1.9413 -2.1783 -0.3330
16099SOL     OW49397   2.723   2.420   3.110 -0.3055  0.6578 -0.0730
16099SOL    HW149398   2.674   2.338   3.108 -0.1230  0.4360  2.0446
16099SOL    HW249399   2.672   2.477   3.168 -1.4200  2.7910 -2.9293
16100SOL     OW49400   6.193   0.418   3.124  0.4258  0.1233 -0.2320
16100SOL    HW149401   6.139   0.372   3.188  0.8031 -1.9315 -1.2782
16100SOL    HW249402   6.131   0.449   3.058  0.1564  1.1976  0.5192
16101SOL     OW49403   4.570   0.030   3.665  0.2924  0.0043  0.2447
16101SOL    HW149404   4.518  -0.041   3.703  1.4850 -1.7926 -1.2759
16101SOL    HW249405   4.584   0.002   3.574  0.1549  2.6013 -0.6406
16102SOL     OW49406   3.401   1.401   6.831 -0.0585 -0.3164  0.0031
16102SOL    HW149407   3.349   1.481   6.828 -1.0402 -0.9205  0.3458
16102SOL    HW249408   3.404   1.371   6.740 -0.8674 -0.6099  0.0620
16103SOL     OW49409   4.280   4.988   7.998  0.2091  0.8562 -0.4501
16103SOL    HW149410   4.332   4.908   8.007  2.4397  2.1613 -0.7363
16103SOL    HW249411   4.280   5.006   7.905  0.2488  1.4978 -0.3296
16104SOL     OW49412   1.216   2.411   8.427 -0.2689  0.0857 -0.5370
16104SOL    HW149413   1.232   2.426   8.334  2.3174  0.6178 -0.0768
16104SOL    HW249414   1.267   2.334   8.449 -0.7826  0.0080  0.4842
16105SOL     OW49415   1.065   1.571   4.203 -0.5526 -0.1828  0.2348
16105SOL    HW149416   1.040   1.572   4.295  1.0012 -1.4658  0.7115
16105SOL    HW249417   1.047   1.660   4.172 -2.2023 -0.0573  1.4303
16106SOL     OW49418   8.113   2.734   2.825  0.5140  0.1216 -0.4566
16106SOL    HW149419   8.117   2.719   2.730 -0.6812  2.8015 -1.0265
16106SOL    HW249420   8.023   2.710   2.848 -0.0380  1.9104 -0.5739
16107SOL     OW49421   4.267   5.343   6.955  0.3406  0.4395  0.2194
16107SOL    HW149422   4.234   5.275   7.014 -1.8982  0.0445 -1.3491
16107SOL    HW249423   4.236   5.425   6.994 -0.3421  0.2442  0.1143
16108SOL     OW49424   5.282   6.009   6.270 -0.4178  0.0784  0.1978
16108SOL    HW149425   5.261   6.065   6.196 -0.6308 -1.2870 -0.8096
16108SOL    HW249426   5.375   5.989   6.259 -0.3555  0.1831  0.5197
16109SOL     OW49427   6.143   0.934   4.719 -0.2671 -0.7955 -0.1685
16109SOL    HW149428   6.139   0.965   4.810 -1.4328 -0.8870 -0.1732
16109SOL    HW249429   6.210   0.987   4.678 -2.1322  1.7154 -0.1759
16110SOL     OW49430   8.530   2.635   7.139 -0.7465 -0.2271 -0.4693
16110SOL    HW149431   8.618   2.658   7.169 -1.4054 -1.7405  3.2062
16110SOL    HW249432   8.482   2.717   7.138  0.2714  0.3749 -0.8544
16111SOL     OW49433   2.270   8.176   0.086 -0.2790 -0.3201  0.5358
16111SOL    HW149434   2.281   8.230   0.164  0.8082  0.4819 -0.1286
16111SOL    HW249435   2.189   8.208   0.045  0.5958  1.2233 -0.1099
16112SOL     OW49436   0.683   5.104   4.238 -0.2955 -0.9070  0.5400
16112SOL    HW149437   0.629   5.141   4.308  1.0236  1.4581  0.4070
16112SOL    HW249438   0.762   5.159   4.236  0.3200 -1.7255 -1.9117
16113SOL     OW49439   0.188   7.273   2.466  0.3469  0.4672 -0.1580
16113SOL    HW149440   0.104   7.319   2.461  0.3864  0.6674  0.7499
16113SOL    HW249441   0.234   7.298   2.386 -1.2633 -1.3175 -1.7551
16114SOL     OW49442   8.192   8.046   0.864  0.0979  0.0591 -0.1798
16114SOL    HW149443   8.099   8.025   0.867  0.5377 -2.0315  1.0651
16114SOL    HW249444   8.225   8.021   0.950  2.2269 -1.5935 -1.3712
16115SOL     OW49445   2.013   5.183   4.871  0.7335  0.8907 -0.0063
16115SOL    HW149446   1.968   5.102   4.897 -0.4321  1.6608  0.4370
16115SOL    HW249447   2.056   5.213   4.951  1.6672  0.4064 -0.3161
16116SOL     OW49448   8.104   0.197   7.183  0.4106  0.2487  0.2969
16116SOL    HW149449   8.072   0.129   7.124 -0.2277  0.6442  0.1778
16116SOL    HW249450   8.086   0.279   7.137  2.1178  0.4739 -0.0171
16117SOL     OW49451   2.933   1.092   7.140  0.4353  0.6300  0.0506
16117SOL    HW149452   3.007   1.036   7.118  0.6395  0.2149  1.6397
16117SOL    HW249453   2.972   1.173   7.172  0.2395  0.2963  1.1798
16118SOL     OW49454   8.043   6.634   6.846  0.0565  0.1873  0.7243
16118SOL    HW149455   8.012   6.655   6.934 -0.1223  0.3487  0.6237
16118SOL    HW249456   7.962   6.619   6.796  0.1654 -0.1946  0.6609
16119SOL     OW49457   0.299   3.563   0.574 -0.0878  0.0977 -0.2634
16119SOL    HW149458   0.329   3.528   0.658  1.5722  1.3767 -0.2625
16119SOL    HW249459   0.249   3.641   0.597  0.8070  0.7437 -0.4554
16120SOL     OW49460   4.323   2.650   8.096  0.1556 -0.3749 -0.6122
16120SOL    HW149461   4.291   2.655   8.006 -0.1288 -0.6801 -0.5282
16120SOL    HW249462   4.414   2.681   8.090 -0.1927  0.6656 -0.8199
16121SOL     OW49463   3.087   7.150   0.160 -0.3175  1.1945  0.2783
16121SOL    HW149464   3.097   7.245   0.162  0.7671  1.1455 -1.2908
16121SOL    HW249465   3.150   7.117   0.224 -0.5060  1.5154  0.6292
16122SOL     OW49466   2.366   8.050   2.845 -0.3608 -0.0012 -0.3962
16122SOL    HW149467   2.355   8.047   2.940  1.2387 -0.9564 -0.2111
16122SOL    HW249468   2.283   8.016   2.810 -1.2945  1.1458  0.6049
16123SOL     OW49469   4.191   3.036   1.962  0.4286  0.5088  0.4432
16123SOL    HW149470   4.118   3.044   2.023 -0.3652 -2.4721 -0.0008
16123SOL    HW249471   4.151   3.043   1.876  0.5458 -1.4725  0.1882
16124SOL     OW49472   4.045   8.180   0.679  0.4693 -0.0997 -0.2095
16124SOL    HW149473   4.082   8.254   0.728  3.0030 -1.4946  0.1465
16124SOL    HW249474   3.960   8.165   0.719  0.7273  1.4008  1.0010
16125SOL     OW49475   0.076   2.018   7.663 -0.1490 -0.3362 -0.1606
16125SOL    HW149476   0.004   1.956   7.652 -1.7824  1.5994 -0.9905
16125SOL    HW249477   0.149   1.979   7.616 -0.7438 -2.1571  0.3385
16126SOL     OW49478   3.728   0.255   0.481 -0.0972 -0.1999  0.5616
16126SOL    HW149479   3.672   0.256   0.404  0.1292 -1.1580  0.3670
16126SOL    HW249480   3.753   0.346   0.495 -1.5888  0.2343  0.5786
16127SOL     OW49481   5.647   0.951   5.529 -0.0353  0.8226  0.0476
16127SOL    HW149482   5.565   1.001   5.533 -1.4079 -1.3893  1.1268
16127SOL    HW249483   5.625   0.874   5.477  1.9928  1.2052 -1.4543
16128SOL     OW49484   1.357   9.103   4.587 -0.2231  0.1164 -0.0987
16128SOL    HW149485   1.440   9.151   4.591 -0.7372  0.9585  1.1471
16128SOL    HW249486   1.348   9.064   4.674 -1.5262  0.7412  0.0622
16129SOL     OW49487   1.410   2.377   4.178 -0.1447 -0.2053 -0.3515
16129SOL    HW149488   1.465   2.412   4.248  1.2953 -1.2426 -0.9073
16129SOL    HW249489   1.401   2.450   4.116 -1.8384  0.8804  1.0718
16130SOL     OW49490   8.877   4.562   2.595 -0.0493  0.2340 -0.3610
16130SOL    HW149491   8.879   4.467   2.594 -0.0182  0.2089  0.6606
16130SOL    HW249492   8.932   4.586   2.670 -2.8342  0.9316  1.6344
16131SOL     OW49493   8.523   7.894   7.690  0.4045 -0.0323  0.2338
16131SOL    HW149494   8.482   7.822   7.738  0.9140 -0.1709  0.4720
16131SOL    HW249495   8.546   7.856   7.605  1.1327 -0.3018  0.5444
16132SOL     OW49496   8.285   2.231   3.610  0.7615  0.3478 -0.1939
16132SOL    HW149497   8.208   2.243   3.666  0.0923  2.3940 -1.4456
16132SOL    HW249498   8.348   2.184   3.666  0.0563  2.0768  2.2200
16133SOL     OW49499   3.343   7.509   1.054 -0.4442  0.3906 -0.7005
16133SOL    HW149500   3.375   7.419   1.057 -0.0108  0.5517 -0.3963
16133SOL    HW249501   3.321   7.530   1.145 -2.2480 -0.0012 -1.0141
16134SOL     OW49502   2.007   4.373   8.524  0.5401 -0.6581 -0.2103
16134SOL    HW149503   1.975   4.433   8.592 -2.0006 -1.0683 -0.9625
16134SOL    HW249504   2.089   4.413   8.495  0.6498  0.6198  1.6575
16135SOL     OW49505   1.462   2.403   5.932 -0.1890 -0.0639  0.1110
16135SOL    HW149506   1.538   2.424   5.985 -0.2307  0.2256  0.0558
16135SOL    HW249507   1.408   2.482   5.934  0.7845  0.7469 -2.0670
16136SOL     OW49508   5.405   0.722   4.921 -0.3333  0.2876  0.0398
16136SOL    HW149509   5.370   0.763   4.842  0.2786  1.4132  0.3233
16136SOL    HW249510   5.468   0.657   4.889 -1.5633 -0.7069 -0.4264
16137SOL     OW49511   8.454   9.036   8.662  0.1276  0.6336  0.3666
16137SOL    HW149512   8.535   9.078   8.633  0.5517  1.2489  2.2811
16137SOL    HW249513   8.390   9.059   8.595  1.6116 -0.2242 -1.4106
16138SOL     OW49514   8.706   7.559   7.538  0.1174 -0.4043 -0.3563
16138SOL    HW149515   8.712   7.510   7.620 -2.2298  0.6648  0.5397
16138SOL    HW249516   8.621   7.535   7.501 -1.0236  2.6803 -0.0020
16139SOL     OW49517   6.730   7.495   2.072 -0.5913 -0.5052  0.5057
16139SOL    HW149518   6.741   7.569   2.012  1.4291 -1.3099 -0.1729
16139SOL    HW249519   6.817   7.456   2.079 -0.7855 -0.5959  3.8150
16140SOL     OW49520   7.770   3.869   7.801  0.1373  0.6626  0.5490
16140SOL    HW149521   7.826   3.805   7.758 -2.3509 -1.7476  0.5924
16140SOL    HW249522   7.739   3.926   7.730 -0.4496 -0.5105 -0.1685
16141SOL     OW49523   1.004   5.790   5.969  0.6648  0.0042 -0.2593
16141SOL    HW149524   0.923   5.796   5.919  0.6835 -1.0924 -0.4598
16141SOL    HW249525   0.982   5.735   6.044  1.3970 -0.9899 -0.7393
16142SOL     OW49526   5.709   7.364   8.990 -0.2784  0.2934  0.0648
16142SOL    HW149527   5.742   7.276   8.973  0.6748  0.5123  0.7009
16142SOL    HW249528   5.614   7.353   8.996 -0.1076 -0.8367  0.9792
16143SOL     OW49529   0.507   3.666   4.273  0.1753 -0.0174 -0.1219
16143SOL    HW149530   0.478   3.715   4.350  1.7641 -0.7237  1.0010
16143SOL    HW249531   0.590   3.626   4.300  1.3410  0.5470 -2.5513
16144SOL     OW49532   0.009   4.516   7.318 -0.2314 -0.3441  0.2119
16144SOL    HW149533   0.065   4.569   7.374 -0.1182 -0.6590  0.4016
16144SOL    HW249534   0.069   4.459   7.270 -0.4274 -1.4775  1.2419
16145SOL     OW49535   2.288   8.344   3.945  1.1429 -0.1868 -0.1938
16145SOL    HW149536   2.278   8.274   4.010  1.3450 -0.6070 -0.6105
16145SOL    HW249537   2.266   8.424   3.993 -2.4469 -0.7980 -0.5666
16146SOL     OW49538   2.474   0.256   5.310  0.0839 -0.1941  0.2244
16146SOL    HW149539   2.467   0.343   5.349  1.5202  0.3103 -0.5556
16146SOL    HW249540   2.491   0.197   5.384  2.9714  0.7605  0.4614
16147SOL     OW49541   2.146   3.180   3.567 -0.2894 -0.1244 -0.0145
16147SOL    HW149542   2.200   3.126   3.509  2.6195  2.6669 -0.1602
16147SOL    HW249543   2.080   3.219   3.509  0.0547 -0.4918 -0.6636
16148SOL     OW49544   2.184   0.236   4.995  0.1612 -0.6283  0.1047
16148SOL    HW149545   2.189   0.153   4.949 -0.0449  0.1900 -1.4350
16148SOL    HW249546   2.269   0.244   5.039  0.8357 -0.8893 -1.0999
16149SOL     OW49547   0.095   5.817   3.680 -0.1208  0.1353  0.0653
16149SOL    HW149548   0.054   5.889   3.729  0.6754  0.8632 -0.2995
16149SOL    HW249549   0.091   5.845   3.589 -0.2063 -0.4998 -0.1300
16150SOL     OW49550   8.590   4.459   5.634 -0.2877 -0.4750  0.0961
16150SOL    HW149551   8.577   4.364   5.639 -2.2397 -0.4590 -2.4299
16150SOL    HW249552   8.520   4.489   5.575 -1.0103  2.8332  2.3680
16151SOL     OW49553   4.196   2.013   0.535  0.0900 -0.1965  0.2751
16151SOL    HW149554   4.260   2.059   0.480 -0.4914  1.5360  0.9864
16151SOL    HW249555   4.240   1.931   0.558  2.2024  1.0497  0.9679
16152SOL     OW49556   2.663   1.445   1.354  0.9239 -0.2133 -0.3332
16152SOL    HW149557   2.753   1.415   1.368  0.1506 -2.4520  0.2104
16152SOL    HW249558   2.650   1.513   1.421  1.5677 -1.3572  1.0043
16153SOL     OW49559   1.105   6.247   3.167 -0.3678  0.1429  0.3563
16153SOL    HW149560   1.157   6.230   3.246 -1.2789 -0.7779  0.7742
16153SOL    HW249561   1.165   6.228   3.094  0.2296  0.2250  0.8229
16154SOL     OW49562   1.486   8.063   7.504 -0.1521 -0.5919  0.9039
16154SOL    HW149563   1.450   7.999   7.565  1.4303 -3.5068 -0.9930
16154SOL    HW249564   1.581   8.053   7.512  0.2474  2.5521  1.4280
16155SOL     OW49565   8.113   6.070   3.635  0.6404  0.3697  0.1118
16155SOL    HW149566   8.161   5.989   3.654  0.7172  0.3487 -0.1679
16155SOL    HW249567   8.131   6.126   3.710  0.3291  0.0114  0.4627
16156SOL     OW49568   6.650   5.357   7.232  0.0081  0.0799  0.3183
16156SOL    HW149569   6.708   5.416   7.184 -1.1641  0.6301 -0.4735
16156SOL    HW249570   6.607   5.412   7.297  2.0523 -0.7779  2.5530
16157SOL     OW49571   6.269   1.429   7.436  0.0611 -0.1753 -0.2947
16157SOL    HW149572   6.204   1.422   7.506 -0.3280  1.4715 -0.4549
16157SOL    HW249573   6.337   1.486   7.472 -0.2385  0.8432 -1.2950
16158SOL     OW49574   0.709   1.401   2.953 -0.6484 -0.2437  0.5118
16158SOL    HW149575   0.797   1.438   2.963 -0.8275  0.1442  0.6735
16158SOL    HW249576   0.652   1.477   2.947 -0.9753 -0.4963  0.4076
16159SOL     OW49577   8.982   6.129   7.262 -0.3960  0.4026 -0.0153
16159SOL    HW149578   9.043   6.170   7.323  1.5172 -1.0856 -0.7879
16159SOL    HW249579   8.913   6.093   7.318  0.0197  1.1686  1.0266
16160SOL     OW49580   4.159   7.969   8.851 -0.0988  0.1464 -0.3060
16160SOL    HW149581   4.236   8.003   8.897  0.0984  2.7124 -2.3085
16160SOL    HW249582   4.193   7.899   8.795  0.6435  0.7289 -0.5928
16161SOL     OW49583   8.817   4.739   2.934 -0.4939 -0.1975 -0.3067
16161SOL    HW149584   8.744   4.679   2.920 -0.8489  0.5861 -1.9902
16161SOL    HW249585   8.775   4.820   2.964 -0.3024  0.1355 -0.9196
16162SOL     OW49586   7.274   7.370   5.467  0.3367 -0.2530  0.1287
16162SOL    HW149587   7.341   7.423   5.424 -0.1565  0.7611  0.5644
16162SOL    HW249588   7.206   7.433   5.491  0.2367 -0.9065  1.6691
16163SOL     OW49589   8.605   6.055   2.118  0.0611  0.0332  0.0743
16163SOL    HW149590   8.570   6.125   2.064  0.8494  0.0926 -0.3819
16163SOL    HW249591   8.668   6.010   2.062 -0.2186 -0.8642  0.4556
16164SOL     OW49592   8.055   1.484   8.107 -0.1504 -0.6197 -0.5010
16164SOL    HW149593   8.007   1.462   8.027 -0.7182 -0.2928 -0.2561
16164SOL    HW249594   7.986   1.503   8.171  0.2913  1.6406 -0.6162
16165SOL     OW49595   4.061   0.356   0.075  0.1463  0.0832  0.0785
16165SOL    HW149596   4.009   0.335   0.152  0.9761 -0.2315  0.5719
16165SOL    HW249597   4.141   0.395   0.111  0.3157  0.4257 -0.6495
16166SOL     OW49598   1.751   2.752   8.709  0.1697 -0.1028  0.0648
16166SOL    HW149599   1.822   2.784   8.764  1.7752 -3.1564 -0.0451
16166SOL    HW249600   1.679   2.736   8.769  0.3315  0.8712  0.5344
16167SOL     OW49601   4.747   9.071   4.851 -0.3578 -0.4104  0.2669
16167SOL    HW149602   4.787   9.040   4.932 -1.2309 -0.3231  0.7364
16167SOL    HW249603   4.688   9.140   4.878  0.2802  0.5024 -0.5879
16168SOL     OW49604   5.896   9.064   0.513  0.0302 -0.5111 -0.1804
16168SOL    HW149605   5.864   9.046   0.425  0.6535  2.4916 -1.1294
16168SOL    HW249606   5.919   9.156   0.512 -1.5623  0.1342  3.6653
16169SOL     OW49607   6.471   1.901   8.637  0.2031 -0.1887 -0.2115
16169SOL    HW149608   6.413   1.945   8.699  0.4116 -0.0912 -0.0856
16169SOL    HW249609   6.504   1.825   8.685 -1.2604 -1.2919 -0.8934
16170SOL     OW49610   2.703   0.505   2.262 -0.1499  0.3204 -0.4404
16170SOL    HW149611   2.776   0.567   2.260 -1.7530  2.3107  0.0136
16170SOL    HW249612   2.679   0.494   2.171  0.2074  0.2644 -0.5312
16171SOL     OW49613   2.444   1.747   9.045  0.0499 -0.5750  0.0220
16171SOL    HW149614   2.438   1.830   9.091  0.8129 -1.0256  0.9724
16171SOL    HW249615   2.377   1.752   8.977  0.6374  1.1494 -0.4808
16172SOL     OW49616   6.481   0.297   0.091 -0.0305  0.1332 -0.0511
16172SOL    HW149617   6.416   0.286   0.021 -0.3009  0.4230  0.1535
16172SOL    HW249618   6.483   0.391   0.107 -1.4060 -0.0833  1.6709
16173SOL     OW49619   0.831   5.600   2.881  0.3223 -0.1033 -0.7415
16173SOL    HW149620   0.794   5.554   2.957  1.3888 -0.4965 -0.4516
16173SOL    HW249621   0.755   5.619   2.826 -0.3643 -0.5636  0.0208
16174SOL     OW49622   0.927   3.608   6.314  0.0068 -0.9255  0.0030
16174SOL    HW149623   1.016   3.619   6.348 -0.9682  2.8547  1.8846
16174SOL    HW249624   0.871   3.618   6.391 -2.1529  1.6409 -1.7236
16175SOL     OW49625   7.179   7.086   4.652 -0.6564  0.2003  0.0116
16175SOL    HW149626   7.269   7.066   4.679 -0.5539  0.8141  0.1409
16175SOL    HW249627   7.162   7.026   4.580 -0.4718 -0.5608  0.5821
16176SOL     OW49628   8.538   8.209   2.986  0.4127 -0.4837 -0.5164
16176SOL    HW149629   8.558   8.282   3.044 -3.1425  0.4763 -0.2696
16176SOL    HW249630   8.506   8.249   2.905 -0.2147 -1.7627 -0.9428
16177SOL     OW49631   4.869   4.124   6.829 -0.1302 -0.1311 -0.1740
16177SOL    HW149632   4.905   4.165   6.750  2.0773 -0.2970  0.6831
16177SOL    HW249633   4.905   4.176   6.901  0.9309 -2.1819  0.8574
16178SOL     OW49634   2.033   1.392   2.220 -0.3788  0.1035  0.7357
16178SOL    HW149635   2.125   1.407   2.243 -0.2768  1.6146 -0.5103
16178SOL    HW249636   2.010   1.313   2.268  1.0325  0.7025  2.5696
16179SOL     OW49637   6.278   6.069   8.138 -0.7856  0.1609  0.2235
16179SOL    HW149638   6.193   6.104   8.113 -0.2263 -1.0322 -4.0174
16179SOL    HW249639   6.262   5.977   8.158 -0.4421 -0.2278 -1.2250
16180SOL     OW49640   4.205   0.319   2.021 -0.1099 -0.3016 -0.0493
16180SOL    HW149641   4.277   0.267   2.056  0.7246  1.0492  0.3111
16180SOL    HW249642   4.192   0.389   2.085  0.6282  1.4948 -1.7364
16181SOL     OW49643   7.914   7.130   7.855 -0.4126 -1.0812 -0.0812
16181SOL    HW149644   7.874   7.175   7.930 -1.5347  1.5771 -2.0958
16181SOL    HW249645   8.007   7.150   7.861 -0.8382  1.3888 -0.7287
16182SOL     OW49646   2.381   5.477   7.733 -0.3558 -0.0333  0.0783
16182SOL    HW149647   2.333   5.473   7.650  0.0421  1.4890 -0.2617
16182SOL    HW249648   2.466   5.437   7.713 -1.8421 -4.0852  1.0598
16183SOL     OW49649   4.638   2.779   2.060  0.4362 -0.5677 -0.3139
16183SOL    HW149650   4.668   2.736   1.979 -1.5521  1.2078 -2.1176
16183SOL    HW249651   4.543   2.772   2.056  0.2367  0.8330  1.1585
16184SOL     OW49652   0.087   1.757   4.033 -0.0379  0.4775  0.0438
16184SOL    HW149653   0.033   1.834   4.013 -2.4460 -0.3623  2.6453
16184SOL    HW249654   0.027   1.683   4.024  1.3639 -0.7667  0.6461
16185SOL     OW49655   9.125   8.879   2.468  0.7448 -0.2027  0.1556
16185SOL    HW149656   9.153   8.969   2.451 -1.9170  0.4286 -1.4421
16185SOL    HW249657   9.029   8.882   2.467  0.5425 -3.1186 -0.3312
16186SOL     OW49658   3.099   0.591   6.765 -0.3631  0.6153  0.3623
16186SOL    HW149659   3.127   0.580   6.674 -1.1917 -2.4490  0.3586
16186SOL    HW249660   3.171   0.638   6.807  0.4125  1.3433 -1.6769
16187SOL     OW49661   0.639   1.889   0.715 -0.1486 -0.6183 -0.0626
16187SOL    HW149662   0.596   1.900   0.800  0.6933  0.3661  0.2635
16187SOL    HW249663   0.613   1.967   0.665 -0.1987 -0.9206 -0.5068
16188SOL     OW49664   5.623   3.017   5.593 -0.0631 -0.5914 -0.0057
16188SOL    HW149665   5.636   2.933   5.636  0.8400 -0.6883 -0.4550
16188SOL    HW249666   5.655   3.004   5.504  1.3008  0.5768  0.2794
16189SOL     OW49667   0.477   6.850   7.061 -0.5702  0.0042  0.0144
16189SOL    HW149668   0.406   6.797   7.097  0.3533 -1.3441 -0.0833
16189SOL    HW249669   0.508   6.801   6.985  1.4622 -0.2326  0.9279
16190SOL     OW49670   5.140   4.293   4.095  0.2637 -0.3812 -0.2244
16190SOL    HW149671   5.166   4.324   4.181 -0.1553 -1.2989  0.2513
16190SOL    HW249672   5.068   4.233   4.112 -1.9024  1.6732 -1.4219
16191SOL     OW49673   1.187   8.264   8.066  0.3710  0.4296  0.9151
16191SOL    HW149674   1.096   8.242   8.044  0.3617  0.8205  0.5595
16191SOL    HW249675   1.238   8.236   7.990  0.5047  0.5410  0.9627
16192SOL     OW49676   1.543   0.691   5.773  0.6005 -0.6173 -0.3398
16192SOL    HW149677   1.532   0.743   5.853 -2.5775  0.7800 -1.5106
16192SOL    HW249678   1.563   0.602   5.805 -0.6602 -0.1341  2.0223
16193SOL     OW49679   2.291   3.472   5.670  0.3671  0.3609  0.2966
16193SOL    HW149680   2.275   3.539   5.736 -0.2399 -0.0396  0.5597
16193SOL    HW249681   2.205   3.454   5.632  0.4113 -0.7239  0.6754
16194SOL     OW49682   3.119   0.059   7.737 -0.6072 -0.3369  0.7311
16194SOL    HW149683   3.122   0.124   7.807 -1.1947  0.8646 -0.3371
16194SOL    HW249684   3.027   0.034   7.731 -0.7295  0.3006 -0.2533
16195SOL     OW49685   4.976   8.131   2.733  0.4659 -0.4336  0.8402
16195SOL    HW149686   5.003   8.060   2.674  0.4029 -0.7738  1.2165
16195SOL    HW249687   5.045   8.134   2.800  1.5379  1.1860 -0.2536
16196SOL     OW49688   1.989   8.600   2.246 -0.2328  0.5586  0.3391
16196SOL    HW149689   2.033   8.536   2.303 -0.9769  0.3788  0.7301
16196SOL    HW249690   1.941   8.547   2.183 -0.2274  0.7431  0.1806
16197SOL     OW49691   1.167   7.843   9.105 -0.1014  0.2498 -0.1812
16197SOL    HW149692   1.180   7.923   9.156  0.4433  0.1541 -0.1649
16197SOL    HW249693   1.255   7.818   9.077 -0.2405 -0.4624 -0.0063
16198SOL     OW49694   1.419   4.811   7.875 -0.3929  0.4952  0.2920
16198SOL    HW149695   1.488   4.781   7.816 -0.0339  1.1309  0.3716
16198SOL    HW249696   1.459   4.884   7.922 -1.2626  1.1431  0.0475
16199SOL     OW49697   8.079   2.930   5.607 -0.3423 -0.1249 -0.2328
16199SOL    HW149698   8.012   2.963   5.548  0.0265  1.0095 -0.0484
16199SOL    HW249699   8.137   2.878   5.552 -0.5088  0.1734 -0.6960
16200SOL     OW49700   1.812   2.471   3.171 -0.5876  0.0662  0.1325
16200SOL    HW149701   1.883   2.418   3.207 -0.5310  0.7105  1.0116
16200SOL    HW249702   1.818   2.555   3.217 -0.7961  0.7838 -1.0929
16201SOL     OW49703   6.993   1.225   8.070 -0.3004  0.2873  0.7246
16201SOL    HW149704   6.910   1.235   8.024  0.4245  0.4802 -0.5915
16201SOL    HW249705   6.968   1.202   8.160 -1.7626  0.3354  0.3571
16202SOL     OW49706   3.111   3.485   3.402  0.5277  0.5580 -0.0308
16202SOL    HW149707   3.089   3.478   3.309 -1.0789 -0.5115  0.3786
16202SOL    HW249708   3.151   3.402   3.425 -1.0909 -0.0716  0.6787
16203SOL     OW49709   5.619   4.584   2.389  0.1659  0.6013  0.4841
16203SOL    HW149710   5.641   4.597   2.297 -1.5421 -0.9685 -0.1806
16203SOL    HW249711   5.544   4.642   2.404 -1.3992 -1.2291  0.0596
16204SOL     OW49712   4.423   6.257   6.498  0.4531 -0.2078  0.5517
16204SOL    HW149713   4.346   6.200   6.500  0.2901  0.0258  1.7703
16204SOL    HW249714   4.472   6.229   6.421 -1.2260  0.1628 -0.6924
16205SOL     OW49715   6.806   8.656   7.713  0.5226  0.2825  0.2440
16205SOL    HW149716   6.857   8.723   7.667  0.4173  0.5513  0.5156
16205SOL    HW249717   6.716   8.689   7.711  0.3211 -0.2738 -0.3884
16206SOL     OW49718   2.846   7.149   8.753  0.3786 -0.0048  0.1642
16206SOL    HW149719   2.812   7.132   8.666  1.6872  0.6272 -0.5028
16206SOL    HW249720   2.816   7.237   8.774 -0.9322 -0.5918  0.8806
16207SOL     OW49721   3.180   8.111   1.967  0.6747  0.2391  0.1532
16207SOL    HW149722   3.186   8.025   1.925  1.4579  0.0470  0.6415
16207SOL    HW249723   3.231   8.102   2.048  2.0303  1.5892 -0.5054
16208SOL     OW49724   6.484   9.096   8.338 -0.2000  0.2224  0.4764
16208SOL    HW149725   6.533   9.038   8.397 -1.9390  0.0039  1.7751
16208SOL    HW249726   6.442   9.037   8.276  0.8689  0.3868 -0.4303
16209SOL     OW49727   4.621   8.632   6.261 -0.0485 -0.1194 -0.1125
16209SOL    HW149728   4.629   8.593   6.174  1.4071  1.1760 -0.5971
16209SOL    HW249729   4.531   8.612   6.287 -0.3459 -1.0249 -1.6678
16210SOL     OW49730   8.835   4.944   0.821 -0.0997  0.0278 -0.2044
16210SOL    HW149731   8.772   4.922   0.753  1.6335 -0.0775 -1.8538
16210SOL    HW249732   8.829   5.039   0.830 -1.5864 -0.1225  0.8436
16211SOL     OW49733   7.757   1.888   4.498 -0.4130 -0.1130  0.1123
16211SOL    HW149734   7.728   1.972   4.463 -1.3507 -0.6412 -0.4230
16211SOL    HW249735   7.753   1.900   4.593  0.7611  0.8666  0.0621
16212SOL     OW49736   5.013   0.969   6.424 -0.5697  0.2127  0.4770
16212SOL    HW149737   5.059   0.913   6.487 -0.4874 -0.6943 -0.3559
16212SOL    HW249738   4.920   0.952   6.441 -0.5410 -0.6622 -0.1689
16213SOL     OW49739   4.255   0.933   3.857  0.9115  0.2296 -0.0387
16213SOL    HW149740   4.250   0.983   3.939  1.2583 -0.1934  0.2467
16213SOL    HW249741   4.165   0.931   3.824  0.8726  0.9090  0.0269
16214SOL     OW49742   7.101   4.010   2.524  0.2404  0.0782 -0.1043
16214SOL    HW149743   7.107   4.104   2.536  0.2345  0.1919 -0.9137
16214SOL    HW249744   7.091   3.974   2.612  0.4541  0.8156  0.2209
16215SOL     OW49745   8.051   0.779   5.184 -0.0874  0.7873  0.2556
16215SOL    HW149746   7.983   0.787   5.116  1.7304  5.1770 -1.4228
16215SOL    HW249747   8.003   0.779   5.266 -2.2013 -0.3490 -0.8857
16216SOL     OW49748   4.678   4.253   6.346 -0.1206  0.0417 -0.4580
16216SOL    HW149749   4.747   4.257   6.413 -1.4927  1.9681  0.9577
16216SOL    HW249750   4.690   4.168   6.304  1.6724 -0.6552  1.3158
16217SOL     OW49751   2.685   7.030   7.595 -0.0901 -0.0251  0.5078
16217SOL    HW149752   2.728   6.969   7.536 -0.6938 -0.4875  0.5378
16217SOL    HW249753   2.725   7.115   7.576 -0.9399  0.0263 -1.2628
16218SOL     OW49754   4.276   2.004   7.899 -0.0243 -0.5592  0.1342
16218SOL    HW149755   4.238   1.918   7.879  1.5296 -1.4397  0.7979
16218SOL    HW249756   4.204   2.053   7.939 -0.6628 -1.9352  0.7441
16219SOL     OW49757   7.737   0.370   3.279  0.1092 -0.0951  0.0849
16219SOL    HW149758   7.703   0.364   3.190 -1.0921  0.6598  0.4671
16219SOL    HW249759   7.831   0.355   3.271  0.7879  4.0967 -1.8675
16220SOL     OW49760   2.075   6.631   3.165 -0.2280 -0.2629  0.1043
16220SOL    HW149761   1.983   6.658   3.171 -0.5648 -0.8805 -1.6698
16220SOL    HW249762   2.124   6.712   3.177 -1.0863  0.4242 -0.8394
16221SOL     OW49763   0.446   5.150   4.463 -0.4434 -0.3063 -0.4950
16221SOL    HW149764   0.481   5.062   4.477 -2.3277 -0.9121  0.6536
16221SOL    HW249765   0.399   5.171   4.543  0.4446  2.0201 -0.5018
16222SOL     OW49766   1.913   0.310   5.090  0.1054 -0.3518 -0.0370
16222SOL    HW149767   1.875   0.386   5.046 -0.3518 -1.1879 -1.1522
16222SOL    HW249768   2.008   0.324   5.086 -0.0002  0.9782  1.3373
16223SOL     OW49769   4.851   3.419   3.361 -0.1188  0.1204 -0.2152
16223SOL    HW149770   4.784   3.363   3.321  0.7066 -1.9592  1.1372
16223SOL    HW249771   4.826   3.424   3.454  2.2971 -1.9750  0.6662
16224SOL     OW49772   1.033   1.390   8.989  0.1919 -0.1517  0.0397
16224SOL    HW149773   0.971   1.443   8.939  0.0187 -0.0335  0.3809
16224SOL    HW249774   1.063   1.324   8.926  0.6274  0.5194 -0.4712
16225SOL     OW49775   3.206   4.469   4.711  0.4656 -0.0331  0.5887
16225SOL    HW149776   3.121   4.500   4.743  0.9872  0.4101  1.5679
16225SOL    HW249777   3.190   4.447   4.619 -0.7515 -0.1305  0.8090
16226SOL     OW49778   2.903   8.383   7.198  0.3094 -0.2469 -0.1881
16226SOL    HW149779   2.836   8.411   7.260  0.2520 -1.9536  0.5954
16226SOL    HW249780   2.983   8.378   7.250  0.2124 -1.9333 -0.1318
16227SOL     OW49781   0.805   3.573   6.563  0.0063  0.2267  0.2133
16227SOL    HW149782   0.722   3.619   6.571 -0.2051 -0.2454  0.8202
16227SOL    HW249783   0.795   3.494   6.617  0.1639 -0.8206 -1.2129
16228SOL     OW49784   1.695   5.177   1.779 -0.4643  0.0078  0.4098
16228SOL    HW149785   1.603   5.202   1.788 -0.6796 -0.7064  0.3365
16228SOL    HW249786   1.693   5.102   1.718  0.6120  2.6633 -3.2256
16229SOL     OW49787   6.571   2.615   2.921  0.1408  0.3464  0.1156
16229SOL    HW149788   6.623   2.559   2.863 -0.4384  0.8369 -0.9138
16229SOL    HW249789   6.635   2.672   2.963  0.5589  0.1167 -0.2010
16230SOL     OW49790   4.166   1.119   7.583  0.0240 -0.6563 -0.1156
16230SOL    HW149791   4.130   1.170   7.656 -2.8648 -0.3204 -1.6525
16230SOL    HW249792   4.162   1.028   7.614 -1.0378 -0.5071  0.2334
16231SOL     OW49793   3.281   2.347   6.217 -0.2470  0.5506  0.1215
16231SOL    HW149794   3.315   2.258   6.225  1.3914  1.2102  1.0675
16231SOL    HW249795   3.334   2.398   6.278 -2.0395  1.9534  0.5783
16232SOL     OW49796   3.306   0.614   2.417 -0.2923 -0.3374 -0.1732
16232SOL    HW149797   3.350   0.632   2.334  2.5280  1.4654  1.5669
16232SOL    HW249798   3.364   0.553   2.463 -1.2332 -0.4254  0.9570
16233SOL     OW49799   1.220   1.954   1.463 -0.0808  0.1395 -0.5006
16233SOL    HW149800   1.143   2.010   1.464  0.7135  1.2622 -0.2516
16233SOL    HW249801   1.286   2.005   1.416  0.1295 -1.3365 -1.8696
16234SOL     OW49802   4.638   0.896   1.856  0.0960  0.2269 -0.0936
16234SOL    HW149803   4.578   0.915   1.784  0.9242  2.0664 -0.3676
16234SOL    HW249804   4.714   0.855   1.815 -0.9537 -2.2685  0.2752
16235SOL     OW49805   6.549   4.033   2.983 -0.2949 -0.9207  0.1425
16235SOL    HW149806   6.514   4.118   3.010  0.7299 -0.6120  0.5258
16235SOL    HW249807   6.565   4.042   2.889  1.9718  0.1080  0.5878
16236SOL     OW49808   3.165   0.853   8.072 -0.0401 -0.2466  0.6412
16236SOL    HW149809   3.120   0.794   8.132 -0.5918 -1.0188 -0.4898
16236SOL    HW249810   3.184   0.799   7.995  0.4026  0.7750  0.0088
16237SOL     OW49811   6.683   5.490   1.017 -0.2215  0.7922 -0.3604
16237SOL    HW149812   6.624   5.468   0.946 -0.0921  0.1659 -0.2794
16237SOL    HW249813   6.764   5.444   0.996 -0.5493 -0.3740  0.7858
16238SOL     OW49814   9.067   7.667   1.759 -0.5794 -0.0664  0.5725
16238SOL    HW149815   9.103   7.652   1.846 -3.0278  0.3302  1.7555
16238SOL    HW249816   9.014   7.590   1.741 -3.3464  1.5155  1.2992
16239SOL     OW49817   7.125   1.447   7.555  0.4482 -0.4067 -0.2917
16239SOL    HW149818   7.149   1.365   7.511 -0.0708 -0.3083 -0.7672
16239SOL    HW249819   7.093   1.419   7.641 -0.1300 -0.7410 -0.6112
16240SOL     OW49820   7.718   6.150   5.252  0.1622  0.2469  0.7421
16240SOL    HW149821   7.651   6.218   5.254 -1.8756 -1.5815 -0.5458
16240SOL    HW249822   7.690   6.086   5.317  0.3502 -0.7680 -0.1410
16241SOL     OW49823   0.563   6.052   8.466 -0.0653  0.3467  0.5369
16241SOL    HW149824   0.497   5.991   8.435 -0.3322  0.5707  0.6664
16241SOL    HW249825   0.520   6.103   8.534  0.5283 -0.1702  1.3260
16242SOL     OW49826   5.139   2.803   7.277  0.0983  0.3843  1.2382
16242SOL    HW149827   5.201   2.774   7.344  2.2161  0.2094 -0.6746
16242SOL    HW249828   5.157   2.897   7.266 -0.9691  0.6498  1.6119
16243SOL     OW49829   5.381   1.795   8.391  0.0786 -0.2361  0.2260
16243SOL    HW149830   5.288   1.781   8.406 -0.1054  0.0520 -0.6265
16243SOL    HW249831   5.421   1.782   8.477 -0.4065 -3.1098  0.1369
16244SOL     OW49832   4.002   8.700   3.453  0.5472 -0.6402  0.6590
16244SOL    HW149833   4.077   8.690   3.512 -0.0569  1.0117  1.7945
16244SOL    HW249834   4.001   8.793   3.432  0.0959 -1.0273 -1.1404
16245SOL     OW49835   2.027   1.947   7.647 -0.4502  0.2077 -0.0999
16245SOL    HW149836   2.060   2.037   7.646  0.2270 -0.0252 -1.6926
16245SOL    HW249837   2.032   1.921   7.739  1.1151  1.1642  0.1208
16246SOL     OW49838   2.922   1.672   6.638 -0.2942  0.1400  0.5453
16246SOL    HW149839   2.871   1.607   6.591  1.2359 -0.1704 -0.7783
16246SOL    HW249840   2.867   1.751   6.638 -0.1749  0.3050 -2.2829
16247SOL     OW49841   6.416   6.166   1.909 -0.2259  0.4133  0.3065
16247SOL    HW149842   6.417   6.087   1.855  0.2310  1.1076 -0.7554
16247SOL    HW249843   6.443   6.137   1.996 -1.6026 -0.8589  0.3423
16248SOL     OW49844   7.713   3.717   5.199  0.0701  0.3445 -0.1455
16248SOL    HW149845   7.648   3.647   5.195  0.4230  0.0312 -0.4418
16248SOL    HW249846   7.669   3.788   5.246 -0.8491  0.5306 -1.2393
16249SOL     OW49847   4.363   7.229   5.948  0.2838  0.0725  0.2438
16249SOL    HW149848   4.410   7.291   6.004 -0.3852  0.3132  0.5554
16249SOL    HW249849   4.271   7.248   5.964  0.0796 -0.0528 -0.7368
16250SOL     OW49850   1.543   8.490   7.988 -0.0129 -0.3374 -0.2582
16250SOL    HW149851   1.524   8.491   7.894  0.4038  2.4443 -0.4086
16250SOL    HW249852   1.458   8.479   8.030 -0.4351  0.1108 -0.9743
16251SOL     OW49853   7.522   8.783   4.355 -0.0306  0.6050  0.2884
16251SOL    HW149854   7.499   8.787   4.448 -0.7886  0.0456  0.1266
16251SOL    HW249855   7.565   8.866   4.338 -0.2947  0.9029  1.0333
16252SOL     OW49856   0.796   2.705   5.942  0.1287  0.6694  0.6644
16252SOL    HW149857   0.874   2.718   5.889  0.4676  0.8203  1.1921
16252SOL    HW249858   0.787   2.787   5.992 -0.1984  0.5439  0.8120
16253SOL     OW49859   2.519   8.725   7.709  0.2394  0.0967  0.0033
16253SOL    HW149860   2.566   8.689   7.785 -1.0188 -1.9921 -0.1000
16253SOL    HW249861   2.498   8.815   7.734  2.3660  0.4011  0.9012
16254SOL     OW49862   7.150   2.592   1.050 -0.0691  0.1496 -0.2040
16254SOL    HW149863   7.135   2.653   1.123  0.0573 -1.0826  0.8834
16254SOL    HW249864   7.172   2.649   0.976  1.1544  1.3832  1.0424
16255SOL     OW49865   4.679   9.045   6.289 -0.2492  0.0350 -0.0222
16255SOL    HW149866   4.771   9.045   6.263  0.0431 -0.2774  0.9830
16255SOL    HW249867   4.635   8.994   6.221  0.6014 -1.3159  0.3963
16256SOL     OW49868   1.774   5.748   7.547  0.0223  0.3862 -0.6601
16256SOL    HW149869   1.844   5.803   7.512  0.0349  0.3947 -0.6222
16256SOL    HW249870   1.749   5.791   7.629  0.1399  0.2481 -0.5507
16257SOL     OW49871   6.533   6.723   7.655  0.7925  0.6137  0.1078
16257SOL    HW149872   6.586   6.678   7.589 -1.8307  0.4790 -2.0624
16257SOL    HW249873   6.578   6.807   7.669  1.7360  0.3880 -1.3860
16258SOL     OW49874   2.965   6.745   5.404 -0.3727 -0.1253  0.2076
16258SOL    HW149875   2.957   6.689   5.327  1.0342  0.8727 -0.7190
16258SOL    HW249876   2.911   6.821   5.384 -0.6296 -0.2140  0.5552
16259SOL     OW49877   1.507   0.358   0.414 -0.3116 -0.0129  0.3472
16259SOL    HW149878   1.572   0.315   0.470 -0.4202 -1.1336 -0.3625
16259SOL    HW249879   1.492   0.296   0.343  0.4931  1.7455 -1.4492
16260SOL     OW49880   0.141   7.025   4.417  0.4769 -0.2073 -0.6433
16260SOL    HW149881   0.135   7.089   4.345  1.7222  0.1672 -0.4393
16260SOL    HW249882   0.235   7.017   4.433  0.1840  1.0322  2.1214
16261SOL     OW49883   9.048   3.186   5.111 -0.3724 -0.3718  0.3260
16261SOL    HW149884   9.041   3.098   5.075  0.3502 -0.0808 -0.5893
16261SOL    HW249885   8.988   3.238   5.058 -2.0741 -0.5977  1.9521
16262SOL     OW49886   3.273   0.552   6.543  0.4699 -0.4444  0.6948
16262SOL    HW149887   3.266   0.535   6.449 -1.4045  0.5930  0.5966
16262SOL    HW249888   3.360   0.519   6.567  0.8377 -1.0777 -1.3089
16263SOL     OW49889   3.579   6.529   7.357 -0.2098  0.6308 -0.0997
16263SOL    HW149890   3.548   6.617   7.338 -1.1073 -0.2325 -3.0169
16263SOL    HW249891   3.669   6.527   7.324 -0.7892 -0.0217 -1.7174
16264SOL     OW49892   4.908   7.655   6.025  0.1017  0.0058 -0.5436
16264SOL    HW149893   4.968   7.601   6.076 -0.5317  1.8344  2.3811
16264SOL    HW249894   4.937   7.745   6.042 -2.0691  0.8288 -0.8838
16265SOL     OW49895   6.778   8.409   6.414  0.4364 -0.3003  0.4692
16265SOL    HW149896   6.793   8.411   6.509  0.4041 -0.8865  0.4897
16265SOL    HW249897   6.710   8.343   6.402  0.2377 -0.0250  0.0620
16266SOL     OW49898   5.210   3.887   7.085 -0.0701  0.1588 -0.2458
16266SOL    HW149899   5.181   3.970   7.049  0.2576  0.0038 -0.8835
16266SOL    HW249900   5.191   3.893   7.179 -1.5959  0.2896 -0.5406
16267SOL     OW49901   0.070   6.575   5.913 -0.6256 -0.0609  0.5386
16267SOL    HW149902   0.159   6.602   5.936 -0.5489 -1.0306  1.4801
16267SOL    HW249903   0.081   6.496   5.860 -0.9284 -0.9865  1.8048
16268SOL     OW49904   2.520   8.706   6.517 -0.2270  0.1924  0.2100
16268SOL    HW149905   2.600   8.700   6.464  0.6741  1.1484  1.4178
16268SOL    HW249906   2.537   8.652   6.594 -1.5559 -1.2359 -0.4441
16269SOL     OW49907   1.094   5.110   3.852 -0.3205 -0.6524  0.2772
16269SOL    HW149908   1.099   5.200   3.820  0.2543 -0.1165  1.7880
16269SOL    HW249909   1.067   5.118   3.943 -1.1165 -2.0724  0.2022
16270SOL     OW49910   1.038   0.543   4.975  0.2652 -0.4819  1.0217
16270SOL    HW149911   1.003   0.455   4.974  0.6924 -0.6860 -1.0367
16270SOL    HW249912   0.999   0.586   4.898 -0.5665  1.4126  2.4054
16271SOL     OW49913   8.461   5.935   3.782 -0.1576 -0.2034  0.0882
16271SOL    HW149914   8.406   5.873   3.734 -2.9184  2.6975 -0.8517
16271SOL    HW249915   8.407   5.963   3.855  2.0030 -0.6399  1.9624
16272SOL     OW49916   3.594   2.944   7.750 -0.3769 -0.5037  0.0930
16272SOL    HW149917   3.518   2.947   7.692  0.2839  1.4586 -0.7697
16272SOL    HW249918   3.591   3.027   7.798  0.6851 -0.8381  0.7693
16273SOL     OW49919   2.638   1.983   8.778 -0.2243 -0.9694 -0.0646
16273SOL    HW149920   2.612   1.947   8.863 -1.5044  1.7124  0.7884
16273SOL    HW249921   2.600   1.924   8.714 -1.3329 -1.7127  1.2372
16274SOL     OW49922   5.375   6.151   1.376 -0.0502 -0.7340  0.0309
16274SOL    HW149923   5.317   6.119   1.307 -0.0494 -0.8544  0.0852
16274SOL    HW249924   5.462   6.118   1.351  0.3640  1.1309 -1.1290
16275SOL     OW49925   5.429   4.395   6.214 -0.2836  0.3892 -0.0422
16275SOL    HW149926   5.520   4.401   6.184 -0.0487  0.8397  0.7294
16275SOL    HW249927   5.416   4.473   6.267 -0.2636 -0.9444  2.0746
16276SOL     OW49928   5.937   8.331   8.044  0.6872  0.2278 -0.2756
16276SOL    HW149929   6.031   8.345   8.055  0.8172 -1.2711  0.8592
16276SOL    HW249930   5.896   8.403   8.092  1.2592  0.3961 -0.0347
16277SOL     OW49931   2.466   3.464   1.262 -0.3550  0.1240 -0.3824
16277SOL    HW149932   2.415   3.529   1.212 -1.0298  0.3789  0.6169
16277SOL    HW249933   2.524   3.425   1.197 -0.8944  0.7725 -1.2819
16278SOL     OW49934   8.906   6.646   4.386  0.4778  0.1909  0.5990
16278SOL    HW149935   8.876   6.560   4.417 -0.3579 -0.1767 -1.1490
16278SOL    HW249936   8.964   6.677   4.456 -1.0828 -0.7119  2.3792
16279SOL     OW49937   1.504   2.359   5.373 -0.1808  0.5681  0.6856
16279SOL    HW149938   1.551   2.320   5.299 -0.3785  1.9375 -0.1980
16279SOL    HW249939   1.464   2.284   5.417  1.9617 -0.5408  0.8943
16280SOL     OW49940   3.678   6.837   7.801  0.0081 -0.6486  0.3888
16280SOL    HW149941   3.617   6.821   7.729  1.6825 -1.5380 -0.9010
16280SOL    HW249942   3.759   6.863   7.758  0.5823  0.4737  2.0538
16281SOL     OW49943   0.680   3.094   3.043  0.4346  0.0169 -0.2150
16281SOL    HW149944   0.617   3.167   3.043 -0.2856 -0.5847  0.2959
16281SOL    HW249945   0.765   3.136   3.050 -0.0338  0.7703  1.2940
16282SOL     OW49946   5.489   5.877   6.579  0.4289  0.6936  0.4345
16282SOL    HW149947   5.430   5.822   6.527 -0.2668  1.3334  0.5407
16282SOL    HW249948   5.444   5.888   6.663  1.2838  0.1430  0.9946
16283SOL     OW49949   2.179   4.707   4.273 -0.3580  0.5018 -0.3493
16283SOL    HW149950   2.252   4.759   4.306  1.3816 -1.4935 -0.8768
16283SOL    HW249951   2.120   4.697   4.348  0.2141  1.6082  0.2604
16284SOL     OW49952   5.118   0.174   0.566 -0.0245  0.1900  0.9059
16284SOL    HW149953   5.155   0.218   0.643  1.6628  1.1845 -0.3875
16284SOL    HW249954   5.193   0.163   0.507 -1.3105 -0.2991 -0.7046
16285SOL     OW49955   8.785   6.472   4.662  0.0471 -0.1750 -0.4636
16285SOL    HW149956   8.858   6.417   4.632 -0.4048 -0.7912 -0.4625
16285SOL    HW249957   8.777   6.452   4.756 -0.2606 -0.2742 -0.5091
16286SOL     OW49958   2.495   4.727   6.018 -0.0412 -0.0592  0.6037
16286SOL    HW149959   2.452   4.771   6.092 -1.2830  1.9875 -1.1935
16286SOL    HW249960   2.588   4.747   6.030 -0.1763 -0.0171  1.7561
16287SOL     OW49961   1.651   4.469   3.402 -0.2404 -0.0552  0.5036
16287SOL    HW149962   1.640   4.418   3.482 -0.0528 -0.2122  0.4309
16287SOL    HW249963   1.568   4.515   3.391 -0.1034  0.3194  1.0357
16288SOL     OW49964   4.284   8.696   9.013 -0.3596  0.3117  0.2820
16288SOL    HW149965   4.238   8.665   8.934 -1.3226 -0.3484  1.0770
16288SOL    HW249966   4.350   8.756   8.980 -0.3869 -0.3694 -1.0870
16289SOL     OW49967   6.420   4.186   4.923  1.1087 -0.0863 -0.6898
16289SOL    HW149968   6.460   4.105   4.953 -0.9843 -0.9879 -0.1758
16289SOL    HW249969   6.373   4.163   4.843 -0.8480  0.1686  0.3132
16290SOL     OW49970   8.227   1.367   8.506  0.3950  0.1393 -0.5323
16290SOL    HW149971   8.299   1.316   8.470 -0.3046 -0.1907 -1.4831
16290SOL    HW249972   8.245   1.457   8.479 -0.2509 -0.1375 -1.9497
16291SOL     OW49973   1.582   5.845   4.295 -0.2378 -0.4265  0.1749
16291SOL    HW149974   1.551   5.920   4.347 -0.4001 -0.6360  0.3785
16291SOL    HW249975   1.598   5.776   4.360  3.4176  0.5230  0.5537
16292SOL     OW49976   7.187   2.544   3.764 -0.0653  0.3640  0.1939
16292SOL    HW149977   7.208   2.538   3.857  1.4922  1.9860  0.0114
16292SOL    HW249978   7.109   2.490   3.753 -0.9636  1.0156  2.6615
16293SOL     OW49979   8.075   2.779   8.843 -0.7470  0.0431 -0.1482
16293SOL    HW149980   8.094   2.821   8.759  1.1929 -0.9761 -0.2637
16293SOL    HW249981   8.140   2.814   8.903  0.1148 -1.8070  0.0542
16294SOL     OW49982   2.335   6.090   4.724 -0.1653  0.1207  0.2568
16294SOL    HW149983   2.384   6.164   4.758  1.6166 -0.8336 -0.1126
16294SOL    HW249984   2.385   6.061   4.647 -1.9788 -0.1543 -0.8864
16295SOL     OW49985   5.448   0.995   8.526  0.2424  0.2923  0.0150
16295SOL    HW149986   5.497   0.934   8.471 -1.5189  0.1440 -1.4892
16295SOL    HW249987   5.374   0.944   8.559 -1.4998  1.5887 -1.5977
16296SOL     OW49988   6.940   5.730   6.800 -0.0333 -0.2135 -0.4001
16296SOL    HW149989   6.953   5.824   6.810  1.5733 -0.4720  0.2344
16296SOL    HW249990   6.846   5.720   6.786 -0.3005  1.4402  0.0368
16297SOL     OW49991   5.514   6.448   0.338  0.1392  0.2228  0.8192
16297SOL    HW149992   5.455   6.481   0.271  2.1546 -0.1057 -1.2571
16297SOL    HW249993   5.557   6.526   0.373  0.1615  0.2920  0.6394
16298SOL     OW49994   6.505   4.132   2.041 -0.4915 -0.0809  0.3090
16298SOL    HW149995   6.554   4.156   2.120 -1.3535 -1.8303  1.4380
16298SOL    HW249996   6.413   4.147   2.064 -0.8390 -1.6955  0.0880
16299SOL     OW49997   7.686   4.514   6.325  0.2905  0.3905 -0.0439
16299SOL    HW149998   7.658   4.576   6.257 -0.9248  0.5970  0.6243
16299SOL    HW249999   7.772   4.484   6.295 -0.6105 -0.2567 -2.1914
16300SOL     OW50000   6.534   2.592   6.084 -0.4423  0.0156  0.1915
16300SOL    HW150001   6.466   2.644   6.039  0.1882 -0.8798 -1.9350
16300SOL    HW250002   6.592   2.657   6.123 -1.2950  0.8468  0.1094
16301SOL     OW50003   6.863   2.656   2.036 -0.2574 -0.1895 -0.5230
16301SOL    HW150004   6.883   2.746   2.012  0.7403 -0.0315  0.7520
16301SOL    HW250005   6.803   2.664   2.111  0.8304 -0.5221  0.4213
16302SOL     OW50006   3.180   7.303   2.810  0.7820 -0.2076  0.1375
16302SOL    HW150007   3.209   7.386   2.847 -0.6340  0.3375  0.1088
16302SOL    HW250008   3.086   7.301   2.828  0.3620 -0.7351 -1.8619
16303SOL     OW50009   1.813   5.020   0.813 -0.4999  0.2390 -0.4826
16303SOL    HW150010   1.774   5.077   0.880 -1.7469 -1.8591  0.6799
16303SOL    HW250011   1.907   5.038   0.819 -0.5345 -0.0150  2.0613
16304SOL     OW50012   7.663   6.380   6.574  0.1698  0.2670  0.1458
16304SOL    HW150013   7.577   6.346   6.547 -0.6596  3.4917 -1.9388
16304SOL    HW250014   7.712   6.387   6.493  0.7144  2.5689  0.5973
16305SOL     OW50015   1.933   5.170   3.591  0.5873  0.2699  0.3962
16305SOL    HW150016   1.841   5.174   3.618 -0.0001 -1.3655 -1.1465
16305SOL    HW250017   1.978   5.227   3.652 -1.2037 -0.1770  2.2561
16306SOL     OW50018   8.860   2.962   2.248 -0.3125 -0.2987 -0.5398
16306SOL    HW150019   8.865   3.031   2.314  2.5593 -2.0157  1.2467
16306SOL    HW250020   8.863   3.008   2.164 -2.0740  1.8402  0.4633
16307SOL     OW50021   1.598   4.843   3.099  0.4936 -0.6151 -0.1812
16307SOL    HW150022   1.552   4.920   3.134  0.4826  0.4804 -2.3979
16307SOL    HW250023   1.653   4.813   3.171 -1.2237  0.0574  1.4816
16308SOL     OW50024   3.612   5.079   7.053  0.2129  0.2385 -0.0782
16308SOL    HW150025   3.599   4.984   7.044 -0.1884  0.3252 -0.4282
16308SOL    HW250026   3.655   5.089   7.138  0.5741 -0.2866 -0.1941
16309SOL     OW50027   1.508   4.063   7.773 -0.0187  0.2131  0.2745
16309SOL    HW150028   1.561   3.992   7.810  1.7438  1.7892  0.8869
16309SOL    HW250029   1.571   4.128   7.743 -1.5720  2.0896  0.8544
16310SOL     OW50030   5.597   2.681   9.072  0.2983 -0.3427 -0.0138
16310SOL    HW150031   5.619   2.607   9.129 -1.1647 -0.8429 -0.0718
16310SOL    HW250032   5.673   2.689   9.014  0.3734 -1.9930 -0.2013
16311SOL     OW50033   5.400   3.784   4.444  0.4667 -0.2914 -0.2044
16311SOL    HW150034   5.367   3.701   4.479  1.0713 -1.0259 -1.3109
16311SOL    HW250035   5.417   3.838   4.521 -0.4205 -1.0009  0.5103
16312SOL     OW50036   1.610   4.663   5.019 -0.2100 -0.0873  0.3879
16312SOL    HW150037   1.583   4.573   5.000  0.8763 -0.4436  0.4836
16312SOL    HW250038   1.565   4.685   5.101  0.6369 -1.0567  1.1278
16313SOL     OW50039   7.061   4.732   4.934  0.0388  0.3020  0.5805
16313SOL    HW150040   7.074   4.645   4.972 -1.8128 -0.2126  0.1726
16313SOL    HW250041   7.031   4.715   4.844 -1.0026  1.3126  0.7016
16314SOL     OW50042   3.898   1.269   8.249  0.6642  0.0546  0.2504
16314SOL    HW150043   3.836   1.331   8.286  0.4936  2.7021 -3.8141
16314SOL    HW250044   3.844   1.204   8.204  0.8398 -0.0663  0.2101
16315SOL     OW50045   2.476   3.820   7.102  0.0737 -0.8051  0.1570
16315SOL    HW150046   2.498   3.846   7.192  0.6104  0.2982 -0.2830
16315SOL    HW250047   2.554   3.843   7.051 -0.0339 -1.8683 -0.5285
16316SOL     OW50048   2.010   8.538   5.110  0.1933  0.3185 -0.0167
16316SOL    HW150049   1.920   8.550   5.081  0.0875  1.8268  0.8446
16316SOL    HW250050   2.007   8.553   5.205  1.5105  1.4451 -0.1229
16317SOL     OW50051   8.311   2.461   8.555 -0.1641 -0.2353 -0.2503
16317SOL    HW150052   8.232   2.505   8.524  0.7679  2.5588  0.9615
16317SOL    HW250053   8.353   2.428   8.476 -1.2647  0.5670 -1.1994
16318SOL     OW50054   2.768   2.048   5.541 -0.0284 -0.4771  0.1466
16318SOL    HW150055   2.757   2.107   5.466  3.9985 -0.7865 -0.9168
16318SOL    HW250056   2.764   1.960   5.502  2.1122 -0.6387  0.1453
16319SOL     OW50057   4.907   8.345   2.238 -0.1939 -0.3810 -0.3706
16319SOL    HW150058   4.924   8.334   2.332  1.8996 -1.8102 -0.8367
16319SOL    HW250059   4.900   8.255   2.205  1.3332  0.0039 -1.8804
16320SOL     OW50060   3.004   2.739   0.511 -0.1351 -0.1885  0.0556
16320SOL    HW150061   3.047   2.655   0.498 -0.6349 -0.8601  2.3051
16320SOL    HW250062   2.938   2.743   0.442  1.0374 -0.8113 -1.1570
16321SOL     OW50063   8.915   4.047   0.078  0.1184 -0.0374 -0.1871
16321SOL    HW150064   8.942   4.112   0.144  1.9550 -0.9192 -0.0261
16321SOL    HW250065   8.851   3.993   0.124  0.5313  0.0590  0.5275
16322SOL     OW50066   2.671   0.179   3.056 -0.1904 -0.2361 -0.0715
16322SOL    HW150067   2.582   0.206   3.081 -0.2895 -0.6394  0.0280
16322SOL    HW250068   2.713   0.259   3.025 -0.3811  0.0823  0.4853
16323SOL     OW50069   2.500   2.261   6.996  0.6158 -0.1560  0.4554
16323SOL    HW150070   2.448   2.245   7.074  1.2684 -1.4911  0.6474
16323SOL    HW250071   2.469   2.345   6.963 -2.0875 -1.1711  0.2045
16324SOL     OW50072   7.549   1.364   6.480  0.2492  0.9410 -0.2400
16324SOL    HW150073   7.499   1.283   6.466 -1.3142  1.7994  0.1066
16324SOL    HW250074   7.483   1.428   6.506  1.7081  1.8605  1.4052
16325SOL     OW50075   5.874   6.528   2.352  0.0867  0.0897 -0.1830
16325SOL    HW150076   5.875   6.492   2.440  1.5023 -0.9714 -0.5836
16325SOL    HW250077   5.910   6.458   2.297  0.1322  1.0621 -1.4556
16326SOL     OW50078   6.925   1.991   2.447  0.2345  0.1981 -0.4189
16326SOL    HW150079   6.890   2.048   2.516  0.4154 -1.3865  1.0410
16326SOL    HW250080   6.921   2.045   2.368 -3.6003  0.8387 -0.0043
16327SOL     OW50081   0.795   7.473   4.882  0.7811  0.5038 -0.0832
16327SOL    HW150082   0.700   7.486   4.873  0.9079  0.4312 -2.0965
16327SOL    HW250083   0.805   7.382   4.907  0.2911  0.8685  1.5139
16328SOL     OW50084   3.508   1.420   7.857 -0.6306  0.3910 -0.6729
16328SOL    HW150085   3.575   1.366   7.898 -0.7102  0.6049 -0.2602
16328SOL    HW250086   3.433   1.362   7.846 -0.4515  0.2089 -0.9425
16329SOL     OW50087   6.297   7.885   4.186  0.1363  0.2642  0.1594
16329SOL    HW150088   6.287   7.980   4.180  0.7670  0.2265 -2.5015
16329SOL    HW250089   6.382   7.872   4.229 -0.4266  0.8293  1.5198
16330SOL     OW50090   8.197   0.458   1.048  0.0325 -0.1048  0.1366
16330SOL    HW150091   8.123   0.448   0.988 -0.8322  0.0310  1.1634
16330SOL    HW250092   8.205   0.373   1.091  0.8230 -0.2844 -0.3526
16331SOL     OW50093   2.984   3.331   1.407  0.1050  0.4121  0.1904
16331SOL    HW150094   2.996   3.292   1.321 -0.4972 -0.1668  0.3595
16331SOL    HW250095   2.904   3.384   1.399  1.5344  2.5922 -0.3640
16332SOL     OW50096   1.487   6.779   1.487 -0.2306 -0.6411 -0.2303
16332SOL    HW150097   1.408   6.798   1.436 -1.2740 -0.5082  1.3715
16332SOL    HW250098   1.551   6.752   1.421 -1.2270  0.3947 -1.7009
16333SOL     OW50099   7.894   2.999   4.139 -0.5042  0.1171 -0.3103
16333SOL    HW150100   7.866   3.071   4.196 -0.5883  0.6529 -1.0094
16333SOL    HW250101   7.989   2.996   4.150 -0.4073  0.8334 -0.8219
16334SOL     OW50102   2.042   7.305   7.687 -0.1080  0.4637 -0.0553
16334SOL    HW150103   2.050   7.378   7.749  0.2510  0.4335 -0.0684
16334SOL    HW250104   2.085   7.336   7.607 -2.9417  1.6001 -1.2772
16335SOL     OW50105   4.193   5.593   7.081  0.2413 -0.3478  0.0111
16335SOL    HW150106   4.250   5.662   7.047 -0.1028  0.2736  0.6610
16335SOL    HW250107   4.104   5.626   7.066  0.0739  0.0686  1.6980
16336SOL     OW50108   7.937   7.339   4.918 -0.2209 -0.5366  0.0477
16336SOL    HW150109   7.996   7.268   4.943 -0.2005 -0.9198 -1.0544
16336SOL    HW250110   7.910   7.318   4.828  0.1303  1.0536 -0.4622
16337SOL     OW50111   0.694   7.031   4.393 -0.8229  0.2147  0.0941
16337SOL    HW150112   0.650   6.945   4.398 -3.1653  1.3768  1.0735
16337SOL    HW250113   0.701   7.060   4.483  2.4463 -0.0078  0.0289
16338SOL     OW50114   0.748   3.898   1.385  0.1851  0.5511 -0.0307
16338SOL    HW150115   0.768   3.980   1.430 -0.5552  0.7829 -0.1143
16338SOL    HW250116   0.742   3.921   1.293 -0.4847  0.5018 -0.0083
16339SOL     OW50117   7.876   6.693   0.441 -0.5142  0.1646 -0.8640
16339SOL    HW150118   7.964   6.731   0.435  0.2680 -1.4597 -0.1744
16339SOL    HW250119   7.852   6.675   0.350  1.0748 -1.9433 -0.9409
16340SOL     OW50120   4.834   4.457   2.024  0.3755  0.8687 -0.2769
16340SOL    HW150121   4.926   4.474   2.047  0.2223  1.2540  0.0624
16340SOL    HW250122   4.786   4.530   2.064 -0.2782 -0.2188  0.9968
16341SOL     OW50123   7.995   5.381   1.369 -0.3440  0.7871 -0.2239
16341SOL    HW150124   8.086   5.399   1.392 -0.2711  0.1786 -0.0231
16341SOL    HW250125   7.998   5.297   1.323 -0.9373  0.2042  0.7696
16342SOL     OW50126   8.366   1.587   8.646  0.1341  0.3031 -1.0423
16342SOL    HW150127   8.309   1.538   8.706 -1.0093 -0.6430 -2.8064
16342SOL    HW250128   8.347   1.679   8.665  1.3545  0.1351  1.4408
16343SOL     OW50129   1.437   1.996   3.685  0.3147  0.3980 -0.0825
16343SOL    HW150130   1.353   2.040   3.675  0.6361  0.9182 -0.5869
16343SOL    HW250131   1.485   2.019   3.605  0.4209 -1.0292 -0.4437
16344SOL     OW50132   5.579   4.485   1.791 -0.4154  0.0477  0.2169
16344SOL    HW150133   5.550   4.415   1.731 -0.1274 -0.5627  0.7829
16344SOL    HW250134   5.598   4.559   1.733  0.6875 -0.8028 -0.5496
16345SOL     OW50135   6.386   7.580   1.252  0.2921  0.2429 -0.0550
16345SOL    HW150136   6.319   7.548   1.192 -1.2958 -1.6322  2.4606
16345SOL    HW250137   6.359   7.669   1.273 -1.8099 -0.6152  1.2388
16346SOL     OW50138   1.063   4.953   6.317 -0.8320 -0.3372  0.0383
16346SOL    HW150139   1.011   4.880   6.349 -0.6645  0.6459  2.8194
16346SOL    HW250140   1.142   4.952   6.372 -0.6983  1.7278 -0.0308
16347SOL     OW50141   3.863   6.652   7.561 -0.0900 -0.2779  0.0122
16347SOL    HW150142   3.817   6.599   7.626 -1.1918 -0.2598 -0.7117
16347SOL    HW250143   3.864   6.598   7.482 -0.6647  0.5036 -0.5482
16348SOL     OW50144   7.057   6.915   2.799 -0.2678 -0.0847  0.0530
16348SOL    HW150145   7.090   6.980   2.738 -0.7499 -0.3943 -0.5489
16348SOL    HW250146   7.001   6.858   2.746  0.5526 -1.2987  0.4436
16349SOL     OW50147   5.390   4.818   6.575  0.2470  0.1930 -0.3096
16349SOL    HW150148   5.341   4.890   6.535  2.5762  1.8177 -0.4672
16349SOL    HW250149   5.370   4.824   6.668  0.1601  0.8381 -0.3677
16350SOL     OW50150   0.489   7.171   8.645  0.2825  0.2858 -0.6360
16350SOL    HW150151   0.463   7.263   8.642 -0.0225  0.1903 -1.0668
16350SOL    HW250152   0.420   7.128   8.695  0.0642  0.1829 -1.0154
16351SOL     OW50153   8.021   4.227   1.111 -0.6676 -0.2570  0.6956
16351SOL    HW150154   8.099   4.263   1.154 -0.3475 -1.7234  1.3820
16351SOL    HW250155   8.040   4.134   1.100 -2.2386 -0.6013  0.6884
16352SOL     OW50156   3.572   8.741   3.723  0.9343  0.0337 -0.0186
16352SOL    HW150157   3.607   8.793   3.651  1.9568 -0.8069 -0.1563
16352SOL    HW250158   3.551   8.657   3.684  3.3154 -1.1187  0.9604
16353SOL     OW50159   7.090   4.179   7.290  0.0860 -0.1892 -0.0757
16353SOL    HW150160   6.997   4.195   7.277  0.0315 -1.2902 -1.2204
16353SOL    HW250161   7.111   4.107   7.230  1.7558  0.3103 -0.1561
16354SOL     OW50162   6.220   1.502   2.683 -0.5883 -0.0577  0.3522
16354SOL    HW150163   6.144   1.540   2.727 -0.9481  0.3938 -0.6529
16354SOL    HW250164   6.201   1.408   2.680 -0.7974 -0.0295  0.6787
16355SOL     OW50165   1.579   1.684   7.882 -0.3476 -0.0231 -0.1950
16355SOL    HW150166   1.671   1.660   7.869 -0.0645  1.1672 -0.4843
16355SOL    HW250167   1.582   1.771   7.922 -1.3399  0.3628 -0.9039
16356SOL     OW50168   4.042   4.413   1.502 -0.0190  0.1869 -0.1079
16356SOL    HW150169   4.000   4.354   1.440 -1.8386  0.7992  0.4904
16356SOL    HW250170   4.046   4.362   1.583  3.1100 -0.9235 -0.8161
16357SOL     OW50171   1.995   3.352   3.404 -0.1072  0.3964 -0.3960
16357SOL    HW150172   1.911   3.346   3.450  0.6071 -0.9007  0.8505
16357SOL    HW250173   1.990   3.433   3.355 -3.0878 -0.8286 -2.4284
16358SOL     OW50174   2.403   2.183   2.032  0.4299 -0.3958 -0.0205
16358SOL    HW150175   2.389   2.184   2.126  0.5179 -0.6824 -0.0007
16358SOL    HW250176   2.329   2.231   1.995 -0.1765 -1.1843  0.1335
16359SOL     OW50177   1.178   1.230   5.601 -0.7761 -0.1118 -0.4782
16359SOL    HW150178   1.126   1.241   5.680  1.5401  0.1713  1.1015
16359SOL    HW250179   1.115   1.201   5.534 -2.7191 -0.8772  1.5681
16360SOL     OW50180   1.664   0.710   0.848 -0.4051 -0.8632  0.0732
16360SOL    HW150181   1.655   0.723   0.942 -0.3272 -1.0103  0.1008
16360SOL    HW250182   1.751   0.672   0.837 -0.2925 -0.5608 -0.0859
16361SOL     OW50183   4.509   6.190   0.200 -0.2792  0.0261  0.2379
16361SOL    HW150184   4.581   6.129   0.187  0.1209  0.2342  1.3597
16361SOL    HW250185   4.478   6.211   0.111  1.1564  0.0873 -0.2696
16362SOL     OW50186   3.190   8.514   8.331  0.7315  0.1600 -0.2023
16362SOL    HW150187   3.113   8.459   8.344  0.7403  0.3109  0.5538
16362SOL    HW250188   3.177   8.555   8.245  0.5163 -0.6747 -0.5766
16363SOL     OW50189   7.264   5.464   2.155 -0.3472 -0.7747 -0.1409
16363SOL    HW150190   7.347   5.453   2.202 -0.9743  2.1158  1.9355
16363SOL    HW250191   7.197   5.463   2.224 -1.4951  2.0854 -1.0815
16364SOL     OW50192   0.900   8.481   0.616  0.2059 -0.4436  0.2627
16364SOL    HW150193   0.957   8.553   0.586 -0.9788  0.7283  0.7552
16364SOL    HW250194   0.960   8.422   0.662  1.3665 -0.2714 -0.9288
16365SOL     OW50195   5.565   2.960   4.361  0.1803 -0.6579  0.3315
16365SOL    HW150196   5.654   2.992   4.348  0.1471 -1.2513 -1.6850
16365SOL    HW250197   5.574   2.865   4.368 -0.2434 -0.6777  0.6787
16366SOL     OW50198   7.477   4.975   9.083  0.4847  0.1414 -0.5469
16366SOL    HW150199   7.450   5.047   9.139 -1.0355  0.2037 -1.3190
16366SOL    HW250200   7.541   5.015   9.023  1.6587  0.2044  0.6902
16367SOL     OW50201   1.025   7.381   0.053  0.1887 -0.0860  0.2060
16367SOL    HW150202   1.036   7.458   0.109 -0.9982  0.3920 -0.1825
16367SOL    HW250203   1.012   7.309   0.114  0.0302  0.2403  0.5660
16368SOL     OW50204   5.605   8.247   7.040  0.4127 -0.2152 -0.2364
16368SOL    HW150205   5.525   8.296   7.057  0.4317 -0.4989  0.7082
16368SOL    HW250206   5.674   8.299   7.082  0.7064 -0.0697 -0.8828
16369SOL     OW50207   1.063   7.192   6.924 -0.1133 -0.0831  0.1246
16369SOL    HW150208   0.987   7.133   6.921  1.8646 -2.9687  1.8329
16369SOL    HW250209   1.117   7.165   6.849  0.7984 -0.4542  0.8998
16370SOL     OW50210   8.224   8.084   3.844  0.2982  0.0657  0.2695
16370SOL    HW150211   8.259   8.086   3.755 -0.9499 -1.0395 -0.2813
16370SOL    HW250212   8.207   7.992   3.861 -1.0945  0.4353  0.9966
16371SOL     OW50213   3.197   1.350   7.895 -0.0334 -0.3115  0.7355
16371SOL    HW150214   3.164   1.281   7.953 -0.8473 -1.3339 -0.8663
16371SOL    HW250215   3.178   1.432   7.942 -1.6552 -1.0481  1.4351
16372SOL     OW50216   8.311   2.484   6.990 -0.1645  0.2856  0.0039
16372SOL    HW150217   8.293   2.400   7.033 -0.6971 -0.0088 -0.7793
16372SOL    HW250218   8.387   2.519   7.037  0.6565 -1.0623 -0.2516
16373SOL     OW50219   7.379   8.490   1.727 -0.3360  0.2336  0.2999
16373SOL    HW150220   7.290   8.454   1.731  0.1752 -1.3001 -1.0337
16373SOL    HW250221   7.367   8.577   1.690 -1.2916  0.0089  0.0368
16374SOL     OW50222   1.896   3.477   7.016  0.2986 -0.4543  0.0930
16374SOL    HW150223   1.848   3.424   6.953  1.4897 -1.2609 -0.1635
16374SOL    HW250224   1.858   3.454   7.101 -1.4585  0.8010 -0.3041
16375SOL     OW50225   0.103   2.254   1.919  0.1204  0.4477  0.5292
16375SOL    HW150226   0.060   2.210   1.992 -2.0043  0.8759 -0.3893
16375SOL    HW250227   0.043   2.243   1.845  1.1406  1.9261 -0.5905
16376SOL     OW50228   6.914   2.440   2.721 -0.4002  0.5271  0.1944
16376SOL    HW150229   6.844   2.479   2.668 -1.1664 -2.0745 -0.8702
16376SOL    HW250230   6.883   2.450   2.811 -1.4383  0.7469 -0.1666
16377SOL     OW50231   0.423   3.999   6.969 -0.2946 -0.6048  0.3158
16377SOL    HW150232   0.340   4.048   6.964  1.1984  2.1055 -0.1263
16377SOL    HW250233   0.441   3.973   6.878  1.1267  2.2645 -0.3483
16378SOL     OW50234   6.371   2.915   6.661  1.0398 -0.3501 -0.1311
16378SOL    HW150235   6.326   2.995   6.688  1.8816 -0.5026  1.9446
16378SOL    HW250236   6.351   2.853   6.731  3.2971 -0.8319  0.1422
16379SOL     OW50237   5.141   7.938   0.553  0.2234  0.5194 -0.0203
16379SOL    HW150238   5.051   7.943   0.522  0.1438  0.7488  0.2483
16379SOL    HW250239   5.189   7.999   0.498  0.0377  1.1074  0.4599
16380SOL     OW50240   7.572   2.633   4.920 -0.3868  0.2222 -0.2055
16380SOL    HW150241   7.567   2.637   4.825 -0.0209 -1.9356 -0.3760
16380SOL    HW250242   7.665   2.620   4.939 -0.6451 -1.1924  0.2853
16381SOL     OW50243   4.835   1.064   4.831  0.0870  0.2515  0.0383
16381SOL    HW150244   4.770   1.125   4.795  0.6790  0.5876 -0.4813
16381SOL    HW250245   4.891   1.043   4.757  0.7057  0.1394  0.5291
16382SOL     OW50246   3.145   6.818   8.863  0.6945  0.0722  0.2256
16382SOL    HW150247   3.141   6.905   8.822  0.7465  0.3577  0.8078
16382SOL    HW250248   3.120   6.834   8.954 -1.3892 -0.8403 -0.1207
16383SOL     OW50249   7.547   4.348   1.013 -0.4843  0.3643 -0.2267
16383SOL    HW150250   7.572   4.428   1.058 -0.1396 -0.0691  0.3689
16383SOL    HW250251   7.622   4.290   1.023 -1.1411 -0.4295  0.3034
16384SOL     OW50252   1.964   2.202   2.178 -0.2648 -0.8063 -0.6083
16384SOL    HW150253   2.006   2.125   2.217  1.1623 -0.1310 -0.7584
16384SOL    HW250254   1.872   2.195   2.204  0.3497 -1.1388  1.6371
16385SOL     OW50255   5.119   5.772   1.225  0.0231  0.3717 -0.3251
16385SOL    HW150256   5.102   5.824   1.304 -0.2329 -1.1132  0.6404
16385SOL    HW250257   5.045   5.711   1.220  0.0674  0.3973 -1.6978
16386SOL     OW50258   2.321   4.626   8.793  0.3745 -0.2005  0.0043
16386SOL    HW150259   2.399   4.636   8.738 -0.3866 -0.7150 -1.2160
16386SOL    HW250260   2.307   4.532   8.799 -1.5251 -0.1191 -1.8819
16387SOL     OW50261   1.723   5.870   3.472  0.3089 -0.4948 -0.2291
16387SOL    HW150262   1.769   5.830   3.546  1.8269  1.1479 -0.2180
16387SOL    HW250263   1.791   5.915   3.423 -0.0152 -4.0785 -4.5253
16388SOL     OW50264   1.541   4.403   5.978 -0.1714 -0.7807 -0.2797
16388SOL    HW150265   1.605   4.354   6.029 -0.3281 -0.3970  0.2911
16388SOL    HW250266   1.586   4.423   5.896  0.2824 -0.8992 -0.0626
16389SOL     OW50267   3.505   2.558   2.477  0.0090 -0.2324  0.0757
16389SOL    HW150268   3.487   2.645   2.513 -2.0057  1.3842 -4.1084
16389SOL    HW250269   3.433   2.504   2.509 -2.0850  1.2938 -1.7304
16390SOL     OW50270   0.006   7.680   4.415 -0.1527 -0.6774  0.6427
16390SOL    HW150271  -0.056   7.731   4.468  0.3592  0.5912  0.0725
16390SOL    HW250272  -0.048   7.639   4.348 -0.3128  1.3396 -0.5585
16391SOL     OW50273   1.181   7.899   7.957  0.1298 -0.1260  0.1282
16391SOL    HW150274   1.265   7.868   7.993  0.3592 -0.7821 -0.9050
16391SOL    HW250275   1.115   7.849   8.003  0.4198 -0.9673 -0.3421
16392SOL     OW50276   7.746   1.044   1.708 -0.1228  0.0341  0.3466
16392SOL    HW150277   7.665   1.077   1.668  0.5138 -0.9714 -1.9329
16392SOL    HW250278   7.814   1.069   1.646  0.7670 -2.7422  0.0879
16393SOL     OW50279   4.402   5.245   8.072  0.5134  0.5087 -0.2384
16393SOL    HW150280   4.491   5.227   8.101  0.2280 -0.8385 -0.1474
16393SOL    HW250281   4.369   5.160   8.042 -0.6687  1.0326 -0.4637
16394SOL     OW50282   1.303   7.766   3.968  0.4581  0.2071 -0.0170
16394SOL    HW150283   1.360   7.824   3.918 -0.5163  1.2094 -0.0040
16394SOL    HW250284   1.301   7.684   3.918  0.8424  0.6092 -0.6988
16395SOL     OW50285   0.767   3.525   5.465 -0.0115 -0.3240  0.2691
16395SOL    HW150286   0.733   3.442   5.429 -0.9802 -0.9267  2.4152
16395SOL    HW250287   0.789   3.577   5.388  0.9422 -2.6834 -1.1764
16396SOL     OW50288   4.902   3.198   0.975 -0.3662 -0.1620  0.1891
16396SOL    HW150289   4.821   3.166   1.014  0.0557 -1.0956  0.3249
16396SOL    HW250290   4.913   3.147   0.895 -0.6585  0.9823 -0.6130
16397SOL     OW50291   5.741   7.873   9.107 -0.0003 -0.0568  0.4743
16397SOL    HW150292   5.766   7.796   9.159 -0.2571  0.7928  1.9309
16397SOL    HW250293   5.775   7.856   9.020  0.3402 -1.6175  0.8891
16398SOL     OW50294   3.539   4.470   4.470  0.2567 -0.4836 -0.1157
16398SOL    HW150295   3.560   4.542   4.529  1.8755 -0.0822 -1.1201
16398SOL    HW250296   3.511   4.512   4.389  0.2850 -0.9965 -0.3984
16399SOL     OW50297   4.335   2.605   7.482 -0.6728 -0.2673  0.4127
16399SOL    HW150298   4.367   2.516   7.472  2.2501  0.8917 -2.2498
16399SOL    HW250299   4.397   2.646   7.543 -1.8976  0.0537  1.4971
16400SOL     OW50300   2.695   3.023   8.796  0.1019  0.2421 -0.0187
16400SOL    HW150301   2.783   3.022   8.835 -0.0600  1.0784  0.3769
16400SOL    HW250302   2.706   2.975   8.713  0.9769  0.5252 -0.0799
16401SOL     OW50303   1.840   3.832   8.211  0.3071  0.3088  0.3184
16401SOL    HW150304   1.831   3.927   8.213  0.3304  0.3107  1.4753
16401SOL    HW250305   1.921   3.814   8.260  2.0066 -0.1761 -2.4807
16402SOL     OW50306   1.063   6.789   5.118  0.0322 -0.8247 -0.1612
16402SOL    HW150307   1.126   6.854   5.150  0.0117  0.4902 -2.5723
16402SOL    HW250308   0.980   6.816   5.158  0.1026  0.4313 -0.8106
16403SOL     OW50309   4.677   1.260   1.841  0.0893  0.5449 -0.5201
16403SOL    HW150310   4.617   1.188   1.862 -1.3817  1.7276 -0.4999
16403SOL    HW250311   4.645   1.334   1.893  3.2035  0.5785  1.5978
16404SOL     OW50312   4.430   5.006   3.740  0.1223 -0.3326 -0.4323
16404SOL    HW150313   4.404   4.933   3.797 -0.9918  0.0862 -0.3900
16404SOL    HW250314   4.521   4.986   3.716  0.4867 -0.7184  1.1606
16405SOL     OW50315   8.185   2.315   0.520  0.5552  0.1154 -0.2471
16405SOL    HW150316   8.222   2.403   0.519  1.1265 -0.0688  1.2634
16405SOL    HW250317   8.238   2.268   0.584 -1.3938 -0.5610  0.9839
16406SOL     OW50318   2.512   7.187   0.900 -0.4745 -0.1679  0.1283
16406SOL    HW150319   2.583   7.250   0.892  0.9602 -1.7203  0.1304
16406SOL    HW250320   2.516   7.159   0.992 -1.5897  0.2724  0.3251
16407SOL     OW50321   8.076   0.320   0.686  0.3280  0.0826  0.2721
16407SOL    HW150322   8.167   0.342   0.703 -0.1102  3.0689 -0.5797
16407SOL    HW250323   8.028   0.402   0.704 -1.6514 -0.1504 -3.0954
16408SOL     OW50324   5.158   9.109   0.250 -0.3597  0.2508 -0.5083
16408SOL    HW150325   5.223   9.077   0.188 -0.6086 -0.5255 -0.3802
16408SOL    HW250326   5.100   9.034   0.265 -0.7470  0.6567  0.0791
16409SOL     OW50327   1.136   6.030   0.828  0.4719  0.0558 -0.5461
16409SOL    HW150328   1.130   6.049   0.734  0.4463 -1.2520 -0.8305
16409SOL    HW250329   1.068   6.084   0.868  1.0366  1.2652 -1.1623
16410SOL     OW50330   4.826   0.921   0.771  0.4729 -0.0657 -0.5943
16410SOL    HW150331   4.859   0.831   0.773 -0.5607 -0.4638  1.4814
16410SOL    HW250332   4.788   0.931   0.684  0.7981 -1.5699 -0.9365
16411SOL     OW50333   2.538   7.688   0.271 -0.2480  0.1890  0.7230
16411SOL    HW150334   2.470   7.735   0.320 -2.0101 -1.7110  0.2546
16411SOL    HW250335   2.605   7.754   0.253 -1.1785  1.7654  2.6272
16412SOL     OW50336   1.735   7.029   4.349  0.3262 -0.1443 -0.0097
16412SOL    HW150337   1.817   6.986   4.325 -0.0838 -1.3931  0.7368
16412SOL    HW250338   1.755   7.074   4.431  0.7335  1.0916 -0.7514
16413SOL     OW50339   5.243   8.739   1.393 -0.2409 -0.0027  0.5260
16413SOL    HW150340   5.333   8.720   1.365 -0.7465 -1.5291 -0.1994
16413SOL    HW250341   5.189   8.718   1.317 -1.2024  1.2745  0.8182
16414SOL     OW50342   1.924   3.404   2.277 -0.4675 -0.0917 -0.0634
16414SOL    HW150343   1.982   3.471   2.240 -0.9096  0.0650 -0.4913
16414SOL    HW250344   1.962   3.384   2.363  0.5430 -0.4072 -0.5635
16415SOL     OW50345   3.957   4.179   8.152 -0.0588  0.1859  0.5107
16415SOL    HW150346   3.961   4.185   8.248 -0.3781 -2.0750  0.7077
16415SOL    HW250347   4.027   4.118   8.129 -0.6130 -0.0388 -0.6176
16416SOL     OW50348   0.945   2.191   5.055  0.0605 -0.3696 -0.0338
16416SOL    HW150349   1.008   2.120   5.068  1.2912  0.5110 -0.9684
16416SOL    HW250350   0.962   2.222   4.966 -0.7322  0.8444  0.2175
16417SOL     OW50351   4.426   5.407   7.714 -0.4328 -0.4959  0.6869
16417SOL    HW150352   4.335   5.410   7.684 -0.6572  1.4726  1.4226
16417SOL    HW250353   4.426   5.452   7.798  1.4452  0.9003  0.0168
16418SOL     OW50354   2.609   8.300   9.083  0.0603 -0.1841  0.3190
16418SOL    HW150355   2.556   8.377   9.105 -0.4165 -0.3080 -0.3745
16418SOL    HW250356   2.545   8.230   9.072  0.3931 -0.4120 -0.1874
16419SOL     OW50357   2.180   3.205   5.429 -0.3739 -0.3102 -0.5291
16419SOL    HW150358   2.133   3.156   5.361 -0.8971 -1.3414  0.5384
16419SOL    HW250359   2.253   3.147   5.453  0.0135  0.2065 -0.4589
16420SOL     OW50360   4.931   4.154   8.531  0.2896  0.6101 -0.0132
16420SOL    HW150361   4.933   4.185   8.441  1.2730  1.5854  0.3212
16420SOL    HW250362   5.016   4.112   8.544 -0.0664 -0.0282  0.2953
16421SOL     OW50363   7.482   1.723   8.647  0.0596  0.0732  0.3484
16421SOL    HW150364   7.571   1.703   8.677 -0.0268 -1.0798 -0.0978
16421SOL    HW250365   7.456   1.801   8.697  1.1861  0.2085  0.7358
16422SOL     OW50366   3.898   1.787   0.584 -0.6968 -0.1043 -0.3078
16422SOL    HW150367   3.847   1.792   0.664  1.7901 -0.0089  1.4013
16422SOL    HW250368   3.943   1.703   0.589  0.3256  0.3729 -1.0530
16423SOL     OW50369   8.520   4.925   2.589 -0.1008  0.3493  0.2411
16423SOL    HW150370   8.502   4.837   2.557 -0.1984  0.6660 -0.5880
16423SOL    HW250371   8.503   4.920   2.683  0.7619 -0.7482  0.3671
16424SOL     OW50372   1.101   8.865   6.445 -0.2515  0.1148  0.3983
16424SOL    HW150373   1.159   8.794   6.420  1.0656  0.9249  1.0349
16424SOL    HW250374   1.148   8.945   6.421 -0.4073  0.8363  2.3018
16425SOL     OW50375   5.266   7.015   1.185 -0.1324  0.3466 -0.1317
16425SOL    HW150376   5.296   7.084   1.126  0.2384  0.4204  0.1363
16425SOL    HW250377   5.320   6.939   1.161  0.3671  0.5133  0.4346
16426SOL     OW50378   2.342   4.745   7.829  0.0188 -0.1473 -0.0208
16426SOL    HW150379   2.356   4.798   7.751  0.7943 -0.0518  0.1740
16426SOL    HW250380   2.261   4.779   7.867 -2.2185 -2.2694 -2.4688
16427SOL     OW50381   8.385   7.312   4.699  0.2275  0.3642  0.0837
16427SOL    HW150382   8.443   7.254   4.649  1.0649  1.6824 -0.5038
16427SOL    HW250383   8.440   7.345   4.770 -0.0196  1.0555 -0.0480
16428SOL     OW50384   2.760   8.132   7.796  0.0732  0.3518 -0.0672
16428SOL    HW150385   2.734   8.088   7.715  2.2803 -1.5738  0.1491
16428SOL    HW250386   2.746   8.067   7.865 -1.5767  1.8896  1.1254
16429SOL     OW50387   2.746   1.409   7.928 -0.1180 -0.0354 -0.8504
16429SOL    HW150388   2.820   1.406   7.868  0.8266  2.1228  0.0872
16429SOL    HW250389   2.749   1.498   7.965 -2.1932 -0.4365  0.4461
16430SOL     OW50390   3.293   0.987   4.999 -0.0759 -0.0333 -0.5893
16430SOL    HW150391   3.358   1.011   4.933  0.0229 -0.6512 -0.7272
16430SOL    HW250392   3.218   0.957   4.948 -0.0274 -0.4389 -0.4287
16431SOL     OW50393   0.952   7.839   4.350 -0.5881  0.0618 -0.1887
16431SOL    HW150394   0.946   7.922   4.302 -1.0291 -0.1606 -0.5212
16431SOL    HW250395   0.953   7.772   4.282 -1.0839 -0.2490  0.1092
16432SOL     OW50396   3.765   4.943   2.484 -0.6959  0.1982 -0.2618
16432SOL    HW150397   3.777   5.031   2.447 -2.6057 -0.1891 -1.9653
16432SOL    HW250398   3.679   4.915   2.453 -0.0210 -2.4113 -0.0240
16433SOL     OW50399   2.234   7.006   7.446  0.4366 -0.1048 -0.9872
16433SOL    HW150400   2.261   7.078   7.389  2.2289  0.2303  0.1964
16433SOL    HW250401   2.238   6.928   7.391 -1.4691  0.6284 -2.2723
16434SOL     OW50402   3.704   5.550   0.056  0.2589  0.8980 -0.6363
16434SOL    HW150403   3.629   5.514   0.007 -0.1541 -0.6979  1.0686
16434SOL    HW250404   3.763   5.583  -0.012 -0.8099 -0.1699 -2.1634
16435SOL     OW50405   6.789   6.924   3.764 -0.1539  0.0679  0.3045
16435SOL    HW150406   6.698   6.923   3.793 -0.7206  2.6898 -1.0186
16435SOL    HW250407   6.828   6.998   3.810  0.8496 -0.0348 -0.3370
16436SOL     OW50408   3.594   2.383   8.867 -0.3144 -0.3002 -0.6600
16436SOL    HW150409   3.610   2.412   8.777 -0.9001 -0.8934 -0.9601
16436SOL    HW250410   3.573   2.463   8.914  1.8039  0.2959 -0.6214
16437SOL     OW50411   7.715   4.995   7.720  0.0081  0.3323  0.3819
16437SOL    HW150412   7.765   5.058   7.669  0.4429  0.4686  0.9761
16437SOL    HW250413   7.709   5.033   7.807 -0.9554  0.2201  0.3754
16438SOL     OW50414   6.657   1.658   5.485 -0.2465  0.5539  0.1947
16438SOL    HW150415   6.684   1.575   5.445  0.1538  1.3142 -1.1930
16438SOL    HW250416   6.561   1.657   5.481 -0.2603 -0.0542  0.6495
16439SOL     OW50417   6.427   2.942   5.817 -0.1553 -0.0042 -0.1023
16439SOL    HW150418   6.480   2.893   5.754 -0.7910  0.8278 -1.3127
16439SOL    HW250419   6.348   2.967   5.768 -1.5540 -0.9310  1.5488
16440SOL     OW50420   0.795   3.093   1.311  0.1067  0.2006 -0.9203
16440SOL    HW150421   0.803   3.098   1.216  0.6921  1.0122 -0.8362
16440SOL    HW250422   0.703   3.109   1.328  0.1243  0.7316 -1.3102
16441SOL     OW50423   7.731   3.687   6.519 -0.1801 -0.6241  0.2280
16441SOL    HW150424   7.694   3.692   6.607  1.1175 -1.1343  0.8304
16441SOL    HW250425   7.695   3.763   6.473 -0.7336 -0.2466  1.2579
16442SOL     OW50426   2.115   8.007   5.023 -0.0751  0.2116  0.3401
16442SOL    HW150427   2.154   8.094   5.027 -1.4785  0.8336  1.2540
16442SOL    HW250428   2.037   8.013   5.078 -1.1860 -1.1082 -1.0101
16443SOL     OW50429   8.428   1.113   0.480 -0.2873  0.0586 -0.5424
16443SOL    HW150430   8.416   1.138   0.389  0.7944  1.1651 -0.4142
16443SOL    HW250431   8.466   1.191   0.521 -0.6763 -0.4435  0.8378
16444SOL     OW50432   8.775   3.823   1.754 -0.0195  0.1836 -0.1992
16444SOL    HW150433   8.698   3.819   1.698  0.4710 -1.7182 -0.8091
16444SOL    HW250434   8.808   3.733   1.756 -0.3305 -0.0126  3.6135
16445SOL     OW50435   4.741   1.172   4.044 -0.7682 -0.1532 -0.1695
16445SOL    HW150436   4.828   1.135   4.058 -0.9189 -0.3840  0.1665
16445SOL    HW250437   4.681   1.104   4.073 -1.0760 -0.2553 -1.0372
16446SOL     OW50438   6.380   5.573   4.047  0.4714 -0.7587  0.1968
16446SOL    HW150439   6.326   5.627   3.990 -0.7347  0.4528  2.3231
16446SOL    HW250440   6.335   5.488   4.049 -0.1013 -0.4645  0.1875
16447SOL     OW50441   2.954   4.213   2.756 -0.2773  0.2418 -0.0342
16447SOL    HW150442   2.963   4.258   2.840 -1.6794 -0.4707  0.5202
16447SOL    HW250443   2.933   4.123   2.778 -0.1398 -0.0862 -1.1554
16448SOL     OW50444   6.652   2.518   4.258 -0.3605  0.0882  0.6275
16448SOL    HW150445   6.599   2.529   4.337  1.0263 -1.7748  1.8978
16448SOL    HW250446   6.740   2.501   4.290  0.0496 -1.8610 -1.2678
16449SOL     OW50447   7.100   5.015   4.819  0.2258  0.0415 -0.3796
16449SOL    HW150448   7.040   4.972   4.880 -2.4860  1.0948 -2.1262
16449SOL    HW250449   7.098   4.960   4.741  1.7557  0.0128 -0.4416
16450SOL     OW50450   2.612   6.786   7.145  0.4327 -0.2608 -0.5615
16450SOL    HW150451   2.639   6.704   7.104  0.1710  0.4376 -2.1876
16450SOL    HW250452   2.623   6.852   7.077 -2.3996  0.5494 -0.3370
16451SOL     OW50453   6.801   7.205   2.595 -0.3979 -0.0209  0.5080
16451SOL    HW150454   6.866   7.211   2.666 -0.8308 -1.5122  1.0713
16451SOL    HW250455   6.764   7.293   2.590  1.7197  0.9114  0.0921
16452SOL     OW50456   3.130   8.567   3.930  0.4152  0.0883 -0.2205
16452SOL    HW150457   3.183   8.488   3.922 -0.4057 -0.6110  0.9603
16452SOL    HW250458   3.192   8.639   3.915  0.8974 -0.7686 -2.5854
16453SOL     OW50459   6.648   2.913   0.756  0.3779  0.0834 -0.1645
16453SOL    HW150460   6.573   2.853   0.750 -0.1888  0.4770  2.0366
16453SOL    HW250461   6.724   2.855   0.757  0.2516 -0.2783 -3.4019
16454SOL     OW50462   7.610   4.825   5.852  0.2316 -0.0915  0.4154
16454SOL    HW150463   7.629   4.778   5.934 -0.0775 -2.0859 -0.5914
16454SOL    HW250464   7.646   4.912   5.866  1.5597 -0.8416  2.1045
16455SOL     OW50465   8.782   2.321   8.820 -0.0296  0.6039  0.5732
16455SOL    HW150466   8.776   2.225   8.819 -3.2957  0.5984  3.1745
16455SOL    HW250467   8.703   2.350   8.774  0.0199  1.9966  1.3291
16456SOL     OW50468   2.496   0.167   5.567 -0.1944 -0.2488  0.5830
16456SOL    HW150469   2.441   0.135   5.638 -1.5397 -0.9403 -0.7062
16456SOL    HW250470   2.496   0.262   5.577 -1.9802 -0.2032  0.3865
16457SOL     OW50471   3.831   2.595   3.296  0.2232  0.1189 -0.1975
16457SOL    HW150472   3.906   2.535   3.288  0.3082  0.2861 -0.7702
16457SOL    HW250473   3.755   2.540   3.275  0.2285  0.0388 -0.0031
16458SOL     OW50474   3.407   9.114   2.285 -0.0408  0.1117 -0.3519
16458SOL    HW150475   3.352   9.185   2.318  1.5991  0.7970  1.0527
16458SOL    HW250476   3.452   9.081   2.362  0.7535 -1.1213 -1.3041
16459SOL     OW50477   5.487   1.636   8.877 -0.2725  0.5178  0.5124
16459SOL    HW150478   5.397   1.623   8.906 -1.0076 -1.6216 -2.3106
16459SOL    HW250479   5.525   1.548   8.876  1.4168  1.2071  0.3289
16460SOL     OW50480   8.238   0.632   6.788  0.1669 -0.1986 -0.0920
16460SOL    HW150481   8.288   0.551   6.778  1.7491  0.8162 -0.8576
16460SOL    HW250482   8.148   0.603   6.803  1.0767 -2.1505  2.4132
16461SOL     OW50483   0.204   2.944   8.779  0.4637  0.3026  0.4474
16461SOL    HW150484   0.115   2.981   8.783  0.5775  0.6157  0.0710
16461SOL    HW250485   0.229   2.951   8.687 -0.2281 -2.3953 -0.0526
16462SOL     OW50486   6.936   7.351   6.057  0.3524  0.5627  0.7550
16462SOL    HW150487   7.022   7.308   6.052 -0.1708 -0.6856  1.7800
16462SOL    HW250488   6.954   7.435   6.099  1.1738  0.6260  0.2916
16463SOL     OW50489   4.659   8.140   2.021  0.6846 -0.0644 -0.0099
16463SOL    HW150490   4.612   8.214   2.060 -1.7181 -1.0143 -0.9360
16463SOL    HW250491   4.697   8.093   2.095 -0.9563  0.0325  0.9233
16464SOL     OW50492   6.363   4.562   6.179  0.4603  0.0430 -0.4058
16464SOL    HW150493   6.382   4.495   6.112  0.8439 -1.6865  1.3519
16464SOL    HW250494   6.447   4.578   6.221  0.1074  0.6748  0.0649
16465SOL     OW50495   6.574   3.895   2.358  0.0226 -0.3167 -0.0893
16465SOL    HW150496   6.635   3.950   2.406 -1.2560  0.7272  0.4075
16465SOL    HW250497   6.628   3.824   2.322  1.6395  0.9967 -0.3630
16466SOL     OW50498   6.308   5.866   6.587 -0.2322  0.4029 -0.2520
16466SOL    HW150499   6.271   5.916   6.660  0.6149  0.2504  0.2991
16466SOL    HW250500   6.233   5.844   6.532 -0.9315  0.2312  0.7506
16467SOL     OW50501   3.477   5.565   9.068 -0.4962 -0.1647  0.1912
16467SOL    HW150502   3.463   5.507   8.993 -2.3108  1.5181 -0.8751
16467SOL    HW250503   3.403   5.626   9.065  0.1667  0.8631  2.5254
16468SOL     OW50504   0.615   7.310   4.078  0.1334 -0.2499  0.1639
16468SOL    HW150505   0.531   7.355   4.090  0.0431  0.1878 -1.7010
16468SOL    HW250506   0.602   7.224   4.117 -1.0391 -0.0267  0.3093
16469SOL     OW50507   5.644   4.047   0.833  0.3234 -0.1666  0.3972
16469SOL    HW150508   5.583   4.047   0.759 -1.6823  0.2541  1.9567
16469SOL    HW250509   5.675   4.138   0.838  1.6858 -0.5365 -0.8300
16470SOL     OW50510   7.801   6.775   2.258  0.3358  0.0732  0.2633
16470SOL    HW150511   7.814   6.773   2.163  1.8857  3.2867  0.2533
16470SOL    HW250512   7.777   6.686   2.281 -0.3276 -0.7906 -3.1564
16471SOL     OW50513   8.298   2.300   1.636 -0.0692  0.2100  0.2097
16471SOL    HW150514   8.221   2.268   1.588  0.9571 -2.0166 -0.1052
16471SOL    HW250515   8.368   2.302   1.570  0.7279 -0.3230  1.0084
16472SOL     OW50516   7.564   1.804   5.155 -0.0154 -0.8947 -0.1129
16472SOL    HW150517   7.496   1.737   5.167 -0.4608 -0.1748  1.7639
16472SOL    HW250518   7.616   1.772   5.081 -2.6724 -1.2307 -2.0042
16473SOL     OW50519   7.747   8.044   8.623 -0.1803  0.4733 -0.5331
16473SOL    HW150520   7.683   7.993   8.574  0.4555 -0.5865 -0.2824
16473SOL    HW250521   7.786   7.981   8.684 -0.2705  1.5340  0.6729
16474SOL     OW50522   8.027   1.414   6.852 -0.2984  0.3754  0.6772
16474SOL    HW150523   8.109   1.458   6.872 -0.3148 -0.3004  2.3709
16474SOL    HW250524   7.970   1.434   6.927 -0.3306 -2.4144  1.4749
16475SOL     OW50525   3.292   0.311   7.052  0.6998  0.4122 -0.4646
16475SOL    HW150526   3.299   0.348   7.140  1.2572 -2.2736  0.7287
16475SOL    HW250527   3.332   0.377   6.995 -1.0350  2.9214  1.0145
16476SOL     OW50528   0.878   6.636   3.545  0.0151 -0.3360 -0.4818
16476SOL    HW150529   0.897   6.697   3.474  0.8753 -1.0859 -0.9184
16476SOL    HW250530   0.937   6.661   3.616  0.3688 -0.6568 -0.6613
16477SOL     OW50531   1.875   0.612   8.165 -0.4490  0.0062  0.2008
16477SOL    HW150532   1.802   0.569   8.122 -0.0234 -1.8576  1.2185
16477SOL    HW250533   1.852   0.612   8.258  1.5406 -2.3470  0.8167
16478SOL     OW50534   6.595   2.999   7.218 -0.7360 -0.1988 -0.2805
16478SOL    HW150535   6.562   3.088   7.231  0.7465  0.2861  0.4004
16478SOL    HW250536   6.523   2.953   7.175 -1.4181  1.4018 -0.9317
16479SOL     OW50537   1.042   0.575   6.363  0.1126  0.1992  0.3621
16479SOL    HW150538   1.091   0.656   6.380  0.9456 -0.3565  0.6780
16479SOL    HW250539   1.106   0.517   6.322 -0.5111 -0.2727  0.0386
16480SOL     OW50540   1.990   5.700   3.253  0.5443  0.2990 -0.0052
16480SOL    HW150541   1.975   5.654   3.335 -0.5649 -0.6344 -0.7024
16480SOL    HW250542   1.996   5.631   3.187 -0.7933  1.0952 -1.0253
16481SOL     OW50543   1.357   8.611   0.418  0.0068 -0.2073 -0.6170
16481SOL    HW150544   1.420   8.543   0.438 -0.3704 -0.3779  0.0047
16481SOL    HW250545   1.312   8.580   0.339 -0.0336 -0.5897 -0.4456
16482SOL     OW50546   3.517   1.064   4.856 -0.4395  0.2883  0.1284
16482SOL    HW150547   3.609   1.040   4.868 -0.6121 -0.8584 -0.6818
16482SOL    HW250548   3.515   1.158   4.872  1.1476  0.6059 -1.2796
16483SOL     OW50549   7.512   3.926   2.381  0.1852  0.5057 -0.1559
16483SOL    HW150550   7.485   3.953   2.469 -0.1261 -1.5599  0.4144
16483SOL    HW250551   7.429   3.916   2.333  0.3640  1.9459 -0.8333
16484SOL     OW50552   6.994   3.465   8.363  0.0542  0.2435  0.0940
16484SOL    HW150553   6.911   3.419   8.376 -0.0230  0.7470  1.5103
16484SOL    HW250554   7.056   3.423   8.422  0.5014  0.6318 -0.0861
16485SOL     OW50555   5.387   7.305   7.305 -0.4834 -0.0657 -0.0218
16485SOL    HW150556   5.454   7.237   7.303 -1.0560 -0.6901  1.2281
16485SOL    HW250557   5.381   7.335   7.214  0.3213 -1.1468 -0.4538
16486SOL     OW50558   3.317   8.398   3.783  0.7836  0.1003  0.0944
16486SOL    HW150559   3.270   8.325   3.744  2.1214  1.2970 -4.2994
16486SOL    HW250560   3.394   8.358   3.825  1.3806 -1.1045 -2.0332
16487SOL     OW50561   0.275   8.305   1.929 -0.4910 -0.3016  0.2723
16487SOL    HW150562   0.229   8.254   1.996  1.7547  0.1415  2.2728
16487SOL    HW250563   0.228   8.388   1.926 -0.7971 -0.4317  1.1116
16488SOL     OW50564   1.224   5.276   0.090 -0.0480 -0.1777 -0.1173
16488SOL    HW150565   1.283   5.258   0.016  0.1916  0.9338 -0.2127
16488SOL    HW250566   1.200   5.368   0.079  1.0234  0.3826  1.9198
16489SOL     OW50567   4.386   4.738   5.816 -0.5900 -0.4777  0.5978
16489SOL    HW150568   4.374   4.739   5.911  0.9220  2.5477  0.9003
16489SOL    HW250569   4.475   4.771   5.803 -1.2242  0.4859 -1.8703
16490SOL     OW50570   8.300   6.240   2.387  0.2833 -0.4760 -0.5605
16490SOL    HW150571   8.370   6.176   2.380 -0.7074 -1.6297 -0.3320
16490SOL    HW250572   8.251   6.213   2.465  0.0857  0.8165 -0.2116
16491SOL     OW50573   3.321   4.082   2.124 -0.0756 -0.0894  0.2218
16491SOL    HW150574   3.396   4.133   2.155 -0.7928 -0.5977  3.0093
16491SOL    HW250575   3.245   4.138   2.138 -0.4040 -0.1041 -1.2958
16492SOL     OW50576   7.714   6.142   3.714 -0.2219  0.2574  0.0219
16492SOL    HW150577   7.640   6.084   3.732  0.4670 -0.5563  0.3516
16492SOL    HW250578   7.675   6.228   3.701 -1.1944 -0.0984  0.4735
16493SOL     OW50579   3.166   6.973   1.007  0.1241  0.8210 -0.4038
16493SOL    HW150580   3.233   6.915   1.043 -0.7828  0.1637  0.2823
16493SOL    HW250581   3.091   6.916   0.989 -0.2291  1.5216 -1.2402
16494SOL     OW50582   3.925   0.367   1.959  0.4227 -0.0798  0.4286
16494SOL    HW150583   3.862   0.410   2.017 -1.5339 -2.0887 -0.0484
16494SOL    HW250584   4.000   0.348   2.015 -0.6691 -0.3772  1.8644
16495SOL     OW50585   1.079   3.934   7.120 -0.7960 -0.1104 -0.4091
16495SOL    HW150586   1.076   4.018   7.075 -3.2755 -0.3677 -0.8293
16495SOL    HW250587   1.070   3.869   7.051 -0.8959 -0.6461  0.0981
16496SOL     OW50588   2.582   6.743   5.479 -0.0317  0.4104 -0.0858
16496SOL    HW150589   2.541   6.821   5.516 -0.6140  0.0168  0.1036
16496SOL    HW250590   2.527   6.721   5.403 -1.4349 -1.3103  1.3348
16497SOL     OW50591   6.955   3.331   4.058 -0.0559  0.7556  0.6910
16497SOL    HW150592   6.980   3.319   3.966  1.4661  0.2208  1.1457
16497SOL    HW250593   6.993   3.416   4.083  0.9298  0.1609  1.2586
16498SOL     OW50594   7.572   0.686   5.792 -0.3826  0.7723 -0.5258
16498SOL    HW150595   7.640   0.620   5.803 -0.6656  0.3989 -0.9840
16498SOL    HW250596   7.502   0.641   5.745 -1.6292  0.7216  1.3060
16499SOL     OW50597   7.207   6.781   7.813  0.8019 -0.1548  0.2327
16499SOL    HW150598   7.199   6.698   7.861  2.8571  0.4696  1.8495
16499SOL    HW250599   7.262   6.760   7.738  1.7916 -0.2121  0.9412
16500SOL     OW50600   2.836   3.125   7.920  0.1531  0.5354 -0.1675
16500SOL    HW150601   2.842   3.125   7.825  1.0851  1.2402 -0.1265
16500SOL    HW250602   2.912   3.075   7.949  0.9183  1.8615  0.2262
16501SOL     OW50603   0.845   6.364   0.357  0.1313 -0.3305 -0.5330
16501SOL    HW150604   0.774   6.381   0.420  0.1658 -0.6991 -0.3933
16501SOL    HW250605   0.805   6.382   0.271  0.0197 -0.0440 -0.4237
16502SOL     OW50606   3.089   3.493   5.759 -0.1032  0.0879  0.2069
16502SOL    HW150607   3.080   3.525   5.849  0.9051  1.1060 -0.0200
16502SOL    HW250608   3.163   3.543   5.723 -1.2344  0.6086 -1.5694
16503SOL     OW50609   7.044   4.912   6.754  0.0986 -0.3626 -0.3523
16503SOL    HW150610   7.029   4.856   6.831 -1.1100  0.2716 -0.1112
16503SOL    HW250611   6.998   4.868   6.683 -0.2965 -0.0202 -0.3099
16504SOL     OW50612   0.671   8.119   8.812  0.0377  0.2729 -0.1418
16504SOL    HW150613   0.759   8.082   8.799 -0.0624  0.2516 -0.7886
16504SOL    HW250614   0.644   8.146   8.725 -0.7968 -0.1427 -0.0162
16505SOL     OW50615   6.624   5.408   8.705 -0.1063  0.3931  0.0973
16505SOL    HW150616   6.597   5.411   8.614  1.6161  2.0265 -0.4181
16505SOL    HW250617   6.693   5.341   8.708 -0.5447 -0.0513  0.3178
16506SOL     OW50618   2.887   3.613   6.317  0.7276  0.2435 -0.4279
16506SOL    HW150619   2.916   3.533   6.271 -1.1731 -0.0054 -1.2670
16506SOL    HW250620   2.814   3.646   6.264  1.4984  2.6060 -0.1342
16507SOL     OW50621   8.307   0.624   2.730  0.2032 -0.3633  0.2535
16507SOL    HW150622   8.293   0.718   2.722  0.4482 -0.0414  2.6903
16507SOL    HW250623   8.309   0.592   2.640  1.8263  2.1969 -0.7246
16508SOL     OW50624   1.762   0.477   6.887  0.1345 -0.2346 -0.0313
16508SOL    HW150625   1.700   0.545   6.914  0.5459  0.4186 -0.6976
16508SOL    HW250626   1.714   0.426   6.822  0.6493  0.9710 -1.4005
16509SOL     OW50627   1.082   2.078   6.044 -0.0290 -0.2272 -0.4500
16509SOL    HW150628   1.101   2.163   6.003 -0.0777 -0.4367 -0.9112
16509SOL    HW250629   1.105   2.013   5.977  1.0837 -0.6314  0.3054
16510SOL     OW50630   6.385   4.472   1.024 -0.2683  0.0495  0.2833
16510SOL    HW150631   6.302   4.431   1.047 -0.6449 -0.4146 -1.7047
16510SOL    HW250632   6.448   4.400   1.025 -0.4907 -0.1954 -1.0049
16511SOL     OW50633   8.095   2.899   3.848  0.5872 -0.1150 -0.1984
16511SOL    HW150634   8.179   2.892   3.892  0.8994 -0.9517 -0.9012
16511SOL    HW250635   8.040   2.833   3.890  0.0899  0.8174  0.6485
16512SOL     OW50636   8.969   3.132   8.001  0.4483 -0.7009  0.1410
16512SOL    HW150637   8.932   3.055   8.044 -0.2119  0.3017  1.4281
16512SOL    HW250638   8.910   3.204   8.025  0.3566  0.0046 -2.0367
16513SOL     OW50639   1.238   3.988   0.804 -0.3358  0.1600  0.1864
16513SOL    HW150640   1.296   3.939   0.862 -0.8615  0.7330  1.2229
16513SOL    HW250641   1.289   4.065   0.778 -0.5541  0.5670  0.9466
16514SOL     OW50642   8.130   7.376   0.576  0.0345  0.2661  0.2264
16514SOL    HW150643   8.203   7.435   0.596  1.1313 -0.1420 -2.2831
16514SOL    HW250644   8.171   7.297   0.542 -1.5161  0.6851 -2.9651
16515SOL     OW50645   4.208   6.798   1.938 -0.5140 -0.6177  0.4179
16515SOL    HW150646   4.273   6.806   1.869 -0.2641  0.2022  0.7361
16515SOL    HW250647   4.152   6.875   1.928  1.1897  1.1106  2.7986
16516SOL     OW50648   4.550   1.466   8.611 -0.0981 -0.0220 -0.0737
16516SOL    HW150649   4.545   1.377   8.646  1.2750 -0.4386 -0.8494
16516SOL    HW250650   4.502   1.462   8.528  2.2097 -0.8079 -1.4650
16517SOL     OW50651   0.024   3.433   2.811 -0.0271  0.0704 -0.1108
16517SOL    HW150652   0.059   3.391   2.732  0.7983  1.3280 -0.4429
16517SOL    HW250653   0.093   3.493   2.839 -0.3534 -0.2751  1.5288
16518SOL     OW50654   6.051   8.345   0.472 -0.4320  0.1411 -0.0061
16518SOL    HW150655   5.981   8.338   0.407 -1.4134 -0.0773  1.0582
16518SOL    HW250656   6.108   8.271   0.452 -0.4732  0.3380 -0.9013
16519SOL     OW50657   4.480   1.131   2.005 -0.2788  0.3663 -0.2987
16519SOL    HW150658   4.514   1.084   2.082 -1.1394  2.0979  1.2173
16519SOL    HW250659   4.400   1.084   1.982 -1.2361  1.1000  1.3238
16520SOL     OW50660   5.629   5.011   3.550 -0.1384 -0.7857 -0.0758
16520SOL    HW150661   5.683   5.085   3.578  0.7617 -2.4055  2.8388
16520SOL    HW250662   5.684   4.934   3.564 -2.7688 -2.4587  2.0832
16521SOL     OW50663   5.237   1.247   6.252  0.0918 -0.0266 -0.4321
16521SOL    HW150664   5.199   1.282   6.171  3.6757  0.0665 -2.2384
16521SOL    HW250665   5.244   1.153   6.236 -0.5756 -0.2402  0.4515
16522SOL     OW50666   5.773   5.764   2.084 -0.7481 -0.5701  0.1306
16522SOL    HW150667   5.771   5.777   2.179 -1.6893 -1.3416  0.2338
16522SOL    HW250668   5.732   5.678   2.071  0.8672 -1.2542 -0.8569
16523SOL     OW50669   8.859   8.982   6.618 -0.0373 -0.4296  0.9048
16523SOL    HW150670   8.954   8.983   6.608  0.1111  0.2956  2.2078
16523SOL    HW250671   8.825   9.002   6.531  1.0777  2.0844  0.9680
16524SOL     OW50672   8.736   8.501   4.642  0.2213  0.6304  0.1475
16524SOL    HW150673   8.740   8.590   4.676 -1.6180  1.0227 -0.5635
16524SOL    HW250674   8.784   8.504   4.560  2.3708  0.3006  1.3011
16525SOL     OW50675   3.320   6.867   3.686  0.3020  0.9060  0.5432
16525SOL    HW150676   3.248   6.859   3.624 -1.1125  2.7061  1.8369
16525SOL    HW250677   3.399   6.869   3.632 -0.6550 -0.3225 -0.9708
16526SOL     OW50678   6.967   0.470   1.573  1.0113 -0.0410 -0.0257
16526SOL    HW150679   6.990   0.418   1.496  0.6847 -0.4192  0.1294
16526SOL    HW250680   6.930   0.551   1.536  1.1951 -0.0621 -0.2635
16527SOL     OW50681   2.835   1.155   2.971  0.2163  0.1327 -0.1844
16527SOL    HW150682   2.905   1.108   2.926  1.1774  0.9539  0.4195
16527SOL    HW250683   2.806   1.221   2.909  1.4410  1.1705  0.3218
16528SOL     OW50684   1.128   7.117   5.464 -0.0207  0.0127  1.1375
16528SOL    HW150685   1.181   7.146   5.538 -1.3368  0.7582  1.8238
16528SOL    HW250686   1.038   7.141   5.488 -0.8237 -2.0937  0.4805
16529SOL     OW50687   6.114   7.465   6.067  0.3385  0.4512  0.8110
16529SOL    HW150688   6.141   7.538   6.124  1.4895  1.6020 -1.0981
16529SOL    HW250689   6.142   7.492   5.980  1.2477 -2.5447  0.0956
16530SOL     OW50690   5.861   1.567   7.595  0.2171  0.3592 -0.1665
16530SOL    HW150691   5.788   1.514   7.562  1.6889 -1.2042 -1.0720
16530SOL    HW250692   5.936   1.508   7.594  2.4090  2.8361 -3.0021
16531SOL     OW50693   4.589   6.689   5.051 -0.8098  0.3194 -0.0343
16531SOL    HW150694   4.544   6.680   4.968 -0.9356 -1.5172  0.1991
16531SOL    HW250695   4.522   6.721   5.112 -1.1283  0.1253 -0.2804
16532SOL     OW50696   9.007   8.853   5.372  0.0604 -0.2567 -0.3922
16532SOL    HW150697   9.010   8.759   5.393 -1.0475 -0.2774 -0.2584
16532SOL    HW250698   9.043   8.896   5.450 -2.4521 -0.4281  0.9968
16533SOL     OW50699   8.982   0.082   4.388 -0.3803 -0.0538 -0.3237
16533SOL    HW150700   9.056   0.067   4.446 -2.0483  0.0062  1.9272
16533SOL    HW250701   8.927   0.004   4.397 -2.1237  1.1999  0.5192
16534SOL     OW50702   1.358   5.816   4.671 -0.1770  0.2074 -0.0684
16534SOL    HW150703   1.320   5.885   4.725 -0.5418 -0.9744  1.2220
16534SOL    HW250704   1.447   5.846   4.653 -0.3091  0.9781  0.5210
16535SOL     OW50705   6.838   3.413   3.438  0.8867 -0.1720  0.0479
16535SOL    HW150706   6.798   3.327   3.427 -0.7142  0.6778 -1.2016
16535SOL    HW250707   6.831   3.431   3.532  0.6077 -1.1019  0.2091
16536SOL     OW50708   8.788   0.210   7.500  0.1640  0.0149  0.5020
16536SOL    HW150709   8.835   0.226   7.418 -0.4189 -1.9487 -0.2985
16536SOL    HW250710   8.803   0.117   7.518 -2.8802 -0.5996  0.4628
16537SOL     OW50711   5.106   3.925   0.235 -0.6569  0.2684 -0.3354
16537SOL    HW150712   5.201   3.915   0.227 -0.6855 -0.5609  0.1801
16537SOL    HW250713   5.092   4.019   0.243  0.1899  0.3459  0.3737
16538SOL     OW50714   7.151   5.249   0.857 -0.2070  0.6539 -0.3798
16538SOL    HW150715   7.236   5.271   0.819  0.4110  1.7107  1.4564
16538SOL    HW250716   7.166   5.164   0.900 -0.1766  0.6699 -0.3583
16539SOL     OW50717   1.093   1.811   2.370  0.0047  0.0972 -0.1656
16539SOL    HW150718   1.108   1.719   2.391 -1.0159  0.0371  0.3634
16539SOL    HW250719   1.014   1.811   2.316 -0.3792  0.7149  0.3800
16540SOL     OW50720   4.096   5.045   8.624  0.4583  0.1354 -0.3062
16540SOL    HW150721   4.171   5.014   8.674  0.8349  0.2636 -0.7923
16540SOL    HW250722   4.035   5.077   8.691  1.7282  2.0475  0.0428
16541SOL     OW50723   3.412   2.943   2.007  0.7412 -0.4688 -0.1317
16541SOL    HW150724   3.483   3.007   2.002  1.6043 -1.3399  0.5069
16541SOL    HW250725   3.450   2.863   1.970 -0.0229 -0.8574 -0.0944
16542SOL     OW50726   5.708   4.804   8.311  0.2269  0.1056 -0.5824
16542SOL    HW150727   5.782   4.764   8.265 -0.2336  0.6066 -1.7949
16542SOL    HW250728   5.721   4.780   8.402  2.0413  0.3920 -0.7194
16543SOL     OW50729   0.108   5.109   8.177 -0.4994  0.0080  0.1197
16543SOL    HW150730   0.102   5.057   8.257 -1.2442  1.7366  1.2397
16543SOL    HW250731   0.017   5.129   8.154 -0.2674  0.0036 -0.8414
16544SOL     OW50732   3.599   0.259   1.968  0.9565  0.0467 -0.2505
16544SOL    HW150733   3.509   0.290   1.957  1.0527  0.0298 -1.1751
16544SOL    HW250734   3.631   0.305   2.046  0.1797  0.1138  0.0401
16545SOL     OW50735   2.863   3.881   6.753 -0.3064 -0.2324  0.0972
16545SOL    HW150736   2.917   3.802   6.757  0.4298  0.2817  0.6370
16545SOL    HW250737   2.926   3.953   6.752 -0.9784  0.3793  0.5489
16546SOL     OW50738   6.531   4.692   8.795 -0.0619  0.4915 -0.6642
16546SOL    HW150739   6.451   4.723   8.755 -1.6931 -1.4488  0.8612
16546SOL    HW250740   6.570   4.634   8.730  1.3172  3.0078 -2.2397
16547SOL     OW50741   0.703   5.021   8.143  0.4481  0.0076  0.2919
16547SOL    HW150742   0.619   5.029   8.188  0.5837 -0.7946  0.7091
16547SOL    HW250743   0.692   4.946   8.085  0.6968  0.2479 -0.0743
16548SOL     OW50744   2.167   5.687   2.373  0.0439  0.1571 -0.2930
16548SOL    HW150745   2.239   5.678   2.436  0.6750 -0.6345 -1.0960
16548SOL    HW250746   2.207   5.667   2.288 -1.2997 -1.1270 -0.6666
16549SOL     OW50747   8.425   5.424   6.558 -0.2005  0.3045 -0.1963
16549SOL    HW150748   8.330   5.410   6.558  0.0042 -1.1760  0.0791
16549SOL    HW250749   8.463   5.337   6.565  1.1972  0.8779 -0.2557
16550SOL     OW50750   8.595   4.464   7.435 -0.0261 -0.3076  0.6005
16550SOL    HW150751   8.664   4.518   7.397 -1.2109  0.7346 -0.1984
16550SOL    HW250752   8.591   4.492   7.527 -0.9763  1.4448  0.0783
16551SOL     OW50753   5.815   7.599   6.307 -0.1669  0.0745  0.4460
16551SOL    HW150754   5.868   7.674   6.279 -1.9228  0.9844 -0.5643
16551SOL    HW250755   5.758   7.581   6.233  1.5088 -3.6057 -0.1916
16552SOL     OW50756   0.030   4.186   7.237  0.6838 -0.1135 -0.5693
16552SOL    HW150757   0.070   4.098   7.237  0.0664 -0.4610  1.6846
16552SOL    HW250758   0.097   4.242   7.276  0.5620  0.1345 -0.7200
16553SOL     OW50759   0.530   0.722   4.575  0.1358 -0.0353 -0.1658
16553SOL    HW150760   0.449   0.671   4.567 -1.3402  2.2709 -0.7406
16553SOL    HW250761   0.580   0.699   4.497  0.1817 -1.6382  0.2964
16554SOL     OW50762   7.912   3.248   4.312 -0.3770  0.0858  0.5358
16554SOL    HW150763   7.999   3.232   4.348  0.1214 -2.0178 -1.3620
16554SOL    HW250764   7.917   3.338   4.278  0.9054  0.1641  0.8536
16555SOL     OW50765   2.030   0.969   8.099  0.7257  0.5650  0.0442
16555SOL    HW150766   1.980   1.035   8.146 -0.1978 -0.9868  1.3499
16555SOL    HW250767   1.965   0.920   8.050  1.4082  0.6806 -1.0050
16556SOL     OW50768   7.332   0.317   3.620  0.3708 -0.0842  0.0372
16556SOL    HW150769   7.276   0.393   3.629  1.6196  0.6703  2.0078
16556SOL    HW250770   7.401   0.345   3.559  0.4541  0.1299  0.2310
16557SOL     OW50771   3.261   4.293   7.526 -0.3026  0.1200 -0.3169
16557SOL    HW150772   3.350   4.287   7.491 -1.1997  0.6063 -2.9501
16557SOL    HW250773   3.205   4.272   7.451 -2.4251 -0.5243  1.3508
16558SOL     OW50774   2.171   5.960   4.886  0.2076 -0.7538  0.0052
16558SOL    HW150775   2.130   5.892   4.831 -0.8092 -0.1544 -0.0039
16558SOL    HW250776   2.208   6.022   4.823  1.5176 -1.5020  0.0130
16559SOL     OW50777   4.869   7.966   0.555 -0.2496  0.2602 -0.1871
16559SOL    HW150778   4.864   8.060   0.537  1.0972  0.5078  0.6191
16559SOL    HW250779   4.871   7.960   0.651 -1.8730 -0.7039 -0.1768
16560SOL     OW50780   8.448   3.633   0.017 -0.6225 -0.0860 -0.6307
16560SOL    HW150781   8.513   3.693  -0.019 -1.5119  0.6793 -1.0022
16560SOL    HW250782   8.371   3.687   0.033 -0.6070 -0.6001  1.4824
16561SOL     OW50783   3.836   4.063   8.951  0.0798  0.5317  0.0476
16561SOL    HW150784   3.869   4.084   9.038  0.4843 -0.2563  0.0978
16561SOL    HW250785   3.784   3.984   8.963 -0.6307  0.9441 -0.2797
16562SOL     OW50786   1.981   7.834   1.304  0.9564  0.0029 -0.0580
16562SOL    HW150787   1.934   7.755   1.333  1.8675 -0.6233 -0.2478
16562SOL    HW250788   2.059   7.800   1.260  0.9792  1.0064 -0.8129
16563SOL     OW50789   5.190   3.741   0.912  0.3447  0.1022 -0.2312
16563SOL    HW150790   5.140   3.764   0.990 -1.3154  0.5696 -1.3856
16563SOL    HW250791   5.281   3.753   0.938 -0.1440 -0.1251  1.7413
16564SOL     OW50792   1.997   0.611   6.866  0.7870 -0.1059 -0.0937
16564SOL    HW150793   1.948   0.530   6.877  2.1845 -1.0039 -0.2121
16564SOL    HW250794   1.965   0.668   6.936 -1.6193  0.0059 -1.1863
16565SOL     OW50795   3.325   8.631   0.664  0.5300 -0.6275  0.3208
16565SOL    HW150796   3.403   8.675   0.697  0.8374 -1.2710  0.4755
16565SOL    HW250797   3.257   8.699   0.663  1.1528 -0.0058 -0.0472
16566SOL     OW50798   6.858   4.497   1.752  0.1355 -0.4657  0.2353
16566SOL    HW150799   6.827   4.421   1.702 -0.1748  0.2692 -0.7069
16566SOL    HW250800   6.809   4.492   1.834 -0.7349 -0.6438 -0.2856
16567SOL     OW50801   0.460   8.073   0.464 -0.3777 -0.0398 -0.6143
16567SOL    HW150802   0.428   8.162   0.447 -0.5584  0.5429  2.2280
16567SOL    HW250803   0.551   8.086   0.492 -0.4728 -0.7293  0.0263
16568SOL     OW50804   8.402   0.022   7.990 -0.5068 -0.1679  0.0452
16568SOL    HW150805   8.307   0.027   7.998 -0.5332  1.1767 -0.8551
16568SOL    HW250806   8.426   0.096   7.935  0.9564 -1.1168 -0.6750
16569SOL     OW50807   1.110   5.393   2.431 -0.0362  0.5007  0.0220
16569SOL    HW150808   1.088   5.484   2.452 -0.6171  0.0573  1.4535
16569SOL    HW250809   1.130   5.353   2.515 -0.8890 -0.9807 -0.4494
16570SOL     OW50810   0.496   8.813   8.582  0.7822 -0.1361  0.1191
16570SOL    HW150811   0.480   8.815   8.487 -0.2967 -0.4814  0.2805
16570SOL    HW250812   0.535   8.727   8.598  0.6479 -0.2137  0.0338
16571SOL     OW50813   9.032   6.429   2.120 -0.2996 -0.3253  0.3963
16571SOL    HW150814   9.093   6.502   2.117 -1.3399  0.5577 -0.0760
16571SOL    HW250815   9.084   6.353   2.096  0.5542  0.4429 -0.2518
16572SOL     OW50816   2.121   1.724   5.467 -0.1969 -0.4587 -0.5342
16572SOL    HW150817   2.070   1.742   5.387 -1.6703  0.0748  0.4869
16572SOL    HW250818   2.064   1.670   5.521  0.4967 -0.2096  0.4816
16573SOL     OW50819   6.913   3.403   7.931  0.4037  0.4437 -0.1481
16573SOL    HW150820   6.941   3.335   7.993  0.4204  1.0236  0.4929
16573SOL    HW250821   6.823   3.379   7.908 -0.2038  1.1018  1.3785
16574SOL     OW50822   0.948   3.093   8.921  0.1973  0.3899  0.0537
16574SOL    HW150823   0.937   3.087   9.016  1.5240  1.5809  0.3074
16574SOL    HW250824   1.009   3.022   8.899 -0.3486 -0.0807  0.0305
16575SOL     OW50825   3.977   7.737   0.152  0.1447 -0.1469 -0.0696
16575SOL    HW150826   4.030   7.689   0.088 -0.1112  1.2573 -1.4074
16575SOL    HW250827   3.911   7.674   0.180  0.0832 -0.7203 -1.4209
16576SOL     OW50828   1.246   2.656   0.894 -0.2138 -0.3154 -0.1570
16576SOL    HW150829   1.155   2.672   0.869 -0.2585 -1.3151 -0.6893
16576SOL    HW250830   1.283   2.608   0.820  0.5082 -0.6605  0.4149
16577SOL     OW50831   7.402   6.764   3.370  0.9697 -0.0777  0.1099
16577SOL    HW150832   7.377   6.723   3.287  0.8725 -0.7274  0.4554
16577SOL    HW250833   7.322   6.765   3.422  0.4428  2.3820 -0.5986
16578SOL     OW50834   4.115   3.859   6.018 -0.5485  0.2329  0.1219
16578SOL    HW150835   4.022   3.840   6.009 -0.3694 -0.2276 -0.8752
16578SOL    HW250836   4.119   3.927   6.086 -1.6939  1.0296 -0.5689
16579SOL     OW50837   0.432   5.231   7.410 -0.0560  0.1581 -0.5818
16579SOL    HW150838   0.503   5.276   7.365 -0.2365  0.4863 -0.5419
16579SOL    HW250839   0.459   5.140   7.413  1.3098  0.5540  1.1752
16580SOL     OW50840   7.429   2.414   3.688  0.4016 -0.0484  0.1331
16580SOL    HW150841   7.356   2.463   3.728  1.8049  1.2492  1.2292
16580SOL    HW250842   7.396   2.324   3.681 -1.3568  0.5242  0.4407
16581SOL     OW50843   0.658   8.166   2.411  0.2933 -0.3646  0.3333
16581SOL    HW150844   0.751   8.184   2.397  0.5076 -1.1222  0.6940
16581SOL    HW250845   0.640   8.091   2.354  0.0387 -0.5519  0.6581
16582SOL     OW50846   1.365   5.694   3.393  0.2437 -0.1601 -0.7505
16582SOL    HW150847   1.429   5.646   3.341 -0.2674 -0.0179 -1.5195
16582SOL    HW250848   1.368   5.783   3.358  0.7388  0.2443  0.2547
16583SOL     OW50849   8.583   4.429   4.982  0.0844  0.2845  0.8984
16583SOL    HW150850   8.529   4.502   4.951  0.7709  0.6012  0.4519
16583SOL    HW250851   8.640   4.468   5.048  1.9411  0.6491 -0.8198
16584SOL     OW50852   1.877   3.249   5.023  0.0282  0.1751 -0.0246
16584SOL    HW150853   1.909   3.206   4.944 -3.5673 -1.0138 -1.0627
16584SOL    HW250854   1.788   3.278   5.000 -0.1614  2.2648  2.7686
16585SOL     OW50855   2.708   8.625   0.105 -0.4426  0.3148 -0.1614
16585SOL    HW150856   2.687   8.716   0.128  2.3051  1.7984 -2.7394
16585SOL    HW250857   2.627   8.591   0.067 -2.2653  0.7334  2.9692
16586SOL     OW50858   0.655   6.701   0.936 -0.8006 -0.3357  0.4458
16586SOL    HW150859   0.594   6.716   0.864 -0.4148  0.8042  0.3371
16586SOL    HW250860   0.701   6.784   0.947  1.2580 -1.3410  0.0555
16587SOL     OW50861   8.217   0.704   3.841 -0.1800 -0.1119 -0.2833
16587SOL    HW150862   8.280   0.776   3.833 -0.5130  0.0166 -1.9389
16587SOL    HW250863   8.137   0.737   3.801 -0.9628 -0.7142  0.7173
16588SOL     OW50864   1.602   9.066   6.209  0.4041 -0.0486  0.0611
16588SOL    HW150865   1.576   9.049   6.299  0.5114  3.1264  0.8110
16588SOL    HW250866   1.668   9.135   6.215 -0.9468  1.6715 -2.4853
16589SOL     OW50867   6.940   3.486   7.324  0.1968  0.1145 -0.2034
16589SOL    HW150868   6.937   3.478   7.229  0.4721  0.6332 -0.2610
16589SOL    HW250869   7.029   3.516   7.343  0.2622 -0.3474  0.2472
16590SOL     OW50870   8.568   4.111   6.507  0.1183  0.0812 -0.0737
16590SOL    HW150871   8.567   4.152   6.594  0.0376 -0.1249  0.0221
16590SOL    HW250872   8.479   4.122   6.474  0.0889 -0.0422 -0.0361
16591SOL     OW50873   1.242   3.173   7.747 -0.4326  0.3865  0.0505
16591SOL    HW150874   1.304   3.181   7.675  2.2319 -3.4892  1.5648
16591SOL    HW250875   1.278   3.227   7.817 -0.6119  0.7234 -0.1152
16592SOL     OW50876   2.233   0.683   5.404 -0.2775 -0.4485 -0.0440
16592SOL    HW150877   2.190   0.738   5.470 -0.5493  0.2584 -0.7926
16592SOL    HW250878   2.292   0.628   5.454 -0.3589  0.1864  0.7822
16593SOL     OW50879   5.676   1.692   0.344  0.5177 -0.2346  0.7332
16593SOL    HW150880   5.599   1.667   0.395 -0.4879  0.2402 -0.4832
16593SOL    HW250881   5.644   1.760   0.284  2.4753  2.0067  2.0156
16594SOL     OW50882   6.463   8.214   5.947 -0.1192  0.1195  0.2594
16594SOL    HW150883   6.554   8.237   5.925  0.2105 -0.3456  1.0751
16594SOL    HW250884   6.435   8.286   6.005  0.2169 -0.4352  1.1393
16595SOL     OW50885   5.193   5.809   2.939  0.4405 -0.6339  0.4696
16595SOL    HW150886   5.187   5.770   3.027  2.2177 -0.2115  0.8280
16595SOL    HW250887   5.167   5.900   2.952  0.1138 -0.7234  0.4383
16596SOL     OW50888   6.467   8.197   4.484  0.0768  0.0274 -0.4154
16596SOL    HW150889   6.562   8.203   4.473  0.0234 -0.9346 -1.4810
16596SOL    HW250890   6.448   8.255   4.559  1.4780  0.2926 -0.2451
16597SOL     OW50891   0.845   8.881   8.324  0.5760 -0.2206  0.0196
16597SOL    HW150892   0.812   8.905   8.410 -0.7704 -3.3034  0.4975
16597SOL    HW250893   0.790   8.930   8.263  0.6171  0.9100  0.8527
16598SOL     OW50894   5.304   1.395   2.207 -0.0606  0.2229 -0.0137
16598SOL    HW150895   5.216   1.385   2.173 -0.0316 -0.2723  0.0555
16598SOL    HW250896   5.362   1.378   2.133 -0.0241  0.6223 -0.0777
16599SOL     OW50897   4.485   5.092   2.415  0.3867  0.2984 -0.2729
16599SOL    HW150898   4.578   5.095   2.393  0.3239 -0.0099 -0.5947
16599SOL    HW250899   4.474   5.159   2.482  0.7445  0.6874 -0.5961
16600SOL     OW50900   3.584   4.762   8.112  0.7092 -0.5057  0.6161
16600SOL    HW150901   3.571   4.689   8.051 -1.8117 -1.0290  1.6241
16600SOL    HW250902   3.568   4.840   8.059  0.8828 -0.8226  0.0908
16601SOL     OW50903   5.877   8.539   8.224  0.2177  0.1138  0.6744
16601SOL    HW150904   5.786   8.546   8.254 -0.9822  0.6294 -2.6888
16601SOL    HW250905   5.894   8.623   8.182  1.8006 -0.4919  0.0519
16602SOL     OW50906   3.338   8.927   8.973  0.1563 -0.7440 -0.2080
16602SOL    HW150907   3.308   8.994   9.035  0.4605 -0.9594  0.1829
16602SOL    HW250908   3.260   8.900   8.926  0.1460  0.4241 -0.9010
16603SOL     OW50909   7.899   3.040   6.962 -0.1975  0.5093  0.7497
16603SOL    HW150910   7.964   3.102   6.996  0.8758 -0.5573  0.7188
16603SOL    HW250911   7.915   2.959   7.009 -0.0827 -0.3882 -0.7462
16604SOL     OW50912   4.338   9.098   1.171  0.1530  0.3543  0.0862
16604SOL    HW150913   4.254   9.052   1.176  0.2967  0.0198 -0.4699
16604SOL    HW250914   4.336   9.144   1.088  0.8082 -0.2520 -0.2826
16605SOL     OW50915   5.275   2.973   5.568  1.1248  0.7592 -0.6091
16605SOL    HW150916   5.312   2.912   5.504 -2.6860 -1.2879 -1.0919
16605SOL    HW250917   5.262   3.054   5.519  1.9615  0.5076 -1.2703
16606SOL     OW50918   8.589   5.387   1.881 -0.0167 -0.7848 -0.3777
16606SOL    HW150919   8.557   5.323   1.818 -0.1372 -0.5033 -0.6023
16606SOL    HW250920   8.609   5.465   1.829 -1.2766 -0.1201  0.0739
16607SOL     OW50921   7.631   0.847   1.391 -0.0164  0.1696  0.4505
16607SOL    HW150922   7.588   0.813   1.469 -0.3075  0.9114  0.6288
16607SOL    HW250923   7.707   0.894   1.425  0.6137 -0.6377  0.1789
16608SOL     OW50924   6.869   7.908   8.708  0.0226 -0.1606 -0.4087
16608SOL    HW150925   6.951   7.861   8.692 -0.1793 -0.3758 -0.8280
16608SOL    HW250926   6.893   7.978   8.768  0.6134  0.0564 -0.8841
16609SOL     OW50927   5.943   3.757   6.184 -0.3293 -0.3578 -0.2937
16609SOL    HW150928   5.934   3.672   6.142 -1.0336 -0.4328 -0.0100
16609SOL    HW250929   5.883   3.753   6.259 -0.3393  0.3669 -0.2551
16610SOL     OW50930   6.489   5.248   1.946  0.0306 -0.3109  0.3001
16610SOL    HW150931   6.400   5.238   1.912  0.5418  0.4074 -1.3603
16610SOL    HW250932   6.481   5.311   2.018 -0.5171  1.5488 -1.3268
16611SOL     OW50933   5.670   3.534   8.372  0.1568  0.0138 -0.3366
16611SOL    HW150934   5.687   3.539   8.278 -1.5862 -1.1785 -0.7610
16611SOL    HW250935   5.736   3.473   8.405 -0.7034 -1.5026 -1.2623
16612SOL     OW50936   1.885   3.643   0.222  0.1830 -0.1822 -0.6546
16612SOL    HW150937   1.880   3.559   0.176  0.0850  0.1096 -1.1843
16612SOL    HW250938   1.839   3.628   0.304  0.7341 -0.8356 -0.4524
16613SOL     OW50939   2.262   1.971   1.694  0.0703 -0.2225  0.2072
16613SOL    HW150940   2.258   1.916   1.773 -0.8244  0.5305  0.7085
16613SOL    HW250941   2.171   1.997   1.679  0.5473  1.7351  0.4428
16614SOL     OW50942   6.354   5.274   8.963  0.3314 -0.3857 -0.4412
16614SOL    HW150943   6.299   5.203   8.996  1.7281 -1.3106 -0.0031
16614SOL    HW250944   6.325   5.287   8.873 -2.4209  1.0524  0.5599
16615SOL     OW50945   0.399   7.453   8.892 -0.2991 -0.2991  0.7668
16615SOL    HW150946   0.381   7.370   8.937 -2.4878  0.1679  0.8735
16615SOL    HW250947   0.379   7.436   8.800 -0.6998  0.0613  0.7789
16616SOL     OW50948   0.818   0.997   3.347 -0.1256 -0.0867  0.3269
16616SOL    HW150949   0.873   0.939   3.400 -1.1457 -2.8128 -1.3531
16616SOL    HW250950   0.741   1.013   3.401  0.1723 -0.3027  0.8275
16617SOL     OW50951   2.885   6.643   3.594 -0.2231  0.7232 -0.1741
16617SOL    HW150952   2.858   6.554   3.616  0.6439  0.7420  1.0974
16617SOL    HW250953   2.981   6.642   3.605 -0.2596  1.9449  0.4155
16618SOL     OW50954   1.589   0.508   4.986  0.1331 -0.4007 -0.3470
16618SOL    HW150955   1.573   0.510   5.080  0.3833 -3.0710 -0.1826
16618SOL    HW250956   1.530   0.574   4.950  0.0747  0.7141  1.6534
16619SOL     OW50957   2.469   5.027   8.490 -0.3837 -0.0391  0.1073
16619SOL    HW150958   2.389   5.057   8.446 -1.0059  0.4780  1.5361
16619SOL    HW250959   2.516   5.108   8.510  0.4957 -0.3384 -0.6766
16620SOL     OW50960   1.042   3.912   2.456  0.1005 -0.4121 -0.1147
16620SOL    HW150961   1.107   3.978   2.479  0.1077 -0.7436  0.8879
16620SOL    HW250962   1.047   3.848   2.528 -2.3777  0.2991  0.8078
16621SOL     OW50963   0.856   0.903   7.942  0.1437  0.3318 -0.3116
16621SOL    HW150964   0.929   0.965   7.946  0.7553 -0.3584 -0.6717
16621SOL    HW250965   0.811   0.913   8.026  2.5563 -1.5342  1.3366
16622SOL     OW50966   5.029   4.688   7.284 -0.0647  0.5624 -0.4717
16622SOL    HW150967   5.020   4.712   7.192  0.4063  0.9596 -0.4179
16622SOL    HW250968   4.953   4.727   7.327 -1.4037 -1.3265 -1.0021
16623SOL     OW50969   0.891   0.786   7.431  0.1073 -0.0377  0.1781
16623SOL    HW150970   0.932   0.793   7.345  1.4645 -1.8159  0.6186
16623SOL    HW250971   0.888   0.692   7.449 -1.6093  0.2048  1.4232
16624SOL     OW50972   4.292   6.566   5.088 -0.1964  0.8802 -0.1169
16624SOL    HW150973   4.321   6.488   5.040 -0.4716  1.2282 -0.8802
16624SOL    HW250974   4.332   6.639   5.040  0.5685  1.1843  0.9569
16625SOL     OW50975   6.613   8.015   2.888 -0.2257  0.1464 -0.0511
16625SOL    HW150976   6.665   7.944   2.851 -0.3012 -0.6644  1.3297
16625SOL    HW250977   6.677   8.074   2.928 -0.1954  0.6175 -0.7820
16626SOL     OW50978   4.005   3.249   2.683 -0.4899 -0.1466 -0.7649
16626SOL    HW150979   3.996   3.245   2.588 -0.6357 -0.0859 -0.7543
16626SOL    HW250980   3.918   3.230   2.716 -0.2282 -1.1337 -0.6147
16627SOL     OW50981   2.249   1.899   7.030 -0.0787 -0.6185  0.2389
16627SOL    HW150982   2.345   1.893   7.028 -0.0372 -1.7751 -3.9747
16627SOL    HW250983   2.220   1.810   7.048 -0.4122 -0.2839  1.4274
16628SOL     OW50984   4.128   4.238   0.199  0.6676  0.0696  0.2243
16628SOL    HW150985   4.181   4.176   0.248  0.7416 -0.8045 -0.9421
16628SOL    HW250986   4.191   4.294   0.154  0.5983 -0.0424 -0.0116
16629SOL     OW50987   8.121   1.931   1.539  0.1298  0.5440 -0.3052
16629SOL    HW150988   8.056   1.958   1.603  0.6306  2.5560 -0.5905
16629SOL    HW250989   8.171   1.862   1.583  0.3328  1.7245  1.3939
16630SOL     OW50990   4.637   3.772   0.952  0.1765 -0.1437  0.1170
16630SOL    HW150991   4.559   3.827   0.955 -0.1680 -0.5402 -1.1459
16630SOL    HW250992   4.687   3.805   0.878  0.8381 -0.3880  0.4459
16631SOL     OW50993   5.723   8.119   3.687  0.2167  0.3034  0.2568
16631SOL    HW150994   5.645   8.174   3.684  0.2531  0.3279 -1.7199
16631SOL    HW250995   5.785   8.168   3.741 -1.2021  0.1179  2.1423
16632SOL     OW50996   4.998   5.070   1.251 -0.1335  0.2839  0.2824
16632SOL    HW150997   4.987   5.103   1.341 -2.4580 -1.6586  0.8302
16632SOL    HW250998   4.918   5.020   1.235  0.4051  0.2492 -2.7739
16633SOL     OW50999   7.412   3.429   2.561  0.1247 -0.0226  0.4382
16633SOL    HW151000   7.435   3.511   2.517  0.0228  0.7729  1.7996
16633SOL    HW251001   7.496   3.384   2.573  0.1520 -0.2446 -0.5314
16634SOL     OW51002   9.047   5.114   8.997  0.2216 -0.7885  0.5728
16634SOL    HW151003   9.007   5.093   8.912  1.1345 -2.0845  0.4443
16634SOL    HW251004   9.053   5.210   8.997  1.1848 -0.8009 -1.2903
16635SOL     OW51005   8.116   6.657   5.117 -0.7649  0.0123 -0.4498
16635SOL    HW151006   8.134   6.732   5.060 -1.7525 -1.0886 -2.3392
16635SOL    HW251007   8.199   6.638   5.159 -0.6077  2.4495  0.4944
16636SOL     OW51008   5.530   8.199   4.240 -0.6762  0.3051 -0.4109
16636SOL    HW151009   5.551   8.201   4.333 -2.0579 -0.9202 -0.0271
16636SOL    HW251010   5.477   8.277   4.226 -0.3680  0.5533 -0.2014
16637SOL     OW51011   8.346   1.559   2.738  0.1640  0.3876 -0.8190
16637SOL    HW151012   8.385   1.502   2.671 -1.0913 -0.1652 -1.1055
16637SOL    HW251013   8.253   1.560   2.717 -0.2877  0.0812  1.0266
16638SOL     OW51014   1.777   7.294   1.034  0.0724  0.2851 -0.3028
16638SOL    HW151015   1.807   7.316   1.123  0.3066 -0.5355 -0.1742
16638SOL    HW251016   1.716   7.365   1.012  1.8273  1.8252 -0.4446
16639SOL     OW51017   1.556   8.944   5.603 -0.5998 -0.3649  0.2431
16639SOL    HW151018   1.534   9.009   5.537 -1.9733  0.7632  1.7249
16639SOL    HW251019   1.476   8.892   5.613 -0.6409 -0.1055  1.4267
16640SOL     OW51020   7.022   4.344   1.397 -0.7044 -0.0012  0.0838
16640SOL    HW151021   7.030   4.431   1.436  0.8506  0.9377 -2.1313
16640SOL    HW251022   7.035   4.284   1.470  0.6393  1.6579  1.2870
16641SOL     OW51023   0.535   4.414   1.790 -0.4969 -0.1208  0.1988
16641SOL    HW151024   0.630   4.430   1.790 -0.5354  0.1951  1.3577
16641SOL    HW251025   0.526   4.320   1.778 -0.1227  0.1053 -2.2907
16642SOL     OW51026   6.223   3.338   3.745  0.0610 -0.1817 -0.7457
16642SOL    HW151027   6.208   3.418   3.796  0.1571 -0.5408 -0.1335
16642SOL    HW251028   6.281   3.365   3.674 -2.2491  0.9252 -2.3271
16643SOL     OW51029   2.470   1.125   8.245 -0.8160  0.3239  0.5805
16643SOL    HW151030   2.407   1.086   8.185  0.3042  0.9037 -1.0223
16643SOL    HW251031   2.555   1.095   8.214 -0.1327  1.5872  1.1534
16644SOL     OW51032   3.282   4.025   4.519 -0.2701 -0.3424 -0.3857
16644SOL    HW151033   3.316   3.938   4.538 -0.2604  0.0174  1.4118
16644SOL    HW251034   3.190   4.011   4.496 -0.5948 -0.7360  1.0875
16645SOL     OW51035   8.445   3.143   4.801  0.4154 -0.1444  0.6769
16645SOL    HW151036   8.410   3.225   4.768  2.3188  1.6586  2.8146
16645SOL    HW251037   8.377   3.110   4.860 -0.7086 -0.6300 -0.8123
16646SOL     OW51038   7.179   4.078   0.489 -0.2994 -0.2306 -0.1693
16646SOL    HW151039   7.191   4.167   0.456 -1.2206  0.7138  1.8248
16646SOL    HW251040   7.220   4.079   0.575 -0.4418 -1.7152 -0.0559
16647SOL     OW51041   0.685   4.300   6.376  0.1232  0.2524 -0.0568
16647SOL    HW151042   0.673   4.381   6.426  1.6062 -0.5829  1.7870
16647SOL    HW251043   0.776   4.276   6.392  0.6889 -0.0787 -3.2764
16648SOL     OW51044   0.574   6.821   0.623  0.3308 -0.6149 -0.0297
16648SOL    HW151045   0.559   6.886   0.691  2.0957 -0.8452  0.6395
16648SOL    HW251046   0.509   6.753   0.639  0.1200 -0.2201  0.8416
16649SOL     OW51047   8.237   4.710   6.779 -0.0285 -0.1797  0.2975
16649SOL    HW151048   8.225   4.622   6.815 -1.3834  0.4411  1.4520
16649SOL    HW251049   8.159   4.725   6.726  0.0990  0.3894  0.2648
16650SOL     OW51050   8.222   4.217   4.098  0.7960  0.4625 -0.0769
16650SOL    HW151051   8.268   4.220   4.182  1.7608  1.3968 -0.6067
16650SOL    HW251052   8.130   4.230   4.120  0.7535 -1.3446  1.0018
16651SOL     OW51053   2.965   7.339   6.679  0.3444 -0.2557 -0.5235
16651SOL    HW151054   2.999   7.258   6.716 -1.3656 -0.7346  0.1320
16651SOL    HW251055   2.969   7.402   6.751  0.0146 -0.2779 -0.4823
16652SOL     OW51056   4.242   5.338   1.690  0.0981 -0.2973  0.3984
16652SOL    HW151057   4.214   5.369   1.604  0.6372 -0.9441 -0.0145
16652SOL    HW251058   4.227   5.244   1.687  1.5080 -0.5360  0.4738
16653SOL     OW51059   2.893   5.904   8.690 -0.0714 -0.4835  0.4370
16653SOL    HW151060   2.887   5.956   8.610  0.3372  1.8785  1.8428
16653SOL    HW251061   2.937   5.823   8.663  0.4977  0.4488 -1.6190
16654SOL     OW51062   8.131   0.440   1.449  0.2250 -0.1302 -1.0611
16654SOL    HW151063   8.071   0.380   1.406 -0.1899  0.2668 -1.0493
16654SOL    HW251064   8.098   0.527   1.426 -1.0622  0.1437  1.4326
16655SOL     OW51065   1.739   2.596   6.967  0.5387 -0.1811  0.0237
16655SOL    HW151066   1.757   2.617   7.058  1.6799 -1.8932  0.2438
16655SOL    HW251067   1.676   2.524   6.971  1.9754 -1.5195 -0.4309
16656SOL     OW51068   0.926   2.085   3.855 -0.0055 -0.5614  0.1425
16656SOL    HW151069   1.019   2.101   3.837  0.1616 -0.2595  1.1968
16656SOL    HW251070   0.920   1.991   3.870  0.3803 -0.4023  1.3697
16657SOL     OW51071   7.182   5.738   2.426  0.5118  0.4695  0.2994
16657SOL    HW151072   7.262   5.751   2.375 -0.0320  1.3697 -0.3502
16657SOL    HW251073   7.189   5.799   2.499  0.8350 -0.1185  0.7724
16658SOL     OW51074   5.164   4.578   6.424  0.6958 -0.1462 -0.3054
16658SOL    HW151075   5.090   4.622   6.467 -0.0834 -0.7017 -1.0265
16658SOL    HW251076   5.167   4.616   6.337  0.6173 -0.8306 -0.6149
16659SOL     OW51077   1.432   8.098   4.565  0.4939  0.0192 -0.2400
16659SOL    HW151078   1.519   8.128   4.538  0.9457 -0.8788  0.1842
16659SOL    HW251079   1.442   8.004   4.577  0.8306  0.4416  4.7268
16660SOL     OW51080   2.623   2.446   5.862 -0.4809 -0.3933 -0.7697
16660SOL    HW151081   2.610   2.430   5.768  1.1541 -3.4469 -0.5872
16660SOL    HW251082   2.714   2.474   5.869 -0.8717  0.7808 -0.1386
16661SOL     OW51083   8.871   0.894   0.195  0.5667  0.5329 -0.0926
16661SOL    HW151084   8.931   0.965   0.171  0.9463  0.4994  0.7137
16661SOL    HW251085   8.885   0.827   0.129  0.7331  0.9127 -0.4480
16662SOL     OW51086   0.250   6.688   4.689 -0.2688 -0.3020  0.0857
16662SOL    HW151087   0.262   6.699   4.595 -2.5176  0.1138 -0.2060
16662SOL    HW251088   0.201   6.606   4.698  0.4969 -0.6842  0.9615
16663SOL     OW51089   6.619   1.618   8.976  0.1034 -1.1903 -0.1553
16663SOL    HW151090   6.702   1.664   8.965  0.7722 -1.8158  1.8946
16663SOL    HW251091   6.557   1.668   8.922  0.7137  2.3129  2.0769
16664SOL     OW51092   5.740   8.392   5.900 -0.1354 -0.4052 -0.0292
16664SOL    HW151093   5.755   8.371   5.992 -0.7646 -0.2512  0.1160
16664SOL    HW251094   5.826   8.419   5.867  0.2075 -1.0017  0.3653
16665SOL     OW51095   6.659   6.520   1.287 -0.2178 -0.3814 -0.3215
16665SOL    HW151096   6.644   6.521   1.193 -0.8653 -2.6531 -0.3102
16665SOL    HW251097   6.571   6.526   1.326 -0.2060 -1.8697  0.0260
16666SOL     OW51098   5.919   8.857   7.800  0.2503  0.3499  0.2104
16666SOL    HW151099   5.873   8.936   7.771 -0.6406 -0.5982 -1.0860
16666SOL    HW251100   5.857   8.814   7.859  0.2994  0.1027  0.0834
16667SOL     OW51101   7.279   7.607   8.414 -0.0865  0.2831  0.2533
16667SOL    HW151102   7.357   7.639   8.369 -0.0554  1.9093  1.3728
16667SOL    HW251103   7.240   7.545   8.353  2.3929 -1.0872 -0.0882
16668SOL     OW51104   7.043   7.067   6.406  0.0865  0.2618  0.5193
16668SOL    HW151105   7.019   7.048   6.496 -0.4954  0.3937  0.3933
16668SOL    HW251106   7.119   7.011   6.389  0.2760  0.3293  1.1259
16669SOL     OW51107   5.013   2.402   4.010  0.1288 -0.2244 -0.4226
16669SOL    HW151108   4.977   2.468   4.069  0.6853 -0.5946  0.3543
16669SOL    HW251109   5.107   2.420   4.008  0.1554 -0.3956 -0.9741
16670SOL     OW51110   2.657   3.599   7.394  0.1177  0.1459  0.2912
16670SOL    HW151111   2.647   3.525   7.335  1.6218  0.4705 -0.4275
16670SOL    HW251112   2.725   3.571   7.456 -1.0986 -0.0086  1.6019
16671SOL     OW51113   2.908   8.131   2.059  0.4427  0.3632 -0.3179
16671SOL    HW151114   2.866   8.212   2.030  0.2766  0.4013  0.0222
16671SOL    HW251115   2.966   8.107   1.988  2.0921  1.9129  0.4352
16672SOL     OW51116   4.705   7.509   8.415 -0.0470  0.6910  0.0555
16672SOL    HW151117   4.655   7.437   8.376 -0.1478  2.0469 -2.4902
16672SOL    HW251118   4.644   7.583   8.415  0.6323  1.2670  0.9357
16673SOL     OW51119   5.697   8.119   4.750 -0.5286  0.5190  0.1790
16673SOL    HW151120   5.673   8.043   4.804 -1.2789  0.6830  0.0916
16673SOL    HW251121   5.675   8.195   4.803  0.2059  0.6827  0.2579
16674SOL     OW51122   7.125   4.423   7.481  0.1010 -0.0697 -0.1171
16674SOL    HW151123   7.092   4.355   7.423  1.9123 -0.8792 -0.2868
16674SOL    HW251124   7.060   4.430   7.551  0.4830 -2.9824  0.6488
16675SOL     OW51125   1.987   8.804   7.996 -0.0804 -0.0885 -0.4801
16675SOL    HW151126   1.986   8.711   8.017 -3.0520 -0.2951 -1.1047
16675SOL    HW251127   2.053   8.812   7.926  1.7813 -1.2564  1.0354
16676SOL     OW51128   7.039   6.127   4.104 -0.4220  0.0841 -0.1231
16676SOL    HW151129   7.051   6.132   4.009 -2.0293  0.5972 -0.3179
16676SOL    HW251130   6.993   6.045   4.119 -0.2944  0.0703  0.2039
16677SOL     OW51131   6.699   2.850   1.334  0.2834  0.0081  0.0600
16677SOL    HW151132   6.760   2.909   1.290 -0.4010 -0.7618 -2.0303
16677SOL    HW251133   6.738   2.836   1.421  3.1112 -0.4260 -1.1613
16678SOL     OW51134   5.118   6.278   1.260  0.3656  0.1782  0.7394
16678SOL    HW151135   5.189   6.314   1.312  0.5271  0.7598  0.1229
16678SOL    HW251136   5.160   6.215   1.201  0.6255  1.6715 -0.7292
16679SOL     OW51137   7.794   9.103   7.727  0.1933  0.4999  0.5064
16679SOL    HW151138   7.830   9.101   7.816  0.0185 -1.4629  0.5804
16679SOL    HW251139   7.700   9.089   7.739 -0.0845  1.8963  0.0912
16680SOL     OW51140   9.053   6.992   5.573 -0.1824  0.6956 -0.2045
16680SOL    HW151141   9.086   6.939   5.646 -1.3012  2.5051  1.7077
16680SOL    HW251142   8.958   6.980   5.575 -0.1703 -0.0356 -2.0795
16681SOL     OW51143   5.943   5.867   1.553 -0.9547  0.3606  0.2175
16681SOL    HW151144   6.030   5.844   1.584 -1.0268 -2.6318 -1.3602
16681SOL    HW251145   5.947   5.961   1.536  1.0925  0.8127  2.6345
16682SOL     OW51146   7.063   2.859   5.483 -0.0439  0.0478  0.0404
16682SOL    HW151147   7.094   2.777   5.444 -1.1134  0.2659 -1.3758
16682SOL    HW251148   6.983   2.879   5.434 -1.7158  0.1545  2.6559
16683SOL     OW51149   3.247   1.604   0.968  0.1760 -0.0726  0.1535
16683SOL    HW151150   3.287   1.688   0.946  0.9925 -0.9395 -1.8798
16683SOL    HW251151   3.315   1.540   0.952 -0.8375 -1.2472  0.3812
16684SOL     OW51152   1.076   8.869   2.057 -0.1881 -0.5663 -0.4442
16684SOL    HW151153   0.996   8.866   2.004 -0.0514  1.9928 -0.9066
16684SOL    HW251154   1.045   8.881   2.147 -0.3418 -1.5981 -0.3485
16685SOL     OW51155   0.800   4.896   0.468 -0.3938 -0.1378  0.2392
16685SOL    HW151156   0.705   4.905   0.471 -0.3208  0.3447  1.9948
16685SOL    HW251157   0.831   4.948   0.542  1.0701 -2.6173  1.4779
16686SOL     OW51158   6.378   7.612   5.926 -0.6147  0.1808 -0.5045
16686SOL    HW151159   6.376   7.597   5.831  0.1220  1.5092 -0.7544
16686SOL    HW251160   6.447   7.553   5.957 -0.1433  0.4720 -0.9619
16687SOL     OW51161   7.211   1.070   3.540 -0.1100 -0.3494 -0.2066
16687SOL    HW151162   7.189   1.114   3.622 -0.8107  0.1914 -0.6730
16687SOL    HW251163   7.229   0.980   3.566 -0.8191 -0.3099  0.4808
16688SOL     OW51164   7.839   6.360   5.091 -0.5547 -0.6464 -0.4321
16688SOL    HW151165   7.766   6.415   5.066 -0.3187 -0.0278  0.2227
16688SOL    HW251166   7.801   6.293   5.148 -0.5617 -0.1341  0.1703
16689SOL     OW51167   8.803   6.931   7.455 -0.5181  0.1038 -0.0884
16689SOL    HW151168   8.709   6.911   7.458 -0.6203  0.6491  0.9850
16689SOL    HW251169   8.842   6.870   7.517 -0.0819 -0.4787 -0.9251
16690SOL     OW51170   1.212   3.394   8.827  0.1397  0.3393 -0.0268
16690SOL    HW151171   1.268   3.382   8.904  0.7563  0.8895 -0.3723
16690SOL    HW251172   1.254   3.465   8.778  0.4291 -0.7749 -1.4681
16691SOL     OW51173   2.398   1.322   7.012  0.1315  0.3183  0.2472
16691SOL    HW151174   2.329   1.270   6.971  0.9366 -0.1562 -0.5338
16691SOL    HW251175   2.454   1.351   6.940  1.4709 -0.3827  0.9501
16692SOL     OW51176   8.036   2.672   7.464  0.1815  0.0707 -0.0939
16692SOL    HW151177   8.051   2.692   7.557 -3.2229 -1.8466  1.0236
16692SOL    HW251178   8.094   2.598   7.446  0.5163  0.1408  0.6364
16693SOL     OW51179   5.007   4.620   0.806  0.4994 -0.4261 -0.8255
16693SOL    HW151180   4.942   4.672   0.854 -0.6984 -1.3793 -1.3546
16693SOL    HW251181   5.008   4.535   0.852 -0.6598 -1.3494 -2.4074
16694SOL     OW51182   0.165   7.052   6.219  0.3506 -0.0973 -0.3049
16694SOL    HW151183   0.076   7.083   6.205  0.0885 -1.1987 -1.2664
16694SOL    HW251184   0.205   7.117   6.276 -0.2586  1.8176 -1.9554
16695SOL     OW51185   6.466   5.670   0.087  0.0526 -0.1740  0.6037
16695SOL    HW151186   6.448   5.763   0.096 -0.1134 -0.1488  0.0515
16695SOL    HW251187   6.410   5.642   0.014  1.3875 -0.3362 -0.4000
16696SOL     OW51188   1.077   2.890   4.390  0.4427 -0.1240  0.2608
16696SOL    HW151189   1.099   2.842   4.310  1.7321 -0.5853  0.8747
16696SOL    HW251190   1.064   2.823   4.456  0.9829  0.3219  0.8242
16697SOL     OW51191   8.700   8.579   1.660  0.2855 -0.2644 -0.7504
16697SOL    HW151192   8.606   8.581   1.642  0.0911 -1.3432  0.0625
16697SOL    HW251193   8.739   8.633   1.591 -0.8167 -0.7222 -1.7655
16698SOL     OW51194   8.682   2.763   7.856 -0.5733 -0.0934 -0.3058
16698SOL    HW151195   8.673   2.668   7.854  0.1543 -0.1651 -0.5801
16698SOL    HW251196   8.601   2.796   7.818 -2.8237 -0.4298  3.6801
16699SOL     OW51197   8.922   5.530   1.050  0.4805 -0.1372  0.6836
16699SOL    HW151198   9.000   5.474   1.050  0.2067 -0.5227  0.5582
16699SOL    HW251199   8.939   5.595   1.117  0.9203 -0.2139  0.6459
16700SOL     OW51200   4.764   2.976   1.362 -0.5251  0.0936 -0.2770
16700SOL    HW151201   4.819   3.013   1.430 -0.0139  0.1021 -0.6901
16700SOL    HW251202   4.737   2.891   1.397 -1.4720  0.7118  0.5504
16701SOL     OW51203   7.457   5.470   3.538 -0.5155  0.3042  0.2039
16701SOL    HW151204   7.468   5.444   3.630 -0.9689 -1.5774 -0.2355
16701SOL    HW251205   7.377   5.522   3.537 -1.5663 -1.2403  0.6198
16702SOL     OW51206   1.018   8.068   7.500 -1.0889  0.3541  0.0919
16702SOL    HW151207   1.035   8.068   7.594 -0.1832 -0.0592 -0.0600
16702SOL    HW251208   1.048   8.154   7.471  1.2929 -0.4914 -0.2318
16703SOL     OW51209   8.994   3.641   6.030  0.4247 -0.0577  0.2906
16703SOL    HW151210   8.953   3.631   6.116  1.3298  0.2473  0.7693
16703SOL    HW251211   9.053   3.567   6.023  0.8788  0.3051  0.2360
16704SOL     OW51212   8.914   7.978   6.604 -0.4947 -0.4781 -0.0899
16704SOL    HW151213   8.980   7.970   6.673 -0.1550  2.1627 -0.0146
16704SOL    HW251214   8.962   7.972   6.522  0.0721  2.2626 -0.0404
16705SOL     OW51215   7.801   4.769   5.255  0.3272  0.2008 -0.2334
16705SOL    HW151216   7.706   4.780   5.255  0.4016  1.0668 -1.7638
16705SOL    HW251217   7.819   4.713   5.179  1.0109 -0.2764  0.2681
16706SOL     OW51218   2.485   8.767   2.522 -0.3493 -0.8112 -0.3842
16706SOL    HW151219   2.463   8.690   2.575 -0.0534 -0.4439  0.2939
16706SOL    HW251220   2.561   8.805   2.566 -0.9637  0.3021 -0.2454
16707SOL     OW51221   1.735   8.771   3.350  0.0189  0.0280 -0.4386
16707SOL    HW151222   1.827   8.766   3.324  0.0816  1.3868 -0.5432
16707SOL    HW251223   1.707   8.679   3.359  1.5265 -0.3942  0.1519
16708SOL     OW51224   5.252   2.612   0.113 -0.0622 -0.1871 -0.4248
16708SOL    HW151225   5.196   2.683   0.145  1.7302  0.6246  1.0582
16708SOL    HW251226   5.307   2.653   0.046 -1.4070 -1.0727 -2.1625
16709SOL     OW51227   7.521   1.450   3.188  0.3933 -0.5872  0.1323
16709SOL    HW151228   7.548   1.367   3.228 -2.2290 -1.7512 -0.3508
16709SOL    HW251229   7.516   1.431   3.094  0.8718  0.4762 -0.1218
16710SOL     OW51230   6.732   4.330   0.068  0.4756  0.6133 -0.2889
16710SOL    HW151231   6.809   4.311   0.015 -0.6490 -0.2523 -1.7174
16710SOL    HW251232   6.740   4.272   0.144  1.2626  0.5830 -0.3873
16711SOL     OW51233   3.145   1.167   5.734 -0.1776  0.2983  0.1548
16711SOL    HW151234   3.207   1.126   5.793 -1.6365 -0.9275  0.9229
16711SOL    HW251235   3.121   1.249   5.777  1.4022  1.1325 -0.5003
16712SOL     OW51236   8.637   8.345   7.695 -0.3714 -0.2257 -0.4034
16712SOL    HW151237   8.613   8.431   7.731 -1.7308 -0.9027  0.3682
16712SOL    HW251238   8.732   8.340   7.708 -0.6365  0.0638  2.0611
16713SOL     OW51239   8.988   8.120   0.276 -0.0508 -0.1589  0.4524
16713SOL    HW151240   9.027   8.195   0.230 -0.9017  1.6001  2.4701
16713SOL    HW251241   9.032   8.119   0.361 -1.5257 -0.6173  1.2390
16714SOL     OW51242   5.967   4.796   2.954  0.1739  0.5207 -0.4281
16714SOL    HW151243   5.901   4.786   2.886  0.4594 -0.3052 -0.5958
16714SOL    HW251244   6.003   4.884   2.940 -0.6196  0.8280 -0.5697
16715SOL     OW51245   1.810   2.565   3.480 -0.2404 -0.2172  0.2018
16715SOL    HW151246   1.774   2.500   3.541 -0.6197 -1.6056 -1.4327
16715SOL    HW251247   1.905   2.556   3.488 -0.2893 -0.5549  0.3998
16716SOL     OW51248   3.669   0.435   0.099  0.1170  0.0741 -0.1519
16716SOL    HW151249   3.595   0.494   0.085 -0.3453 -0.0484  1.4920
16716SOL    HW251250   3.746   0.492   0.101  0.2564  0.1008 -2.8428
16717SOL     OW51251   3.871   3.319   7.078  0.3546  0.0146  0.0818
16717SOL    HW151252   3.811   3.388   7.052  0.1365  0.9085  2.6421
16717SOL    HW251253   3.954   3.364   7.096  0.1758 -0.2885  1.8891
16718SOL     OW51254   3.805   3.693   4.552 -0.1826 -0.5030  0.2679
16718SOL    HW151255   3.789   3.768   4.610  0.3216  0.5962 -0.9721
16718SOL    HW251256   3.885   3.653   4.587 -0.8832 -0.9787  1.4120
16719SOL     OW51257   5.420   4.708   4.055  0.0063  0.5773  0.4236
16719SOL    HW151258   5.441   4.796   4.086 -0.8301  0.6661  0.7689
16719SOL    HW251259   5.471   4.699   3.974  1.9136  0.4798  1.5760
16720SOL     OW51260   6.122   1.278   0.003 -0.1970  0.0055 -0.9326
16720SOL    HW151261   6.066   1.220   0.055 -0.9549  1.7390  0.2969
16720SOL    HW251262   6.115   1.244  -0.086 -1.5231 -1.0869 -0.4550
16721SOL     OW51263   7.688   4.281   7.937 -0.2777  0.3634 -0.4434
16721SOL    HW151264   7.776   4.271   7.975 -0.8809  0.6981  1.1481
16721SOL    HW251265   7.646   4.346   7.993 -1.7440 -0.2617 -0.7845
16722SOL     OW51266   1.994   4.459   2.308  0.3899 -0.0210  0.0665
16722SOL    HW151267   1.968   4.508   2.231  0.3075 -1.0997 -0.6136
16722SOL    HW251268   1.990   4.522   2.380 -2.1746  0.3453 -0.3227
16723SOL     OW51269   4.127   5.175   5.100  0.0502 -0.0947  0.1494
16723SOL    HW151270   4.098   5.197   5.012 -2.2859  0.1100  0.8953
16723SOL    HW251271   4.220   5.155   5.091  0.2155  1.4105 -2.0672
16724SOL     OW51272   3.305   3.007   7.221 -0.2634 -0.0299 -0.3106
16724SOL    HW151273   3.245   2.952   7.170 -0.0101  0.1724 -0.8378
16724SOL    HW251274   3.271   3.003   7.310  0.2249 -1.7076 -0.1702
16725SOL     OW51275   7.850   0.016   5.188 -0.1601  0.1015 -0.3738
16725SOL    HW151276   7.938  -0.007   5.160 -0.3351 -0.6370 -0.3377
16725SOL    HW251277   7.799  -0.065   5.177 -0.1462 -0.4035  2.5153
16726SOL     OW51278   0.564   5.930   1.506  0.0818 -0.0554  0.4568
16726SOL    HW151279   0.469   5.928   1.499  0.1027 -1.2250  0.3237
16726SOL    HW251280   0.582   5.902   1.596  0.3269 -1.0615  0.1066
16727SOL     OW51281   0.253   8.781   1.466  0.6794 -0.3553 -0.0941
16727SOL    HW151282   0.228   8.741   1.382  2.4829  0.5236 -1.1215
16727SOL    HW251283   0.345   8.755   1.477  0.6054 -0.0284  1.3761
16728SOL     OW51284   6.525   8.160   5.022 -0.1183 -0.2118  0.3470
16728SOL    HW151285   6.466   8.102   5.071 -2.2326  0.6264 -1.0642
16728SOL    HW251286   6.498   8.248   5.049  0.5382  0.1879 -0.2853
16729SOL     OW51287   6.515   1.215   6.359 -0.1201 -0.3720  0.2261
16729SOL    HW151288   6.468   1.269   6.422 -0.7473 -1.3585  0.6246
16729SOL    HW251289   6.447   1.180   6.302 -0.0052 -2.3262  1.1924
16730SOL     OW51290   6.400   6.588   1.545 -0.8583 -0.1660  0.2757
16730SOL    HW151291   6.325   6.604   1.602  0.9590  1.1354  2.5083
16730SOL    HW251292   6.421   6.496   1.558 -0.5521  0.0834  1.6883
16731SOL     OW51293   7.667   8.313   6.023 -0.6794 -0.0324 -0.2553
16731SOL    HW151294   7.588   8.341   5.977 -0.5047  1.8618  0.5135
16731SOL    HW251295   7.640   8.305   6.115 -0.3471 -0.9336 -0.2298
16732SOL     OW51296   4.353   4.823   2.247  0.4047 -0.1627 -0.0810
16732SOL    HW151297   4.285   4.788   2.305 -0.6912 -0.3412 -1.4389
16732SOL    HW251298   4.423   4.850   2.307 -0.1526 -1.4867  1.2374
16733SOL     OW51299   5.617   5.115   6.292  0.8490  0.1526  0.1036
16733SOL    HW151300   5.631   5.021   6.286  1.3736  0.0364  2.3623
16733SOL    HW251301   5.684   5.146   6.352 -0.7752  1.5881  1.2911
16734SOL     OW51302   3.441   1.156   7.727  0.7638 -0.4418  0.0496
16734SOL    HW151303   3.473   1.202   7.650  1.4509 -1.5327 -0.3458
16734SOL    HW251304   3.486   1.071   7.725  0.0887 -0.8555  1.1380
16735SOL     OW51305   7.976   9.106   6.534  0.1661  0.5261  0.3506
16735SOL    HW151306   7.923   9.119   6.612  0.0741 -0.6468  0.5049
16735SOL    HW251307   8.034   9.033   6.556  0.1662  0.2057 -0.6588
16736SOL     OW51308   3.598   2.286   1.754  0.3554 -0.1317  0.0471
16736SOL    HW151309   3.625   2.368   1.794 -0.2139 -0.2705  0.7378
16736SOL    HW251310   3.517   2.307   1.707  0.7472 -0.0811 -0.6112
16737SOL     OW51311   7.143   5.737   5.216  0.3131 -0.1122  0.6694
16737SOL    HW151312   7.202   5.695   5.154  1.2349  0.5691  1.0339
16737SOL    HW251313   7.058   5.698   5.201 -0.2522  2.0881 -3.1131
16738SOL     OW51314   7.739   7.180   6.156  0.0901 -0.4228  0.5444
16738SOL    HW151315   7.715   7.272   6.165  1.2304 -0.1006  0.3711
16738SOL    HW251316   7.704   7.138   6.235 -0.5449  0.1279  0.5611
16739SOL     OW51317   4.939   6.553   4.663  0.4471  0.0561  0.0676
16739SOL    HW151318   4.925   6.591   4.577 -0.5327  1.1788  0.6866
16739SOL    HW251319   4.881   6.603   4.721  0.2011 -1.4334  1.1763
16740SOL     OW51320   5.614   4.603   5.052  0.7548  0.1011 -0.0432
16740SOL    HW151321   5.705   4.606   5.081  1.2587 -2.6893 -1.0123
16740SOL    HW251322   5.567   4.562   5.125  0.3744  0.9613  0.2039
16741SOL     OW51323   2.108   8.723   7.508 -0.4905 -0.0090 -0.9417
16741SOL    HW151324   2.139   8.670   7.435 -0.7082  0.6599 -1.5365
16741SOL    HW251325   2.126   8.670   7.586 -0.1397 -0.6793 -1.4663
16742SOL     OW51326   3.137   4.643   6.443 -0.3108  0.1653 -0.0551
16742SOL    HW151327   3.222   4.685   6.454 -0.2765 -0.2376  1.4367
16742SOL    HW251328   3.076   4.699   6.493 -1.0731  0.8494 -1.6894
16743SOL     OW51329   2.569   7.557   8.590  0.0898  0.5111  0.1889
16743SOL    HW151330   2.533   7.505   8.662  0.1986 -1.2612 -0.9892
16743SOL    HW251331   2.516   7.534   8.514  0.8635  1.2787 -0.6122
16744SOL     OW51332   1.539   6.324   5.598  0.7183  0.2899  0.2880
16744SOL    HW151333   1.448   6.349   5.615  0.5443 -0.0298 -0.1644
16744SOL    HW251334   1.539   6.228   5.602  0.9126  0.2616 -0.3059
16745SOL     OW51335   4.131   6.368   1.756 -0.1124 -0.4005  0.1183
16745SOL    HW151336   4.198   6.310   1.791  0.0692  0.0910  0.6071
16745SOL    HW251337   4.091   6.408   1.833 -1.1485 -0.8725 -0.1556
16746SOL     OW51338   1.031   2.867   3.533  0.2150 -0.0915  0.4599
16746SOL    HW151339   1.078   2.803   3.586  0.0365 -2.2290 -1.7974
16746SOL    HW251340   1.096   2.900   3.471 -0.1511  0.4403  0.3501
16747SOL     OW51341   4.707   0.602   4.676 -0.3803 -0.0631 -0.2728
16747SOL    HW151342   4.683   0.636   4.590  2.8710  1.0560 -0.8543
16747SOL    HW251343   4.711   0.679   4.732  1.1073 -0.2545 -0.0773
16748SOL     OW51344   1.785   1.424   2.606  0.7090  0.0652 -0.1630
16748SOL    HW151345   1.733   1.414   2.526 -2.0978 -1.5122  1.6779
16748SOL    HW251346   1.786   1.518   2.622  1.3447  0.4145 -2.0202
16749SOL     OW51347   1.757   0.579   4.065  0.0136 -0.7701 -0.2568
16749SOL    HW151348   1.833   0.570   4.122  0.6883 -1.3062 -1.2163
16749SOL    HW251349   1.695   0.512   4.095 -0.3389  0.0170  0.8715
16750SOL     OW51350   5.586   8.727   5.965  0.2266 -0.3632  0.1192
16750SOL    HW151351   5.651   8.795   5.946  0.4156 -0.2415  1.1728
16750SOL    HW251352   5.607   8.697   6.053 -1.0301 -0.4597  0.4056
16751SOL     OW51353   6.998   1.937   8.890  0.3922 -0.0930 -0.3846
16751SOL    HW151354   7.077   1.986   8.913  1.3398 -1.2105 -1.1569
16751SOL    HW251355   6.950   1.994   8.830 -0.2602  1.2929  1.3638
16752SOL     OW51356   0.448   4.586   6.187  0.3000  0.1735  0.3539
16752SOL    HW151357   0.450   4.626   6.100  1.7974  0.6093  0.5711
16752SOL    HW251358   0.376   4.523   6.182  0.9408 -0.4739 -1.4922
16753SOL     OW51359   4.343   1.515   2.151 -0.1042  0.8785  0.6835
16753SOL    HW151360   4.361   1.580   2.082  1.2491 -0.7295 -0.5730
16753SOL    HW251361   4.430   1.487   2.180 -0.5815 -1.5422 -0.0194
16754SOL     OW51362   5.175   6.972   5.925  0.2995  0.1663 -0.6047
16754SOL    HW151363   5.173   6.953   5.831  1.3646 -0.7210 -0.4736
16754SOL    HW251364   5.189   7.066   5.931 -0.1101  0.2785 -1.3335
16755SOL     OW51365   7.319   8.072   5.492 -0.7202 -0.1078 -0.0455
16755SOL    HW151366   7.391   8.113   5.540 -0.4148 -0.2925 -0.3397
16755SOL    HW251367   7.362   8.021   5.423 -1.1464  0.0564 -0.4394
16756SOL     OW51368   5.528   5.388   3.620  0.1524  0.0851 -0.2664
16756SOL    HW151369   5.531   5.356   3.710  0.7286  1.7194  0.3188
16756SOL    HW251370   5.474   5.324   3.574  0.2893 -1.0666  1.1082
16757SOL     OW51371   7.996   5.302   8.912 -0.4185  0.0346 -0.1522
16757SOL    HW151372   8.000   5.334   9.002  0.9894  3.4076 -1.2258
16757SOL    HW251373   8.087   5.290   8.887 -0.7352  0.0377 -1.3705
16758SOL     OW51374   8.802   8.876   0.609  0.6543 -0.2348  0.0986
16758SOL    HW151375   8.869   8.871   0.541  0.5649 -4.9133  0.0042
16758SOL    HW251376   8.834   8.820   0.679 -1.8138 -0.2163  1.3648
16759SOL     OW51377   2.713   5.907   4.587 -0.6885 -0.8294  0.2275
16759SOL    HW151378   2.696   5.813   4.578 -0.0069 -0.9035 -0.3937
16759SOL    HW251379   2.778   5.913   4.656 -0.0224 -0.9020 -0.3795
16760SOL     OW51380   5.186   1.757   4.510  0.3703 -0.2888 -0.3471
16760SOL    HW151381   5.221   1.755   4.421 -0.1142  0.3536 -0.5572
16760SOL    HW251382   5.207   1.670   4.545  1.4630 -0.1997 -0.7274
16761SOL     OW51383   7.276   2.519   2.183 -0.2807 -0.5873 -0.2615
16761SOL    HW151384   7.279   2.499   2.276 -0.9031 -2.0104 -0.5144
16761SOL    HW251385   7.342   2.587   2.171 -0.2133 -0.3558  1.2087
16762SOL     OW51386   7.938   1.837   7.673  0.3125 -0.4630  0.0956
16762SOL    HW151387   7.899   1.754   7.649 -0.5850 -0.3760  1.1463
16762SOL    HW251388   7.934   1.838   7.769  2.9465 -0.4533  0.2780
16763SOL     OW51389   3.880   4.412   6.700 -0.4299  0.6119  0.3859
16763SOL    HW151390   3.909   4.459   6.778  0.7123  1.0289 -0.2659
16763SOL    HW251391   3.949   4.348   6.683 -0.4275  0.8498 -0.5520
16764SOL     OW51392   8.756   8.283   1.906  0.1033 -0.8022  0.2718
16764SOL    HW151393   8.831   8.270   1.847  0.1055  1.3681 -0.3053
16764SOL    HW251394   8.703   8.205   1.895  1.2221 -1.4405 -0.9317
16765SOL     OW51395   6.009   6.172   8.916  0.0905  0.0406  0.0660
16765SOL    HW151396   6.028   6.130   9.000  1.2468 -1.5266 -0.9216
16765SOL    HW251397   6.034   6.106   8.851  2.5184  2.4338 -1.6170
16766SOL     OW51398   3.578   7.700   1.585  0.2506  0.3613 -0.8037
16766SOL    HW151399   3.616   7.716   1.498  0.9433 -0.6384 -0.7035
16766SOL    HW251400   3.532   7.781   1.606  0.2033  0.6761 -2.0352
16767SOL     OW51401   3.883   4.656   8.148  0.0912 -0.7994  0.3537
16767SOL    HW151402   3.874   4.592   8.077 -2.1193  0.8632 -0.9916
16767SOL    HW251403   3.978   4.666   8.159  0.4876 -2.2702 -1.2751
16768SOL     OW51404   6.567   6.745   6.629  0.0372 -0.3144 -0.5478
16768SOL    HW151405   6.662   6.745   6.638  0.1877 -0.1652 -1.8908
16768SOL    HW251406   6.534   6.763   6.717  1.2218 -1.1860  0.0956
16769SOL     OW51407   7.984   0.820   4.142 -0.3445  0.0704 -0.5731
16769SOL    HW151408   7.945   0.823   4.055 -0.3038  0.6535 -0.5709
16769SOL    HW251409   7.983   0.727   4.165 -0.9356 -0.0151 -0.9301
16770SOL     OW51410   2.111   1.355   5.723  0.1265  0.2350  0.2370
16770SOL    HW151411   2.047   1.405   5.672  0.0656 -0.4519 -0.3786
16770SOL    HW251412   2.088   1.372   5.814 -0.0316  1.1378  0.0359
16771SOL     OW51413   5.639   4.209   0.161 -0.1361 -0.0527 -0.6176
16771SOL    HW151414   5.733   4.210   0.143  0.4938  0.0888  2.1371
16771SOL    HW251415   5.611   4.121   0.138  1.3839 -1.1057  1.2098
16772SOL     OW51416   5.586   5.031   5.705 -0.3896  0.3116 -0.2482
16772SOL    HW151417   5.585   5.022   5.801 -2.2556 -1.6581 -0.3684
16772SOL    HW251418   5.531   5.107   5.688  1.0112  1.4982  0.2225
16773SOL     OW51419   1.954   5.220   6.607 -0.0598 -0.1560 -0.2055
16773SOL    HW151420   2.041   5.223   6.647 -0.3708 -0.5161  0.5216
16773SOL    HW251421   1.896   5.259   6.672 -0.5512 -0.5772 -0.3781
16774SOL     OW51422   0.535   0.923   2.799  0.3167 -0.2009  0.3938
16774SOL    HW151423   0.472   0.993   2.816  1.4782  0.3352  2.8718
16774SOL    HW251424   0.492   0.844   2.830 -1.3845 -0.9479 -3.2511
16775SOL     OW51425   0.523   5.262   1.089 -0.2227 -0.2710 -0.2789
16775SOL    HW151426   0.438   5.306   1.087  0.0074  0.1678 -1.3153
16775SOL    HW251427   0.578   5.313   1.029  0.8946 -0.3153  0.6714
16776SOL     OW51428   7.187   5.104   1.753 -0.1128 -0.3290  0.4190
16776SOL    HW151429   7.217   5.016   1.730  1.3023  0.0568  0.6397
16776SOL    HW251430   7.092   5.097   1.761 -0.3324 -1.2335 -2.1606
16777SOL     OW51431   7.075   3.888   6.716  0.2964 -0.7843  0.0039
16777SOL    HW151432   6.996   3.837   6.698 -0.4589  0.8626 -1.7066
16777SOL    HW251433   7.144   3.845   6.665  0.2373 -1.4947  0.5106
16778SOL     OW51434   9.105   4.791   1.998  0.2108 -0.0547 -0.2781
16778SOL    HW151435   9.098   4.762   1.906  1.3249  0.5541 -0.5641
16778SOL    HW251436   9.018   4.773   2.034 -0.0633 -0.8903 -1.2781
16779SOL     OW51437   5.649   8.366   7.394  0.4666 -0.2066  0.0164
16779SOL    HW151438   5.699   8.361   7.475  1.2927  0.9714 -0.4017
16779SOL    HW251439   5.710   8.336   7.327 -0.3121 -1.4841 -0.1589
16780SOL     OW51440   0.991   3.935   1.124 -0.0222  0.3086 -0.0953
16780SOL    HW151441   1.008   3.851   1.167 -2.0656  0.0386  0.2951
16780SOL    HW251442   1.070   3.987   1.141 -0.2389 -0.1940  3.0446
16781SOL     OW51443   5.485   5.855   2.605  0.9608 -0.3316  0.9829
16781SOL    HW151444   5.497   5.858   2.510  1.6910 -0.0721  1.0788
16781SOL    HW251445   5.531   5.776   2.632 -0.9513 -1.5533  0.9024
16782SOL     OW51446   5.832   5.080   4.120  0.4601  0.6585  0.1833
16782SOL    HW151447   5.908   5.032   4.155 -0.1355  0.0192  0.6149
16782SOL    HW251448   5.871   5.157   4.077  1.3600  0.3089  0.3366
16783SOL     OW51449   7.174   1.195   3.769 -0.2340  0.7754 -0.4074
16783SOL    HW151450   7.174   1.287   3.743  2.0060  0.8568 -0.3003
16783SOL    HW251451   7.263   1.178   3.799 -1.4091 -0.4991  2.9571
16784SOL     OW51452   0.151   7.819   7.471 -0.1871 -0.1922  0.3709
16784SOL    HW151453   0.130   7.787   7.383 -1.1755  1.1249  0.1017
16784SOL    HW251454   0.076   7.792   7.525  0.4458 -1.0550  0.8483
16785SOL     OW51455   7.606   7.864   5.694 -0.2607 -0.2793 -0.7285
16785SOL    HW151456   7.550   7.942   5.695  0.4638  0.2423  0.3631
16785SOL    HW251457   7.675   7.885   5.631  0.3570  0.2851  0.1177
16786SOL     OW51458   1.749   2.306   8.904 -0.0382  0.0445 -0.6743
16786SOL    HW151459   1.719   2.331   8.991  0.6213  2.1838 -1.0064
16786SOL    HW251460   1.668   2.289   8.855 -0.4699  0.2860 -0.0510
16787SOL     OW51461   0.292   2.510   6.658 -0.3808  0.7557  0.0421
16787SOL    HW151462   0.358   2.489   6.592 -0.7969 -0.2334 -0.0688
16787SOL    HW251463   0.221   2.552   6.609 -0.4240  0.5803 -0.0452
16788SOL     OW51464   6.826   8.801   6.010  0.3814 -0.0590  0.7117
16788SOL    HW151465   6.852   8.735   6.074  1.6355 -1.3628 -1.0584
16788SOL    HW251466   6.783   8.869   6.062 -0.4360 -1.9655  2.6881
16789SOL     OW51467   8.204   8.949   4.889  0.2193 -0.0581 -0.0182
16789SOL    HW151468   8.295   8.965   4.911  0.2185  1.8403 -1.1300
16789SOL    HW251469   8.206   8.885   4.817  0.5336 -1.4820  1.2223
16790SOL     OW51470   0.396   4.758   4.299 -0.3452  0.4113 -0.1131
16790SOL    HW151471   0.351   4.805   4.229 -0.1532 -0.6615 -0.9638
16790SOL    HW251472   0.489   4.768   4.279 -0.3146 -0.7891 -0.6164
16791SOL     OW51473   2.806   6.461   7.350 -0.1891 -0.1799  0.1768
16791SOL    HW151474   2.842   6.529   7.294  1.8180 -0.1617  1.3989
16791SOL    HW251475   2.880   6.430   7.401 -1.3443 -2.3140  0.6662
16792SOL     OW51476   4.455   3.567   1.489 -0.2166 -0.0175 -0.0390
16792SOL    HW151477   4.542   3.550   1.455 -0.0926 -0.0540  0.2916
16792SOL    HW251478   4.430   3.652   1.453 -0.3457 -0.3414 -0.7236
16793SOL     OW51479   7.531   1.727   7.294 -0.2964  0.5018 -0.1350
16793SOL    HW151480   7.511   1.818   7.271 -3.1650  0.5061  1.8888
16793SOL    HW251481   7.480   1.675   7.232 -0.2822  0.3375 -0.0095
16794SOL     OW51482   7.204   4.638   7.987 -0.0515  0.1507  0.1659
16794SOL    HW151483   7.279   4.663   8.042  0.9750 -1.6328 -0.3345
16794SOL    HW251484   7.226   4.672   7.900  0.4037 -0.7440 -0.0768
16795SOL     OW51485   5.785   7.867   2.833 -0.1006 -0.6297  0.0879
16795SOL    HW151486   5.773   7.935   2.900 -0.7251  1.4543 -2.0214
16795SOL    HW251487   5.718   7.802   2.853 -0.1846 -0.1286  1.5625
16796SOL     OW51488   4.266   6.489   3.944 -0.4802  0.4411 -0.5142
16796SOL    HW151489   4.354   6.457   3.966 -1.0005  1.0283  2.8700
16796SOL    HW251490   4.244   6.442   3.863  1.3266 -2.8713  0.6934
16797SOL     OW51491   1.809   0.662   8.613 -0.4009  0.5930  0.2642
16797SOL    HW151492   1.899   0.639   8.592 -1.2579 -3.7394  0.4631
16797SOL    HW251493   1.815   0.711   8.695  1.7720  1.4731 -0.3556
16798SOL     OW51494   1.342   2.263   4.647 -0.0311  0.9190  0.0921
16798SOL    HW151495   1.350   2.281   4.553 -0.9355 -0.2408 -0.2198
16798SOL    HW251496   1.432   2.264   4.679  0.2568  1.7757 -0.6908
16799SOL     OW51497   4.215   4.451   6.741  0.1024 -0.5660 -0.0559
16799SOL    HW151498   4.302   4.471   6.706 -0.7746  0.5396 -1.7533
16799SOL    HW251499   4.187   4.374   6.692 -1.0823  0.9161 -1.8244
16800SOL     OW51500   7.453   6.703   7.420 -0.6420  0.8861 -0.1928
16800SOL    HW151501   7.527   6.642   7.427  0.0731  1.9088  2.0263
16800SOL    HW251502   7.407   6.676   7.340  1.3810 -0.5903 -0.9380
16801SOL     OW51503   7.487   4.607   3.195 -0.1717 -0.1527  0.1061
16801SOL    HW151504   7.496   4.638   3.285  0.2681 -5.4312  2.2416
16801SOL    HW251505   7.393   4.594   3.184 -0.1890  0.1224 -0.0803
16802SOL     OW51506   5.365   0.596   0.255 -0.2306 -0.2922 -0.5361
16802SOL    HW151507   5.317   0.652   0.316  0.9444 -0.8441  0.9787
16802SOL    HW251508   5.398   0.524   0.309  1.0549 -0.6999 -1.7861
16803SOL     OW51509   0.075   6.368   3.019  0.3307 -0.3024 -0.6060
16803SOL    HW151510  -0.013   6.337   2.997 -0.0141  0.2392 -0.0316
16803SOL    HW251511   0.128   6.343   2.944  0.1402 -2.4776 -0.0874
16804SOL     OW51512   6.342   8.092   6.425 -0.1753  0.2538  0.1077
16804SOL    HW151513   6.266   8.114   6.480 -1.5006 -0.8655 -1.1846
16804SOL    HW251514   6.343   7.996   6.423  2.5663  0.1385  1.7328
16805SOL     OW51515   7.613   8.290   3.733 -0.0028 -0.8665  0.7508
16805SOL    HW151516   7.552   8.360   3.755  0.5593  0.1154 -0.6542
16805SOL    HW251517   7.699   8.323   3.759  0.2040 -1.2681  0.5864
16806SOL     OW51518   8.122   6.221   7.212  0.2036 -0.1772 -0.1158
16806SOL    HW151519   8.028   6.242   7.216 -0.0948 -1.4820  0.1755
16806SOL    HW251520   8.146   6.239   7.121  0.0228  1.5263  0.1460
16807SOL     OW51521   7.762   1.608   7.285 -0.3824  0.6758 -0.2508
16807SOL    HW151522   7.689   1.667   7.302  0.8058  1.7148  1.6329
16807SOL    HW251523   7.834   1.666   7.259 -0.0376 -0.2644 -1.5213
16808SOL     OW51524   7.405   0.219   3.257 -0.1395 -0.6069  0.2206
16808SOL    HW151525   7.490   0.178   3.272 -0.5779 -1.0976  1.4374
16808SOL    HW251526   7.348   0.181   3.323 -0.6639  1.6930  1.1541
16809SOL     OW51527   6.307   8.671   4.961  0.4261  0.4117  0.1726
16809SOL    HW151528   6.400   8.675   4.985  0.1918  0.9943  1.0221
16809SOL    HW251529   6.288   8.758   4.926  0.5447 -0.1533 -1.3819
16810SOL     OW51530   5.019   0.073   2.787  0.2562  0.1322 -0.0529
16810SOL    HW151531   5.002   0.129   2.711  1.3419  1.0982  0.3857
16810SOL    HW251532   4.932   0.054   2.823 -0.2167  0.3013 -1.0825
16811SOL     OW51533   2.368   5.697   2.928 -0.4408  0.1214 -0.5616
16811SOL    HW151534   2.273   5.704   2.941 -0.1799  2.1383  0.7178
16811SOL    HW251535   2.405   5.768   2.980  1.9160 -1.5219  0.1821
16812SOL     OW51536   0.332   8.664   3.608  0.3453 -0.2898 -0.6993
16812SOL    HW151537   0.292   8.579   3.588  1.2673 -0.7082 -0.8074
16812SOL    HW251538   0.296   8.688   3.693  1.2910 -1.5790  0.1171
16813SOL     OW51539   1.452   2.544   7.783  0.2888 -0.7635 -0.0348
16813SOL    HW151540   1.407   2.616   7.828  1.0874 -0.7478  0.7623
16813SOL    HW251541   1.396   2.468   7.797  0.6781 -0.8276  1.2667
16814SOL     OW51542   5.335   6.112   4.582 -0.0966  0.0009 -0.1733
16814SOL    HW151543   5.275   6.058   4.634 -0.8818 -0.0893 -1.1540
16814SOL    HW251544   5.361   6.182   4.642  0.7607 -1.2935  1.0513
16815SOL     OW51545   6.591   2.542   1.078 -0.5300  0.5842 -0.0327
16815SOL    HW151546   6.640   2.515   1.000  0.8847 -0.2685  1.1168
16815SOL    HW251547   6.513   2.487   1.077  0.4180 -0.7964  0.1736
16816SOL     OW51548   8.684   6.178   0.975  0.2143 -0.6440 -0.4449
16816SOL    HW151549   8.697   6.083   0.973  0.8125 -0.5588 -1.6123
16816SOL    HW251550   8.740   6.211   0.904 -0.4584  0.5256 -0.4508
16817SOL     OW51551   1.055   8.064   0.322 -0.1730  0.2062  0.0897
16817SOL    HW151552   0.964   8.089   0.332 -0.0683  0.0136  1.9110
16817SOL    HW251553   1.076   8.015   0.402  0.8359 -1.9470 -1.3791
16818SOL     OW51554   3.081   3.165   4.799 -0.4378 -0.2102 -0.2047
16818SOL    HW151555   3.055   3.172   4.707 -2.6609  1.0659  0.4483
16818SOL    HW251556   3.122   3.250   4.819  2.1480 -1.2846 -0.5327
16819SOL     OW51557   5.312   8.160   5.631  0.1337 -0.7499 -0.1271
16819SOL    HW151558   5.299   8.190   5.721  0.3953 -0.0662 -0.3084
16819SOL    HW251559   5.236   8.105   5.613  1.3002 -3.0539  1.3799
16820SOL     OW51560   5.103   4.326   8.229 -0.2444 -0.8615  0.6004
16820SOL    HW151561   5.157   4.248   8.241 -0.6383 -1.2747 -0.2533
16820SOL    HW251562   5.013   4.293   8.230 -0.3973 -0.4979 -0.2748
16821SOL     OW51563   0.795   3.324   4.576 -0.7405 -1.0821 -0.4016
16821SOL    HW151564   0.885   3.353   4.587 -0.5189 -1.8011 -0.2923
16821SOL    HW251565   0.801   3.243   4.526 -1.4035 -0.5884 -1.3336
16822SOL     OW51566   7.010   4.478   8.652 -0.7869  0.2413 -0.4238
16822SOL    HW151567   7.032   4.568   8.627 -1.1481  0.2890 -0.5824
16822SOL    HW251568   7.085   4.448   8.703 -0.8764  0.8097  0.0609
16823SOL     OW51569   9.090   6.306   7.547 -0.4813  0.0821  0.0726
16823SOL    HW151570   9.162   6.247   7.526 -1.0125 -0.3807 -0.4515
16823SOL    HW251571   9.092   6.372   7.478  0.2986  0.8625  0.8209
16824SOL     OW51572   4.762   0.506   6.547  0.4269 -0.5162 -0.0615
16824SOL    HW151573   4.824   0.481   6.616  2.2090  0.6230 -1.1790
16824SOL    HW251574   4.686   0.539   6.595  1.7243  0.5023  1.3930
16825SOL     OW51575   2.830   4.321   0.727  0.1079  0.4914  0.7569
16825SOL    HW151576   2.896   4.369   0.676  0.1685  0.5376  0.8771
16825SOL    HW251577   2.805   4.382   0.797  0.4506  0.2172  1.1245
16826SOL     OW51578   5.834   5.047   1.600  0.0095 -0.3334 -0.0071
16826SOL    HW151579   5.858   5.047   1.507  1.6168  1.2226  0.3556
16826SOL    HW251580   5.745   5.081   1.602  0.4938  1.0520 -0.8980
16827SOL     OW51581   4.457   1.564   7.603 -0.0975 -0.3435  0.4625
16827SOL    HW151582   4.369   1.537   7.577  0.0473 -0.5819  0.2170
16827SOL    HW251583   4.443   1.621   7.679 -0.5415  0.4488 -0.1986
16828SOL     OW51584   6.596   1.688   0.872 -0.0175 -0.3136 -0.0918
16828SOL    HW151585   6.684   1.702   0.908  0.2630 -2.9558  0.4633
16828SOL    HW251586   6.601   1.721   0.782  2.9687 -4.0689 -1.5765
16829SOL     OW51587   5.677   2.622   1.059  0.3181  0.9708 -0.9039
16829SOL    HW151588   5.588   2.644   1.086  0.8233  1.7211  0.1956
16829SOL    HW251589   5.677   2.635   0.964 -0.9369  0.2350 -1.0275
16830SOL     OW51590   1.049   1.806   6.559  0.0270 -0.1123 -0.1863
16830SOL    HW151591   1.033   1.734   6.498 -0.2380  0.8327 -1.2665
16830SOL    HW251592   1.083   1.877   6.504 -0.0140  0.6916  0.8011
16831SOL     OW51593   4.692   7.528   1.696 -0.5867  0.0856 -0.1707
16831SOL    HW151594   4.712   7.472   1.772 -0.3637  0.6474  0.1939
16831SOL    HW251595   4.724   7.478   1.621 -0.7954 -0.4731  0.1021
16832SOL     OW51596   8.714   3.465   8.489 -0.0465 -0.7367  0.2932
16832SOL    HW151597   8.796   3.499   8.453 -1.6865  2.1394 -1.0400
16832SOL    HW251598   8.676   3.414   8.417 -0.9545  0.7966 -0.3655
16833SOL     OW51599   1.673   7.122   3.637 -0.1764  0.5880  0.0030
16833SOL    HW151600   1.740   7.153   3.699 -0.4356  0.7393  0.2072
16833SOL    HW251601   1.678   7.027   3.644  2.3583  0.4018 -2.4438
16834SOL     OW51602   0.272   3.919   5.297 -0.4139  0.4128 -0.4758
16834SOL    HW151603   0.350   3.932   5.351 -0.6458 -0.1230 -0.0035
16834SOL    HW251604   0.232   4.006   5.292 -0.3316  0.4897  0.1297
16835SOL     OW51605   3.138   0.056   2.068  0.4422  0.2050 -0.4184
16835SOL    HW151606   3.176  -0.026   2.098  0.3225 -0.3281 -1.6611
16835SOL    HW251607   3.201   0.090   2.004 -0.6870 -0.2662 -1.8595
16836SOL     OW51608   1.124   3.358   1.145 -0.6870  0.1416  0.2333
16836SOL    HW151609   1.211   3.335   1.177 -0.0184 -0.0232 -1.5576
16836SOL    HW251610   1.064   3.334   1.215  0.8305  1.9046  2.2763
16837SOL     OW51611   6.663   8.842   4.366 -0.4245  0.1201  0.1661
16837SOL    HW151612   6.645   8.934   4.350 -0.9339 -0.1307 -0.8046
16837SOL    HW251613   6.718   8.815   4.291 -0.3832 -0.3914  0.3739
16838SOL     OW51614   7.801   4.579   2.150 -0.5262 -0.0373  0.4651
16838SOL    HW151615   7.810   4.573   2.245  0.3711 -0.5637  0.3689
16838SOL    HW251616   7.717   4.537   2.131 -0.0334 -1.3052  0.9228
16839SOL     OW51617   1.076   6.409   2.606 -0.7231 -0.0704 -0.0273
16839SOL    HW151618   1.041   6.322   2.623  0.0569 -0.4175 -0.1418
16839SOL    HW251619   1.032   6.466   2.669 -0.1115 -0.8088  1.1019
16840SOL     OW51620   5.332   5.652   1.430 -0.5004  0.0600 -0.6589
16840SOL    HW151621   5.280   5.725   1.397 -0.1356 -0.0753 -1.5434
16840SOL    HW251622   5.270   5.599   1.479 -0.9949  0.3989 -0.9124
16841SOL     OW51623   6.851   0.164   0.929 -0.1384 -0.2676 -0.7709
16841SOL    HW151624   6.852   0.258   0.949  0.4547 -0.3517 -0.3686
16841SOL    HW251625   6.895   0.123   1.004 -0.8627 -0.9212 -0.6890
16842SOL     OW51626   3.771   1.743   3.268  0.1347 -0.2272 -0.5516
16842SOL    HW151627   3.831   1.809   3.302  0.5403 -0.1618 -1.3876
16842SOL    HW251628   3.791   1.665   3.320 -1.5399  0.7043  1.6624
16843SOL     OW51629   0.488   3.743   9.043 -0.5846  0.6197 -0.5771
16843SOL    HW151630   0.422   3.730   9.111  0.4939  1.1496  0.6065
16843SOL    HW251631   0.466   3.678   8.976 -2.0772  0.5487 -0.0566
16844SOL     OW51632   5.964   0.271   0.746  1.0645  0.3874 -0.3432
16844SOL    HW151633   6.011   0.240   0.823 -0.3054  0.6021  0.5989
16844SOL    HW251634   5.986   0.364   0.740 -1.2264  1.1680  1.6780
16845SOL     OW51635   3.050   0.688   2.823  0.1266 -0.6650  0.1111
16845SOL    HW151636   3.051   0.687   2.727 -1.6576  0.4541  0.0291
16845SOL    HW251637   3.126   0.741   2.847 -0.6802  0.9953 -0.8166
16846SOL     OW51638   6.355   1.554   4.445  0.2395  0.1453 -0.1464
16846SOL    HW151639   6.349   1.494   4.520  1.2225  1.2873  0.8941
16846SOL    HW251640   6.448   1.556   4.424  0.1545  0.9436 -0.4682
16847SOL     OW51641   5.853   4.914   6.420 -0.4823 -0.1362 -0.4670
16847SOL    HW151642   5.784   4.876   6.474  0.0247 -0.9344 -0.3611
16847SOL    HW251643   5.915   4.842   6.407  0.8694  0.8393  0.3346
16848SOL     OW51644   1.524   7.832   4.644  0.3514  0.7418 -0.0607
16848SOL    HW151645   1.595   7.832   4.579  0.6977 -0.0781  0.3160
16848SOL    HW251646   1.539   7.754   4.697 -1.6925 -0.3191 -0.9137
16849SOL     OW51647   3.960   2.323   2.482 -0.1458 -0.0028 -0.1853
16849SOL    HW151648   3.943   2.232   2.457 -0.0022  0.3783 -1.8076
16849SOL    HW251649   3.876   2.356   2.512 -0.4438 -0.3745 -0.5910
16850SOL     OW51650   2.722   3.147   1.520 -0.4280 -0.1762  0.2823
16850SOL    HW151651   2.813   3.145   1.550 -0.0359 -2.6633 -0.7886
16850SOL    HW251652   2.673   3.108   1.592 -0.2610 -1.1032 -0.0881
16851SOL     OW51653   6.604   0.481   1.673 -0.7790 -0.3157  0.3640
16851SOL    HW151654   6.631   0.415   1.609  0.7275 -0.4067  1.0421
16851SOL    HW251655   6.540   0.436   1.728 -1.0329 -0.6759 -0.2145
16852SOL     OW51656   5.248   4.647   7.534  0.3639  0.5977 -0.0666
16852SOL    HW151657   5.164   4.693   7.529  0.4679  0.8479  0.4482
16852SOL    HW251658   5.288   4.661   7.449 -1.5625 -2.3569 -1.6466
16853SOL     OW51659   1.669   6.111   6.611  0.0335  0.1208  0.0331
16853SOL    HW151660   1.726   6.070   6.675  0.0861  0.2473  0.0662
16853SOL    HW251661   1.582   6.109   6.651  0.1421  0.5999  0.2937
16854SOL     OW51662   1.769   1.634   4.278 -0.0323 -0.2717 -0.0267
16854SOL    HW151663   1.786   1.686   4.200  1.5092 -1.3709 -0.4809
16854SOL    HW251664   1.703   1.570   4.252  0.4281 -0.5907 -0.4193
16855SOL     OW51665   3.622   9.062   6.955 -0.2566  0.5447  0.0768
16855SOL    HW151666   3.529   9.076   6.971 -0.3849 -0.7239  0.5435
16855SOL    HW251667   3.662   9.148   6.968 -1.3120  1.0300  0.2110
16856SOL     OW51668   7.879   0.168   8.316 -0.0540  0.4611  0.1806
16856SOL    HW151669   7.909   0.253   8.284 -0.3678  0.5600  0.1428
16856SOL    HW251670   7.879   0.178   8.412  2.3050 -0.3142  0.3280
16857SOL     OW51671   5.483   1.413   2.879 -0.8689  0.1166 -0.0433
16857SOL    HW151672   5.421   1.388   2.811 -0.5062  1.3607 -0.8659
16857SOL    HW251673   5.474   1.508   2.886 -1.1839 -0.0155  1.9489
16858SOL     OW51674   2.876   3.377   8.062  0.0437  0.0003  0.5405
16858SOL    HW151675   2.950   3.341   8.014 -1.6076  0.0833 -2.3248
16858SOL    HW251676   2.854   3.457   8.014 -2.4109 -0.4922  0.7118
16859SOL     OW51677   2.341   3.232   1.156  0.1780  0.3607  0.2616
16859SOL    HW151678   2.381   3.185   1.229  0.7593  0.3071 -0.0828
16859SOL    HW251679   2.311   3.315   1.194 -0.9815 -0.3257  0.9018
16860SOL     OW51680   7.709   5.286   5.675 -1.0535  0.2820 -0.1944
16860SOL    HW151681   7.664   5.337   5.608 -0.3805 -0.9690 -1.6724
16860SOL    HW251682   7.699   5.337   5.755 -1.8983  1.8325 -1.2342
16861SOL     OW51683   6.304   5.433   4.324 -0.4465 -0.4325 -0.2107
16861SOL    HW151684   6.387   5.389   4.339  0.6431  1.9167  1.2951
16861SOL    HW251685   6.319   5.487   4.247  0.5810  2.2946  1.7412
16862SOL     OW51686   0.793   3.397   1.175 -0.2368  0.0464 -0.4109
16862SOL    HW151687   0.865   3.435   1.226 -0.9960 -0.4236  1.0772
16862SOL    HW251688   0.823   3.309   1.153  0.6547  0.7140 -2.0202
16863SOL     OW51689   5.957   0.480   7.670 -0.1304 -0.5992  0.3532
16863SOL    HW151690   6.046   0.466   7.637 -0.9066 -0.6200 -1.8336
16863SOL    HW251691   5.945   0.575   7.667 -0.0350 -0.5535  1.1278
16864SOL     OW51692   2.831   7.966   5.285 -0.3059  0.1587  0.2595
16864SOL    HW151693   2.787   7.964   5.370 -0.3324  1.0614  0.2779
16864SOL    HW251694   2.805   7.885   5.242  1.2436 -1.2853  1.8700
16865SOL     OW51695   6.756   4.143   7.340  0.2007  0.3115  0.9665
16865SOL    HW151696   6.728   4.116   7.252  0.4106  0.1279  0.9568
16865SOL    HW251697   6.715   4.080   7.399  1.4596 -0.6205  0.8778
16866SOL     OW51698   4.967   7.958   8.807  0.0355 -0.5489 -0.2161
16866SOL    HW151699   4.953   7.865   8.788  0.9273 -0.3496 -2.0642
16866SOL    HW251700   5.002   7.994   8.725 -2.1797  1.8503 -0.2321
16867SOL     OW51701   2.390   2.493   6.873  0.6299 -0.2562 -0.7643
16867SOL    HW151702   2.378   2.437   6.796 -0.7465 -0.8443 -0.1516
16867SOL    HW251703   2.313   2.550   6.874  0.9353  0.1591 -0.1546
16868SOL     OW51704   0.372   4.036   4.293  0.2037 -0.2929 -0.2664
16868SOL    HW151705   0.401   3.958   4.341 -1.0720 -0.6923 -0.1256
16868SOL    HW251706   0.431   4.041   4.218 -0.0114 -1.6831 -0.5530
16869SOL     OW51707   8.672   3.801   9.080  0.1305 -0.0139  0.0420
16869SOL    HW151708   8.718   3.833   9.158  0.8578 -0.5123 -0.1702
16869SOL    HW251709   8.711   3.716   9.062 -2.1289 -1.3089  0.9073
16870SOL     OW51710   6.691   1.115   4.064  0.3903 -0.6408  0.4618
16870SOL    HW151711   6.660   1.157   4.144 -1.0171  0.2312 -0.4884
16870SOL    HW251712   6.617   1.062   4.034 -0.4152  1.6518 -1.9802
16871SOL     OW51713   7.129   7.345   8.296 -0.2008 -0.3780 -0.3609
16871SOL    HW151714   7.126   7.251   8.282 -0.7721 -0.1583 -1.8794
16871SOL    HW251715   7.086   7.383   8.219 -2.3330  1.0453  1.3905
16872SOL     OW51716   1.171   0.520   0.039 -0.1390  0.0589  0.1068
16872SOL    HW151717   1.075   0.523   0.031 -0.1749 -0.9832 -0.0499
16872SOL    HW251718   1.190   0.567   0.120 -0.7894  0.2636  0.1454
16873SOL     OW51719   1.960   8.593   5.360  0.1265  0.2104 -0.2173
16873SOL    HW151720   1.870   8.623   5.369  0.4938  1.2999 -0.0669
16873SOL    HW251721   2.011   8.653   5.414  1.1550  0.6607 -1.6315
16874SOL     OW51722   4.082   5.371   4.224  0.4246  0.5630  0.0751
16874SOL    HW151723   4.105   5.434   4.156 -1.0734 -1.3362 -2.3521
16874SOL    HW251724   4.005   5.409   4.266 -1.1262 -0.0249 -2.0789
16875SOL     OW51725   5.588   1.853   6.797 -0.1851  0.8219  0.3230
16875SOL    HW151726   5.540   1.844   6.715 -0.4017  0.2424  0.5093
16875SOL    HW251727   5.669   1.899   6.773  0.0308  0.1120 -0.3236
16876SOL     OW51728   8.589   5.556   3.339 -0.2391 -0.2881 -0.2352
16876SOL    HW151729   8.646   5.556   3.263 -0.5773  0.5433 -0.4918
16876SOL    HW251730   8.644   5.584   3.411  0.6555 -3.0845  0.2976
16877SOL     OW51731   7.703   7.563   1.555 -0.5211 -0.2085  0.6204
16877SOL    HW151732   7.644   7.618   1.606  1.0954 -0.6731  3.2070
16877SOL    HW251733   7.730   7.494   1.616  1.1161 -1.1469 -1.0556
16878SOL     OW51734   7.882   2.122   8.132  0.2414 -0.2002  1.0733
16878SOL    HW151735   7.816   2.054   8.147 -1.5265  1.3019  0.5066
16878SOL    HW251736   7.920   2.138   8.219  0.1123 -1.3459  1.3500
16879SOL     OW51737   1.600   3.878   3.273  0.3447 -0.0132 -0.0725
16879SOL    HW151738   1.671   3.814   3.275 -0.1378 -0.5473  0.2577
16879SOL    HW251739   1.606   3.924   3.356  0.0507 -0.3453  0.1355
16880SOL     OW51740   6.809   1.319   8.633  0.7720  0.2455 -0.0942
16880SOL    HW151741   6.798   1.358   8.546 -0.7454 -2.3462 -1.1923
16880SOL    HW251742   6.894   1.274   8.628  1.1893  0.9726  0.1907
16881SOL     OW51743   2.840   8.760   0.750 -0.4563 -0.5197  0.1365
16881SOL    HW151744   2.882   8.718   0.676 -0.9018 -0.4834 -0.1416
16881SOL    HW251745   2.747   8.740   0.740 -0.4730 -0.8680  0.9123
16882SOL     OW51746   3.495   1.260   1.002 -0.4037  0.3386  0.0039
16882SOL    HW151747   3.571   1.204   1.020 -0.2074  0.4885 -0.3624
16882SOL    HW251748   3.437   1.245   1.077 -0.4423 -0.5070 -0.1814
16883SOL     OW51749   5.913   0.588   4.965  0.4940 -0.2353  0.1968
16883SOL    HW151750   5.884   0.669   4.922  2.9855 -0.1510 -1.5232
16883SOL    HW251751   5.880   0.518   4.908 -0.8789 -0.4484  1.1967
16884SOL     OW51752   1.527   4.994   0.782  0.0761  0.1429  0.4807
16884SOL    HW151753   1.529   4.966   0.691  1.0535  1.2764  0.1404
16884SOL    HW251754   1.610   4.964   0.819 -0.5340 -0.7715  1.1599
16885SOL     OW51755   2.890   0.820   1.116  0.5036  0.0641 -0.4313
16885SOL    HW151756   2.880   0.867   1.199  0.7416 -0.2866 -0.2020
16885SOL    HW251757   2.802   0.787   1.097  0.5209 -0.1471 -0.1436
16886SOL     OW51758   7.394   0.281   0.565  0.5783 -0.2244  0.1602
16886SOL    HW151759   7.389   0.348   0.498 -1.3249 -1.5649 -1.1174
16886SOL    HW251760   7.345   0.316   0.639  1.4300  0.6446  0.3305
16887SOL     OW51761   7.862   4.422   3.202  0.7444 -0.2891  0.6513
16887SOL    HW151762   7.811   4.478   3.143 -0.2412 -1.4908  0.3217
16887SOL    HW251763   7.798   4.359   3.237  1.7226 -0.9031  1.3905
16888SOL     OW51764   2.048   0.763   7.480  0.0552 -0.0105  0.3020
16888SOL    HW151765   2.018   0.814   7.555  0.6749  0.3649  0.3038
16888SOL    HW251766   1.999   0.797   7.406 -0.1710 -0.0169  0.4491
16889SOL     OW51767   9.010   5.834   5.563 -0.0065  0.2178 -0.2436
16889SOL    HW151768   9.101   5.806   5.571  0.0579  0.8821  1.8828
16889SOL    HW251769   9.015   5.920   5.521  0.4482  0.7652  0.9182
16890SOL     OW51770   4.000   1.844   0.343 -0.2693 -0.7721 -0.1558
16890SOL    HW151771   4.096   1.850   0.347 -0.2745 -1.0933  0.8037
16890SOL    HW251772   3.973   1.833   0.435 -1.3382  0.8563 -0.2302
16891SOL     OW51773   5.298   7.128   5.177  0.2439  0.7987  0.1396
16891SOL    HW151774   5.360   7.062   5.211  0.8371  1.4906  0.4246
16891SOL    HW251775   5.292   7.109   5.084 -0.9220 -0.7361  0.4834
16892SOL     OW51776   1.958   4.477   7.159  0.1231 -0.1283 -0.1199
16892SOL    HW151777   1.975   4.444   7.247 -0.4553  1.0622  0.4723
16892SOL    HW251778   1.968   4.401   7.102  1.0466 -0.8052  0.9077
16893SOL     OW51779   2.622   5.711   9.103  0.0832 -0.1351 -0.0565
16893SOL    HW151780   2.616   5.777   9.034 -0.4640  0.7485  0.8092
16893SOL    HW251781   2.701   5.661   9.081  0.0727  0.2985 -1.1631
16894SOL     OW51782   1.955   5.244   2.874 -0.1415  0.1995 -0.4818
16894SOL    HW151783   1.973   5.177   2.808  2.3226 -0.4490  0.7337
16894SOL    HW251784   1.915   5.195   2.947  1.4270  0.0478  0.3059
16895SOL     OW51785   4.550   5.999   1.339  0.4140 -0.1406 -0.1397
16895SOL    HW151786   4.619   6.064   1.326  1.9717 -1.8171 -0.6823
16895SOL    HW251787   4.535   5.963   1.252 -2.5853  1.4855 -0.4020
16896SOL     OW51788   0.682   1.126   6.873  0.2767 -0.1670  1.2850
16896SOL    HW151789   0.756   1.150   6.817  1.0202 -1.3218  1.7214
16896SOL    HW251790   0.683   1.191   6.943  0.0167  0.6336  0.5698
16897SOL     OW51791   4.123   0.251   6.618  0.3474  0.0389  0.2418
16897SOL    HW151792   4.135   0.216   6.530  1.1007  1.1679 -0.1257
16897SOL    HW251793   4.102   0.174   6.672 -0.9678 -0.5538 -1.0539
16898SOL     OW51794   7.567   3.745   8.265  0.0495 -0.2963 -0.1458
16898SOL    HW151795   7.598   3.787   8.184  5.1454 -0.4106  1.4107
16898SOL    HW251796   7.586   3.652   8.252 -2.2117 -0.8250  0.0312
16899SOL     OW51797   4.199   2.194   7.282 -0.5713  0.5466  0.2892
16899SOL    HW151798   4.244   2.207   7.198 -1.6007  0.4235 -0.3007
16899SOL    HW251799   4.228   2.266   7.337  1.3575 -0.2512  0.3862
16900SOL     OW51800   4.653   1.747   8.945  0.1247  0.2484 -0.1416
16900SOL    HW151801   4.625   1.770   9.033 -3.1719 -1.3790 -0.6443
16900SOL    HW251802   4.614   1.815   8.889 -1.5413 -1.1086 -0.6959
16901SOL     OW51803   7.012   7.665   0.767  0.4826  0.1683 -0.1472
16901SOL    HW151804   7.026   7.616   0.848  0.9375  0.9416  0.2603
16901SOL    HW251805   7.081   7.635   0.708  1.9946  1.6762  0.7692
16902SOL     OW51806   7.431   8.453   0.357  0.0140  0.2545  0.2464
16902SOL    HW151807   7.435   8.446   0.452 -2.1868  1.2608  0.4922
16902SOL    HW251808   7.522   8.453   0.328  0.8708  2.7503  2.5867
16903SOL     OW51809   0.746   1.583   1.713  0.3786  0.1058  0.0289
16903SOL    HW151810   0.789   1.531   1.780  0.2826 -0.0600 -0.0357
16903SOL    HW251811   0.659   1.542   1.703  0.2378  0.3868  0.1030
16904SOL     OW51812   3.601   6.984   3.649 -0.6171  0.0202 -0.4360
16904SOL    HW151813   3.626   6.904   3.602 -1.0669 -0.8117  0.7014
16904SOL    HW251814   3.542   7.029   3.588 -1.3435 -1.1269 -0.6345
16905SOL     OW51815   1.170   7.822   0.879  0.4154 -0.3795  0.1139
16905SOL    HW151816   1.095   7.843   0.824 -0.7391 -1.4136  1.2357
16905SOL    HW251817   1.205   7.741   0.842 -0.0236 -0.7746  0.5505
16906SOL     OW51818   3.652   1.236   1.713 -0.1810  0.3812 -0.2252
16906SOL    HW151819   3.581   1.241   1.777  1.9891  0.9375  2.3185
16906SOL    HW251820   3.663   1.325   1.682 -0.5181  0.3128 -0.5446
16907SOL     OW51821   3.735   8.950   1.564 -0.2723 -0.1580 -0.2125
16907SOL    HW151822   3.641   8.931   1.567 -0.3605  0.0085 -1.5923
16907SOL    HW251823   3.740   9.042   1.540  0.2460  0.1328  0.9416
16908SOL     OW51824   6.186   0.696   4.973  0.6079 -0.7684 -0.3226
16908SOL    HW151825   6.141   0.779   4.960  1.7560 -0.2305 -1.0775
16908SOL    HW251826   6.116   0.631   4.983 -0.3273  0.4859  1.8166
16909SOL     OW51827   2.645   3.878   6.919  0.3606 -0.0113 -0.8279
16909SOL    HW151828   2.706   3.871   6.846  0.7466  0.5259 -0.5627
16909SOL    HW251829   2.592   3.955   6.898  0.7788  0.4246 -0.3246
16910SOL     OW51830   3.209   3.943   1.849  0.7055 -0.1266  0.1850
16910SOL    HW151831   3.124   3.952   1.891  1.2484  1.4006  1.0651
16910SOL    HW251832   3.244   4.032   1.847  3.2451 -0.9625  1.9832
16911SOL     OW51833   6.120   4.515   6.080  0.0647  0.2335 -0.2585
16911SOL    HW151834   6.207   4.540   6.113  0.6656 -0.1055 -1.5003
16911SOL    HW251835   6.138   4.442   6.020 -0.8248  1.4242 -2.0671
16912SOL     OW51836   1.800   6.075   4.273  0.2253  0.2425 -0.3153
16912SOL    HW151837   1.755   6.003   4.228  1.2667 -1.6241  1.4715
16912SOL    HW251838   1.738   6.103   4.340  0.3839  0.0251 -0.0782
16913SOL     OW51839   8.224   8.305   0.347  0.3856 -0.2160  0.2987
16913SOL    HW151840   8.277   8.383   0.330  1.4595 -0.7820  0.9313
16913SOL    HW251841   8.152   8.336   0.401  1.8640  0.0520  2.2284
16914SOL     OW51842   0.791   2.677   0.138 -0.3137 -0.2328 -0.1432
16914SOL    HW151843   0.732   2.646   0.069 -0.1085 -2.2508  0.5201
16914SOL    HW251844   0.778   2.615   0.210  2.2780 -0.4925  0.1968
16915SOL     OW51845   5.901   1.713   6.887 -0.2206  0.2088 -0.4955
16915SOL    HW151846   5.959   1.663   6.830  0.9480 -1.0835  1.6796
16915SOL    HW251847   5.959   1.771   6.935 -1.0050  0.4529  0.1774
16916SOL     OW51848   7.214   0.971   8.237  0.5946  0.6459  0.4585
16916SOL    HW151849   7.191   1.003   8.150  0.0251 -0.4045  0.2100
16916SOL    HW251850   7.227   1.050   8.289 -0.7450  1.2890 -0.1388
16917SOL     OW51851   3.073   9.040   2.604 -0.0642 -0.0502 -0.3420
16917SOL    HW151852   3.015   9.087   2.663 -2.0898 -2.3501 -0.3542
16917SOL    HW251853   3.129   9.108   2.566 -2.5097  2.2726 -0.0833
16918SOL     OW51854   3.660   1.994   1.221 -0.2359  0.1005  0.5552
16918SOL    HW151855   3.679   2.040   1.139  0.2887  0.6456  0.9778
16918SOL    HW251856   3.693   1.905   1.207  2.0593  0.8256  1.0206
16919SOL     OW51857   2.247   3.064   7.429  0.1564 -0.4384 -0.0949
16919SOL    HW151858   2.314   3.025   7.372  1.7067 -1.0631  2.0119
16919SOL    HW251859   2.184   2.993   7.444 -0.5497 -0.1076 -1.4147
16920SOL     OW51860   7.000   3.760   9.096 -0.0343  0.8420  0.2522
16920SOL    HW151861   6.955   3.675   9.094 -0.8078  1.2449 -1.9696
16920SOL    HW251862   6.934   3.821   9.128  0.0686  0.8429  0.4625
16921SOL     OW51863   1.014   2.608   7.627  0.7757  0.1586  0.0184
16921SOL    HW151864   0.995   2.582   7.717  0.4121  0.8568  0.1551
16921SOL    HW251865   0.995   2.702   7.625  0.5981  0.1145 -0.8343
16922SOL     OW51866   0.943   4.565   0.231  0.1882 -0.2950  0.3659
16922SOL    HW151867   0.976   4.653   0.213 -0.4582 -0.3808 -1.4658
16922SOL    HW251868   0.865   4.579   0.285 -0.0236  0.2728 -0.0818
16923SOL     OW51869   6.901   7.249   3.699  0.3575  0.4546  0.5437
16923SOL    HW151870   6.862   7.178   3.649  0.4686 -0.2689  1.4511
16923SOL    HW251871   6.851   7.252   3.780  1.1428  0.5815  1.0388
16924SOL     OW51872   3.300   8.223   0.231 -0.3617  0.0755 -0.6219
16924SOL    HW151873   3.295   8.178   0.147 -1.0023  0.1313 -0.6129
16924SOL    HW251874   3.209   8.237   0.257 -0.2106 -1.4941  0.9297
16925SOL     OW51875   8.221   2.873   8.609 -0.1832  0.4631 -0.1036
16925SOL    HW151876   8.215   2.966   8.629 -0.2100  0.7684 -1.4359
16925SOL    HW251877   8.315   2.854   8.612 -0.1416  0.6399 -0.2383
16926SOL     OW51878   2.677   0.664   1.731 -0.4145 -0.1530  0.2356
16926SOL    HW151879   2.737   0.592   1.754 -0.3711  0.2350  1.3860
16926SOL    HW251880   2.689   0.728   1.801  0.0439  1.2984 -1.1201
16927SOL     OW51881   6.460   2.456   8.543  0.1012 -0.0328  0.6299
16927SOL    HW151882   6.508   2.459   8.461  0.3369  0.0214  0.7688
16927SOL    HW251883   6.484   2.538   8.587 -1.0004  0.5413  0.1983
16928SOL     OW51884   0.942   4.888   2.004 -0.2184 -0.7596  0.5432
16928SOL    HW151885   1.028   4.861   1.970  0.3919 -0.2715  1.6516
16928SOL    HW251886   0.880   4.829   1.961  0.3417  0.5735 -2.3880
16929SOL     OW51887   2.234   3.975   2.497 -0.2021  0.3766 -0.3648
16929SOL    HW151888   2.178   4.021   2.558  1.2886  0.7831  0.7682
16929SOL    HW251889   2.321   3.976   2.538  0.5349 -0.6854 -1.7772
16930SOL     OW51890   0.156   4.990   5.783 -0.8750 -0.5820 -0.1772
16930SOL    HW151891   0.113   4.904   5.775 -1.9377 -0.1194  0.3738
16930SOL    HW251892   0.118   5.029   5.862 -0.2599  0.3213 -0.3106
16931SOL     OW51893   5.397   4.320   5.631 -0.1409 -0.1439  0.2763
16931SOL    HW151894   5.371   4.286   5.717  2.0010  0.5432  1.2684
16931SOL    HW251895   5.341   4.396   5.618 -0.5506 -0.3038  1.0271
16932SOL     OW51896   3.088   8.017   5.304 -0.0768 -0.4643 -0.6122
16932SOL    HW151897   2.995   7.998   5.295 -0.0602 -0.5562 -0.5956
16932SOL    HW251898   3.102   8.099   5.256 -0.2589 -0.1904 -0.2109
16933SOL     OW51899   0.273   4.383   7.664 -0.3899  0.7785  0.0101
16933SOL    HW151900   0.297   4.332   7.741 -0.8721  0.9218  0.2613
16933SOL    HW251901   0.194   4.341   7.630  0.5146 -0.0688 -1.1736
16934SOL     OW51902   8.617   0.503   2.460 -0.1799 -0.3396 -1.1407
16934SOL    HW151903   8.644   0.594   2.476 -2.1792  0.1972 -0.4283
16934SOL    HW251904   8.656   0.480   2.376  1.8819  0.5153 -0.4810
16935SOL     OW51905   1.225   6.214   6.474 -0.0953  0.0061 -0.1168
16935SOL    HW151906   1.313   6.246   6.494  0.1964 -1.5140  1.1914
16935SOL    HW251907   1.234   6.172   6.389  0.1509  0.8802 -0.5364
16936SOL     OW51908   4.234   2.278   1.975 -0.0933  0.7312  0.0732
16936SOL    HW151909   4.219   2.216   1.904 -0.0309 -1.0172  1.5188
16936SOL    HW251910   4.328   2.270   1.994 -0.1373  1.0744  0.4436
16937SOL     OW51911   8.633   0.619   4.270 -0.5178  0.0079 -0.0294
16937SOL    HW151912   8.560   0.590   4.323 -2.2926  1.5575 -1.4747
16937SOL    HW251913   8.616   0.712   4.255  2.3236  0.6940  0.4273
16938SOL     OW51914   3.793   9.131   8.869 -0.1326  0.5496 -0.2671
16938SOL    HW151915   3.705   9.094   8.864 -0.6707  1.9134 -1.5125
16938SOL    HW251916   3.780   9.221   8.901  1.0142  0.1896  1.3805
16939SOL     OW51917   8.563   5.917   5.330  0.5728 -0.0192 -0.2840
16939SOL    HW151918   8.545   5.837   5.280 -0.3047 -0.3596  0.5263
16939SOL    HW251919   8.642   5.896   5.381  0.5919 -0.2158 -0.3931
16940SOL     OW51920   2.099   2.965   8.273  0.0300  0.5098 -0.0139
16940SOL    HW151921   2.167   2.897   8.272  0.2591  0.7386  0.3207
16940SOL    HW251922   2.067   2.965   8.363  0.0062  0.8230 -0.0234
16941SOL     OW51923   4.941   4.430   5.900  0.3057 -0.2597  0.0211
16941SOL    HW151924   4.888   4.375   5.843  0.2106 -0.3001  0.1496
16941SOL    HW251925   4.959   4.375   5.976  0.5664 -0.2615 -0.0410
16942SOL     OW51926   1.532   5.140   6.304 -0.0121  0.0871 -0.1891
16942SOL    HW151927   1.625   5.146   6.280  0.0157  1.7159  0.2080
16942SOL    HW251928   1.485   5.173   6.228 -0.3040 -1.1490 -0.5575
16943SOL     OW51929   1.838   0.707   2.432 -0.0404 -0.2147 -0.0289
16943SOL    HW151930   1.845   0.641   2.501  1.1932 -0.9246 -0.8051
16943SOL    HW251931   1.895   0.779   2.460  0.5814 -0.5688 -0.3549
16944SOL     OW51932   3.356   6.724   8.247  1.0519  0.3591 -0.2702
16944SOL    HW151933   3.326   6.802   8.294 -0.3964 -0.3218 -0.0215
16944SOL    HW251934   3.325   6.650   8.299  2.5938 -0.4196 -0.3834
16945SOL     OW51935   6.366   6.717   8.190 -0.8404 -0.2825 -0.3075
16945SOL    HW151936   6.416   6.785   8.145  1.7121 -0.5343  1.8732
16945SOL    HW251937   6.304   6.765   8.245 -0.0237  0.2643  0.1533
16946SOL     OW51938   6.031   2.677   8.048 -0.3499 -0.0339  0.3172
16946SOL    HW151939   5.949   2.724   8.032 -0.4932 -0.5835 -0.6299
16946SOL    HW251940   6.028   2.657   8.141 -0.8187  0.8276  0.5072
16947SOL     OW51941   5.716   5.606   7.547  0.0864  0.2145  0.2015
16947SOL    HW151942   5.675   5.531   7.589 -1.3756  0.1908 -1.2030
16947SOL    HW251943   5.804   5.610   7.586  0.1956 -2.1885  0.3373
16948SOL     OW51944   4.387   5.787   0.865 -1.1426 -0.3263  0.0307
16948SOL    HW151945   4.320   5.823   0.807  0.2731  1.9211 -0.3505
16948SOL    HW251946   4.407   5.701   0.828  1.4525  1.8484 -4.5768
16949SOL     OW51947   4.536   4.850   4.359  1.0186  0.6586  0.0893
16949SOL    HW151948   4.506   4.760   4.374  2.4530  0.2226  0.4734
16949SOL    HW251949   4.537   4.859   4.264  1.3357  0.1045  0.0353
16950SOL     OW51950   1.994   1.249   2.725 -0.4481 -0.3849 -0.0626
16950SOL    HW151951   2.039   1.319   2.678 -2.4096  0.7352 -0.3995
16950SOL    HW251952   2.029   1.254   2.814  1.1857 -0.6141 -0.6582
16951SOL     OW51953   3.255   8.916   2.141  0.0913 -0.3207  0.1969
16951SOL    HW151954   3.191   8.882   2.204  0.5714 -0.4759  0.6035
16951SOL    HW251955   3.307   8.979   2.192 -1.8681  2.3965 -0.9097
16952SOL     OW51956   8.645   6.785   4.403 -0.0856  0.0135 -0.3790
16952SOL    HW151957   8.721   6.735   4.373 -0.7175 -0.4964 -1.1721
16952SOL    HW251958   8.682   6.856   4.456  0.8229 -1.3884  0.9273
16953SOL     OW51959   0.497   4.188   4.750 -0.2897 -1.0798 -0.5514
16953SOL    HW151960   0.489   4.268   4.803 -0.2210 -1.0632 -0.5658
16953SOL    HW251961   0.590   4.167   4.753 -0.2772 -1.0524 -0.7040
16954SOL     OW51962   7.403   0.856   4.210  0.0880  0.5270 -0.0354
16954SOL    HW151963   7.440   0.774   4.179 -0.1794  0.3873  0.0105
16954SOL    HW251964   7.469   0.922   4.190 -0.1581  0.4718 -1.0869
16955SOL     OW51965   5.967   4.820   4.617  0.0706 -0.3090  0.4634
16955SOL    HW151966   5.959   4.731   4.650 -0.0022 -0.3954  0.2206
16955SOL    HW251967   6.061   4.835   4.609  0.0764 -0.5078  0.1315
16956SOL     OW51968   8.548   0.349   5.478 -0.2813 -0.3106 -0.8720
16956SOL    HW151969   8.505   0.416   5.425  1.1018  0.2773 -1.3103
16956SOL    HW251970   8.540   0.381   5.568  0.8997  0.8107 -1.1269
16957SOL     OW51971   7.644   3.209   4.838  0.1095 -0.2239  0.0096
16957SOL    HW151972   7.617   3.269   4.907  1.5977  0.5451 -0.0251
16957SOL    HW251973   7.568   3.204   4.779 -0.4779  0.6484  0.6679
16958SOL     OW51974   7.454   2.928   4.069  0.1944 -0.2985 -0.3602
16958SOL    HW151975   7.542   2.928   4.031  0.7170  1.2605  0.7307
16958SOL    HW251976   7.400   2.973   4.003  0.7843  1.0505  0.0303
16959SOL     OW51977   3.550   1.257   7.224 -0.6610  0.2374  0.7655
16959SOL    HW151978   3.552   1.336   7.169 -1.2646  0.4558  1.0489
16959SOL    HW251979   3.525   1.289   7.311  2.1140  0.1760  1.6696
16960SOL     OW51980   3.673   7.641   1.275 -0.3184 -0.4090  0.0814
16960SOL    HW151981   3.589   7.686   1.277  0.3972  1.2672 -2.4950
16960SOL    HW251982   3.654   7.555   1.236 -0.9545 -0.3863  0.3417
16961SOL     OW51983   0.804   2.005   4.685  0.1110  0.1048 -0.0344
16961SOL    HW151984   0.877   1.942   4.693  0.1597 -0.0738 -1.5208
16961SOL    HW251985   0.727   1.950   4.675  0.0484  0.2738 -0.5172
16962SOL     OW51986   5.464   4.406   4.425  0.2350 -0.2845  0.2076
16962SOL    HW151987   5.463   4.420   4.330 -1.6272 -0.4661  0.1702
16962SOL    HW251988   5.544   4.448   4.454  1.4066 -1.1290 -1.5748
16963SOL     OW51989   3.909   2.356   7.061 -0.5838 -0.4969  0.5855
16963SOL    HW151990   3.985   2.415   7.062 -0.4237 -0.7028  0.9532
16963SOL    HW251991   3.842   2.404   7.013  0.2685 -0.9390 -1.1248
16964SOL     OW51992   7.554   9.087   9.121  0.1735 -0.1795 -0.2056
16964SOL    HW151993   7.564   9.139   9.200  0.3478 -1.1958  0.4639
16964SOL    HW251994   7.617   9.016   9.131  0.8643  0.1690 -1.6944
16965SOL     OW51995   4.438   7.157   1.900  0.4692 -0.2325  0.2915
16965SOL    HW151996   4.514   7.101   1.885 -0.0784 -1.2228  1.0767
16965SOL    HW251997   4.409   7.182   1.812  1.4649 -0.1565 -0.0251
16966SOL     OW51998   6.008   6.347   7.113  0.2345 -0.5298  0.0790
16966SOL    HW151999   6.020   6.422   7.056  0.2397 -0.5791  0.0145
16966SOL    HW252000   5.998   6.384   7.201 -0.9592 -0.3747 -0.1035
16967SOL     OW52001   0.529   0.729   5.113 -0.0621 -0.2351  0.7648
16967SOL    HW152002   0.566   0.678   5.185 -0.8384  0.0623  1.3927
16967SOL    HW252003   0.556   0.682   5.034  2.0353  0.2345  1.1475
16968SOL     OW52004   6.831   2.978   3.210  0.0386  0.1168  0.1263
16968SOL    HW152005   6.897   2.937   3.266 -0.5402  0.7281  1.2916
16968SOL    HW252006   6.852   3.071   3.211 -0.9731  0.3607  0.7290
16969SOL     OW52007   1.872   7.506   1.264 -0.0847 -0.6592 -0.1194
16969SOL    HW152008   1.893   7.468   1.349  0.5908  2.2020  1.1112
16969SOL    HW252009   1.952   7.494   1.212  0.8609  0.7215  0.9287
16970SOL     OW52010   4.760   8.184   4.124  0.3475 -0.2881 -0.0626
16970SOL    HW152011   4.758   8.204   4.030  0.4589  1.8723  0.3573
16970SOL    HW252012   4.668   8.180   4.149  0.2684 -2.1620 -0.4572
16971SOL     OW52013   5.439   0.018   7.339 -0.0431 -0.2605  0.0032
16971SOL    HW152014   5.417   0.048   7.427 -1.1092 -1.6817  0.2614
16971SOL    HW252015   5.531   0.040   7.328 -0.3056  1.4032  0.8330
16972SOL     OW52016   8.546   1.347   7.411 -0.1790 -0.0866 -0.0676
16972SOL    HW152017   8.598   1.385   7.481 -1.6895  1.4311  0.2849
16972SOL    HW252018   8.610   1.304   7.354  1.2016 -0.2282  1.5200
16973SOL     OW52019   3.168   7.983   6.723 -1.3329  0.7489 -0.2533
16973SOL    HW152020   3.095   7.922   6.717 -0.6543  0.0216 -1.9967
16973SOL    HW252021   3.218   7.953   6.800 -1.0035 -0.9750 -1.0706
16974SOL     OW52022   8.176   0.495   4.731  0.3518 -0.2184 -0.1556
16974SOL    HW152023   8.095   0.489   4.782  0.8796 -2.1141  0.5304
16974SOL    HW252024   8.147   0.519   4.643 -0.7593  1.0692  0.5273
16975SOL     OW52025   3.180   1.828   7.156  0.3088  0.8881  0.1220
16975SOL    HW152026   3.138   1.863   7.077  1.8275 -0.9140 -1.5914
16975SOL    HW252027   3.264   1.874   7.160  1.3484 -0.8202 -0.8673
16976SOL     OW52028   8.937   0.410   3.187 -0.5397 -0.0092 -0.0875
16976SOL    HW152029   9.022   0.372   3.210 -0.4157  0.7128  0.6853
16976SOL    HW252030   8.952   0.448   3.100 -0.2105 -0.2971 -0.1629
16977SOL     OW52031   5.853   7.565   5.014  0.0702 -0.8158  0.8152
16977SOL    HW152032   5.854   7.641   5.072  0.4848  0.0578 -0.3117
16977SOL    HW252033   5.928   7.577   4.956  1.1940 -2.9739  1.7011
16978SOL     OW52034   1.720   7.863   4.464  0.3954  0.3255  0.4680
16978SOL    HW152035   1.795   7.805   4.451 -1.1778 -1.4819 -0.9269
16978SOL    HW252036   1.736   7.936   4.404 -0.0088 -1.1622 -1.5406
16979SOL     OW52037   6.354   0.544   0.200 -0.2783 -0.0878  0.1006
16979SOL    HW152038   6.409   0.568   0.275  1.2680 -0.0015 -1.0194
16979SOL    HW252039   6.303   0.623   0.182  2.6440  1.5620 -1.7130
16980SOL     OW52040   2.145   4.172   8.648  0.3211  0.5979 -0.0833
16980SOL    HW152041   2.178   4.110   8.583  2.1400 -1.0260  2.2021
16980SOL    HW252042   2.103   4.241   8.597  0.6133 -1.1471 -2.8785
16981SOL     OW52043   8.147   4.585   2.919 -0.3263 -0.1660  0.5979
16981SOL    HW152044   8.173   4.648   2.986  2.0363 -2.2958  1.8629
16981SOL    HW252045   8.230   4.550   2.886 -1.5040 -1.1341 -1.5417
16982SOL     OW52046   3.048   7.483   7.939  0.4237 -0.6218 -0.3508
16982SOL    HW152047   3.105   7.472   7.863  1.3959  0.8152  0.1196
16982SOL    HW252048   3.083   7.421   8.004  2.4737  1.2147  0.4447
16983SOL     OW52049   6.431   7.534   7.894 -0.5404 -0.1076 -0.2643
16983SOL    HW152050   6.435   7.454   7.842  2.9399  0.2361 -0.7321
16983SOL    HW252051   6.414   7.504   7.983  2.0522 -1.5785 -0.1916
16984SOL     OW52052   5.489   1.492   8.522 -0.4082  0.4932  0.1698
16984SOL    HW152053   5.455   1.442   8.447 -1.8594  2.0431 -0.2863
16984SOL    HW252054   5.578   1.517   8.496 -0.4325 -0.0706 -0.4894
16985SOL     OW52055   4.386   3.572   4.212  0.0478  0.1185  0.0807
16985SOL    HW152056   4.439   3.589   4.289 -0.6697 -3.1511  1.4760
16985SOL    HW252057   4.449   3.559   4.141  1.1149 -1.6952  1.2774
16986SOL     OW52058   4.718   8.394   4.440  0.7566 -0.0911  0.2890
16986SOL    HW152059   4.709   8.460   4.508 -1.9449  0.9004 -0.8844
16986SOL    HW252060   4.761   8.440   4.367 -2.0218  0.8435 -0.9045
16987SOL     OW52061   3.187   0.998   7.799  0.2478  0.0592 -0.1531
16987SOL    HW152062   3.249   1.031   7.734 -0.1336  1.1341 -0.0047
16987SOL    HW252063   3.237   0.937   7.852  0.9463  0.2534 -0.5780
16988SOL     OW52064   1.374   2.737   1.503 -0.5077  0.4227 -0.1801
16988SOL    HW152065   1.292   2.784   1.485  0.2287  1.4851 -0.8478
16988SOL    HW252066   1.441   2.787   1.456  0.7395  0.3699  1.4540
16989SOL     OW52067   8.979   4.311   7.081  0.0245 -0.0606  0.6611
16989SOL    HW152068   9.033   4.265   7.145  0.9145 -0.9991 -0.7014
16989SOL    HW252069   9.022   4.395   7.069 -0.7159  0.5433  1.9938
16990SOL     OW52070   4.199   0.781   7.404 -0.5998  0.0091 -0.3976
16990SOL    HW152071   4.258   0.705   7.400  0.2292  0.6144  0.0518
16990SOL    HW252072   4.124   0.755   7.351 -1.2235 -1.9058  1.3116
16991SOL     OW52073   3.112   1.820   0.703 -0.2035 -0.1971  0.4023
16991SOL    HW152074   3.037   1.779   0.746 -0.4772 -0.5509 -0.3817
16991SOL    HW252075   3.136   1.893   0.760 -0.9245 -0.2937  0.8396
16992SOL     OW52076   2.521   5.819   1.330  0.2251 -0.8115 -0.7993
16992SOL    HW152077   2.481   5.770   1.402 -0.2731 -0.1377 -0.6025
16992SOL    HW252078   2.615   5.805   1.341  0.1349 -0.9749 -0.1983
16993SOL     OW52079   6.110   4.387   1.023  0.7490  0.0130 -0.1104
16993SOL    HW152080   6.110   4.296   1.051  0.8610 -0.7315 -2.2990
16993SOL    HW252081   6.038   4.428   1.071  0.1501 -1.4418  0.2717
16994SOL     OW52082   5.055   5.668   1.720  0.2367 -0.4564 -0.0195
16994SOL    HW152083   4.982   5.633   1.772 -0.2668  0.3203 -0.1850
16994SOL    HW252084   5.059   5.612   1.643 -0.7037 -0.0407 -0.3860
16995SOL     OW52085   7.239   1.043   7.268 -0.2841  0.3274  0.6776
16995SOL    HW152086   7.155   1.003   7.247  0.3102 -1.5487  1.6507
16995SOL    HW252087   7.219   1.105   7.338 -1.0423  0.8469  0.0159
16996SOL     OW52088   6.752   7.895   2.132 -0.1550  0.0577 -0.4183
16996SOL    HW152089   6.657   7.910   2.137 -0.0458  0.7075 -0.2024
16996SOL    HW252090   6.778   7.878   2.222 -0.0170  0.1895 -0.4339
16997SOL     OW52091   0.186   4.846   1.024 -0.3779  0.0748  0.4800
16997SOL    HW152092   0.127   4.859   0.949 -1.5794  0.4490  1.4671
16997SOL    HW252093   0.252   4.915   1.014 -1.0508  0.7000  0.2652
16998SOL     OW52094   3.702   5.478   4.160  0.1258  0.0646 -0.6877
16998SOL    HW152095   3.629   5.535   4.185  1.1788  1.0342  0.2741
16998SOL    HW252096   3.665   5.419   4.095 -1.1105  1.5794 -1.4113
16999SOL     OW52097   3.361   1.992   7.058 -0.0647  0.4978 -0.2136
16999SOL    HW152098   3.435   1.935   7.081  0.2504  0.3716 -1.4922
16999SOL    HW252099   3.355   1.987   6.963 -2.2075 -0.1046 -0.1030
17000SOL     OW52100   6.225   0.130   0.518  0.4701 -0.3535 -0.1554
17000SOL    HW152101   6.262   0.159   0.601  1.7519 -1.7736 -0.1754
17000SOL    HW252102   6.296   0.141   0.454  0.2791 -1.3852 -0.5774
17001SOL     OW52103   0.595   1.013   0.334  0.0791  0.2865  0.2376
17001SOL    HW152104   0.505   0.991   0.355  0.2884 -1.2556 -0.3690
17001SOL    HW252105   0.643   0.998   0.415  0.0884 -0.7523  0.0432
17002SOL     OW52106   6.664   1.718   2.538 -0.1411  0.2997 -0.5205
17002SOL    HW152107   6.727   1.790   2.542  1.4690 -1.1234  1.9342
17002SOL    HW252108   6.683   1.673   2.456 -0.3623  1.8771 -1.4893
17003SOL     OW52109   3.820   5.790   8.932 -0.1637 -0.3337 -0.0665
17003SOL    HW152110   3.875   5.718   8.965 -0.1716 -0.7779 -0.9883
17003SOL    HW252111   3.878   5.839   8.873 -0.9776 -1.3935 -1.8455
17004SOL     OW52112   6.332   0.738   7.432  0.0855  0.1848  0.1954
17004SOL    HW152113   6.383   0.711   7.508 -1.6816 -1.2083  0.9734
17004SOL    HW252114   6.355   0.673   7.365 -1.8150 -1.5333  1.0850
17005SOL     OW52115   2.430   8.135   0.999  0.5473 -0.2203 -0.5543
17005SOL    HW152116   2.365   8.069   0.974  1.9687 -1.9007 -0.0063
17005SOL    HW252117   2.493   8.088   1.053  0.9418  1.8955  0.9782
17006SOL     OW52118   5.166   8.456   9.085 -0.2923  0.0233 -0.2080
17006SOL    HW152119   5.076   8.439   9.055 -0.2354  1.6346 -1.4053
17006SOL    HW252120   5.170   8.416   9.172 -1.9885 -0.5788 -0.3707
17007SOL     OW52121   7.218   5.636   6.329  0.9311 -0.3399 -0.0640
17007SOL    HW152122   7.261   5.653   6.246 -1.0989 -1.2505 -1.3756
17007SOL    HW252123   7.135   5.594   6.306  0.8612 -1.8356  2.4731
17008SOL     OW52124   5.941   8.171   4.492  0.2507  0.1605 -0.2010
17008SOL    HW152125   5.969   8.183   4.582  1.5886 -1.4075 -0.3535
17008SOL    HW252126   5.932   8.076   4.482  1.7250  0.1552 -2.1408
17009SOL     OW52127   1.317   1.206   4.449 -0.7059 -0.0928 -0.6204
17009SOL    HW152128   1.246   1.268   4.463  0.0416  1.1800 -2.1534
17009SOL    HW252129   1.297   1.165   4.365 -0.7927 -1.4255  0.0179
17010SOL     OW52130   8.697   0.929   5.685 -0.0291 -0.1117  0.7650
17010SOL    HW152131   8.708   0.875   5.764  1.4930  0.7417  1.1699
17010SOL    HW252132   8.602   0.933   5.672 -0.2589 -1.0983  1.9662
17011SOL     OW52133   8.146   8.575   3.670  0.1313 -0.1514 -0.3501
17011SOL    HW152134   8.077   8.525   3.626 -0.1721  0.8220 -1.0108
17011SOL    HW252135   8.123   8.667   3.654  1.3637  0.1904 -0.2433
17012SOL     OW52136   1.629   0.755   9.095 -0.1056 -0.0280 -0.2568
17012SOL    HW152137   1.677   0.781   9.016 -2.1457  0.0227 -1.5463
17012SOL    HW252138   1.549   0.807   9.093  0.2460  0.7893  2.4874
17013SOL     OW52139   2.023   0.216   7.109  0.1759  0.0310  0.2775
17013SOL    HW152140   1.996   0.140   7.161 -0.8978  0.3810  0.2423
17013SOL    HW252141   2.008   0.191   7.018  1.0562 -0.1829  0.1746
17014SOL     OW52142   5.306   5.758   1.791  0.5298  0.1206 -0.2459
17014SOL    HW152143   5.212   5.745   1.778  0.1075 -0.5641  2.6306
17014SOL    HW252144   5.333   5.682   1.842  2.0390  1.6342  1.3507
17015SOL     OW52145   7.703   6.350   9.012 -0.4005  0.7390 -0.1330
17015SOL    HW152146   7.655   6.358   8.929  0.2449  0.5613 -0.5249
17015SOL    HW252147   7.635   6.362   9.079 -1.0853  0.0418 -0.6758
17016SOL     OW52148   5.055   5.724   4.413 -0.0591  0.5954 -0.4589
17016SOL    HW152149   5.059   5.628   4.409 -1.5006  0.4823  0.1519
17016SOL    HW252150   5.106   5.748   4.490 -0.3896  0.2491 -0.1304
17017SOL     OW52151   1.167   0.272   6.493 -0.8113  0.3442  0.1888
17017SOL    HW152152   1.148   0.329   6.568  0.6747  0.7017  0.3323
17017SOL    HW252153   1.081   0.251   6.456 -1.6567 -0.5985  2.5282
17018SOL     OW52154   6.032   2.716   0.663 -0.1201  0.2274  0.2117
17018SOL    HW152155   5.963   2.741   0.725 -0.1289  0.2273  0.2019
17018SOL    HW252156   5.986   2.669   0.594 -0.0211 -0.4239  0.5771
17019SOL     OW52157   6.924   3.151   8.060 -0.0562 -0.3562 -0.5454
17019SOL    HW152158   6.834   3.146   8.092 -0.0607 -3.3510 -0.7546
17019SOL    HW252159   6.978   3.148   8.140 -0.1463 -1.0897 -0.5029
17020SOL     OW52160   0.755   5.530   7.997 -0.5257 -0.1689 -0.1987
17020SOL    HW152161   0.772   5.624   7.984  0.2507 -0.4012 -0.9319
17020SOL    HW252162   0.678   5.528   8.054 -0.8726  0.9226 -0.5938
17021SOL     OW52163   2.444   5.463   6.093  0.1219 -0.0251 -0.1683
17021SOL    HW152164   2.361   5.494   6.059  0.2416  0.1355 -0.3160
17021SOL    HW252165   2.469   5.527   6.160 -0.4559 -0.7163  0.7256
17022SOL     OW52166   3.020   8.387   6.211 -0.2205  0.2601 -0.5393
17022SOL    HW152167   3.011   8.301   6.171  0.2728  0.3696 -0.8988
17022SOL    HW252168   2.947   8.438   6.177  0.5852  0.5711 -1.8861
17023SOL     OW52169   0.932   2.345   6.980  0.5639  0.7073 -0.0487
17023SOL    HW152170   0.953   2.358   7.073  1.0589 -3.4952  0.6390
17023SOL    HW252171   1.014   2.365   6.934  1.1596  0.1656  0.7544
17024SOL     OW52172   8.818   8.005   3.898 -0.0069  0.2802  0.4870
17024SOL    HW152173   8.897   8.046   3.934  0.5798  0.0390 -0.5040
17024SOL    HW252174   8.832   7.911   3.909  0.2965  0.1880 -0.5775
17025SOL     OW52175   4.674   6.276   5.733 -0.8626 -0.6483 -0.2562
17025SOL    HW152176   4.595   6.262   5.680 -0.2519 -1.1501 -1.0677
17025SOL    HW252177   4.726   6.196   5.719  1.1826  0.8923 -2.2488
17026SOL     OW52178   5.001   7.444   5.268  0.3257 -0.3866  0.0997
17026SOL    HW152179   5.038   7.361   5.298 -0.3191 -0.1303  1.7402
17026SOL    HW252180   5.007   7.440   5.173 -2.6097 -3.7360 -0.1554
17027SOL     OW52181   3.637   2.560   6.654 -0.1582 -0.0588  0.5132
17027SOL    HW152182   3.672   2.574   6.741 -0.2292  1.1824  0.3572
17027SOL    HW252183   3.639   2.465   6.642 -0.4688 -0.2683  1.9896
17028SOL     OW52184   7.439   1.124   3.773  0.0216 -0.0586 -0.4681
17028SOL    HW152185   7.437   1.040   3.727  1.8438 -0.3714 -0.0509
17028SOL    HW252186   7.525   1.126   3.816 -0.6483  1.3064  0.8879
17029SOL     OW52187   4.231   7.833   4.385 -0.4817  0.3999 -0.4736
17029SOL    HW152188   4.238   7.917   4.431  0.2159  1.1206 -1.8546
17029SOL    HW252189   4.180   7.852   4.307 -1.5210 -0.7904 -0.1141
17030SOL     OW52190   8.182   3.043   1.523 -0.3983 -0.1673 -0.1397
17030SOL    HW152191   8.131   2.990   1.583  0.1940  0.9855  1.4751
17030SOL    HW252192   8.182   2.995   1.441 -0.8276 -2.0638  0.9268
17031SOL     OW52193   2.371   2.048   8.881 -1.1407  0.1007  0.3779
17031SOL    HW152194   2.318   2.049   8.961 -0.1324 -0.6101  1.0796
17031SOL    HW252195   2.436   2.117   8.895 -0.0110 -1.0364  0.8559
17032SOL     OW52196   6.471   3.333   2.510 -0.4607  0.4361 -0.1278
17032SOL    HW152197   6.394   3.390   2.502  0.1543  1.2515 -0.4198
17032SOL    HW252198   6.537   3.374   2.453  1.0304  1.1810  2.0117
17033SOL     OW52199   4.200   3.709   3.548 -0.3914 -0.8918 -0.0368
17033SOL    HW152200   4.115   3.696   3.507 -0.9309  1.3917  0.2221
17033SOL    HW252201   4.247   3.767   3.487  0.2663 -0.6476  0.6890
17034SOL     OW52202   0.068   7.328   6.021  0.3305  0.7631 -0.0953
17034SOL    HW152203   0.048   7.376   6.101  2.1520  1.1650  0.1693
17034SOL    HW252204   0.163   7.337   6.011  0.0262  1.7933 -2.9661
17035SOL     OW52205   6.520   9.104   0.184  0.3027 -0.3848  0.7296
17035SOL    HW152206   6.458   9.057   0.241 -0.0688  0.2023  0.8313
17035SOL    HW252207   6.483   9.095   0.096 -0.9741  1.4980  1.0047
17036SOL     OW52208   4.974   2.043   8.273 -0.0038 -0.2362 -0.1548
17036SOL    HW152209   5.041   2.111   8.263  1.9830 -1.8012  1.5639
17036SOL    HW252210   4.923   2.047   8.192  0.7023  2.5485 -0.5440
17037SOL     OW52211   2.539   5.164   2.138 -0.0071  0.1774 -0.0588
17037SOL    HW152212   2.617   5.109   2.132 -0.2490 -0.6613  3.0209
17037SOL    HW252213   2.561   5.231   2.203 -1.6238  0.3383  0.3661
17038SOL     OW52214   5.932   7.016   4.019 -0.5591  0.6761  0.1472
17038SOL    HW152215   5.882   7.051   4.092 -0.6332  1.3534 -0.2233
17038SOL    HW252216   5.913   6.922   4.020 -0.3407  0.6287  1.1639
17039SOL     OW52217   1.393   5.646   5.239 -0.5746 -0.1058  0.0010
17039SOL    HW152218   1.472   5.701   5.240  0.4139 -1.4378 -0.5798
17039SOL    HW252219   1.324   5.702   5.273 -0.2051  2.3219 -2.8127
17040SOL     OW52220   0.639   8.851   2.356  0.0402  0.2089  0.3355
17040SOL    HW152221   0.621   8.783   2.420  0.2585  0.5258  0.7381
17040SOL    HW252222   0.598   8.930   2.392  0.8269  0.5665  0.4722
17041SOL     OW52223   8.567   3.014   6.618 -0.2676 -0.2386 -0.1302
17041SOL    HW152224   8.583   2.942   6.679  2.0920  0.1038 -0.2349
17041SOL    HW252225   8.628   2.999   6.546 -1.7554  0.3317 -1.5923
17042SOL     OW52226   0.451   8.365   8.962 -0.2155 -0.1856 -0.6844
17042SOL    HW152227   0.539   8.380   8.926  0.1240  0.7668  0.4909
17042SOL    HW252228   0.400   8.440   8.932 -0.3483 -0.1897 -0.4653
17043SOL     OW52229   2.950   5.799   1.572 -0.3578 -0.2214 -0.0672
17043SOL    HW152230   3.012   5.731   1.599 -2.7434 -1.8356  1.7530
17043SOL    HW252231   2.907   5.763   1.495  1.2632  1.1795 -1.7336
17044SOL     OW52232   7.506   3.592   5.290  0.4142  0.1240  0.6269
17044SOL    HW152233   7.487   3.658   5.357  0.4475  0.3762  0.3885
17044SOL    HW252234   7.427   3.539   5.285  0.8087 -0.6005  1.6718
17045SOL     OW52235   3.946   1.938   3.669  0.0342  0.2907 -0.1076
17045SOL    HW152236   3.959   2.032   3.684 -0.0505 -0.0137  2.2708
17045SOL    HW252237   3.941   1.929   3.574  0.8898  2.5750 -0.4287
17046SOL     OW52238   9.033   2.189   9.127  0.5874 -0.1357 -0.0023
17046SOL    HW152239   9.044   2.263   9.068  1.8413 -0.5267 -0.2894
17046SOL    HW252240   9.059   2.113   9.075  1.3249 -0.5329  0.9273
17047SOL     OW52241   6.601   5.705   0.640  0.0326  0.2836  0.3017
17047SOL    HW152242   6.544   5.694   0.563 -0.2085 -0.1805  0.5392
17047SOL    HW252243   6.541   5.735   0.709  0.1174  0.0097  0.4942
17048SOL     OW52244   0.271   4.567   3.822  0.4023  0.3965  0.2395
17048SOL    HW152245   0.334   4.635   3.798 -1.7796  2.2929 -0.4369
17048SOL    HW252246   0.223   4.604   3.896 -0.1947 -0.8446  0.4971
17049SOL     OW52247   4.522   0.974   1.621 -0.2400 -0.4116  0.2094
17049SOL    HW152248   4.592   1.039   1.621 -0.1658 -0.4889  0.9454
17049SOL    HW252249   4.544   0.915   1.549 -1.0945  1.2033 -1.4650
17050SOL     OW52250   0.574   5.653   2.768 -0.7673 -0.5229 -0.2968
17050SOL    HW152251   0.576   5.644   2.673 -2.0272  2.6281 -0.7489
17050SOL    HW252252   0.565   5.747   2.783  0.5830 -0.7922  3.0073
17051SOL     OW52253   5.048   8.222   7.716 -0.2610  0.0708 -0.1269
17051SOL    HW152254   5.141   8.209   7.696  0.1860  0.0736  1.7936
17051SOL    HW252255   5.043   8.313   7.746 -1.4898  1.1352 -3.1783
17052SOL     OW52256   1.766   8.758   8.552 -0.1191  0.3586 -0.0402
17052SOL    HW152257   1.842   8.754   8.494 -0.6547 -1.2111 -0.6812
17052SOL    HW252258   1.797   8.724   8.636 -0.4728 -2.0215 -0.7874
17053SOL     OW52259   4.563   5.094   7.757  0.5179 -0.0977 -0.1985
17053SOL    HW152260   4.570   5.178   7.710  0.4443  0.5127  0.8435
17053SOL    HW252261   4.583   5.116   7.848 -1.6121 -0.7921  0.4960
17054SOL     OW52262   2.120   2.706   6.137 -0.3407  0.0212  0.6596
17054SOL    HW152263   2.200   2.699   6.189 -0.9393  1.8515  1.8956
17054SOL    HW252264   2.147   2.679   6.049  1.3312 -0.5395  1.2961
17055SOL     OW52265   5.486   7.417   8.556 -0.2792 -0.3215  0.3928
17055SOL    HW152266   5.534   7.490   8.592  0.7535 -1.5031  1.4976
17055SOL    HW252267   5.447   7.373   8.632 -0.5243 -1.1646 -0.2027
17056SOL     OW52268   0.844   5.164   6.080 -0.3519  0.2419 -0.3700
17056SOL    HW152269   0.832   5.069   6.072  0.1918  0.3038 -2.4379
17056SOL    HW252270   0.769   5.202   6.033  0.1838  0.8091 -0.7841
17057SOL     OW52271   5.326   4.848   6.813  1.0246  0.1425 -0.2206
17057SOL    HW152272   5.241   4.891   6.801  1.8350  1.1748 -3.3300
17057SOL    HW252273   5.332   4.833   6.907 -0.8045  3.8261  0.6945
17058SOL     OW52274   7.534   0.040   0.300 -0.2851  0.3525  0.3818
17058SOL    HW152275   7.451   0.077   0.269 -0.3718 -1.4224 -1.7650
17058SOL    HW252276   7.507  -0.030   0.360 -0.4550 -0.9825 -1.1879
17059SOL     OW52277   7.464   1.560   0.610 -0.5402 -0.0319 -0.1708
17059SOL    HW152278   7.505   1.627   0.666 -1.6015  0.7530 -0.2969
17059SOL    HW252279   7.486   1.477   0.652  1.3562  0.3274 -0.3647
17060SOL     OW52280   3.824   7.508   2.331 -0.4531 -0.0499 -0.3962
17060SOL    HW152281   3.909   7.483   2.295 -1.7450 -1.0710 -3.0009
17060SOL    HW252282   3.827   7.480   2.422  1.2637 -1.9455 -0.9671
17061SOL     OW52283   8.066   2.306   7.586 -0.0971 -0.5245 -0.2590
17061SOL    HW152284   8.145   2.333   7.539  0.6199  0.1861  1.2805
17061SOL    HW252285   8.090   2.222   7.625  0.0448 -0.1167  0.5370
17062SOL     OW52286   5.497   6.963   5.269  0.3715  0.1442 -0.5702
17062SOL    HW152287   5.496   6.944   5.363  0.8784 -0.6031 -0.7056
17062SOL    HW252288   5.588   6.988   5.250  0.5653 -0.9089 -1.0830
17063SOL     OW52289   7.628   2.933   5.000 -0.5577  0.5153  0.4644
17063SOL    HW152290   7.699   2.990   4.970 -0.3750  0.1352  0.1620
17063SOL    HW252291   7.628   2.860   4.937 -1.7214  0.8975  0.0050
17064SOL     OW52292   5.554   8.264   7.828 -0.0854  0.7375 -1.0364
17064SOL    HW152293   5.632   8.264   7.772  0.0816  2.6552 -0.8708
17064SOL    HW252294   5.589   8.274   7.917 -0.4324 -0.6586 -0.7192
17065SOL     OW52295   5.890   0.831   2.594  0.0605 -0.2806 -0.6900
17065SOL    HW152296   5.857   0.747   2.561  0.3056 -1.1404  1.1582
17065SOL    HW252297   5.819   0.866   2.647  0.2144  0.3816 -0.9105
17066SOL     OW52298   3.869   0.058   5.702  0.4218 -0.9221 -0.0294
17066SOL    HW152299   3.825   0.064   5.617 -0.2316 -0.8452  0.3111
17066SOL    HW252300   3.938   0.123   5.698  0.5272 -1.0667 -0.5837
17067SOL     OW52301   5.976   3.498   2.576  0.3320 -0.1102 -0.5355
17067SOL    HW152302   5.991   3.593   2.579  0.4542 -0.1497  0.4432
17067SOL    HW252303   5.923   3.480   2.654 -1.1769 -0.6110 -1.6357
17068SOL     OW52304   1.245   8.227   3.137  0.3154 -0.5747  0.0360
17068SOL    HW152305   1.274   8.137   3.153  1.1601  0.0857  2.7896
17068SOL    HW252306   1.153   8.228   3.163  0.8329 -0.2583  2.0295
17069SOL     OW52307   3.325   5.616   8.604  0.4011  0.3542  0.2427
17069SOL    HW152308   3.418   5.597   8.593  0.3834 -0.1098  0.8212
17069SOL    HW252309   3.317   5.645   8.694 -0.0500  0.1575  0.2701
17070SOL     OW52310   0.674   7.598   5.781 -0.6088 -0.0753 -0.2033
17070SOL    HW152311   0.624   7.679   5.771  0.4647  0.9666  2.1521
17070SOL    HW252312   0.763   7.621   5.753 -0.8932 -1.3506 -2.4098
17071SOL     OW52313   8.431   5.200   2.184  0.3049 -0.2844 -0.1580
17071SOL    HW152314   8.385   5.210   2.101  2.7532  0.9059 -1.4804
17071SOL    HW252315   8.514   5.159   2.161  1.7580  1.5552  1.3993
17072SOL     OW52316   7.258   3.510   5.585 -0.7307  0.5296  0.2810
17072SOL    HW152317   7.294   3.543   5.668  0.2225  1.4287 -0.4613
17072SOL    HW252318   7.203   3.581   5.552 -0.2829  0.5907 -0.3508
17073SOL     OW52319   4.299   8.422   0.650 -0.5222  0.3771  0.1118
17073SOL    HW152320   4.223   8.432   0.592 -1.6174 -1.8209  1.0316
17073SOL    HW252321   4.358   8.363   0.603 -0.0091  0.9724 -0.0060
17074SOL     OW52322   8.175   1.396   3.406  0.6147 -0.2067 -0.1651
17074SOL    HW152323   8.223   1.443   3.475 -0.7667  1.8558 -0.5360
17074SOL    HW252324   8.091   1.374   3.447  0.6136 -0.9034 -0.5368
17075SOL     OW52325   5.563   3.579   6.590  0.6087 -0.2233 -0.3166
17075SOL    HW152326   5.643   3.528   6.578  0.0870 -1.2610  0.5413
17075SOL    HW252327   5.509   3.527   6.648 -0.2779  0.9482 -0.0506
17076SOL     OW52328   6.709   7.859   7.690  0.5103 -0.2772 -0.1072
17076SOL    HW152329   6.804   7.846   7.694  0.5688  0.4021  1.7755
17076SOL    HW252330   6.699   7.955   7.688 -0.1428 -0.3513 -0.5024
17077SOL     OW52331   6.904   2.564   6.845  0.2415 -0.1153 -0.6147
17077SOL    HW152332   6.925   2.492   6.906 -2.3273  1.8307  2.9804
17077SOL    HW252333   6.841   2.525   6.784 -0.6605 -1.1394  0.8861
17078SOL     OW52334   1.244   7.488   5.419 -0.6555  0.9744  0.5343
17078SOL    HW152335   1.233   7.400   5.384 -0.5991  1.0324  0.3718
17078SOL    HW252336   1.278   7.539   5.346  1.9074  0.5226  1.2973
17079SOL     OW52337   3.560   2.128   0.663 -0.1682  0.3291  0.2060
17079SOL    HW152338   3.644   2.120   0.619  0.1313 -0.9245  0.9562
17079SOL    HW252339   3.497   2.093   0.600  0.0304  0.1798  0.0888
17080SOL     OW52340   3.248   2.786   2.203 -0.1710  0.5598  0.1738
17080SOL    HW152341   3.237   2.851   2.272 -2.8164 -1.2424  1.6348
17080SOL    HW252342   3.267   2.837   2.124 -2.0688  3.1265  1.2367
17081SOL     OW52343   5.423   2.575   6.769  0.2964 -0.0517 -0.2305
17081SOL    HW152344   5.474   2.534   6.700 -1.3313 -0.2015 -1.3996
17081SOL    HW252345   5.332   2.565   6.741 -0.3640  0.6968  1.4928
17082SOL     OW52346   7.335   3.396   3.300  0.0861 -0.4784  0.1440
17082SOL    HW152347   7.333   3.304   3.273  1.0491 -1.3585  2.7984
17082SOL    HW252348   7.410   3.433   3.253  0.3832 -1.3489 -0.0889
17083SOL     OW52349   8.158   1.736   3.631 -0.5904 -0.2714 -0.2181
17083SOL    HW152350   8.203   1.655   3.657  0.5459 -0.0469 -1.4256
17083SOL    HW252351   8.111   1.763   3.710  0.6579 -1.0033  0.8148
17084SOL     OW52352   1.977   6.059   5.291  0.2391 -0.0353  0.2782
17084SOL    HW152353   1.923   6.058   5.212 -0.7527  0.8170  0.9144
17084SOL    HW252354   1.969   6.148   5.325 -0.7378 -0.8124  2.2319
17085SOL     OW52355   6.476   3.048   3.942  0.1158 -0.6814 -0.0608
17085SOL    HW152356   6.523   2.980   3.893  0.0374 -0.5880 -0.2704
17085SOL    HW252357   6.389   3.050   3.901 -0.9584 -2.6007  1.9093
17086SOL     OW52358   1.460   8.336   7.558  0.2337 -0.2437  0.1345
17086SOL    HW152359   1.436   8.243   7.558  0.6627 -0.3585 -0.2658
17086SOL    HW252360   1.494   8.351   7.470  1.3539 -0.0110  0.5890
17087SOL     OW52361   7.889   4.901   1.811  0.2975 -0.5319  0.5390
17087SOL    HW152362   7.912   4.817   1.771  1.2260  1.0291 -2.4471
17087SOL    HW252363   7.973   4.936   1.842  0.2731  0.2402 -0.2375
17088SOL     OW52364   8.525   4.512   2.168 -0.8475 -0.4975 -0.2858
17088SOL    HW152365   8.501   4.537   2.257 -0.2684  1.9569 -0.7252
17088SOL    HW252366   8.503   4.589   2.115 -0.9167 -1.7834 -2.2378
17089SOL     OW52367   7.465   2.608   6.159  0.1639 -0.1166  0.4014
17089SOL    HW152368   7.461   2.610   6.063  0.5227  1.6905  0.3908
17089SOL    HW252369   7.447   2.516   6.181 -0.0929 -0.5471 -1.3743
17090SOL     OW52370   2.292   5.710   2.111  0.2129  0.1370 -0.4718
17090SOL    HW152371   2.366   5.729   2.054  0.8368  0.1005  0.3099
17090SOL    HW252372   2.215   5.727   2.057  0.7829  0.8872 -1.0653
17091SOL     OW52373   4.243   0.057   5.161 -0.0315  0.5708 -0.2276
17091SOL    HW152374   4.322   0.069   5.214  0.4113 -1.3770 -0.3580
17091SOL    HW252375   4.234   0.139   5.113  0.1251  2.0139  2.0788
17092SOL     OW52376   3.350   5.595   8.297  0.4025 -0.0168 -0.3782
17092SOL    HW152377   3.319   5.674   8.253  0.3418 -0.0127 -0.3291
17092SOL    HW252378   3.336   5.612   8.390  0.2337 -0.1499 -0.3778
17093SOL     OW52379   7.722   4.859   6.460 -0.4730 -0.3928 -0.2857
17093SOL    HW152380   7.655   4.884   6.397 -1.8352 -0.9338  0.8910
17093SOL    HW252381   7.673   4.832   6.538  1.1140  1.5988  1.5537
17094SOL     OW52382   8.474   6.103   3.518  0.0240 -0.3047 -0.3493
17094SOL    HW152383   8.523   6.107   3.600  1.6999 -0.0071 -1.3100
17094SOL    HW252384   8.471   6.010   3.496  1.4078 -0.2341 -0.9554
17095SOL     OW52385   6.976   4.449   6.633 -0.0277 -0.3599 -0.0046
17095SOL    HW152386   6.983   4.520   6.570 -0.6574  1.1414  1.5262
17095SOL    HW252387   6.916   4.387   6.593  0.8529 -0.2519 -1.5558
17096SOL     OW52388   7.230   1.740   5.360  0.2388 -0.2830  0.2474
17096SOL    HW152389   7.150   1.767   5.316  0.2988 -1.0750 -0.3738
17096SOL    HW252390   7.292   1.723   5.289  1.2419  1.1518  0.7459
17097SOL     OW52391   4.057   1.226   2.333  0.6953 -0.2262  0.5733
17097SOL    HW152392   4.052   1.150   2.390 -2.3401 -0.2206  0.4750
17097SOL    HW252393   3.995   1.289   2.370 -1.4783 -0.2510 -2.6473
17098SOL     OW52394   0.311   4.920   4.087 -0.3145 -0.3454 -0.3826
17098SOL    HW152395   0.226   4.919   4.043 -0.0368  0.5100 -0.9631
17098SOL    HW252396   0.373   4.890   4.020  0.0642  0.6148 -0.4832
17099SOL     OW52397   0.469   2.095   6.072  0.5378 -0.0131  0.6425
17099SOL    HW152398   0.518   2.153   6.014  1.0898 -0.4652  0.6523
17099SOL    HW252399   0.503   2.114   6.159  2.7736 -2.2995  0.3798
17100SOL     OW52400   1.011   2.954   1.697  0.3685 -0.2663 -0.2298
17100SOL    HW152401   0.922   2.939   1.664 -0.0442  1.9101 -0.2292
17100SOL    HW252402   1.002   2.961   1.792  0.5192  0.0966 -0.2405
17101SOL     OW52403   0.751   0.957   4.748  0.1697 -0.1276  0.2205
17101SOL    HW152404   0.816   0.917   4.690 -0.8355 -0.9572 -0.3672
17101SOL    HW252405   0.717   1.032   4.699 -0.6574 -0.8104 -0.2822
17102SOL     OW52406   1.885   8.772   1.896  0.4975  1.1505  0.0447
17102SOL    HW152407   1.929   8.716   1.831  1.5721  0.0272  1.6304
17102SOL    HW252408   1.954   8.832   1.925 -0.1062  1.9652 -0.1923
17103SOL     OW52409   7.079   3.351   3.805  0.2046 -0.0878 -0.0182
17103SOL    HW152410   7.146   3.303   3.853  0.4920 -1.4172 -1.6602
17103SOL    HW252411   7.127   3.399   3.738 -0.4004 -0.1857 -0.5261
17104SOL     OW52412   3.779   7.845   8.641  0.6530  0.3660 -0.1016
17104SOL    HW152413   3.861   7.846   8.592  1.3676  0.6165  1.0580
17104SOL    HW252414   3.804   7.818   8.730 -0.5309  0.3624  0.2528
17105SOL     OW52415   6.673   4.270   4.995  0.3580 -0.3890  0.6257
17105SOL    HW152416   6.709   4.188   5.028 -1.1069 -0.3935  2.3470
17105SOL    HW252417   6.587   4.246   4.960  0.3692  0.2542  0.1293
17106SOL     OW52418   5.884   3.381   8.427  0.1853  0.2465 -0.0512
17106SOL    HW152419   5.883   3.293   8.389 -2.5338  0.5992 -1.0149
17106SOL    HW252420   5.916   3.367   8.516 -0.3524 -1.7782 -0.1080
17107SOL     OW52421   7.817   7.457   2.846  0.5907 -0.1203  0.1152
17107SOL    HW152422   7.897   7.499   2.877  0.5517 -0.5547  0.8148
17107SOL    HW252423   7.842   7.416   2.763  0.5336  1.5904 -0.8059
17108SOL     OW52424   6.519   2.626   7.802  0.4311 -0.6398  0.5145
17108SOL    HW152425   6.480   2.649   7.717  2.3376  1.1613  0.0383
17108SOL    HW252426   6.445   2.625   7.863 -0.7158  0.0252 -0.8024
17109SOL     OW52427   0.511   8.479   3.811 -0.5158 -0.0820 -0.6117
17109SOL    HW152428   0.588   8.424   3.826  0.1331  1.2515  1.2332
17109SOL    HW252429   0.545   8.554   3.762 -0.9242 -0.1679 -1.0263
17110SOL     OW52430   2.494   2.844   3.237 -0.4626 -0.1207 -0.3017
17110SOL    HW152431   2.456   2.803   3.314 -0.1760  0.1760  0.0005
17110SOL    HW252432   2.586   2.859   3.260 -0.3511 -0.1175 -0.7338
17111SOL     OW52433   2.525   5.667   5.639 -0.5351  0.0290 -0.0793
17111SOL    HW152434   2.484   5.672   5.553  1.8011  0.0115 -1.2892
17111SOL    HW252435   2.552   5.575   5.647  0.5503  0.3426  0.0050
17112SOL     OW52436   4.555   6.199   7.726 -0.0084  0.5251  0.3387
17112SOL    HW152437   4.551   6.156   7.641  0.1236  1.6213 -0.2377
17112SOL    HW252438   4.553   6.127   7.789 -0.4547 -0.2871 -0.5736
17113SOL     OW52439   2.808   3.594   2.449 -0.0913  0.1957  0.4772
17113SOL    HW152440   2.873   3.539   2.494 -0.7449  1.7052  3.5667
17113SOL    HW252441   2.860   3.650   2.391  1.0326 -0.6757  0.6186
17114SOL     OW52442   7.560   0.139   4.743  0.4949 -0.1934 -0.0187
17114SOL    HW152443   7.642   0.134   4.793 -0.7664  1.0994  2.3497
17114SOL    HW252444   7.510   0.208   4.786 -2.0691 -1.2529 -1.1038
17115SOL     OW52445   8.068   6.098   4.868 -0.1783 -0.4077 -0.1378
17115SOL    HW152446   8.086   6.154   4.792  0.6307  0.8201  0.9299
17115SOL    HW252447   8.066   6.157   4.942 -1.9719 -1.4503  0.7182
17116SOL     OW52448   2.984   8.665   2.502 -0.1491  0.3430  0.3016
17116SOL    HW152449   2.956   8.637   2.590 -0.2482 -2.3828 -0.4937
17116SOL    HW252450   2.959   8.592   2.445  1.3319  1.3549 -1.7653
17117SOL     OW52451   2.544   8.074   5.743 -0.3255 -0.2267  0.8531
17117SOL    HW152452   2.591   8.157   5.735 -0.9456  0.0558 -0.1208
17117SOL    HW252453   2.527   8.065   5.836  0.7688  0.1550  1.1050
17118SOL     OW52454   5.853   7.436   6.738  0.1031  0.1799 -0.0777
17118SOL    HW152455   5.923   7.383   6.777  0.6568 -0.8397 -2.2796
17118SOL    HW252456   5.783   7.433   6.803  1.2682 -0.6529  1.2283
17119SOL     OW52457   7.337   4.782   0.217  0.3075  0.5197 -0.5450
17119SOL    HW152458   7.259   4.836   0.214  0.1183  0.2363 -0.8117
17119SOL    HW252459   7.403   4.836   0.261 -0.4463  0.2291  1.0063
17120SOL     OW52460   6.435   5.464   8.496  0.6164  0.4308 -0.2369
17120SOL    HW152461   6.434   5.556   8.469 -0.3727  0.6592  0.4896
17120SOL    HW252462   6.428   5.414   8.415  1.3825  0.9931 -0.6528
17121SOL     OW52463   5.822   0.497   5.882 -0.4309  0.1070  0.2101
17121SOL    HW152464   5.900   0.510   5.937  0.2630  0.7144 -0.8824
17121SOL    HW252465   5.850   0.432   5.817 -1.4980 -1.2300  1.0371
17122SOL     OW52466   4.964   7.741   3.291 -0.2330  0.7986  0.1086
17122SOL    HW152467   4.903   7.734   3.217 -0.4436 -0.7219  0.3887
17122SOL    HW252468   4.907   7.749   3.368 -0.0927 -0.3305  0.3435
17123SOL     OW52469   6.685   3.517   8.182 -0.8002 -0.0770  0.0060
17123SOL    HW152470   6.603   3.566   8.173 -0.9347 -0.5768 -1.9570
17123SOL    HW252471   6.693   3.502   8.276 -2.2640  1.1398  0.3766
17124SOL     OW52472   0.984   3.503   8.993 -0.6435 -0.0592 -0.0662
17124SOL    HW152473   0.973   3.529   9.084  1.4606 -0.7245  0.4239
17124SOL    HW252474   1.068   3.458   8.990 -1.1418 -1.0098 -2.1380
17125SOL     OW52475   7.752   5.618   0.300  0.5795  0.4218  0.3301
17125SOL    HW152476   7.809   5.598   0.374 -0.5298 -0.9177  0.8784
17125SOL    HW252477   7.690   5.683   0.335  1.1077  1.0975  0.0393
17126SOL     OW52478   3.266   1.259   8.331  0.7696  0.1648 -0.4994
17126SOL    HW152479   3.225   1.339   8.299 -2.2538 -1.9643 -2.5152
17126SOL    HW252480   3.313   1.224   8.255 -1.3295 -1.8688 -0.9858
17127SOL     OW52481   4.465   4.844   1.968 -0.4047  0.1431 -0.2270
17127SOL    HW152482   4.456   4.924   1.917 -0.3351  0.1179 -0.2792
17127SOL    HW252483   4.405   4.856   2.042 -0.3881  0.2475 -0.2295
17128SOL     OW52484   8.411   2.071   1.811 -0.4736  0.7610  0.1081
17128SOL    HW152485   8.341   2.135   1.796 -0.2614  0.5541 -2.2334
17128SOL    HW252486   8.469   2.082   1.735 -1.2373 -3.1719 -1.2896
17129SOL     OW52487   4.232   6.736   7.114  0.0272 -0.5902 -0.2795
17129SOL    HW152488   4.249   6.737   7.208  1.5731 -0.3892 -0.5262
17129SOL    HW252489   4.256   6.823   7.084 -2.3093 -0.0022 -0.6072
17130SOL     OW52490   8.709   8.603   7.094 -0.3189  0.1329 -0.5800
17130SOL    HW152491   8.719   8.583   7.187 -0.8074  0.7112 -0.3959
17130SOL    HW252492   8.775   8.670   7.077  0.4939 -0.7362 -0.9085
17131SOL     OW52493   6.071   5.121   6.123 -0.3591 -0.3518 -0.6062
17131SOL    HW152494   6.064   5.046   6.065  1.4526 -1.2616  0.2804
17131SOL    HW252495   6.072   5.197   6.065  0.2768 -1.1702 -1.6904
17132SOL     OW52496   4.310   2.656   7.142  0.4358 -0.2419  0.4212
17132SOL    HW152497   4.390   2.609   7.164  0.0223 -0.0846  2.3952
17132SOL    HW252498   4.269   2.677   7.226 -1.0153  0.8505 -0.4904
17133SOL     OW52499   1.674   2.332   0.026  0.6521  0.1763 -0.3465
17133SOL    HW152500   1.658   2.397   0.095  0.0819 -1.4284  1.1167
17133SOL    HW252501   1.748   2.281   0.058 -0.6277 -1.6184 -0.0856
17134SOL     OW52502   6.802   0.317   2.525  0.4698 -0.7349  0.4747
17134SOL    HW152503   6.826   0.408   2.544 -1.0387 -0.1694 -0.1753
17134SOL    HW252504   6.878   0.282   2.480  1.2127  0.0924  1.0302
17135SOL     OW52505   5.044   1.406   1.516 -0.4221 -0.5838  0.0737
17135SOL    HW152506   5.008   1.382   1.602  0.5416  1.0183  0.9677
17135SOL    HW252507   5.134   1.432   1.534  0.1156 -1.1499 -1.5965
17136SOL     OW52508   1.085   0.685   2.584 -0.1647 -0.0829  0.1648
17136SOL    HW152509   1.102   0.755   2.648 -0.0637 -0.5832  0.6890
17136SOL    HW252510   1.172   0.660   2.553 -0.3000  2.1901 -2.4208
17137SOL     OW52511   0.274   5.323   1.935 -0.4954 -0.3099 -0.2155
17137SOL    HW152512   0.332   5.318   1.859  0.3010 -1.2258  0.4276
17137SOL    HW252513   0.234   5.236   1.941 -0.2854 -0.3574  0.6133
17138SOL     OW52514   1.278   7.427   5.007 -0.0184 -0.2178  0.5289
17138SOL    HW152515   1.253   7.385   4.925 -0.7499 -0.4852  0.8785
17138SOL    HW252516   1.271   7.358   5.072 -1.5431  0.4859  1.1683
17139SOL     OW52517   3.952   2.482   1.155  0.1883  0.1199  0.0129
17139SOL    HW152518   3.914   2.437   1.080  1.1743  0.6312 -0.8291
17139SOL    HW252519   3.878   2.522   1.200 -0.6766 -1.9980  0.5859
17140SOL     OW52520   1.884   4.144   5.941 -0.2161  0.3424 -0.0259
17140SOL    HW152521   1.875   4.239   5.947 -0.2387  0.2550  2.1054
17140SOL    HW252522   1.974   4.127   5.968 -0.4627 -0.2769  0.4349
17141SOL     OW52523   6.461   4.233   3.954  0.6625  0.1324  0.5663
17141SOL    HW152524   6.427   4.286   4.026 -2.4776 -0.2953 -0.4390
17141SOL    HW252525   6.424   4.272   3.876  0.0308 -2.1687 -0.3839
17142SOL     OW52526   7.094   3.288   7.665 -0.2754  0.0183 -0.0812
17142SOL    HW152527   7.085   3.230   7.589  1.4728  0.6498 -0.8130
17142SOL    HW252528   7.134   3.368   7.631 -1.4460  1.1822  1.1450
17143SOL     OW52529   2.505   1.848   4.090 -0.6822 -0.1312  0.3668
17143SOL    HW152530   2.438   1.867   4.025  0.5971 -0.0345 -0.9582
17143SOL    HW252531   2.571   1.796   4.043 -0.2925 -1.0781  1.8846
17144SOL     OW52532   1.273   7.823   4.420 -0.3679  0.3363  0.0482
17144SOL    HW152533   1.344   7.805   4.483  1.3075  1.5058 -1.4104
17144SOL    HW252534   1.222   7.742   4.417  1.6934 -1.0312  0.1967
17145SOL     OW52535   6.233   3.217   8.573  0.0490 -0.0860 -0.5417
17145SOL    HW152536   6.246   3.165   8.653  1.1549  0.8970 -0.0476
17145SOL    HW252537   6.164   3.279   8.597 -0.5610 -0.6425 -0.8063
17146SOL     OW52538   1.119   2.140   2.753 -0.1091 -0.0409 -0.0155
17146SOL    HW152539   1.117   2.159   2.659 -0.3679 -0.4133 -0.0859
17146SOL    HW252540   1.058   2.067   2.764  0.4843 -0.4915  0.3334
17147SOL     OW52541   7.152   7.712   0.009 -0.1464 -0.2576 -0.0191
17147SOL    HW152542   7.126   7.723   0.100 -1.2509  0.4719 -0.4060
17147SOL    HW252543   7.181   7.799  -0.019  1.6237 -0.7865  0.0345
17148SOL     OW52544   0.357   3.047   8.541  0.2742 -0.4413  0.0204
17148SOL    HW152545   0.406   3.037   8.460 -0.0489  2.4237 -0.6133
17148SOL    HW252546   0.421   3.076   8.605  0.4806 -2.4759  0.8307
17149SOL     OW52547   4.605   7.004   6.377  0.0324 -0.6280  0.6762
17149SOL    HW152548   4.654   7.001   6.459  0.1715 -0.2349  0.6140
17149SOL    HW252549   4.646   7.076   6.328 -1.4540  0.6047  1.1755
17150SOL     OW52550   5.460   8.693   7.185 -0.8879  0.2259  0.2605
17150SOL    HW152551   5.418   8.751   7.121  0.1488  0.1104 -0.5572
17150SOL    HW252552   5.546   8.732   7.199 -1.3152  0.6057  2.0994
17151SOL     OW52553   2.234   0.835   9.130 -0.4515  0.4287 -0.2324
17151SOL    HW152554   2.139   0.844   9.117 -0.5062  0.0519 -0.0986
17151SOL    HW252555   2.242   0.801   9.220 -0.1509  1.3542  0.1020
17152SOL     OW52556   8.636   3.385   2.564 -0.2606  0.1376 -0.1742
17152SOL    HW152557   8.610   3.335   2.641  2.4141 -0.6524  0.3112
17152SOL    HW252558   8.640   3.321   2.494  1.8507 -0.1411  0.1441
17153SOL     OW52559   4.743   0.408   4.412 -0.2300 -0.1878  0.0035
17153SOL    HW152560   4.785   0.339   4.464 -1.4888 -0.4433  0.7102
17153SOL    HW252561   4.720   0.365   4.329  1.6433  0.1812 -0.7538
17154SOL     OW52562   6.043   4.004   4.814 -0.4719  0.0793  0.3646
17154SOL    HW152563   6.103   4.035   4.882 -0.4945 -0.0991  0.4673
17154SOL    HW252564   6.094   4.007   4.733 -0.3788  0.0899  0.4236
17155SOL     OW52565   7.757   2.288   2.304 -0.6100 -0.1107 -0.5429
17155SOL    HW152566   7.768   2.224   2.233 -1.5474  0.6448 -1.3931
17155SOL    HW252567   7.716   2.238   2.374  0.5878 -0.9408 -0.4031
17156SOL     OW52568   3.937   8.403   5.537  0.1442  0.0091 -0.2391
17156SOL    HW152569   3.875   8.341   5.574 -1.3786  1.5319 -0.1244
17156SOL    HW252570   3.904   8.420   5.449  0.7069  0.4201 -0.3751
17157SOL     OW52571   4.076   5.059   3.386 -0.5198  0.0947 -0.6776
17157SOL    HW152572   4.013   5.033   3.453 -1.4413 -0.4095 -1.7064
17157SOL    HW252573   4.160   5.028   3.419  0.0101  4.2534  2.6940
17158SOL     OW52574   1.764   6.159   8.032 -0.3389 -0.3253  0.2547
17158SOL    HW152575   1.727   6.183   8.117 -1.0097 -2.7221  0.7046
17158SOL    HW252576   1.794   6.069   8.043  0.2257 -0.4484 -1.8456
17159SOL     OW52577   8.653   8.670   5.293 -0.1666 -0.8266  0.4259
17159SOL    HW152578   8.585   8.730   5.324  0.1623 -0.2574  0.0544
17159SOL    HW252579   8.607   8.609   5.235 -0.2822 -0.1439 -0.2148
17160SOL     OW52580   8.056   8.056   5.728 -0.6412  0.1708  0.6303
17160SOL    HW152581   8.032   8.094   5.644 -0.6583 -1.0741  0.0488
17160SOL    HW252582   8.056   8.130   5.789 -2.3607  0.8114 -0.0920
17161SOL     OW52583   6.590   2.063   7.927  0.0095 -0.0138 -0.3659
17161SOL    HW152584   6.669   2.103   7.963 -0.5410  0.5579  0.2388
17161SOL    HW252585   6.587   2.096   7.837  0.4202  0.0161 -0.3736
17162SOL     OW52586   4.058   3.141   1.708  0.6181  0.2513 -0.2574
17162SOL    HW152587   4.060   3.134   1.612 -0.5796  1.6393 -0.4231
17162SOL    HW252588   3.973   3.105   1.733  1.4619 -1.3700  0.4622
17163SOL     OW52589   4.280   3.120   2.418  0.2248 -0.2756 -0.0103
17163SOL    HW152590   4.337   3.053   2.383  0.3001 -0.4447  0.4295
17163SOL    HW252591   4.219   3.140   2.347  0.1670 -0.8449 -0.1222
17164SOL     OW52592   5.369   4.437   0.576 -0.1689  0.3311 -0.2271
17164SOL    HW152593   5.319   4.396   0.646 -0.4949  1.2333  0.0738
17164SOL    HW252594   5.450   4.466   0.618  0.9124 -1.6300 -0.8250
17165SOL     OW52595   3.520   8.820   5.972 -0.4117 -0.3406  0.8519
17165SOL    HW152596   3.603   8.827   6.019 -0.0128 -0.1152  0.1276
17165SOL    HW252597   3.495   8.728   5.980  0.2353 -0.5462  0.5276
17166SOL     OW52598   4.004   4.161   2.255 -0.6388 -0.9572  0.4527
17166SOL    HW152599   3.940   4.156   2.326 -0.5104 -1.6594  0.5297
17166SOL    HW252600   3.953   4.178   2.176 -0.8584 -0.8973  0.6082
17167SOL     OW52601   2.143   1.213   6.034  0.2039  0.0479  0.2871
17167SOL    HW152602   2.072   1.152   6.016  0.4392 -0.4183  0.9277
17167SOL    HW252603   2.104   1.280   6.090 -0.2654  0.9533 -1.0564
17168SOL     OW52604   2.701   8.900   0.129 -0.8106  0.2173 -0.5451
17168SOL    HW152605   2.669   8.984   0.163  0.5172  0.4576  0.1749
17168SOL    HW252606   2.785   8.887   0.173 -1.5093 -2.0743  0.2638
17169SOL     OW52607   7.598   1.197   3.243  0.1975  0.4664  0.0652
17169SOL    HW152608   7.596   1.187   3.338 -0.9469  0.2583  0.0334
17169SOL    HW252609   7.670   1.140   3.215 -0.7789 -1.1531  0.6525
17170SOL     OW52610   3.119   3.701   6.989 -0.1533 -0.2029 -0.0185
17170SOL    HW152611   3.026   3.692   6.968  0.0217 -1.4373 -0.3444
17170SOL    HW252612   3.156   3.751   6.916 -0.0706 -2.0859 -1.3478
17171SOL     OW52613   6.087   5.580   8.224 -0.6124 -0.2654  0.1253
17171SOL    HW152614   6.032   5.508   8.256 -0.7092 -0.1802  0.1521
17171SOL    HW252615   6.034   5.658   8.237 -0.5373 -0.1974  0.0249
17172SOL     OW52616   3.512   0.428   8.224 -0.0603 -0.0598 -0.2857
17172SOL    HW152617   3.606   0.421   8.209  0.1497 -1.0523  1.2259
17172SOL    HW252618   3.499   0.516   8.258  0.7338 -0.6769  1.7903
17173SOL     OW52619   4.493   2.559   8.729  0.5265 -0.0727  0.1852
17173SOL    HW152620   4.467   2.588   8.642 -0.0592  2.0716  1.0308
17173SOL    HW252621   4.588   2.573   8.732  0.6404 -0.6650 -0.2504
17174SOL     OW52622   6.683   6.775   2.505 -0.1360 -0.1008  0.2027
17174SOL    HW152623   6.677   6.839   2.435  1.4200  1.4524  1.3801
17174SOL    HW252624   6.638   6.698   2.472 -2.6852  1.7732 -1.0317
17175SOL     OW52625   1.630   5.395   0.713 -0.9608  0.3665 -0.1453
17175SOL    HW152626   1.549   5.387   0.763 -0.5571 -2.1505  0.2684
17175SOL    HW252627   1.691   5.437   0.773 -1.0280 -0.8822  0.8493
17176SOL     OW52628   4.084   8.420   6.332  0.1589  0.3477  0.3363
17176SOL    HW152629   4.053   8.346   6.279 -1.9758  0.7679  0.9148
17176SOL    HW252630   4.045   8.405   6.418  1.4676  1.0457  1.0681
17177SOL     OW52631   6.961   4.655   3.143 -0.7298 -0.0223  0.1666
17177SOL    HW152632   6.897   4.652   3.214  0.0128  0.8512  0.9018
17177SOL    HW252633   6.922   4.602   3.074 -0.5810 -2.6838  1.9442
17178SOL     OW52634   0.548   8.708   4.707 -0.2482 -0.0898  0.4078
17178SOL    HW152635   0.631   8.720   4.754 -0.9032 -2.3907  2.3819
17178SOL    HW252636   0.482   8.709   4.775 -1.3131 -3.0991 -0.4382
17179SOL     OW52637   0.881   2.669   0.578 -0.0811 -0.1400  0.2361
17179SOL    HW152638   0.907   2.612   0.650  1.9035 -0.4284 -0.6587
17179SOL    HW252639   0.959   2.679   0.524 -1.5102 -0.0283 -1.9824
17180SOL     OW52640   1.365   3.649   6.050 -0.1254 -0.6080 -0.2691
17180SOL    HW152641   1.397   3.656   6.140 -0.1387  0.2801 -0.3300
17180SOL    HW252642   1.361   3.739   6.018 -0.4701 -0.8858 -1.0404
17181SOL     OW52643   3.636   6.544   8.989  0.3178  0.4841 -0.1299
17181SOL    HW152644   3.650   6.599   8.912  1.6437  0.1699 -0.1383
17181SOL    HW252645   3.717   6.553   9.040 -0.5829  0.8141  1.3149
17182SOL     OW52646   5.218   4.729   5.005  0.5922  0.0684 -0.1613
17182SOL    HW152647   5.271   4.694   4.933 -0.4593  0.3791 -1.1227
17182SOL    HW252648   5.188   4.814   4.973  0.4597  0.4063  0.8320
17183SOL     OW52649   0.221   7.988   0.576 -0.3194 -0.0580 -0.6186
17183SOL    HW152650   0.244   8.024   0.662 -0.8536 -0.4591 -0.3068
17183SOL    HW252651   0.292   8.018   0.518  1.0655 -1.3283  0.3312
17184SOL     OW52652   1.203   5.545   8.620  0.7380  0.0134  0.6311
17184SOL    HW152653   1.142   5.590   8.562  1.6292  0.8739  0.3370
17184SOL    HW252654   1.232   5.469   8.571  1.6676  0.8597 -0.1767
17185SOL     OW52655   8.837   3.015   6.405  0.4666  0.3540 -0.7762
17185SOL    HW152656   8.771   3.060   6.353 -0.5105  0.4167  0.4577
17185SOL    HW252657   8.892   3.086   6.440 -0.5406  0.5665  0.4566
17186SOL     OW52658   3.016   5.465   7.218  0.2047 -0.0166  0.3889
17186SOL    HW152659   2.955   5.394   7.238  1.5730 -0.9096  1.5851
17186SOL    HW252660   3.041   5.450   7.127 -1.7695  0.7338 -0.3341
17187SOL     OW52661   2.855   5.853   6.280  0.3637  0.0508  0.1552
17187SOL    HW152662   2.784   5.880   6.221  0.0441 -1.0151  0.0360
17187SOL    HW252663   2.811   5.836   6.364  0.5437 -0.1800  0.2037
17188SOL     OW52664   7.983   8.592   0.074 -0.2769 -0.0075 -0.1160
17188SOL    HW152665   8.066   8.638   0.061 -0.1348 -0.1899  0.1354
17188SOL    HW252666   7.919   8.662   0.087  0.1399  0.1214  1.4668
17189SOL     OW52667   2.649   2.181   8.417  0.2743  0.4286  0.0937
17189SOL    HW152668   2.572   2.180   8.361  0.1642  1.6520  0.1918
17189SOL    HW252669   2.718   2.221   8.363  0.1135  1.8086  0.8615
17190SOL     OW52670   3.049   2.906   7.109  0.2220 -0.2796  0.2964
17190SOL    HW152671   3.010   2.914   7.022  2.1673 -0.1039 -0.6016
17190SOL    HW252672   2.981   2.864   7.162 -1.3469  0.4498 -1.0485
17191SOL     OW52673   4.693   5.874   7.968 -0.2858 -0.8315 -0.2410
17191SOL    HW152674   4.693   5.970   7.967  1.8736 -0.6922  2.2462
17191SOL    HW252675   4.741   5.849   7.889  2.4419  0.3669  0.9158
17192SOL     OW52676   5.972   5.293   6.582  0.6936  0.6952  0.2277
17192SOL    HW152677   6.012   5.379   6.572  1.0044  0.4627 -0.6547
17192SOL    HW252678   5.969   5.257   6.493  2.4722 -1.0447  0.8052
17193SOL     OW52679   8.393   3.292   7.845 -0.8968 -0.0718  0.1954
17193SOL    HW152680   8.335   3.367   7.833 -1.4161 -0.6379 -0.9878
17193SOL    HW252681   8.361   3.250   7.925 -1.5177  0.1651  0.0771
17194SOL     OW52682   5.121   5.155   3.396  0.6300  0.5572  0.1010
17194SOL    HW152683   5.036   5.198   3.402  0.4506  0.3702 -0.9320
17194SOL    HW252684   5.105   5.077   3.343  1.0403 -0.5818  1.6037
17195SOL     OW52685   7.157   7.581   4.760 -0.0807 -0.0898  0.1093
17195SOL    HW152686   7.123   7.492   4.762  0.6474 -0.3692  1.6926
17195SOL    HW252687   7.144   7.610   4.670 -0.0208 -1.9121 -0.5175
17196SOL     OW52688   2.860   5.271   2.631 -0.3273 -0.6731 -0.9133
17196SOL    HW152689   2.879   5.288   2.539  0.2459 -0.1489 -0.7037
17196SOL    HW252690   2.765   5.262   2.634 -0.2570 -1.9711 -1.7569
17197SOL     OW52691   5.796   3.189   5.873 -0.4255 -0.1838  0.1642
17197SOL    HW152692   5.848   3.140   5.810  1.3364  1.7510 -0.0006
17197SOL    HW252693   5.801   3.138   5.954  0.2342 -0.9207 -0.3277
17198SOL     OW52694   3.006   4.759   3.861 -0.4090  0.7300  0.2692
17198SOL    HW152695   3.048   4.673   3.867 -0.2290  0.8916  1.6404
17198SOL    HW252696   2.933   4.747   3.800 -0.9661 -0.6427  1.1726
17199SOL     OW52697   1.761   8.633   2.700  0.3380 -0.1559 -0.0211
17199SOL    HW152698   1.674   8.635   2.660  0.1825 -2.9210  0.0310
17199SOL    HW252699   1.807   8.706   2.659 -1.6189  0.6372 -0.9372
17200SOL     OW52700   9.118   3.242   0.380 -0.8527 -0.6642  0.6735
17200SOL    HW152701   9.101   3.150   0.398  0.5187 -0.5988  2.5927
17200SOL    HW252702   9.116   3.249   0.284 -2.1385 -2.4138  0.5242
17201SOL     OW52703   8.937   1.495   2.576  0.1343  0.2458 -0.0705
17201SOL    HW152704   8.967   1.429   2.514 -1.4069 -0.2988 -0.2935
17201SOL    HW252705   8.978   1.470   2.659 -0.5567 -1.1534 -0.1097
17202SOL     OW52706   7.781   9.018   1.061 -0.0375  0.1239  1.5577
17202SOL    HW152707   7.873   8.997   1.076 -0.2390 -1.3388  0.9361
17202SOL    HW252708   7.770   9.012   0.966 -0.6577  0.8583  1.5678
17203SOL     OW52709   6.604   8.492   2.980 -0.2786 -0.2199  0.3985
17203SOL    HW152710   6.603   8.587   2.970  2.2512 -0.2619 -1.2967
17203SOL    HW252711   6.687   8.465   2.941 -0.9932 -3.1633  0.6778
17204SOL     OW52712   2.770   3.789   3.394  0.0542 -0.2758  0.6826
17204SOL    HW152713   2.863   3.798   3.375  0.2585 -1.9879  0.7288
17204SOL    HW252714   2.750   3.697   3.376 -1.1009 -0.5259  2.8425
17205SOL     OW52715   0.473   3.493   5.181  0.6854 -0.3146  0.2861
17205SOL    HW152716   0.393   3.541   5.204 -0.8412 -1.2378 -2.6666
17205SOL    HW252717   0.538   3.561   5.164 -0.1509  0.5478  0.4516
17206SOL     OW52718   5.184   2.919   8.347  0.2542 -0.1264  0.1428
17206SOL    HW152719   5.204   2.961   8.263  0.4869  1.9676  1.1747
17206SOL    HW252720   5.234   2.838   8.345  1.4137  0.5621 -1.1689
17207SOL     OW52721   8.365   2.764   6.636  0.0408  0.4333  0.6130
17207SOL    HW152722   8.391   2.730   6.721  1.4691  0.6672  0.2827
17207SOL    HW252723   8.269   2.757   6.636  0.0898 -0.4904  1.8319
17208SOL     OW52724   0.986   4.996   2.512  0.2867  0.0644 -0.5504
17208SOL    HW152725   0.915   5.059   2.498 -0.2626 -0.3382  0.3127
17208SOL    HW252726   0.965   4.923   2.454  0.1153  0.0456 -0.4668
17209SOL     OW52727   1.124   6.908   7.248 -0.2850  0.0309  0.0699
17209SOL    HW152728   1.046   6.874   7.292  0.2485  0.0513  1.0613
17209SOL    HW252729   1.189   6.838   7.257  0.6506  1.0347  1.6502
17210SOL     OW52730   1.476   6.076   0.251 -0.0557  0.2008 -0.0076
17210SOL    HW152731   1.437   5.993   0.277  1.1616  0.3003  2.3588
17210SOL    HW252732   1.570   6.060   0.255  0.1931  1.5896  0.0630
17211SOL     OW52733   7.573   6.006   8.874 -0.4911  0.5100  0.2062
17211SOL    HW152734   7.518   6.068   8.826 -0.5016  0.9422  0.7683
17211SOL    HW252735   7.533   5.920   8.858 -0.3254  0.6106 -0.7869
17212SOL     OW52736   0.069   1.841   4.343 -0.1745  0.3515 -0.0900
17212SOL    HW152737  -0.013   1.890   4.334 -0.0006  0.6968  0.1637
17212SOL    HW252738   0.090   1.813   4.254 -0.1026  1.0314 -0.2910
17213SOL     OW52739   5.105   3.471   8.939 -0.5194  0.1648 -0.1335
17213SOL    HW152740   5.083   3.442   8.850  0.9598  2.2629 -1.2835
17213SOL    HW252741   5.199   3.451   8.947 -0.6862 -0.2004  1.0725
17214SOL     OW52742   9.101   9.000   7.143 -0.5621 -0.2059 -0.2588
17214SOL    HW152743   9.134   9.054   7.214 -1.0229 -1.0377  0.6153
17214SOL    HW252744   9.165   8.929   7.135 -0.5136 -0.1171 -0.6788
17215SOL     OW52745   3.470   4.220   4.412 -0.2637  0.2274 -0.5878
17215SOL    HW152746   3.390   4.182   4.448 -0.3153  1.1410  0.3077
17215SOL    HW252747   3.472   4.309   4.447  0.8442  0.4101 -1.0762
17216SOL     OW52748   4.722   3.710   6.912 -0.0909 -0.7539  0.8643
17216SOL    HW152749   4.691   3.683   6.999  0.1315 -0.4203  1.0502
17216SOL    HW252750   4.779   3.785   6.930  0.3050 -0.9600  0.4674
17217SOL     OW52751   5.611   6.891   6.435  0.2411  0.3586 -0.0845
17217SOL    HW152752   5.616   6.923   6.525 -3.0590  0.1770  0.2929
17217SOL    HW252753   5.693   6.843   6.422  1.3766  1.4598  2.3530
17218SOL     OW52754   4.243   6.377   3.677 -0.3315 -0.7192  0.4578
17218SOL    HW152755   4.322   6.385   3.625  0.4411 -0.0894  1.6820
17218SOL    HW252756   4.173   6.412   3.621  0.4716 -0.0172 -0.1184
17219SOL     OW52757   8.763   0.425   3.420  0.6270  0.2999  0.2856
17219SOL    HW152758   8.821   0.407   3.347 -0.1076  2.3359 -0.8793
17219SOL    HW252759   8.775   0.351   3.480  0.0546 -2.3112 -2.5827
17220SOL     OW52760   2.835   1.041   5.959 -0.3835 -0.0738  0.2552
17220SOL    HW152761   2.925   1.020   5.933 -0.1220 -1.3988  2.0619
17220SOL    HW252762   2.783   1.025   5.881  1.0182  1.6036 -1.1190
17221SOL     OW52763   6.162   2.369   3.382  0.3398  0.3495 -0.1589
17221SOL    HW152764   6.215   2.351   3.305 -0.0773 -2.8322  0.1605
17221SOL    HW252765   6.224   2.367   3.455  0.2549 -0.4548 -0.0889
17222SOL     OW52766   6.290   8.170   7.205  0.0676 -0.4618 -0.3519
17222SOL    HW152767   6.363   8.178   7.266  0.0485 -0.1313 -0.3752
17222SOL    HW252768   6.213   8.160   7.262 -0.0402  0.5331 -0.3035
17223SOL     OW52769   6.085   4.910   7.433  0.3252 -0.7317 -0.0285
17223SOL    HW152770   6.058   4.874   7.349 -0.8941 -0.5996  0.2903
17223SOL    HW252771   6.174   4.942   7.418  0.1600 -0.7870 -1.2382
17224SOL     OW52772   4.049   6.480   6.162 -0.2624  0.4179  0.0804
17224SOL    HW152773   4.109   6.537   6.212  0.5222 -0.5017  0.2295
17224SOL    HW252774   4.107   6.426   6.109 -0.9996 -0.1269 -0.1820
17225SOL     OW52775   3.733   5.822   2.412 -0.3226  0.8084  0.2423
17225SOL    HW152776   3.711   5.847   2.502 -0.8754 -1.0892  0.6831
17225SOL    HW252777   3.740   5.726   2.415 -1.2338  0.6147 -1.9209
17226SOL     OW52778   8.398   6.321   1.935 -0.1861 -0.1870 -0.6476
17226SOL    HW152779   8.477   6.370   1.914  0.8941 -1.7242 -0.3521
17226SOL    HW252780   8.332   6.354   1.874 -0.0155  2.7205  0.5544
17227SOL     OW52781   8.225   5.436   2.259  0.2221 -0.2024  0.2632
17227SOL    HW152782   8.171   5.441   2.337 -0.2771 -1.4254  0.0079
17227SOL    HW252783   8.261   5.525   2.249 -2.3863  0.8973 -0.0521
17228SOL     OW52784   3.921   8.558   5.235 -0.1649  0.2452 -0.0228
17228SOL    HW152785   3.944   8.618   5.164  0.2355  0.8533  0.6080
17228SOL    HW252786   4.004   8.517   5.258 -0.7300 -2.1561 -1.8389
17229SOL     OW52787   8.838   3.989   6.503 -0.0341  0.2892 -0.3527
17229SOL    HW152788   8.840   3.951   6.415 -1.1998 -0.6435 -0.0080
17229SOL    HW252789   8.745   3.997   6.524  0.1952 -0.7170  1.2817
17230SOL     OW52790   6.868   2.932   5.297  0.2536  0.2869  0.5528
17230SOL    HW152791   6.868   3.026   5.281 -0.4269 -0.0567 -1.8541
17230SOL    HW252792   6.930   2.896   5.234  1.6596 -0.7871  2.4520
17231SOL     OW52793   6.244   3.036   1.733  0.5943  0.5596 -0.1878
17231SOL    HW152794   6.308   2.991   1.679  1.5292 -0.0748  1.3934
17231SOL    HW252795   6.191   3.086   1.670  1.5404 -0.2324 -1.6778
17232SOL     OW52796   1.336   9.018   6.703 -0.2291  0.1632  0.2563
17232SOL    HW152797   1.276   8.946   6.684 -0.6980  0.5152  0.3888
17232SOL    HW252798   1.392   9.024   6.625 -0.7247  0.1971 -0.0971
17233SOL     OW52799   7.098   3.020   1.073 -0.1638 -0.5356 -0.2667
17233SOL    HW152800   7.142   2.938   1.095 -1.4187 -1.6637 -1.7345
17233SOL    HW252801   7.169   3.078   1.045  0.9335 -0.5286  2.2436
17234SOL     OW52802   3.956   5.619   9.086  0.2840 -0.0641  0.3285
17234SOL    HW152803   3.990   5.538   9.048 -0.9838 -0.0286 -0.9513
17234SOL    HW252804   3.985   5.617   9.177  1.6943 -1.1369 -0.1124
17235SOL     OW52805   4.911   2.852   8.474 -0.4795 -0.0492  0.0435
17235SOL    HW152806   4.895   2.944   8.492 -0.3689 -0.3013  1.6139
17235SOL    HW252807   4.969   2.852   8.398 -1.9521  1.0907 -1.1327
17236SOL     OW52808   6.587   6.907   6.126  0.4321  0.0667  0.0197
17236SOL    HW152809   6.592   6.991   6.080 -0.5847  0.0828 -0.0917
17236SOL    HW252810   6.636   6.921   6.207  1.0606  0.4689 -0.4233
17237SOL     OW52811   3.948   6.816   6.291 -0.0257  0.0265 -0.2567
17237SOL    HW152812   3.893   6.802   6.214  0.9208  0.4283 -1.0230
17237SOL    HW252813   4.022   6.755   6.280 -0.9154 -1.4763  1.4201
17238SOL     OW52814   6.746   7.350   7.913 -0.0509 -0.2065  0.6472
17238SOL    HW152815   6.821   7.295   7.891 -1.2048 -0.9251 -1.8229
17238SOL    HW252816   6.761   7.431   7.865 -1.2380 -0.6848 -0.5754
17239SOL     OW52817   7.662   0.377   4.042  0.4875  0.1222  0.4461
17239SOL    HW152818   7.593   0.352   3.981  2.0216 -0.0266 -1.3004
17239SOL    HW252819   7.668   0.304   4.104 -0.3392 -0.2303  0.1163
17240SOL     OW52820   4.183   1.526   7.523  0.0974 -0.2248 -0.4484
17240SOL    HW152821   4.123   1.599   7.507 -0.5730 -0.8439 -0.8796
17240SOL    HW252822   4.143   1.478   7.596 -0.1260 -0.8294 -0.9590
17241SOL     OW52823   0.724   3.831   2.893  0.8949 -0.2317  0.0553
17241SOL    HW152824   0.728   3.786   2.978  1.4442  1.6284  1.0763
17241SOL    HW252825   0.631   3.838   2.874  0.7526 -3.7027 -1.2935
17242SOL     OW52826   7.492   6.205   0.069  0.1872  0.0282 -0.9328
17242SOL    HW152827   7.415   6.195   0.013 -0.6015 -0.7898  0.2487
17242SOL    HW252828   7.467   6.162   0.151  1.1600  1.4997  0.1870
17243SOL     OW52829   6.341   2.036   4.319  0.1113 -0.4123  0.0577
17243SOL    HW152830   6.380   2.123   4.314  4.6544 -2.0462  1.9865
17243SOL    HW252831   6.363   1.994   4.236  1.2769 -0.8711  0.5836
17244SOL     OW52832   0.596   6.067   0.772  0.2912  0.0800  0.2271
17244SOL    HW152833   0.689   6.061   0.750  0.3112 -1.3804  0.5889
17244SOL    HW252834   0.559   5.983   0.744 -1.9271  2.2299 -4.1735
17245SOL     OW52835   7.004   1.047   8.484  0.0168  0.1509  0.2726
17245SOL    HW152836   6.939   1.069   8.418  0.3237 -1.3181 -0.5408
17245SOL    HW252837   7.081   1.100   8.460 -0.6327  1.4213  0.8802
17246SOL     OW52838   2.099   6.959   0.250 -0.4297  0.2894 -0.0287
17246SOL    HW152839   2.012   6.921   0.261 -0.3618  0.3142  0.6081
17246SOL    HW252840   2.117   7.004   0.333  0.3436 -0.0345 -0.0085
17247SOL     OW52841   5.584   3.270   2.851 -1.2207  0.7547 -0.1451
17247SOL    HW152842   5.550   3.358   2.834 -3.2485  0.0002 -0.2428
17247SOL    HW252843   5.545   3.215   2.783  0.3829 -0.1744 -0.3745
17248SOL     OW52844   7.685   7.591   2.148 -0.8088 -0.2824  0.5967
17248SOL    HW152845   7.745   7.665   2.140 -1.0050 -0.1807  0.0281
17248SOL    HW252846   7.742   7.517   2.167 -0.2635 -0.5233 -1.6092
17249SOL     OW52847   5.120   4.396   9.026  0.1300  0.7294 -0.4164
17249SOL    HW152848   5.156   4.423   9.111  1.2051 -0.2530 -0.5417
17249SOL    HW252849   5.028   4.423   9.030 -0.1219 -0.2161  1.4811
17250SOL     OW52850   0.372   5.432   7.647  0.1840 -0.0438 -0.1133
17250SOL    HW152851   0.350   5.344   7.615 -0.7866  0.9382 -2.3324
17250SOL    HW252852   0.429   5.468   7.579  1.2931  0.7753  1.1984
17251SOL     OW52853   7.815   5.647   7.911 -0.1499 -0.1692  0.2351
17251SOL    HW152854   7.795   5.554   7.917  0.2686 -0.2060  1.2446
17251SOL    HW252855   7.907   5.654   7.935  0.2365  0.3601 -1.2430
17252SOL     OW52856   8.528   2.125   5.012 -0.3643 -0.3654  0.3303
17252SOL    HW152857   8.518   2.185   5.087 -0.0913 -0.9906  0.8813
17252SOL    HW252858   8.528   2.038   5.052  1.9271 -0.6474 -0.1336
17253SOL     OW52859   7.839   0.806   0.421  0.2661  0.3673  0.3761
17253SOL    HW152860   7.903   0.743   0.389  1.8148  1.7926  0.5562
17253SOL    HW252861   7.787   0.757   0.485  1.3394 -0.7545  0.4121
17254SOL     OW52862   7.291   3.655   0.652  0.0256 -0.1506 -0.2034
17254SOL    HW152863   7.301   3.565   0.684 -0.5750 -0.0777  0.2199
17254SOL    HW252864   7.228   3.694   0.713 -1.1405  0.0069 -1.4725
17255SOL     OW52865   0.450   4.941   8.625 -0.6796 -0.2703 -0.7128
17255SOL    HW152866   0.488   4.875   8.567  1.8742 -2.3090  2.8683
17255SOL    HW252867   0.523   5.000   8.644 -1.7571  1.0070 -0.4362
17256SOL     OW52868   2.758   3.714   4.731  0.3678 -0.4502 -0.4684
17256SOL    HW152869   2.830   3.655   4.712  2.1156  1.2948  0.4550
17256SOL    HW252870   2.723   3.683   4.815 -0.1929 -1.4529 -1.0431
17257SOL     OW52871   7.232   7.694   6.996 -0.3790  0.4841 -0.4218
17257SOL    HW152872   7.167   7.764   7.003 -0.5706  0.1758  1.6213
17257SOL    HW252873   7.311   7.731   7.036 -0.8402 -0.7827  1.8777
17258SOL     OW52874   8.357   2.993   7.695 -0.4358 -0.4021 -0.9153
17258SOL    HW152875   8.275   3.042   7.698  0.1737  0.6555 -0.8049
17258SOL    HW252876   8.413   3.044   7.638  0.7080 -0.1778  0.3450
17259SOL     OW52877   5.500   8.192   2.703  0.2806  0.5500 -0.1941
17259SOL    HW152878   5.526   8.135   2.775 -2.3119 -1.6229 -0.7782
17259SOL    HW252879   5.582   8.221   2.664  1.7412 -0.7741  1.6846
17260SOL     OW52880   0.322   3.671   8.547  0.8888 -0.0693  0.3973
17260SOL    HW152881   0.395   3.647   8.492  0.5298 -0.2312 -0.0147
17260SOL    HW252882   0.244   3.650   8.495  0.5551  1.3190  0.2952
17261SOL     OW52883   7.708   2.468   4.092 -0.5855  0.1643 -0.6261
17261SOL    HW152884   7.698   2.560   4.117 -0.1239 -0.3463  1.6509
17261SOL    HW252885   7.781   2.437   4.145 -2.3085 -2.1345  0.5984
17262SOL     OW52886   6.097   1.582   9.065  0.0033 -0.0737  0.4084
17262SOL    HW152887   6.027   1.624   9.015  0.2375  0.6663  0.6967
17262SOL    HW252888   6.052   1.511   9.112 -0.0765 -1.3320 -1.4472
17263SOL     OW52889   8.309   2.795   1.883  0.3172  0.1566 -0.6434
17263SOL    HW152890   8.309   2.874   1.937 -0.9695  0.2144 -0.6865
17263SOL    HW252891   8.331   2.826   1.795  0.2568  0.4044 -0.5721
17264SOL     OW52892   4.366   0.388   6.657  0.2826 -0.1746  0.3244
17264SOL    HW152893   4.280   0.347   6.663  0.0126  0.2173 -0.6949
17264SOL    HW252894   4.390   0.380   6.565  0.7355  0.9275  0.3377
17265SOL     OW52895   4.003   0.489   7.519 -0.2694 -0.5083  0.2014
17265SOL    HW152896   4.022   0.420   7.584 -0.4791 -0.4392  0.3384
17265SOL    HW252897   4.007   0.444   7.435  1.3137 -0.3330  0.1488
17266SOL     OW52898   6.166   5.469   1.040  0.0727 -0.2075  0.3407
17266SOL    HW152899   6.178   5.387   0.994 -2.1460 -0.3382 -0.0875
17266SOL    HW252900   6.231   5.528   1.001  2.1583 -1.8638  1.1220
17267SOL     OW52901   4.267   0.976   1.928  0.1094  0.7042  0.1453
17267SOL    HW152902   4.270   0.917   1.853 -0.9559 -0.1633  0.7550
17267SOL    HW252903   4.175   1.001   1.935  0.3867  1.6371  0.5100
17268SOL     OW52904   0.972   6.259   1.609 -0.3122  0.8158 -0.0299
17268SOL    HW152905   0.921   6.314   1.668 -0.3068  0.8319 -0.0405
17268SOL    HW252906   0.914   6.243   1.534 -0.3559  0.7128  0.0247
17269SOL     OW52907   5.738   7.192   5.777 -0.0916 -0.1387  0.2596
17269SOL    HW152908   5.696   7.112   5.810 -1.2445 -0.1287 -1.1020
17269SOL    HW252909   5.753   7.175   5.684  0.6665  0.8265  0.1889
17270SOL     OW52910   4.226   6.530   0.282 -0.1186 -0.7568  0.3170
17270SOL    HW152911   4.134   6.544   0.304 -0.0496  0.4322 -0.0691
17270SOL    HW252912   4.242   6.438   0.303 -1.4312 -1.0236  0.2596
17271SOL     OW52913   7.688   7.909   6.412  0.0936  0.4237  0.2687
17271SOL    HW152914   7.625   7.847   6.375 -0.1295  0.9595 -0.2785
17271SOL    HW252915   7.658   7.924   6.502  0.3227 -0.4864  0.4966
17272SOL     OW52916   2.095   7.146   8.670  0.4398 -0.3550 -0.0581
17272SOL    HW152917   2.068   7.203   8.599 -0.1275 -2.1286 -1.3266
17272SOL    HW252918   2.169   7.192   8.711  0.6547  0.8024 -1.6555
17273SOL     OW52919   6.044   0.382   4.541 -0.5309  0.1207  0.1753
17273SOL    HW152920   6.045   0.464   4.492 -0.8179  0.4598  0.7282
17273SOL    HW252921   6.124   0.385   4.594 -1.3093  0.7696  1.3549
17274SOL     OW52922   3.932   4.224   5.973 -0.1848 -0.1261  0.3480
17274SOL    HW152923   3.921   4.319   5.971  3.1334  0.4652  2.3569
17274SOL    HW252924   3.922   4.200   6.065 -0.9351 -1.7454 -0.1222
17275SOL     OW52925   4.486   7.655   7.914  0.0758  0.3278 -1.2023
17275SOL    HW152926   4.544   7.673   7.988  0.8628 -0.8545 -1.5031
17275SOL    HW252927   4.403   7.632   7.954  0.6580 -0.8763 -0.6405
17276SOL     OW52928   7.065   3.393   1.074 -0.0970 -0.0675  0.1753
17276SOL    HW152929   7.063   3.299   1.053  0.4078 -0.0799  0.1769
17276SOL    HW252930   7.145   3.425   1.032 -1.3691  0.8157 -1.7163
17277SOL     OW52931   1.239   4.212   1.671 -0.6357  0.6976  0.1782
17277SOL    HW152932   1.176   4.187   1.739 -0.5006 -1.2455 -0.3671
17277SOL    HW252933   1.311   4.254   1.719 -0.7225 -0.2923  1.2112
17278SOL     OW52934   4.932   5.195   1.483 -0.2615  0.1445 -0.3402
17278SOL    HW152935   4.836   5.190   1.488 -0.3746 -1.8348 -2.6506
17278SOL    HW252936   4.961   5.180   1.573 -2.0874 -0.8090  0.1455
17279SOL     OW52937   2.637   3.886   2.853 -0.0491  0.2530 -0.1949
17279SOL    HW152938   2.714   3.933   2.820 -0.8075  0.5734 -1.6175
17279SOL    HW252939   2.651   3.795   2.828  0.1938  0.1934  0.1660
17280SOL     OW52940   8.218   3.305   7.552  0.3470 -0.2685  0.0792
17280SOL    HW152941   8.212   3.343   7.640  0.6732 -1.9796  0.8858
17280SOL    HW252942   8.152   3.352   7.501 -1.4170 -0.7330  1.8061
17281SOL     OW52943   6.758   1.071   2.693 -0.1433  0.4507 -0.4336
17281SOL    HW152944   6.814   1.059   2.616  0.8910 -1.1714  0.5014
17281SOL    HW252945   6.673   1.037   2.667 -0.3886  1.7797 -1.4743
17282SOL     OW52946   7.711   8.455   7.942 -0.6347 -0.1130 -0.2199
17282SOL    HW152947   7.692   8.390   8.010 -2.0315  0.9072  0.4073
17282SOL    HW252948   7.792   8.496   7.971 -1.1445  0.2242  0.7979
17283SOL     OW52949   3.730   5.145   1.896 -0.2418  0.0838 -0.0733
17283SOL    HW152950   3.754   5.120   1.985  0.9937  2.4203  0.3317
17283SOL    HW252951   3.655   5.204   1.908 -0.7286 -0.3976 -0.6828
17284SOL     OW52952   4.968   5.378   4.629  0.1278 -0.1098  0.0923
17284SOL    HW152953   4.943   5.457   4.678  1.6064  0.3907  0.0999
17284SOL    HW252954   4.912   5.309   4.664 -1.4526  0.9876 -0.1563
17285SOL     OW52955   2.876   9.045   1.129 -0.5971 -0.1611 -0.2678
17285SOL    HW152956   2.784   9.065   1.113  0.2384  2.1796 -2.8632
17285SOL    HW252957   2.896   8.973   1.069 -0.2221  0.9133 -1.4699
17286SOL     OW52958   7.573   4.932   1.809 -0.5840  0.0332 -0.5450
17286SOL    HW152959   7.664   4.905   1.824 -0.3701  0.7942 -0.4731
17286SOL    HW252960   7.561   5.009   1.863 -2.1367 -1.6478  1.6852
17287SOL     OW52961   4.757   2.353   7.145 -0.0149 -0.1246  0.3248
17287SOL    HW152962   4.795   2.426   7.095 -0.4314  0.7817  1.3004
17287SOL    HW252963   4.833   2.303   7.175  0.2666 -0.2271 -0.5386
17288SOL     OW52964   2.141   1.770   4.427  0.4874 -0.8360 -0.0576
17288SOL    HW152965   2.189   1.736   4.351  2.7162  0.8123  0.4986
17288SOL    HW252966   2.109   1.855   4.400 -0.7674 -1.2285  0.1308
17289SOL     OW52967   7.612   7.448   2.564 -0.3360  0.3921  0.1818
17289SOL    HW152968   7.673   7.394   2.513 -1.0140 -0.6255  0.4335
17289SOL    HW252969   7.649   7.536   2.558  1.4123 -0.2512  0.6709
17290SOL     OW52970   0.953   1.201   6.371 -0.0386 -0.9136 -0.3555
17290SOL    HW152971   0.928   1.278   6.421  0.8694 -0.1130 -1.1116
17290SOL    HW252972   0.905   1.129   6.413  0.3360 -0.2112  1.3485
17291SOL     OW52973   8.379   1.808   1.253  0.0377  0.2149 -0.2087
17291SOL    HW152974   8.380   1.722   1.296  1.3823  0.3215  0.0303
17291SOL    HW252975   8.463   1.848   1.278 -0.5753  1.6106 -0.2916
17292SOL     OW52976   7.170   0.752   3.472 -0.2292 -0.4933 -0.7538
17292SOL    HW152977   7.236   0.778   3.407 -0.4779 -0.5925 -1.0482
17292SOL    HW252978   7.087   0.781   3.435 -0.5523 -1.9262 -1.2200
17293SOL     OW52979   2.682   4.308   5.230  0.0343  0.1899 -0.1063
17293SOL    HW152980   2.611   4.353   5.185 -0.0573 -1.2388 -1.4925
17293SOL    HW252981   2.657   4.215   5.227  1.0151 -0.1465  1.1430
17294SOL     OW52982   8.289   6.944   3.518  0.3549 -0.0100  0.0844
17294SOL    HW152983   8.327   6.864   3.482  0.9857  0.6835 -0.8332
17294SOL    HW252984   8.357   7.009   3.508 -0.5680  0.9249 -0.2597
17295SOL     OW52985   8.425   5.892   0.872 -0.4310  0.0506  0.5163
17295SOL    HW152986   8.425   5.948   0.795 -1.4136  0.3856  0.7502
17295SOL    HW252987   8.517   5.888   0.899 -0.4023  2.0771  0.8760
17296SOL     OW52988   4.930   3.472   8.142 -0.2416 -0.3824  0.0794
17296SOL    HW152989   4.884   3.395   8.176 -0.5008  0.1905  1.0729
17296SOL    HW252990   4.861   3.538   8.131  0.0032 -0.2362 -0.6119
17297SOL     OW52991   3.155   7.832   4.790  0.0747 -0.2001  0.1642
17297SOL    HW152992   3.131   7.919   4.822  0.1097  0.4492 -1.4655
17297SOL    HW252993   3.083   7.808   4.731  0.1436 -1.2241  0.4695
17298SOL     OW52994   0.691   9.023   8.137 -0.2728  0.3400  0.2337
17298SOL    HW152995   0.758   9.047   8.073  1.5174 -1.9787  1.0976
17298SOL    HW252996   0.609   9.028   8.089  0.9885 -1.2163 -2.3112
17299SOL     OW52997   0.365   7.934   8.758 -0.6562 -0.7271  0.0901
17299SOL    HW152998   0.442   7.881   8.781  0.5436  0.8036 -0.2853
17299SOL    HW252999   0.358   7.998   8.828 -0.3437  0.4375 -0.9222
17300SOL     OW53000   8.901   6.219   6.011  0.1557  0.5360  0.0501
17300SOL    HW153001   8.878   6.271   6.088  0.0152  0.0276  0.3570
17300SOL    HW253002   8.863   6.133   6.028  1.7633 -0.1500  0.2940
17301SOL     OW53003   6.189   7.552   0.571 -0.2254  0.6303  0.0705
17301SOL    HW153004   6.255   7.600   0.621 -0.2595 -0.5255  1.2924
17301SOL    HW253005   6.105   7.582   0.605 -0.2854  0.7211 -0.1536
17302SOL     OW53006   1.431   3.603   4.901 -0.1128 -0.1305 -0.1870
17302SOL    HW153007   1.486   3.676   4.926  0.0622  0.2528 -1.6095
17302SOL    HW253008   1.411   3.558   4.983 -0.0426  1.3737  0.6768
17303SOL     OW53009   5.031   8.569   3.449 -0.3102 -0.0824 -0.2713
17303SOL    HW153010   5.071   8.483   3.433  1.1166  0.1193  1.8873
17303SOL    HW253011   4.938   8.549   3.463 -0.0703 -1.2327 -0.1848
17304SOL     OW53012   2.008   6.972   2.350 -0.3958 -0.3647  0.5565
17304SOL    HW153013   2.026   6.906   2.417  0.5812 -1.1158 -0.4197
17304SOL    HW253014   2.007   7.055   2.398 -1.0922 -1.0037  1.7124
17305SOL     OW53015   4.714   7.846   2.813  0.4949 -0.1616  0.1362
17305SOL    HW153016   4.772   7.798   2.754 -1.0906  0.3849 -1.9944
17305SOL    HW253017   4.717   7.797   2.895  0.5972 -2.6517 -1.2762
17306SOL     OW53018   0.890   6.627   5.751  0.0933  0.9880 -0.1089
17306SOL    HW153019   0.805   6.587   5.771 -0.1687  2.4472  1.9872
17306SOL    HW253020   0.873   6.682   5.675 -0.5570  0.3706 -0.4226
17307SOL     OW53021   8.484   5.607   9.063 -0.4325  0.0134  0.3466
17307SOL    HW153022   8.570   5.624   9.101 -1.2692  1.0392  1.8843
17307SOL    HW253023   8.428   5.676   9.098 -1.6403  0.0745 -1.5541
17308SOL     OW53024   1.134   5.736   0.458  0.1671 -0.3154  0.1966
17308SOL    HW153025   1.222   5.721   0.493 -0.0699 -1.1084  0.4836
17308SOL    HW253026   1.142   5.715   0.365  0.4659  0.4160  0.0487
17309SOL     OW53027   1.807   8.174   2.024 -0.1263  0.2250 -0.1079
17309SOL    HW153028   1.756   8.102   2.061 -1.1135  1.2229  0.5310
17309SOL    HW253029   1.898   8.148   2.038 -0.4676 -0.8242  0.2524
17310SOL     OW53030   4.580   6.600   3.099  0.1304 -0.0422  0.3677
17310SOL    HW153031   4.578   6.569   3.009  1.8463  1.9475 -0.4397
17310SOL    HW253032   4.589   6.521   3.152 -0.6238 -1.2205 -1.1852
17311SOL     OW53033   6.690   7.527   6.849 -0.1876  0.1777  0.5250
17311SOL    HW153034   6.692   7.608   6.899 -1.6978  0.4505  0.1921
17311SOL    HW253035   6.693   7.554   6.757 -1.0806 -0.1077  0.4043
17312SOL     OW53036   8.563   8.084   1.827 -0.3861  0.5450 -0.4124
17312SOL    HW153037   8.503   8.015   1.799  2.0023 -0.6599 -3.0579
17312SOL    HW253038   8.547   8.155   1.766 -1.5832  1.7474  1.1989
17313SOL     OW53039   4.280   4.923   2.732  0.4606  0.4697 -0.3428
17313SOL    HW153040   4.263   4.829   2.734  1.7931  0.2205  0.1070
17313SOL    HW253041   4.223   4.956   2.662 -0.4340 -0.5750 -0.1302
17314SOL     OW53042   2.523   6.779   3.694 -0.3114  0.3202  0.2344
17314SOL    HW153043   2.510   6.698   3.645 -0.8353  0.8164 -0.4794
17314SOL    HW253044   2.606   6.814   3.660 -1.2527  1.2676 -1.2364
17315SOL     OW53045   5.850   4.193   1.071 -0.4771 -0.3374 -0.2890
17315SOL    HW153046   5.828   4.174   1.163 -2.3133 -0.4656 -0.7196
17315SOL    HW253047   5.934   4.149   1.057  0.7185  1.0682  1.7734
17316SOL     OW53048   2.838   3.502   3.430 -0.0961  0.1229 -0.5205
17316SOL    HW153049   2.809   3.420   3.472  2.1781  0.0644  1.1415
17316SOL    HW253050   2.933   3.502   3.441  0.1057  2.3538 -1.7286
17317SOL     OW53051   4.044   7.525   0.534  0.7752 -0.3148 -0.7133
17317SOL    HW153052   4.069   7.442   0.574 -0.5225 -0.4803 -0.1648
17317SOL    HW253053   3.993   7.500   0.456 -1.1507 -0.1233  0.4138
17318SOL     OW53054   0.473   4.989   8.259 -0.5507 -0.4629 -0.5880
17318SOL    HW153055   0.510   4.945   8.336  1.3350  1.0045 -0.5997
17318SOL    HW253056   0.455   4.917   8.197 -0.3279 -1.4771  0.4840
17319SOL     OW53057   1.107   3.273   7.375 -0.5000 -0.3356  0.1973
17319SOL    HW153058   1.042   3.315   7.318 -1.6971  0.0875  1.7822
17319SOL    HW253059   1.066   3.191   7.403 -0.1813 -0.2767  0.8671
17320SOL     OW53060   5.027   8.414   4.879 -0.1924  0.2940  0.0603
17320SOL    HW153061   5.016   8.340   4.940  1.4663 -0.3993 -0.4307
17320SOL    HW253062   4.983   8.487   4.923 -1.2547 -0.7932  0.8933
17321SOL     OW53063   1.931   8.922   2.826  0.4744 -0.2455 -0.0391
17321SOL    HW153064   1.854   8.894   2.875  0.0411  1.0535  0.0482
17321SOL    HW253065   1.911   8.899   2.735 -0.3223  0.6873 -0.1132
17322SOL     OW53066   4.756   3.446   7.123 -0.4051  0.2064  0.2811
17322SOL    HW153067   4.741   3.379   7.190 -0.8413  0.7957  0.7904
17322SOL    HW253068   4.681   3.505   7.131  0.7939  1.7058  1.0140
17323SOL     OW53069   7.154   5.185   7.083 -0.3670 -0.1838 -0.2400
17323SOL    HW153070   7.132   5.231   7.163 -1.8185  0.9939 -1.2669
17323SOL    HW253071   7.092   5.112   7.078 -0.0307 -0.4859 -0.1277
17324SOL     OW53072   6.546   0.810   4.646  0.0743 -0.5008 -0.0479
17324SOL    HW153073   6.555   0.815   4.551 -0.3275  0.6955 -0.0376
17324SOL    HW253074   6.621   0.757   4.674  0.3451 -0.6382 -0.9997
17325SOL     OW53075   2.474   7.494   6.698  0.4504 -0.4058 -0.7344
17325SOL    HW153076   2.504   7.585   6.695  0.1594 -0.2569  0.3506
17325SOL    HW253077   2.553   7.443   6.680  0.3207  0.0636 -2.8707
17326SOL     OW53078   2.221   8.034   5.741  0.6261 -0.6047 -0.5765
17326SOL    HW153079   2.240   7.956   5.793 -0.6579 -2.6838 -3.0167
17326SOL    HW253080   2.128   8.025   5.719 -0.4788  3.2931  1.5908
17327SOL     OW53081   8.493   8.780   0.098  0.0671 -0.2385 -0.1862
17327SOL    HW153082   8.574   8.730   0.107  0.5588  0.2185 -1.7191
17327SOL    HW253083   8.520   8.863   0.058 -1.3155 -0.6661 -2.1569
17328SOL     OW53084   8.620   2.309   0.680 -0.3176  0.3166 -0.1880
17328SOL    HW153085   8.569   2.342   0.753 -0.0888  0.1350  0.0544
17328SOL    HW253086   8.605   2.214   0.681  2.7374 -0.2791  2.0301
17329SOL     OW53087   2.906   6.166   6.543  0.2700 -0.4627  0.0092
17329SOL    HW153088   2.960   6.095   6.507 -0.6629 -0.0721 -2.3953
17329SOL    HW253089   2.955   6.246   6.524 -0.0645 -0.2690 -0.0504
17330SOL     OW53090   7.878   3.718   6.889  0.6366 -0.1673  0.1793
17330SOL    HW153091   7.853   3.802   6.849  1.0125  0.4769  1.2613
17330SOL    HW253092   7.807   3.658   6.865 -1.0165  1.1273  1.5488
17331SOL     OW53093   8.999   3.520   2.214 -0.4046  0.8809  0.4670
17331SOL    HW153094   8.913   3.519   2.174  0.9273  1.6023 -2.6951
17331SOL    HW253095   8.991   3.583   2.286 -2.4734  0.9923  0.1951
17332SOL     OW53096   0.694   8.918   8.840  0.1278  0.1914  0.7662
17332SOL    HW153097   0.648   9.001   8.854 -1.0427 -0.5864  1.7675
17332SOL    HW253098   0.640   8.853   8.885  2.1142 -0.8192  1.8274
17333SOL     OW53099   1.407   6.017   6.730 -0.3375 -0.8082  0.5334
17333SOL    HW153100   1.427   5.960   6.804  1.1302 -0.9222  0.0777
17333SOL    HW253101   1.317   6.047   6.746 -0.8378 -2.5710  1.1995
17334SOL     OW53102   6.016   7.982   0.961 -0.1607  0.1016  0.6121
17334SOL    HW153103   6.029   8.064   0.914 -0.6669 -0.7621 -1.0900
17334SOL    HW253104   6.104   7.947   0.973  0.1369  1.1814  2.0009
17335SOL     OW53105   2.734   4.840   5.992  0.5974 -0.5285 -0.3039
17335SOL    HW153106   2.829   4.830   5.990  0.8453  1.2714  0.4795
17335SOL    HW253107   2.713   4.890   5.913  0.6780  1.3871  0.8176
17336SOL     OW53108   0.172   2.081   8.716 -0.2610 -0.1601 -0.3846
17336SOL    HW153109   0.163   1.991   8.682 -0.8690 -0.3144  0.1649
17336SOL    HW253110   0.245   2.118   8.666 -0.2473 -0.8359 -0.8862
17337SOL     OW53111   6.886   0.283   7.264  0.5409  0.1094  0.2020
17337SOL    HW153112   6.866   0.362   7.213  2.7704  0.8896  0.4104
17337SOL    HW253113   6.920   0.221   7.199 -0.1987 -0.3144  0.2046
17338SOL     OW53114   8.013   6.612   1.748 -0.3516  0.6159 -0.2958
17338SOL    HW153115   7.961   6.691   1.764  0.5156  0.9850  0.8389
17338SOL    HW253116   8.103   6.643   1.739 -0.0222 -0.2166 -0.0084
17339SOL     OW53117   1.214   6.992   7.709 -0.4169  0.6471  0.3091
17339SOL    HW153118   1.263   7.023   7.785  0.2517  0.4217 -0.0162
17339SOL    HW253119   1.256   7.035   7.635  0.3721 -0.8114 -0.1309
17340SOL     OW53120   9.018   6.211   0.442 -0.1321  0.1470  0.5282
17340SOL    HW153121   9.023   6.149   0.515 -0.7308  1.0225  1.3350
17340SOL    HW253122   9.023   6.156   0.364 -2.5219 -1.1294  1.1821
17341SOL     OW53123   4.132   5.684   5.847 -0.1669  0.0955 -0.0694
17341SOL    HW153124   4.057   5.645   5.803 -0.7114 -1.5021  2.1256
17341SOL    HW253125   4.194   5.612   5.857  0.5204  0.7605  0.5615
17342SOL     OW53126   6.252   1.749   6.649  0.3787 -0.0424 -0.1090
17342SOL    HW153127   6.282   1.658   6.650  1.6149  0.3375 -0.9589
17342SOL    HW253128   6.177   1.750   6.589 -0.5666 -0.7468  1.0104
17343SOL     OW53129   8.669   6.741   8.945 -0.4882  0.0348  0.0141
17343SOL    HW153130   8.592   6.798   8.939 -1.0354 -0.6344  0.4573
17343SOL    HW253131   8.643   6.660   8.902  0.3696  0.1882 -0.8336
17344SOL     OW53132   7.074   7.987   9.072  0.3877  0.2525  0.3110
17344SOL    HW153133   7.106   7.978   8.982 -0.7662  1.8594 -0.3255
17344SOL    HW253134   7.147   8.026   9.120  0.6726  0.3358 -0.1844
17345SOL     OW53135   7.061   3.287   6.379 -0.2021  0.1893 -0.1929
17345SOL    HW153136   7.004   3.211   6.375 -3.0347  2.1251  0.2519
17345SOL    HW253137   7.081   3.308   6.287 -1.8248  0.5276 -0.5025
17346SOL     OW53138   5.071   8.017   5.581 -0.6273 -0.0068  0.1389
17346SOL    HW153139   5.056   7.996   5.673 -2.0259 -0.5287 -0.1849
17346SOL    HW253140   5.021   7.951   5.533 -1.8612  1.6244 -0.9456
17347SOL     OW53141   6.350   8.152   3.626  0.1148 -0.2595  0.1820
17347SOL    HW153142   6.379   8.118   3.541  0.5519 -0.9581  0.6032
17347SOL    HW253143   6.342   8.246   3.612  0.6409 -0.3038 -0.5058
17348SOL     OW53144   6.028   0.226   2.242 -0.3039  0.2918  0.1498
17348SOL    HW153145   6.100   0.289   2.234  1.3856 -1.5800 -0.1806
17348SOL    HW253146   6.069   0.147   2.279 -2.4506 -0.4542  1.1252
17349SOL     OW53147   6.840   6.900   7.388 -0.3338 -0.1369 -0.2306
17349SOL    HW153148   6.829   6.846   7.310 -1.1605  1.0661 -0.9716
17349SOL    HW253149   6.782   6.975   7.374 -0.2996  0.2333  1.4197
17350SOL     OW53150   5.674   3.580   3.597 -0.1243  0.1135 -0.3506
17350SOL    HW153151   5.586   3.579   3.634  0.4401  2.2444  1.2266
17350SOL    HW253152   5.661   3.555   3.506 -2.2567 -0.3563  0.0120
17351SOL     OW53153   6.036   0.594   8.415 -0.7672  0.5796  0.0370
17351SOL    HW153154   6.006   0.581   8.505  1.8229  0.8336  1.0233
17351SOL    HW253155   6.053   0.506   8.382  2.6183  0.5143  1.5101
17352SOL     OW53156   2.991   1.864   3.742 -0.0540 -0.2800  0.3974
17352SOL    HW153157   3.031   1.810   3.674  1.4852  2.3360 -0.9530
17352SOL    HW253158   2.897   1.854   3.728  0.1735 -2.0632 -0.1711
17353SOL     OW53159   0.714   5.938   6.808 -0.0545 -0.0979 -0.1167
17353SOL    HW153160   0.708   5.945   6.713  0.4882  2.9827 -0.0288
17353SOL    HW253161   0.694   6.026   6.840  1.1876 -0.6653  2.5461
17354SOL     OW53162   8.420   6.215   2.808  0.0935  0.2967 -0.5412
17354SOL    HW153163   8.483   6.258   2.866 -0.5442 -0.0957  0.4676
17354SOL    HW253164   8.413   6.126   2.842 -0.5327  0.1541 -1.0280
17355SOL     OW53165   4.772   7.623   5.366  0.0378  0.6565  0.0816
17355SOL    HW153166   4.757   7.636   5.272 -3.5963 -0.2186  0.3820
17355SOL    HW253167   4.839   7.555   5.370  0.1988  0.6247 -1.8893
17356SOL     OW53168   7.914   3.055   8.910 -0.1253 -0.1160  0.5355
17356SOL    HW153169   7.968   2.980   8.885  0.8341  0.8398 -0.3841
17356SOL    HW253170   7.941   3.125   8.850 -0.6739  1.0910  1.6441
17357SOL     OW53171   8.146   2.446   1.054  0.7929  0.4247  0.6988
17357SOL    HW153172   8.106   2.462   1.140 -1.1208  1.0310 -0.2581
17357SOL    HW253173   8.198   2.524   1.037 -2.6375  2.6500 -0.7030
17358SOL     OW53174   2.876   7.812   1.944 -0.4700 -0.4033 -0.0979
17358SOL    HW153175   2.965   7.828   1.974  0.1233 -2.1613 -0.8341
17358SOL    HW253176   2.823   7.873   1.995  0.9076 -0.7055  1.8012
17359SOL     OW53177   0.746   0.189   0.522 -0.2413  0.0678  0.3043
17359SOL    HW153178   0.785   0.199   0.435  0.7747 -1.1361  0.5920
17359SOL    HW253179   0.754   0.276   0.561  0.1455  0.3945 -0.4704
17360SOL     OW53180   0.662   2.885   8.755  0.1394 -0.5632 -0.3084
17360SOL    HW153181   0.689   2.835   8.832 -0.6172 -1.0550 -0.3520
17360SOL    HW253182   0.721   2.856   8.685  1.0555  0.1357  0.1449
17361SOL     OW53183   8.824   7.167   5.206 -0.8189 -0.0136  0.4935
17361SOL    HW153184   8.858   7.082   5.236  2.0611  0.9122  0.1510
17361SOL    HW253185   8.893   7.202   5.150 -1.6649  2.8134  1.0518
17362SOL     OW53186   6.735   7.796   5.371  0.2870  0.1150 -0.5139
17362SOL    HW153187   6.803   7.730   5.360  2.7865  2.6596 -1.5227
17362SOL    HW253188   6.714   7.793   5.464  2.0463 -0.5307 -0.1039
17363SOL     OW53189   2.580   5.298   2.696  0.2733 -0.1596  0.1353
17363SOL    HW153190   2.570   5.393   2.703  1.3677 -0.0682  0.7110
17363SOL    HW253191   2.615   5.271   2.781 -0.2275 -1.1152  0.0570
17364SOL     OW53192   8.791   7.546   2.312 -0.1855 -0.1011  0.6638
17364SOL    HW153193   8.868   7.566   2.365  0.2880  0.6883 -0.2800
17364SOL    HW253194   8.732   7.500   2.371  1.0231 -0.7652  1.3925
17365SOL     OW53195   0.085   0.174   7.946  0.2119  0.5411  0.0872
17365SOL    HW153196   0.032   0.221   8.011  1.7375  1.0164  1.0330
17365SOL    HW253197   0.041   0.192   7.863 -0.9060  1.2079  0.7801
17366SOL     OW53198   3.286   5.808   5.173  0.7095  0.2866 -0.3065
17366SOL    HW153199   3.300   5.835   5.264  1.7572 -0.1868 -0.3167
17366SOL    HW253200   3.297   5.713   5.175 -2.7835 -0.2630 -0.2763
17367SOL     OW53201   0.152   7.218   5.013  0.2502  0.4563 -0.5826
17367SOL    HW153202   0.243   7.225   5.043  0.1722  1.7400 -0.5787
17367SOL    HW253203   0.159   7.222   4.917  0.1058  2.5538 -0.5595
17368SOL     OW53204   8.269   1.020   8.943  0.4772  0.5899 -0.2147
17368SOL    HW153205   8.310   0.953   8.998 -2.3580 -0.4089  0.8311
17368SOL    HW253206   8.281   0.988   8.853  1.1163 -0.1499  0.1223
17369SOL     OW53207   9.122   4.714   2.718  0.6339 -0.4768 -0.2096
17369SOL    HW153208   9.204   4.665   2.711  0.5342 -0.6596 -0.0957
17369SOL    HW253209   9.093   4.724   2.627 -0.5173 -2.6156 -0.1431
17370SOL     OW53210   5.202   3.230   0.768  0.2246  0.2243 -0.7319
17370SOL    HW153211   5.174   3.322   0.763  0.9680  0.4964 -0.1067
17370SOL    HW253212   5.203   3.211   0.862 -2.3858 -1.2240 -0.9088
17371SOL     OW53213   1.227   0.437   6.256 -0.0221  0.5739 -0.0847
17371SOL    HW153214   1.299   0.459   6.196  0.7626  0.6395  0.8480
17371SOL    HW253215   1.270   0.388   6.327 -0.9780  0.2205  0.2657
17372SOL     OW53216   8.804   8.493   8.017  0.0438  0.3648  0.2546
17372SOL    HW153217   8.848   8.414   7.985  0.7303  1.1604 -0.8338
17372SOL    HW253218   8.819   8.492   8.111  1.2583 -0.0897  0.0720
17373SOL     OW53219   6.203   6.665   5.158 -0.6748  0.5698  0.3178
17373SOL    HW153220   6.131   6.669   5.222  0.1225  0.8173  1.2233
17373SOL    HW253221   6.278   6.633   5.209 -0.1519  0.2686 -0.6254
17374SOL     OW53222   3.901   5.298   7.004 -0.3232 -0.3455 -0.0750
17374SOL    HW153223   3.834   5.254   6.952 -0.9722 -0.0724  0.5266
17374SOL    HW253224   3.931   5.232   7.066  1.2985 -1.0504 -1.5174
17375SOL     OW53225   1.613   4.375   5.081  0.0138  0.0298 -0.4925
17375SOL    HW153226   1.579   4.319   5.151 -2.7375  1.9789 -0.1005
17375SOL    HW253227   1.535   4.412   5.040  1.6515  1.6818 -2.3156
17376SOL     OW53228   6.079   7.985   3.826 -0.0510  0.0645  0.1665
17376SOL    HW153229   6.157   7.933   3.807  0.1101 -0.3019  1.6527
17376SOL    HW253230   6.015   7.921   3.857 -1.0295  0.3403 -1.2262
17377SOL     OW53231   1.756   2.647   7.215  0.1102  0.3617 -0.1947
17377SOL    HW153232   1.678   2.650   7.270 -0.1409 -0.1735 -0.5205
17377SOL    HW253233   1.822   2.605   7.270  0.8321  2.7272  0.8827
17378SOL     OW53234   1.293   8.128   4.989 -0.3305 -0.1727  0.2860
17378SOL    HW153235   1.352   8.154   5.060 -1.7120 -0.5872  1.6506
17378SOL    HW253236   1.294   8.032   4.991  0.4337 -0.2200 -1.0039
17379SOL     OW53237   6.524   8.690   7.033 -0.2341 -0.1712  0.4148
17379SOL    HW153238   6.558   8.765   7.082 -1.5373 -0.3097  1.6023
17379SOL    HW253239   6.438   8.718   7.002 -0.0382 -0.6142 -0.5676
17380SOL     OW53240   3.249   6.849   3.958 -0.0523  0.8099  0.1587
17380SOL    HW153241   3.293   6.852   3.874  0.6734 -2.1110  0.3249
17380SOL    HW253242   3.313   6.884   4.020  1.4332 -1.6271  0.1247
17381SOL     OW53243   2.427   6.915   8.857 -0.0783 -0.0076  0.2819
17381SOL    HW153244   2.469   6.829   8.856 -0.0479  0.0084 -0.4191
17381SOL    HW253245   2.335   6.897   8.877  0.2313 -0.0454  1.7853
17382SOL     OW53246   8.671   9.121   4.676 -0.2482  0.0938 -0.1752
17382SOL    HW153247   8.665   9.145   4.769 -1.9624 -0.7677 -0.0220
17382SOL    HW253248   8.678   9.205   4.630 -0.8952  0.6133  0.6481
17383SOL     OW53249   0.565   0.926   7.630 -0.3968  0.1063  0.4465
17383SOL    HW153250   0.630   0.857   7.647  0.8291  1.1576  0.2416
17383SOL    HW253251   0.485   0.879   7.608  0.2300 -1.2494  0.9227
17384SOL     OW53252   4.025   9.031   2.700  0.2933  0.3111 -0.7147
17384SOL    HW153253   3.946   9.021   2.753  1.0744  1.4108  0.6796
17384SOL    HW253254   4.001   9.095   2.633 -0.4811 -0.5906 -1.3377
17385SOL     OW53255   8.200   4.450   8.076  0.0996 -0.6043  0.2871
17385SOL    HW153256   8.229   4.422   7.989  0.5917  1.4029 -0.2548
17385SOL    HW253257   8.126   4.509   8.059 -0.4522 -0.9801  1.3062
17386SOL     OW53258   8.986   8.018   4.991 -0.5989 -0.5126 -0.0620
17386SOL    HW153259   9.031   8.011   5.075 -0.0230  0.3226 -0.2860
17386SOL    HW253260   9.057   8.013   4.926 -0.8194  0.7006 -0.4257
17387SOL     OW53261   7.433   4.797   1.596 -0.7375  0.5158 -0.1641
17387SOL    HW153262   7.435   4.824   1.505  0.9886 -1.2965 -0.7183
17387SOL    HW253263   7.477   4.867   1.643 -0.4120  0.8232 -0.9154
17388SOL     OW53264   2.100   3.635   1.352 -0.4734  0.4340 -0.2005
17388SOL    HW153265   2.072   3.708   1.407 -0.7060  1.1362 -1.2144
17388SOL    HW253266   2.098   3.559   1.409 -0.0374  1.2508  0.9361
17389SOL     OW53267   2.262   7.243   1.022  0.1507 -0.2979 -0.4381
17389SOL    HW153268   2.294   7.260   0.933 -0.3210 -1.1942 -0.7934
17389SOL    HW253269   2.326   7.183   1.060  0.2160 -0.1160 -0.2584
17390SOL     OW53270   0.611   2.557   4.595 -0.0117 -0.5416  0.6704
17390SOL    HW153271   0.664   2.537   4.673 -0.2741  0.6298  1.1766
17390SOL    HW253272   0.521   2.552   4.626 -0.1687 -1.2457  0.1283
17391SOL     OW53273   2.337   4.426   1.911 -0.0125  0.9615  0.3104
17391SOL    HW153274   2.305   4.394   1.995  0.0342  1.6384  0.5938
17391SOL    HW253275   2.262   4.472   1.873  0.1019  1.0539  0.1943
17392SOL     OW53276   1.181   2.215   0.129  0.3336 -0.0291  0.5699
17392SOL    HW153277   1.238   2.247   0.060  1.2821  0.0065  1.3489
17392SOL    HW253278   1.098   2.195   0.085  1.4894 -1.8004 -0.9295
17393SOL     OW53279   5.552   1.936   5.664 -0.2256 -0.5638  0.7335
17393SOL    HW153280   5.532   2.000   5.597 -1.7422 -0.0403  1.6466
17393SOL    HW253281   5.490   1.865   5.650  0.6846 -1.3185  0.4396
17394SOL     OW53282   2.029   7.879   9.026 -0.1687 -0.6878  0.5239
17394SOL    HW153283   2.048   7.932   9.103  0.2260  0.2450 -0.2002
17394SOL    HW253284   2.104   7.820   9.018 -0.4691 -1.1689  1.1573
17395SOL     OW53285   4.398   7.145   8.527 -0.3801 -0.3686 -0.6795
17395SOL    HW153286   4.394   7.104   8.613 -0.1153 -0.0473 -0.5120
17395SOL    HW253287   4.359   7.080   8.468  0.9171 -1.2780 -0.5749
17396SOL     OW53288   7.710   4.170   6.906  0.0443  0.0805 -0.3323
17396SOL    HW153289   7.797   4.159   6.866  0.6988  2.5955  0.1797
17396SOL    HW253290   7.725   4.232   6.977 -1.6483 -1.9166  1.9216
17397SOL     OW53291   1.081   5.651   2.510  0.4608  0.3403 -0.4680
17397SOL    HW153292   1.109   5.739   2.483  2.5947  0.0548  0.6501
17397SOL    HW253293   1.078   5.655   2.605 -0.2350 -0.5907 -0.4358
17398SOL     OW53294   2.761   3.021   0.764  0.1834 -0.1972  1.0087
17398SOL    HW153295   2.797   2.934   0.780 -1.1071 -0.5210  2.2709
17398SOL    HW253296   2.770   3.032   0.669 -2.4911 -3.0417  0.2565
17399SOL     OW53297   3.174   0.688   5.699 -0.2797 -0.4000  0.3689
17399SOL    HW153298   3.131   0.691   5.613 -1.0372 -0.1193  0.7572
17399SOL    HW253299   3.264   0.715   5.681 -0.5044 -0.0739 -0.2967
17400SOL     OW53300   3.455   4.164   5.016  0.3818  0.4379  0.6045
17400SOL    HW153301   3.551   4.163   5.017  0.5699 -4.2323  2.5621
17400SOL    HW253302   3.433   4.151   4.923  1.8538 -1.5079  0.4545
17401SOL     OW53303   4.684   6.073   4.240  0.1199 -0.2259  0.0867
17401SOL    HW153304   4.598   6.057   4.279  0.9268 -1.3887  1.5216
17401SOL    HW253305   4.737   5.999   4.269  1.1110 -0.5739 -2.3949
17402SOL     OW53306   0.907   1.690   9.124 -0.3586 -0.5499  0.7807
17402SOL    HW153307   0.936   1.618   9.179 -0.3285 -0.6846  0.5901
17402SOL    HW253308   0.924   1.660   9.035  0.0044 -0.1573  0.7141
17403SOL     OW53309   1.697   2.679   2.132 -0.3520  0.1899 -0.4324
17403SOL    HW153310   1.660   2.593   2.151 -0.2968 -0.2155 -1.9895
17403SOL    HW253311   1.792   2.667   2.142 -0.3322  0.0162 -0.8104
17404SOL     OW53312   0.698   1.128   4.421 -1.0496 -0.4157  0.0699
17404SOL    HW153313   0.642   1.189   4.372 -0.7605  0.3189  0.6478
17404SOL    HW253314   0.717   1.173   4.503  0.0787 -0.8216  0.0467
17405SOL     OW53315   8.339   2.840   5.217 -0.0903 -0.1986 -0.1289
17405SOL    HW153316   8.323   2.790   5.298  1.4981 -2.2358 -0.9997
17405SOL    HW253317   8.428   2.873   5.226 -0.2713  0.4592 -0.6359
17406SOL     OW53318   7.775   5.932   7.898 -0.1926  0.5682 -0.3439
17406SOL    HW153319   7.785   5.840   7.919 -2.0919  0.5939  0.9948
17406SOL    HW253320   7.723   5.934   7.818 -1.6072  0.4126  0.5248
17407SOL     OW53321   6.187   0.072   0.037 -0.1131 -0.4009  0.2048
17407SOL    HW153322   6.207  -0.017   0.007  0.6582 -0.3145  0.4216
17407SOL    HW253323   6.267   0.121   0.019 -0.7816  0.4276 -0.5527
17408SOL     OW53324   8.073   7.581   6.254 -0.0510  0.0538  0.5973
17408SOL    HW153325   8.067   7.655   6.314  1.8295 -0.3216  1.3229
17408SOL    HW253326   8.143   7.606   6.193  1.0414 -1.3417  1.2310
17409SOL     OW53327   3.851   0.557   6.153 -0.2455  0.2516 -0.1129
17409SOL    HW153328   3.777   0.601   6.195 -0.8717  1.7653 -2.6040
17409SOL    HW253329   3.917   0.551   6.222 -1.4821  1.8770  1.3091
17410SOL     OW53330   3.956   6.545   5.358  0.3608  0.1159  0.2611
17410SOL    HW153331   3.926   6.564   5.447  1.6659  0.3301  0.6764
17410SOL    HW253332   3.924   6.618   5.305 -0.4874 -0.0484  0.5314
17411SOL     OW53333   8.651   7.426   7.778  0.0801 -0.3959 -0.4758
17411SOL    HW153334   8.674   7.358   7.842  0.6026 -0.7947 -1.0732
17411SOL    HW253335   8.590   7.483   7.825  1.7275  0.2963  0.9414
17412SOL     OW53336   8.141   4.719   7.353 -0.2146  0.4618  0.2751
17412SOL    HW153337   8.064   4.679   7.393 -0.9577  0.4501 -1.1129
17412SOL    HW253338   8.208   4.650   7.356 -0.3179  0.3823  1.2401
17413SOL     OW53339   4.314   0.125   0.125  0.4533 -0.0147  0.6143
17413SOL    HW153340   4.316   0.220   0.129 -5.3973  0.4707  0.1303
17413SOL    HW253341   4.297   0.105   0.033 -1.6849 -1.1411  1.1738
17414SOL     OW53342   5.458   7.626   1.357  0.9936 -0.0168 -0.3794
17414SOL    HW153343   5.449   7.659   1.447  2.1334 -0.1797 -0.1930
17414SOL    HW253344   5.552   7.612   1.346  0.6872 -2.1508 -0.8153
17415SOL     OW53345   6.165   5.941   4.643  0.6033  0.2110  0.2748
17415SOL    HW153346   6.232   5.881   4.609 -0.6925 -0.3181 -1.4969
17415SOL    HW253347   6.085   5.889   4.643 -0.2112  1.4457  0.3237
17416SOL     OW53348   0.589   7.984   3.875 -0.1996 -0.5091 -0.1062
17416SOL    HW153349   0.497   7.962   3.891 -0.1237  0.3626  1.8481
17416SOL    HW253350   0.637   7.940   3.946  1.0466 -1.7326 -1.6279
17417SOL     OW53351   5.257   5.199   1.174 -0.0216  0.2476  0.4295
17417SOL    HW153352   5.174   5.162   1.204 -0.1642 -0.4726 -0.8014
17417SOL    HW253353   5.304   5.220   1.255 -0.4991 -1.3593  1.1678
17418SOL     OW53354   6.063   5.732   0.321  0.2641 -0.4351  0.1313
17418SOL    HW153355   6.083   5.746   0.413 -0.3711  1.3867  0.0177
17418SOL    HW253356   6.102   5.647   0.301  2.4332  0.1640  1.4848
17419SOL     OW53357   6.351   3.236   6.007  0.3620 -0.6242 -0.7285
17419SOL    HW153358   6.335   3.325   5.976  2.8185 -0.3733 -1.4984
17419SOL    HW253359   6.398   3.194   5.935 -0.9771 -2.6752 -0.4826
17420SOL     OW53360   3.907   7.851   8.901 -0.2217 -0.0221  0.0338
17420SOL    HW153361   3.975   7.906   8.863 -2.3337  3.7007  1.1995
17420SOL    HW253362   3.919   7.859   8.995 -1.5066 -0.3510  0.2469
17421SOL     OW53363   5.838   5.798   4.708  0.2192  0.1484 -0.5240
17421SOL    HW153364   5.874   5.789   4.620 -0.0712  0.5971 -0.6957
17421SOL    HW253365   5.781   5.875   4.703  0.1955  0.1773  0.0550
17422SOL     OW53366   2.435   8.115   8.984  0.7744  0.1751 -0.4173
17422SOL    HW153367   2.392   8.060   8.917 -0.8415  2.1338 -1.1055
17422SOL    HW253368   2.378   8.108   9.060  1.1751  0.0253 -0.1296
17423SOL     OW53369   0.158   4.674   9.102  0.5664  0.7906  0.1913
17423SOL    HW153370   0.233   4.720   9.141  0.6857 -0.7785  1.9463
17423SOL    HW253371   0.095   4.744   9.083  1.9517  2.0000 -0.1608
17424SOL     OW53372   1.852   7.245   3.792 -0.2427 -0.1425  0.0831
17424SOL    HW153373   1.810   7.331   3.782  1.1829  0.6507  0.6319
17424SOL    HW253374   1.946   7.264   3.792  0.2122 -1.9528 -2.1822
17425SOL     OW53375   1.835   6.553   4.302  0.0941  0.7633  0.4552
17425SOL    HW153376   1.747   6.579   4.327 -1.3544 -1.6739 -1.7011
17425SOL    HW253377   1.852   6.473   4.351  0.8515  0.8300  0.3217
17426SOL     OW53378   6.309   4.131   8.863  0.4014  0.1424 -0.9160
17426SOL    HW153379   6.240   4.110   8.926  0.4320  0.2175 -0.8573
17426SOL    HW253380   6.266   4.127   8.778  0.7693 -1.7656 -1.0444
17427SOL     OW53381   0.536   6.644   3.790  0.4017 -0.2230  0.0183
17427SOL    HW153382   0.562   6.569   3.845 -0.1919 -1.0797 -0.8368
17427SOL    HW253383   0.555   6.616   3.701  1.4589  1.2060 -0.2438
17428SOL     OW53384   8.591   0.395   0.976  0.4543  0.1272 -0.2945
17428SOL    HW153385   8.569   0.463   1.040 -0.4311  0.3045 -0.7694
17428SOL    HW253386   8.642   0.442   0.909  0.4985  0.1568 -0.2406
17429SOL     OW53387   2.229   2.388   4.456 -0.2790  0.0502  0.1071
17429SOL    HW153388   2.224   2.312   4.398  0.2965  1.0678 -1.3193
17429SOL    HW253389   2.145   2.432   4.446 -0.0867  0.3619 -0.1378
17430SOL     OW53390   0.654   4.812   4.199 -0.5362  0.2497  0.2595
17430SOL    HW153391   0.724   4.777   4.145 -0.5828 -0.8546  0.8812
17430SOL    HW253392   0.683   4.901   4.221  0.5935 -0.1282  0.3731
17431SOL     OW53393   4.876   6.298   4.722 -0.1443 -0.7061 -0.3169
17431SOL    HW153394   4.907   6.382   4.689  0.7727 -0.7378  0.4014
17431SOL    HW253395   4.956   6.247   4.735 -0.5701 -1.1726  0.5999
17432SOL     OW53396   3.821   7.559   8.840 -0.5979 -0.3703  0.3206
17432SOL    HW153397   3.852   7.633   8.893 -2.3103  0.1274  0.7223
17432SOL    HW253398   3.888   7.492   8.849 -0.0600  0.3201  1.7977
17433SOL     OW53399   3.778   6.299   2.523  0.0773  0.0932  0.4520
17433SOL    HW153400   3.743   6.281   2.436  2.2229 -2.4460 -0.0001
17433SOL    HW253401   3.727   6.243   2.581 -1.0780  1.4877  0.8574
17434SOL     OW53402   1.818   7.682   6.043 -0.4335 -0.3342 -0.1051
17434SOL    HW153403   1.769   7.652   5.967 -0.9758  1.2360 -0.3989
17434SOL    HW253404   1.755   7.683   6.114 -1.5174  3.5302 -0.8849
17435SOL     OW53405   0.850   1.324   7.795  0.1074  0.0493 -0.8802
17435SOL    HW153406   0.769   1.307   7.843  0.2155  2.4806  0.3346
17435SOL    HW253407   0.913   1.261   7.830 -0.0736  1.1358  1.6130
17436SOL     OW53408   6.351   4.841   8.353  0.1228 -0.2933  0.2300
17436SOL    HW153409   6.348   4.791   8.435 -0.7180 -1.1247 -0.2850
17436SOL    HW253410   6.422   4.903   8.366  0.0877 -0.4847  1.5502
17437SOL     OW53411   7.654   4.551   4.032  0.2035  0.3042  0.6932
17437SOL    HW153412   7.571   4.517   4.066 -0.7704  0.8519 -1.0265
17437SOL    HW253413   7.683   4.614   4.098 -1.4345  1.0942  0.6934
17438SOL     OW53414   4.326   7.651   1.636  0.5499 -0.4835 -0.5564
17438SOL    HW153415   4.295   7.638   1.547  0.4764 -0.0751 -0.5923
17438SOL    HW253416   4.407   7.600   1.641  0.6901 -0.2999 -0.9341
17439SOL     OW53417   1.957   2.457   0.073  0.4012  0.1602  0.7953
17439SOL    HW153418   1.990   2.396   0.007  1.4256 -0.4034  1.8040
17439SOL    HW253419   1.990   2.542   0.045 -1.0749  0.3173 -0.6411
17440SOL     OW53420   6.125   3.546   5.716 -0.4342  0.5703  0.0122
17440SOL    HW153421   6.030   3.552   5.701 -0.5577  0.4237  0.6635
17440SOL    HW253422   6.160   3.504   5.638 -0.9343  0.4465 -0.1482
17441SOL     OW53423   3.968   0.005   2.158 -0.0346 -0.1410 -0.0532
17441SOL    HW153424   3.984   0.074   2.221  3.0060 -0.5844 -0.1820
17441SOL    HW253425   3.890   0.034   2.109  0.4477  2.5842  0.6385
17442SOL     OW53426   5.909   8.505   4.704  0.2661 -0.0575  0.1035
17442SOL    HW153427   5.971   8.460   4.648 -0.2598  1.0360 -1.4325
17442SOL    HW253428   5.824   8.493   4.661 -0.4807 -0.7953  1.6936
17443SOL     OW53429   3.652   5.627   6.835 -0.6562 -0.7436 -0.0399
17443SOL    HW153430   3.605   5.587   6.763 -0.8944 -1.4688  0.5062
17443SOL    HW253431   3.592   5.620   6.910  0.4867 -2.1700  0.8050
17444SOL     OW53432   0.244   6.619   5.045 -0.0601 -0.5757  0.0131
17444SOL    HW153433   0.222   6.681   5.115  0.0258 -0.7746  0.2140
17444SOL    HW253434   0.160   6.602   5.001 -0.0465 -0.1388 -0.1873
17445SOL     OW53435   3.101   4.690   5.354 -0.4106  0.0674  0.3487
17445SOL    HW153436   3.049   4.661   5.279 -0.7026 -0.5255  0.7670
17445SOL    HW253437   3.188   4.653   5.339 -0.2950  0.4731 -0.0024
17446SOL     OW53438   6.104   0.473   2.357  0.0966 -0.0404 -0.4469
17446SOL    HW153439   6.186   0.514   2.330  0.1899 -0.4018 -0.7287
17446SOL    HW253440   6.131   0.400   2.413 -0.1431  2.0100  2.6008
17447SOL     OW53441   0.371   0.001   5.955 -0.1817  0.0695 -0.8583
17447SOL    HW153442   0.279   0.003   5.926 -0.1570  0.0990 -0.9333
17447SOL    HW253443   0.379  -0.083   6.002  0.1219 -0.5968 -2.0667
17448SOL     OW53444   5.100   6.808   1.660 -0.8878 -0.1862  0.7612
17448SOL    HW153445   5.159   6.826   1.734  0.8471 -0.7658 -0.4366
17448SOL    HW253446   5.123   6.720   1.632  0.1506  0.8719 -1.9484
17449SOL     OW53447   5.156   4.935   2.603  0.1546  0.8047 -0.2431
17449SOL    HW153448   5.162   4.840   2.608 -0.2667  0.7109 -1.2286
17449SOL    HW253449   5.245   4.966   2.620  0.2431  0.2586  0.3423
17450SOL     OW53450   8.622   0.282   8.652  0.6744 -0.3903 -0.4409
17450SOL    HW153451   8.682   0.340   8.606  0.1051 -0.2712 -1.0557
17450SOL    HW253452   8.657   0.194   8.637  0.6990 -0.3215 -0.7929
17451SOL     OW53453   2.840   5.087   1.775  0.4861 -0.0777 -0.2679
17451SOL    HW153454   2.752   5.124   1.781  0.3134 -0.6526  0.9920
17451SOL    HW253455   2.825   4.993   1.764  0.9199 -0.3486  1.2305
17452SOL     OW53456   5.072   7.770   6.341  0.7784 -0.2230  0.5114
17452SOL    HW153457   5.014   7.792   6.268  0.4133 -3.2262 -0.2383
17452SOL    HW253458   5.093   7.855   6.381  0.2906  1.4771 -2.5057
17453SOL     OW53459   5.402   1.387   1.072 -0.2290 -0.6758  0.1738
17453SOL    HW153460   5.473   1.335   1.108 -0.4074 -1.1836 -0.1841
17453SOL    HW253461   5.345   1.323   1.029 -0.0642 -0.1068 -0.9265
17454SOL     OW53462   2.552   3.505   2.365 -0.1311 -0.2317 -0.4746
17454SOL    HW153463   2.632   3.535   2.407  0.7068 -0.9680 -1.5014
17454SOL    HW253464   2.489   3.575   2.382  0.6532  0.2674  0.5167
17455SOL     OW53465   0.848   2.742   4.834 -0.2803 -0.6970 -0.1110
17455SOL    HW153466   0.781   2.675   4.840 -1.0825  0.2233  1.9293
17455SOL    HW253467   0.930   2.693   4.822 -1.0654 -1.8967 -0.8290
17456SOL     OW53468   7.462   2.689   4.229 -0.0801 -0.1200  0.8634
17456SOL    HW153469   7.501   2.729   4.151 -0.4861 -1.1310  0.1251
17456SOL    HW253470   7.420   2.762   4.274 -1.6858  0.1986 -0.9766
17457SOL     OW53471   1.000   0.207   0.976  0.0652  0.2168 -0.6148
17457SOL    HW153472   0.933   0.274   0.959  0.7461  0.5996 -1.9863
17457SOL    HW253473   1.083   0.252   0.962  0.5688 -0.6622 -0.5518
17458SOL     OW53474   4.349   1.128   7.349  0.2584  0.0526  0.1103
17458SOL    HW153475   4.316   1.089   7.430  0.2429  0.8674  0.5007
17458SOL    HW253476   4.421   1.070   7.322 -1.3578 -1.6798 -0.6936
17459SOL     OW53477   8.484   8.466   5.538  0.0923  0.2416  0.0488
17459SOL    HW153478   8.535   8.425   5.608 -1.9309 -1.2083  0.7316
17459SOL    HW253479   8.535   8.448   5.459  2.6590  2.2820  1.0709
17460SOL     OW53480   7.943   6.137   6.232  0.1928 -0.0098  0.4411
17460SOL    HW153481   7.965   6.102   6.145 -1.3139 -1.5133  0.6162
17460SOL    HW253482   7.979   6.072   6.293 -0.1564  0.2172  0.8859
17461SOL     OW53483   3.424   7.985   5.026 -0.5074  0.3277  0.0214
17461SOL    HW153484   3.444   7.915   5.088 -1.1125  1.0549  1.0470
17461SOL    HW253485   3.471   7.959   4.946  0.0929 -0.7336  0.6912
17462SOL     OW53486   2.901   2.725   7.914 -0.7014 -0.0087 -0.0075
17462SOL    HW153487   2.925   2.815   7.937 -0.8632 -0.2882  1.3744
17462SOL    HW253488   2.873   2.730   7.823 -0.5987  1.3210  0.0098
17463SOL     OW53489   2.716   5.761   3.592  0.6847 -0.4767 -0.7564
17463SOL    HW153490   2.623   5.779   3.577  1.1270  0.9453 -2.0455
17463SOL    HW253491   2.726   5.668   3.569 -0.3105 -0.4916 -1.1706
17464SOL     OW53492   0.525   2.325   8.040 -0.5851  0.3358 -0.2393
17464SOL    HW153493   0.541   2.370   7.957  0.5459  0.8702  0.2553
17464SOL    HW253494   0.448   2.270   8.022 -2.3459  2.7730 -0.7449
17465SOL     OW53495   3.068   7.316   7.252 -0.1967  0.2561  0.2819
17465SOL    HW153496   3.136   7.260   7.215  0.8001  0.8023  1.2416
17465SOL    HW253497   3.078   7.399   7.206 -0.1177  0.3817  0.5255
17466SOL     OW53498   8.953   3.644   2.503 -0.3689 -0.5290  0.7345
17466SOL    HW153499   8.869   3.635   2.458  0.8657 -2.8668 -1.3559
17466SOL    HW253500   8.936   3.709   2.572 -2.9795  1.5408 -1.6113
17467SOL     OW53501   0.929   3.011   7.104  0.0221  0.1791 -0.6136
17467SOL    HW153502   0.936   3.058   7.020  2.2427 -0.6801 -0.9662
17467SOL    HW253503   1.007   2.957   7.108 -0.1362  0.0178  1.9431
17468SOL     OW53504   7.699   6.828   5.867 -0.1808 -0.1927 -0.2010
17468SOL    HW153505   7.636   6.850   5.935 -0.7288 -1.6491 -0.2182
17468SOL    HW253506   7.784   6.853   5.904 -0.6269  0.5921  0.3254
17469SOL     OW53507   6.381   7.503   8.681 -0.1211  0.3474 -0.2568
17469SOL    HW153508   6.353   7.538   8.596 -1.1369  1.9068  0.6629
17469SOL    HW253509   6.423   7.577   8.724 -1.0313  0.0628  1.2046
17470SOL     OW53510   7.105   7.656   1.411  0.2144  0.1106 -0.3088
17470SOL    HW153511   7.114   7.572   1.367 -1.8682 -1.7756  2.5294
17470SOL    HW253512   7.193   7.674   1.446  0.2896 -1.9493  0.7155
17471SOL     OW53513   7.499   4.550   8.777  0.0182 -0.3970  0.0737
17471SOL    HW153514   7.537   4.613   8.838 -1.1406  1.0769 -0.6322
17471SOL    HW253515   7.562   4.479   8.772  2.0322  1.3059 -0.0504
17472SOL     OW53516   2.339   8.208   5.584  0.4184  0.2290  0.1057
17472SOL    HW153517   2.421   8.239   5.623  0.0688  0.8016  0.3902
17472SOL    HW253518   2.309   8.138   5.642  0.2052  0.6769  0.5366
17473SOL     OW53519   8.795   6.487   5.828  0.0268 -0.2804  0.5844
17473SOL    HW153520   8.720   6.482   5.888 -0.0608 -0.5449  0.4537
17473SOL    HW253521   8.828   6.576   5.839 -0.4834 -0.0663  0.4284
17474SOL     OW53522   3.309   3.365   1.595 -0.2608 -0.5807  0.6767
17474SOL    HW153523   3.369   3.415   1.539 -1.5540 -0.5982 -0.8025
17474SOL    HW253524   3.321   3.274   1.570 -2.0745 -0.4544 -0.9385
17475SOL     OW53525   2.420   1.202   1.683 -0.1843  0.1323 -0.1182
17475SOL    HW153526   2.355   1.194   1.613  1.0456 -2.7886 -1.0582
17475SOL    HW253527   2.410   1.122   1.734  0.4797  1.1805  1.7438
17476SOL     OW53528   2.882   3.788   8.591  0.1042  0.6248  0.0890
17476SOL    HW153529   2.923   3.716   8.639  1.1963  0.6343 -0.7882
17476SOL    HW253530   2.871   3.754   8.502 -0.9190  0.9711  0.0680
17477SOL     OW53531   2.248   3.675   8.984  0.1298 -0.3646 -0.2863
17477SOL    HW153532   2.189   3.635   9.048  0.5616  1.2104  1.1412
17477SOL    HW253533   2.304   3.733   9.035  0.6350  0.7960 -2.0670
17478SOL     OW53534   3.402   3.360   3.154  0.2985  0.3754 -0.2647
17478SOL    HW153535   3.455   3.314   3.220 -0.6993  0.9614  1.0031
17478SOL    HW253536   3.452   3.439   3.135  0.5548  0.2466 -0.1391
17479SOL     OW53537   5.201   5.247   4.675 -0.0829 -0.3398 -0.3015
17479SOL    HW153538   5.188   5.165   4.724  1.4489 -1.1999 -1.2759
17479SOL    HW253539   5.112   5.281   4.663 -0.6373 -0.9210  1.6366
17480SOL     OW53540   1.269   2.316   6.375  0.5769 -0.1796  0.2795
17480SOL    HW153541   1.247   2.348   6.462  0.9938 -2.3608  1.2438
17480SOL    HW253542   1.363   2.329   6.367  0.4934  0.3065 -0.0039
17481SOL     OW53543   7.997   1.821   6.931 -0.4914 -0.4793  0.0983
17481SOL    HW153544   8.028   1.732   6.948  0.3231 -0.0674  0.8636
17481SOL    HW253545   8.076   1.870   6.908 -0.9776 -0.0226 -0.6251
17482SOL     OW53546   2.355   6.347   1.277  0.3456 -0.3750  0.0147
17482SOL    HW153547   2.439   6.366   1.319  0.2578 -0.9104  0.4481
17482SOL    HW253548   2.370   6.266   1.230  0.1736 -0.2740 -0.2149
17483SOL     OW53549   4.549   7.328   4.139 -0.1574 -0.0228 -0.1710
17483SOL    HW153550   4.608   7.273   4.088 -0.4532 -0.7182  0.2171
17483SOL    HW253551   4.595   7.412   4.147  0.3857 -0.2717 -0.6133
17484SOL     OW53552   8.969   2.158   0.576 -0.3718  0.1948 -0.1514
17484SOL    HW153553   8.976   2.249   0.547  2.7656 -0.1285 -0.7254
17484SOL    HW253554   8.910   2.117   0.513  0.5436  1.1836 -1.6945
17485SOL     OW53555   8.182   8.425   1.749 -0.3186 -0.1216  0.1096
17485SOL    HW153556   8.165   8.365   1.821  0.4123  0.3759  0.7121
17485SOL    HW253557   8.101   8.425   1.697 -0.9744 -0.2336  1.1121
17486SOL     OW53558   4.710   8.331   4.847  0.6930 -0.1065 -0.2348
17486SOL    HW153559   4.731   8.383   4.770  0.0897 -0.9437 -0.9783
17486SOL    HW253560   4.662   8.392   4.904  1.3689  0.5846 -0.3918
17487SOL     OW53561   2.183   2.976   3.912  0.1839  0.0569  0.3891
17487SOL    HW153562   2.229   3.060   3.907  0.8238 -0.3051  0.1304
17487SOL    HW253563   2.220   2.933   3.990  0.6260 -0.4305 -0.0838
17488SOL     OW53564   6.354   6.067   2.797  0.0635 -0.4784  0.7711
17488SOL    HW153565   6.426   6.124   2.826  1.1435 -0.1493 -2.1532
17488SOL    HW253566   6.363   5.988   2.850  2.3611 -0.2564  0.8304
17489SOL     OW53567   3.512   5.690   7.778 -0.4338  0.4506  0.1348
17489SOL    HW153568   3.448   5.733   7.720 -0.2402  0.1522 -0.3092
17489SOL    HW253569   3.460   5.634   7.834 -0.4630 -0.9143 -1.1988
17490SOL     OW53570   5.544   7.561   2.147  0.0405 -0.4178 -0.0331
17490SOL    HW153571   5.464   7.511   2.133  0.1548 -0.4650 -0.5485
17490SOL    HW253572   5.609   7.520   2.090  0.0491  0.5057 -0.7311
17491SOL     OW53573   2.901   2.456   7.001  0.8499 -0.2192  0.4722
17491SOL    HW153574   2.903   2.401   7.080  0.3501 -1.0950 -0.1091
17491SOL    HW253575   2.843   2.410   6.941  2.8632 -0.6909 -1.2194
17492SOL     OW53576   6.786   2.944   6.515 -0.5993  0.1495  0.3749
17492SOL    HW153577   6.714   2.884   6.501 -0.7822 -0.1557  2.3290
17492SOL    HW253578   6.843   2.899   6.578 -0.3049  1.6255  1.2184
17493SOL     OW53579   8.953   6.408   3.891  0.3692  0.3039 -0.9127
17493SOL    HW153580   9.017   6.345   3.926  1.3687  0.6350 -2.0667
17493SOL    HW253581   9.006   6.469   3.840 -0.8540  0.7463 -1.6830
17494SOL     OW53582   1.307   2.556   5.208  0.0834 -0.2232  0.6904
17494SOL    HW153583   1.379   2.579   5.149 -1.0323  0.0020 -0.6299
17494SOL    HW253584   1.339   2.480   5.257  2.2632  1.5217  2.1715
17495SOL     OW53585   7.533   5.685   5.441  0.4351  0.3056 -0.2872
17495SOL    HW153586   7.533   5.748   5.369  2.0338  2.0618  1.1615
17495SOL    HW253587   7.567   5.733   5.516  0.1022 -1.8287  1.3482
17496SOL     OW53588   6.640   8.842   5.528 -0.2012 -0.2296  0.2062
17496SOL    HW153589   6.599   8.854   5.614 -0.6953 -1.4693  0.1682
17496SOL    HW253590   6.597   8.906   5.472 -2.3402 -1.6181  0.1199
17497SOL     OW53591   5.794   4.884   3.301  0.6808  0.6709 -0.2001
17497SOL    HW153592   5.875   4.925   3.271  0.2126  1.4474 -0.4205
17497SOL    HW253593   5.798   4.891   3.397  0.3412  1.7650 -0.2549
17498SOL     OW53594   5.989   0.087   6.916 -0.2257 -0.0419  0.4352
17498SOL    HW153595   5.917   0.147   6.896 -0.5756 -1.0656 -1.6091
17498SOL    HW253596   5.947   0.012   6.956 -0.3734 -0.7231 -0.9339
17499SOL     OW53597   6.097   8.621   6.868 -0.5493 -0.3525 -0.0603
17499SOL    HW153598   6.070   8.639   6.958 -1.1542 -0.8780 -0.1315
17499SOL    HW253599   6.156   8.693   6.846  1.3237 -1.3451  1.4677
17500SOL     OW53600   2.136   1.290   8.106  0.4737  0.1920 -0.5263
17500SOL    HW153601   2.147   1.225   8.175  0.4709  0.3658 -0.3620
17500SOL    HW253602   2.074   1.250   8.045  0.2883  0.1395 -0.3040
17501SOL     OW53603   7.850   1.484   7.042 -0.3768  0.1862 -0.5954
17501SOL    HW153604   7.856   1.519   7.131 -0.7678  0.8423 -0.8176
17501SOL    HW253605   7.816   1.396   7.053  2.6840 -1.0307  0.1513
17502SOL     OW53606   7.591   1.529   2.264 -0.8934 -0.1637  0.1496
17502SOL    HW153607   7.507   1.555   2.300 -1.4983 -1.9215  0.0956
17502SOL    HW253608   7.629   1.471   2.330  0.1884  0.4194  0.0722
17503SOL     OW53609   3.071   6.006   6.897 -0.1738 -0.4625 -0.2589
17503SOL    HW153610   2.982   5.988   6.868  0.4215 -0.7598 -2.0022
17503SOL    HW253611   3.115   6.041   6.820  1.6618 -1.8933  0.0812
17504SOL     OW53612   5.766   3.953   0.141 -0.4409 -0.7441 -0.2763
17504SOL    HW153613   5.838   4.016   0.136  1.7137 -2.9924  0.3927
17504SOL    HW253614   5.753   3.922   0.052 -0.7194 -0.2172 -0.4220
17505SOL     OW53615   0.613   1.894   4.349  0.8471 -0.4307 -0.3112
17505SOL    HW153616   0.642   1.911   4.259 -0.7858 -1.3377 -1.0640
17505SOL    HW253617   0.519   1.912   4.347  0.8276 -0.2477  1.2891
17506SOL     OW53618   1.382   3.548   1.501  0.3145 -0.4461 -0.7740
17506SOL    HW153619   1.317   3.492   1.543 -0.7460  0.2827 -1.4212
17506SOL    HW253620   1.349   3.637   1.513  2.2714  0.1501  0.7644
17507SOL     OW53621   2.581   5.364   5.883  0.6498  0.0372  0.2146
17507SOL    HW153622   2.550   5.412   5.960  1.3922 -0.5707  0.9201
17507SOL    HW253623   2.630   5.290   5.920 -0.0245 -0.9647 -0.8429
17508SOL     OW53624   2.592   4.936   4.665 -0.4610  0.4650 -0.4111
17508SOL    HW153625   2.522   4.983   4.620  0.4048  0.2470 -2.0671
17508SOL    HW253626   2.661   5.001   4.676  0.0069  0.0712 -0.9912
17509SOL     OW53627   3.057   2.881   3.846  1.0287 -0.4134 -0.5830
17509SOL    HW153628   3.132   2.927   3.882  2.0490 -1.2861 -1.5071
17509SOL    HW253629   3.084   2.789   3.843 -0.4291 -0.8920 -0.0664
17510SOL     OW53630   5.705   8.535   5.679 -0.3051  0.7438  0.3289
17510SOL    HW153631   5.616   8.532   5.645  0.0856 -0.2668 -0.6609
17510SOL    HW253632   5.702   8.485   5.760 -0.9855  2.1561  1.2220
17511SOL     OW53633   2.453   5.373   5.647 -0.1519 -0.7383  0.2039
17511SOL    HW153634   2.491   5.366   5.735  0.1351 -3.2633 -0.0452
17511SOL    HW253635   2.360   5.355   5.660 -0.1262 -1.0143  0.0009
17512SOL     OW53636   6.661   3.914   1.988  0.0303  0.0126 -0.4663
17512SOL    HW153637   6.624   4.003   1.992  1.5552  0.6384  0.8108
17512SOL    HW253638   6.585   3.857   1.998 -1.2222  1.0807 -3.0230
17513SOL     OW53639   6.011   4.670   6.542 -0.3372 -0.5275  0.3547
17513SOL    HW153640   6.092   4.692   6.496 -1.6347  0.8354 -1.4085
17513SOL    HW253641   6.000   4.576   6.528 -0.0059 -0.3791 -0.9893
17514SOL     OW53642   8.829   0.342   5.063 -0.1572 -0.0217 -0.5543
17514SOL    HW153643   8.919   0.315   5.076  0.3442  0.7367 -2.1042
17514SOL    HW253644   8.785   0.325   5.146  0.7598 -2.8319 -0.5517
17515SOL     OW53645   6.385   6.390   3.015 -0.1806 -0.1741 -0.1006
17515SOL    HW153646   6.407   6.428   2.930  0.6882 -0.0707  0.1677
17515SOL    HW253647   6.392   6.463   3.076  2.5092 -0.9248  0.5895
17516SOL     OW53648   5.024   1.449   4.817  0.0768 -0.1379 -0.2304
17516SOL    HW153649   4.944   1.486   4.779  0.5377  1.1039 -0.0554
17516SOL    HW253650   5.045   1.508   4.890 -0.2063 -1.8658  1.3148
17517SOL     OW53651   6.579   6.318   5.585  0.4129  0.5215 -0.3716
17517SOL    HW153652   6.530   6.238   5.602  0.2455  0.4958 -0.9389
17517SOL    HW253653   6.540   6.383   5.644  1.5648 -0.1697  1.2041
17518SOL     OW53654   1.535   7.908   0.181 -0.2331  0.1895  0.0284
17518SOL    HW153655   1.456   7.917   0.127 -1.2660  1.4366  1.6454
17518SOL    HW253656   1.505   7.863   0.259  1.3052 -1.8758 -0.4944
17519SOL     OW53657   1.673   0.810   2.902 -0.4789  0.1481 -0.0491
17519SOL    HW153658   1.707   0.724   2.874 -1.0548 -0.5139  1.1880
17519SOL    HW253659   1.748   0.869   2.893  0.4748 -0.8819  0.7977
17520SOL     OW53660   6.210   4.009   0.007  0.2353  0.3579 -0.4159
17520SOL    HW153661   6.190   4.100   0.030  0.1443  0.5548 -1.2197
17520SOL    HW253662   6.303   4.000   0.026  0.5772  1.0568 -1.5913
17521SOL     OW53663   0.640   0.306   4.689  0.5985 -0.3770 -0.0617
17521SOL    HW153664   0.700   0.381   4.693  1.1432 -0.7726 -0.7272
17521SOL    HW253665   0.686   0.236   4.734 -0.1075 -0.2029  0.9829
17522SOL     OW53666   1.363   1.078   2.944  0.3051 -0.0603  0.1561
17522SOL    HW153667   1.343   1.083   3.037 -0.7548 -0.6932 -0.0257
17522SOL    HW253668   1.367   0.985   2.925 -1.3453  0.0315 -0.8013
17523SOL     OW53669   2.768   3.720   0.667  0.2226 -0.2936 -0.3840
17523SOL    HW153670   2.833   3.679   0.724 -0.3786  0.8705  1.1887
17523SOL    HW253671   2.714   3.647   0.636  0.1698 -0.8991  1.0492
17524SOL     OW53672   6.427   3.313   4.527 -0.0117 -0.1670 -0.1270
17524SOL    HW153673   6.491   3.244   4.546  0.2089  0.3809  1.2211
17524SOL    HW253674   6.470   3.368   4.461  0.5841 -0.2600  0.1762
17525SOL     OW53675   3.557   3.351   0.305  0.1175  0.1926  0.1789
17525SOL    HW153676   3.501   3.345   0.228 -0.3326  1.6528  0.3487
17525SOL    HW253677   3.646   3.339   0.272 -0.2771 -3.2309  0.0554
17526SOL     OW53678   7.005   0.728   2.561 -0.2652 -0.1149  0.3521
17526SOL    HW153679   7.050   0.805   2.594  0.4847 -0.9891  1.4293
17526SOL    HW253680   6.936   0.763   2.504  0.7760  1.2971 -0.0883
17527SOL     OW53681   6.150   6.942   8.577 -0.3122  0.3128  0.3893
17527SOL    HW153682   6.182   6.940   8.667 -1.4454 -1.7893  0.8326
17527SOL    HW253683   6.115   7.030   8.566  1.5126  1.2094  1.3516
17528SOL     OW53684   0.502   6.926   8.449 -0.6720 -0.1373 -0.1623
17528SOL    HW153685   0.489   7.015   8.419  1.6196 -0.1410 -1.3042
17528SOL    HW253686   0.471   6.871   8.377 -2.2021 -0.3240  0.5897
17529SOL     OW53687   1.514   2.468   1.373 -0.9834  0.0549  0.6348
17529SOL    HW153688   1.508   2.408   1.298  1.4144 -0.7706  1.0362
17529SOL    HW253689   1.431   2.455   1.420 -1.8720 -0.5547 -0.9998
17530SOL     OW53690   1.486   6.439   4.954  0.4540 -0.5357 -0.5304
17530SOL    HW153691   1.538   6.370   4.997 -1.9700 -1.2566  1.4990
17530SOL    HW253692   1.457   6.495   5.026 -3.1496 -1.3366 -1.1480
17531SOL     OW53693   8.474   5.245   2.805 -0.3168  0.6515  0.1695
17531SOL    HW153694   8.520   5.208   2.881  1.6738  1.0486 -0.7958
17531SOL    HW253695   8.388   5.202   2.807  0.7558 -1.6722  0.9126
17532SOL     OW53696   5.270   8.250   5.884  0.2777  0.1969  0.0011
17532SOL    HW153697   5.318   8.188   5.939  2.0799  1.1589 -0.4103
17532SOL    HW253698   5.284   8.335   5.925 -2.0288  0.4155  0.4733
17533SOL     OW53699   8.863   4.710   2.172  0.3062  0.5083 -0.3334
17533SOL    HW153700   8.782   4.749   2.138 -0.5329 -0.4339  0.5156
17533SOL    HW253701   8.864   4.622   2.133  1.7939  1.0555 -1.6453
17534SOL     OW53702   1.149   4.460   8.764  0.2592  0.0586 -0.3192
17534SOL    HW153703   1.119   4.369   8.773  0.2551 -0.0166 -1.0777
17534SOL    HW253704   1.244   4.456   8.775  0.2256  0.0108 -0.0334
17535SOL     OW53705   1.530   0.901   2.340  0.1921 -0.5922  0.0083
17535SOL    HW153706   1.611   0.864   2.307  0.1270  0.6698 -1.7202
17535SOL    HW253707   1.461   0.857   2.291 -0.0614 -0.3931  0.1778
17536SOL     OW53708   7.460   7.072   0.080 -0.3901  0.4664 -0.3831
17536SOL    HW153709   7.464   7.165   0.058  1.9119  0.7205  0.8531
17536SOL    HW253710   7.499   7.028   0.004 -3.1447  0.2522 -1.8026
17537SOL     OW53711   5.392   2.026   3.485  0.1011 -0.3385 -0.8157
17537SOL    HW153712   5.426   2.110   3.455  0.4855 -0.2101 -0.0298
17537SOL    HW253713   5.359   1.984   3.405 -0.5809  0.7708 -1.1350
17538SOL     OW53714   7.670   3.982   6.357  0.4581  0.0239 -0.3750
17538SOL    HW153715   7.765   3.982   6.342  0.6137  0.3568  0.5650
17538SOL    HW253716   7.657   4.040   6.431 -0.5233  0.2093 -0.6773
17539SOL     OW53717   4.435   2.965   1.214 -0.2316  0.1751  0.0649
17539SOL    HW153718   4.437   2.875   1.248  1.4101 -0.9736 -2.7053
17539SOL    HW253719   4.416   2.954   1.121  1.0132  2.6224 -0.5432
17540SOL     OW53720   3.547   1.618   0.447 -0.0192 -0.2274 -0.1463
17540SOL    HW153721   3.459   1.653   0.458  0.7282  0.9734  2.8888
17540SOL    HW253722   3.589   1.677   0.384 -0.5409  0.8569  0.5168
17541SOL     OW53723   6.433   6.777   1.050  0.0037 -0.0821  0.0712
17541SOL    HW153724   6.346   6.818   1.053  0.4855  0.9649  0.1091
17541SOL    HW253725   6.486   6.829   1.110  0.5351 -1.0256  0.4235
17542SOL     OW53726   5.057   6.509   0.815 -0.3807  0.0658 -0.6539
17542SOL    HW153727   5.144   6.516   0.774  0.3320  1.3490  0.9798
17542SOL    HW253728   5.017   6.594   0.802 -0.9308 -0.1468 -0.3725
17543SOL     OW53729   3.521   5.377   1.934  0.0436  0.3948 -0.4535
17543SOL    HW153730   3.468   5.351   1.859  0.8701 -1.1324 -0.5531
17543SOL    HW253731   3.475   5.342   2.010  0.8783 -0.9600 -0.5429
17544SOL     OW53732   5.117   1.899   3.534 -0.0712  0.2504 -0.5997
17544SOL    HW153733   5.189   1.889   3.472  0.7324 -0.8487  0.4570
17544SOL    HW253734   5.122   1.990   3.563  0.7348  0.2567 -0.7370
17545SOL     OW53735   2.314   4.289   5.930 -0.7730  0.4819  0.4268
17545SOL    HW153736   2.405   4.276   5.956 -0.7218  1.1917  0.6061
17545SOL    HW253737   2.264   4.230   5.987 -0.3431 -0.7189 -0.4090
17546SOL     OW53738   6.536   0.758   0.027 -0.3934  0.0802  0.1643
17546SOL    HW153739   6.460   0.700   0.031  0.2323 -0.7192  0.7156
17546SOL    HW253740   6.512   0.833   0.081 -1.1362  0.2705 -0.4057
17547SOL     OW53741   6.081   4.669   0.989 -0.3313  0.6917  0.3710
17547SOL    HW153742   6.108   4.577   0.990  1.2297  1.1089  0.0426
17547SOL    HW253743   6.127   4.707   1.064 -0.8872  1.2317  0.4434
17548SOL     OW53744   3.561   5.857   0.011 -0.0769 -0.3600  0.7886
17548SOL    HW153745   3.578   5.804  -0.067 -0.4441 -1.0339  1.1599
17548SOL    HW253746   3.647   5.893   0.035  0.0612 -0.2644  0.1599
17549SOL     OW53747   0.648   8.208   0.184  0.0018  0.1476  0.2836
17549SOL    HW153748   0.630   8.296   0.214 -1.4282 -0.1361  0.3304
17549SOL    HW253749   0.688   8.220   0.098 -1.0335  0.8346 -0.1235
17550SOL     OW53750   5.025   7.368   0.649  0.1517  0.2385  0.0046
17550SOL    HW153751   5.111   7.397   0.617 -0.1739  0.7778 -0.3980
17550SOL    HW253752   4.968   7.444   0.638 -0.9426 -0.7612 -1.8604
17551SOL     OW53753   2.151   2.410   5.742  0.0118 -0.3962  0.1927
17551SOL    HW153754   2.172   2.468   5.815 -0.5102 -2.3488  2.0075
17551SOL    HW253755   2.059   2.430   5.721  0.4247  0.7887 -0.5779
17552SOL     OW53756   5.721   0.779   1.118 -0.2896 -0.1982  0.3030
17552SOL    HW153757   5.691   0.689   1.124 -0.3726 -0.1128  1.3881
17552SOL    HW253758   5.677   0.824   1.190 -0.9811  0.9219 -0.7889
17553SOL     OW53759   4.819   5.125   7.119 -0.3656  0.3232 -0.4194
17553SOL    HW153760   4.827   5.119   7.024  0.8433 -0.0479 -0.3047
17553SOL    HW253761   4.887   5.187   7.145  0.3304 -0.7329  0.3384
17554SOL     OW53762   8.135   6.324   8.512 -0.0833 -0.0386 -0.2267
17554SOL    HW153763   8.213   6.299   8.462 -0.4676  1.0919 -1.4546
17554SOL    HW253764   8.163   6.322   8.603  1.2065 -0.2689 -0.6030
17555SOL     OW53765   5.374   5.275   1.413 -0.3027 -0.0064 -0.4149
17555SOL    HW153766   5.342   5.189   1.441 -1.7827 -0.3560 -2.9147
17555SOL    HW253767   5.464   5.259   1.384 -0.8672 -0.9392 -1.7254
17556SOL     OW53768   4.911   1.980   1.647 -0.0532  0.0244  0.6255
17556SOL    HW153769   4.982   1.942   1.699  0.3299 -1.6301 -0.9781
17556SOL    HW253770   4.935   1.961   1.556 -2.1428  0.1401 -0.0046
17557SOL     OW53771   3.738   2.443   2.528  0.4293 -0.0239  0.2449
17557SOL    HW153772   3.747   2.484   2.614  1.7959  4.3728 -1.6810
17557SOL    HW253773   3.658   2.483   2.492  0.6786 -0.6392 -1.0278
17558SOL     OW53774   0.145   0.765   5.378  0.0681  0.1089  0.1859
17558SOL    HW153775   0.146   0.741   5.470  0.5244  2.3223  0.8150
17558SOL    HW253776   0.235   0.755   5.349 -0.1615 -1.0391 -0.1739
17559SOL     OW53777   7.151   0.866   1.692  0.4850 -0.2368  0.4137
17559SOL    HW153778   7.059   0.890   1.687  0.2892 -0.6698  1.6302
17559SOL    HW253779   7.196   0.931   1.637 -0.6664 -0.8815 -1.3901
17560SOL     OW53780   8.100   8.890   0.639  0.4067  0.0516  0.0395
17560SOL    HW153781   8.175   8.922   0.588  0.7553  0.0881  0.5629
17560SOL    HW253782   8.077   8.962   0.696  0.1776 -0.0738  0.1061
17561SOL     OW53783   0.942   1.851   8.553 -0.5487  0.3864  0.5725
17561SOL    HW153784   0.848   1.862   8.536 -0.7605 -0.5003  1.1157
17561SOL    HW253785   0.946   1.805   8.636  0.3357 -0.7964 -0.1044
17562SOL     OW53786   9.114   5.945   6.480  0.1333  0.4904  0.5486
17562SOL    HW153787   9.155   5.859   6.469 -0.3263  0.1073  1.6527
17562SOL    HW253788   9.122   5.964   6.573 -0.6833  1.1785  0.4958
17563SOL     OW53789   4.061   0.779   2.538 -0.7874  0.8766 -0.3697
17563SOL    HW153790   3.969   0.797   2.558 -0.6112  1.4463 -0.0288
17563SOL    HW253791   4.081   0.698   2.584 -0.6742  1.6289  0.9497
17564SOL     OW53792   3.279   0.882   2.831 -0.4727  0.0315  0.0402
17564SOL    HW153793   3.330   0.922   2.760 -0.5927  1.3606  0.6792
17564SOL    HW253794   3.291   0.941   2.905 -0.5225 -1.2289  1.0773
17565SOL     OW53795   5.634   2.830   1.359  0.2795  0.1495  0.9484
17565SOL    HW153796   5.696   2.760   1.336 -0.3144 -0.1715  0.2793
17565SOL    HW253797   5.579   2.839   1.281 -0.8137  0.0979  1.6972
17566SOL     OW53798   4.123   7.970   4.959  0.1416 -0.1811  0.2571
17566SOL    HW153799   4.207   7.987   4.914  0.0432 -0.6450 -0.1084
17566SOL    HW253800   4.090   8.057   4.981 -0.6317  0.1897 -2.0968
17567SOL     OW53801   1.967   0.396   3.926 -0.5445  0.1204  0.2913
17567SOL    HW153802   2.009   0.472   3.966  0.4185 -0.8844  1.2818
17567SOL    HW253803   2.040   0.337   3.906 -1.3804 -1.2433  1.0969
17568SOL     OW53804   5.713   6.611   0.434  0.0175  0.6052 -0.5658
17568SOL    HW153805   5.725   6.703   0.455 -0.1494  0.6196 -0.5311
17568SOL    HW253806   5.796   6.570   0.457 -0.0603  0.6707 -0.1547
17569SOL     OW53807   4.722   1.088   8.346  0.0481 -0.2850 -0.0287
17569SOL    HW153808   4.678   1.116   8.426 -0.0419  1.0433 -0.5199
17569SOL    HW253809   4.810   1.063   8.375 -0.1661 -0.3614  0.5704
17570SOL     OW53810   6.401   4.265   3.067  0.3109 -0.3893 -0.0823
17570SOL    HW153811   6.329   4.216   3.027 -1.6519  1.7493  0.6427
17570SOL    HW253812   6.360   4.314   3.138  2.8999 -0.6662  1.7476
17571SOL     OW53813   3.273   2.535   6.851  0.2030  0.4318  0.2315
17571SOL    HW153814   3.182   2.530   6.821  0.0470  0.0142  0.7479
17571SOL    HW253815   3.320   2.578   6.780 -0.7533  2.4018  0.7256
17572SOL     OW53816   7.454   3.345   1.518 -0.1700  0.0443 -0.2768
17572SOL    HW153817   7.497   3.262   1.498  3.1170  1.5414 -0.0457
17572SOL    HW253818   7.412   3.330   1.603  0.3608 -1.3697 -0.2290
17573SOL     OW53819   3.195   8.260   3.530  0.1761 -0.7656  0.2155
17573SOL    HW153820   3.144   8.337   3.505  1.4365  0.8273  2.2921
17573SOL    HW253821   3.130   8.200   3.567 -0.5648  0.0959  0.3482
17574SOL     OW53822   5.247   4.674   1.966  0.1004  0.6646 -0.5603
17574SOL    HW153823   5.194   4.620   2.024  1.6904 -1.6725 -1.1157
17574SOL    HW253824   5.245   4.761   2.005 -3.0878  0.4305  0.0640
17575SOL     OW53825   8.741   3.414   0.975  0.1327 -0.2894  0.0136
17575SOL    HW153826   8.656   3.447   1.004 -0.0918  0.2664 -1.2158
17575SOL    HW253827   8.790   3.400   1.056 -0.6903  0.5759  0.6854
17576SOL     OW53828   4.942   4.930   3.357  0.1772 -0.4525 -0.4869
17576SOL    HW153829   4.852   4.962   3.348  0.5873  1.0958  0.5211
17576SOL    HW253830   4.948   4.898   3.447  0.9083  0.4213 -0.2089
17577SOL     OW53831   6.856   6.152   5.584 -0.0754 -0.0926  0.1877
17577SOL    HW153832   6.832   6.080   5.642 -0.2700 -0.4367 -0.3182
17577SOL    HW253833   6.776   6.205   5.577 -0.8531 -1.4349 -1.7861
17578SOL     OW53834   7.811   1.795   3.210  0.1880 -0.2110 -0.1284
17578SOL    HW153835   7.835   1.786   3.118  1.0807 -0.4240  0.1236
17578SOL    HW253836   7.894   1.809   3.256 -0.3056  0.5809  0.5648
17579SOL     OW53837   9.017   0.515   3.766 -0.3442  0.0277  0.1235
17579SOL    HW153838   9.049   0.426   3.758  0.8195  0.5668 -1.5937
17579SOL    HW253839   8.922   0.506   3.776 -0.3458 -1.3696 -0.9532
17580SOL     OW53840   3.312   6.415   4.934 -0.1471 -0.3227  0.3201
17580SOL    HW153841   3.223   6.409   4.897 -0.9963 -1.7062  2.3878
17580SOL    HW253842   3.312   6.497   4.983  0.5445  0.8365 -1.4899
17581SOL     OW53843   8.363   6.346   5.007 -0.2650 -0.1568  0.2417
17581SOL    HW153844   8.273   6.345   5.040 -0.7196  0.0464 -0.9340
17581SOL    HW253845   8.396   6.433   5.029 -0.4475 -0.1354  0.4357
17582SOL     OW53846   2.583   8.056   2.357 -0.2604 -0.2538 -0.0515
17582SOL    HW153847   2.563   8.137   2.311  0.1744 -0.3750 -0.4677
17582SOL    HW253848   2.655   8.017   2.307  0.8362  0.0421  1.2253
17583SOL     OW53849   8.446   0.836   4.971  0.0080 -0.9430  0.7618
17583SOL    HW153850   8.407   0.749   4.968  0.1097 -1.0597  2.1427
17583SOL    HW253851   8.371   0.895   4.981 -0.0213 -0.9151  0.3820
17584SOL     OW53852   1.917   0.790   4.743  0.5598  0.0233 -0.5765
17584SOL    HW153853   1.860   0.764   4.670 -0.1928 -0.8374  0.2886
17584SOL    HW253854   1.999   0.743   4.726  0.4527 -0.0326 -0.9561
17585SOL     OW53855   7.847   6.969   0.584  0.1954 -0.7855 -0.3055
17585SOL    HW153856   7.801   6.932   0.509 -0.7537  1.4262 -0.8896
17585SOL    HW253857   7.873   7.056   0.556 -2.2829  1.1137  2.5695
17586SOL     OW53858   1.481   3.087   6.917 -0.3792 -0.4756 -0.4062
17586SOL    HW153859   1.501   3.002   6.956  0.2814 -0.1385  0.0097
17586SOL    HW253860   1.414   3.124   6.975  0.2354 -0.1910  0.1390
17587SOL     OW53861   1.496   5.589   0.086  0.1546  0.2278  0.1764
17587SOL    HW153862   1.445   5.652   0.035 -0.8701 -0.0411  0.8344
17587SOL    HW253863   1.513   5.633   0.169  1.6768  0.6031 -0.3069
17588SOL     OW53864   2.534   0.162   1.088 -0.7618  0.0655  0.2405
17588SOL    HW153865   2.450   0.119   1.104 -1.7606  0.4823 -3.1909
17588SOL    HW253866   2.564   0.127   1.005  1.5109  1.4163  0.3987
17589SOL     OW53867   7.801   4.214   2.935 -0.2464  0.1515  0.6233
17589SOL    HW153868   7.861   4.286   2.955 -0.0796 -0.1631  1.2726
17589SOL    HW253869   7.715   4.254   2.931  0.0130  0.6516 -0.5317
17590SOL     OW53870   0.919   6.774   4.445 -0.2169 -0.0369  0.0636
17590SOL    HW153871   0.954   6.686   4.430 -1.0420 -0.3591 -0.0801
17590SOL    HW253872   0.833   6.759   4.485  1.2010  0.7845  3.7762
17591SOL     OW53873   3.516   1.800   7.495 -0.6030 -0.2441 -0.6282
17591SOL    HW153874   3.572   1.845   7.431  0.8862 -0.1190  0.6856
17591SOL    HW253875   3.551   1.827   7.580 -3.4529  0.8293  0.3341
17592SOL     OW53876   6.493   8.058   1.987  0.2206 -0.0090 -0.2121
17592SOL    HW153877   6.558   8.044   2.056  0.2423 -0.9124 -0.4081
17592SOL    HW253878   6.542   8.046   1.906 -0.0594 -0.0832 -0.3706
17593SOL     OW53879   1.495   6.108   7.625  0.1961 -0.0847 -0.2927
17593SOL    HW153880   1.451   6.025   7.608 -0.0019 -0.0989  0.2508
17593SOL    HW253881   1.492   6.117   7.720  1.3842 -0.0831 -0.2450
17594SOL     OW53882   7.787   7.049   7.419 -0.0202 -0.2369 -0.3602
17594SOL    HW153883   7.696   7.079   7.422 -0.5022 -1.3384 -1.9912
17594SOL    HW253884   7.836   7.123   7.384 -0.4539  0.0770 -0.3099
17595SOL     OW53885   2.550   4.018   6.453  0.0781  0.2953  0.2851
17595SOL    HW153886   2.595   4.102   6.443  0.9453  0.3099  3.4300
17595SOL    HW253887   2.615   3.960   6.491 -1.5299 -0.7200  1.6382
17596SOL     OW53888   3.076   0.964   3.127 -0.2730 -0.4431  0.2200
17596SOL    HW153889   3.162   0.968   3.169  0.1656 -1.0352 -0.6116
17596SOL    HW253890   3.092   0.989   3.036 -1.1240  0.2569  0.2484
17597SOL     OW53891   0.831   1.532   2.537 -0.4101 -0.4560 -0.3690
17597SOL    HW153892   0.829   1.441   2.566 -1.2433 -0.4843 -0.4866
17597SOL    HW253893   0.917   1.541   2.494  0.0671 -0.9118  0.4678
17598SOL     OW53894   2.679   1.924   1.519 -0.3074 -0.3347 -0.1039
17598SOL    HW153895   2.692   1.972   1.601  1.6011  0.2951 -0.7311
17598SOL    HW253896   2.713   1.836   1.538  0.1971 -0.1694 -0.2267
17599SOL     OW53897   2.403   6.712   4.744 -0.3527 -0.3370 -0.6223
17599SOL    HW153898   2.375   6.768   4.816  0.1100  2.1385 -2.2075
17599SOL    HW253899   2.458   6.645   4.785  0.2728  1.2405  1.2793
17600SOL     OW53900   7.547   7.228   3.749 -0.6061 -0.2113  0.2863
17600SOL    HW153901   7.542   7.150   3.694 -0.5936 -0.6200  0.8548
17600SOL    HW253902   7.585   7.295   3.692  0.3418 -0.8937  0.0827
17601SOL     OW53903   6.972   4.238   9.071 -0.2201  0.5502  0.2062
17601SOL    HW153904   7.062   4.249   9.102  0.3720 -1.2238 -0.7972
17601SOL    HW253905   6.977   4.253   8.977 -0.9609  0.3284  0.1277
17602SOL     OW53906   9.074   4.408   4.383  0.4010  0.2324  0.0627
17602SOL    HW153907   9.087   4.424   4.476 -0.4908 -0.4064  0.3052
17602SOL    HW253908   9.155   4.366   4.354 -0.8865 -3.7050  1.5402
17603SOL     OW53909   4.998   0.373   5.200  0.0881  0.2757 -0.0481
17603SOL    HW153910   5.088   0.350   5.176  0.6349  1.3966  0.8513
17603SOL    HW253911   4.945   0.307   5.156  1.4371 -1.3713  0.6606
17604SOL     OW53912   1.280   4.408   3.348 -0.3116  0.0641 -0.0557
17604SOL    HW153913   1.352   4.470   3.333  0.4161 -0.7771 -0.1036
17604SOL    HW253914   1.298   4.369   3.433 -1.2214  0.5046  0.3566
17605SOL     OW53915   5.342   2.976   8.774 -0.4699 -0.4099  0.1669
17605SOL    HW153916   5.418   2.981   8.832  0.9467 -1.3286 -1.4833
17605SOL    HW253917   5.327   3.066   8.745 -0.2839 -0.1605  0.8375
17606SOL     OW53918   5.919   9.023   0.969  0.3724 -0.1699  0.4331
17606SOL    HW153919   5.872   8.942   0.951  0.0684 -0.4867  2.4390
17606SOL    HW253920   5.857   9.093   0.949  1.2650 -0.2046 -3.2762
17607SOL     OW53921   7.621   8.579   5.734 -0.0145 -0.2986  0.4058
17607SOL    HW153922   7.625   8.653   5.795  0.3898 -1.4279  1.7950
17607SOL    HW253923   7.704   8.533   5.747 -1.3992 -2.5896  1.6623
17608SOL     OW53924   7.701   6.558   7.449  0.7220  0.3302  0.1895
17608SOL    HW153925   7.759   6.573   7.524  1.5663  0.9663 -0.5710
17608SOL    HW253926   7.760   6.537   7.377 -0.0472  0.2934 -0.4414
17609SOL     OW53927   2.355   2.007   8.030  0.3423  0.1073  0.2592
17609SOL    HW153928   2.307   2.000   8.113  1.0487  0.0429  0.6717
17609SOL    HW253929   2.407   1.927   8.025  0.8910  0.4644  0.1346
17610SOL     OW53930   8.754   5.332   2.089  0.1674 -0.0801  0.2684
17610SOL    HW153931   8.815   5.277   2.041  2.0755  2.0733  0.0697
17610SOL    HW253932   8.685   5.353   2.025 -1.4490 -3.2851  0.7648
17611SOL     OW53933   0.085   7.781   3.884  0.0094  0.0775 -0.0794
17611SOL    HW153934   0.106   7.748   3.796 -1.9950  1.5078 -1.1695
17611SOL    HW253935  -0.009   7.797   3.882 -0.4539 -1.5484  2.9759
17612SOL     OW53936   5.918   2.508   7.797  0.2082 -0.0374 -0.0621
17612SOL    HW153937   5.880   2.585   7.754  2.9123 -0.0679 -2.8506
17612SOL    HW253938   5.878   2.507   7.884 -2.4971  2.4948 -1.1082
17613SOL     OW53939   1.730   8.240   4.766  0.0522 -0.3947  0.6954
17613SOL    HW153940   1.765   8.252   4.854 -1.1708  3.0666  0.8569
17613SOL    HW253941   1.635   8.244   4.778 -0.2807 -2.7538 -0.5297
17614SOL     OW53942   7.129   8.973   3.919 -0.4412  0.5758  0.1895
17614SOL    HW153943   7.068   8.900   3.915 -1.1366  1.2161 -1.6842
17614SOL    HW253944   7.201   8.940   3.973 -0.1858 -1.9412 -1.4969
17615SOL     OW53945   2.326   1.383   5.871 -0.0099  0.1873  0.0602
17615SOL    HW153946   2.278   1.379   5.788 -0.2392  1.8567  0.0862
17615SOL    HW253947   2.283   1.317   5.926 -1.3884  0.6603 -0.3874
17616SOL     OW53948   7.484   6.491   7.760  0.1134  0.6226 -0.3681
17616SOL    HW153949   7.397   6.529   7.749 -0.2051 -0.5529 -2.6128
17616SOL    HW253950   7.474   6.400   7.732  2.0399  0.4328 -0.5983
17617SOL     OW53951   7.425   1.204   4.492 -0.2922  0.0278  0.3462
17617SOL    HW153952   7.502   1.197   4.436 -1.9183 -2.5949 -1.8447
17617SOL    HW253953   7.458   1.196   4.581  1.9523 -1.0952 -0.5249
17618SOL     OW53954   5.447   5.589   0.527 -0.0411  0.2373  0.3179
17618SOL    HW153955   5.494   5.589   0.611 -1.2420 -0.5560  1.0197
17618SOL    HW253956   5.397   5.670   0.527  0.2911  0.4472  0.1579
17619SOL     OW53957   0.016   0.431   1.094 -0.0733  0.4545  0.4753
17619SOL    HW153958  -0.032   0.514   1.090  0.8149  0.9586 -2.0522
17619SOL    HW253959   0.075   0.441   1.168  1.0302  2.7615 -0.5948
17620SOL     OW53960   0.745   6.280   7.784  0.1179 -0.0834  0.2626
17620SOL    HW153961   0.678   6.330   7.831  0.0820  0.0998  0.0160
17620SOL    HW253962   0.722   6.189   7.800  0.4657 -0.0322  1.1220
17621SOL     OW53963   0.321   7.884   8.491 -0.0575 -0.2982  0.4714
17621SOL    HW153964   0.315   7.907   8.584 -0.2054 -0.7195  0.5650
17621SOL    HW253965   0.347   7.966   8.449  1.8101 -0.5168  1.0975
17622SOL     OW53966   1.619   3.538   5.897 -0.2671 -0.1347 -0.1809
17622SOL    HW153967   1.593   3.608   5.957  2.2113  0.7335 -0.0417
17622SOL    HW253968   1.556   3.545   5.825 -0.7041  1.5968  0.3068
17623SOL     OW53969   1.428   3.497   5.160  0.1699 -0.2852 -0.4362
17623SOL    HW153970   1.408   3.403   5.165 -1.7661  0.0059 -1.6619
17623SOL    HW253971   1.351   3.540   5.196  1.3964  0.8560  0.9270
17624SOL     OW53972   8.986   0.528   5.529 -0.3465 -0.4690 -0.2615
17624SOL    HW153973   8.961   0.612   5.489 -1.3055 -1.9079 -2.9022
17624SOL    HW253974   9.081   0.534   5.538 -0.3996  0.9290 -0.3082
17625SOL     OW53975   6.672   3.616   5.539 -0.2829  0.5906 -0.1665
17625SOL    HW153976   6.600   3.563   5.504  0.3841  0.1988 -0.9695
17625SOL    HW253977   6.653   3.622   5.633 -2.0124  1.5297 -0.5405
17626SOL     OW53978   8.882   9.093   0.046 -0.2862  0.7806  0.8549
17626SOL    HW153979   8.841   9.177   0.065 -0.5145  0.9172 -0.1815
17626SOL    HW253980   8.971   9.115   0.018  0.7552  0.4495  3.6431
17627SOL     OW53981   0.239   7.560   1.653 -0.0760  0.4448  0.1966
17627SOL    HW153982   0.238   7.648   1.690 -1.0706  1.6397 -2.4157
17627SOL    HW253983   0.180   7.510   1.710 -1.0641  1.9881  0.5851
17628SOL     OW53984   3.224   8.124   3.968  0.0835  0.4869  0.4593
17628SOL    HW153985   3.190   8.075   4.044 -1.0893 -0.1195 -0.4230
17628SOL    HW253986   3.299   8.073   3.938  0.8378  0.9665  1.4468
17629SOL     OW53987   4.779   0.370   0.375  0.4586  0.0256 -0.5134
17629SOL    HW153988   4.749   0.290   0.418  0.1424 -0.2578 -1.2544
17629SOL    HW253989   4.818   0.340   0.293 -1.4749  0.7844 -1.7535
17630SOL     OW53990   2.603   6.861   7.789 -0.0485  0.2421  0.2510
17630SOL    HW153991   2.671   6.797   7.811 -2.2492 -2.2440  0.3338
17630SOL    HW253992   2.632   6.900   7.707  2.0206  0.1651  0.8787
17631SOL     OW53993   4.637   9.044   5.364  0.6184  0.4025  0.3391
17631SOL    HW153994   4.624   8.967   5.418  0.0239  1.2775  1.5006
17631SOL    HW253995   4.730   9.044   5.343  0.4208 -1.2706 -0.7387
17632SOL     OW53996   7.864   5.399   3.079 -0.5438  0.4317  0.0182
17632SOL    HW153997   7.772   5.372   3.070 -0.3726 -0.2172  0.1628
17632SOL    HW253998   7.861   5.471   3.142 -0.8097 -0.4879  1.0920
17633SOL     OW53999   1.827   4.117   7.918 -0.2318  0.2699 -0.0715
17633SOL    HW154000   1.816   4.143   7.826 -0.8530 -2.2809 -0.7808
17633SOL    HW254001   1.877   4.036   7.914 -1.2866 -0.5150  1.7637
17634SOL     OW54002   8.388   8.989   3.729 -0.9045 -0.5682  0.3586
17634SOL    HW154003   8.300   8.964   3.759 -1.7505 -0.0166 -1.5308
17634SOL    HW254004   8.384   9.084   3.721 -0.4565 -0.6278 -0.6549
17635SOL     OW54005   2.269   0.661   7.230  0.2302 -0.1214 -0.8024
17635SOL    HW154006   2.234   0.666   7.141 -0.9830 -0.4175 -0.3577
17635SOL    HW254007   2.209   0.603   7.276  0.4779  0.5535  0.3920
17636SOL     OW54008   6.177   5.527   0.189 -0.1632 -1.1684 -0.6116
17636SOL    HW154009   6.259   5.480   0.173 -0.6824 -2.8857  1.4001
17636SOL    HW254010   6.109   5.467   0.159 -0.7523 -0.4957 -0.6326
17637SOL     OW54011   5.794   0.179   3.264 -0.2605  0.5575 -0.1729
17637SOL    HW154012   5.742   0.118   3.211 -1.2913  0.8720  0.4392
17637SOL    HW254013   5.743   0.260   3.263 -0.9367  0.2484  2.2436
17638SOL     OW54014   0.176   0.566   6.663  0.3974 -0.1117 -0.0119
17638SOL    HW154015   0.203   0.476   6.679 -1.4142 -0.8533 -0.8210
17638SOL    HW254016   0.157   0.568   6.569 -1.3646  0.5740  0.3301
17639SOL     OW54017   3.172   5.279   6.672 -0.2278  0.3597 -0.2879
17639SOL    HW154018   3.148   5.372   6.673 -0.2488  0.3540 -0.2743
17639SOL    HW254019   3.216   5.267   6.588 -1.5770  0.0453 -0.9758
17640SOL     OW54020   5.797   5.841   1.135  0.2013 -0.0158  0.9517
17640SOL    HW154021   5.797   5.910   1.202 -0.6049  0.7438  0.2075
17640SOL    HW254022   5.706   5.837   1.106  0.7216  0.4918 -0.9012
17641SOL     OW54023   2.825   5.313   2.018  0.1709  0.4228 -0.1218
17641SOL    HW154024   2.813   5.405   1.997  2.9307  0.6933 -0.8510
17641SOL    HW254025   2.872   5.313   2.102  1.1400 -0.2592 -0.6465
17642SOL     OW54026   0.012   7.629   3.055  0.6872 -0.0035 -0.4339
17642SOL    HW154027  -0.014   7.611   2.964  0.0794 -0.0848 -0.2518
17642SOL    HW254028  -0.067   7.663   3.096  1.0640  0.3971 -0.0287
17643SOL     OW54029   5.174   8.050   6.762 -0.0341 -0.0428  0.3778
17643SOL    HW154030   5.088   8.026   6.794  0.5373 -0.0997  1.9492
17643SOL    HW254031   5.193   7.986   6.693 -0.8780 -0.5586  0.6172
17644SOL     OW54032   2.004   1.435   7.741 -0.1156 -0.0679 -0.6207
17644SOL    HW154033   2.018   1.441   7.647 -0.3341 -1.4132 -0.7516
17644SOL    HW254034   2.017   1.343   7.762  1.6463  0.4656  0.9622
17645SOL     OW54035   5.866   0.464   4.733  0.2491 -0.0256  0.7052
17645SOL    HW154036   5.897   0.546   4.695  0.0651 -0.1157  0.3598
17645SOL    HW254037   5.873   0.400   4.662 -0.7858 -0.0348  0.5990
17646SOL     OW54038   8.428   3.186   3.364 -0.1454  0.3544 -0.5142
17646SOL    HW154039   8.483   3.118   3.326 -1.8013 -1.2413 -0.1850
17646SOL    HW254040   8.472   3.211   3.445 -0.5404 -1.8914  0.4586
17647SOL     OW54041   7.580   5.200   0.320 -0.1158 -0.0829  0.2867
17647SOL    HW154042   7.508   5.206   0.257 -0.0212 -1.0163  0.0705
17647SOL    HW254043   7.658   5.223   0.270 -0.3705  2.1810  0.8229
17648SOL     OW54044   3.808   8.854   9.046  0.2581  0.5711 -0.0762
17648SOL    HW154045   3.898   8.838   9.074  0.2618  0.9506  0.1283
17648SOL    HW254046   3.803   8.948   9.032 -0.2464  0.6201  0.3964
17649SOL     OW54047   8.405   1.912   3.659 -0.2198 -0.1072 -0.3749
17649SOL    HW154048   8.407   1.992   3.711 -1.1246 -1.3373  1.6912
17649SOL    HW254049   8.312   1.894   3.645 -0.0838 -1.3230  0.1144
17650SOL     OW54050   0.277   5.590   5.413  0.6100 -0.2852 -0.1694
17650SOL    HW154051   0.367   5.595   5.381  0.0253 -1.8708 -2.2352
17650SOL    HW254052   0.276   5.514   5.471  0.9087  0.6181  1.0515
17651SOL     OW54053   3.063   4.653   5.754  0.1322  0.0070 -0.2566
17651SOL    HW154054   3.007   4.730   5.769  1.5115  0.9036  0.5385
17651SOL    HW254055   3.137   4.666   5.813  1.0151 -1.3246 -1.0216
17652SOL     OW54056   6.582   5.430   3.579  0.3060 -0.0354  0.1069
17652SOL    HW154057   6.513   5.400   3.638  1.0055 -0.4229  0.7416
17652SOL    HW254058   6.611   5.514   3.616  1.1799 -0.5802  0.7027
17653SOL     OW54059   2.021   3.551   4.109  0.4190 -0.4859 -0.1706
17653SOL    HW154060   2.110   3.548   4.143  0.5842  0.4658 -0.4824
17653SOL    HW254061   1.965   3.540   4.186  0.7878 -2.1744 -0.1052
17654SOL     OW54062   3.199   5.100   0.035 -1.2694 -0.1956 -0.2921
17654SOL    HW154063   3.189   5.162   0.107  0.6427  0.4972 -0.5695
17654SOL    HW254064   3.127   5.121  -0.025 -0.6168  1.8514 -0.4220
17655SOL     OW54065   7.243   2.101   5.118  0.6095  0.3340 -0.5157
17655SOL    HW154066   7.194   2.172   5.077 -1.1954 -0.5231  0.0281
17655SOL    HW254067   7.264   2.133   5.206  0.7421  0.6033 -0.6482
17656SOL     OW54068   7.868   5.283   0.218 -0.5713 -0.5856  0.4007
17656SOL    HW154069   7.934   5.343   0.252  0.0441 -0.5577 -0.8187
17656SOL    HW254070   7.847   5.315   0.131 -0.9625 -1.5582  0.1176
17657SOL     OW54071   8.579   4.493   1.306 -0.8282  0.2776  0.5413
17657SOL    HW154072   8.505   4.455   1.259 -1.1002  1.7233 -0.2417
17657SOL    HW254073   8.640   4.420   1.318 -1.2827 -0.3978 -1.0110
17658SOL     OW54074   0.340   6.251   2.705  0.0858  0.0683 -0.5095
17658SOL    HW154075   0.245   6.260   2.713  0.1140  0.3697 -0.4903
17658SOL    HW254076   0.368   6.334   2.665  0.4429  0.3507  0.3141
17659SOL     OW54077   4.216   7.709   8.019  0.0910 -0.6605  0.0876
17659SOL    HW154078   4.122   7.726   8.011  0.3344  1.1678  0.6364
17659SOL    HW254079   4.241   7.752   8.101  1.4036 -1.2419  0.0246
17660SOL     OW54080   8.678   5.866   2.453  0.3079 -0.2084 -0.3108
17660SOL    HW154081   8.727   5.907   2.381  0.3323  0.7551  0.2316
17660SOL    HW254082   8.586   5.886   2.433  0.2701 -0.4488 -0.3791
17661SOL     OW54083   2.251   7.818   5.542 -0.4068  0.0459  0.0182
17661SOL    HW154084   2.336   7.860   5.540  0.4002 -1.5245 -0.9208
17661SOL    HW254085   2.240   7.792   5.634 -0.6920  1.7479  0.5005
17662SOL     OW54086   4.008   5.975   8.808  0.4972  0.5148  0.2058
17662SOL    HW154087   3.978   6.054   8.763 -0.0330  0.1514 -0.0822
17662SOL    HW254088   3.997   5.995   8.901 -1.2389  0.1697  0.1027
17663SOL     OW54089   1.639   7.031   2.023 -0.3377  0.0258 -0.0075
17663SOL    HW154090   1.653   6.998   2.112 -1.6028 -0.4839  0.0260
17663SOL    HW254091   1.722   7.071   1.999  0.0365  0.1550  1.3992
17664SOL     OW54092   7.759   0.663   3.303 -0.2730 -0.4904 -0.0613
17664SOL    HW154093   7.744   0.569   3.291  2.9797 -1.5229  2.6849
17664SOL    HW254094   7.844   0.679   3.263  0.4688  0.6276  1.8351
17665SOL     OW54095   8.717   1.167   3.547 -0.5251 -0.4626  0.0317
17665SOL    HW154096   8.697   1.130   3.462  4.6121 -1.3058 -1.1289
17665SOL    HW254097   8.729   1.261   3.530  2.0073 -0.8447 -0.6881
17666SOL     OW54098   5.160   3.426   3.887  0.8906 -0.5959 -0.2951
17666SOL    HW154099   5.112   3.396   3.810 -1.2389  0.4932  0.5209
17666SOL    HW254100   5.092   3.444   3.952  2.6231 -3.2585  2.5926
17667SOL     OW54101   5.841   4.645   0.326 -0.0162  0.0619 -0.1705
17667SOL    HW154102   5.780   4.702   0.278 -0.2741 -0.8998 -1.0201
17667SOL    HW254103   5.784   4.585   0.375  0.2018  1.9880  2.6455
17668SOL     OW54104   6.231   8.164   0.394 -0.3761 -0.1717 -0.3097
17668SOL    HW154105   6.195   8.096   0.337 -1.1742  0.2288 -0.2936
17668SOL    HW254106   6.311   8.192   0.349 -1.9980  1.5596 -2.3428
17669SOL     OW54107   5.523   6.542   4.789  0.1105  0.3540 -0.3751
17669SOL    HW154108   5.519   6.447   4.789 -0.9353  0.3923 -0.4736
17669SOL    HW254109   5.446   6.570   4.840 -0.1886  1.1641 -1.2462
17670SOL     OW54110   1.456   8.239   4.793 -0.5002 -0.4203  0.2236
17670SOL    HW154111   1.423   8.171   4.851 -1.5307 -0.4994 -0.4317
17670SOL    HW254112   1.426   8.212   4.706 -0.3728  0.5386 -0.1230
17671SOL     OW54113   1.738   8.580   7.631  0.6180 -0.0005 -0.0498
17671SOL    HW154114   1.825   8.590   7.670 -0.0708 -1.4409  2.0573
17671SOL    HW254115   1.685   8.648   7.673  0.2287 -0.5926  0.4520
17672SOL     OW54116   2.126   2.233   8.603 -0.4953  0.0642 -0.3451
17672SOL    HW154117   2.086   2.317   8.626 -1.8292 -0.5275 -0.4197
17672SOL    HW254118   2.213   2.236   8.644 -1.1687  0.7869  1.1183
17673SOL     OW54119   5.907   5.223   2.829 -0.3102  0.2205  0.2230
17673SOL    HW154120   5.968   5.204   2.758 -0.5984 -0.8477  0.2337
17673SOL    HW254121   5.959   5.211   2.909 -0.5587 -0.9131  0.2391
17674SOL     OW54122   0.683   7.005   0.079  0.0600  0.3089  0.1714
17674SOL    HW154123   0.653   7.039   0.163  0.7676  1.5419 -0.0469
17674SOL    HW254124   0.620   7.039   0.015 -0.3851 -0.4926  0.1800
17675SOL     OW54125   6.025   3.504   7.129 -0.1908 -0.2193 -0.7171
17675SOL    HW154126   5.974   3.467   7.057 -2.2440 -1.6951  1.3547
17675SOL    HW254127   5.983   3.588   7.148 -0.8629 -0.6993 -0.0460
17676SOL     OW54128   1.410   2.854   5.533 -0.0546  0.2958  0.0468
17676SOL    HW154129   1.349   2.821   5.600  0.6388  1.5128  1.3256
17676SOL    HW254130   1.427   2.778   5.477  0.7255 -1.3130  2.3073
17677SOL     OW54131   8.385   3.857   1.729  0.0095 -0.0148  0.2356
17677SOL    HW154132   8.382   3.816   1.816 -1.1889 -2.0973 -0.7195
17677SOL    HW254133   8.320   3.927   1.733 -1.7447 -1.5696  0.3757
17678SOL     OW54134   3.549   4.731   0.600 -0.0931  0.5980  0.1246
17678SOL    HW154135   3.505   4.770   0.525  0.7753  0.5015 -0.4546
17678SOL    HW254136   3.554   4.637   0.579 -0.3116  0.4899  0.5434
17679SOL     OW54137   2.825   8.957   1.794  0.2139 -0.0855 -0.1224
17679SOL    HW154138   2.807   8.922   1.881 -1.3468 -1.7730 -1.0554
17679SOL    HW254139   2.751   9.015   1.775  1.2572  1.4171  0.1846
17680SOL     OW54140   3.362   3.031   0.713 -0.6855 -0.0169  0.0916
17680SOL    HW154141   3.366   2.983   0.795 -0.0890  0.9057  0.6249
17680SOL    HW254142   3.279   3.004   0.673 -2.3326  1.5192  2.2531
17681SOL     OW54143   6.572   0.180   3.191  0.1184 -1.1754  0.0429
17681SOL    HW154144   6.536   0.129   3.264 -0.9441 -1.0660 -0.3897
17681SOL    HW254145   6.541   0.269   3.207 -0.1830 -1.1648 -0.5786
17682SOL     OW54146   5.039   3.935   8.239 -0.0970  0.2012 -0.4009
17682SOL    HW154147   5.049   3.979   8.154  0.0865  0.5185 -0.2140
17682SOL    HW254148   5.094   3.985   8.299 -0.5704  0.2371  0.0025
17683SOL     OW54149   5.712   4.646   6.760  0.0231  0.0574 -0.2116
17683SOL    HW154150   5.764   4.725   6.778  0.3871  0.1843 -1.6732
17683SOL    HW254151   5.748   4.580   6.819  0.4072  0.7041  0.2996
17684SOL     OW54152   5.352   8.555   1.653  0.5275  0.1619 -0.3662
17684SOL    HW154153   5.354   8.650   1.660 -0.9335  0.2950 -1.4492
17684SOL    HW254154   5.266   8.530   1.685  1.3906 -0.9695  1.2582
17685SOL     OW54155   7.294   5.193   1.996 -0.5783 -0.3507 -0.1735
17685SOL    HW154156   7.230   5.256   2.029 -1.5687 -1.0863 -0.6382
17685SOL    HW254157   7.262   5.169   1.909  1.9053  1.4467 -1.7057
17686SOL     OW54158   8.533   4.755   6.228  0.2267 -0.2633 -0.0601
17686SOL    HW154159   8.561   4.767   6.318  0.9670  0.1037 -0.3256
17686SOL    HW254160   8.516   4.843   6.196 -0.4461 -0.4255 -0.1503
17687SOL     OW54161   6.974   6.066   2.175  0.0242 -0.0066  0.3087
17687SOL    HW154162   7.019   5.985   2.197  1.2840  0.4678 -0.4016
17687SOL    HW254163   6.911   6.041   2.107  2.1304 -0.0330 -1.7584
17688SOL     OW54164   8.536   8.361   8.882 -0.4712  0.2483 -0.8422
17688SOL    HW154165   8.549   8.301   8.955 -1.5377 -1.0341 -1.6681
17688SOL    HW254166   8.471   8.318   8.826 -1.6217  2.3525 -1.2468
17689SOL     OW54167   5.662   4.320   1.476 -0.4282  0.1371  0.1985
17689SOL    HW154168   5.606   4.287   1.546 -0.6385 -1.2757 -0.6030
17689SOL    HW254169   5.625   4.285   1.395  0.1230  1.2916 -0.5952
17690SOL     OW54170   7.862   2.041   6.809  0.4042 -0.3498  0.7488
17690SOL    HW154171   7.913   2.116   6.840 -0.2669 -0.1636  1.4385
17690SOL    HW254172   7.893   1.967   6.862  0.3969 -0.3664  0.7299
17691SOL     OW54173   2.799   2.736   0.700  0.4704  0.4667  0.3853
17691SOL    HW154174   2.725   2.716   0.643  0.0035  1.1988  0.7192
17691SOL    HW254175   2.873   2.744   0.641 -0.1729  2.1727 -0.2816
17692SOL     OW54176   1.328   7.124   7.975  0.7400 -0.7359  0.5489
17692SOL    HW154177   1.393   7.183   8.014  0.9312 -0.3903 -0.2848
17692SOL    HW254178   1.253   7.181   7.956  0.0248 -1.1955  1.8431
17693SOL     OW54179   4.185   3.929   4.209 -0.2757 -0.2024  0.0631
17693SOL    HW154180   4.253   3.957   4.147 -0.1300 -1.7084 -0.4955
17693SOL    HW254181   4.110   3.984   4.188  0.1912  0.2204 -0.5575
17694SOL     OW54182   8.940   3.738   5.138  0.6290 -0.2191 -0.1041
17694SOL    HW154183   8.943   3.828   5.173 -1.5429 -0.6457  1.3763
17694SOL    HW254184   9.018   3.696   5.174  0.8996  0.6704  0.3898
17695SOL     OW54185   2.592   0.334   3.813 -0.8877 -1.1473 -0.1592
17695SOL    HW154186   2.590   0.248   3.854 -0.3788 -0.4720  1.3634
17695SOL    HW254187   2.545   0.391   3.873 -0.0879 -0.1040 -0.4736
17696SOL     OW54188   8.139   0.470   3.950 -0.2617 -0.1704 -0.5618
17696SOL    HW154189   8.180   0.550   3.916  1.6779 -0.8670 -0.0047
17696SOL    HW254190   8.079   0.501   4.018  0.8489  0.8094  0.0123
17697SOL     OW54191   6.920   6.807   4.314 -0.0064  0.2789  0.4199
17697SOL    HW154192   6.978   6.830   4.242  0.4129  0.4718  0.8170
17697SOL    HW254193   6.893   6.891   4.351 -3.2195  0.4271 -1.7989
17698SOL     OW54194   7.096   8.954   1.903 -0.0078  0.1359  0.6410
17698SOL    HW154195   7.118   8.951   1.997  0.9093  0.4877  0.4436
17698SOL    HW254196   7.049   9.037   1.892  1.6157  1.0558  0.4388
17699SOL     OW54197   1.237   8.597   2.317 -0.6032 -0.3308  0.1546
17699SOL    HW154198   1.290   8.518   2.325  0.5204  0.5549  1.9176
17699SOL    HW254199   1.154   8.574   2.359  0.2962 -0.1272  2.1571
17700SOL     OW54200   1.185   0.682   3.620  0.0112 -0.1592 -0.5936
17700SOL    HW154201   1.273   0.667   3.587  0.1731  1.6873 -1.0918
17700SOL    HW254202   1.134   0.609   3.585  0.7762  0.2009 -2.5639
17701SOL     OW54203   6.555   0.702   1.574  0.3167 -0.2504  0.2873
17701SOL    HW154204   6.579   0.613   1.599  0.0166 -0.2729  0.5064
17701SOL    HW254205   6.493   0.730   1.642  0.1855  0.0190  0.0600
17702SOL     OW54206   2.649   8.527   2.205  0.0726  0.0061  0.1815
17702SOL    HW154207   2.601   8.519   2.122 -0.3366  1.6444  0.2233
17702SOL    HW254208   2.741   8.532   2.178 -0.0390  0.2989 -0.1552
17703SOL     OW54209   6.752   6.307   0.251 -0.4188 -0.0168 -0.0589
17703SOL    HW154210   6.718   6.294   0.339 -1.0701  1.3149 -0.0887
17703SOL    HW254211   6.810   6.232   0.236  0.0116 -0.0517  1.6332
17704SOL     OW54212   3.656   8.620   2.474 -0.1834  0.5165  0.0375
17704SOL    HW154213   3.646   8.543   2.418 -0.3844  0.2486  0.4376
17704SOL    HW254214   3.747   8.648   2.460  0.7356 -1.3120  1.7982
17705SOL     OW54215   8.691   0.577   6.158 -0.0306 -0.4503 -1.1098
17705SOL    HW154216   8.694   0.632   6.236 -1.3044  2.8731 -3.1550
17705SOL    HW254217   8.599   0.578   6.131  0.4208 -1.2018 -2.8022
17706SOL     OW54218   1.732   5.414   1.322  0.6475  0.0285  0.1347
17706SOL    HW154219   1.664   5.412   1.254  0.9697 -0.2503 -0.1830
17706SOL    HW254220   1.684   5.430   1.403  0.4501  2.3354 -0.3793
17707SOL     OW54221   8.303   8.188   1.486  0.3025 -0.0361  0.0315
17707SOL    HW154222   8.385   8.208   1.531 -0.8171 -0.1132  2.2996
17707SOL    HW254223   8.243   8.257   1.515 -0.9672 -1.1319  0.1208
17708SOL     OW54224   5.655   6.704   1.681 -0.2360 -0.1504  1.1491
17708SOL    HW154225   5.595   6.665   1.618  1.0231  1.0616 -0.9200
17708SOL    HW254226   5.724   6.638   1.692 -0.5484 -0.4361  1.4092
17709SOL     OW54227   0.554   0.659   1.332 -0.2604  0.4425 -0.0148
17709SOL    HW154228   0.535   0.737   1.280 -0.7373 -0.0334 -0.5639
17709SOL    HW254229   0.641   0.632   1.303 -0.6383  0.0216 -0.7685
17710SOL     OW54230   8.131   8.913   3.812 -0.2971 -0.8972 -0.1197
17710SOL    HW154231   8.055   8.968   3.793  0.3724  0.4331  0.9185
17710SOL    HW254232   8.123   8.891   3.905  1.6881  1.1342  0.6177
17711SOL     OW54233   2.261   5.249   7.816  0.3512 -0.6473 -0.3062
17711SOL    HW154234   2.299   5.337   7.813  2.2805 -1.4367  0.0776
17711SOL    HW254235   2.169   5.263   7.793  0.4462  1.5585  0.3726
17712SOL     OW54236   6.265   0.584   5.680 -0.0666 -0.3256 -0.0142
17712SOL    HW154237   6.191   0.543   5.636  0.4325 -1.2799  0.0034
17712SOL    HW254238   6.309   0.634   5.611 -0.4261 -0.1771 -0.1396
17713SOL     OW54239   1.674   3.075   1.590 -0.2358  0.3966 -0.1981
17713SOL    HW154240   1.670   3.007   1.523 -1.6014 -0.7556  0.9660
17713SOL    HW254241   1.735   3.041   1.655 -0.7455  0.3585  0.2757
17714SOL     OW54242   7.405   3.668   6.772  0.4083 -0.0164  0.1090
17714SOL    HW154243   7.476   3.605   6.780  0.7598  0.5078  1.3657
17714SOL    HW254244   7.445   3.753   6.790  0.1535  0.7395 -2.4990
17715SOL     OW54245   3.874   7.076   7.333  0.2885  0.5869  0.6763
17715SOL    HW154246   3.896   7.045   7.245 -0.1570  0.6405  0.5443
17715SOL    HW254247   3.945   7.042   7.389  0.1588 -0.1120  0.4274
17716SOL     OW54248   3.671   9.091   6.195 -0.1232  1.1608 -0.0414
17716SOL    HW154249   3.735   9.096   6.267 -1.2372 -1.8824  1.3191
17716SOL    HW254250   3.648   8.998   6.190 -1.3443  1.5182 -3.2995
17717SOL     OW54251   7.774   7.318   0.099 -0.6740 -0.4939 -0.5765
17717SOL    HW154252   7.748   7.408   0.122 -1.6696 -0.9879  0.3208
17717SOL    HW254253   7.691   7.273   0.082 -0.2758 -1.5640  0.1932
17718SOL     OW54254   7.735   0.162   0.462 -0.6291 -0.0361 -0.1134
17718SOL    HW154255   7.680   0.105   0.409 -1.9806  0.2698  0.9129
17718SOL    HW254256   7.769   0.227   0.400 -2.4449  0.5176 -0.5686
17719SOL     OW54257   4.983   7.542   2.330  0.6308 -0.1298 -0.1974
17719SOL    HW154258   5.047   7.564   2.397  0.0417  1.5806 -0.1434
17719SOL    HW254259   4.992   7.612   2.265 -1.1218  0.1512 -0.1943
17720SOL     OW54260   7.653   0.212   6.551 -0.2160 -0.0117  0.0518
17720SOL    HW154261   7.609   0.131   6.524 -0.5794  0.0600  0.4209
17720SOL    HW254262   7.612   0.235   6.634 -2.2776  2.1769 -1.4317
17721SOL     OW54263   8.682   3.097   6.161  0.1993  0.6098 -0.5960
17721SOL    HW154264   8.590   3.078   6.142 -0.4647  3.3077 -0.3548
17721SOL    HW254265   8.725   3.097   6.076 -0.4081  1.1411 -0.9112
17722SOL     OW54266   0.661   6.468   3.092  0.3984  0.3135  0.2794
17722SOL    HW154267   0.756   6.481   3.081  0.4100 -0.3490 -0.4891
17722SOL    HW254268   0.636   6.412   3.018 -0.2381 -1.1795  1.5786
17723SOL     OW54269   4.895   5.459   6.901  0.2014 -0.1752  0.3385
17723SOL    HW154270   4.819   5.401   6.913 -0.8749  0.9079 -0.8729
17723SOL    HW254271   4.897   5.511   6.982 -2.7165  2.3300 -0.9937
17724SOL     OW54272   3.274   7.763   8.262  0.3578  0.2101 -0.2636
17724SOL    HW154273   3.296   7.817   8.338  0.1536 -1.1182  0.7750
17724SOL    HW254274   3.289   7.820   8.187 -0.0277  1.7616  0.7981
17725SOL     OW54275   8.151   8.245   9.058  0.1760 -0.0211 -0.7272
17725SOL    HW154276   8.106   8.283   8.982 -1.9221 -0.2313  0.3561
17725SOL    HW254277   8.122   8.298   9.132  1.5428 -0.3395  0.0661
17726SOL     OW54278   2.127   8.914   3.024  0.1230  0.6853  0.5447
17726SOL    HW154279   2.053   8.929   2.966 -0.0609  1.6565  1.0093
17726SOL    HW254280   2.155   8.824   3.005 -0.0063  0.9282 -0.9499
17727SOL     OW54281   2.142   5.365   6.229 -0.8612 -0.3274 -0.1705
17727SOL    HW154282   2.194   5.289   6.257 -1.1936 -0.9833 -1.2915
17727SOL    HW254283   2.113   5.405   6.311  0.2477 -0.7569  0.4556
17728SOL     OW54284   2.140   3.657   0.886  0.0750 -0.2725 -0.0064
17728SOL    HW154285   2.047   3.682   0.885  0.7005  2.3896  0.0996
17728SOL    HW254286   2.172   3.682   0.799  0.4470 -2.5565 -0.5985
17729SOL     OW54287   6.575   5.474   4.774 -0.7926  0.5430 -0.1465
17729SOL    HW154288   6.494   5.421   4.771 -0.6568  0.3367 -0.1843
17729SOL    HW254289   6.627   5.433   4.843  0.5342 -1.1353 -2.0264
17730SOL     OW54290   7.266   1.356   5.684 -0.2465 -0.2330  0.0521
17730SOL    HW154291   7.341   1.343   5.625  0.7635  1.1516  0.9731
17730SOL    HW254292   7.281   1.442   5.723 -2.2628  0.0086  0.3896
17731SOL     OW54293   2.738   8.876   2.019 -0.5906  0.3978 -0.1305
17731SOL    HW154294   2.806   8.909   2.079 -0.7338  2.1114 -0.8463
17731SOL    HW254295   2.665   8.854   2.076 -0.0254  0.0965  0.4980
17732SOL     OW54296   5.391   9.025   1.464 -0.3055  0.5741  0.3391
17732SOL    HW154297   5.364   8.999   1.553  0.5603 -1.7001 -0.0108
17732SOL    HW254298   5.314   9.007   1.410 -0.2230  0.2228  0.3395
17733SOL     OW54299   8.706   5.737   4.374  0.6458  0.4281 -0.3901
17733SOL    HW154300   8.697   5.832   4.383  1.0526  0.7130 -2.5206
17733SOL    HW254301   8.620   5.707   4.344  0.8443  0.3004 -0.8458
17734SOL     OW54302   6.463   9.125   9.056 -0.3500 -0.3854 -0.0755
17734SOL    HW154303   6.408   9.164   8.988  1.0030 -0.2557 -1.1513
17734SOL    HW254304   6.440   9.033   9.055 -1.3759 -0.1458  0.3215
17735SOL     OW54305   3.199   7.890   1.796 -0.4763 -0.0887  0.0588
17735SOL    HW154306   3.224   7.812   1.847 -0.0350 -1.5341 -2.2299
17735SOL    HW254307   3.122   7.861   1.746 -0.2346  0.9155 -0.9091
17736SOL     OW54308   0.728   4.212   7.745 -0.2397 -0.0989  0.4559
17736SOL    HW154309   0.766   4.153   7.811 -1.2436 -0.4927  0.7021
17736SOL    HW254310   0.699   4.154   7.675  0.3769  0.2761 -0.1097
17737SOL     OW54311   4.835   5.733   6.839  0.2179 -0.3799 -0.3002
17737SOL    HW154312   4.854   5.640   6.833  1.2910 -0.2134  0.3079
17737SOL    HW254313   4.912   5.776   6.802 -0.7315  0.2694 -1.6323
17738SOL     OW54314   0.771   2.483   7.606  0.4042  0.3561  0.0645
17738SOL    HW154315   0.849   2.536   7.624  0.1201  1.3177 -1.3809
17738SOL    HW254316   0.802   2.413   7.548  0.3189  0.3734 -0.0036
17739SOL     OW54317   7.008   6.405   8.510 -0.5179 -0.4043  0.5049
17739SOL    HW154318   6.942   6.349   8.551 -0.6387 -1.7811 -1.4516
17739SOL    HW254319   6.973   6.425   8.424  1.6363 -1.2834 -0.6392
17740SOL     OW54320   8.996   6.440   0.892 -0.5473  0.2031  0.3983
17740SOL    HW154321   8.944   6.375   0.845 -2.6375  0.5273  2.1259
17740SOL    HW254322   8.962   6.439   0.981  2.2899  0.6461  1.6061
17741SOL     OW54323   0.705   3.127   5.534 -0.2176 -0.2380  0.6587
17741SOL    HW154324   0.666   3.192   5.475 -0.2552 -0.3521  0.5591
17741SOL    HW254325   0.694   3.165   5.621  1.6034  0.8609  0.4625
17742SOL     OW54326   8.533   6.494   7.087 -0.5470  0.2529 -0.5449
17742SOL    HW154327   8.456   6.463   7.134 -0.0637 -0.3243 -0.1104
17742SOL    HW254328   8.604   6.438   7.118  0.1460  1.1022 -0.5635
17743SOL     OW54329   7.618   6.623   8.120 -0.5536 -0.2279  0.6009
17743SOL    HW154330   7.571   6.545   8.150  0.5427 -2.2924 -2.5269
17743SOL    HW254331   7.562   6.659   8.050  1.0203 -0.9583 -1.1010
17744SOL     OW54332   7.658   7.544   5.132 -0.2020  0.1125  0.0212
17744SOL    HW154333   7.751   7.531   5.151 -0.5517 -0.7582  1.2444
17744SOL    HW254334   7.642   7.490   5.055 -0.1814 -1.6081  1.1806
17745SOL     OW54335   9.036   2.602   0.484  0.3273 -0.1065  0.4973
17745SOL    HW154336   9.064   2.633   0.570  0.5510  1.1849 -0.0259
17745SOL    HW254337   8.976   2.530   0.503  1.4451 -0.7680  1.7011
17746SOL     OW54338   7.364   5.378   3.222 -0.2356  0.0384  0.0713
17746SOL    HW154339   7.361   5.338   3.309  0.2912  1.5160  0.8117
17746SOL    HW254340   7.274   5.373   3.191 -0.2836 -1.1893  0.3711
17747SOL     OW54341   7.813   8.424   3.845 -0.2902  0.4000  0.0381
17747SOL    HW154342   7.806   8.386   3.933 -0.3080 -1.9774 -0.9291
17747SOL    HW254343   7.901   8.402   3.816 -0.8776 -0.4000 -1.1956
17748SOL     OW54344   2.312   0.131   3.648 -0.4928  0.1890 -0.4214
17748SOL    HW154345   2.283   0.052   3.694 -0.4078 -0.3421 -1.2643
17748SOL    HW254346   2.281   0.203   3.704 -0.1713 -0.4320  0.5958
17749SOL     OW54347   3.050   5.250   0.960  0.3617  0.4906 -0.6551
17749SOL    HW154348   3.112   5.317   0.991 -1.1353  1.7449 -0.2106
17749SOL    HW254349   3.034   5.272   0.869 -1.2179  1.7073 -0.1447
17750SOL     OW54350   4.135   7.042   6.570  0.2887  0.3674  0.2706
17750SOL    HW154351   4.103   7.088   6.492 -1.1107 -0.5757  0.2644
17750SOL    HW254352   4.213   7.091   6.595 -0.7877  2.3845 -0.0994
17751SOL     OW54353   3.856   0.352   7.921 -0.7143 -0.3564  0.4332
17751SOL    HW154354   3.803   0.333   7.844  1.0803 -0.9079 -0.7309
17751SOL    HW254355   3.916   0.421   7.891  1.0869 -1.6935  0.7790
17752SOL     OW54356   0.570   6.393   0.981  0.4203 -0.5714 -0.7420
17752SOL    HW154357   0.547   6.466   1.039 -0.2818  0.4693 -2.2785
17752SOL    HW254358   0.551   6.315   1.033  0.8407  0.3015  0.8154
17753SOL     OW54359   5.298   2.744   0.404 -0.0879  0.4629 -0.0422
17753SOL    HW154360   5.243   2.783   0.336 -0.2428  1.5838  0.7045
17753SOL    HW254361   5.296   2.808   0.475 -0.1238 -0.7994  1.1131
17754SOL     OW54362   7.322   4.223   1.113  0.0881  0.3127  0.0039
17754SOL    HW154363   7.361   4.223   1.200  3.0280 -5.6676 -0.7981
17754SOL    HW254364   7.392   4.257   1.056  0.3908 -1.0852 -0.4875
17755SOL     OW54365   1.799   4.897   3.379 -0.2754  0.4764 -0.1978
17755SOL    HW154366   1.820   4.805   3.398 -0.6384  0.6315  1.0656
17755SOL    HW254367   1.884   4.941   3.378 -0.2420  0.7951  3.2145
17756SOL     OW54368   0.131   0.240   8.773 -0.2680  0.5165  0.2921
17756SOL    HW154369   0.109   0.207   8.686  1.8968 -0.5977  0.1066
17756SOL    HW254370   0.135   0.335   8.762  0.6379  0.3567 -1.0274
17757SOL     OW54371   6.036   8.123   6.164 -0.1868 -0.1016  0.5280
17757SOL    HW154372   5.978   8.050   6.143 -0.6143  0.5812 -0.8016
17757SOL    HW254373   5.986   8.177   6.225  0.0948 -0.8421  1.4398
17758SOL     OW54374   0.949   8.540   4.082  0.0620 -0.1559 -0.0458
17758SOL    HW154375   0.887   8.613   4.091 -1.0880 -1.3208  2.4352
17758SOL    HW254376   0.925   8.499   3.998 -2.2044 -0.1857  0.5349
17759SOL     OW54377   6.533   3.832   3.710  0.4089 -0.4658 -0.5414
17759SOL    HW154378   6.527   3.847   3.804 -1.4429 -2.2335 -0.2900
17759SOL    HW254379   6.594   3.759   3.702 -2.2722 -2.9642 -0.2177
17760SOL     OW54380   5.296   1.648   7.852  0.2719  0.0687  0.3086
17760SOL    HW154381   5.288   1.696   7.770 -0.7225 -0.4527  0.0923
17760SOL    HW254382   5.291   1.716   7.920 -1.1711  0.2924  0.0073
17761SOL     OW54383   7.788   8.788   2.222  0.5199 -0.2970 -0.1621
17761SOL    HW154384   7.824   8.738   2.149 -0.8894 -0.4899 -0.7611
17761SOL    HW254385   7.743   8.862   2.181 -2.3098 -1.6407  0.2572
17762SOL     OW54386   2.702   7.694   6.229 -0.1816  0.3681  0.6550
17762SOL    HW154387   2.793   7.722   6.218 -0.1505  0.1697  0.4080
17762SOL    HW254388   2.706   7.630   6.301  0.4748 -2.4423 -1.6705
17763SOL     OW54389   4.158   5.062   1.676  0.1718  0.4465  0.1008
17763SOL    HW154390   4.068   5.067   1.643  0.6313  0.4314 -1.1874
17763SOL    HW254391   4.151   5.009   1.755 -0.7200 -0.9363 -0.8633
17764SOL     OW54392   7.531   5.414   5.492 -0.4308  0.2719 -0.0627
17764SOL    HW154393   7.514   5.506   5.474  2.0112  0.7810 -0.1383
17764SOL    HW254394   7.552   5.377   5.406  1.5264  0.3951  0.3123
17765SOL     OW54395   3.160   3.783   8.325 -0.1837  0.7532  0.2604
17765SOL    HW154396   3.069   3.788   8.353 -0.1808  3.0051  0.0515
17765SOL    HW254397   3.163   3.709   8.265 -2.1009  1.2242 -0.4686
17766SOL     OW54398   2.242   1.346   9.025 -0.0403 -0.3216 -0.7133
17766SOL    HW154399   2.289   1.374   8.946 -0.0514  0.1028 -0.5696
17766SOL    HW254400   2.302   1.285   9.068  1.4115  1.9667  0.6927
17767SOL     OW54401   4.685   8.958   8.876  0.3746  0.1355  0.2001
17767SOL    HW154402   4.739   8.887   8.840  0.8564 -0.0549  1.2506
17767SOL    HW254403   4.704   9.033   8.820 -1.4671 -0.9380 -2.0329
17768SOL     OW54404   2.852   6.614   6.497 -0.6810 -0.2431 -0.0913
17768SOL    HW154405   2.947   6.625   6.508 -0.6501  0.2371 -0.7731
17768SOL    HW254406   2.838   6.622   6.402 -1.1562 -2.2553 -0.2456
17769SOL     OW54407   8.790   8.904   7.275 -0.0077 -0.3444 -0.4663
17769SOL    HW154408   8.778   8.819   7.318 -1.2404  0.3460  0.6308
17769SOL    HW254409   8.871   8.894   7.225  0.6668 -1.6950  0.8048
17770SOL     OW54410   0.644   2.146   7.319 -0.2626  0.0465  0.1109
17770SOL    HW154411   0.567   2.179   7.365 -0.6635  2.7696 -2.2560
17770SOL    HW254412   0.718   2.190   7.360 -0.3690  0.4610 -0.1363
17771SOL     OW54413   5.106   3.300   4.577 -0.1269 -0.0888 -0.1272
17771SOL    HW154414   5.166   3.293   4.502  0.1797  1.0528 -0.0054
17771SOL    HW254415   5.022   3.269   4.543  0.1395 -0.1191 -0.7881
17772SOL     OW54416   2.379   3.762   1.011 -0.0098  0.2359 -0.0040
17772SOL    HW154417   2.351   3.765   1.103  0.5352  0.9006  0.1499
17772SOL    HW254418   2.297   3.753   0.962 -0.1868 -2.4004  0.6138
17773SOL     OW54419   4.293   9.111   6.973 -0.7291 -0.1883 -0.0082
17773SOL    HW154420   4.386   9.121   6.991 -1.2093  0.6433  2.2750
17773SOL    HW254421   4.255   9.197   6.993 -1.6825  0.3547 -3.4970
17774SOL     OW54422   0.975   6.894   0.660  0.8680 -0.1805 -0.7371
17774SOL    HW154423   0.934   6.816   0.625  0.1809  0.1248 -0.6347
17774SOL    HW254424   0.944   6.899   0.750  0.5119  0.4604 -0.8831
17775SOL     OW54425   5.636   9.106   9.072 -0.5027  0.4493 -0.6944
17775SOL    HW154426   5.731   9.098   9.080 -0.1006  0.9907 -3.7121
17775SOL    HW254427   5.610   9.028   9.023 -1.1309  1.7025 -2.4623
17776SOL     OW54428   5.026   8.263   1.885 -0.0388 -0.1849  0.6220
17776SOL    HW154429   4.990   8.185   1.928 -1.2897  0.5107  0.8971
17776SOL    HW254430   5.119   8.243   1.874 -0.3794 -1.8499  0.3890
17777SOL     OW54431   5.735   2.208   8.003  0.2329 -0.4456  0.7794
17777SOL    HW154432   5.750   2.302   8.010  1.7969 -0.5078 -0.9650
17777SOL    HW254433   5.799   2.178   7.938 -2.7387 -2.0455 -1.6825
17778SOL     OW54434   4.334   7.000   3.389  0.0576 -0.3028  0.3131
17778SOL    HW154435   4.397   6.953   3.334  1.4820 -0.8087  2.2883
17778SOL    HW254436   4.308   6.937   3.455 -1.8785  0.2000  0.0970
17779SOL     OW54437   0.897   2.257   0.415  0.2658  0.1325 -0.0828
17779SOL    HW154438   0.851   2.182   0.377  1.4324 -0.9922  0.6235
17779SOL    HW254439   0.829   2.304   0.465 -0.7868  0.3833 -1.6723
17780SOL     OW54440   4.066   0.576   8.473 -0.1005  0.2965  0.0567
17780SOL    HW154441   4.082   0.589   8.566  3.5356  0.5021 -0.4376
17780SOL    HW254442   4.052   0.664   8.438 -1.9052  0.1806  0.4111
17781SOL     OW54443   0.537   8.198   0.866 -0.4067  0.9215 -0.3950
17781SOL    HW154444   0.585   8.123   0.830 -0.2050  1.4238 -1.1837
17781SOL    HW254445   0.445   8.177   0.850 -0.3149  1.1894 -1.3162
17782SOL     OW54446   4.106   2.848   1.567  0.3359  0.1773  0.3368
17782SOL    HW154447   4.027   2.807   1.601 -0.2119  1.0378  0.1521
17782SOL    HW254448   4.073   2.913   1.504  1.1698  0.7379  0.4688
17783SOL     OW54449   2.132   2.717   1.830 -0.4994 -0.0376  0.2019
17783SOL    HW154450   2.141   2.809   1.804  2.5351 -0.3877 -0.4102
17783SOL    HW254451   2.183   2.669   1.765 -1.0076 -2.0357  1.2071
17784SOL     OW54452   1.599   2.110   7.882  0.5677  0.4913  0.3366
17784SOL    HW154453   1.651   2.059   7.821  0.2511  2.6311 -1.8982
17784SOL    HW254454   1.653   2.115   7.961  1.8503 -0.8275 -0.4087
17785SOL     OW54455   0.613   0.090   8.351 -0.1175 -0.1945 -0.1422
17785SOL    HW154456   0.637   0.030   8.281 -1.6973  0.6371 -1.4747
17785SOL    HW254457   0.566   0.036   8.414 -1.0219 -0.4886 -1.0459
17786SOL     OW54458   1.728   5.184   1.023  0.4120  0.3781  0.3222
17786SOL    HW154459   1.677   5.264   1.039 -1.3163 -0.2295 -1.6878
17786SOL    HW254460   1.816   5.205   1.054 -0.5200  2.2443  1.9450
17787SOL     OW54461   8.361   2.068   8.813  0.4244  0.1072  0.4198
17787SOL    HW154462   8.450   2.066   8.848  0.8370  0.6494 -0.5589
17787SOL    HW254463   8.325   2.152   8.842  1.2436  1.1746 -1.5423
17788SOL     OW54464   7.724   5.814   1.451  0.1252  0.0862  0.4455
17788SOL    HW154465   7.795   5.852   1.400 -0.8647  2.2632  0.5839
17788SOL    HW254466   7.766   5.747   1.505  1.6604 -0.2425 -1.0903
17789SOL     OW54467   6.149   3.088   6.734  0.1937  0.5221  0.1022
17789SOL    HW154468   6.072   3.051   6.692  1.3373 -1.0682 -0.6737
17789SOL    HW254469   6.119   3.113   6.822 -0.6133 -2.5375  0.7900
17790SOL     OW54470   2.917   6.153   7.174  0.4955  0.2079  0.5559
17790SOL    HW154471   2.987   6.088   7.169 -0.3148 -0.6255 -1.6691
17790SOL    HW254472   2.899   6.163   7.267 -0.4975 -4.1013  1.0124
17791SOL     OW54473   6.883   4.285   6.254  0.1888  0.5007 -0.2108
17791SOL    HW154474   6.963   4.252   6.213  0.1316  1.1026 -0.8278
17791SOL    HW254475   6.813   4.256   6.195 -0.2205 -1.2867  1.0738
17792SOL     OW54476   4.956   4.698   6.507  0.5028 -0.6470  0.4602
17792SOL    HW154477   4.874   4.723   6.463  1.8021  0.9472 -1.1971
17792SOL    HW254478   4.967   4.765   6.575  0.2045 -1.1469  1.0090
17793SOL     OW54479   0.960   4.714   0.915  0.0360 -0.1421 -0.0017
17793SOL    HW154480   0.927   4.779   0.853 -0.6528 -1.0960 -0.6645
17793SOL    HW254481   1.000   4.647   0.860 -0.3133 -0.8556  0.5965
17794SOL     OW54482   3.685   2.479   3.618 -0.0557 -0.2131  0.0057
17794SOL    HW154483   3.633   2.524   3.551 -0.8026  0.6219  1.1149
17794SOL    HW254484   3.774   2.512   3.605  0.1261 -1.1804 -1.5051
17795SOL     OW54485   5.880   7.361   6.461  0.0802 -0.2392  0.6186
17795SOL    HW154486   5.843   7.424   6.399 -1.8862 -1.0717  0.8764
17795SOL    HW254487   5.880   7.407   6.545  0.3040  0.0016  0.4893
17796SOL     OW54488   0.967   1.980   7.437  0.9943  0.2546 -0.5203
17796SOL    HW154489   0.991   1.898   7.479  1.0972  0.5097 -0.0748
17796SOL    HW254490   0.922   1.954   7.357 -1.9040 -0.3235  1.1285
17797SOL     OW54491   1.453   7.025   6.797  0.5222  0.5031 -0.2665
17797SOL    HW154492   1.522   7.053   6.857 -0.3823  1.9196  0.1403
17797SOL    HW254493   1.432   6.936   6.825  1.6828  0.3125  0.0503
17798SOL     OW54494   4.840   1.461   8.324  0.3569 -0.0774 -0.3243
17798SOL    HW154495   4.921   1.420   8.294  0.7473 -0.6227  1.3666
17798SOL    HW254496   4.852   1.471   8.419 -2.2217 -1.8362  0.3068
17799SOL     OW54497   2.233   8.346   2.141 -0.3869 -0.0594  0.3127
17799SOL    HW154498   2.189   8.318   2.221  1.4616  0.0972  1.4440
17799SOL    HW254499   2.222   8.273   2.080 -2.6026  0.1911  0.3523
17800SOL     OW54500   7.406   5.686   2.091 -0.3776 -0.2309  0.3890
17800SOL    HW154501   7.341   5.618   2.073 -0.8252  0.7081 -1.9275
17800SOL    HW254502   7.486   5.653   2.049 -0.6171  0.6392 -0.8143
17801SOL     OW54503   4.823   1.887   0.983 -0.9352 -0.1274  0.1159
17801SOL    HW154504   4.888   1.817   0.975 -0.4031  0.4911 -1.3759
17801SOL    HW254505   4.856   1.956   0.926 -1.8940  1.0025  0.9001
17802SOL     OW54506   5.384   2.995   1.134  0.3908  0.3120  0.1795
17802SOL    HW154507   5.391   3.073   1.080  0.9021 -1.4364 -2.4507
17802SOL    HW254508   5.293   2.994   1.164  0.0188  1.2132 -0.8716
17803SOL     OW54509   1.312   6.780   0.891 -0.1373  0.4750  0.0504
17803SOL    HW154510   1.302   6.693   0.853 -1.1013  0.3015  0.6507
17803SOL    HW254511   1.355   6.831   0.823  1.5368 -0.7511  0.1083
17804SOL     OW54512   6.959   3.670   1.104 -0.1748 -0.0878 -0.5952
17804SOL    HW154513   7.019   3.597   1.118  0.4716  0.5607  0.1515
17804SOL    HW254514   7.003   3.745   1.145 -1.0042  0.6342 -0.9915
17805SOL     OW54515   5.298   8.078   0.380 -0.3942 -0.6412 -0.1807
17805SOL    HW154516   5.318   8.096   0.288  1.0111 -1.1938 -0.0008
17805SOL    HW254517   5.256   8.159   0.411  0.7735  0.2549 -0.8343
17806SOL     OW54518   1.551   8.797   1.137  0.1562  0.1569 -0.3013
17806SOL    HW154519   1.571   8.742   1.213 -0.2832  0.0108 -0.2922
17806SOL    HW254520   1.536   8.884   1.174 -1.1647 -0.1391 -0.0868
17807SOL     OW54521   1.070   4.382   2.379  0.6598  0.6585 -0.2467
17807SOL    HW154522   1.149   4.379   2.325  0.8824 -1.8141  0.0949
17807SOL    HW254523   1.027   4.298   2.363 -0.6114  0.9352  1.4615
17808SOL     OW54524   4.492   5.830   3.850  0.8224  0.7109 -0.2523
17808SOL    HW154525   4.520   5.741   3.827  0.2469  0.0553  1.4569
17808SOL    HW254526   4.420   5.848   3.790 -0.0980 -0.6175  0.4096
17809SOL     OW54527   2.763   6.423   4.774  0.3304 -0.0428  0.4074
17809SOL    HW154528   2.844   6.444   4.820  0.1660 -0.1332  0.7441
17809SOL    HW254529   2.778   6.336   4.738  0.4943  0.0666  0.2136
17810SOL     OW54530   2.424   2.631   5.839 -0.8150  0.1677  0.2547
17810SOL    HW154531   2.478   2.553   5.845  0.6131  0.9295 -1.6244
17810SOL    HW254532   2.482   2.698   5.803 -1.7747  2.3422  2.3960
17811SOL     OW54533   5.015   5.867   7.484 -0.2457 -0.1291  0.0008
17811SOL    HW154534   4.993   5.782   7.445  0.0174 -0.3953  0.4388
17811SOL    HW254535   5.009   5.929   7.410 -0.7577 -0.4712 -0.2494
17812SOL     OW54536   0.542   3.378   0.515 -0.0849  0.1748 -0.1526
17812SOL    HW154537   0.543   3.443   0.445 -1.2069  1.0192  0.5799
17812SOL    HW254538   0.476   3.314   0.489 -0.4675  0.4626  0.1043
17813SOL     OW54539   7.805   8.467   1.903  0.1558 -0.7165 -0.4086
17813SOL    HW154540   7.742   8.410   1.947 -0.9270 -0.0837 -1.0957
17813SOL    HW254541   7.753   8.541   1.874  1.2460 -0.1493 -0.9433
17814SOL     OW54542   4.385   1.080   9.119 -0.5145 -0.5608  0.0190
17814SOL    HW154543   4.407   0.990   9.145 -0.3539 -0.3621  0.5781
17814SOL    HW254544   4.306   1.101   9.169 -1.0758 -0.6976 -0.7789
17815SOL     OW54545   7.098   7.333   3.931  0.5256  0.3283 -1.0067
17815SOL    HW154546   7.017   7.381   3.945  1.4056  1.6756 -0.2464
17815SOL    HW254547   7.092   7.299   3.842 -0.6690  0.7878 -1.1112
17816SOL     OW54548   8.431   4.904   7.705  0.4060 -0.4494 -0.4063
17816SOL    HW154549   8.386   4.912   7.621  0.4087 -1.0551 -0.4721
17816SOL    HW254550   8.507   4.849   7.687  1.4004  0.8628 -0.3689
17817SOL     OW54551   3.150   8.175   7.921  1.1652 -0.3061 -0.2314
17817SOL    HW154552   3.202   8.228   7.983  0.5837 -0.8437  0.7428
17817SOL    HW254553   3.087   8.130   7.976  1.5299 -1.8946 -1.0573
17818SOL     OW54554   3.948   4.613   5.926 -0.1825 -0.1922 -0.1440
17818SOL    HW154555   3.991   4.633   5.843  1.0955 -1.3966  0.1813
17818SOL    HW254556   3.877   4.553   5.902  0.5461 -1.0050 -0.3376
17819SOL     OW54557   8.502   1.785   7.151 -0.1558  0.0942  0.3015
17819SOL    HW154558   8.510   1.794   7.246  0.7195  0.1993  0.2263
17819SOL    HW254559   8.421   1.736   7.138 -0.3994  0.2780  1.0916
17820SOL     OW54560   3.153   0.378   8.778  0.0755  0.1640  0.1446
17820SOL    HW154561   3.106   0.398   8.697 -1.1141  0.7230  0.9418
17820SOL    HW254562   3.128   0.288   8.798 -1.4321  0.7590  1.0496
17821SOL     OW54563   5.530   6.604   2.739 -0.2281  0.2439  0.8806
17821SOL    HW154564   5.526   6.538   2.670 -2.2581 -0.3053  1.4655
17821SOL    HW254565   5.489   6.681   2.699  1.5415  1.0161  0.4250
17822SOL     OW54566   7.595   6.576   0.963 -0.7052 -0.1419  0.0866
17822SOL    HW154567   7.502   6.554   0.968 -0.3546 -1.5655  1.0854
17822SOL    HW254568   7.640   6.500   1.000  0.7801  1.0865  0.9437
17823SOL     OW54569   3.252   7.348   3.317  0.7196  0.0708 -0.0227
17823SOL    HW154570   3.167   7.383   3.290 -0.6544 -3.3650 -0.7406
17823SOL    HW254571   3.311   7.369   3.244 -0.3694 -0.1814 -1.0140
17824SOL     OW54572   4.362   8.838   3.403 -0.2903  0.2146 -0.1308
17824SOL    HW154573   4.312   8.863   3.480  1.0629  1.6485  0.3157
17824SOL    HW254574   4.427   8.775   3.435 -0.5063 -0.1181 -0.3367
17825SOL     OW54575   7.686   2.497   2.122 -0.9801  0.1809  0.1240
17825SOL    HW154576   7.612   2.532   2.172  0.2330 -0.2793  2.3477
17825SOL    HW254577   7.720   2.426   2.176  0.2469 -0.5479 -1.5181
17826SOL     OW54578   7.211   1.336   6.002  0.3803 -0.7010 -0.1617
17826SOL    HW154579   7.226   1.275   5.929 -1.0576 -1.7021  0.3464
17826SOL    HW254580   7.203   1.421   5.959 -0.9033 -1.3270 -1.2685
17827SOL     OW54581   0.189   0.547   2.093  0.1586  0.1512  0.2207
17827SOL    HW154582   0.223   0.470   2.049  2.5116  1.2704 -0.0818
17827SOL    HW254583   0.146   0.598   2.025  0.9233  0.3258 -0.1437
17828SOL     OW54584   5.160   7.729   7.545  0.1362 -0.0094 -0.3595
17828SOL    HW154585   5.218   7.753   7.617  0.6663 -0.7147 -0.5404
17828SOL    HW254586   5.147   7.811   7.497  1.7074  0.0157 -0.8132
17829SOL     OW54587   5.198   0.348   5.927  0.1815 -0.3684 -0.0932
17829SOL    HW154588   5.220   0.404   6.002 -1.1929 -0.3056  0.2916
17829SOL    HW254589   5.179   0.262   5.966 -0.5221 -0.3390 -0.3486
17830SOL     OW54590   8.536   7.892   7.420  0.0002  0.4334 -0.5110
17830SOL    HW154591   8.549   7.810   7.373  1.3603  0.2703  0.0918
17830SOL    HW254592   8.556   7.960   7.356  1.0899  0.2269 -0.4116
17831SOL     OW54593   4.344   6.766   2.163  0.0327  0.7576  0.7661
17831SOL    HW154594   4.341   6.846   2.216 -0.1866  1.3288 -0.0964
17831SOL    HW254595   4.278   6.780   2.096 -1.2380 -0.8838  1.6163
17832SOL     OW54596   7.624   2.748   7.808  0.2158  0.1610  0.1293
17832SOL    HW154597   7.654   2.834   7.779  1.4395 -0.4189 -0.3783
17832SOL    HW254598   7.621   2.755   7.903  2.3420  0.1613  0.2440
17833SOL     OW54599   2.057   1.931   0.901 -0.3523  0.0477 -0.1402
17833SOL    HW154600   1.997   1.873   0.854 -0.7638  0.6300 -0.3457
17833SOL    HW254601   2.144   1.898   0.878 -0.5235  0.6049 -1.7268
17834SOL     OW54602   8.371   7.746   3.080  0.8819 -0.6784  0.3345
17834SOL    HW154603   8.380   7.837   3.052  0.6624 -0.1774  1.8135
17834SOL    HW254604   8.460   7.711   3.076  0.8784 -0.6027 -0.8225
17835SOL     OW54605   7.031   1.586   8.600  0.2833  0.3651  0.3298
17835SOL    HW154606   6.963   1.581   8.667 -0.6817 -1.5086 -0.6760
17835SOL    HW254607   7.105   1.538   8.637 -0.3867 -1.0096 -0.0543
17836SOL     OW54608   1.038   5.833   3.677 -0.2988  0.2451  0.0637
17836SOL    HW154609   1.014   5.908   3.623  0.9697 -0.5599 -1.7384
17836SOL    HW254610   0.980   5.763   3.647  0.3555 -0.1834 -0.2283
17837SOL     OW54611   8.888   4.424   5.378  0.2683  0.2216 -0.0561
17837SOL    HW154612   8.967   4.433   5.432 -0.3138 -1.0264  1.0539
17837SOL    HW254613   8.855   4.337   5.399 -0.7877  0.2812 -1.3721
17838SOL     OW54614   7.459   1.261   2.778  0.1541  0.2125 -0.2480
17838SOL    HW154615   7.388   1.230   2.834 -0.0169  1.6889  0.3908
17838SOL    HW254616   7.520   1.304   2.838 -0.0461  1.8490 -1.1828
17839SOL     OW54617   5.308   2.224   2.905 -0.2037  0.1654 -0.0239
17839SOL    HW154618   5.247   2.154   2.880  0.3953  0.1180 -1.4522
17839SOL    HW254619   5.395   2.186   2.893  0.1286  0.7709  0.3790
17840SOL     OW54620   5.350   8.336   5.000  0.1147 -0.0068 -0.5025
17840SOL    HW154621   5.357   8.293   5.085  1.6439 -1.4670 -1.2982
17840SOL    HW254622   5.293   8.279   4.948  1.9976 -1.0981 -1.5007
17841SOL     OW54623   3.921   0.466   4.816  0.0480 -0.8137  0.0954
17841SOL    HW154624   3.981   0.397   4.787  0.2935  0.1608 -1.8794
17841SOL    HW254625   3.881   0.498   4.735 -1.7749 -0.1773  1.1974
17842SOL     OW54626   8.345   6.809   1.956  0.0686 -0.1114  0.0357
17842SOL    HW154627   8.332   6.732   1.902  1.0977  0.6314 -1.3040
17842SOL    HW254628   8.427   6.847   1.927 -1.2682  2.5339 -0.6694
17843SOL     OW54629   7.376   4.603   6.631  0.0372  0.1626 -0.0659
17843SOL    HW154630   7.383   4.569   6.542  0.1621  0.0407 -0.0096
17843SOL    HW254631   7.358   4.696   6.620  0.3272  0.1989 -0.2175
17844SOL     OW54632   4.287   7.453   0.947  0.1142  0.1218 -0.5755
17844SOL    HW154633   4.247   7.448   0.860  0.9285 -1.9294 -0.8922
17844SOL    HW254634   4.361   7.513   0.936 -0.4292  0.7247 -1.0113
17845SOL     OW54635   4.975   5.099   3.851 -0.2438 -0.2022  0.5608
17845SOL    HW154636   5.053   5.138   3.812 -0.1440 -1.6547 -0.7440
17845SOL    HW254637   5.002   5.011   3.876 -1.4373 -0.6900  0.1780
17846SOL     OW54638   0.062   2.791   2.370 -0.5476  0.5769  0.0909
17846SOL    HW154639  -0.018   2.738   2.371  0.1187 -0.4750 -0.1365
17846SOL    HW254640   0.069   2.825   2.459 -1.0804  0.4101  0.2000
17847SOL     OW54641   4.460   7.680   1.291 -0.2076 -0.2070 -0.1305
17847SOL    HW154642   4.368   7.658   1.300 -0.6596  1.3607 -0.5241
17847SOL    HW254643   4.460   7.762   1.241  1.4327 -0.5655 -0.8011
17848SOL     OW54644   6.255   3.236   1.096 -0.6850  0.0148  0.4651
17848SOL    HW154645   6.167   3.220   1.130 -0.9433 -1.5442 -0.8485
17848SOL    HW254646   6.288   3.150   1.072  0.2969  0.8130 -1.2199
17849SOL     OW54647   5.388   8.373   1.450 -0.1495  0.6419 -0.1870
17849SOL    HW154648   5.447   8.316   1.500 -0.3305  1.0079  0.4530
17849SOL    HW254649   5.400   8.460   1.490 -1.6643  0.5831  0.4409
17850SOL     OW54650   3.037   0.672   8.214  0.1137  0.1692 -0.7969
17850SOL    HW154651   3.017   0.580   8.231 -0.4403  0.3082 -0.6707
17850SOL    HW254652   2.965   0.720   8.256  2.3662  0.9017  2.6236
17851SOL     OW54653   2.154   7.383   6.460  0.1850 -0.1787 -0.3455
17851SOL    HW154654   2.200   7.304   6.435 -1.3821 -1.1790 -0.2107
17851SOL    HW254655   2.210   7.455   6.429  2.5925 -1.2571  1.2658
17852SOL     OW54656   6.490   1.490   3.248  0.2394 -1.1639 -0.5660
17852SOL    HW154657   6.524   1.579   3.238 -3.0950  0.1333 -1.7823
17852SOL    HW254658   6.455   1.488   3.337  1.1864 -1.6432 -0.1907
17853SOL     OW54659   8.669   5.860   8.081  0.2168 -0.2152  0.1794
17853SOL    HW154660   8.628   5.819   8.157  0.4742  0.6926  0.8337
17853SOL    HW254661   8.673   5.791   8.015 -1.4523 -0.5850  0.4336
17854SOL     OW54662   7.991   0.072   9.124  0.2858 -0.1564  0.5691
17854SOL    HW154663   8.048   0.148   9.140  0.6346 -0.7720  2.5696
17854SOL    HW254664   7.905   0.110   9.109  0.6909  0.6874  0.2961
17855SOL     OW54665   6.794   8.278   2.685  0.1727  0.2781 -0.5751
17855SOL    HW154666   6.884   8.307   2.671  0.8510 -1.1895  0.5306
17855SOL    HW254667   6.776   8.295   2.777 -0.7143  0.5965 -0.7908
17856SOL     OW54668   1.255   0.567   7.163  0.7023 -0.3908 -0.6756
17856SOL    HW154669   1.192   0.500   7.134  1.0702 -0.2412 -1.8584
17856SOL    HW254670   1.227   0.646   7.118  1.5328 -0.2424 -0.9393
17857SOL     OW54671   2.792   3.967   4.627 -0.3788 -0.0221  0.7666
17857SOL    HW154672   2.779   3.887   4.679 -0.7683  0.8362  2.0477
17857SOL    HW254673   2.717   4.022   4.650 -1.2878 -0.0966 -1.7359
17858SOL     OW54674   8.352   8.009   3.015  0.0293 -0.3225  0.0491
17858SOL    HW154675   8.279   8.071   3.013 -0.6032 -1.0462 -0.0208
17858SOL    HW254676   8.430   8.063   3.000 -0.4108  0.5756  0.8647
17859SOL     OW54677   4.233   8.055   3.688 -0.4931 -0.1925  0.0176
17859SOL    HW154678   4.218   8.146   3.663  0.7254  0.0629  0.1532
17859SOL    HW254679   4.226   8.006   3.606 -2.0614 -0.1248  0.0780
17860SOL     OW54680   0.210   4.260   5.918 -0.1499 -0.1631  0.2783
17860SOL    HW154681   0.263   4.247   5.839  1.6916  0.1553  1.4133
17860SOL    HW254682   0.217   4.178   5.966  2.7566  1.1668  2.3681
17861SOL     OW54683   3.631   4.098   2.266  0.0845  0.0998 -0.4897
17861SOL    HW154684   3.684   4.176   2.286  1.8422 -1.0384 -0.4588
17861SOL    HW254685   3.576   4.085   2.343  0.1420  1.0143 -0.2870
17862SOL     OW54686   1.212   0.364   5.256  0.5427 -0.2552 -0.2700
17862SOL    HW154687   1.226   0.407   5.171  0.3249  0.2280 -0.0628
17862SOL    HW254688   1.135   0.406   5.292 -1.3120 -2.6098 -1.2059
17863SOL     OW54689   1.996   6.082   4.622  0.2322 -0.0477  0.1552
17863SOL    HW154690   2.035   6.139   4.556 -0.1368  1.2571  1.0149
17863SOL    HW254691   2.026   5.994   4.599  1.9250  0.6457 -0.4343
17864SOL     OW54692   1.497   0.881   2.653  0.1057 -0.6040  0.4076
17864SOL    HW154693   1.524   0.892   2.562 -2.3484 -0.0379 -0.3132
17864SOL    HW254694   1.562   0.931   2.703  2.0890 -1.7561 -0.8821
17865SOL     OW54695   5.404   8.343   3.308  0.5367  0.4008  0.2316
17865SOL    HW154696   5.443   8.430   3.304  1.3351  0.0277 -0.5271
17865SOL    HW254697   5.385   8.329   3.400  0.5278  1.3276  0.3727
17866SOL     OW54698   5.830   3.378   2.376 -0.4095  0.1207  0.6180
17866SOL    HW154699   5.737   3.390   2.395 -0.6392  0.0675 -0.3941
17866SOL    HW254700   5.876   3.422   2.447 -1.1861 -1.1866  1.9866
17867SOL     OW54701   2.509   5.415   8.092 -0.3182  0.3018 -0.0005
17867SOL    HW154702   2.447   5.342   8.083  1.1422 -0.9051 -0.7439
17867SOL    HW254703   2.564   5.391   8.166 -1.2535  1.7936  1.2258
17868SOL     OW54704   2.217   5.892   7.249 -0.0681 -0.0958 -0.3718
17868SOL    HW154705   2.234   5.805   7.285 -0.0724  0.0625  0.0172
17868SOL    HW254706   2.143   5.926   7.300  0.4325  0.4478  0.0123
17869SOL     OW54707   5.082   3.830   1.158  0.1977 -0.0024  0.1110
17869SOL    HW154708   4.993   3.861   1.144  0.3295  0.5919  0.5672
17869SOL    HW254709   5.128   3.904   1.198  0.5798 -0.6917  0.9849
17870SOL     OW54710   8.389   8.918   1.000  0.0532  0.2783 -0.0716
17870SOL    HW154711   8.326   8.854   0.966 -0.1571  0.2468  0.3635
17870SOL    HW254712   8.342   8.962   1.071  1.2846 -1.4154  1.9153
17871SOL     OW54713   5.751   1.464   4.416  0.2031  0.2014 -0.7658
17871SOL    HW154714   5.816   1.454   4.485 -0.1558 -0.0949 -0.4671
17871SOL    HW254715   5.695   1.535   4.446  0.6461  0.7525 -1.2292
17872SOL     OW54716   1.539   5.410   1.123  0.0110 -0.0413 -0.7085
17872SOL    HW154717   1.507   5.495   1.094 -1.6690 -0.6776 -0.8720
17872SOL    HW254718   1.488   5.347   1.072  0.8015 -1.1384 -0.1789
17873SOL     OW54719   6.721   3.247   6.266 -0.2471  0.4405 -0.2012
17873SOL    HW154720   6.741   3.336   6.236  0.9082  0.1427 -0.3698
17873SOL    HW254721   6.720   3.194   6.186  1.1349 -0.0457  0.0654
17874SOL     OW54722   7.908   8.169   3.200 -0.4863 -0.4471  0.0876
17874SOL    HW154723   7.824   8.155   3.156  0.2573  1.7888 -2.3106
17874SOL    HW254724   7.912   8.264   3.215  1.7214 -0.4470 -0.1455
17875SOL     OW54725   2.661   4.943   5.081  0.1557 -0.1188  0.4368
17875SOL    HW154726   2.579   4.983   5.052 -0.3186 -2.4041 -1.7702
17875SOL    HW254727   2.727   4.978   5.022  0.4099  0.2064  0.9117
17876SOL     OW54728   6.341   0.526   0.926 -0.2746 -0.5538  0.3176
17876SOL    HW154729   6.315   0.611   0.963  0.2223  0.2623 -1.1169
17876SOL    HW254730   6.299   0.461   0.982 -1.7490  0.6522  0.6630
17877SOL     OW54731   5.556   6.110   7.867 -0.7768 -0.0458  0.1054
17877SOL    HW154732   5.615   6.181   7.893  1.3917 -1.5214 -0.4814
17877SOL    HW254733   5.542   6.124   7.774 -3.3860  1.6273  0.6468
17878SOL     OW54734   1.286   0.705   7.420 -0.6965 -0.5176 -0.2007
17878SOL    HW154735   1.230   0.776   7.453  1.3581  1.5125 -0.7976
17878SOL    HW254736   1.249   0.682   7.335 -1.2189  0.0517 -0.1353
17879SOL     OW54737   7.186   3.248   8.815 -0.2790 -0.3165 -0.0313
17879SOL    HW154738   7.176   3.236   8.909 -0.4790 -1.4497 -0.1824
17879SOL    HW254739   7.159   3.165   8.777  1.6434 -0.5693 -0.9724
17880SOL     OW54740   0.465   5.480   7.883 -0.1215 -0.0266 -0.1636
17880SOL    HW154741   0.447   5.450   7.794  0.3655  0.9652 -0.6106
17880SOL    HW254742   0.410   5.558   7.894  0.3875  0.3008  0.1203
17881SOL     OW54743   8.379   8.482   3.530 -0.6702  0.5519  0.1474
17881SOL    HW154744   8.306   8.518   3.580 -0.4708  1.8090 -0.4290
17881SOL    HW254745   8.457   8.512   3.578 -0.5019 -0.7152  0.7170
17882SOL     OW54746   2.250   4.678   0.500  0.2930  0.5548 -0.0304
17882SOL    HW154747   2.332   4.726   0.513  0.7310 -0.1954 -0.0038
17882SOL    HW254748   2.276   4.588   0.483 -0.4777  0.5178 -1.1961
17883SOL     OW54749   8.332   3.333   4.025  1.2145  0.1644  0.1107
17883SOL    HW154750   8.246   3.351   3.986  0.1646 -2.7032  0.8667
17883SOL    HW254751   8.373   3.270   3.966  1.2043 -1.2716  1.5669
17884SOL     OW54752   0.414   4.350   1.042  0.7154  0.4941 -0.4311
17884SOL    HW154753   0.441   4.373   0.953  1.4471  1.2508 -0.0350
17884SOL    HW254754   0.356   4.275   1.032  1.7629 -0.2006 -1.4556
17885SOL     OW54755   0.043   4.939   1.578 -0.1039  0.4568 -0.1811
17885SOL    HW154756   0.095   5.013   1.609  0.7253 -0.4196  0.5973
17885SOL    HW254757  -0.045   4.975   1.568 -0.8090  0.6643  4.4575
17886SOL     OW54758   2.933   6.881   7.816  0.2122 -0.3204  0.2053
17886SOL    HW154759   2.893   6.832   7.888  1.2877 -1.1903  0.2314
17886SOL    HW254760   3.009   6.924   7.855  0.2815 -0.0528 -0.2130
17887SOL     OW54761   2.232   0.387   7.052 -0.3510  0.2230 -0.2484
17887SOL    HW154762   2.268   0.304   7.019 -0.0311 -0.2330  1.1629
17887SOL    HW254763   2.161   0.360   7.110  0.5706  0.8410  1.2352
17888SOL     OW54764   7.721   6.108   8.618 -0.0915 -0.3233  0.1855
17888SOL    HW154765   7.750   6.063   8.539 -1.2359 -0.9944  0.1286
17888SOL    HW254766   7.795   6.163   8.643 -0.1211  0.8034 -1.9920
17889SOL     OW54767   4.468   2.276   8.784 -0.5440  0.1588 -0.1934
17889SOL    HW154768   4.550   2.273   8.735 -0.0656  1.6299  0.4426
17889SOL    HW254769   4.450   2.370   8.796 -2.4347 -0.1152 -0.4797
17890SOL     OW54770   2.171   7.727   6.198 -1.1294  0.1222  0.8128
17890SOL    HW154771   2.114   7.752   6.271 -1.4661  1.6669  0.0512
17890SOL    HW254772   2.207   7.809   6.166  3.2607 -0.8405  2.5303
17891SOL     OW54773   2.263   0.952   7.291 -0.1783  0.4836  0.0987
17891SOL    HW154774   2.321   0.993   7.228  0.2909 -1.9748 -1.1720
17891SOL    HW254775   2.256   0.861   7.263 -1.9988 -0.1116  2.1439
17892SOL     OW54776   6.179   5.009   8.173  0.6878  0.3544 -0.1273
17892SOL    HW154777   6.249   4.949   8.199  0.7678  0.4380 -0.1500
17892SOL    HW254778   6.167   4.992   8.079 -0.1511 -0.5151  0.1292
17893SOL     OW54779   4.774   0.963   2.080 -0.0606 -0.3047  0.8592
17893SOL    HW154780   4.724   0.948   2.160  0.1022 -1.0892  0.8241
17893SOL    HW254781   4.709   0.959   2.009  0.2736 -3.8291  0.5523
17894SOL     OW54782   2.197   7.427   7.110 -0.4710 -0.1201  0.0661
17894SOL    HW154783   2.106   7.449   7.089  0.1019  1.0470 -1.3761
17894SOL    HW254784   2.241   7.512   7.118  1.1689 -0.5994 -2.5586
17895SOL     OW54785   7.152   2.980   1.760  0.1222  0.3818  0.3668
17895SOL    HW154786   7.083   2.979   1.694  0.1959 -0.8076  0.2840
17895SOL    HW254787   7.111   2.947   1.839  0.7160 -0.8637  0.1756
17896SOL     OW54788   5.842   2.279   1.766  0.2220  0.5090  0.6162
17896SOL    HW154789   5.772   2.260   1.829 -0.0297 -0.6882  0.0039
17896SOL    HW254790   5.809   2.244   1.683  1.5714 -0.1365  0.3259
17897SOL     OW54791   7.947   6.463   3.257 -0.2098 -0.2795 -0.1121
17897SOL    HW154792   7.991   6.533   3.304  1.7667 -0.0001 -2.2352
17897SOL    HW254793   7.855   6.490   3.255  0.2790  1.5589  0.3399
17898SOL     OW54794   1.552   3.405   0.165  0.2031  0.4397 -0.0096
17898SOL    HW154795   1.589   3.332   0.213 -0.0299  1.1623  1.2984
17898SOL    HW254796   1.629   3.457   0.138  0.3468 -0.0936 -0.6759
17899SOL     OW54797   1.880   7.907   5.456 -0.2863  0.1518 -0.1280
17899SOL    HW154798   1.940   7.905   5.381 -0.1014  0.7678 -0.0042
17899SOL    HW254799   1.901   7.829   5.506  1.8976  1.4031  1.0408
17900SOL     OW54800   2.185   4.504   2.874  0.4693  0.1168 -0.3159
17900SOL    HW154801   2.120   4.547   2.818 -0.3262 -1.1615 -0.4211
17900SOL    HW254802   2.135   4.475   2.951  1.0695 -0.2029 -0.0408
17901SOL     OW54803   1.437   6.220   3.798 -0.3264  0.1412 -0.0722
17901SOL    HW154804   1.372   6.150   3.789  0.8363 -1.0012  0.1695
17901SOL    HW254805   1.391   6.299   3.768 -1.3290 -0.8988 -1.4375
17902SOL     OW54806   4.612   8.068   4.847 -0.3359  0.0104 -0.0583
17902SOL    HW154807   4.629   8.161   4.832 -1.3369  0.1225 -0.5614
17902SOL    HW254808   4.694   8.024   4.822 -0.2143  0.6572 -0.8174
17903SOL     OW54809   3.237   3.419   4.816  0.7815  0.0734 -0.2724
17903SOL    HW154810   3.264   3.489   4.875  2.3585  1.0877 -2.0496
17903SOL    HW254811   3.315   3.402   4.763 -0.3576 -1.2150 -1.6243
17904SOL     OW54812   7.228   3.306   4.520  1.0897 -0.2612 -0.0400
17904SOL    HW154813   7.296   3.242   4.536  1.1073 -0.9772 -2.4966
17904SOL    HW254814   7.165   3.261   4.463  0.6177  1.5602 -1.0702
17905SOL     OW54815   3.762   1.065   7.560 -0.7913 -0.6160 -0.0554
17905SOL    HW154816   3.760   0.985   7.613  0.3555  0.4334  1.6989
17905SOL    HW254817   3.770   1.034   7.470  1.6530 -2.5297  0.6849
17906SOL     OW54818   0.708   8.177   3.512  0.4017 -0.1988 -0.1166
17906SOL    HW154819   0.712   8.109   3.444 -0.7535  1.2620 -1.7437
17906SOL    HW254820   0.694   8.129   3.593  1.0655 -1.9773 -1.0081
17907SOL     OW54821   0.549   5.401   6.798 -0.5508  0.0786 -0.1421
17907SOL    HW154822   0.626   5.361   6.840 -0.1163 -0.6524 -1.5601
17907SOL    HW254823   0.481   5.399   6.865 -0.0693 -1.6130  0.3423
17908SOL     OW54824   1.219   1.021   2.109  0.6211 -0.7795 -0.1045
17908SOL    HW154825   1.315   1.022   2.118  0.5371  2.0603  1.7831
17908SOL    HW254826   1.199   1.099   2.056 -0.7218 -0.1303  1.2926
17909SOL     OW54827   3.414   6.689   1.791  0.6627  0.1384  0.5256
17909SOL    HW154828   3.485   6.727   1.844  0.4924  0.9244  0.1905
17909SOL    HW254829   3.339   6.745   1.808  0.3868 -0.0984  0.0935
17910SOL     OW54830   0.215   1.316   2.398 -0.4110  0.2642  0.3156
17910SOL    HW154831   0.308   1.313   2.419 -0.2165 -0.7265 -0.6039
17910SOL    HW254832   0.171   1.281   2.475  0.2070 -2.1182 -0.3383
17911SOL     OW54833   4.612   2.317   3.710 -0.7297 -0.0368  0.4437
17911SOL    HW154834   4.688   2.268   3.740 -0.3790 -0.4533 -1.0371
17911SOL    HW254835   4.627   2.329   3.616 -2.4007  0.0191  0.1579
17912SOL     OW54836   8.406   8.266   4.594  0.3228  0.0574  0.2431
17912SOL    HW154837   8.475   8.286   4.529 -0.5860 -0.9430 -1.0902
17912SOL    HW254838   8.335   8.325   4.571 -0.2575 -0.7680 -0.1185
17913SOL     OW54839   8.140   3.786   4.914  0.2849  0.2037 -0.5791
17913SOL    HW154840   8.059   3.809   4.959  0.0412  0.4488 -1.1363
17913SOL    HW254841   8.126   3.697   4.882  1.7361 -1.4199  2.7747
17914SOL     OW54842   3.869   5.437   6.357  0.0174 -0.1724  0.1202
17914SOL    HW154843   3.960   5.413   6.341  0.5944  0.9732  1.4519
17914SOL    HW254844   3.842   5.485   6.278  0.7335 -0.0861 -0.0771
17915SOL     OW54845   4.849   7.361   2.703 -0.4091  0.0545 -0.7862
17915SOL    HW154846   4.885   7.278   2.735  1.9384  0.3973 -2.2481
17915SOL    HW254847   4.826   7.343   2.612  0.2718  1.0297 -1.1636
17916SOL     OW54848   5.514   3.228   2.207 -0.4034 -0.2682  0.6123
17916SOL    HW154849   5.577   3.171   2.251 -0.9204 -0.9370  0.5071
17916SOL    HW254850   5.438   3.173   2.193 -0.0131 -0.3050 -1.7888
17917SOL     OW54851   6.513   0.318   4.298 -0.0503  0.2456 -0.5482
17917SOL    HW154852   6.480   0.387   4.240 -3.6967 -0.7822  0.0065
17917SOL    HW254853   6.524   0.242   4.240 -3.2997 -0.6651 -0.1742
17918SOL     OW54854   7.430   7.538   2.844  0.0674 -0.5297  0.4343
17918SOL    HW154855   7.417   7.501   2.757  0.8055 -1.9366  0.8858
17918SOL    HW254856   7.513   7.586   2.837 -0.4806  0.3745  0.0578
17919SOL     OW54857   6.414   6.736   4.524  0.3210  0.2322  0.2388
17919SOL    HW154858   6.451   6.806   4.579  0.8899 -0.5712  0.9023
17919SOL    HW254859   6.322   6.730   4.551  0.9167 -1.0972  2.1523
17920SOL     OW54860   1.405   1.442   6.661  0.3938 -0.5075 -0.3172
17920SOL    HW154861   1.431   1.521   6.613  1.4703 -0.4968  0.2708
17920SOL    HW254862   1.310   1.438   6.649  0.4036  0.5214 -0.8861
17921SOL     OW54863   5.388   4.447   8.102 -0.1445  0.1406  0.1893
17921SOL    HW154864   5.473   4.408   8.081 -1.1936 -1.3927 -1.5560
17921SOL    HW254865   5.387   4.529   8.053 -0.0428 -0.3352 -0.6389
17922SOL     OW54866   4.323   0.576   2.434 -0.0110  0.4892  0.5220
17922SOL    HW154867   4.364   0.657   2.402  0.4946 -0.2253 -0.6605
17922SOL    HW254868   4.395   0.527   2.473 -0.4644  0.9514  2.0319
17923SOL     OW54869   5.858   9.120   8.352  0.0651  0.5630  0.2701
17923SOL    HW154870   5.933   9.092   8.405 -0.0140 -0.1002  0.0432
17923SOL    HW254871   5.808   9.178   8.410 -0.6004 -0.9944  1.3423
17924SOL     OW54872   4.517   6.349   3.538 -0.2654 -0.9524  0.1424
17924SOL    HW154873   4.610   6.353   3.562 -0.0094  2.4674 -0.9071
17924SOL    HW254874   4.518   6.328   3.444 -0.3653  0.8411 -0.3034
17925SOL     OW54875   6.044   3.561   8.896 -0.0637  0.3554  0.2589
17925SOL    HW154876   6.128   3.608   8.890  1.5907 -2.2814  0.8902
17925SOL    HW254877   6.009   3.584   8.982  1.9540 -1.2957  1.6297
17926SOL     OW54878   4.397   4.626   0.083  0.8897 -0.3358 -0.2467
17926SOL    HW154879   4.401   4.718   0.055  0.6712  0.0136  0.8326
17926SOL    HW254880   4.478   4.613   0.131  0.0746 -0.1398  1.2328
17927SOL     OW54881   8.539   8.937   2.727 -0.1893 -0.3345 -0.2126
17927SOL    HW154882   8.507   9.016   2.684 -0.4995  0.7224  1.8081
17927SOL    HW254883   8.633   8.936   2.709  0.1312  1.4559  1.0583
17928SOL     OW54884   1.193   0.093   3.075  0.1155  0.0480  0.1012
17928SOL    HW154885   1.230   0.116   2.990 -2.1621  0.7543 -0.7605
17928SOL    HW254886   1.268   0.094   3.134  2.0217 -1.7396 -2.0693
17929SOL     OW54887   7.168   8.884   7.851  0.8666 -0.1378 -0.2403
17929SOL    HW154888   7.197   8.905   7.762  1.3862  0.6171  0.0992
17929SOL    HW254889   7.128   8.965   7.882 -1.1165 -0.9786 -0.4799
17930SOL     OW54890   2.251   6.224   3.265  0.5615  0.1969 -0.0941
17930SOL    HW154891   2.274   6.270   3.346 -1.6752  2.5166 -0.6363
17930SOL    HW254892   2.286   6.278   3.195 -0.2236 -0.0866 -0.7284
17931SOL     OW54893   6.110   8.507   5.329 -0.3071  0.4370  0.7137
17931SOL    HW154894   6.099   8.602   5.325 -2.1345  0.2923  1.5778
17931SOL    HW254895   6.053   8.479   5.400  0.3352 -1.3047  0.5828
17932SOL     OW54896   1.777   4.946   5.649 -0.1139  0.4981 -0.8145
17932SOL    HW154897   1.772   4.864   5.697  2.1018  0.1577 -1.0761
17932SOL    HW254898   1.731   5.009   5.704 -1.2500 -0.7401 -0.2843
17933SOL     OW54899   5.877   5.185   3.559  0.3648  0.1645  0.1490
17933SOL    HW154900   5.938   5.258   3.547  0.6117 -0.1946 -0.9498
17933SOL    HW254901   5.825   5.185   3.479 -1.6083  0.9253  1.3777
17934SOL     OW54902   9.058   2.519   6.895 -0.0820  0.1616 -0.1867
17934SOL    HW154903   8.978   2.569   6.910  0.4722  1.0266 -0.0589
17934SOL    HW254904   9.129   2.583   6.903  0.5992 -0.4931 -0.7700
17935SOL     OW54905   1.042   1.532   5.264 -0.0217  0.0122  0.0087
17935SOL    HW154906   1.102   1.470   5.222  0.9269  1.5184 -0.9265
17935SOL    HW254907   0.956   1.493   5.253  0.5685 -1.2415 -0.3714
17936SOL     OW54908   4.331   7.959   1.604 -0.2334  0.7827  0.3427
17936SOL    HW154909   4.351   7.908   1.683 -0.7644  0.9956  0.6185
17936SOL    HW254910   4.414   8.000   1.581 -0.0521  0.6515  0.7428
17937SOL     OW54911   0.941   3.579   2.020 -0.1593  0.0935 -0.5953
17937SOL    HW154912   0.952   3.651   2.083 -1.1865 -0.4583  0.2588
17937SOL    HW254913   0.967   3.616   1.936  1.6928  0.7243  0.2062
17938SOL     OW54914   2.031   6.367   3.124  0.9945  0.3718 -0.3129
17938SOL    HW154915   2.060   6.458   3.127  1.3866  0.2815 -1.1522
17938SOL    HW254916   2.089   6.320   3.184  0.4576  0.7618  0.5171
17939SOL     OW54917   6.628   1.962   1.685 -0.1730  0.1373  0.0179
17939SOL    HW154918   6.653   1.870   1.695 -1.3380 -0.2177 -0.2421
17939SOL    HW254919   6.544   1.969   1.730  0.6938  1.4850  1.5816
17940SOL     OW54920   8.221   3.765   1.139 -0.4456  0.1420  0.1435
17940SOL    HW154921   8.149   3.706   1.160 -0.0284 -1.0567 -1.5995
17940SOL    HW254922   8.209   3.785   1.046  0.4856  1.3384  0.2539
17941SOL     OW54923   2.038   8.529   8.946  0.5556  0.1218  0.5992
17941SOL    HW154924   2.019   8.519   9.039 -1.5895 -1.2942  0.0641
17941SOL    HW254925   2.121   8.484   8.934 -0.3918 -1.9464  1.4230
17942SOL     OW54926   7.670   4.800   1.301  0.1633  0.2530 -0.4397
17942SOL    HW154927   7.590   4.853   1.303  0.0917  0.1934 -1.3588
17942SOL    HW254928   7.740   4.861   1.324 -0.4272 -0.3492  3.7910
17943SOL     OW54929   6.168   7.967   0.185 -0.3870 -0.0706 -0.0501
17943SOL    HW154930   6.245   7.952   0.131 -1.0101 -0.9023 -0.7320
17943SOL    HW254931   6.127   7.882   0.193 -1.1218  0.3229  0.4867
17944SOL     OW54932   4.941   5.520   2.589 -0.1876 -0.4872  0.3741
17944SOL    HW154933   4.890   5.512   2.509  1.1691 -1.5165 -0.4277
17944SOL    HW254934   5.027   5.550   2.560  0.2001 -0.4492  1.5035
17945SOL     OW54935   9.071   9.081   4.075 -0.1374  0.1555  0.5371
17945SOL    HW154936   9.155   9.035   4.084 -0.7903 -0.8398  1.8276
17945SOL    HW254937   9.056   9.083   3.981  0.0691 -2.0636  0.4027
17946SOL     OW54938   4.976   0.303   6.235  0.1015 -0.0892  0.5275
17946SOL    HW154939   5.067   0.289   6.259  0.0577 -2.3378 -0.3429
17946SOL    HW254940   4.965   0.255   6.152 -1.6290  0.9291  0.0983
17947SOL     OW54941   4.698   0.709   1.465  0.1744  0.0747  0.4043
17947SOL    HW154942   4.725   0.801   1.471 -0.3941  0.2180  0.8270
17947SOL    HW254943   4.605   0.713   1.443  0.5413 -0.4154 -1.4138
17948SOL     OW54944   8.159   7.016   1.493 -0.1870 -0.1542  0.0420
17948SOL    HW154945   8.167   7.063   1.410 -0.1779 -1.1679 -0.5429
17948SOL    HW254946   8.139   7.084   1.557 -0.2990  0.6297 -0.8055
17949SOL     OW54947   6.302   2.082   3.356  0.1624  0.1690  0.0878
17949SOL    HW154948   6.317   2.130   3.437  0.9696 -1.0919  0.7133
17949SOL    HW254949   6.390   2.066   3.322 -0.0828 -1.0333 -0.0016
17950SOL     OW54950   0.417   3.961   3.956 -0.5036 -0.7004 -0.2851
17950SOL    HW154951   0.490   4.015   3.986 -0.3338 -1.1795  0.1825
17950SOL    HW254952   0.339   4.012   3.977 -0.3463 -0.6535  0.1967
17951SOL     OW54953   3.102   5.451   8.603  0.2549 -0.7175  0.4308
17951SOL    HW154954   3.115   5.395   8.679 -1.1540 -1.0462  0.4605
17951SOL    HW254955   3.178   5.510   8.603  0.1315 -0.5001  2.2539
17952SOL     OW54956   2.004   0.632   8.910  0.1030  0.2562  0.4019
17952SOL    HW154957   2.047   0.613   8.993 -1.2661 -0.4306  0.9855
17952SOL    HW254958   1.994   0.727   8.908  1.1020  0.3769  0.5055
17953SOL     OW54959   0.410   8.291   2.415 -0.5842  0.5341  0.0421
17953SOL    HW154960   0.433   8.370   2.366 -0.6565 -0.5468 -1.8351
17953SOL    HW254961   0.494   8.247   2.431 -0.7866 -0.9320 -2.4375
17954SOL     OW54962   7.993   6.873   0.875  0.1112 -0.0746  0.4917
17954SOL    HW154963   8.025   6.896   0.788  1.3045 -1.7753  0.4332
17954SOL    HW254964   8.054   6.915   0.935  0.3224 -0.3613  0.4741
17955SOL     OW54965   6.808   3.952   7.914 -0.1218  0.1392 -0.6761
17955SOL    HW154966   6.730   3.982   7.961 -0.4532 -0.5845 -0.7445
17955SOL    HW254967   6.796   3.857   7.906  0.0359  0.2171 -2.0397
17956SOL     OW54968   7.084   0.660   4.538  0.1992 -0.0654 -0.2350
17956SOL    HW154969   7.053   0.603   4.608 -0.9415 -0.6558 -1.1737
17956SOL    HW254970   7.013   0.657   4.473 -0.6041  3.5520  0.2729
17957SOL     OW54971   5.025   5.471   3.033  0.5704 -0.0514  0.4792
17957SOL    HW154972   5.093   5.493   2.968 -0.1245 -1.3891 -0.7430
17957SOL    HW254973   4.963   5.544   3.027  1.1889  0.5045  0.6280
17958SOL     OW54974   4.674   4.814   1.393  0.2762 -0.4119 -0.1966
17958SOL    HW154975   4.655   4.773   1.478  0.3782 -1.5061 -0.6823
17958SOL    HW254976   4.641   4.751   1.329  0.0785  0.4675 -0.9787
17959SOL     OW54977   1.124   7.575   4.347  0.0788 -0.1916 -0.2035
17959SOL    HW154978   1.083   7.490   4.360 -2.9104  1.0580 -0.7741
17959SOL    HW254979   1.200   7.556   4.291 -0.5051 -2.4573 -0.3193
17960SOL     OW54980   3.970   1.694   7.360 -0.2201  0.2201  0.0353
17960SOL    HW154981   3.943   1.628   7.295  0.8411  0.6158 -0.8541
17960SOL    HW254982   4.016   1.760   7.308  0.2962  0.7574  1.1501
17961SOL     OW54983   1.847   2.384   1.994 -0.2686 -0.4522 -0.1395
17961SOL    HW154984   1.755   2.381   1.968 -0.1393 -0.9114 -0.5797
17961SOL    HW254985   1.852   2.327   2.071 -0.2680 -0.8132 -0.4042
17962SOL     OW54986   2.474   3.954   2.625 -0.0872  0.9538 -0.3925
17962SOL    HW154987   2.505   3.922   2.710 -1.2045  2.7228  0.7406
17962SOL    HW254988   2.550   3.998   2.587  0.2215  0.7781  0.0150
17963SOL     OW54989   6.277   5.786   8.148 -0.2745 -0.6038 -0.4872
17963SOL    HW154990   6.326   5.743   8.078 -1.3453 -2.7209 -0.0200
17963SOL    HW254991   6.222   5.717   8.185 -0.2497  0.5783  2.0019
17964SOL     OW54992   2.149   5.502   4.776  0.1046 -0.1429  0.1418
17964SOL    HW154993   2.234   5.529   4.812 -0.3342 -0.9094  1.8671
17964SOL    HW254994   2.097   5.478   4.853 -1.7708  0.5188 -0.8506
17965SOL     OW54995   5.344   4.345   6.986 -0.5006 -0.2161  0.4275
17965SOL    HW154996   5.409   4.283   6.953 -0.1418  0.2441  0.2595
17965SOL    HW254997   5.355   4.423   6.931 -2.2617 -0.6770 -0.6766
17966SOL     OW54998   9.029   2.580   3.551 -0.0835  0.0403  0.3113
17966SOL    HW154999   9.053   2.648   3.614  1.8532  0.9017 -1.2802
17966SOL    HW255000   8.988   2.627   3.479 -0.8964 -0.7766  0.2167
17967SOL     OW55001   3.029   4.092   7.114  0.1295  0.2325 -0.2265
17967SOL    HW155002   3.085   4.042   7.055 -1.2092  0.0515 -1.3940
17967SOL    HW255003   3.050   4.184   7.094  0.4793  0.1650 -0.1767
17968SOL     OW55004   8.492   6.444   6.587  0.3670 -0.4178  0.2056
17968SOL    HW155005   8.526   6.362   6.552  1.1577 -0.6254  1.3668
17968SOL    HW255006   8.550   6.511   6.551  0.3555 -0.4829  0.0663
17969SOL     OW55007   4.664   5.498   8.631 -0.0954  0.3125 -0.1716
17969SOL    HW155008   4.758   5.488   8.647  0.2283  1.5640 -1.2125
17969SOL    HW255009   4.629   5.409   8.641  1.1649 -0.1520  0.3321
17970SOL     OW55010   0.266   6.125   7.724 -0.3847 -0.0219 -0.3627
17970SOL    HW155011   0.312   6.201   7.689 -0.1222 -1.3736 -3.2286
17970SOL    HW255012   0.312   6.049   7.687 -1.2995 -1.5707  1.4963
17971SOL     OW55013   7.109   0.201   0.722  0.0660  0.6293 -0.2575
17971SOL    HW155014   7.108   0.150   0.802 -0.1368 -0.7319 -1.0943
17971SOL    HW255015   7.155   0.282   0.745  0.7375 -0.0844  1.0011
17972SOL     OW55016   8.226   1.467   1.653 -0.0587  0.2303  0.1172
17972SOL    HW155017   8.233   1.388   1.706 -0.8225 -0.2765 -0.5100
17972SOL    HW255018   8.268   1.446   1.570 -1.5777 -0.0722 -0.6212
17973SOL     OW55019   7.275   3.388   3.565 -0.2208 -0.0149  0.3894
17973SOL    HW155020   7.307   3.384   3.475  0.3990 -0.4479  0.6237
17973SOL    HW255021   7.286   3.480   3.591 -1.2792  0.3236 -0.2790
17974SOL     OW55022   7.266   1.702   1.745  0.4303 -0.8818 -0.1370
17974SOL    HW155023   7.343   1.689   1.801  1.1217  0.1396 -0.8287
17974SOL    HW255024   7.287   1.654   1.665  0.5665 -0.1903 -0.5186
17975SOL     OW55025   8.973   0.168   8.101 -0.5998  0.6610  0.5832
17975SOL    HW155026   8.899   0.140   8.047  0.4484 -0.7812 -0.1645
17975SOL    HW255027   8.993   0.256   8.070  0.2290 -0.2658 -1.7461
17976SOL     OW55028   8.257   6.612   1.130 -0.2385 -0.6390 -0.2562
17976SOL    HW155029   8.260   6.667   1.052  1.9188  0.2346  0.3890
17976SOL    HW255030   8.165   6.616   1.158 -1.3229 -1.7748 -3.2282
17977SOL     OW55031   2.310   7.116   6.451 -0.1315 -0.4881 -0.0114
17977SOL    HW155032   2.312   7.056   6.376 -0.9526  0.1155 -0.5356
17977SOL    HW255033   2.249   7.075   6.513 -0.0697 -0.5897 -0.0165
17978SOL     OW55034   7.872   0.541   3.688 -0.3750  0.6674  0.1537
17978SOL    HW155035   7.967   0.528   3.692 -0.1584  1.6437 -1.1741
17978SOL    HW255036   7.836   0.452   3.680  0.6498  0.3922 -2.3130
17979SOL     OW55037   1.405   6.055   0.859 -0.5636 -0.2993 -0.1324
17979SOL    HW155038   1.425   5.962   0.861 -1.8522 -0.5791  2.3228
17979SOL    HW255039   1.312   6.061   0.877 -0.5055  1.4817 -0.2213
17980SOL     OW55040   8.693   2.933   7.042  0.4643  0.0464  0.5382
17980SOL    HW155041   8.639   2.911   7.118  0.9239  1.1008  1.1842
17980SOL    HW255042   8.630   2.955   6.973  0.0544 -0.5307  0.7258
17981SOL     OW55043   7.585   4.722   6.130  0.1294 -0.6503  0.1673
17981SOL    HW155044   7.574   4.786   6.200 -1.7946  0.8809 -1.3923
17981SOL    HW255045   7.499   4.679   6.124 -0.1694  0.0888 -1.9224
17982SOL     OW55046   8.689   0.314   3.118  0.1526 -0.3826 -0.5903
17982SOL    HW155047   8.676   0.393   3.066 -0.8954  0.2386  0.5686
17982SOL    HW255048   8.783   0.314   3.137  0.3262  0.0654 -1.3939
17983SOL     OW55049   2.107   8.818   8.658 -0.0785  0.1440  0.1977
17983SOL    HW155050   2.022   8.780   8.679 -0.2096 -0.1019 -0.7608
17983SOL    HW255051   2.120   8.885   8.726 -2.1835  1.9446 -1.0164
17984SOL     OW55052   3.564   1.464   3.951  0.0893  0.0973  0.3050
17984SOL    HW155053   3.608   1.533   4.001 -0.4695  1.5597 -1.1277
17984SOL    HW255054   3.553   1.392   4.013  3.2206  0.1701  1.1272
17985SOL     OW55055   1.583   4.805   6.344  0.2896  0.1766 -0.2604
17985SOL    HW155056   1.605   4.839   6.430 -0.5436  0.1745 -0.0383
17985SOL    HW255057   1.510   4.860   6.314  0.0453 -0.3328 -0.6146
17986SOL     OW55058   0.556   6.375   3.327  0.0074  0.6963 -0.8160
17986SOL    HW155059   0.611   6.426   3.268  0.2575  1.2037 -0.1603
17986SOL    HW255060   0.496   6.329   3.269  2.3663 -1.4618 -1.7313
17987SOL     OW55061   7.008   7.226   5.479 -0.2114 -0.1227 -0.2010
17987SOL    HW155062   6.988   7.157   5.541 -0.7945  0.7787  0.6456
17987SOL    HW255063   7.099   7.251   5.499 -0.3336  0.0318  0.1694
17988SOL     OW55064   1.915   7.319   2.423  0.7309 -0.0054 -0.7516
17988SOL    HW155065   1.903   7.322   2.328 -1.0483 -1.2162 -0.6120
17988SOL    HW255066   2.007   7.294   2.435  0.8651 -0.2519 -2.1644
17989SOL     OW55067   4.006   4.124   1.340 -0.1693 -0.0311  0.0239
17989SOL    HW155068   4.070   4.070   1.387  1.0996  0.2285 -1.3216
17989SOL    HW255069   3.939   4.062   1.311  0.0000 -0.4773  0.5736
17990SOL     OW55070   5.021   7.862   2.955  0.3031  0.1000 -0.1626
17990SOL    HW155071   5.082   7.789   2.965 -0.1505 -0.5671 -1.9325
17990SOL    HW255072   5.075   7.936   2.927  0.4002 -0.3230 -1.1135
17991SOL     OW55073   4.369   0.169   1.350 -0.3026 -0.0414  0.2463
17991SOL    HW155074   4.351   0.096   1.290  2.4226 -0.6752  0.0908
17991SOL    HW255075   4.374   0.246   1.294  0.1693 -0.2902 -0.0549
17992SOL     OW55076   4.182   3.497   0.341  0.2069  0.3656 -0.6098
17992SOL    HW155077   4.171   3.417   0.393  1.7321  0.6395  0.1759
17992SOL    HW255078   4.163   3.568   0.402  2.2304  0.6982 -0.3007
17993SOL     OW55079   5.553   7.729   5.192  0.0086 -0.1298 -0.7692
17993SOL    HW155080   5.589   7.816   5.174  0.6494 -0.3702 -0.6999
17993SOL    HW255081   5.628   7.680   5.225 -0.6161 -0.3628  0.3391
17994SOL     OW55082   1.322   1.100   7.892  0.3016  0.4073 -0.4930
17994SOL    HW155083   1.296   1.043   7.820  0.7736  1.8320 -1.8440
17994SOL    HW255084   1.295   1.187   7.865  0.1718  0.9349  1.2361
17995SOL     OW55085   1.959   3.498   6.399  0.2848 -0.2772  0.3324
17995SOL    HW155086   1.920   3.410   6.407  0.2493 -0.2053  1.0212
17995SOL    HW255087   1.980   3.523   6.489  1.0697  0.0764  0.0646
17996SOL     OW55088   1.282   2.808   7.556  0.4788  0.2239  0.6452
17996SOL    HW155089   1.355   2.867   7.535  1.7318 -1.3680  0.3546
17996SOL    HW255090   1.241   2.847   7.633  1.6196  1.1626  0.8096
17997SOL     OW55091   6.659   3.112   3.538  0.2580  0.1309 -0.3100
17997SOL    HW155092   6.612   3.091   3.619  1.6175 -0.3722  0.3939
17997SOL    HW255093   6.595   3.099   3.468 -0.7005 -0.2787  0.6165
17998SOL     OW55094   3.375   2.357   3.746  0.1535 -0.1244 -0.8339
17998SOL    HW155095   3.402   2.434   3.696 -0.8110  1.5382  1.0532
17998SOL    HW255096   3.456   2.311   3.767  0.6470 -0.3743 -3.0377
17999SOL     OW55097   8.536   4.052   8.921  0.1128 -0.2453 -0.1543
17999SOL    HW155098   8.557   3.990   8.991 -0.4334  1.1676  1.3411
17999SOL    HW255099   8.516   3.997   8.845  3.4015 -1.8165 -0.0915
18000SOL     OW55100   8.178   8.845   6.892  0.0351 -0.6087 -0.3590
18000SOL    HW155101   8.099   8.792   6.890 -0.0608 -0.4639 -0.4359
18000SOL    HW255102   8.157   8.917   6.952 -0.4948  0.3572 -1.6637
18001SOL     OW55103   2.957   1.168   3.796 -0.1624  0.1675  0.1630
18001SOL    HW155104   2.887   1.228   3.771  0.3526  1.2611  1.2467
18001SOL    HW255105   2.915   1.105   3.854 -0.5127  0.0391 -0.2248
18002SOL     OW55106   8.634   2.174   1.542  0.4750  0.5004  0.4884
18002SOL    HW155107   8.704   2.127   1.497  0.9015  2.5545 -1.1728
18002SOL    HW255108   8.576   2.205   1.472  0.0377  2.1022  1.4819
18003SOL     OW55109   7.205   3.569   6.962  0.3757  0.3735 -0.1211
18003SOL    HW155110   7.242   3.640   6.909 -1.5743  1.8119  0.3376
18003SOL    HW255111   7.229   3.489   6.915  2.5258  1.3012 -0.7365
18004SOL     OW55112   2.857   5.401   6.544 -0.3517 -0.4491  0.0591
18004SOL    HW155113   2.814   5.320   6.570  1.4752 -0.7488  2.5156
18004SOL    HW255114   2.884   5.387   6.454  1.0485 -3.1249  0.8089
18005SOL     OW55115   8.131   2.644   2.571 -0.8950 -0.7059  0.2496
18005SOL    HW155116   8.079   2.588   2.513 -0.0468 -0.5568 -0.6829
18005SOL    HW255117   8.210   2.592   2.589  0.4679  0.5995 -1.6022
18006SOL     OW55118   4.834   3.303   3.001 -0.9591 -0.3848 -0.2860
18006SOL    HW155119   4.921   3.343   3.002 -0.8695 -0.5797  1.2089
18006SOL    HW255120   4.836   3.246   2.924  0.2383 -0.3888 -0.2753
18007SOL     OW55121   6.382   7.927   0.006 -0.5590  0.4695 -0.0080
18007SOL    HW155122   6.456   7.869  -0.010  0.1830  0.1877  3.5984
18007SOL    HW255123   6.414   8.014  -0.016 -0.5430 -0.0455 -2.1938
18008SOL     OW55124   2.923   0.799   1.587  0.2921 -0.4136 -0.3219
18008SOL    HW155125   2.875   0.874   1.552  0.1530 -1.2921 -2.1353
18008SOL    HW255126   2.961   0.757   1.510  2.1572 -0.9951  0.8638
18009SOL     OW55127   1.368   1.628   5.515 -0.4726 -0.0706  0.2347
18009SOL    HW155128   1.276   1.634   5.491 -0.2631 -0.8849 -0.8750
18009SOL    HW255129   1.370   1.564   5.586 -0.8714  0.8030  1.0538
18010SOL     OW55130   8.234   8.726   0.084 -0.4125 -0.0314  0.5979
18010SOL    HW155131   8.198   8.806   0.123 -0.7718  0.1938 -0.1850
18010SOL    HW255132   8.329   8.735   0.094 -0.2740  1.5551 -1.4281
18011SOL     OW55133   1.303   0.829   6.455 -0.1297 -0.7454  0.9248
18011SOL    HW155134   1.226   0.822   6.398  0.0744  1.8518  0.2048
18011SOL    HW255135   1.372   0.781   6.408 -0.2936  0.3015 -0.4587
18012SOL     OW55136   7.147   2.634   7.923 -0.3330  0.0887  0.7103
18012SOL    HW155137   7.219   2.640   7.986  0.4155  1.9231 -0.2288
18012SOL    HW255138   7.137   2.723   7.890  0.3904 -0.9631 -2.8789
18013SOL     OW55139   0.146   6.336   3.521  0.0991 -0.4747 -0.4269
18013SOL    HW155140   0.200   6.286   3.582  0.1566 -1.8032 -1.5263
18013SOL    HW255141   0.173   6.427   3.534  1.5870 -0.9602  0.0338
18014SOL     OW55142   6.352   5.919   6.958 -0.3549  0.4664 -0.7133
18014SOL    HW155143   6.354   6.011   6.984 -0.8865  0.1367  0.5531
18014SOL    HW255144   6.424   5.911   6.894  0.7511  1.4047  0.3585
18015SOL     OW55145   3.176   8.029   3.067 -0.3423 -0.1221 -0.6060
18015SOL    HW155146   3.195   8.020   3.161 -0.9936 -0.5783 -0.5116
18015SOL    HW255147   3.163   8.123   3.054 -1.0289 -0.1303 -0.0700
18016SOL     OW55148   4.731   7.557   4.084 -0.0723  0.0612 -0.5977
18016SOL    HW155149   4.767   7.509   4.010 -0.0627  0.8903 -1.1496
18016SOL    HW255150   4.759   7.648   4.069  1.9451 -0.0982  1.6602
18017SOL     OW55151   7.443   2.720   2.847  0.1557 -0.6872 -0.0981
18017SOL    HW155152   7.355   2.705   2.882  0.0133 -0.2575 -0.2676
18017SOL    HW255153   7.501   2.708   2.922 -0.3103  2.7461  1.0057
18018SOL     OW55154   5.434   0.373   1.462  0.0677  0.0591 -0.2903
18018SOL    HW155155   5.495   0.412   1.399 -0.3682 -0.1869 -0.8729
18018SOL    HW255156   5.351   0.368   1.415 -0.4708  0.5915  0.5588
18019SOL     OW55157   8.682   2.665   4.737  0.3249  0.8752 -0.5280
18019SOL    HW155158   8.677   2.670   4.641  0.1254 -0.6958 -0.6263
18019SOL    HW255159   8.597   2.699   4.766  0.6430  1.9974 -0.8617
18020SOL     OW55160   2.484   3.572   8.576  0.3095 -0.4226  0.0739
18020SOL    HW155161   2.492   3.492   8.627 -1.5214 -1.1317 -0.6849
18020SOL    HW255162   2.416   3.553   8.512  0.8039  1.2867 -1.0240
18021SOL     OW55163   0.133   5.466   3.546 -0.7428  0.0808 -0.1518
18021SOL    HW155164   0.091   5.497   3.465 -0.8392 -0.9285 -0.5082
18021SOL    HW255165   0.179   5.542   3.580  0.5678  0.1579 -1.9648
18022SOL     OW55166   5.647   7.363   4.300 -0.2650  0.2513 -0.3490
18022SOL    HW155167   5.572   7.365   4.359  1.1814 -1.1353  1.6415
18022SOL    HW255168   5.710   7.424   4.339  1.4620 -2.0820  0.7227
18023SOL     OW55169   1.394   0.794   3.824  0.0123 -0.7004  0.7320
18023SOL    HW155170   1.403   0.726   3.757  1.5822 -0.8554  1.0601
18023SOL    HW255171   1.335   0.859   3.785 -0.1411 -1.4094 -0.2613
18024SOL     OW55172   6.691   7.323   8.757  0.1434  0.1305 -0.1745
18024SOL    HW155173   6.787   7.331   8.759  0.1613 -0.0115  1.5844
18024SOL    HW255174   6.667   7.308   8.849 -1.5973  0.4774 -0.5399
18025SOL     OW55175   1.538   0.169   3.566 -0.7559 -0.5797  0.0873
18025SOL    HW155176   1.470   0.233   3.541  0.0916 -0.0357 -0.9141
18025SOL    HW255177   1.491   0.104   3.618 -2.2221 -0.6405 -1.2154
18026SOL     OW55178   1.149   8.454   6.834 -0.4348  0.3704  0.1062
18026SOL    HW155179   1.070   8.408   6.805 -1.0521  1.4472  0.0293
18026SOL    HW255180   1.201   8.466   6.754 -0.4948  0.2303  0.0464
18027SOL     OW55181   1.004   4.603   2.533 -0.2236  0.0743 -0.4838
18027SOL    HW155182   1.040   4.533   2.479 -0.4164 -1.1642  0.9355
18027SOL    HW255183   1.068   4.614   2.604 -1.3950 -0.4364  0.6894
18028SOL     OW55184   8.726   5.603   3.565  0.1614  0.3230  0.1889
18028SOL    HW155185   8.716   5.688   3.606  3.1431  1.2326 -0.7249
18028SOL    HW255186   8.789   5.556   3.620  1.7433  0.3584 -1.4745
18029SOL     OW55187   8.861   2.703   5.490 -0.5826  0.5113 -0.1657
18029SOL    HW155188   8.949   2.719   5.456 -0.8601 -2.8434 -3.1065
18029SOL    HW255189   8.874   2.640   5.561 -0.5773 -0.0393 -0.6477
18030SOL     OW55190   4.718   8.700   1.500 -0.0980 -0.5057  0.1189
18030SOL    HW155191   4.665   8.629   1.537 -0.5109  0.5101  1.5638
18030SOL    HW255192   4.673   8.780   1.526  0.7163  0.3214 -0.9131
18031SOL     OW55193   1.802   0.064   6.336  0.2074  0.8596  0.1936
18031SOL    HW155194   1.852   0.058   6.418  1.2233 -1.2822 -0.5279
18031SOL    HW255195   1.868   0.068   6.267 -0.5610 -1.1683 -0.7326
18032SOL     OW55196   1.873   8.822   6.771  0.3237  0.2595  0.2486
18032SOL    HW155197   1.835   8.738   6.745  0.9788  0.2119 -0.5932
18032SOL    HW255198   1.798   8.877   6.792 -0.3911  0.7432 -3.0487
18033SOL     OW55199   6.047   5.268   2.409 -0.0323 -0.5929  0.4650
18033SOL    HW155200   6.001   5.184   2.400  0.2574 -0.6860 -0.2165
18033SOL    HW255201   6.119   5.250   2.469  0.1807 -0.8982  0.1199
18034SOL     OW55202   8.784   4.453   6.526 -0.1775  0.1636  0.0158
18034SOL    HW155203   8.822   4.367   6.543 -3.1915 -1.3707 -0.3148
18034SOL    HW255204   8.761   4.451   6.433 -1.5040  0.7608  0.2998
18035SOL     OW55205   0.497   6.614   1.128 -0.1900 -0.1911 -0.5182
18035SOL    HW155206   0.561   6.639   1.062 -0.9324  0.6812 -0.9254
18035SOL    HW255207   0.427   6.679   1.120 -0.9058 -0.8420  0.2367
18036SOL     OW55208   4.271   0.620   7.093 -0.5068 -0.1268  0.1091
18036SOL    HW155209   4.267   0.527   7.069 -0.5033 -0.8203  2.5469
18036SOL    HW255210   4.343   0.626   7.155  0.6960  1.9044 -1.3451
18037SOL     OW55211   4.193   1.000   0.346 -0.6182 -0.1102 -0.0485
18037SOL    HW155212   4.147   0.960   0.420 -1.3657 -0.8774 -0.9109
18037SOL    HW255213   4.262   0.937   0.323  0.9843  1.0603  1.2766
18038SOL     OW55214   4.694   3.510   1.352  0.2293  0.1262 -0.1460
18038SOL    HW155215   4.718   3.547   1.267 -1.9224  0.2583 -0.7474
18038SOL    HW255216   4.695   3.415   1.338  0.3099  0.1306 -0.1745
18039SOL     OW55217   7.888   1.272   5.481  0.5840 -0.6055 -0.1094
18039SOL    HW155218   7.850   1.277   5.569  2.1920  0.1657  0.5876
18039SOL    HW255219   7.818   1.237   5.426 -1.1925  0.9768  1.0407
18040SOL     OW55220   5.830   1.670   8.995  0.2336  0.3818  0.2634
18040SOL    HW155221   5.774   1.729   9.046 -0.3676 -0.0627  0.1212
18040SOL    HW255222   5.813   1.584   9.032  1.3416  0.3212  0.6792
18041SOL     OW55223   1.524   4.237   2.959  0.1703  0.1551 -0.5311
18041SOL    HW155224   1.486   4.248   2.872  1.0018  0.2143 -0.8874
18041SOL    HW255225   1.480   4.160   2.995 -0.1630  0.1222 -1.0063
18042SOL     OW55226   3.776   7.105   5.587 -0.7352  0.0300 -0.0675
18042SOL    HW155227   3.771   7.196   5.556  1.5758  0.5474  0.8931
18042SOL    HW255228   3.768   7.111   5.682 -1.6657 -0.9050 -0.0761
18043SOL     OW55229   6.150   7.594   4.908  0.0275  0.5823 -0.2807
18043SOL    HW155230   6.174   7.664   4.847 -0.2275  3.2706  2.4845
18043SOL    HW255231   6.218   7.527   4.895  0.1807  1.1644 -3.1514
18044SOL     OW55232   6.489   4.479   0.204 -0.3701  0.0359 -0.6034
18044SOL    HW155233   6.424   4.479   0.133 -0.7323 -0.7211 -0.2829
18044SOL    HW255234   6.572   4.461   0.161 -0.4773  0.2847 -0.9213
18045SOL     OW55235   4.518   0.249   5.549 -0.3702 -0.3382  0.0876
18045SOL    HW155236   4.476   0.325   5.588  0.6028 -0.3117  1.1331
18045SOL    HW255237   4.598   0.283   5.510  1.0062 -1.0297  2.1303
18046SOL     OW55238   4.128   4.007   1.815 -0.0398 -0.1443  0.2169
18046SOL    HW155239   4.191   4.077   1.829 -1.0104  0.7933 -0.0175
18046SOL    HW255240   4.168   3.930   1.856  1.2420  0.4260  0.0698
18047SOL     OW55241   0.907   7.712   5.722  0.1356 -0.4879 -0.0929
18047SOL    HW155242   0.881   7.802   5.701  0.7443 -0.5575 -1.2160
18047SOL    HW255243   0.969   7.688   5.653  0.2891 -1.6357  0.4186
18048SOL     OW55244   3.580   0.897   0.164 -0.0934 -0.1722 -0.6215
18048SOL    HW155245   3.658   0.907   0.219 -0.8719 -0.1562  0.5169
18048SOL    HW255246   3.612   0.908   0.074  1.2492 -0.4275 -0.1945
18049SOL     OW55247   3.757   1.683   3.784 -0.3624  0.1905  0.3846
18049SOL    HW155248   3.772   1.769   3.747  1.5246  0.3370  1.3075
18049SOL    HW255249   3.807   1.623   3.728 -1.5326 -0.2983 -0.1629
18050SOL     OW55250   1.672   6.349   3.901  0.4746  0.0262  0.5420
18050SOL    HW155251   1.638   6.392   3.979 -0.6215  0.9312 -0.4020
18050SOL    HW255252   1.597   6.304   3.863  1.1090 -0.8381  0.2827
18051SOL     OW55253   4.983   5.624   5.879  0.0000 -0.0093  0.6760
18051SOL    HW155254   4.993   5.650   5.787  0.5455 -1.5989  0.2488
18051SOL    HW255255   5.031   5.691   5.928  0.0660  0.6257 -0.2356
18052SOL     OW55256   4.853   0.264   0.951  0.6772 -0.1397  0.2946
18052SOL    HW155257   4.804   0.181   0.946  0.7853 -0.2123  0.4482
18052SOL    HW255258   4.923   0.253   0.887 -1.5888  1.3639 -2.7209
18053SOL     OW55259   6.900   7.526   6.574  0.0523  0.0996  0.2978
18053SOL    HW155260   6.954   7.507   6.498  0.6725 -0.5003  0.8775
18053SOL    HW255261   6.855   7.443   6.593 -0.1412  0.2586  0.5471
18054SOL     OW55262   7.702   2.480   6.537  0.2232 -0.7974  0.1882
18054SOL    HW155263   7.687   2.562   6.489  0.7631  0.3908  1.9528
18054SOL    HW255264   7.619   2.433   6.531 -0.1318 -0.0826 -0.7642
18055SOL     OW55265   4.227   8.085   6.443 -0.0707 -0.4235 -0.2935
18055SOL    HW155266   4.300   8.144   6.465 -0.6727 -0.2202  1.2692
18055SOL    HW255267   4.182   8.129   6.371  0.6256  0.0423 -0.4614
18056SOL     OW55268   8.844   3.423   5.008  0.2882  0.3744  0.3360
18056SOL    HW155269   8.779   3.360   4.978  0.8734 -0.6925  1.2160
18056SOL    HW255270   8.814   3.449   5.095  0.3956  0.8181  0.2433
18057SOL     OW55271   1.963   3.150   7.991 -0.0792  0.2827  0.6670
18057SOL    HW155272   2.050   3.182   8.016 -0.1170  0.3237  0.7451
18057SOL    HW255273   1.906   3.226   7.999  0.0603  0.5073 -0.3487
18058SOL     OW55274   4.959   3.356   0.023 -0.0818  0.1308  0.0242
18058SOL    HW155275   4.882   3.401   0.058  0.8808  1.3701  0.6285
18058SOL    HW255276   5.003   3.422  -0.030  0.0299 -0.8794 -1.1692
18059SOL     OW55277   3.225   2.518   8.661 -0.1921 -0.0992  0.1576
18059SOL    HW155278   3.309   2.562   8.670 -0.1276 -0.0875 -0.4681
18059SOL    HW255279   3.172   2.553   8.733 -0.3349  1.4523 -0.6592
18060SOL     OW55280   8.895   2.823   2.880  0.3323  0.0333  0.4598
18060SOL    HW155281   8.907   2.783   2.794 -2.2448  0.7398 -0.2947
18060SOL    HW255282   8.893   2.749   2.941 -1.0406 -0.7645 -0.5059
18061SOL     OW55283   1.454   2.126   5.556 -0.4881 -0.1922  0.0244
18061SOL    HW155284   1.524   2.084   5.606 -1.1866 -1.5795 -0.1270
18061SOL    HW255285   1.386   2.059   5.548 -1.6222  0.9649 -0.2770
18062SOL     OW55286   2.535   4.692   5.742  0.3765 -0.2313 -0.6602
18062SOL    HW155287   2.481   4.756   5.694  1.2791  0.4667 -0.7833
18062SOL    HW255288   2.531   4.721   5.833 -0.4726 -0.9289 -0.4679
18063SOL     OW55289   1.152   4.593   6.271  1.0309 -0.2224  0.1129
18063SOL    HW155290   1.058   4.584   6.280  0.9138 -0.0234 -0.8504
18063SOL    HW255291   1.166   4.616   6.179  2.1539 -2.3572 -0.3194
18064SOL     OW55292   6.153   2.664   6.198  0.3914  0.1721 -0.3835
18064SOL    HW155293   6.216   2.618   6.254 -0.5660 -0.6017  0.0824
18064SOL    HW255294   6.135   2.746   6.245  0.6730  0.1674 -0.2656
18065SOL     OW55295   8.856   8.867   2.434 -0.5008  0.0325  0.6957
18065SOL    HW155296   8.825   8.942   2.383 -0.8667  0.5391  1.6441
18065SOL    HW255297   8.802   8.794   2.403 -0.3287  0.2024 -0.0374
18066SOL     OW55298   7.768   2.477   8.174 -0.3517 -0.0774 -0.3149
18066SOL    HW155299   7.729   2.394   8.201 -0.3170 -0.6772 -1.9624
18066SOL    HW255300   7.699   2.520   8.123  0.5182 -0.3595 -1.7797
18067SOL     OW55301   1.778   5.457   4.559 -0.7597  0.1158 -0.2252
18067SOL    HW155302   1.867   5.483   4.534 -0.5323  0.6859  1.1230
18067SOL    HW255303   1.790   5.384   4.619 -1.1600  0.7511  0.6374
18068SOL     OW55304   3.149   8.327   3.071  0.5950 -0.2027  0.1560
18068SOL    HW155305   3.150   8.376   2.989 -1.7620 -2.1451 -1.1620
18068SOL    HW255306   3.225   8.360   3.120  0.5429  2.9257 -1.6202
18069SOL     OW55307   2.094   3.440   3.860 -0.5695  0.3127  0.4808
18069SOL    HW155308   2.018   3.393   3.828 -0.3518 -0.3615  0.9344
18069SOL    HW255309   2.069   3.469   3.948 -0.1051 -0.4228  0.8686
18070SOL     OW55310   5.301   0.091   2.845 -0.1403 -0.2075 -0.1870
18070SOL    HW155311   5.343   0.037   2.779 -0.6604 -0.4921 -0.2904
18070SOL    HW255312   5.207   0.081   2.829 -0.2500  0.8119 -0.2792
18071SOL     OW55313   5.253   7.446   5.731  0.2172  0.2005 -0.9191
18071SOL    HW155314   5.260   7.382   5.802  0.6250 -0.6914 -1.7347
18071SOL    HW255315   5.164   7.479   5.738  0.7472  1.3931  1.0425
18072SOL     OW55316   8.256   1.748   6.075 -0.5818 -0.6415  0.1025
18072SOL    HW155317   8.163   1.732   6.086 -0.8083  0.3120 -0.3857
18072SOL    HW255318   8.284   1.684   6.010 -1.5463  1.0606 -2.0829
18073SOL     OW55319   2.756   1.192   5.170  0.5287  0.3869  0.4051
18073SOL    HW155320   2.794   1.250   5.236 -0.4270 -0.0932  1.4207
18073SOL    HW255321   2.715   1.122   5.221 -0.7881  0.3338 -0.6837
18074SOL     OW55322   3.420   4.008   0.871  0.2411  0.4230 -0.2370
18074SOL    HW155323   3.503   3.969   0.843  0.4258  1.5245 -1.2739
18074SOL    HW255324   3.443   4.060   0.948  0.1986 -0.5387  0.4523
18075SOL     OW55325   7.312   6.098   7.370  0.5928 -0.4814 -0.5046
18075SOL    HW155326   7.371   6.023   7.359  1.2322  0.1364 -1.4886
18075SOL    HW255327   7.353   6.151   7.438  1.9652  0.6203 -2.0903
18076SOL     OW55328   7.406   7.931   1.978 -0.1737 -0.2852 -0.2427
18076SOL    HW155329   7.420   7.844   2.015  2.2760 -0.3780 -1.2056
18076SOL    HW255330   7.480   7.982   2.010 -1.1854  1.2714 -0.2851
18077SOL     OW55331   8.656   2.215   7.943 -0.0247 -0.4188  0.3127
18077SOL    HW155332   8.726   2.259   7.991  1.9524 -1.2969 -1.6045
18077SOL    HW255333   8.641   2.134   7.992 -0.8765  0.4552  1.5941
18078SOL     OW55334   2.410   4.507   1.072  0.6016  1.1789 -0.1032
18078SOL    HW155335   2.425   4.525   1.165  0.4380  1.5810 -0.1562
18078SOL    HW255336   2.437   4.415   1.062 -0.3345  0.8225  0.5454
18079SOL     OW55337   0.193   6.243   8.531 -0.4982  0.0313  0.5456
18079SOL    HW155338   0.215   6.204   8.446  2.7890  0.9367  0.8414
18079SOL    HW255339   0.141   6.320   8.509 -2.3886 -1.3986 -0.3633
18080SOL     OW55340   3.622   2.704   0.279 -0.4420  0.2057 -0.0472
18080SOL    HW155341   3.714   2.685   0.261  0.2528  1.8815  1.3841
18080SOL    HW255342   3.606   2.789   0.236 -1.1477  0.2130  0.2148
18081SOL     OW55343   4.305   7.013   7.088 -0.4555  0.5968 -0.1812
18081SOL    HW155344   4.360   7.055   7.022 -1.6396  0.3229 -1.3790
18081SOL    HW255345   4.299   7.077   7.158  2.1863  0.2515  0.4680
18082SOL     OW55346   6.818   2.009   0.501  0.5636  0.2252 -0.8843
18082SOL    HW155347   6.909   1.988   0.482  0.0955 -0.5946 -2.3825
18082SOL    HW255348   6.770   1.983   0.422 -1.2060 -1.0524  0.5113
18083SOL     OW55349   6.174   4.979   2.890  0.4128  0.0157 -0.0621
18083SOL    HW155350   6.174   4.932   2.807 -1.6966 -0.4669  0.1527
18083SOL    HW255351   6.221   5.061   2.871  1.0714 -0.6292 -1.3598
18084SOL     OW55352   4.512   6.645   5.371  0.0855 -0.1375  0.3570
18084SOL    HW155353   4.492   6.552   5.362  0.4561 -0.2495  0.6629
18084SOL    HW255354   4.602   6.648   5.403  0.5150  0.3532 -0.8200
18085SOL     OW55355   5.760   5.288   5.705  0.0218  0.3418  0.0279
18085SOL    HW155356   5.796   5.239   5.631 -0.4448 -0.5230  0.3656
18085SOL    HW255357   5.673   5.252   5.718 -1.3824  2.9630 -1.3014
18086SOL     OW55358   2.279   1.360   4.813 -0.3463 -0.1288  0.3385
18086SOL    HW155359   2.312   1.384   4.900  0.8884  0.9372 -0.3905
18086SOL    HW255360   2.249   1.442   4.775 -1.4435 -0.6799 -0.0397
18087SOL     OW55361   1.754   5.452   7.922 -0.6575  0.2583 -0.5579
18087SOL    HW155362   1.714   5.368   7.946 -0.4078  0.0775 -0.7867
18087SOL    HW255363   1.679   5.512   7.914 -0.8779 -0.0583 -0.8895
18088SOL     OW55364   3.194   8.226   5.737  0.0026 -0.0650 -0.2706
18088SOL    HW155365   3.227   8.136   5.731  1.3963  0.3521  0.7663
18088SOL    HW255366   3.199   8.258   5.647 -2.5646 -1.6608 -1.1030
18089SOL     OW55367   2.817   2.529   6.055 -0.8398  0.0570 -0.4368
18089SOL    HW155368   2.730   2.569   6.062 -1.2770 -1.0377  0.5670
18089SOL    HW255369   2.866   2.565   6.129 -0.6724  0.0712 -0.5526
18090SOL     OW55370   0.512   0.739   3.943  0.0903 -0.3319  0.4033
18090SOL    HW155371   0.541   0.757   3.854  1.1959 -1.6975  0.4627
18090SOL    HW255372   0.417   0.731   3.936  0.2903 -2.2016 -1.0219
18091SOL     OW55373   1.234   4.613   8.478  0.3629  0.2699 -0.8021
18091SOL    HW155374   1.154   4.562   8.480 -2.1093  3.6028  3.3630
18091SOL    HW255375   1.212   4.691   8.427  0.8344  1.3073  0.5213
18092SOL     OW55376   5.184   7.076   4.124  0.6251  0.3910 -0.0722
18092SOL    HW155377   5.156   7.092   4.034 -1.5539  0.0754  0.5069
18092SOL    HW255378   5.208   6.983   4.126 -0.0037  0.2264 -0.1606
18093SOL     OW55379   0.177   8.385   4.735  0.3900 -0.9395 -0.3491
18093SOL    HW155380   0.163   8.382   4.830 -0.1054 -1.5122 -0.4379
18093SOL    HW255381   0.269   8.359   4.724  0.1971 -1.7842 -0.0781
18094SOL     OW55382   5.323   1.167   8.067 -0.0955  0.1567 -0.8141
18094SOL    HW155383   5.320   1.241   8.006  0.7333  0.6401 -0.2862
18094SOL    HW255384   5.371   1.200   8.143 -0.1989 -0.7566 -0.3368
18095SOL     OW55385   8.181   9.057   3.476 -0.0058  0.4494  0.4606
18095SOL    HW155386   8.219   8.970   3.496 -1.0783 -0.3473 -0.8333
18095SOL    HW255387   8.191   9.066   3.381 -0.3664  1.5443  0.5158
18096SOL     OW55388   0.479   5.937   2.775  0.4837  0.2842  0.0259
18096SOL    HW155389   0.403   5.937   2.716  1.0944  1.2163 -0.7905
18096SOL    HW255390   0.453   5.995   2.847 -0.8454 -2.0087  1.5316
18097SOL     OW55391   3.753   4.895   4.446  0.6080 -0.1878  0.6374
18097SOL    HW155392   3.736   4.919   4.355 -2.2093 -1.7414  0.6275
18097SOL    HW255393   3.777   4.977   4.488  2.1612  0.5465 -1.5034
18098SOL     OW55394   1.059   5.934   1.861 -0.0689  0.3798  0.8191
18098SOL    HW155395   1.079   6.008   1.803  0.0604  0.1567  0.5760
18098SOL    HW255396   0.969   5.949   1.889 -1.1258 -0.9364 -1.6141
18099SOL     OW55397   8.391   4.279   3.896  0.1719 -0.0293 -0.3270
18099SOL    HW155398   8.328   4.249   3.961  0.1025  1.0069  0.1109
18099SOL    HW255399   8.442   4.346   3.942  1.4347 -0.6658 -0.7435
18100SOL     OW55400   3.052   5.446   7.504  0.1968 -0.5659  0.3952
18100SOL    HW155401   3.099   5.364   7.517 -0.0394 -0.7124  0.3171
18100SOL    HW255402   3.068   5.469   7.412  0.0147 -0.6775  0.3359
18101SOL     OW55403   5.959   2.286   8.265  0.0901 -0.0285  0.3748
18101SOL    HW155404   5.883   2.247   8.221  1.8334 -2.2641 -0.8466
18101SOL    HW255405   5.940   2.276   8.358 -0.6981 -1.4546  0.0894
18102SOL     OW55406   8.709   2.247   4.612  0.1299 -0.3425  0.5403
18102SOL    HW155407   8.620   2.226   4.584  0.5004 -0.3704 -0.6473
18102SOL    HW255408   8.698   2.283   4.700 -1.3313  2.1277 -0.5445
18103SOL     OW55409   3.626   7.351   2.584 -0.3403 -0.0357 -0.1208
18103SOL    HW155410   3.630   7.434   2.631  0.1888  1.1451 -2.1516
18103SOL    HW255411   3.533   7.336   2.570 -0.4902 -0.2629  1.0009
18104SOL     OW55412   8.342   5.897   5.745  0.0717  0.5776  0.0595
18104SOL    HW155413   8.420   5.855   5.708 -0.2681  1.0156 -1.2018
18104SOL    HW255414   8.282   5.826   5.765  0.5604  0.2810  0.4912
18105SOL     OW55415   8.432   7.085   4.511 -0.1228  0.0791  0.0814
18105SOL    HW155416   8.501   7.034   4.468 -0.0930  0.2489 -0.0780
18105SOL    HW255417   8.370   7.020   4.544  1.0284 -0.1786  1.8418
18106SOL     OW55418   0.462   4.293   4.336  0.1337  0.0873 -0.2916
18106SOL    HW155419   0.552   4.299   4.302  0.6327 -1.6620  0.6107
18106SOL    HW255420   0.442   4.199   4.337 -1.2295  0.3474  0.7132
18107SOL     OW55421   5.262   2.700   2.820  0.0342  0.2115  0.6207
18107SOL    HW155422   5.260   2.649   2.739  2.6828  0.2730  0.4340
18107SOL    HW255423   5.232   2.639   2.888 -0.5487 -0.3750 -0.1499
18108SOL     OW55424   3.418   5.451   1.464  0.0560  0.7360  0.0531
18108SOL    HW155425   3.357   5.521   1.442  1.0619  2.1955  1.6817
18108SOL    HW255426   3.504   5.484   1.438  0.5347  0.0602  0.7286
18109SOL     OW55427   4.833   7.840   4.453  0.6477  0.3528  0.0753
18109SOL    HW155428   4.826   7.867   4.362  0.8499  0.6470  0.1475
18109SOL    HW255429   4.747   7.859   4.491  0.7670  0.8154  0.1077
18110SOL     OW55430   3.032   3.942   3.614  0.4779  0.2883  0.3364
18110SOL    HW155431   3.126   3.936   3.595  0.3664 -0.7980  0.0739
18110SOL    HW255432   3.002   3.851   3.617 -0.7819  0.6414 -0.6808
18111SOL     OW55433   0.068   4.525   5.078 -0.1080 -0.0951 -0.4141
18111SOL    HW155434  -0.002   4.466   5.107 -0.8780  0.8838 -0.2024
18111SOL    HW255435   0.132   4.467   5.036 -1.6578 -0.9202 -1.8123
18112SOL     OW55436   2.159   0.570   7.980 -0.1877  0.4127  0.3647
18112SOL    HW155437   2.106   0.598   8.055 -1.1432 -0.2093 -0.0523
18112SOL    HW255438   2.102   0.511   7.932  1.2553 -1.0920  0.4269
18113SOL     OW55439   8.905   7.427   2.097 -0.2332  0.4820  0.0909
18113SOL    HW155440   8.866   7.384   2.021  2.0936 -0.7633 -0.5228
18113SOL    HW255441   8.831   7.463   2.146 -2.0681 -1.4594 -1.0791
18114SOL     OW55442   2.366   2.853   0.316 -0.4860  0.3430 -0.1416
18114SOL    HW155443   2.428   2.853   0.243  0.2408  1.8769  0.4583
18114SOL    HW255444   2.403   2.912   0.380 -1.7392 -0.0236  0.9694
18115SOL     OW55445   1.763   4.839   0.043  0.1687 -0.3730  0.4129
18115SOL    HW155446   1.815   4.795  -0.024 -0.7798  3.0098 -2.9419
18115SOL    HW255447   1.672   4.829   0.013 -0.5842 -0.9544  2.7096
18116SOL     OW55448   8.044   4.803   5.398 -0.8733 -0.0434  0.1806
18116SOL    HW155449   7.949   4.795   5.404 -0.9862  1.3066  0.5837
18116SOL    HW255450   8.066   4.762   5.314 -1.7554 -0.7132  0.2646
18117SOL     OW55451   2.831   1.921   2.121 -0.7246  0.3788 -0.4452
18117SOL    HW155452   2.800   1.876   2.043  0.5758 -1.9267  0.2634
18117SOL    HW255453   2.754   1.925   2.179 -1.1227 -0.0009 -0.9440
18118SOL     OW55454   4.718   5.434   3.397 -0.0923 -0.0997  0.4328
18118SOL    HW155455   4.808   5.461   3.377 -1.2681  2.4703 -2.1104
18118SOL    HW255456   4.707   5.452   3.490  1.9052 -0.2252  0.7347
18119SOL     OW55457   7.225   6.347   4.176  0.0089  0.1997  0.2376
18119SOL    HW155458   7.160   6.282   4.202  0.0349 -0.0251 -0.2476
18119SOL    HW255459   7.174   6.427   4.164 -0.1798  0.0269 -0.1342
18120SOL     OW55460   1.699   3.199   8.173  0.1367 -0.0262  0.0682
18120SOL    HW155461   1.738   3.127   8.123  2.4748  1.4721 -0.4298
18120SOL    HW255462   1.678   3.161   8.258 -0.1829 -1.6480 -0.6931
18121SOL     OW55463   5.841   8.594   1.840 -0.4645  0.2382  0.3778
18121SOL    HW155464   5.816   8.675   1.796  0.7421 -0.4568 -1.7190
18121SOL    HW255465   5.771   8.532   1.819  0.4394 -0.2903 -1.2669
18122SOL     OW55466   8.215   5.239   7.148  0.4617 -0.3662  0.4742
18122SOL    HW155467   8.287   5.188   7.111  0.5537  1.2206 -1.7021
18122SOL    HW255468   8.148   5.238   7.081 -1.0426 -0.6296  1.9082
18123SOL     OW55469   3.068   4.221   5.369  0.0438 -0.0475  0.1914
18123SOL    HW155470   3.152   4.263   5.388  0.5800 -0.9514 -0.1295
18123SOL    HW255471   3.069   4.140   5.420 -0.2966 -0.4451 -0.4227
18124SOL     OW55472   2.174   9.043   8.838  0.5374  0.6884 -0.1940
18124SOL    HW155473   2.191   8.998   8.920 -2.1161 -1.4008 -0.6373
18124SOL    HW255474   2.100   9.101   8.858 -0.6310 -0.3892 -1.1867
18125SOL     OW55475   3.290   1.207   3.622  0.3853 -0.4353 -0.4550
18125SOL    HW155476   3.358   1.274   3.628 -0.6112  0.5034  1.2194
18125SOL    HW255477   3.246   1.224   3.539  0.4961  0.6813 -0.3038
18126SOL     OW55478   8.412   7.658   0.580  0.2715 -0.2666  0.1643
18126SOL    HW155479   8.398   7.611   0.662  0.9343 -0.1242  0.3610
18126SOL    HW255480   8.423   7.749   0.606 -0.3988 -0.0818 -0.1665
18127SOL     OW55481   9.105   7.108   7.315 -0.7652  0.0585 -0.7445
18127SOL    HW155482   9.178   7.137   7.370 -0.1076 -2.7276 -0.0042
18127SOL    HW255483   9.143   7.099   7.228 -0.4494 -0.5081 -0.5508
18128SOL     OW55484   1.756   7.998   4.181 -0.0491  0.0807  0.7068
18128SOL    HW155485   1.709   7.944   4.118 -1.0567  0.8475  0.7703
18128SOL    HW255486   1.843   8.010   4.143 -0.6325  0.4994 -0.5293
18129SOL     OW55487   3.627   5.035   8.682 -0.0077  0.0839 -0.5766
18129SOL    HW155488   3.648   5.075   8.598 -0.4598  0.0611 -0.7064
18129SOL    HW255489   3.699   4.975   8.699 -0.2496 -0.4266 -1.2883
18130SOL     OW55490   7.769   8.518   8.623 -0.7851  0.3886  0.7492
18130SOL    HW155491   7.747   8.443   8.569 -1.0108  1.5741 -0.8685
18130SOL    HW255492   7.839   8.563   8.576 -0.5565  1.1278  1.7466
18131SOL     OW55493   4.542   0.376   7.814  0.1723  0.4145  0.4412
18131SOL    HW155494   4.577   0.288   7.821  0.6968  0.5284 -0.6716
18131SOL    HW255495   4.611   0.433   7.847  0.0924  0.4647  0.5258
18132SOL     OW55496   0.971   4.453   0.658  1.1422  0.1120 -0.4655
18132SOL    HW155497   1.043   4.516   0.658  1.2097  0.0544  0.6065
18132SOL    HW255498   0.985   4.401   0.579  2.0295  0.3962 -0.5085
18133SOL     OW55499   3.662   6.448   6.937  0.1792  0.4467  0.1155
18133SOL    HW155500   3.603   6.507   6.984 -1.1417  0.8087 -1.9095
18133SOL    HW255501   3.610   6.413   6.865  1.8283 -0.8878 -0.5061
18134SOL     OW55502   5.640   1.612   1.129  0.2665 -0.0033  0.8383
18134SOL    HW155503   5.573   1.599   1.196  1.1927  1.1116  2.0432
18134SOL    HW255504   5.601   1.675   1.069 -0.7262 -1.3135  0.0699
18135SOL     OW55505   2.113   7.585   8.876  0.2160 -0.1092  0.1216
18135SOL    HW155506   2.147   7.496   8.883  2.1211  0.3736 -1.9592
18135SOL    HW255507   2.169   7.637   8.935  2.2846  0.4305 -2.1819
18136SOL     OW55508   5.721   4.322   7.431 -0.1058  0.1967  0.0968
18136SOL    HW155509   5.784   4.251   7.425 -0.4279  0.0223 -2.7207
18136SOL    HW255510   5.696   4.325   7.524  1.5331 -1.8889  0.6760
18137SOL     OW55511   8.961   2.382   4.958 -0.1508  0.2416  0.5829
18137SOL    HW155512   9.046   2.379   4.914 -0.2192 -2.9706  0.4880
18137SOL    HW255513   8.977   2.437   5.035  1.7387  0.5010  0.0672
18138SOL     OW55514   5.342   6.093   3.265  0.8005  0.3267  0.0005
18138SOL    HW155515   5.405   6.043   3.214  0.1199 -0.7991  0.2331
18138SOL    HW255516   5.332   6.043   3.346 -1.9065 -0.6670 -0.8481
18139SOL     OW55517   5.520   0.722   6.256 -0.0974  0.5213  0.0021
18139SOL    HW155518   5.480   0.781   6.319  0.7139  1.5717 -0.4449
18139SOL    HW255519   5.614   0.727   6.275  0.1110  0.5271 -1.0015
18140SOL     OW55520   0.480   8.360   8.189  0.3087 -0.1954  0.1645
18140SOL    HW155521   0.538   8.294   8.151 -0.2259 -0.1648 -0.7378
18140SOL    HW255522   0.474   8.428   8.122  1.1348  0.9684  1.2208
18141SOL     OW55523   0.871   4.128   5.531  0.6978  0.1282 -0.7324
18141SOL    HW155524   0.812   4.110   5.605  0.0378  0.7588 -1.0948
18141SOL    HW255525   0.951   4.079   5.552  0.9527  1.1800  0.9683
18142SOL     OW55526   0.032   1.296   1.030  0.7760 -0.3345 -0.1486
18142SOL    HW155527   0.052   1.202   1.024  0.3076 -0.5027  0.6743
18142SOL    HW255528   0.066   1.322   1.115  2.4462  0.6646 -1.0774
18143SOL     OW55529   4.878   9.054   6.931 -0.1558 -0.1191  0.5508
18143SOL    HW155530   4.867   9.147   6.951  0.0799 -0.0475  0.3512
18143SOL    HW255531   4.837   9.042   6.846  0.4159 -0.0563  0.2659
18144SOL     OW55532   4.512   7.028   7.417 -0.1357  0.3263 -0.2513
18144SOL    HW155533   4.448   7.072   7.361 -0.3633 -0.9728 -1.0541
18144SOL    HW255534   4.597   7.052   7.379 -0.2241  0.6315 -0.2597
18145SOL     OW55535   7.746   2.275   6.208 -0.1189  0.2312  0.0730
18145SOL    HW155536   7.701   2.290   6.125  1.8840  0.4781 -1.0102
18145SOL    HW255537   7.717   2.188   6.236 -1.5267  0.5283 -0.3803
18146SOL     OW55538   3.629   3.813   0.821 -0.1005 -0.1678 -0.1186
18146SOL    HW155539   3.611   3.735   0.768 -0.6509 -0.8876  1.0681
18146SOL    HW255540   3.694   3.862   0.771 -0.6271 -0.7937 -1.4552
18147SOL     OW55541   2.487   7.408   7.451 -0.5075 -0.1807 -0.2490
18147SOL    HW155542   2.519   7.440   7.367 -0.9601 -1.2270 -0.8383
18147SOL    HW255543   2.461   7.487   7.499 -1.5093  0.3590 -1.6221
18148SOL     OW55544   5.979   6.463   5.046 -0.4985  0.1197  0.2142
18148SOL    HW155545   5.936   6.458   4.960 -1.9270  2.6211  0.6988
18148SOL    HW255546   5.907   6.457   5.109  0.5117 -1.5326  1.2993
18149SOL     OW55547   6.660   4.768   7.204 -0.0068  0.2313 -0.4224
18149SOL    HW155548   6.706   4.696   7.161 -0.7835 -0.3139 -0.3617
18149SOL    HW255549   6.722   4.799   7.271 -0.4492 -1.8469  1.0637
18150SOL     OW55550   2.227   8.708   0.229 -0.1767  0.1644 -0.0645
18150SOL    HW155551   2.167   8.646   0.188  0.7873 -0.8450  0.0199
18150SOL    HW255552   2.241   8.674   0.318 -0.2777  0.9555  0.2701
18151SOL     OW55553   9.032   7.823   6.132  0.3506 -0.8846 -0.5758
18151SOL    HW155554   8.993   7.774   6.204 -0.4160 -1.2593 -1.2269
18151SOL    HW255555   8.958   7.843   6.074  0.9367 -0.5230 -1.2135
18152SOL     OW55556   7.120   7.770   8.633 -0.3173  0.7519 -0.9561
18152SOL    HW155557   7.113   7.675   8.633  3.0131  0.3868 -2.1303
18152SOL    HW255558   7.174   7.790   8.557  0.2374  3.4875  0.0522
18153SOL     OW55559   4.401   3.703   8.641 -0.3631 -0.5237 -0.4936
18153SOL    HW155560   4.335   3.716   8.573 -0.2928 -1.2474 -0.7124
18153SOL    HW255561   4.382   3.770   8.706 -0.8185 -0.2156 -0.9342
18154SOL     OW55562   8.661   1.182   7.642  0.4778 -0.1506 -0.3464
18154SOL    HW155563   8.607   1.147   7.571  4.0567  0.6042 -3.7827
18154SOL    HW255564   8.608   1.252   7.681 -1.5709 -0.4455 -2.4063
18155SOL     OW55565   2.118   7.859   3.241 -0.0205 -0.6881  0.0090
18155SOL    HW155566   2.074   7.903   3.168 -1.1083 -0.4141  0.8088
18155SOL    HW255567   2.049   7.809   3.284  0.4063 -0.1310  1.3833
18156SOL     OW55568   0.146   6.003   7.925 -0.0249 -0.1636  0.4830
18156SOL    HW155569   0.053   6.000   7.905  0.0910  1.3299 -0.3834
18156SOL    HW255570   0.186   6.050   7.852  1.4159 -0.7219  0.8615
18157SOL     OW55571   6.689   2.740   5.347  0.2920  0.2465  0.0893
18157SOL    HW155572   6.767   2.795   5.348  0.4417  0.0368  0.2629
18157SOL    HW255573   6.662   2.738   5.255  0.9613 -0.3226 -0.1053
18158SOL     OW55574   0.399   4.874   6.549 -0.7978  0.6239 -0.2060
18158SOL    HW155575   0.328   4.926   6.588 -0.2232  0.4411  1.1424
18158SOL    HW255576   0.369   4.783   6.558 -0.1213  0.5063  0.9644
18159SOL     OW55577   3.569   7.347   0.146 -0.2422  0.0352  0.5607
18159SOL    HW155578   3.532   7.315   0.064 -0.8229  0.9028  0.4740
18159SOL    HW255579   3.636   7.283   0.168  1.0696  0.6340 -1.4405
18160SOL     OW55580   7.209   3.713   2.502 -0.1752  0.6739  0.2936
18160SOL    HW155581   7.290   3.699   2.552  0.0781  0.1933 -0.2412
18160SOL    HW255582   7.183   3.803   2.523 -0.1906  0.4206  1.4565
18161SOL     OW55583   8.675   0.527   4.898 -0.1264  0.5338 -0.7817
18161SOL    HW155584   8.718   0.579   4.830 -0.4799 -0.4997 -1.8305
18161SOL    HW255585   8.745   0.472   4.933  0.0702  1.1134 -0.2510
18162SOL     OW55586   0.927   7.350   1.410 -0.1560 -0.3460 -0.4183
18162SOL    HW155587   0.912   7.294   1.486 -0.8837 -0.1909 -0.4363
18162SOL    HW255588   1.020   7.340   1.391 -0.0900 -0.8531  0.1233
18163SOL     OW55589   7.759   8.369   6.732  0.0590 -0.3815  0.1968
18163SOL    HW155590   7.730   8.278   6.731 -1.1318 -0.0255  0.4125
18163SOL    HW255591   7.854   8.364   6.737 -0.0503 -1.6218  3.4236
18164SOL     OW55592   6.031   8.334   7.043  0.4199 -0.4102  0.5533
18164SOL    HW155593   6.045   8.347   6.949  1.0832 -1.7052  0.4452
18164SOL    HW255594   6.091   8.395   7.085 -0.2817  0.5768  0.1563
18165SOL     OW55595   4.743   0.071   5.841 -0.3633 -0.5857  0.5334
18165SOL    HW155596   4.731  -0.012   5.795  0.8849 -0.2866 -0.3856
18165SOL    HW255597   4.832   0.098   5.820 -0.8065  1.0982  0.6412
18166SOL     OW55598   3.151   8.433   4.201 -0.3312  0.0988 -0.1935
18166SOL    HW155599   3.244   8.417   4.186  0.1991  2.1430  0.6569
18166SOL    HW255600   3.127   8.498   4.135 -1.1153 -0.2280 -0.2450
18167SOL     OW55601   2.085   1.471   5.165  0.0987 -0.4092 -0.1250
18167SOL    HW155602   2.004   1.423   5.146 -0.2420  0.3462 -0.6540
18167SOL    HW255603   2.055   1.554   5.204  0.6997 -0.9164  1.4836
18168SOL     OW55604   0.313   8.137   4.088  0.2776  0.5109 -0.1114
18168SOL    HW155605   0.355   8.210   4.134  0.3609  1.4138 -1.5599
18168SOL    HW255606   0.323   8.158   3.995  0.0313 -1.2074 -0.5626
18169SOL     OW55607   0.789   5.189   8.342  0.5377  0.5144  0.2468
18169SOL    HW155608   0.736   5.269   8.342 -0.7145 -0.1942  2.9508
18169SOL    HW255609   0.746   5.132   8.278 -2.2190 -0.0588  2.3815
18170SOL     OW55610   4.713   1.704   8.060  0.0338  0.1870  0.4136
18170SOL    HW155611   4.730   1.670   7.972 -0.9511  0.4105  0.1195
18170SOL    HW255612   4.684   1.628   8.111  1.0973 -0.0421  0.6991
18171SOL     OW55613   6.867   6.546   0.340 -0.6517  0.0535 -0.1164
18171SOL    HW155614   6.817   6.615   0.296 -1.2531  0.3937  1.0665
18171SOL    HW255615   6.828   6.464   0.308  0.1798  0.2191 -1.6613
18172SOL     OW55616   8.437   2.242   7.760 -0.0437 -0.2396  0.0248
18172SOL    HW155617   8.381   2.180   7.808 -2.3296  1.0670 -0.8020
18172SOL    HW255618   8.497   2.277   7.826 -0.6086 -1.2398  1.0948
18173SOL     OW55619   8.286   0.988   7.705  0.0837  0.0394  0.3615
18173SOL    HW155620   8.207   0.989   7.650 -0.3548 -0.3041  0.9722
18173SOL    HW255621   8.358   0.988   7.642 -0.4040 -1.5249 -0.2513
18174SOL     OW55622   1.112   2.857   6.117  0.1131 -0.0245 -0.0068
18174SOL    HW155623   1.087   2.766   6.129 -2.3825  0.2125 -2.4220
18174SOL    HW255624   1.128   2.866   6.023 -1.4516  2.3588 -0.1385
18175SOL     OW55625   3.301   0.050   8.236  0.3923  0.0610  0.2295
18175SOL    HW155626   3.306   0.124   8.297 -0.4411  0.5684 -0.2796
18175SOL    HW255627   3.208   0.046   8.212  0.4409 -1.1261  0.2025
18176SOL     OW55628   2.897   5.111   8.157  0.1357  0.3997  0.4633
18176SOL    HW155629   2.895   5.042   8.223 -0.9999  1.6427  1.8138
18176SOL    HW255630   2.814   5.102   8.110 -0.5647  1.5193  1.4320
18177SOL     OW55631   1.542   6.406   5.315  0.2321 -0.2671 -0.5041
18177SOL    HW155632   1.562   6.387   5.407 -0.8301 -0.5096 -0.3001
18177SOL    HW255633   1.624   6.438   5.278  0.7345 -0.3859  0.4736
18178SOL     OW55634   6.783   0.706   7.793 -0.4025 -0.3066 -0.5573
18178SOL    HW155635   6.874   0.682   7.808  0.4147  0.5247 -3.4873
18178SOL    HW255636   6.732   0.632   7.828  1.4246 -1.2118  0.2889
18179SOL     OW55637   7.401   8.788   2.119  0.2908 -0.3692  0.1244
18179SOL    HW155638   7.381   8.695   2.115 -0.1105 -0.2827  0.0793
18179SOL    HW255639   7.453   8.805   2.040  2.0012 -0.9281  1.0864
18180SOL     OW55640   1.512   0.385   6.746 -0.5142 -0.1224 -1.0445
18180SOL    HW155641   1.441   0.324   6.730 -0.3872 -0.3036 -0.9130
18180SOL    HW255642   1.484   0.437   6.822 -0.1917 -0.6757 -0.5422
18181SOL     OW55643   8.909   8.795   1.961 -0.3314  0.2611 -0.5309
18181SOL    HW155644   8.851   8.720   1.974 -0.0408  0.2614  0.9100
18181SOL    HW255645   8.978   8.763   1.903 -0.7645 -0.2674 -0.7688
18182SOL     OW55646   8.141   5.448   2.857  0.0978  0.7351 -0.4048
18182SOL    HW155647   8.138   5.528   2.805  1.4985  0.3610 -1.1036
18182SOL    HW255648   8.172   5.476   2.943 -2.2617  1.3623  0.2977
18183SOL     OW55649   0.013   6.675   2.044 -0.7290 -0.5480 -0.1402
18183SOL    HW155650  -0.056   6.726   2.000 -0.0338 -0.2032 -0.8473
18183SOL    HW255651   0.054   6.737   2.103 -0.6204 -0.5921 -0.1698
18184SOL     OW55652   5.556   4.379   8.542  0.2093  0.2718  0.2440
18184SOL    HW155653   5.566   4.424   8.625 -0.7277 -0.2193  0.6395
18184SOL    HW255654   5.556   4.286   8.565  0.4384  0.1169 -0.3629
18185SOL     OW55655   7.820   0.639   7.046  0.2391 -0.6646  0.3314
18185SOL    HW155656   7.789   0.548   7.046 -0.5250 -0.4103 -0.1121
18185SOL    HW255657   7.818   0.664   7.139 -0.4542 -0.7992  0.3577
18186SOL     OW55658   6.214   7.350   3.198  0.2301  0.0201  0.7259
18186SOL    HW155659   6.162   7.422   3.232 -0.3036 -0.4544  0.9358
18186SOL    HW255660   6.271   7.390   3.132  0.0373  0.6501  0.9387
18187SOL     OW55661   2.855   5.982   9.129 -0.1766 -0.7009  0.2467
18187SOL    HW155662   2.884   6.070   9.105  0.1409 -0.3620  1.7717
18187SOL    HW255663   2.783   5.963   9.069  1.6276 -0.6064 -2.0587
18188SOL     OW55664   0.813   5.009   8.564  0.0777  0.4415  0.2325
18188SOL    HW155665   0.799   5.057   8.482 -3.2702  0.1961  0.5189
18188SOL    HW255666   0.763   5.059   8.629  1.5329 -0.1400  1.8656
18189SOL     OW55667   3.982   5.526   2.821  0.3384 -0.1073  0.0990
18189SOL    HW155668   4.052   5.473   2.782 -0.0708 -0.4388 -0.1970
18189SOL    HW255669   3.979   5.499   2.913 -0.5107 -1.3301 -0.2562
18190SOL     OW55670   7.419   3.813   5.473  0.3921 -0.3745  0.3750
18190SOL    HW155671   7.327   3.787   5.468  0.5383 -0.7369 -0.6795
18190SOL    HW255672   7.422   3.900   5.435  0.6188 -0.7525 -0.5029
18191SOL     OW55673   1.663   6.907   0.647  0.3380 -0.3598  0.1093
18191SOL    HW155674   1.740   6.884   0.596 -0.2736 -2.4190  0.0272
18191SOL    HW255675   1.694   6.912   0.737  0.6066 -1.0166  0.0563
18192SOL     OW55676   3.997   6.753   0.225  0.3468 -0.0477  0.2144
18192SOL    HW155677   3.928   6.817   0.212 -0.0974 -0.5545  0.0577
18192SOL    HW255678   3.956   6.683   0.276  0.8681 -0.1408  0.5161
18193SOL     OW55679   8.317   6.787   0.905  0.0649 -0.5369 -0.2414
18193SOL    HW155680   8.275   6.811   0.822 -1.7023  0.5065  0.8911
18193SOL    HW255681   8.366   6.864   0.930  0.7185 -0.9056 -0.3690
18194SOL     OW55682   1.148   2.630   2.621 -0.3610  0.1463  0.6247
18194SOL    HW155683   1.192   2.693   2.563  0.5336 -0.2589  0.8506
18194SOL    HW255684   1.076   2.680   2.659  0.7250  1.2634  1.3109
18195SOL     OW55685   4.237   0.583   0.833  0.3036 -0.0270 -0.2663
18195SOL    HW155686   4.229   0.517   0.764  1.5438  0.1797 -0.6211
18195SOL    HW255687   4.220   0.666   0.788 -0.0291  0.0082 -0.0773
18196SOL     OW55688   2.275   8.430   5.163  0.1938 -0.2575  0.0197
18196SOL    HW155689   2.259   8.353   5.218  0.1443  1.6438  2.8795
18196SOL    HW255690   2.189   8.451   5.126  0.0240 -1.0530 -0.0516
18197SOL     OW55691   3.025   2.657   8.336  0.3465  0.2086 -0.4541
18197SOL    HW155692   3.082   2.706   8.277  1.8825 -0.0327  0.7640
18197SOL    HW255693   3.003   2.719   8.405 -0.5134  0.1646 -0.6817
18198SOL     OW55694   1.575   7.672   2.293 -0.4158 -0.3753 -0.3587
18198SOL    HW155695   1.572   7.758   2.251  0.5930 -0.0951  0.1147
18198SOL    HW255696   1.592   7.691   2.385  0.9002 -1.1111 -0.4296
18199SOL     OW55697   3.042   2.117   0.591  0.1627 -0.0032  0.0076
18199SOL    HW155698   3.055   2.022   0.597 -1.6197 -0.3012 -0.3858
18199SOL    HW255699   3.029   2.146   0.681 -0.4095 -0.3139  0.0272
18200SOL     OW55700   5.414   6.317   4.081 -1.1560  0.2260  0.2255
18200SOL    HW155701   5.321   6.295   4.090 -1.4267  0.9841 -0.6415
18200SOL    HW255702   5.416   6.390   4.021  0.1927 -1.2687 -1.6676
18201SOL     OW55703   2.831   4.529   8.661 -0.2870 -0.5481  0.5752
18201SOL    HW155704   2.901   4.544   8.599 -0.0750 -0.3436  0.8591
18201SOL    HW255705   2.799   4.441   8.642 -0.6238 -0.2643 -0.2092
18202SOL     OW55706   0.318   6.178   1.759 -0.1323 -0.1426  0.0267
18202SOL    HW155707   0.242   6.235   1.771 -0.0546  0.3622 -1.6692
18202SOL    HW255708   0.293   6.096   1.802 -2.0759 -0.3467 -1.3647
18203SOL     OW55709   0.162   2.658   6.980  0.0292 -0.4583 -0.1225
18203SOL    HW155710   0.172   2.611   7.063 -0.2160  0.3166  0.3530
18203SOL    HW255711   0.251   2.674   6.950  0.1457  0.1974  0.5373
18204SOL     OW55712   3.779   1.458   1.626 -0.4784 -0.2494  0.3301
18204SOL    HW155713   3.855   1.432   1.679 -0.4296  1.0723  0.9338
18204SOL    HW255714   3.763   1.549   1.650 -1.2292 -0.0024 -1.0340
18205SOL     OW55715   6.258   0.220   4.333  0.2986  0.2449  0.4414
18205SOL    HW155716   6.350   0.239   4.353 -0.2939  2.4042  1.3572
18205SOL    HW255717   6.236   0.277   4.260 -0.3353 -0.2676  0.2209
18206SOL     OW55718   3.871   0.843   3.451 -0.3997  0.2963 -0.4885
18206SOL    HW155719   3.801   0.779   3.436 -0.2865 -0.6478  2.4117
18206SOL    HW255720   3.834   0.926   3.421 -1.6206 -0.6302 -1.7106
18207SOL     OW55721   4.796   8.267   0.457  0.4885 -0.3123  0.0659
18207SOL    HW155722   4.823   8.325   0.529  2.3111 -0.6872 -0.2743
18207SOL    HW255723   4.847   8.297   0.382 -0.0028 -1.1274 -0.6038
18208SOL     OW55724   2.827   0.091   5.794 -0.2112  0.5606 -0.2415
18208SOL    HW155725   2.873   0.076   5.711 -1.0900  0.6719 -0.7674
18208SOL    HW255726   2.754   0.029   5.792 -1.2700  1.7560 -0.3774
18209SOL     OW55727   6.184   4.302   0.009  0.3779 -0.2425  0.2219
18209SOL    HW155728   6.113   4.332  -0.047 -0.2082  0.2163  1.1805
18209SOL    HW255729   6.263   4.338  -0.030 -0.1146  0.8233  0.1837
18210SOL     OW55730   3.401   3.048   4.619 -0.7800 -0.0845 -0.4359
18210SOL    HW155731   3.466   2.987   4.583 -0.4731 -0.4141  0.6246
18210SOL    HW255732   3.319   3.023   4.578 -0.6067 -1.0676 -0.2139
18211SOL     OW55733   7.952   3.826   1.419  0.4462 -0.3463  0.7672
18211SOL    HW155734   7.980   3.748   1.371 -0.1159 -0.5216  0.7207
18211SOL    HW255735   7.879   3.797   1.473  0.2275  0.1474  0.7466
18212SOL     OW55736   1.354   0.559   6.045 -0.1940 -0.7995  0.3538
18212SOL    HW155737   1.427   0.613   6.076 -1.6449  1.4803  0.0344
18212SOL    HW255738   1.396   0.495   5.987  1.5901  0.2886  0.3484
18213SOL     OW55739   1.532   0.122   1.636 -0.3116 -0.3160  0.3580
18213SOL    HW155740   1.441   0.148   1.626  0.3166  2.7443  1.7251
18213SOL    HW255741   1.528   0.027   1.650 -3.1866 -0.3659 -0.2059
18214SOL     OW55742   7.970   4.471   3.767 -0.2484  0.0649 -0.4046
18214SOL    HW155743   7.913   4.528   3.820  1.2056  0.8878  0.3338
18214SOL    HW255744   7.929   4.385   3.772 -1.3071  0.5787  0.2713
18215SOL     OW55745   4.986   2.963   0.495 -0.1087 -0.0559 -0.2694
18215SOL    HW155746   4.994   2.868   0.495 -3.2544 -0.4427  0.9821
18215SOL    HW255747   4.935   2.983   0.416  0.5278  0.5959 -0.5268
18216SOL     OW55748   6.166   3.255   5.753 -0.4360  0.1477 -0.4656
18216SOL    HW155749   6.202   3.334   5.794  1.3788 -0.6070 -0.5208
18216SOL    HW255750   6.075   3.252   5.783  0.2554  0.6982  1.9365
18217SOL     OW55751   4.112   8.623   2.595 -0.1092 -0.1196  0.4961
18217SOL    HW155752   4.050   8.553   2.617  0.0711 -0.5625 -0.3822
18217SOL    HW255753   4.074   8.665   2.518  0.4735 -0.1238  0.2075
18218SOL     OW55754   5.349   4.224   5.876  0.3560 -0.3823  0.8983
18218SOL    HW155755   5.325   4.170   5.951  2.1558  1.7445  3.2007
18218SOL    HW255756   5.377   4.307   5.915  2.1558  0.5663 -2.0926
18219SOL     OW55757   4.476   8.605   4.728 -0.1268  0.3004  0.1266
18219SOL    HW155758   4.531   8.679   4.701 -1.5333  1.2866 -0.1632
18219SOL    HW255759   4.502   8.588   4.819  0.6484  0.7511 -0.0023
18220SOL     OW55760   0.188   9.063   8.029  0.7811 -0.6651  0.3163
18220SOL    HW155761   0.160   9.133   7.971  2.7014 -2.2064 -2.6904
18220SOL    HW255762   0.139   9.079   8.110  0.2035  3.3452 -0.5979
18221SOL     OW55763   7.919   5.602   0.509  0.1017  0.3334  0.5229
18221SOL    HW155764   7.926   5.514   0.547 -0.7798  0.5109  1.1273
18221SOL    HW255765   7.877   5.654   0.577 -2.2723  0.4772 -0.9014
18222SOL     OW55766   4.240   1.573   7.974  0.8678 -0.0677  0.0237
18222SOL    HW155767   4.181   1.521   8.029 -0.3039 -0.8605 -1.8488
18222SOL    HW255768   4.314   1.515   7.957  1.6014  0.4570  1.3380
18223SOL     OW55769   7.938   8.810   5.556  0.5369 -0.1249  0.1245
18223SOL    HW155770   7.865   8.860   5.517  1.2994  0.5103 -0.5184
18223SOL    HW255771   7.938   8.727   5.508  1.0188  0.3712 -0.7627
18224SOL     OW55772   1.163   7.090   1.519  0.2167 -0.1805 -0.0149
18224SOL    HW155773   1.163   7.019   1.583 -1.8865 -1.4754 -1.3227
18224SOL    HW255774   1.091   7.147   1.546  0.9573  0.6964  0.1832
18225SOL     OW55775   8.777   7.779   2.151 -0.2260 -0.1819  0.0073
18225SOL    HW155776   8.699   7.834   2.151  0.9211  1.5326  0.3936
18225SOL    HW255777   8.746   7.694   2.181 -1.8683  0.5607  0.5446
18226SOL     OW55778   3.109   3.573   7.725 -0.0938 -0.3647  0.4577
18226SOL    HW155779   3.170   3.511   7.762  0.7691  0.1296 -0.0992
18226SOL    HW255780   3.127   3.572   7.631  0.2102  0.9994  0.4787
18227SOL     OW55781   3.533   2.107   2.588 -0.0568  0.0344  0.0487
18227SOL    HW155782   3.455   2.124   2.641  1.0657  3.3681  0.9209
18227SOL    HW255783   3.606   2.118   2.649  1.1923  1.0060 -1.5293
18228SOL     OW55784   9.116   2.802   5.416 -0.4185 -0.4387 -0.3476
18228SOL    HW155785   9.140   2.718   5.377 -0.6500 -0.6157 -0.1167
18228SOL    HW255786   9.173   2.866   5.374  0.9736 -0.9369  0.6972
18229SOL     OW55787   1.987   8.791   0.488 -0.0547  0.5065 -0.3852
18229SOL    HW155788   1.931   8.713   0.492 -0.6599  0.9403 -0.0303
18229SOL    HW255789   1.995   8.819   0.580  0.1987  0.8263 -0.5018
18230SOL     OW55790   2.260   8.315   2.849 -0.2566  0.8380  0.0729
18230SOL    HW155791   2.325   8.368   2.801 -0.2461 -0.1773 -1.0682
18230SOL    HW255792   2.303   8.231   2.861 -0.3525  1.0045  1.7113
18231SOL     OW55793   8.902   0.402   5.768 -0.0076 -0.6472 -0.4834
18231SOL    HW155794   8.997   0.398   5.768 -0.0199 -1.7097 -2.0641
18231SOL    HW255795   8.880   0.451   5.689 -0.7937 -0.3827 -0.1168
18232SOL     OW55796   7.160   2.040   3.394  0.4956  0.0499  0.5253
18232SOL    HW155797   7.168   1.945   3.384  0.0038  0.0917 -0.4386
18232SOL    HW255798   7.230   2.065   3.455  2.2839 -0.6022 -1.1577
18233SOL     OW55799   3.595   6.424   3.387 -0.7296  0.3274 -0.0800
18233SOL    HW155800   3.618   6.486   3.317 -0.5576  0.1085 -0.2197
18233SOL    HW255801   3.641   6.343   3.363 -1.2267  0.0397 -0.0769
18234SOL     OW55802   4.994   0.726   2.998  0.0508 -0.2491 -0.3945
18234SOL    HW155803   4.925   0.682   3.047  1.0479 -0.4523  0.9091
18234SOL    HW255804   4.950   0.799   2.953 -1.0591 -0.6004  0.0926
18235SOL     OW55805   7.306   0.608   7.076  0.1544 -0.3053  0.2989
18235SOL    HW155806   7.282   0.592   6.985  0.4861 -1.7362  0.4386
18235SOL    HW255807   7.249   0.549   7.127  1.7635 -1.5110  0.8171
18236SOL     OW55808   4.415   4.069   8.599 -0.0001 -0.5485  0.7574
18236SOL    HW155809   4.474   4.000   8.569  1.8690  0.4209  2.0168
18236SOL    HW255810   4.385   4.111   8.519 -0.0841 -1.9196  0.0317
18237SOL     OW55811   9.000   4.256   5.638  0.0346  0.3442  0.0645
18237SOL    HW155812   9.053   4.336   5.631 -2.6336  2.6130  2.6323
18237SOL    HW255813   8.967   4.258   5.728 -1.4245 -2.8886 -0.2743
18238SOL     OW55814   2.503   3.140   7.157 -0.6064 -0.3634 -0.6730
18238SOL    HW155815   2.434   3.160   7.094 -0.7140 -1.2453 -0.8378
18238SOL    HW255816   2.464   3.075   7.215 -0.3407  0.0747  0.0123
18239SOL     OW55817   2.885   1.792   8.718  0.1014 -0.5652  0.0044
18239SOL    HW155818   2.838   1.832   8.644 -1.1515 -0.2545  0.9358
18239SOL    HW255819   2.835   1.712   8.738 -0.8321  0.3976  1.7899
18240SOL     OW55820   7.784   1.618   1.445 -0.0382  0.6472  0.2828
18240SOL    HW155821   7.761   1.705   1.480  0.0992  1.5358 -1.7326
18240SOL    HW255822   7.878   1.611   1.459  0.0069  0.9625  0.1349
18241SOL     OW55823   7.529   6.975   6.040  0.0940 -0.1969  0.5466
18241SOL    HW155824   7.470   6.956   6.113 -1.0936 -0.6621 -0.4903
18241SOL    HW255825   7.575   7.054   6.066 -1.1196  0.2787  1.3335
18242SOL     OW55826   8.445   0.058   0.215 -0.2467  0.4409  0.0738
18242SOL    HW155827   8.436   0.116   0.140  0.0694  0.0783 -0.2485
18242SOL    HW255828   8.527   0.011   0.200 -0.4354 -0.0035  0.3899
18243SOL     OW55829   4.506   1.087   4.557  0.1916  0.0271 -0.1876
18243SOL    HW155830   4.532   1.024   4.490 -0.8165 -3.2497  2.2384
18243SOL    HW255831   4.418   1.061   4.582  0.0016  2.0088  1.4564
18244SOL     OW55832   6.563   7.162   4.863 -0.5024 -0.2873 -0.6506
18244SOL    HW155833   6.654   7.142   4.881 -0.2951 -0.1288 -1.4705
18244SOL    HW255834   6.513   7.099   4.915 -0.0246  1.2605  1.9042
18245SOL     OW55835   4.062   4.764   1.712 -0.2010  0.0223 -0.4871
18245SOL    HW155836   3.991   4.706   1.737  0.4698  0.2297  2.2046
18245SOL    HW255837   4.019   4.834   1.663 -1.4279 -1.2110 -1.2379
18246SOL     OW55838   1.861   5.924   2.152  0.2141 -0.0240 -0.4598
18246SOL    HW155839   1.951   5.952   2.137 -0.5242  2.8930  0.0720
18246SOL    HW255840   1.869   5.851   2.213  2.2290 -0.3877 -1.0821
18247SOL     OW55841   7.780   1.910   1.505 -0.5922  0.6375 -0.4618
18247SOL    HW155842   7.816   1.911   1.594 -1.3472 -2.6668  0.0258
18247SOL    HW255843   7.694   1.949   1.513  0.2398  2.5258 -0.2800
18248SOL     OW55844   1.480   4.092   8.238 -0.0585 -0.2602  0.0989
18248SOL    HW155845   1.446   4.004   8.223  1.6938 -0.6901 -1.9474
18248SOL    HW255846   1.567   4.091   8.197  0.0593  2.3881  0.1133
18249SOL     OW55847   7.101   2.963   0.451 -0.5078 -0.1681  0.0274
18249SOL    HW155848   7.054   2.928   0.527 -1.8147  1.9519  0.2605
18249SOL    HW255849   7.067   3.052   0.440  2.2411  0.8850 -0.8579
18250SOL     OW55850   0.731   5.396   3.032  0.6602  0.0246 -0.0999
18250SOL    HW155851   0.698   5.331   3.094  0.3079  0.9311  0.6901
18250SOL    HW255852   0.823   5.406   3.054  0.5502  0.3003  0.2543
18251SOL     OW55853   2.052   5.059   3.366 -0.3135  0.5412  0.3866
18251SOL    HW155854   2.066   5.144   3.325  0.6627  0.1125 -0.1847
18251SOL    HW255855   1.999   5.079   3.443 -1.6374  1.4417 -0.6971
18252SOL     OW55856   6.804   8.788   0.556 -0.5332  0.3668  0.1298
18252SOL    HW155857   6.833   8.697   0.563 -1.8712 -0.0017  1.5287
18252SOL    HW255858   6.831   8.828   0.638 -0.0893  1.2135 -0.4140
18253SOL     OW55859   6.793   2.208   1.022 -0.5103 -0.0354 -0.0303
18253SOL    HW155860   6.856   2.268   1.062  0.1079 -0.1967 -0.7339
18253SOL    HW255861   6.761   2.155   1.094 -0.2454  0.4172  0.4229
18254SOL     OW55862   7.545   3.168   0.529 -0.2378  0.1235  0.1050
18254SOL    HW155863   7.512   3.247   0.486  0.4776  0.3633 -0.0243
18254SOL    HW255864   7.563   3.195   0.619 -0.0091  0.1117  0.0649
18255SOL     OW55865   2.154   8.820   5.102 -0.4964 -0.5634  0.4312
18255SOL    HW155866   2.079   8.779   5.145 -1.8404  0.7992 -0.5152
18255SOL    HW255867   2.117   8.892   5.052  1.5190  0.4532  0.2965
18256SOL     OW55868   2.077   3.493   8.432 -1.2429  0.0742 -0.5322
18256SOL    HW155869   2.123   3.571   8.400 -0.5327 -0.0630  0.1361
18256SOL    HW255870   2.002   3.528   8.480  0.7215  0.5364  2.4520
18257SOL     OW55871   2.443   3.524   0.890  0.6407 -0.0722 -0.6651
18257SOL    HW155872   2.438   3.619   0.904  2.2413 -0.0812  0.2723
18257SOL    HW255873   2.532   3.510   0.856  0.3951 -1.2347 -0.8734
18258SOL     OW55874   7.570   7.406   1.372  0.1985  0.0395 -0.0824
18258SOL    HW155875   7.641   7.348   1.345  1.4005  0.5023  1.8126
18258SOL    HW255876   7.609   7.460   1.441 -1.8351  0.7550  0.5831
18259SOL     OW55877   0.671   2.458   1.623 -0.2736  0.1471  0.2311
18259SOL    HW155878   0.615   2.500   1.558  1.3705  2.3774  0.1214
18259SOL    HW255879   0.611   2.429   1.692 -1.6534  1.7619 -0.2214
18260SOL     OW55880   0.528   5.105   8.992  0.6829 -0.2028 -0.6010
18260SOL    HW155881   0.475   5.037   8.950  0.0649 -0.8576  1.1581
18260SOL    HW255882   0.611   5.061   9.012  0.9352  0.0763 -1.0125
18261SOL     OW55883   0.220   6.962   2.041 -0.0975 -0.7153 -0.3818
18261SOL    HW155884   0.165   6.969   2.119 -2.1649 -2.0765 -1.6543
18261SOL    HW255885   0.294   6.907   2.069 -0.8658 -1.2918  0.5888
18262SOL     OW55886   5.725   1.990   0.964  1.2156  0.3640 -0.3668
18262SOL    HW155887   5.759   2.074   0.932  0.4755  0.4610 -0.9453
18262SOL    HW255888   5.733   1.995   1.059  2.7647  0.3865 -0.4867
18263SOL     OW55889   0.514   3.312   1.217 -0.3034 -0.4166 -0.8886
18263SOL    HW155890   0.469   3.351   1.142 -1.2595  0.3134  0.0188
18263SOL    HW255891   0.604   3.344   1.210 -0.9879  1.8474 -0.3280
18264SOL     OW55892   6.811   9.025   2.541  0.0908  0.1654 -0.0283
18264SOL    HW155893   6.792   9.091   2.608 -1.5138 -1.2804  1.0287
18264SOL    HW255894   6.894   8.986   2.569  0.0519  0.4056  0.4322
18265SOL     OW55895   3.151   0.221   7.943  0.3516  0.2635  0.0443
18265SOL    HW155896   3.086   0.278   7.984  0.1261  0.2173 -0.2458
18265SOL    HW255897   3.224   0.218   8.005 -0.7573 -1.3594  1.3287
18266SOL     OW55898   2.620   5.630   4.552 -0.0280 -0.1775 -0.5485
18266SOL    HW155899   2.695   5.571   4.540 -0.5769 -1.0153  0.0026
18266SOL    HW255900   2.559   5.606   4.482 -0.2484 -0.2602 -0.3297
18267SOL     OW55901   3.328   5.250   1.651 -0.2871  0.2087 -0.1421
18267SOL    HW155902   3.368   5.308   1.585 -1.6711  0.6382 -0.6386
18267SOL    HW255903   3.251   5.214   1.608 -0.8448 -0.0386  1.0160
18268SOL     OW55904   4.581   4.507   7.577  0.3923  0.0327 -0.0825
18268SOL    HW155905   4.675   4.526   7.567  0.7772 -0.8406  1.4979
18268SOL    HW255906   4.577   4.412   7.588 -0.7048  0.0426 -0.2871
18269SOL     OW55907   5.762   6.285   6.284  0.6290 -0.4955  0.2156
18269SOL    HW155908   5.774   6.276   6.190 -0.0980  0.7180 -0.0190
18269SOL    HW255909   5.718   6.205   6.311  1.4793 -1.1614 -0.3498
18270SOL     OW55910   2.397   5.051   2.753 -0.4323  0.2613  0.2697
18270SOL    HW155911   2.420   5.013   2.838 -0.5647  0.2019  0.2799
18270SOL    HW255912   2.388   5.145   2.770  0.5704  0.4039  0.1044
18271SOL     OW55913   6.147   7.061   3.039 -0.4240 -0.0378  0.3159
18271SOL    HW155914   6.054   7.085   3.044 -0.0732  1.3705  0.7331
18271SOL    HW255915   6.190   7.140   3.006  0.5138 -0.9995 -0.8291
18272SOL     OW55916   2.977   7.932   2.375  0.1478 -0.2560 -0.2451
18272SOL    HW155917   3.044   7.879   2.419 -1.3478 -1.0026  1.2140
18272SOL    HW255918   3.025   8.009   2.344  1.6019 -0.4993  1.2357
18273SOL     OW55919   6.435   8.418   8.759 -0.1415  1.1806 -0.2875
18273SOL    HW155920   6.481   8.458   8.833  1.1589  0.1799 -0.5181
18273SOL    HW255921   6.359   8.376   8.799 -0.3530  2.0493  0.2445
18274SOL     OW55922   6.425   8.005   1.430 -0.2747  0.6133  0.2148
18274SOL    HW155923   6.382   7.934   1.381 -0.3847  1.8770 -1.5975
18274SOL    HW255924   6.355   8.045   1.481 -0.4094  0.0824  0.4590
18275SOL     OW55925   8.116   7.439   7.213  0.3056 -0.4651  0.1723
18275SOL    HW155926   8.209   7.417   7.217  0.2216 -0.6518  1.4288
18275SOL    HW255927   8.079   7.373   7.155  1.2795  0.8688 -2.0961
18276SOL     OW55928   3.986   6.658   8.515  0.7419  0.0322  0.0161
18276SOL    HW155929   3.981   6.753   8.526 -0.9277  0.0491 -0.5100
18276SOL    HW255930   3.931   6.622   8.585  0.7332 -0.5012 -0.2568
18277SOL     OW55931   6.398   5.299   3.164 -0.5000 -0.4121  0.0137
18277SOL    HW155932   6.448   5.381   3.170 -0.5278 -0.3909 -0.0445
18277SOL    HW255933   6.442   5.249   3.095 -1.0486 -0.0558 -0.6006
18278SOL     OW55934   8.385   5.250   4.974 -0.1448  0.0635 -0.0321
18278SOL    HW155935   8.451   5.184   4.996 -2.1819 -1.6872  1.1682
18278SOL    HW255936   8.349   5.222   4.890 -0.1130  0.4141 -0.1668
18279SOL     OW55937   7.251   5.425   6.662  0.1634 -0.0053  0.4042
18279SOL    HW155938   7.179   5.375   6.699 -0.2275 -0.4415 -0.8786
18279SOL    HW255939   7.227   5.517   6.677 -1.2611 -0.1074 -1.0189
18280SOL     OW55940   2.310   1.000   8.046  0.4633  0.2969  0.2683
18280SOL    HW155941   2.216   0.989   8.061  0.6070  0.8029  1.6798
18280SOL    HW255942   2.320   0.992   7.951 -0.8703 -0.7203  0.1821
18281SOL     OW55943   2.361   5.660   8.853 -0.7117  0.1873 -0.2156
18281SOL    HW155944   2.321   5.730   8.802  0.6871  0.3707 -1.0998
18281SOL    HW255945   2.447   5.648   8.815 -1.1145 -2.4533 -0.4764
18282SOL     OW55946   5.325   2.349   4.415 -0.1430 -0.5220 -0.3475
18282SOL    HW155947   5.249   2.366   4.359 -0.3783 -2.8586 -0.8353
18282SOL    HW255948   5.316   2.257   4.440  0.5211  0.1312  2.6982
18283SOL     OW55949   1.965   8.913   3.249  0.1803 -0.2983  0.0558
18283SOL    HW155950   1.926   8.999   3.264 -0.4140 -0.7930  1.4837
18283SOL    HW255951   2.019   8.925   3.171 -2.0780  0.6457 -1.4489
18284SOL     OW55952   5.247   0.817   8.605 -0.1681 -0.5183 -0.7033
18284SOL    HW155953   5.226   0.757   8.677 -1.0007  2.9455  2.2087
18284SOL    HW255954   5.166   0.824   8.555  0.3807 -2.8516 -2.1072
18285SOL     OW55955   4.362   1.451   1.728  0.5137  0.4291 -0.0221
18285SOL    HW155956   4.330   1.363   1.706  2.8117 -0.3165 -0.6186
18285SOL    HW255957   4.375   1.448   1.822  0.3810  0.1942 -0.0089
18286SOL     OW55958   8.175   7.225   7.867 -0.1644 -0.1566 -0.4192
18286SOL    HW155959   8.211   7.154   7.921 -0.7658 -0.5770 -0.5593
18286SOL    HW255960   8.252   7.272   7.835  0.2381 -0.6212 -0.1560
18287SOL     OW55961   6.236   4.844   4.629 -0.5005 -0.1991  0.3966
18287SOL    HW155962   6.308   4.885   4.581 -1.4287  1.7238  0.5614
18287SOL    HW255963   6.279   4.806   4.707  0.5331 -0.5055 -0.2921
18288SOL     OW55964   4.800   8.593   8.455 -0.3130  0.2167  0.6764
18288SOL    HW155965   4.780   8.686   8.460 -1.5792  0.3600 -3.1574
18288SOL    HW255966   4.716   8.552   8.432  0.9558 -1.1530 -2.0442
18289SOL     OW55967   1.600   5.595   6.755  0.5453 -0.5152  0.4536
18289SOL    HW155968   1.674   5.551   6.796  1.5947 -0.1593 -0.9774
18289SOL    HW255969   1.640   5.651   6.688 -1.0871 -1.4940 -1.4533
18290SOL     OW55970   1.291   0.913   8.211 -0.4925 -0.2471 -0.5907
18290SOL    HW155971   1.254   0.871   8.134 -0.4019  1.3361 -1.5373
18290SOL    HW255972   1.385   0.897   8.205 -0.4971 -0.2076 -0.7664
18291SOL     OW55973   5.952   3.242   3.276  0.2336  0.2944  0.9134
18291SOL    HW155974   5.874   3.186   3.269 -1.2268  2.4168 -1.6524
18291SOL    HW255975   5.922   3.319   3.325  0.1427  1.8247 -1.3875
18292SOL     OW55976   4.851   4.408   8.038  0.5278 -0.0139 -0.2439
18292SOL    HW155977   4.901   4.484   8.066  0.8847 -0.1634 -0.4815
18292SOL    HW255978   4.797   4.439   7.965 -1.3702  0.7243  1.3585
18293SOL     OW55979   8.226   3.149   3.193 -0.1522 -0.2542 -1.0446
18293SOL    HW155980   8.310   3.157   3.237 -0.0426 -1.2445 -1.0634
18293SOL    HW255981   8.216   3.056   3.174 -1.8879 -0.3884  0.2403
18294SOL     OW55982   3.434   3.492   1.368 -0.4629  0.3327 -0.1951
18294SOL    HW155983   3.473   3.544   1.298 -2.0578  1.0641 -0.5952
18294SOL    HW255984   3.394   3.417   1.323  0.0462 -0.1500  0.1464
18295SOL     OW55985   8.403   2.434   6.372  0.1105 -0.2526 -0.1196
18295SOL    HW155986   8.478   2.490   6.394 -0.9090  1.0877  0.0685
18295SOL    HW255987   8.328   2.493   6.373 -1.0573 -1.6870  0.3035
18296SOL     OW55988   3.240   4.385   5.071  0.5073 -0.0585 -0.0822
18296SOL    HW155989   3.272   4.294   5.071 -0.6077 -0.6090 -4.0292
18296SOL    HW255990   3.155   4.379   5.116  1.4018 -0.4402  1.6792
18297SOL     OW55991   7.146   6.593   5.696  0.1269 -0.0532 -0.5578
18297SOL    HW155992   7.115   6.675   5.735  5.7404  2.2259 -0.0379
18297SOL    HW255993   7.147   6.610   5.602  0.7676  0.2851 -0.4929
18298SOL     OW55994   0.813   5.587   6.405  0.1621  0.4212  0.0633
18298SOL    HW155995   0.882   5.578   6.338  0.0655 -0.7105  0.0930
18298SOL    HW255996   0.808   5.500   6.446 -1.1788  0.5252  0.1642
18299SOL     OW55997   9.111   4.901   2.483 -0.0971 -0.4648  0.0073
18299SOL    HW155998   9.187   4.885   2.426 -0.3055  0.4879 -0.5567
18299SOL    HW255999   9.137   4.975   2.537 -0.5275 -0.3004 -0.0079
18300SOL     OW56000   4.346   5.545   0.175 -0.3062  0.0009  0.1903
18300SOL    HW156001   4.366   5.457   0.142  0.2738 -0.1306  0.8716
18300SOL    HW256002   4.398   5.603   0.119  0.3733 -0.1952  0.5999
18301SOL     OW56003   5.199   5.443   3.384 -0.7233 -0.4115 -0.2502
18301SOL    HW156004   5.250   5.443   3.303  0.3804  0.9761  0.4137
18301SOL    HW256005   5.237   5.373   3.436  0.4958  0.5775  0.2163
18302SOL     OW56006   6.333   4.707   1.228 -0.0489  0.3547  0.5844
18302SOL    HW156007   6.360   4.637   1.168  0.0072  1.7064 -1.0374
18302SOL    HW256008   6.333   4.665   1.314  0.2953 -1.5508 -0.2770
18303SOL     OW56009   9.083   2.373   6.545 -0.4500  0.6489  0.9537
18303SOL    HW156010   9.052   2.286   6.569  1.0462 -0.0206  0.5889
18303SOL    HW256011   9.014   2.433   6.574 -1.0991 -0.5797  2.0070
18304SOL     OW56012   0.153   2.270   8.136  0.1254 -0.4184 -0.4217
18304SOL    HW156013   0.138   2.178   8.114 -1.4017 -0.4622  0.6493
18304SOL    HW256014   0.170   2.270   8.230  0.0587  0.4056 -0.3992
18305SOL     OW56015   0.870   5.936   3.005 -0.2461  0.3339  0.1026
18305SOL    HW156016   0.964   5.954   2.996 -0.2462 -0.1907 -1.2611
18305SOL    HW256017   0.828   6.022   2.997  0.1024  0.5554  0.5914
18306SOL     OW56018   7.796   7.734   5.299 -0.0581 -0.5802 -0.9948
18306SOL    HW156019   7.835   7.695   5.220 -0.1671  1.0974 -1.9153
18306SOL    HW256020   7.759   7.817   5.269 -2.4190 -1.0817  0.3080
18307SOL     OW56021   4.742   6.054   2.785 -0.0198  0.1126  0.2086
18307SOL    HW156022   4.798   6.123   2.822  0.3692  0.0246 -0.2058
18307SOL    HW256023   4.749   6.065   2.690 -2.0205  1.1452  0.1316
18308SOL     OW56024   6.835   8.689   6.941  0.3946  0.9433 -0.4780
18308SOL    HW156025   6.910   8.724   6.892  0.7402 -0.3676 -0.9363
18308SOL    HW256026   6.794   8.765   6.981  2.2175  1.6541  0.1107
18309SOL     OW56027   3.356   4.022   5.394  0.0523 -0.3835  0.0791
18309SOL    HW156028   3.284   4.046   5.452 -1.7294  0.2538 -2.2506
18309SOL    HW256029   3.407   4.102   5.384  0.3611 -0.4940  0.7340
18310SOL     OW56030   8.342   8.004   4.522  0.8347  0.3368 -0.6428
18310SOL    HW156031   8.333   8.094   4.553 -2.2904 -0.0676 -0.0805
18310SOL    HW256032   8.411   8.008   4.456  1.4417  2.9378  0.0405
18311SOL     OW56033   2.694   8.351   4.973  0.0264 -0.2626  0.7641
18311SOL    HW156034   2.644   8.314   5.045  0.4754 -0.6636  0.8714
18311SOL    HW256035   2.774   8.299   4.969  0.9095  0.9911  1.2323
18312SOL     OW56036   7.859   4.916   3.619  0.6728 -0.5874  0.1400
18312SOL    HW156037   7.859   4.993   3.675  0.5460 -0.5029  0.0227
18312SOL    HW256038   7.806   4.941   3.543  1.7158 -0.3385 -0.5166
18313SOL     OW56039   2.817   6.839   3.054  0.5893 -0.3617 -0.0631
18313SOL    HW156040   2.837   6.847   3.147 -0.7091 -0.9084  0.2764
18313SOL    HW256041   2.753   6.909   3.037 -0.6779 -1.4868 -0.0779
18314SOL     OW56042   3.230   8.215   7.668  0.2797  0.2362  0.3587
18314SOL    HW156043   3.182   8.186   7.746 -0.1914 -0.2425 -0.1020
18314SOL    HW256044   3.179   8.180   7.595  0.5386  0.9574 -0.1733
18315SOL     OW56045   3.766   2.577   1.664 -0.2260  0.9340  0.2275
18315SOL    HW156046   3.787   2.530   1.745  0.8943  0.5066 -0.2970
18315SOL    HW256047   3.769   2.510   1.596 -3.5783  0.7676  0.0852
18316SOL     OW56048   8.203   0.037   2.078 -0.2845 -0.1777  0.1900
18316SOL    HW156049   8.176  -0.055   2.068  1.7907 -0.9189  0.7360
18316SOL    HW256050   8.129   0.079   2.120 -1.0751 -1.7599  0.4803
18317SOL     OW56051   6.004   0.964   1.248 -0.0052  0.0813 -0.3836
18317SOL    HW156052   5.966   1.004   1.326  0.0892  0.7509 -0.6767
18317SOL    HW256053   5.929   0.953   1.188 -0.1810 -0.9414 -0.0051
18318SOL     OW56054   9.015   5.348   7.497  0.2803  0.2569 -0.4257
18318SOL    HW156055   9.107   5.321   7.501  0.7352  1.1655 -2.8099
18318SOL    HW256056   8.966   5.266   7.504  1.2711 -0.2970  0.4210
18319SOL     OW56057   0.740   6.274   8.332  0.7841 -0.0548 -0.2668
18319SOL    HW156058   0.674   6.341   8.352  0.2603  0.4813 -3.3311
18319SOL    HW256059   0.699   6.191   8.356  0.8041  0.5275  2.0329
18320SOL     OW56060   2.719   5.728   5.324 -0.8620 -0.0422 -0.0596
18320SOL    HW156061   2.631   5.764   5.329  0.0842  2.5402 -0.4337
18320SOL    HW256062   2.763   5.761   5.403 -0.5571 -2.4756  0.8894
18321SOL     OW56063   2.147   6.949   4.698 -0.4089 -0.0121  0.3369
18321SOL    HW156064   2.179   6.864   4.669  0.4731  0.5797 -0.5193
18321SOL    HW256065   2.078   6.929   4.762  1.6018 -1.3590  2.2145
18322SOL     OW56066   6.977   0.831   2.170  0.2594  0.3312 -0.2587
18322SOL    HW156067   6.925   0.873   2.238  0.4949  0.0082  0.1195
18322SOL    HW256068   7.023   0.760   2.214  0.0351 -0.1934 -0.8514
18323SOL     OW56069   5.223   3.574   4.291  0.0213  0.2998 -0.1040
18323SOL    HW156070   5.287   3.547   4.357  0.0966  0.1403 -0.2403
18323SOL    HW256071   5.264   3.552   4.208  0.4708  1.6819 -0.2627
18324SOL     OW56072   8.996   3.226   7.096 -0.0060  0.1403 -0.3324
18324SOL    HW156073   8.944   3.205   7.018  0.3246 -0.0554 -0.4982
18324SOL    HW256074   8.996   3.146   7.148  2.3198 -0.7399 -1.5582
18325SOL     OW56075   1.857   1.875   3.712  0.7043 -0.3809 -0.2421
18325SOL    HW156076   1.823   1.957   3.748  1.1448  0.5732 -1.8977
18325SOL    HW256077   1.933   1.901   3.661 -0.6005 -1.4454 -2.9040
18326SOL     OW56078   0.068   0.342   8.355  0.0441 -0.0411 -0.0133
18326SOL    HW156079   0.044   0.424   8.398 -1.8891 -0.1760 -0.7658
18326SOL    HW256080   0.037   0.274   8.415 -2.5802 -0.2289 -1.4568
18327SOL     OW56081   8.595   8.351   2.479 -0.6153 -0.3484  0.2644
18327SOL    HW156082   8.675   8.301   2.494 -0.0711  0.2735 -0.4628
18327SOL    HW256083   8.562   8.320   2.394 -2.0072 -1.6916  1.2451
18328SOL     OW56084   2.696   0.428   4.124 -0.0022  0.0023 -0.1208
18328SOL    HW156085   2.617   0.374   4.122  0.0482 -0.1493  1.1650
18328SOL    HW256086   2.768   0.366   4.124  0.2671  0.1360 -3.4595
18329SOL     OW56087   7.303   1.041   1.497 -0.1481  0.4049  0.0521
18329SOL    HW156088   7.377   1.098   1.519  1.0501 -1.2253  0.3785
18329SOL    HW256089   7.330   0.997   1.416 -1.1882  0.4887 -0.3610
18330SOL     OW56090   2.221   3.331   7.497 -0.2996  0.6349  0.5199
18330SOL    HW156091   2.132   3.362   7.514 -0.1332  1.3605  0.1168
18330SOL    HW256092   2.210   3.250   7.448 -0.7714  1.9814 -1.7523
18331SOL     OW56093   2.637   4.798   7.215  0.2648  0.4897 -0.6076
18331SOL    HW156094   2.629   4.765   7.305 -0.5948 -0.5517 -1.0414
18331SOL    HW256095   2.728   4.827   7.209  1.4088 -2.6016 -0.3853
18332SOL     OW56096   9.119   7.968   2.351 -0.9334 -0.4576  0.6872
18332SOL    HW156097   9.199   8.008   2.383 -0.2797 -1.1502 -0.0463
18332SOL    HW256098   9.056   7.979   2.423 -0.3117  0.4586  1.0999
18333SOL     OW56099   4.513   5.843   1.104  0.0121 -0.1187 -0.1265
18333SOL    HW156100   4.600   5.804   1.102 -0.1239 -0.4088 -1.6309
18333SOL    HW256101   4.469   5.807   1.026 -1.6343 -0.3992  0.8825
18334SOL     OW56102   2.293   9.099   4.516 -0.0656  0.5856  0.9147
18334SOL    HW156103   2.323   9.069   4.602  0.6750 -0.2961  0.3725
18334SOL    HW256104   2.201   9.073   4.513  0.5750 -1.9066  0.4179
18335SOL     OW56105   4.082   2.713   1.925 -0.0736  1.0690 -0.4258
18335SOL    HW156106   4.042   2.696   2.010  1.2353 -0.7926 -0.1319
18335SOL    HW256107   4.115   2.628   1.896  2.1511  2.1875 -1.4227
18336SOL     OW56108   8.856   1.618   0.270 -0.7436 -0.0599  0.1931
18336SOL    HW156109   8.785   1.558   0.293  0.1121 -1.1927 -0.0017
18336SOL    HW256110   8.879   1.662   0.352  0.1063 -1.6787  0.8726
18337SOL     OW56111   0.768   6.976   7.427  0.4502  0.1654  0.4184
18337SOL    HW156112   0.805   7.063   7.443 -0.9218  0.7697  0.4707
18337SOL    HW256113   0.737   6.947   7.512 -0.1080  0.1192  0.2040
18338SOL     OW56114   2.533   4.169   0.364 -0.4319  0.2066 -0.2882
18338SOL    HW156115   2.538   4.174   0.268  3.4183 -1.1793 -0.3386
18338SOL    HW256116   2.563   4.255   0.393 -1.2791  0.5110 -0.2721
18339SOL     OW56117   5.155   5.195   0.184  0.3634 -0.3033  0.0991
18339SOL    HW156118   5.191   5.213   0.270  2.9945  1.6761 -1.2818
18339SOL    HW256119   5.072   5.150   0.201  1.1447 -0.6430  3.5819
18340SOL     OW56120   0.112   2.561   6.413  0.6412 -0.0748  0.0114
18340SOL    HW156121   0.043   2.503   6.445  0.7719 -0.2693 -0.0618
18340SOL    HW256122   0.111   2.551   6.318  1.2022 -0.5696  0.0516
18341SOL     OW56123   8.788   2.932   8.086  0.6351 -0.2521 -0.3180
18341SOL    HW156124   8.827   2.854   8.045 -0.2078 -1.0373  0.3538
18341SOL    HW256125   8.701   2.938   8.048  0.4146 -0.0805  0.2069
18342SOL     OW56126   3.143   3.620   7.452 -0.3450  0.1658 -0.1173
18342SOL    HW156127   3.067   3.654   7.405 -0.0881  0.3382 -0.4105
18342SOL    HW256128   3.210   3.611   7.385 -0.3403 -0.7200 -0.0024
18343SOL     OW56129   7.177   2.398   2.974 -0.2590 -0.5320 -0.5978
18343SOL    HW156130   7.218   2.373   3.056 -0.8477  0.4307  0.0036
18343SOL    HW256131   7.083   2.393   2.992 -0.4030  1.3504 -0.6691
18344SOL     OW56132   4.259   0.581   6.113  0.2425 -0.1906 -0.4167
18344SOL    HW156133   4.191   0.565   6.178 -0.4445 -0.2751 -1.1380
18344SOL    HW256134   4.304   0.497   6.104 -0.1076 -0.3674 -0.5456
18345SOL     OW56135   5.079   2.832   8.706  0.4564  0.7250 -0.1206
18345SOL    HW156136   5.171   2.836   8.680  0.1572  1.3459 -1.1144
18345SOL    HW256137   5.031   2.822   8.624 -0.4716  2.1022  0.2348
18346SOL     OW56138   7.727   3.966   8.904 -0.5662  0.3839  0.2805
18346SOL    HW156139   7.730   3.989   8.811 -1.2015 -0.4513  0.0420
18346SOL    HW256140   7.740   3.871   8.906  0.7148  0.5477  1.1479
18347SOL     OW56141   4.461   5.206   0.089  0.6305 -0.4016 -0.1057
18347SOL    HW156142   4.546   5.166   0.105  1.1636 -0.3514 -2.4563
18347SOL    HW256143   4.420   5.212   0.176  2.0996 -2.4296  0.7963
18348SOL     OW56144   7.483   8.278   4.020  0.0550  0.0172 -0.0823
18348SOL    HW156145   7.572   8.299   4.049 -0.4206  2.2413 -0.1110
18348SOL    HW256146   7.494   8.241   3.932  0.8694  1.9254 -0.8317
18349SOL     OW56147   7.478   2.142   2.990 -1.1696  0.7278 -0.8572
18349SOL    HW156148   7.545   2.089   3.033 -0.1473  0.6036 -2.5101
18349SOL    HW256149   7.462   2.214   3.050  0.7612  0.9720 -0.5600
18350SOL     OW56150   0.188   3.069   5.065  0.2993 -0.0825  0.2485
18350SOL    HW156151   0.135   3.126   5.009 -0.0155 -0.7798 -0.1801
18350SOL    HW256152   0.268   3.055   5.015 -0.6690 -2.0925 -0.8600
18351SOL     OW56153   1.235   8.700   6.290  0.3758 -0.1304 -0.5781
18351SOL    HW156154   1.329   8.682   6.290  0.4823  0.3046  1.1019
18351SOL    HW256155   1.194   8.614   6.292  0.7559 -0.3054 -0.2674
18352SOL     OW56156   3.352   6.330   3.306  0.5280 -0.3337 -0.5854
18352SOL    HW156157   3.421   6.382   3.347  0.9489 -0.3785 -1.2283
18352SOL    HW256158   3.351   6.359   3.215 -1.8186  1.3119 -0.1532
18353SOL     OW56159   4.232   3.217   2.817 -0.6630 -0.1983  0.0377
18353SOL    HW156160   4.257   3.128   2.794 -0.7370 -1.5239  4.3386
18353SOL    HW256161   4.152   3.233   2.767  0.3826 -1.7005 -2.2877
18354SOL     OW56162   5.027   6.020   7.237  0.3515 -0.0184  0.0958
18354SOL    HW156163   5.105   6.076   7.246  0.0058  0.2251  2.1292
18354SOL    HW256164   5.055   5.949   7.179  1.5015  1.0433 -0.7149
18355SOL     OW56165   5.050   5.563   3.989 -0.2053  0.3014 -0.1961
18355SOL    HW156166   5.106   5.606   3.924  0.2597 -0.1883 -0.1302
18355SOL    HW256167   4.972   5.537   3.940  0.2561 -0.2925 -0.6219
18356SOL     OW56168   1.723   7.695   2.670  0.0492  0.3168 -0.3053
18356SOL    HW156169   1.814   7.718   2.690  0.3258 -0.2882 -0.8397
18356SOL    HW256170   1.699   7.752   2.597  1.2487 -2.0282 -2.7007
18357SOL     OW56171   6.103   6.784   3.506 -0.3678  0.3857  0.1493
18357SOL    HW156172   6.061   6.870   3.497 -1.0144 -0.0862 -1.8656
18357SOL    HW256173   6.040   6.731   3.553 -0.4711  0.6696  0.3370
18358SOL     OW56174   0.683   0.692   5.360  0.1083 -0.2893  0.3838
18358SOL    HW156175   0.714   0.771   5.404  1.8527 -0.4336 -0.4771
18358SOL    HW256176   0.761   0.657   5.316 -1.0199 -1.4990 -0.7517
18359SOL     OW56177   3.648   0.899   5.226  0.1079  0.0331  0.0543
18359SOL    HW156178   3.562   0.866   5.249 -1.0835  0.9063 -2.7682
18359SOL    HW256179   3.662   0.972   5.285 -0.6091 -0.7194  1.2024
18360SOL     OW56180   8.659   1.655   4.188 -0.0926  0.1508  0.9993
18360SOL    HW156181   8.722   1.701   4.244 -1.8876  0.6600  2.6806
18360SOL    HW256182   8.647   1.713   4.113  3.1512 -1.0253 -0.6317
18361SOL     OW56183   7.157   7.173   1.864  0.7852 -0.1323 -0.1764
18361SOL    HW156184   7.086   7.192   1.803 -0.3949 -1.7713  0.6099
18361SOL    HW256185   7.175   7.256   1.907 -1.1475  0.1833  0.0939
18362SOL     OW56186   5.876   2.733   4.935 -0.1157  0.7024 -0.5309
18362SOL    HW156187   5.956   2.731   4.884  1.8672 -1.2689  2.3095
18362SOL    HW256188   5.885   2.811   4.991 -0.0028  0.3138  0.0007
18363SOL     OW56189   4.365   5.688   0.453 -0.2117 -0.1192  0.1204
18363SOL    HW156190   4.459   5.690   0.468 -0.2472  1.8764  0.4771
18363SOL    HW256191   4.353   5.639   0.372  0.9509 -1.9897  1.0411
18364SOL     OW56192   7.506   4.756   2.038 -0.0391 -0.1822  0.5372
18364SOL    HW156193   7.420   4.786   2.068  0.3505  2.7735 -0.9474
18364SOL    HW256194   7.561   4.834   2.041  0.5953  0.0925 -5.4926
18365SOL     OW56195   9.047   1.550   0.610 -0.3059  0.0428 -0.2256
18365SOL    HW156196   9.087   1.493   0.544 -0.5884 -1.7883  1.1173
18365SOL    HW256197   9.080   1.517   0.693  0.7574  2.8829  0.5806
18366SOL     OW56198   7.237   4.980   4.393  0.4977  0.2105  0.1284
18366SOL    HW156199   7.316   5.035   4.393 -0.0582  1.0923  1.9986
18366SOL    HW256200   7.239   4.936   4.478  0.1456 -1.5654 -0.7325
18367SOL     OW56201   5.386   5.874   7.156  0.6120  0.7620 -0.3373
18367SOL    HW156202   5.414   5.965   7.160  1.8376  0.3588  1.2647
18367SOL    HW256203   5.390   5.843   7.246  0.0902 -0.8500 -0.8203
18368SOL     OW56204   1.898   7.407   6.030 -0.3932  0.5034  0.2068
18368SOL    HW156205   1.922   7.499   6.034 -1.0880  0.7305 -0.5892
18368SOL    HW256206   1.823   7.399   6.090 -0.6739  0.5716 -0.1331
18369SOL     OW56207   7.306   6.302   4.979 -0.0090 -0.1062  0.2198
18369SOL    HW156208   7.399   6.312   4.959 -0.1330  1.1668  0.2118
18369SOL    HW256209   7.266   6.384   4.949 -0.6835  0.6117  2.8284
18370SOL     OW56210   6.782   6.131   6.880 -0.0626 -0.0057  0.9911
18370SOL    HW156211   6.736   6.213   6.864  1.6849  0.9130  0.3708
18370SOL    HW256212   6.796   6.094   6.793 -0.8762 -1.0036  1.2731
18371SOL     OW56213   7.868   7.568   3.493  0.1822  0.9257 -0.4140
18371SOL    HW156214   7.892   7.597   3.404 -2.2198  1.2115 -1.0388
18371SOL    HW256215   7.878   7.647   3.547  0.6830  1.0062 -0.6117
18372SOL     OW56216   8.255   6.240   6.656  0.5256 -0.3498 -0.3544
18372SOL    HW156217   8.233   6.253   6.749 -0.4118 -1.4632 -0.4002
18372SOL    HW256218   8.345   6.273   6.648  0.6663 -0.3539  0.9709
18373SOL     OW56219   1.912   5.392   7.081 -0.1721  0.1606 -0.4972
18373SOL    HW156220   1.830   5.355   7.112  0.9978 -1.1980  1.2279
18373SOL    HW256221   1.977   5.324   7.099  1.2397  0.8844 -2.4796
18374SOL     OW56222   8.699   1.512   7.210 -0.2586  0.2189  0.0890
18374SOL    HW156223   8.761   1.453   7.251  0.0571  0.1541 -0.4672
18374SOL    HW256224   8.633   1.529   7.277  0.2705  0.1576  0.6330
18375SOL     OW56225   4.152   7.314   4.494  0.0781  0.1751 -0.6390
18375SOL    HW156226   4.235   7.284   4.532  0.3513  1.6151 -0.0427
18375SOL    HW256227   4.119   7.238   4.447  0.3225 -1.3503  1.4735
18376SOL     OW56228   2.323   5.135   1.587 -0.3384  0.0930 -0.7769
18376SOL    HW156229   2.369   5.070   1.533 -0.4755 -0.4775 -0.2120
18376SOL    HW256230   2.350   5.115   1.677  0.0424  1.1594 -0.6374
18377SOL     OW56231   7.225   4.786   0.825  0.1519 -0.2710 -0.2379
18377SOL    HW156232   7.244   4.788   0.731  1.4836  1.7890  0.0201
18377SOL    HW256233   7.139   4.827   0.833  0.3072  0.1065 -0.4966
18378SOL     OW56234   8.195   6.183   4.604  0.6201 -0.1485 -0.2071
18378SOL    HW156235   8.211   6.241   4.530  0.0488 -0.9694 -0.9845
18378SOL    HW256236   8.109   6.145   4.587 -0.1048  0.5997  1.5180
18379SOL     OW56237   4.711   9.104   3.928 -0.2761 -0.4694  0.0433
18379SOL    HW156238   4.688   9.106   3.836 -0.4899  0.5581  0.1065
18379SOL    HW256239   4.693   9.015   3.956  2.1812 -1.5539 -1.5002
18380SOL     OW56240   0.934   1.106   2.374 -0.5076 -0.1967  0.0940
18380SOL    HW156241   0.879   1.176   2.338 -1.1322 -0.5204  0.4136
18380SOL    HW256242   0.990   1.151   2.438 -0.3146  0.1522 -0.3131
18381SOL     OW56243   0.377   7.905   7.123  0.3483 -0.0558 -0.1404
18381SOL    HW156244   0.454   7.945   7.083 -0.1921  1.0811 -0.0678
18381SOL    HW256245   0.409   7.871   7.207  0.5434  1.4506  0.4330
18382SOL     OW56246   6.130   8.907   3.648  0.2299 -0.0469  0.0169
18382SOL    HW156247   6.127   8.944   3.736 -0.7664  1.0837 -0.4692
18382SOL    HW256248   6.139   8.983   3.590  0.5160 -0.7479 -0.8858
18383SOL     OW56249   4.819   6.492   1.688 -0.3694  0.3270  0.4188
18383SOL    HW156250   4.800   6.569   1.742 -1.3244  0.7520 -0.4757
18383SOL    HW256251   4.733   6.465   1.655  0.1960  0.1396 -0.9571
18384SOL     OW56252   6.970   3.009   6.344  0.0408 -0.3098 -0.7294
18384SOL    HW156253   6.929   2.982   6.262  0.0568 -2.5920 -0.0784
18384SOL    HW256254   6.906   2.985   6.411  0.6566  0.1088  0.0248
18385SOL     OW56255   4.805   5.643   0.048  0.2270  0.4922 -0.0752
18385SOL    HW156256   4.839   5.651   0.137  0.0190 -0.7855  0.1380
18385SOL    HW256257   4.870   5.686  -0.007  0.1138  1.7279  0.7292
18386SOL     OW56258   0.986   2.617   1.430  0.1005  0.8808  0.4493
18386SOL    HW156259   1.014   2.632   1.520  0.1268 -0.0256  0.6004
18386SOL    HW256260   0.954   2.527   1.429 -0.8718  1.2152 -0.2071
18387SOL     OW56261   2.305   2.443   3.661 -0.4657 -0.3121 -0.8419
18387SOL    HW156262   2.245   2.478   3.595 -0.2372  2.0649  0.0997
18387SOL    HW256263   2.293   2.501   3.737 -0.2773 -2.5813  1.0211
18388SOL     OW56264   8.522   1.777   1.639 -0.0140 -0.1305 -0.5681
18388SOL    HW156265   8.427   1.767   1.625 -0.0795  1.1191 -1.2431
18388SOL    HW256266   8.552   1.824   1.561  1.0476  0.0761 -0.0471
18389SOL     OW56267   0.210   1.244   3.078 -0.1666 -0.3517 -0.0454
18389SOL    HW156268   0.117   1.243   3.100  0.2146 -1.0567  1.7155
18389SOL    HW256269   0.242   1.326   3.117 -0.2409  0.4794 -1.6607
18390SOL     OW56270   1.732   5.008   2.618  0.2745 -0.1577  0.2605
18390SOL    HW156271   1.825   5.032   2.612  0.7074 -2.0250 -1.6342
18390SOL    HW256272   1.729   4.940   2.685  0.2198  0.1223  0.5428
18391SOL     OW56273   0.089   7.142   1.090 -0.2082  0.2202 -0.1297
18391SOL    HW156274   0.048   7.059   1.065  1.8213 -0.4659 -1.4084
18391SOL    HW256275   0.051   7.162   1.176 -1.5394 -1.4655 -0.2674
18392SOL     OW56276   5.176   8.073   8.941 -0.3335 -0.4757 -0.3085
18392SOL    HW156277   5.235   8.016   8.891  1.4994  1.8486 -0.9408
18392SOL    HW256278   5.088   8.040   8.920  0.5954 -2.7284 -1.0032
18393SOL     OW56279   5.127   7.470   4.650  0.1640 -0.4009  0.3213
18393SOL    HW156280   5.086   7.545   4.607 -2.1265 -0.6521  1.9131
18393SOL    HW256281   5.084   7.393   4.610  1.2116 -0.8246 -0.0304
18394SOL     OW56282   3.704   5.821   7.476  0.0397 -0.2905  0.0851
18394SOL    HW156283   3.681   5.763   7.403 -0.0346 -2.3438  1.6764
18394SOL    HW256284   3.799   5.830   7.470  0.1609 -1.3139  0.3380
18395SOL     OW56285   4.288   5.261   4.426  0.2793  0.0106  0.4227
18395SOL    HW156286   4.374   5.265   4.385  0.0427  1.1587  0.0093
18395SOL    HW256287   4.226   5.271   4.354 -0.1568  1.2716  0.9482
18396SOL     OW56288   4.494   8.171   4.259 -0.6158 -0.6641  0.1066
18396SOL    HW156289   4.417   8.223   4.238 -0.7644 -0.8085  0.2867
18396SOL    HW256290   4.498   8.171   4.355 -0.2214 -0.4107  0.0903
18397SOL     OW56291   0.837   2.971   6.060 -0.7132  0.6943  0.3630
18397SOL    HW156292   0.816   2.959   6.153  0.3747  1.1063  0.6808
18397SOL    HW256293   0.909   3.034   6.060 -1.3442  1.4495 -0.8273
18398SOL     OW56294   8.312   8.806   0.465  0.1823 -0.4951  0.5591
18398SOL    HW156295   8.333   8.714   0.448  1.9611  0.2523 -2.1536
18398SOL    HW256296   8.396   8.844   0.490 -0.5132  0.4303  1.5309
18399SOL     OW56297   9.006   3.872   5.891 -0.0463  0.1262  0.0747
18399SOL    HW156298   9.000   3.781   5.923  1.1461  0.2821  0.8187
18399SOL    HW256299   8.946   3.921   5.947  0.0651 -0.0421  0.3441
18400SOL     OW56300   8.991   5.528   7.698  0.0725 -0.0070  0.6860
18400SOL    HW156301   9.027   5.468   7.633  2.0889  1.0793  0.7182
18400SOL    HW256302   8.938   5.589   7.648  1.8637  1.0168 -0.0735
18401SOL     OW56303   7.279   4.574   8.555  0.1519 -0.1302 -0.1112
18401SOL    HW156304   7.336   4.501   8.530  3.3474  2.1482  0.0171
18401SOL    HW256305   7.315   4.606   8.637 -3.2623 -0.3586  1.6810
18402SOL     OW56306   5.995   0.733   6.550 -0.2181  0.8137 -0.2862
18402SOL    HW156307   6.027   0.683   6.475 -2.3519  0.4756 -1.0436
18402SOL    HW256308   6.060   0.802   6.563  0.9696 -0.0382 -1.4685
18403SOL     OW56309   1.033   3.234   8.688 -0.0329  0.2118 -0.1018
18403SOL    HW156310   0.992   3.166   8.742  0.2787  0.2550  0.1909
18403SOL    HW256311   1.073   3.293   8.751  1.6253 -0.5337 -0.3995
18404SOL     OW56312   1.364   1.301   1.721  0.0340  0.6144  0.7981
18404SOL    HW156313   1.351   1.283   1.628 -1.8257 -0.9109  1.2886
18404SOL    HW256314   1.432   1.368   1.723  0.6125  0.1977 -1.6193
18405SOL     OW56315   4.376   5.586   5.256 -0.2105  0.0707 -0.2857
18405SOL    HW156316   4.375   5.491   5.242 -0.1747  0.0295 -0.0105
18405SOL    HW256317   4.283   5.611   5.258 -0.2091  0.1896 -1.3424
18406SOL     OW56318   4.348   8.522   2.470  0.3184 -0.1220 -0.0114
18406SOL    HW156319   4.279   8.586   2.487 -1.0982 -0.8212 -2.5708
18406SOL    HW256320   4.302   8.440   2.454  1.9114 -1.1302  0.2605
18407SOL     OW56321   7.155   7.762   7.907 -0.4849  0.1001 -0.9431
18407SOL    HW156322   7.249   7.777   7.912 -0.0952 -1.6062 -2.1588
18407SOL    HW256323   7.123   7.778   7.996  0.8132  1.3651 -0.6604
18408SOL     OW56324   7.601   7.098   7.116 -0.3764  0.5695  0.0737
18408SOL    HW156325   7.519   7.060   7.146  0.9820 -1.1293  1.8762
18408SOL    HW256326   7.622   7.164   7.181  0.6322 -0.3792  0.7405
18409SOL     OW56327   1.903   6.086   1.497 -0.4819 -0.0686  0.0897
18409SOL    HW156328   1.977   6.145   1.484  0.2899 -0.4962  2.2416
18409SOL    HW256329   1.834   6.123   1.442  0.6645  1.5533 -0.3299
18410SOL     OW56330   8.563   7.470   0.357  0.1563 -0.4346 -0.1328
18410SOL    HW156331   8.502   7.522   0.409  0.3298  0.0435 -0.4065
18410SOL    HW256332   8.605   7.412   0.420 -0.5553 -0.7462  0.0658
18411SOL     OW56333   7.167   0.488   0.990  0.0444  0.5173 -0.0290
18411SOL    HW156334   7.113   0.566   1.002 -0.0610  0.5116 -0.4638
18411SOL    HW256335   7.243   0.502   1.048 -0.5638  0.3784  0.8283
18412SOL     OW56336   5.814   2.593   2.459  0.0314 -0.1498 -0.1072
18412SOL    HW156337   5.893   2.612   2.408  0.7034 -0.6092  0.7236
18412SOL    HW256338   5.847   2.565   2.545 -0.8618 -3.4890 -0.7045
18413SOL     OW56339   2.162   5.384   5.756  0.0228 -0.7542 -0.2356
18413SOL    HW156340   2.171   5.404   5.849  0.7909 -0.8742 -0.2706
18413SOL    HW256341   2.181   5.467   5.712 -1.0263 -0.5271 -0.2714
18414SOL     OW56342   4.756   5.911   1.616  0.4462 -0.3308 -0.5271
18414SOL    HW156343   4.734   5.857   1.540 -0.2565 -1.3574  0.3776
18414SOL    HW256344   4.724   5.861   1.691 -2.4177  2.3419  0.2610
18415SOL     OW56345   3.081   1.619   1.542  0.5119  0.3439  0.0129
18415SOL    HW156346   3.046   1.707   1.554 -2.4331 -0.0983 -3.5856
18415SOL    HW256347   3.043   1.568   1.613  0.2068  1.4828  0.6955
18416SOL     OW56348   5.707   0.643   0.601  0.0410 -0.4771 -0.3295
18416SOL    HW156349   5.773   0.594   0.551  0.4121  0.2037 -0.5236
18416SOL    HW256350   5.672   0.580   0.663  0.7503 -0.9052 -0.3504
18417SOL     OW56351   5.360   4.966   3.083  0.0438 -0.3521 -0.9675
18417SOL    HW156352   5.275   4.995   3.117  0.3363  0.3550 -0.8134
18417SOL    HW256353   5.339   4.915   3.004 -0.5257 -0.2588 -0.8766
18418SOL     OW56354   7.960   7.569   4.489  0.1587 -0.2310 -0.3594
18418SOL    HW156355   8.022   7.500   4.514 -1.5098 -1.5601  0.3194
18418SOL    HW256356   8.006   7.651   4.510  0.7061 -1.1857  2.7690
18419SOL     OW56357   0.297   3.610   7.830  0.2022  0.4980 -0.0993
18419SOL    HW156358   0.267   3.549   7.762  0.4933  1.4034 -1.0564
18419SOL    HW256359   0.392   3.614   7.819  0.4828 -0.6977  1.5322
18420SOL     OW56360   1.520   8.737   8.134 -0.2271  0.2794 -0.0934
18420SOL    HW156361   1.565   8.664   8.093  0.3689  0.9204 -0.6230
18420SOL    HW256362   1.494   8.793   8.061 -2.6903 -0.4722  0.1066
18421SOL     OW56363   4.943   4.968   8.285 -0.5246  0.6124  0.2286
18421SOL    HW156364   4.862   4.944   8.329 -1.1265  0.7397 -0.7748
18421SOL    HW256365   5.012   4.948   8.348 -1.4057  1.6970  1.5920
18422SOL     OW56366   0.608   1.734   5.284 -0.3218 -0.1853 -0.2563
18422SOL    HW156367   0.622   1.670   5.354 -0.3533 -1.7778 -1.6669
18422SOL    HW256368   0.513   1.743   5.278 -0.4298  3.1896  2.6522
18423SOL     OW56369   9.023   5.850   5.261  0.2656  0.0598  0.3825
18423SOL    HW156370   9.056   5.903   5.333  1.4324 -0.4063  0.2005
18423SOL    HW256371   9.079   5.773   5.259 -2.1916 -1.9097  1.4786
18424SOL     OW56372   0.968   6.857   2.786 -0.0470  0.1626 -0.1299
18424SOL    HW156373   1.024   6.882   2.858 -0.3211 -1.6840  0.7957
18424SOL    HW256374   0.908   6.931   2.774 -0.4402  0.2449  2.0076
18425SOL     OW56375   7.610   0.428   3.010  0.1480 -0.4294 -0.7894
18425SOL    HW156376   7.586   0.505   2.960  0.0014  0.4988  0.6536
18425SOL    HW256377   7.700   0.409   2.984 -0.4916 -1.0667 -2.6933
18426SOL     OW56378   1.209   4.766   5.403  0.0796 -0.6056 -1.0176
18426SOL    HW156379   1.263   4.744   5.479 -1.9046  0.2973  0.7234
18426SOL    HW256380   1.215   4.861   5.395 -0.3807 -0.6088 -1.5059
18427SOL     OW56381   6.691   3.732   1.081  0.3751  0.3811 -0.2275
18427SOL    HW156382   6.780   3.699   1.070 -0.3613 -1.4297 -1.3201
18427SOL    HW256383   6.670   3.714   1.173  1.3746  1.5574  0.2573
18428SOL     OW56384   4.093   5.344   7.407 -0.2138 -0.0532 -0.5031
18428SOL    HW156385   4.002   5.336   7.379 -0.2529 -1.5058 -0.0346
18428SOL    HW256386   4.120   5.431   7.376 -1.0161 -0.5631 -2.8078
18429SOL     OW56387   0.627   4.574   5.609 -0.0003 -0.3882  0.1175
18429SOL    HW156388   0.582   4.658   5.622  0.4689  0.2640 -2.1155
18429SOL    HW256389   0.625   4.560   5.515  1.9454 -1.7854  0.2295
18430SOL     OW56390   8.079   1.262   6.448 -0.0557 -0.0825 -0.5641
18430SOL    HW156391   7.986   1.275   6.430 -0.9279 -0.9259  2.6333
18430SOL    HW256392   8.104   1.339   6.499  0.1811 -1.1629  1.0237
18431SOL     OW56393   2.656   7.644   1.552 -0.0074  0.1702 -0.1133
18431SOL    HW156394   2.657   7.725   1.602  1.2705 -0.0354  0.2214
18431SOL    HW256395   2.738   7.646   1.502  0.5775 -1.3970  0.7153
18432SOL     OW56396   3.967   4.444   5.308  0.4946  0.3010 -0.7172
18432SOL    HW156397   3.952   4.432   5.215  2.3555 -0.6470 -0.9374
18432SOL    HW256398   3.934   4.363   5.348  0.2603  0.4499 -0.6010
18433SOL     OW56399   4.442   1.871   3.536  0.8367  0.3110  0.2256
18433SOL    HW156400   4.441   1.893   3.629  3.0198  1.7135 -0.0151
18433SOL    HW256401   4.350   1.874   3.509  0.2102  0.2709  2.2365
18434SOL     OW56402   4.120   6.766   5.880 -0.0495  0.0952 -0.4946
18434SOL    HW156403   4.197   6.712   5.862  0.8959  0.5983  1.7305
18434SOL    HW256404   4.150   6.831   5.944 -1.9330  1.3326 -0.7710
18435SOL     OW56405   8.880   7.002   8.306 -0.3484 -0.5090 -0.6110
18435SOL    HW156406   8.948   6.998   8.374  0.2690 -0.7015 -1.2227
18435SOL    HW256407   8.900   7.083   8.258  0.2789 -1.2272 -1.6203
18436SOL     OW56408   3.157   2.805   3.450 -0.4059 -0.0542 -0.1728
18436SOL    HW156409   3.194   2.888   3.481  0.6403  0.2795 -2.1556
18436SOL    HW256410   3.063   2.814   3.465 -0.2276  1.1655  0.3723
18437SOL     OW56411   1.187   4.655   0.691 -0.3792  0.2165 -0.1036
18437SOL    HW156412   1.214   4.729   0.746  0.7083 -1.0402  1.1312
18437SOL    HW256413   1.261   4.595   0.693 -1.1725 -0.8590 -1.2069
18438SOL     OW56414   6.778   3.321   2.119  0.2752 -0.0968  0.4881
18438SOL    HW156415   6.731   3.249   2.077  1.9591 -0.6182 -0.6134
18438SOL    HW256416   6.760   3.397   2.063  1.3403 -0.4777 -0.4227
18439SOL     OW56417   8.909   8.548   8.263  0.6052 -0.1072 -0.1331
18439SOL    HW156418   8.993   8.539   8.220  1.6618 -1.5568  2.0403
18439SOL    HW256419   8.929   8.594   8.345 -0.7272 -0.3550  0.3632
18440SOL     OW56420   0.011   0.682   0.852 -0.6857  0.6365  0.0390
18440SOL    HW156421   0.028   0.761   0.801  1.5963  2.2439  2.9970
18440SOL    HW256422  -0.079   0.693   0.883 -0.4501  2.0672  0.2939
18441SOL     OW56423   3.331   3.121   0.331  0.0352  0.9509  0.5102
18441SOL    HW156424   3.304   3.032   0.310 -0.2256  0.9043  1.0291
18441SOL    HW256425   3.422   3.112   0.361 -0.7413  0.4895  2.9674
18442SOL     OW56426   2.433   0.126   7.083  0.3797 -0.0654  0.1472
18442SOL    HW156427   2.470   0.047   7.122  3.3698  1.2974  0.3649
18442SOL    HW256428   2.362   0.094   7.027  0.5380 -2.7280  1.3074
18443SOL     OW56429   2.760   4.398   0.378 -0.1391 -0.6998  0.3400
18443SOL    HW156430   2.795   4.310   0.370  1.1928 -0.1894  0.2587
18443SOL    HW256431   2.791   4.429   0.463 -1.0603 -0.4988  0.6162
18444SOL     OW56432   4.672   3.614   8.143 -0.0505  0.1116  0.3879
18444SOL    HW156433   4.576   3.614   8.145 -0.0875  1.5738 -0.3747
18444SOL    HW256434   4.694   3.621   8.050  0.7772  1.0308  0.6388
18445SOL     OW56435   4.054   7.894   7.378 -0.1930 -0.6104  0.0519
18445SOL    HW156436   4.005   7.898   7.460 -1.2985 -0.2025 -0.6147
18445SOL    HW256437   4.137   7.853   7.403  1.0318  2.7577  2.0895
18446SOL     OW56438   3.048   0.280   6.956  0.3528  0.4350 -0.1815
18446SOL    HW156439   3.010   0.214   7.014 -1.4365  0.3992 -1.3447
18446SOL    HW256440   3.123   0.314   7.005  0.5672 -1.5596  0.9613
18447SOL     OW56441   7.895   7.736   0.765 -0.6577  0.0065  0.0479
18447SOL    HW156442   7.949   7.772   0.695 -0.8418  0.2526  0.0355
18447SOL    HW256443   7.958   7.713   0.834 -0.3433 -1.2482 -0.6180
18448SOL     OW56444   9.030   1.233   4.858  0.5885 -0.1987 -0.7310
18448SOL    HW156445   8.984   1.298   4.912  1.6728 -0.0895  0.0980
18448SOL    HW256446   9.096   1.197   4.917  1.0608 -0.8914 -1.6753
18449SOL     OW56447   7.782   4.961   7.023  0.5495  0.0482  0.8698
18449SOL    HW156448   7.724   5.022   6.976  1.5689 -0.2624 -0.8957
18449SOL    HW256449   7.727   4.925   7.092 -1.7657 -1.0002 -1.3295
18450SOL     OW56450   6.980   3.439   5.610  0.1751 -0.0942 -0.3962
18450SOL    HW156451   7.076   3.434   5.604  0.2625  0.1520  0.6396
18450SOL    HW256452   6.951   3.434   5.519  1.1947  0.2962 -0.7680
18451SOL     OW56453   4.975   7.756   5.524 -0.1915  0.1427 -0.0079
18451SOL    HW156454   5.029   7.765   5.446  0.2535  0.8487  0.3681
18451SOL    HW256455   4.889   7.731   5.491 -0.1013  0.7717 -0.7529
18452SOL     OW56456   2.816   5.164   8.475 -0.1524 -0.0306  0.1441
18452SOL    HW156457   2.867   5.084   8.486 -1.5905 -1.0594 -0.4479
18452SOL    HW256458   2.769   5.176   8.557 -0.2487 -0.0106  0.0863
18453SOL     OW56459   2.355   6.073   8.304 -0.0262  0.5270 -0.1539
18453SOL    HW156460   2.356   6.064   8.209  1.8793  0.0671 -0.1208
18453SOL    HW256461   2.432   6.127   8.324 -0.0822  0.1530  1.1706
18454SOL     OW56462   6.061   0.855   3.364  0.2947  0.5121  0.2431
18454SOL    HW156463   6.011   0.783   3.328  0.2929  0.3608  0.5419
18454SOL    HW256464   5.995   0.916   3.397  0.2526  1.3391 -1.2836
18455SOL     OW56465   1.690   9.121   7.191  0.2030  0.2509 -0.4894
18455SOL    HW156466   1.695   9.205   7.145  0.8502  0.1314 -0.6509
18455SOL    HW256467   1.771   9.117   7.242 -0.4047  0.2853  0.5089
18456SOL     OW56468   7.272   1.472   4.485 -0.5056  0.3197 -0.3396
18456SOL    HW156469   7.192   1.427   4.459  0.0888 -0.5602 -0.6819
18456SOL    HW256470   7.342   1.429   4.435  0.2921  0.4896  0.5892
18457SOL     OW56471   0.615   4.950   4.491 -0.3320  0.0243 -0.3860
18457SOL    HW156472   0.706   4.958   4.519 -0.3751 -3.7784  1.4883
18457SOL    HW256473   0.613   4.870   4.438 -2.4280  0.6632 -1.3731
18458SOL     OW56474   2.653   4.460   2.152  0.0221  0.2441 -0.2501
18458SOL    HW156475   2.663   4.398   2.079  0.2375  1.1841 -1.0452
18458SOL    HW256476   2.741   4.467   2.189  0.4037  1.3704 -1.2779
18459SOL     OW56477   4.532   4.048   8.142 -0.4074  0.8808  0.1401
18459SOL    HW156478   4.603   3.995   8.180  0.3999  0.9772 -1.1870
18459SOL    HW256479   4.452   4.002   8.167  0.1856  0.0909  0.6338
18460SOL     OW56480   1.849   1.856   7.948 -0.1169  0.1546 -0.0686
18460SOL    HW156481   1.943   1.864   7.930 -0.0750  0.0749  0.1145
18460SOL    HW256482   1.826   1.936   7.994 -0.5913  1.1885 -1.9937
18461SOL     OW56483   5.569   7.321   6.362 -0.4091 -0.2250 -0.0024
18461SOL    HW156484   5.513   7.243   6.364 -1.0144  0.1729 -0.7415
18461SOL    HW256485   5.657   7.286   6.350 -0.2776 -0.9413  2.4831
18462SOL     OW56486   6.794   2.166   4.343  0.4325  0.1793  0.2184
18462SOL    HW156487   6.804   2.122   4.259  0.4743  0.1459  0.2406
18462SOL    HW256488   6.881   2.162   4.382  0.2171 -0.5698  0.6400
18463SOL     OW56489   5.837   8.707   4.321 -0.2182  0.1574  0.1573
18463SOL    HW156490   5.791   8.748   4.394 -0.4980  0.2345 -0.0618
18463SOL    HW256491   5.858   8.619   4.352  0.7139  0.5849  0.7681
18464SOL     OW56492   0.219   2.991   2.604 -0.1005 -0.0981  0.7671
18464SOL    HW156493   0.169   2.958   2.679 -1.8120  0.0527 -0.2574
18464SOL    HW256494   0.158   2.986   2.530  1.9541 -1.5260 -0.9356
18465SOL     OW56495   1.339   7.834   1.107  0.3581 -0.4533 -0.3946
18465SOL    HW156496   1.283   7.885   1.165 -0.5342 -2.2571  0.4209
18465SOL    HW256497   1.287   7.822   1.027  0.6560  0.0752 -0.6735
18466SOL     OW56498   2.553   8.019   0.247  0.4288  0.4395  0.3854
18466SOL    HW156499   2.616   8.063   0.190  2.3772 -0.8848  1.3985
18466SOL    HW256500   2.583   8.040   0.336 -0.2309 -0.6879  0.8869
18467SOL     OW56501   7.071   3.151   5.920 -0.0555  0.4789  0.0862
18467SOL    HW156502   7.041   3.118   5.835  1.5326  0.8943 -0.6756
18467SOL    HW256503   7.069   3.074   5.977 -0.0089 -0.0759 -0.6427
18468SOL     OW56504   5.622   2.405   8.521  0.0712 -0.4129 -0.6143
18468SOL    HW156505   5.702   2.358   8.545 -1.7024 -2.6342  1.4831
18468SOL    HW256506   5.584   2.430   8.606 -0.8029  1.8466 -1.6014
18469SOL     OW56507   5.700   2.338   1.347  0.4062 -0.8097  0.3123
18469SOL    HW156508   5.609   2.368   1.353  0.1219 -1.2375 -1.4309
18469SOL    HW256509   5.715   2.326   1.254  2.3410 -0.5333  0.5566
18470SOL     OW56510   2.980   8.350   8.393  0.2724  0.1633 -0.3657
18470SOL    HW156511   3.015   8.278   8.445  1.3703 -0.1220 -1.4631
18470SOL    HW256512   2.937   8.307   8.319  1.9732  0.6172 -1.6781
18471SOL     OW56513   8.676   1.763   6.148  0.0840 -0.5324  0.0259
18471SOL    HW156514   8.679   1.689   6.208 -0.7212 -0.3425  0.3214
18471SOL    HW256515   8.639   1.727   6.067 -1.9525 -0.1388  0.7164
18472SOL     OW56516   8.274   1.261   7.592  0.7854 -0.3748 -0.1102
18472SOL    HW156517   8.284   1.312   7.511  1.0299 -0.9874 -0.4672
18472SOL    HW256518   8.215   1.190   7.569 -1.6125  1.1082  1.0273
18473SOL     OW56519   7.805   6.284   5.671  0.5769 -0.0568 -0.2748
18473SOL    HW156520   7.758   6.358   5.631 -1.3464 -0.8349  0.4363
18473SOL    HW256521   7.852   6.244   5.598 -2.2863 -1.0130 -1.7540
18474SOL     OW56522   7.225   8.655   3.915 -0.1718 -0.2962 -0.8468
18474SOL    HW156523   7.289   8.662   3.844  0.2012 -1.1047 -0.6129
18474SOL    HW256524   7.231   8.563   3.943 -0.6660 -0.1117 -0.1036
18475SOL     OW56525   1.668   4.139   1.166 -0.0913  0.7238 -0.8706
18475SOL    HW156526   1.639   4.222   1.128  0.1413  1.2387  0.0462
18475SOL    HW256527   1.635   4.141   1.256  0.8420  0.3104 -0.5054
18476SOL     OW56528   5.770   8.455   3.490 -0.2197 -0.4222  0.1525
18476SOL    HW156529   5.792   8.531   3.543 -0.2924 -1.1981  1.3293
18476SOL    HW256530   5.852   8.406   3.483 -0.6181 -1.2644  1.1415
18477SOL     OW56531   8.760   2.437   3.603  0.2184 -0.3629  0.2365
18477SOL    HW156532   8.851   2.459   3.581 -0.6748  1.9491 -1.4563
18477SOL    HW256533   8.714   2.521   3.603 -2.0035 -1.5104  0.7215
18478SOL     OW56534   2.301   0.340   2.038  0.2790 -0.3903 -0.6737
18478SOL    HW156535   2.297   0.431   2.068  1.0352 -0.2526 -0.9585
18478SOL    HW256536   2.259   0.341   1.953  1.7400  0.0494 -1.4354
18479SOL     OW56537   3.722   4.688   1.935  0.1003 -0.8096 -0.8157
18479SOL    HW156538   3.762   4.686   2.022  0.6715  0.4158 -1.0269
18479SOL    HW256539   3.790   4.654   1.877  0.8478  1.1019 -1.1494
18480SOL     OW56540   4.994   2.912   4.461  0.2382  0.1210  0.4884
18480SOL    HW156541   5.027   2.909   4.551  0.9069 -0.7847  0.2263
18480SOL    HW256542   4.934   2.986   4.460  0.5093  0.3710  1.5854
18481SOL     OW56543   0.853   5.570   1.677 -0.4339  0.5568  0.3738
18481SOL    HW156544   0.821   5.481   1.684 -0.2167  0.5085  0.8184
18481SOL    HW256545   0.808   5.618   1.747 -1.8317  1.1963 -0.9302
18482SOL     OW56546   0.641   5.345   1.361  0.6781  0.2065  0.2077
18482SOL    HW156547   0.691   5.413   1.316  1.4627 -0.7454 -0.4105
18482SOL    HW256548   0.620   5.281   1.292 -1.2063  0.4578  0.4955
18483SOL     OW56549   6.163   2.554   7.640  0.0438 -0.2625  0.1543
18483SOL    HW156550   6.096   2.524   7.702 -0.2887 -0.3703 -0.2476
18483SOL    HW256551   6.218   2.478   7.626 -0.1518 -0.3721 -0.0289
18484SOL     OW56552   2.218   4.485   5.591 -0.4893  0.2191  0.0704
18484SOL    HW156553   2.128   4.512   5.575 -0.2549  0.4213 -0.9205
18484SOL    HW256554   2.260   4.486   5.505  0.9155  1.7651  0.7259
18485SOL     OW56555   4.991   5.749   8.388 -0.4456  0.1821 -0.8517
18485SOL    HW156556   5.060   5.697   8.346  0.1118  0.0016  0.2459
18485SOL    HW256557   5.019   5.755   8.479 -1.3480  1.0292 -0.6244
18486SOL     OW56558   2.721   0.360   7.832  0.1625  0.3513 -0.1126
18486SOL    HW156559   2.773   0.330   7.757  0.3999 -0.6239  0.4252
18486SOL    HW256560   2.634   0.375   7.796 -0.4102 -2.4906 -0.1752
18487SOL     OW56561   7.498   6.197   2.496  0.5205 -0.3197 -0.7563
18487SOL    HW156562   7.552   6.171   2.571 -0.4272 -1.0723 -0.3162
18487SOL    HW256563   7.544   6.272   2.458 -0.3008  1.7991  2.1014
18488SOL     OW56564   6.964   0.869   8.113  0.4088  0.1636  0.6330
18488SOL    HW156565   7.007   0.784   8.127  1.2884  0.2976 -0.9779
18488SOL    HW256566   7.029   0.920   8.064 -1.1325  0.7742 -0.8781
18489SOL     OW56567   8.788   8.622   7.635  0.7090  0.4741 -0.5057
18489SOL    HW156568   8.702   8.622   7.677 -0.3837  0.1364 -2.5938
18489SOL    HW256569   8.850   8.614   7.707 -1.0731 -0.9097  0.9866
18490SOL     OW56570   8.163   0.172   6.453 -0.3031  0.0466 -0.3507
18490SOL    HW156571   8.105   0.104   6.488 -1.9223  1.0000 -1.0496
18490SOL    HW256572   8.250   0.134   6.458 -1.0556 -1.7271  0.1165
18491SOL     OW56573   4.854   1.001   5.738 -0.1471  0.0043 -0.1251
18491SOL    HW156574   4.823   0.968   5.822  2.0409  0.3374  0.8957
18491SOL    HW256575   4.860   0.924   5.682  1.5656 -0.8436  1.1254
18492SOL     OW56576   0.668   4.836   2.259  0.2174  0.1805 -0.2556
18492SOL    HW156577   0.629   4.780   2.192  1.4004  0.0112 -0.8236
18492SOL    HW256578   0.746   4.789   2.287  0.5893  1.0005  0.1011
18493SOL     OW56579   0.811   6.448   2.446  0.1266 -0.0914 -0.0065
18493SOL    HW156580   0.743   6.484   2.389 -1.0735  0.2549  1.5459
18493SOL    HW256581   0.894   6.475   2.406 -0.6874  1.3408 -0.7981
18494SOL     OW56582   4.061   5.739   8.370 -0.3941 -0.6046 -0.0834
18494SOL    HW156583   4.144   5.702   8.341 -0.3220 -0.8340  0.4115
18494SOL    HW256584   4.066   5.738   8.465 -0.8224 -0.2936 -0.0548
18495SOL     OW56585   4.841   4.460   8.996  0.0313 -0.2528  0.2380
18495SOL    HW156586   4.796   4.491   8.917 -0.6853  0.4342  0.8986
18495SOL    HW256587   4.817   4.367   9.001  2.4393 -1.1019 -1.9189
18496SOL     OW56588   0.078   6.258   2.769  0.0331 -0.1677 -0.3203
18496SOL    HW156589   0.007   6.311   2.733 -0.0526  0.0000  0.0931
18496SOL    HW256590   0.034   6.186   2.814  0.1341 -0.2259 -0.3143
18497SOL     OW56591   3.944   7.503   2.639  0.2111  0.4717  0.5640
18497SOL    HW156592   3.964   7.587   2.681 -1.9320  0.3043  2.1052
18497SOL    HW256593   3.885   7.459   2.701 -0.3883 -1.2784 -1.1599
18498SOL     OW56594   1.015   7.616   6.698  0.7372  0.4874  0.3525
18498SOL    HW156595   1.014   7.547   6.632  0.3789  0.5549  0.2839
18498SOL    HW256596   0.928   7.612   6.738 -0.3481  2.6769 -1.5206
18499SOL     OW56597   8.179   1.451   5.120  0.0212 -0.2767  0.0742
18499SOL    HW156598   8.152   1.392   5.191 -1.1252 -0.7192 -0.7098
18499SOL    HW256599   8.103   1.508   5.105 -0.1363 -0.8486 -1.4603
18500SOL     OW56600   1.196   4.571   4.518  0.4024  0.1559  0.5426
18500SOL    HW156601   1.122   4.532   4.564 -0.4801  1.0847 -0.0429
18500SOL    HW256602   1.177   4.556   4.425  0.6123  0.9559  0.3603
18501SOL     OW56603   3.080   6.418   3.454 -0.4501  0.0999  0.1591
18501SOL    HW156604   3.116   6.479   3.518 -0.2494  0.3166 -0.1518
18501SOL    HW256605   3.115   6.332   3.480 -0.1951  0.2187  0.2129
18502SOL     OW56606   6.157   6.085   5.235  0.0794 -0.3221  0.5174
18502SOL    HW156607   6.130   6.022   5.168  0.6152 -0.6781  0.6282
18502SOL    HW256608   6.131   6.045   5.318 -0.3751  0.0117  0.5394
18503SOL     OW56609   0.702   4.521   4.291 -0.1868 -0.1384  0.0561
18503SOL    HW156610   0.688   4.592   4.228 -1.8130 -1.5419 -1.2457
18503SOL    HW256611   0.660   4.552   4.372 -2.7605 -0.4315 -1.1064
18504SOL     OW56612   7.982   2.645   1.291  0.1337  0.0144  0.3604
18504SOL    HW156613   7.936   2.645   1.374  0.6789 -0.8271  0.6855
18504SOL    HW256614   8.075   2.646   1.315  0.3034 -0.6401 -0.2057
18505SOL     OW56615   1.220   4.636   1.604  0.1442  0.3920  1.1489
18505SOL    HW156616   1.138   4.646   1.556  0.9378 -1.8204 -0.8842
18505SOL    HW256617   1.257   4.724   1.606 -0.5767  0.8305 -1.1869
18506SOL     OW56618   6.778   4.432   4.254  0.1558 -0.0775  0.3558
18506SOL    HW156619   6.766   4.371   4.327  3.5425 -0.4933  0.7108
18506SOL    HW256620   6.779   4.376   4.176  1.1107 -0.2410  0.4739
18507SOL     OW56621   0.561   1.300   7.656 -0.2862  0.0367  0.0712
18507SOL    HW156622   0.521   1.292   7.743 -0.9538 -0.4145 -0.2750
18507SOL    HW256623   0.652   1.274   7.670 -0.4624 -0.3327  0.5736
18508SOL     OW56624   5.816   8.254   7.621  0.0780 -0.0170  0.5817
18508SOL    HW156625   5.845   8.217   7.704  1.7793  0.7232  0.3676
18508SOL    HW256626   5.835   8.187   7.556  0.2275  0.0179  0.5897
18509SOL     OW56627   2.460   1.228   2.595 -0.2074  0.8801  0.0450
18509SOL    HW156628   2.435   1.299   2.653  0.3652  0.9887  0.1548
18509SOL    HW256629   2.394   1.160   2.611 -0.1759  0.9911  0.6653
18510SOL     OW56630   5.536   5.997   3.091 -0.0658  0.2663  0.3048
18510SOL    HW156631   5.576   6.024   3.173 -1.3421 -0.1734  1.1046
18510SOL    HW256632   5.535   5.901   3.095 -0.0363  0.2376 -0.2760
18511SOL     OW56633   6.404   3.385   0.878 -0.2374 -0.0287  0.5767
18511SOL    HW156634   6.442   3.297   0.876  2.1842  0.8748  2.0815
18511SOL    HW256635   6.393   3.404   0.972 -1.3894  1.0253  0.2527
18512SOL     OW56636   4.467   7.468   2.199  0.1125 -0.1300 -0.5840
18512SOL    HW156637   4.515   7.503   2.274 -0.2653  0.6026 -0.6790
18512SOL    HW256638   4.464   7.540   2.137 -0.1697 -0.5185 -1.0237
18513SOL     OW56639   6.684   8.034   1.808 -0.1782 -0.4998  0.4398
18513SOL    HW156640   6.687   7.997   1.720 -1.0289 -0.7181  0.4935
18513SOL    HW256641   6.765   8.005   1.849  0.7542  0.4908 -0.6081
18514SOL     OW56642   5.886   6.415   8.747 -0.1774 -0.0448  0.5247
18514SOL    HW156643   5.955   6.364   8.704 -1.2198 -1.0627 -0.0084
18514SOL    HW256644   5.899   6.399   8.840  1.9845  2.0213  0.6712
18515SOL     OW56645   7.773   2.054   3.438 -0.7806 -0.4299  0.3581
18515SOL    HW156646   7.851   2.003   3.416 -0.3876  0.4148 -0.2591
18515SOL    HW256647   7.795   2.096   3.521 -0.6188 -0.2940  0.2482
18516SOL     OW56648   6.558   2.812   5.604  0.1363 -0.2632  1.1323
18516SOL    HW156649   6.608   2.750   5.552 -1.1043  0.5905 -1.2448
18516SOL    HW256650   6.469   2.776   5.606 -0.0445  0.1978  1.8809
18517SOL     OW56651   4.174   5.574   3.694 -0.2678  0.6384 -0.3820
18517SOL    HW156652   4.093   5.552   3.648 -0.5670  1.5174 -0.2909
18517SOL    HW256653   4.176   5.514   3.769 -0.3268 -0.0586 -0.9283
18518SOL     OW56654   3.358   2.579   0.024  0.1292 -0.0839 -0.4394
18518SOL    HW156655   3.272   2.611   0.054  0.4939  1.0439 -0.5643
18518SOL    HW256656   3.339   2.492  -0.013 -0.9984  0.2455 -0.6825
18519SOL     OW56657   7.489   1.835   4.479 -1.1095  0.2240  0.3887
18519SOL    HW156658   7.581   1.824   4.457 -1.1545  0.4002  0.1124
18519SOL    HW256659   7.482   1.925   4.511 -1.1453  0.1404  0.6213
18520SOL     OW56660   1.575   6.561   6.572  0.5925 -0.0100  0.3645
18520SOL    HW156661   1.482   6.575   6.553  0.3248 -2.3341 -0.4722
18520SOL    HW256662   1.618   6.572   6.487  0.9839  0.4169  0.6203
18521SOL     OW56663   6.004   1.668   3.205 -0.2661 -0.2328 -0.3458
18521SOL    HW156664   6.004   1.574   3.221  2.8412 -0.4537 -1.1758
18521SOL    HW256665   6.037   1.707   3.286  1.0191 -0.0987 -0.9234
18522SOL     OW56666   3.309   6.850   2.702 -0.1762 -0.2000  0.2807
18522SOL    HW156667   3.305   6.939   2.737 -0.8014 -0.4838  0.9569
18522SOL    HW256668   3.285   6.859   2.610 -1.4820  0.1760  0.6409
18523SOL     OW56669   7.755   5.770   8.208  0.1614 -0.0272 -0.4004
18523SOL    HW156670   7.760   5.860   8.242  0.8684  0.0456 -0.6668
18523SOL    HW256671   7.845   5.749   8.185  0.0324 -0.9042 -0.1097
18524SOL     OW56672   4.568   8.294   2.227 -0.0458 -0.1460 -0.5043
18524SOL    HW156673   4.628   8.360   2.263  0.0050  0.0446 -0.9379
18524SOL    HW256674   4.552   8.235   2.301  1.9132 -1.0920 -0.7595
18525SOL     OW56675   4.949   6.996   8.959 -0.4112 -0.1704  0.1736
18525SOL    HW156676   4.936   7.031   8.871  0.3195 -0.3255 -0.0052
18525SOL    HW256677   4.918   6.905   8.953  0.0355 -0.3097 -0.0403
18526SOL     OW56678   0.017   3.440   8.735  0.3577 -0.1541  0.1151
18526SOL    HW156679   0.096   3.387   8.744  0.2523 -0.9340 -2.6377
18526SOL    HW256680   0.049   3.530   8.730  1.0083 -0.3885 -0.0221
18527SOL     OW56681   6.448   0.073   2.407 -0.2301  0.5319  0.3395
18527SOL    HW156682   6.501   0.098   2.331 -1.6671  1.5459 -0.3710
18527SOL    HW256683   6.371   0.030   2.370  0.5400 -1.9411  1.4013
18528SOL     OW56684   6.195   3.481   2.887  0.2382 -0.5389  0.6374
18528SOL    HW156685   6.175   3.566   2.849  1.6353 -0.6471 -0.4296
18528SOL    HW256686   6.116   3.456   2.934 -0.5304  0.9063  0.1625
18529SOL     OW56687   5.730   7.558   0.391 -0.5208  0.0705  0.2144
18529SOL    HW156688   5.789   7.620   0.435 -1.6874  0.8585  0.7224
18529SOL    HW256689   5.788   7.501   0.342  0.6064  1.7004 -0.4553
18530SOL     OW56690   0.020   9.062   4.731 -0.0103  0.5479  0.6691
18530SOL    HW156691   0.041   9.146   4.691  1.1050  0.0788  0.2055
18530SOL    HW256692   0.008   9.003   4.656 -2.0145  0.5482  0.9578
18531SOL     OW56693   3.273   4.383   5.479  0.2165 -0.3684 -0.1517
18531SOL    HW156694   3.268   4.478   5.468  0.5051 -0.5605 -2.4976
18531SOL    HW256695   3.342   4.356   5.419 -0.2445 -2.1226  0.0624
18532SOL     OW56696   2.846   0.130   7.893 -0.6715 -0.6840  0.1370
18532SOL    HW156697   2.814   0.219   7.905 -1.8251 -1.2496  1.6198
18532SOL    HW256698   2.789   0.076   7.948  1.6522 -2.0200  1.3744
18533SOL     OW56699   7.898   2.358   0.944  0.2362 -1.4478  0.1790
18533SOL    HW156700   7.860   2.346   1.031 -2.8866  0.3257 -0.7625
18533SOL    HW256701   7.980   2.405   0.960 -2.3986  3.1444  2.1550
18534SOL     OW56702   7.906   5.299   2.799 -0.2914 -0.1149  0.1399
18534SOL    HW156703   7.994   5.328   2.774 -0.6933  0.0599 -1.1193
18534SOL    HW256704   7.903   5.313   2.894  1.3846 -1.0515  0.3845
18535SOL     OW56705   5.538   8.214   8.663 -0.2292  0.0098 -0.6466
18535SOL    HW156706   5.543   8.275   8.589 -0.1031  0.4340 -0.2875
18535SOL    HW256707   5.472   8.253   8.721  0.2510  0.0932 -0.1537
18536SOL     OW56708   5.827   4.836   2.548 -0.1590  0.5999 -0.2203
18536SOL    HW156709   5.732   4.838   2.535 -0.2044  2.0705  0.1322
18536SOL    HW256710   5.849   4.743   2.552 -1.4069  0.2108 -1.5359
18537SOL     OW56711   8.944   3.698   2.799 -0.2602  0.5128 -0.0611
18537SOL    HW156712   8.922   3.716   2.890  0.0303  2.5608 -0.3518
18537SOL    HW256713   9.034   3.729   2.789 -0.6167  1.2255 -1.2724
18538SOL     OW56714   2.984   6.030   2.587 -0.1121 -0.3904 -0.5677
18538SOL    HW156715   3.025   6.106   2.546  2.4986 -1.9952 -1.1920
18538SOL    HW256716   3.026   6.023   2.673 -0.7365 -0.8126 -0.2851
18539SOL     OW56717   6.979   6.502   1.411  0.0584  0.5043 -0.0118
18539SOL    HW156718   7.041   6.572   1.432  0.0988 -0.0940  2.1211
18539SOL    HW256719   6.936   6.482   1.494 -0.7688 -1.2385 -0.8014
18540SOL     OW56720   0.679   7.164   8.202 -0.0425 -0.2110  0.3146
18540SOL    HW156721   0.702   7.079   8.239  1.1769  0.9646  2.3988
18540SOL    HW256722   0.735   7.172   8.125  0.3257 -1.0069  0.4852
18541SOL     OW56723   5.560   6.937   8.985 -0.2839 -0.6568 -0.0137
18541SOL    HW156724   5.482   6.883   8.976 -0.7064 -0.2349  0.9498
18541SOL    HW256725   5.631   6.883   8.950 -1.0760 -0.8280 -1.4255
18542SOL     OW56726   8.721   8.283   4.462 -0.0249  0.2603  0.3038
18542SOL    HW156727   8.712   8.295   4.557  0.6897  2.2457  0.1787
18542SOL    HW256728   8.664   8.351   4.425 -0.5931 -0.7492 -0.7071
18543SOL     OW56729   2.840   8.418   3.600  0.6978  1.1728  0.4893
18543SOL    HW156730   2.849   8.402   3.694  0.9395  2.4974  0.7202
18543SOL    HW256731   2.821   8.512   3.594 -2.1284  0.6229 -0.6149
18544SOL     OW56732   6.964   5.908   6.343 -0.5181  0.2817  0.3288
18544SOL    HW156733   7.041   5.899   6.398 -1.4542 -1.4266  1.4566
18544SOL    HW256734   6.974   5.840   6.276 -1.7314 -1.0822  1.4421
18545SOL     OW56735   1.428   5.723   8.547  0.1155 -0.3457 -0.2444
18545SOL    HW156736   1.356   5.703   8.488 -0.7895  0.3710  0.5810
18545SOL    HW256737   1.448   5.639   8.589  0.6981 -0.8375 -1.4493
18546SOL     OW56738   1.840   5.421   3.242  0.2683  0.1418  0.0701
18546SOL    HW156739   1.803   5.429   3.155  1.5708  0.5380 -0.4635
18546SOL    HW256740   1.763   5.419   3.300 -0.6791 -1.3312 -1.1351
18547SOL     OW56741   4.630   5.350   4.610 -0.1330  0.2704 -0.3180
18547SOL    HW156742   4.613   5.287   4.540 -0.1374  0.1732 -0.2296
18547SOL    HW256743   4.701   5.311   4.660 -0.8787 -0.1911  0.3918
18548SOL     OW56744   2.308   7.084   8.164 -0.1092  0.0129 -0.3170
18548SOL    HW156745   2.224   7.048   8.137  0.0621 -0.6932  0.0551
18548SOL    HW256746   2.373   7.037   8.112  0.0505  0.7675 -0.8219
18549SOL     OW56747   8.355   9.089   8.396  0.5760  0.5566 -0.0921
18549SOL    HW156748   8.347   9.017   8.332 -0.7264 -0.1732  0.8270
18549SOL    HW256749   8.266   9.125   8.402  0.1822 -0.5836  2.5768
18550SOL     OW56750   8.003   0.888   6.970  0.5219 -0.0312 -0.2141
18550SOL    HW156751   7.993   0.795   6.950 -1.6895  0.2487 -0.5844
18550SOL    HW256752   7.931   0.908   7.030  0.0607  1.7458 -1.2687
18551SOL     OW56753   3.516   0.233   1.494 -0.6440 -0.2840 -0.6008
18551SOL    HW156754   3.587   0.173   1.516 -0.5242 -0.8930 -2.5074
18551SOL    HW256755   3.514   0.234   1.399 -1.9267  1.2529 -0.5949
18552SOL     OW56756   5.662   2.284   2.725  0.0409 -0.5738 -0.8292
18552SOL    HW156757   5.600   2.348   2.760 -1.3702 -1.8688 -0.8329
18552SOL    HW256758   5.660   2.298   2.630 -1.4343 -1.5590 -0.9824
18553SOL     OW56759   8.421   3.377   4.288 -0.1469  0.3049  0.5902
18553SOL    HW156760   8.399   3.359   4.197  1.6092  0.6329  0.0553
18553SOL    HW256761   8.423   3.291   4.330 -1.9155  0.2278  0.5967
18554SOL     OW56762   5.986   1.436   1.557 -0.1533  0.0178  0.6654
18554SOL    HW156763   6.002   1.502   1.490 -1.7014  0.7599  0.9886
18554SOL    HW256764   6.073   1.418   1.594  0.4997  0.7244 -0.4754
18555SOL     OW56765   7.087   0.776   6.189  0.1248  0.0053  0.1803
18555SOL    HW156766   7.015   0.713   6.180 -2.2330  2.2628  1.7215
18555SOL    HW256767   7.079   0.808   6.279  0.7641  2.9335 -0.7099
18556SOL     OW56768   5.725   6.848   7.915  0.0679  0.2393  0.2036
18556SOL    HW156769   5.771   6.922   7.876 -2.2053  0.8612 -1.5249
18556SOL    HW256770   5.793   6.798   7.961  1.7639  3.0130  0.9001
18557SOL     OW56771   7.554   7.794   4.643  0.3256 -0.2852 -0.4210
18557SOL    HW156772   7.529   7.822   4.555 -0.7012 -1.5043 -0.5445
18557SOL    HW256773   7.567   7.699   4.636  1.5154 -0.2135  0.4634
18558SOL     OW56774   3.015   8.697   7.092 -0.0861 -0.0998  0.2710
18558SOL    HW156775   3.043   8.628   7.032  0.5208  1.3951 -1.2402
18558SOL    HW256776   2.920   8.687   7.096 -0.3622  0.8093 -2.3710
18559SOL     OW56777   7.787   0.700   6.504 -0.2054  0.0167  0.0014
18559SOL    HW156778   7.798   0.610   6.536 -0.9274 -0.1487 -0.1928
18559SOL    HW256779   7.823   0.755   6.573  1.7197 -0.4624 -0.5562
18560SOL     OW56780   6.487   6.673   4.875  0.5301 -0.6567 -0.2231
18560SOL    HW156781   6.404   6.629   4.854  1.3984 -1.6187 -1.8278
18560SOL    HW256782   6.522   6.623   4.949 -0.2259 -0.3199  0.3867
18561SOL     OW56783   8.207   3.048   8.367 -0.1014 -0.1014 -0.1695
18561SOL    HW156784   8.296   3.059   8.401  0.0360 -1.4349 -0.0302
18561SOL    HW256785   8.152   3.101   8.426  0.5041  0.0691  0.2502
18562SOL     OW56786   3.733   1.097   1.025 -0.5503  0.1624  0.1775
18562SOL    HW156787   3.741   1.014   0.977  0.0998  0.7026 -0.6872
18562SOL    HW256788   3.777   1.161   0.969 -1.1415  1.1163  0.7814
18563SOL     OW56789   7.747   7.568   6.498  0.1267  0.9292  0.6214
18563SOL    HW156790   7.794   7.644   6.462 -0.9589  1.1549 -0.3682
18563SOL    HW256791   7.816   7.515   6.540  1.1192  1.7060  0.0188
18564SOL     OW56792   4.428   5.593   1.977  0.5065 -0.3378 -0.0822
18564SOL    HW156793   4.434   5.660   2.045 -0.7316 -0.6587  0.3755
18564SOL    HW256794   4.489   5.525   2.004  0.7076 -0.0384  0.2161
18565SOL     OW56795   6.928   2.419   6.142 -0.0662 -0.2282  0.5877
18565SOL    HW156796   6.969   2.364   6.209 -0.7551 -0.8538  0.4951
18565SOL    HW256797   6.940   2.371   6.060 -1.4259 -0.6726  0.6289
18566SOL     OW56798   3.998   5.338   3.366  0.1452  0.1485  0.1104
18566SOL    HW156799   4.049   5.258   3.375  1.5111  0.9024 -0.6028
18566SOL    HW256800   3.989   5.372   3.456  0.4767 -0.2396  0.2894
18567SOL     OW56801   6.393   8.235   2.509 -0.5985  0.5363  0.4698
18567SOL    HW156802   6.481   8.200   2.496 -1.9416 -2.6569 -1.1814
18567SOL    HW256803   6.377   8.226   2.603 -0.2050 -1.9048  0.3705
18568SOL     OW56804   6.820   1.204   1.115  0.3694  0.5358  0.3221
18568SOL    HW156805   6.738   1.223   1.161 -2.0720 -0.4511 -3.2294
18568SOL    HW256806   6.857   1.290   1.096 -0.7244  1.0755  0.5350
18569SOL     OW56807   7.160   4.792   3.723 -0.0262  0.0037 -0.7469
18569SOL    HW156808   7.076   4.765   3.687 -0.1570 -0.3540 -0.1868
18569SOL    HW256809   7.147   4.882   3.754 -0.1965 -0.0429 -0.6848
18570SOL     OW56810   9.092   1.638   2.278 -0.0828  0.6786 -0.1426
18570SOL    HW156811   9.148   1.665   2.205  0.6120  0.4775  0.3025
18570SOL    HW256812   9.101   1.709   2.342 -3.1263  2.4327 -1.4512
18571SOL     OW56813   1.470   2.105   7.072 -0.9521  0.2300 -0.4469
18571SOL    HW156814   1.549   2.070   7.113 -0.9430  1.7059  0.9302
18571SOL    HW256815   1.448   2.043   7.003  1.7964  0.1506 -1.3473
18572SOL     OW56816   2.701   4.264   1.955  0.3927  0.2059  0.2545
18572SOL    HW156817   2.625   4.209   1.935  0.3857 -0.3038  1.5883
18572SOL    HW256818   2.747   4.271   1.871  0.2056 -1.5674 -0.0528
18573SOL     OW56819   5.278   3.557   3.375  0.0384 -0.0580  0.2511
18573SOL    HW156820   5.207   3.504   3.338  0.5076  0.5800 -1.6921
18573SOL    HW256821   5.355   3.534   3.323  0.6981  1.0811  0.6900
18574SOL     OW56822   5.782   6.533   4.806 -0.3715 -0.5683  0.1550
18574SOL    HW156823   5.808   6.625   4.797  0.4976 -0.8995 -0.8632
18574SOL    HW256824   5.686   6.536   4.813 -0.2730  0.5253  1.8306
18575SOL     OW56825   4.883   5.100   8.896 -0.5470  0.1704  0.2972
18575SOL    HW156826   4.960   5.133   8.942 -1.3861  1.8457  0.6041
18575SOL    HW256827   4.826   5.066   8.966 -0.3428 -0.5331  0.1293
18576SOL     OW56828   7.735   8.486   4.783 -0.1773  0.3682 -0.4050
18576SOL    HW156829   7.675   8.520   4.850  1.1065  2.6055 -0.2879
18576SOL    HW256830   7.723   8.545   4.708  0.9178  0.0401 -0.8561
18577SOL     OW56831   5.146   6.340   2.562  0.2333 -0.2424  0.3877
18577SOL    HW156832   5.067   6.311   2.516  0.1662  1.8282 -0.9331
18577SOL    HW256833   5.139   6.300   2.649 -0.6584 -2.6381 -0.6977
18578SOL     OW56834   6.479   7.924   0.338 -0.3424  0.2715 -0.0795
18578SOL    HW156835   6.523   7.855   0.290 -1.1659 -1.6937  1.8232
18578SOL    HW256836   6.476   7.998   0.277  2.7752 -0.4787 -1.3221
18579SOL     OW56837   6.834   4.408   2.235 -0.7222  0.1123 -0.5518
18579SOL    HW156838   6.808   4.476   2.298 -1.5060 -0.9670  0.3408
18579SOL    HW256839   6.772   4.337   2.251  1.8563 -2.0409  0.6248
18580SOL     OW56840   0.988   5.175   0.086  0.1879 -0.1301  0.5206
18580SOL    HW156841   0.940   5.229   0.149  0.5633  1.9311 -0.8618
18580SOL    HW256842   1.080   5.198   0.099  0.4601 -1.2036  0.5703
18581SOL     OW56843   3.765   4.336   1.326 -0.7935  0.2072  0.1068
18581SOL    HW156844   3.733   4.320   1.414  0.9117  0.8140  0.8687
18581SOL    HW256845   3.754   4.253   1.280 -1.3625 -0.2058  0.9742
18582SOL     OW56846   6.317   5.007   5.124  0.3695 -0.0787  0.8281
18582SOL    HW156847   6.370   5.085   5.138  1.3796 -0.5364 -0.2835
18582SOL    HW256848   6.241   5.038   5.074  1.9837 -0.1502 -1.8321
18583SOL     OW56849   7.208   7.574   2.168  0.1106 -0.0399 -0.7342
18583SOL    HW156850   7.209   7.505   2.234 -0.5639  1.1917  0.6292
18583SOL    HW256851   7.289   7.623   2.185 -1.1523  1.6572  0.7794
18584SOL     OW56852   9.132   4.588   8.907  0.1048 -0.0712 -0.0102
18584SOL    HW156853   9.122   4.677   8.941 -2.4660  0.5312 -2.0577
18584SOL    HW256854   9.074   4.535   8.963 -1.7611  0.3923 -1.3965
18585SOL     OW56855   0.939   8.561   7.352  0.2159 -0.3725 -0.3532
18585SOL    HW156856   0.856   8.596   7.322  0.2408 -1.1021 -1.3189
18585SOL    HW256857   1.005   8.605   7.299  0.5656  0.9791  1.1146
18586SOL     OW56858   5.409   3.063   9.105 -0.2913  0.5103  0.5071
18586SOL    HW156859   5.363   2.986   9.072  2.0625 -0.1957 -1.4287
18586SOL    HW256860   5.501   3.039   9.100  0.5110  3.3762  0.0493
18587SOL     OW56861   1.113   5.951   8.756  0.2397 -0.2954 -0.1866
18587SOL    HW156862   1.087   5.859   8.755 -0.3124 -0.2104  1.6129
18587SOL    HW256863   1.205   5.950   8.732 -0.0719 -1.1707 -1.4238
18588SOL     OW56864   1.859   4.073   5.348  0.5870 -0.3673  0.3773
18588SOL    HW156865   1.834   4.154   5.392  0.5311 -0.7544  1.0794
18588SOL    HW256866   1.954   4.079   5.337  0.4479  0.2749 -0.5840
18589SOL     OW56867   1.573   7.702   1.020 -0.2938  0.6280 -0.1155
18589SOL    HW156868   1.502   7.738   1.074  0.3223 -0.0673  1.1956
18589SOL    HW256869   1.627   7.778   0.998 -1.1545  1.0899 -0.7234
18590SOL     OW56870   3.874   8.016   4.164  0.4445  0.2234  0.3610
18590SOL    HW156871   3.859   7.994   4.072  0.2951  0.4212  0.3388
18590SOL    HW256872   3.855   7.934   4.211 -1.1157  0.5622  0.3764
18591SOL     OW56873   3.050   0.940   3.648 -0.0956  0.5082  0.2168
18591SOL    HW156874   2.969   0.888   3.647 -0.1992  0.5807 -2.4838
18591SOL    HW256875   3.029   1.016   3.702 -1.0886 -0.5232  1.3507
18592SOL     OW56876   4.410   3.215   1.891 -0.3274  0.1454 -0.2278
18592SOL    HW156877   4.335   3.162   1.920  0.8568 -1.2472  0.4057
18592SOL    HW256878   4.413   3.202   1.796 -0.6820 -0.0614 -0.2120
18593SOL     OW56879   7.601   6.529   5.028  0.2730  0.4408 -0.6262
18593SOL    HW156880   7.596   6.492   4.940 -2.8890 -0.8559 -0.0314
18593SOL    HW256881   7.574   6.620   5.016  0.5336  0.4624 -1.0926
18594SOL     OW56882   1.592   5.003   7.196 -0.3600 -0.1679  0.1871
18594SOL    HW156883   1.573   4.910   7.203 -0.0599 -0.4163 -1.8405
18594SOL    HW256884   1.611   5.017   7.104 -0.0759  1.8522  0.5083
18595SOL     OW56885   8.883   3.928   0.597  0.1289 -0.4186  0.0441
18595SOL    HW156886   8.821   3.997   0.574 -2.0337 -2.2392  0.1321
18595SOL    HW256887   8.959   3.944   0.540  0.9778  3.5711  1.8747
18596SOL     OW56888   2.928   3.749   1.910 -0.8400  0.4230 -0.3972
18596SOL    HW156889   2.835   3.769   1.896 -0.8302  0.1213 -0.9122
18596SOL    HW256890   2.961   3.825   1.959 -1.0492  1.2023 -1.4185
18597SOL     OW56891   4.785   4.172   3.989 -0.5761 -0.4054 -0.1195
18597SOL    HW156892   4.738   4.230   4.050  0.1947 -0.3603  0.4573
18597SOL    HW256893   4.843   4.121   4.046 -0.0418 -0.5577 -0.7963
18598SOL     OW56894   2.512   2.184   8.173  0.4457  0.0226  0.4747
18598SOL    HW156895   2.457   2.127   8.120  1.2979  0.1957 -0.6202
18598SOL    HW256896   2.601   2.163   8.147  0.9193 -0.2537  2.2181
18599SOL     OW56897   8.887   6.901   5.257  0.3364  0.4154 -0.2182
18599SOL    HW156898   8.920   6.821   5.216  1.2869  1.4667 -1.5971
18599SOL    HW256899   8.961   6.932   5.310  0.7709  1.5393 -1.4544
18600SOL     OW56900   3.249   5.244   1.330 -0.0063  0.3525 -0.1609
18600SOL    HW156901   3.183   5.311   1.311  0.8559  1.2254 -0.1539
18600SOL    HW256902   3.324   5.293   1.365 -0.4206 -0.8824  2.7273
18601SOL     OW56903   4.173   3.933   7.528 -0.3939 -0.0160 -0.0858
18601SOL    HW156904   4.197   4.000   7.464 -2.2162 -2.5405 -3.7218
18601SOL    HW256905   4.134   3.983   7.600  2.3417  3.0258 -0.4623
18602SOL     OW56906   4.098   5.399   2.048 -0.3287 -0.2780  0.2101
18602SOL    HW156907   4.142   5.484   2.040  0.8289 -0.8750  0.0369
18602SOL    HW256908   4.021   5.407   1.992  0.1730  0.4057 -0.4117
18603SOL     OW56909   3.169   0.774   5.156  0.1069  0.0633 -0.2777
18603SOL    HW156910   3.219   0.840   5.107 -0.5759  3.2651  2.9397
18603SOL    HW256911   3.085   0.815   5.172 -0.7399 -2.0680  1.0496
18604SOL     OW56912   3.609   0.644   0.515 -0.6695 -0.4072 -0.1879
18604SOL    HW156913   3.664   0.604   0.582  1.7419  2.2362 -0.4265
18604SOL    HW256914   3.658   0.634   0.434 -0.1816  2.3772 -0.3421
18605SOL     OW56915   6.090   2.614   8.857 -0.5968  0.4383  0.1218
18605SOL    HW156916   6.070   2.650   8.943  1.7059  0.0053  0.9235
18605SOL    HW256917   6.185   2.605   8.857 -0.7713 -2.5537 -1.2654
18606SOL     OW56918   0.192   7.202   4.735  0.1901 -0.4464  0.4918
18606SOL    HW156919   0.157   7.171   4.652 -0.0165  1.0587 -0.0056
18606SOL    HW256920   0.190   7.297   4.729 -0.9519 -0.2563  2.6724
18607SOL     OW56921   4.377   2.880   4.775  0.6875 -0.0690 -0.1800
18607SOL    HW156922   4.282   2.882   4.762  0.7665  0.2708 -0.7542
18607SOL    HW256923   4.410   2.827   4.702  0.8777 -0.8326  0.4481
18608SOL     OW56924   0.046   4.177   3.278  0.3199 -0.0865 -0.1174
18608SOL    HW156925  -0.040   4.135   3.272  0.2248  0.1379 -0.3164
18608SOL    HW256926   0.108   4.103   3.283  0.2658 -0.3032 -1.9144
18609SOL     OW56927   7.373   5.965   2.015 -0.4407 -0.2618  0.4190
18609SOL    HW156928   7.464   5.994   2.014 -0.0895 -1.3084  0.0349
18609SOL    HW256929   7.377   5.876   2.051 -1.2999 -0.3645  0.2855
18610SOL     OW56930   3.876   7.742   4.251 -0.6526 -0.0194  0.2790
18610SOL    HW156931   3.915   7.664   4.211 -0.4913 -0.3237  1.0266
18610SOL    HW256932   3.800   7.709   4.299 -1.8329  0.5589 -1.0972
18611SOL     OW56933   3.412   8.253   5.012  0.2929 -0.3930  0.0265
18611SOL    HW156934   3.412   8.158   5.028  3.5845 -1.1360 -2.9325
18611SOL    HW256935   3.500   8.281   5.039  0.6032  1.0482 -2.2540
18612SOL     OW56936   0.222   1.818   4.877 -0.0853 -0.6550 -0.1951
18612SOL    HW156937   0.200   1.798   4.968  1.2516 -0.2261  0.2481
18612SOL    HW256938   0.219   1.733   4.832  1.6765 -1.3013  0.8072
18613SOL     OW56939   1.062   3.593   5.477 -0.2139  0.3305  0.1260
18613SOL    HW156940   1.067   3.636   5.562  0.4256 -1.2006  0.9018
18613SOL    HW256941   0.968   3.579   5.462 -0.3538  1.0330  0.3507
18614SOL     OW56942   5.765   5.832   2.904 -0.3606 -0.2153 -0.3976
18614SOL    HW156943   5.690   5.774   2.914 -1.0968  0.5243 -1.3844
18614SOL    HW256944   5.773   5.877   2.988 -0.7550 -0.5995 -0.1501
18615SOL     OW56945   9.124   1.011   1.127  0.3700  0.1227 -0.3681
18615SOL    HW156946   9.104   0.917   1.118  0.1975 -0.0275  1.3101
18615SOL    HW256947   9.067   1.041   1.198 -0.0631  1.6681 -1.3294
18616SOL     OW56948   5.818   5.890   8.857 -0.7653  0.0439 -0.6718
18616SOL    HW156949   5.898   5.933   8.828 -1.6522  1.7570 -0.7076
18616SOL    HW256950   5.846   5.803   8.884  1.1514  0.6801 -0.4501
18617SOL     OW56951   0.367   7.174   8.918  0.7764 -0.0627  0.0690
18617SOL    HW156952   0.363   7.182   9.013 -0.0726  0.7880 -0.0273
18617SOL    HW256953   0.377   7.080   8.903 -1.2130 -0.4619  0.9498
18618SOL     OW56954   5.069   6.233   0.799  0.3429  0.4563 -0.2180
18618SOL    HW156955   5.163   6.217   0.806  0.4929  0.9939 -0.8317
18618SOL    HW256956   5.061   6.328   0.807 -0.3742  0.2501  1.9955
18619SOL     OW56957   0.347   0.984   1.288  0.5121 -0.0571  0.3711
18619SOL    HW156958   0.276   0.924   1.264  0.2373  0.1508  0.6471
18619SOL    HW256959   0.311   1.034   1.361  0.7429  0.4342  0.1481
18620SOL     OW56960   3.407   4.867   1.667 -0.1009  0.1883 -0.6500
18620SOL    HW156961   3.461   4.907   1.598  0.8082  1.3931  0.6888
18620SOL    HW256962   3.322   4.909   1.658  0.5305  1.6997  0.0476
18621SOL     OW56963   4.114   5.015   2.436 -0.8611  0.0593 -0.0221
18621SOL    HW156964   4.061   5.025   2.357 -1.4999  1.4926  0.5587
18621SOL    HW256965   4.199   4.984   2.404 -1.1727  0.4192 -1.2464
18622SOL     OW56966   3.213   6.200   3.693  0.2581 -0.0491 -0.5446
18622SOL    HW156967   3.163   6.124   3.664  0.8143 -0.4681 -0.4253
18622SOL    HW256968   3.182   6.217   3.782  0.4538 -0.4179 -0.4051
18623SOL     OW56969   6.522   3.068   3.304 -0.5081 -0.2505 -0.1811
18623SOL    HW156970   6.458   3.032   3.243  0.1622 -2.1007  0.1231
18623SOL    HW256971   6.596   3.008   3.298  0.9963  1.5188 -0.1211
18624SOL     OW56972   2.976   1.055   8.544 -0.5276 -0.3600 -0.1707
18624SOL    HW156973   2.967   1.071   8.450 -0.6331  0.4297 -0.0290
18624SOL    HW256974   3.007   0.964   8.550 -1.2405 -0.6668 -0.9360
18625SOL     OW56975   5.535   7.830   2.164  0.0492 -0.3685  0.0624
18625SOL    HW156976   5.540   7.738   2.138  1.2156  0.3581 -2.7338
18625SOL    HW256977   5.617   7.847   2.209  0.5925 -0.3563 -0.8959
18626SOL     OW56978   3.255   7.926   6.968  0.2270 -0.1151 -0.0155
18626SOL    HW156979   3.173   7.894   7.006 -0.2133  0.3325 -0.5504
18626SOL    HW256980   3.268   8.012   7.009  1.4960 -1.0179  1.5487
18627SOL     OW56981   5.561   6.768   7.238  0.2731  0.2729 -0.0938
18627SOL    HW156982   5.647   6.743   7.273  1.3271 -0.7245 -3.0975
18627SOL    HW256983   5.553   6.719   7.157 -2.5476  1.4733 -0.6461
18628SOL     OW56984   3.959   3.688   3.438  0.1771 -0.4784  0.0605
18628SOL    HW156985   3.884   3.712   3.493  0.3445  1.0079 -0.3032
18628SOL    HW256986   3.933   3.714   3.350  1.5759  1.3418  0.1096
18629SOL     OW56987   6.617   5.331   4.315  0.4986 -0.5848 -0.1353
18629SOL    HW156988   6.706   5.334   4.350  0.6498 -0.5192 -0.5198
18629SOL    HW256989   6.623   5.275   4.238  0.4841  0.4710 -0.9340
18630SOL     OW56990   0.028   4.683   8.639  0.0702 -0.1574  0.0540
18630SOL    HW156991   0.000   4.669   8.730 -0.2252 -1.3070 -0.1998
18630SOL    HW256992  -0.047   4.655   8.586  0.4276  0.0257 -0.5630
18631SOL     OW56993   0.321   2.249   0.687 -0.3858  0.5321 -0.2169
18631SOL    HW156994   0.317   2.337   0.724 -0.9958  1.1048 -1.6053
18631SOL    HW256995   0.241   2.240   0.636  0.3942 -0.2322 -1.3693
18632SOL     OW56996   4.643   8.586   0.172 -0.9003  0.1969 -0.1413
18632SOL    HW156997   4.652   8.671   0.217  0.4867  0.0592 -0.1049
18632SOL    HW256998   4.693   8.597   0.091  0.9665 -1.1603  0.7417
18633SOL     OW56999   5.774   6.183   7.087  0.2541 -0.4613 -0.7696
18633SOL    HW157000   5.866   6.210   7.093  0.9232 -2.1577 -2.2838
18633SOL    HW257001   5.745   6.215   7.002 -0.8961  0.9158  0.1101
18634SOL     OW57002   0.901   8.373   5.725  0.0537  0.1272  0.5598
18634SOL    HW157003   0.815   8.339   5.703 -0.2977  1.2518  0.0844
18634SOL    HW257004   0.896   8.466   5.700  1.9734 -0.1651 -1.1517
18635SOL     OW57005   4.873   0.268   4.590 -0.4145  0.0322  0.6403
18635SOL    HW157006   4.876   0.252   4.685 -0.4825  0.5054  0.7253
18635SOL    HW257007   4.935   0.205   4.554 -0.7778 -0.5127  0.9460
18636SOL     OW57008   0.778   0.022   3.513 -0.1046 -0.0978 -0.4986
18636SOL    HW157009   0.797  -0.072   3.514  1.1046  0.1384  0.0284
18636SOL    HW257010   0.842   0.059   3.453 -0.9445  0.3344 -1.1519
18637SOL     OW57011   1.137   5.870   1.215  0.2088  0.6415 -0.3078
18637SOL    HW157012   1.226   5.887   1.246  0.4557 -1.7995  0.4909
18637SOL    HW257013   1.148   5.813   1.140 -0.6935 -0.9755  0.7485
18638SOL     OW57014   1.394   0.595   5.242 -0.2040 -0.2466  0.1313
18638SOL    HW157015   1.384   0.683   5.279  3.1017 -0.3430  1.6202
18638SOL    HW257016   1.377   0.536   5.315 -1.1799 -0.8274 -0.5434
18639SOL     OW57017   4.254   3.376   8.988  0.3748 -0.0179  0.3371
18639SOL    HW157018   4.205   3.446   9.030 -1.7541 -0.8165 -0.6801
18639SOL    HW257019   4.334   3.418   8.958 -1.0388  2.1370 -0.6842
18640SOL     OW57020   1.348   6.296   0.333  0.4239 -0.0382  0.1926
18640SOL    HW157021   1.382   6.215   0.295 -1.9773  0.0208 -2.3678
18640SOL    HW257022   1.390   6.302   0.419  1.9343 -3.1018 -0.2172
18641SOL     OW57023   0.144   1.150   2.223  0.4866  0.5939  0.2416
18641SOL    HW157024   0.181   1.209   2.290  0.3868  1.8375 -0.7652
18641SOL    HW257025   0.218   1.094   2.198  1.1927  1.7286 -0.3166
18642SOL     OW57026   1.651   4.760   7.737 -0.8659 -0.2174 -0.2867
18642SOL    HW157027   1.656   4.669   7.706  0.6653  0.3124 -1.7311
18642SOL    HW257028   1.742   4.789   7.740 -1.2949  1.1139  0.7193
18643SOL     OW57029   2.982   4.681   5.113  0.3673 -0.3046  0.4404
18643SOL    HW157030   2.964   4.621   5.041  0.5938 -0.2387  0.3271
18643SOL    HW257031   3.043   4.745   5.076  0.9806 -0.6318  0.8638
18644SOL     OW57032   4.319   4.207   0.952  0.7618 -0.3194 -0.0039
18644SOL    HW157033   4.366   4.128   0.978  0.7731 -0.3473 -0.1066
18644SOL    HW257034   4.263   4.228   1.026 -1.6192 -2.2308 -1.1171
18645SOL     OW57035   5.411   5.071   2.659  0.1859  0.1873  0.9894
18645SOL    HW157036   5.434   5.110   2.743 -0.0340  0.5552  0.8825
18645SOL    HW257037   5.436   5.137   2.594 -0.7814  0.4352  0.8461
18646SOL     OW57038   2.024   6.342   0.344 -0.6740 -0.8395  0.2134
18646SOL    HW157039   1.947   6.293   0.315 -0.6693 -0.3669 -0.5943
18646SOL    HW257040   2.070   6.280   0.401 -0.8379 -1.6668 -0.5290
18647SOL     OW57041   6.824   7.011   6.884 -0.2194  0.4749 -0.0716
18647SOL    HW157042   6.741   6.992   6.839 -0.1992 -0.4582  0.2722
18647SOL    HW257043   6.801   7.076   6.950 -0.3974  1.2845 -0.8995
18648SOL     OW57044   0.740   2.990   8.389  1.0749 -0.3109  0.2305
18648SOL    HW157045   0.785   2.995   8.305  0.7622  2.0691  0.1267
18648SOL    HW257046   0.765   3.071   8.434 -0.5624 -0.4426  1.4683
18649SOL     OW57047   6.177   2.111   5.430 -0.1913 -0.2595 -0.2547
18649SOL    HW157048   6.094   2.066   5.412 -0.3811 -1.2924  2.6197
18649SOL    HW257049   6.235   2.043   5.463  1.5289  0.6384 -1.2760
18650SOL     OW57050   2.274   0.893   7.781 -0.0360 -0.1679 -0.2311
18650SOL    HW157051   2.270   0.808   7.737  0.6471 -1.0114  1.2463
18650SOL    HW257052   2.321   0.950   7.720 -1.4996 -0.5009 -1.7307
18651SOL     OW57053   7.292   2.578   3.406 -0.0203 -0.4316 -0.2309
18651SOL    HW157054   7.304   2.656   3.352 -0.6475 -0.0528  0.1613
18651SOL    HW257055   7.379   2.539   3.411 -0.2216 -1.3303 -2.7567
18652SOL     OW57056   3.274   5.804   1.949 -0.0332 -0.2897  0.2143
18652SOL    HW157057   3.286   5.892   1.912 -0.9872 -0.4307 -0.4718
18652SOL    HW257058   3.363   5.770   1.958  0.3813  0.9685  1.0715
18653SOL     OW57059   1.432   7.833   8.043 -0.2046 -0.1223  0.7490
18653SOL    HW157060   1.511   7.865   8.001 -0.8794 -0.0261 -0.4946
18653SOL    HW257061   1.431   7.739   8.024 -0.2817 -0.1618  0.9435
18654SOL     OW57062   0.262   1.926   3.295 -0.4018 -0.5036  0.3565
18654SOL    HW157063   0.208   1.994   3.254  0.2729  0.4934  1.0885
18654SOL    HW257064   0.309   1.971   3.365 -0.3774 -1.8474  1.2495
18655SOL     OW57065   7.989   5.487   1.787 -0.3380  0.5900 -0.0809
18655SOL    HW157066   7.978   5.570   1.834  0.3686  0.0110  1.1523
18655SOL    HW257067   7.954   5.421   1.846  0.5587 -0.1674 -0.3695
18656SOL     OW57068   8.639   1.923   5.619 -0.2387  0.2756 -0.6072
18656SOL    HW157069   8.554   1.882   5.603 -0.7500  0.7479  0.7148
18656SOL    HW257070   8.657   1.973   5.540 -1.0518 -0.0697 -1.0245
18657SOL     OW57071   8.814   5.814   6.838 -0.1772 -0.3022 -0.5334
18657SOL    HW157072   8.875   5.747   6.805 -0.8263 -1.4732  0.5698
18657SOL    HW257073   8.863   5.858   6.908 -0.5586 -1.2241  0.3344
18658SOL     OW57074   4.188   8.109   4.461 -0.2874  0.8684 -0.3556
18658SOL    HW157075   4.200   8.201   4.485 -1.2321  0.7890  0.5269
18658SOL    HW257076   4.096   8.103   4.437 -0.5284 -0.0720  0.7375
18659SOL     OW57077   5.005   6.931   4.640  0.0592  0.1502  0.7227
18659SOL    HW157078   4.976   6.962   4.554  1.0489  0.7644  0.6035
18659SOL    HW257079   5.049   6.848   4.621  1.6323  1.0143  0.4070
18660SOL     OW57080   5.353   5.865   4.154 -0.0558  0.0548  0.2663
18660SOL    HW157081   5.399   5.794   4.199  1.6608  0.0332 -1.4078
18660SOL    HW257082   5.260   5.847   4.171  0.3039 -2.6056 -0.0822
18661SOL     OW57083   2.126   5.982   5.778  0.0702 -0.4493 -0.0471
18661SOL    HW157084   2.205   5.946   5.819  1.1410  2.4896  0.6586
18661SOL    HW257085   2.054   5.953   5.834  1.1122  0.2619  1.7157
18662SOL     OW57086   8.790   1.469   4.000 -0.1797 -0.0959  0.0870
18662SOL    HW157087   8.724   1.477   4.069  0.3928 -0.2965  0.6604
18662SOL    HW257088   8.766   1.536   3.936 -0.7218  0.0832  0.4716
18663SOL     OW57089   0.060   5.973   6.735  0.0409  0.6710 -0.8614
18663SOL    HW157090  -0.001   6.026   6.785 -0.7794 -0.7796 -0.2450
18663SOL    HW257091   0.071   5.893   6.787  1.8215  0.5351 -1.3680
18664SOL     OW57092   1.691   2.817   3.892 -0.3456 -0.3449  0.4848
18664SOL    HW157093   1.756   2.859   3.837  0.4344 -2.9709 -0.7934
18664SOL    HW257094   1.608   2.859   3.869  0.3480  0.3494 -0.8273
18665SOL     OW57095   4.447   7.329   8.076  0.4029  0.5596  0.1072
18665SOL    HW157096   4.535   7.294   8.069  0.3923  0.5689 -0.1012
18665SOL    HW257097   4.390   7.253   8.065  0.3510  0.8212 -1.9151
18666SOL     OW57098   8.060   3.363   6.547 -0.3793 -0.3743  0.2036
18666SOL    HW157099   8.080   3.431   6.610 -0.0237 -0.4911  0.2177
18666SOL    HW257100   7.982   3.395   6.501 -1.8723 -1.1836  2.0289
18667SOL     OW57101   6.616   0.245   0.562 -0.7301  0.0981 -0.0991
18667SOL    HW157102   6.698   0.294   0.553 -0.1958 -0.1424  2.5431
18667SOL    HW257103   6.572   0.255   0.478  2.2746 -0.2927 -1.8497
18668SOL     OW57104   4.204   7.632   1.368 -0.4794 -0.5850  0.1294
18668SOL    HW157105   4.160   7.709   1.405  0.8428 -0.5743  1.7697
18668SOL    HW257106   4.145   7.603   1.298 -1.7069  1.0599  0.4013
18669SOL     OW57107   4.804   6.698   1.869  0.1339  0.4816  0.6120
18669SOL    HW157108   4.718   6.718   1.907  0.0960 -1.4169  1.6331
18669SOL    HW257109   4.860   6.770   1.898 -1.1903  2.0448 -0.5327
18670SOL     OW57110   3.452   2.178   8.966 -0.2104 -0.5038 -0.4877
18670SOL    HW157111   3.498   2.243   8.914  0.0531 -0.4123 -0.1432
18670SOL    HW257112   3.394   2.229   9.023 -0.4665 -0.6002 -0.6630
18671SOL     OW57113   7.080   1.058   0.856 -0.3821  0.0075 -0.3923
18671SOL    HW157114   7.043   1.056   0.767 -1.9210 -0.0805  0.2279
18671SOL    HW257115   7.097   1.150   0.873  1.4148 -0.0865 -1.3275
18672SOL     OW57116   5.538   5.874   1.046  0.6358 -0.2678 -0.1673
18672SOL    HW157117   5.477   5.800   1.049  1.1558 -0.7145 -0.5261
18672SOL    HW257118   5.492   5.945   1.092 -0.2871 -0.4969 -0.7083
18673SOL     OW57119   8.989   5.351   5.703  0.0888  0.6077 -0.2142
18673SOL    HW157120   8.934   5.371   5.780 -0.8055 -3.3294  0.4095
18673SOL    HW257121   8.932   5.369   5.628 -1.0437 -0.4987  0.3266
18674SOL     OW57122   5.345   8.707   8.197 -0.8314 -0.3756 -0.3794
18674SOL    HW157123   5.287   8.762   8.250  1.5524  0.1253  1.8806
18674SOL    HW257124   5.309   8.619   8.207 -2.2781  0.1502 -0.6178
18675SOL     OW57125   8.129   5.015   6.186  0.1677  0.1700 -0.3838
18675SOL    HW157126   8.049   4.964   6.173  0.0161  0.7387 -1.8337
18675SOL    HW257127   8.139   5.065   6.105  1.7301  0.4853 -0.0228
18676SOL     OW57128   0.677   6.918   7.680  0.1590  0.3030 -0.2855
18676SOL    HW157129   0.757   6.877   7.712 -0.0602  0.0808 -0.0239
18676SOL    HW257130   0.627   6.939   7.758 -1.5148 -2.4802 -0.4596
18677SOL     OW57131   5.565   4.912   4.183 -0.3160 -0.4975 -0.0192
18677SOL    HW157132   5.621   4.840   4.213 -2.4178 -1.5786  1.6253
18677SOL    HW257133   5.619   4.990   4.193  1.1127 -1.5360  0.8603
18678SOL     OW57134   7.939   1.144   8.037  0.4721 -0.5348 -0.4813
18678SOL    HW157135   7.866   1.149   7.976  0.9095 -0.2909 -0.9950
18678SOL    HW257136   8.016   1.168   7.985  0.5297  2.3794  0.7669
18679SOL     OW57137   1.766   2.382   0.853  0.3209  0.2710  0.0316
18679SOL    HW157138   1.804   2.421   0.932  0.3684  0.4551 -0.0803
18679SOL    HW257139   1.728   2.299   0.882  0.6232  0.1856  0.1869
18680SOL     OW57140   1.247   8.957   1.571  0.1673  0.0823  0.2444
18680SOL    HW157141   1.238   8.970   1.666  0.4787 -0.6201  0.3732
18680SOL    HW257142   1.213   8.870   1.555  0.5474  0.0177 -0.2238
18681SOL     OW57143   1.318   3.641   8.764  0.3468 -0.2475 -0.8058
18681SOL    HW157144   1.400   3.635   8.813  0.4617 -0.7892 -1.0619
18681SOL    HW257145   1.319   3.730   8.728 -0.1113  0.4595  0.8133
18682SOL     OW57146   1.154   3.177   0.533  0.0412 -0.1441  0.1993
18682SOL    HW157147   1.174   3.250   0.592  0.8461 -0.3873  0.2474
18682SOL    HW257148   1.215   3.108   0.560  0.6598 -0.1415 -1.1164
18683SOL     OW57149   1.365   4.649   5.603  0.2752  0.3859  0.4600
18683SOL    HW157150   1.419   4.585   5.556 -0.6777 -1.4766  1.7646
18683SOL    HW257151   1.339   4.604   5.683 -0.9702  2.2100  1.1382
18684SOL     OW57152   1.944   4.595   2.768 -0.4874 -0.4504  0.7382
18684SOL    HW157153   1.920   4.608   2.676 -2.0701 -0.7864  1.0802
18684SOL    HW257154   1.869   4.625   2.817  0.9259  1.1539  2.0378
18685SOL     OW57155   5.656   0.176   5.730  0.3054 -0.4407  0.3592
18685SOL    HW157156   5.613   0.123   5.798  0.5668  0.9193  1.6316
18685SOL    HW257157   5.595   0.248   5.714  0.3735 -0.6084 -0.6675
18686SOL     OW57158   7.057   7.737   3.851  0.3566 -0.4347  0.2082
18686SOL    HW157159   7.119   7.768   3.917  0.8526 -0.8048 -0.0750
18686SOL    HW257160   7.070   7.797   3.777  0.9746 -1.0076 -0.1595
18687SOL     OW57161   7.739   8.873   2.874 -0.1192  0.0460 -0.2174
18687SOL    HW157162   7.831   8.878   2.897 -0.4894  0.5834  1.2236
18687SOL    HW257163   7.721   8.956   2.830  0.1368 -0.1714 -0.7418
18688SOL     OW57164   0.573   6.587   0.039 -0.0631  0.1553 -0.0740
18688SOL    HW157165   0.578   6.672   0.082 -0.2163  0.0509  0.1559
18688SOL    HW257166   0.517   6.601  -0.037  1.3016  0.6569 -1.0197
18689SOL     OW57167   0.229   4.333   4.929  0.2266 -0.7186 -0.5428
18689SOL    HW157168   0.272   4.281   4.997 -1.2388 -0.1998  0.8497
18689SOL    HW257169   0.301   4.377   4.884  1.3290 -2.0692 -0.1834
18690SOL     OW57170   8.352   2.879   3.946 -0.1893  0.0361 -0.2548
18690SOL    HW157171   8.434   2.831   3.958  0.0336  0.3526 -0.4848
18690SOL    HW257172   8.362   2.957   4.002  0.8344  1.5057 -2.3344
18691SOL     OW57173   6.592   6.343   0.774  0.3593 -0.3586 -0.2375
18691SOL    HW157174   6.551   6.409   0.830 -1.3047 -2.1143  0.7177
18691SOL    HW257175   6.535   6.338   0.697  2.1719  1.4307 -1.8159
18692SOL     OW57176   8.719   0.120   6.630  0.2970  0.3449 -0.1971
18692SOL    HW157177   8.709   0.150   6.540 -3.5286 -1.8846 -0.6897
18692SOL    HW257178   8.759   0.034   6.623  0.0531  0.1905  0.2480
18693SOL     OW57179   1.214   6.390   7.678 -0.1905  0.2662  0.0779
18693SOL    HW157180   1.146   6.325   7.697 -0.4899  0.0504 -1.5258
18693SOL    HW257181   1.291   6.360   7.726 -0.9642 -0.0036  1.1850
18694SOL     OW57182   3.186   3.275   3.019  0.1273  0.6602 -0.2503
18694SOL    HW157183   3.204   3.276   2.925  1.0926  1.5319 -0.0771
18694SOL    HW257184   3.266   3.309   3.059  0.4564 -1.4397  1.0298
18695SOL     OW57185   0.108   4.060   2.682 -0.0838  0.3270  0.6379
18695SOL    HW157186   0.081   4.002   2.754 -1.6716  1.6804  1.1941
18695SOL    HW257187   0.085   4.148   2.712  0.0271  1.0176 -1.1757
18696SOL     OW57188   0.014   8.065   1.588  0.1839  0.1696 -0.1116
18696SOL    HW157189  -0.037   8.103   1.659  0.6558 -0.6863  0.7075
18696SOL    HW257190   0.103   8.098   1.602  0.3853 -0.4089  0.0072
18697SOL     OW57191   0.661   2.907   7.968 -0.0478  0.1785 -0.1151
18697SOL    HW157192   0.625   2.988   8.003 -0.8670 -0.0135 -0.4958
18697SOL    HW257193   0.594   2.841   7.984 -1.1268  0.3393 -3.1989
18698SOL     OW57194   4.731   6.525   0.825 -0.3512 -0.6433  0.1449
18698SOL    HW157195   4.735   6.491   0.736  0.5354 -0.3548  0.0630
18698SOL    HW257196   4.742   6.449   0.881  0.5611 -0.6446 -0.0214
18699SOL     OW57197   7.254   0.491   8.503  0.1150  0.2801 -0.7439
18699SOL    HW157198   7.179   0.459   8.554 -0.4040 -0.1915 -1.7725
18699SOL    HW257199   7.241   0.453   8.416  1.9899 -0.4807 -0.7311
18700SOL     OW57200   8.098   3.915   8.068  0.2661 -0.0608 -0.3885
18700SOL    HW157201   8.108   3.957   7.983  0.1164 -0.5898 -0.6705
18700SOL    HW257202   8.022   3.859   8.059 -0.8901  1.2570  0.6640
18701SOL     OW57203   3.039   7.264   2.280 -0.1786 -0.0252  0.0297
18701SOL    HW157204   3.054   7.171   2.297  0.9054  0.2095  0.4212
18701SOL    HW257205   3.010   7.300   2.364  1.6959  0.4277  0.5368
18702SOL     OW57206   3.762   4.920   8.254 -0.4368  0.6125 -0.0724
18702SOL    HW157207   3.681   4.970   8.248 -0.3553  0.6382 -1.1452
18702SOL    HW257208   3.745   4.839   8.206  0.3226  0.8311 -0.7247
18703SOL     OW57209   7.364   7.391   3.905  0.6068 -0.1021 -0.0103
18703SOL    HW157210   7.411   7.324   3.855 -1.0992 -1.7590  0.4924
18703SOL    HW257211   7.275   7.357   3.911  0.1959  1.2363  2.0580
18704SOL     OW57212   6.363   2.990   1.025  0.1712 -0.5165  0.5998
18704SOL    HW157213   6.299   2.922   1.003  1.5894 -1.8468  0.4212
18704SOL    HW257214   6.445   2.943   1.036  1.5534  1.3298 -0.9931
18705SOL     OW57215   3.244   0.621   1.495 -0.0649 -0.1006  0.4418
18705SOL    HW157216   3.281   0.695   1.543  0.8169 -1.6167  2.2403
18705SOL    HW257217   3.307   0.604   1.425  0.2458  0.2177  0.6410
18706SOL     OW57218   9.088   2.438   1.442 -0.5067 -0.2722  0.1613
18706SOL    HW157219   9.068   2.529   1.422 -0.2649 -0.5893 -1.6391
18706SOL    HW257220   9.009   2.390   1.419 -0.0545 -0.7072 -0.5310
18707SOL     OW57221   1.510   8.817   8.733 -0.3650 -0.2521 -0.5249
18707SOL    HW157222   1.532   8.737   8.685  1.6812  1.2924 -2.3289
18707SOL    HW257223   1.478   8.878   8.667  1.2638  1.4945  0.1924
18708SOL     OW57224   7.664   0.662   6.834 -0.3622  0.0012 -0.0211
18708SOL    HW157225   7.664   0.568   6.816 -0.8705 -0.2423  1.1420
18708SOL    HW257226   7.718   0.671   6.912 -1.2749  0.5069  0.5718
18709SOL     OW57227   3.133   2.749   1.500  0.2005 -0.1271  0.0491
18709SOL    HW157228   3.188   2.783   1.430 -0.0674 -0.5999 -0.3982
18709SOL    HW257229   3.066   2.816   1.513  1.3451  0.8340  1.1701
18710SOL     OW57230   7.813   8.202   3.555 -0.2715  0.3120  0.3276
18710SOL    HW157231   7.725   8.167   3.570 -0.9931  0.8464 -2.2308
18710SOL    HW257232   7.871   8.127   3.569 -1.2711 -0.4573  0.4671
18711SOL     OW57233   7.490   2.012   3.548 -0.0438  0.3148 -0.0651
18711SOL    HW157234   7.558   2.025   3.482  0.1703  0.8463  0.2531
18711SOL    HW257235   7.462   1.921   3.537 -0.0650  0.4242 -0.9354
18712SOL     OW57236   5.934   7.635   1.199  1.0242  0.2091 -0.3946
18712SOL    HW157237   5.975   7.631   1.285 -0.7815  0.6587  0.5395
18712SOL    HW257238   5.883   7.555   1.194 -0.0799  0.8942 -0.3813
18713SOL     OW57239   9.053   4.000   3.066  0.2368  0.7181  0.3284
18713SOL    HW157240   9.009   4.050   2.997 -0.7400 -0.3414  0.1492
18713SOL    HW257241   8.987   3.995   3.136  0.3600 -0.1962  0.3885
18714SOL     OW57242   1.324   1.266   7.215 -0.0242  0.7446 -0.1097
18714SOL    HW157243   1.395   1.330   7.223  1.3870 -0.9172  1.5388
18714SOL    HW257244   1.315   1.229   7.303 -2.3269  0.2065 -0.4944
18715SOL     OW57245   5.443   7.853   1.836 -0.0120  0.9512 -0.5649
18715SOL    HW157246   5.501   7.927   1.853 -0.7474  1.1655  1.2738
18715SOL    HW257247   5.471   7.819   1.750  3.0050  0.8637  0.3213
18716SOL     OW57248   5.747   6.270   3.262  0.0254  0.0768 -0.4010
18716SOL    HW157249   5.817   6.296   3.202 -0.5337  0.7548 -0.7853
18716SOL    HW257250   5.668   6.310   3.225 -0.4844 -0.2739  0.2798
18717SOL     OW57251   8.165   0.063   0.280  0.3400  0.2467 -0.0831
18717SOL    HW157252   8.240   0.114   0.248 -0.4688  0.8958 -0.9816
18717SOL    HW257253   8.151   0.096   0.369  1.8685 -0.7492  0.5784
18718SOL     OW57254   5.310   7.408   0.643  0.2372  0.2807 -0.1500
18718SOL    HW157255   5.360   7.333   0.676 -0.5663  0.3556  1.3439
18718SOL    HW257256   5.305   7.467   0.718 -0.9891  0.8497 -0.6671
18719SOL     OW57257   3.741   0.037   1.267 -0.1431 -0.2407  0.1726
18719SOL    HW157258   3.664   0.086   1.237  0.2473  0.5288  0.4103
18719SOL    HW257259   3.743   0.052   1.362 -0.3601 -1.2223  0.3504
18720SOL     OW57260   6.861   2.303   0.048  0.1780  0.0328 -0.4775
18720SOL    HW157261   6.949   2.319   0.014 -0.4734  0.0999 -2.1912
18720SOL    HW257262   6.805   2.299  -0.029 -1.4004  0.3805  0.6006
18721SOL     OW57263   8.626   4.237   4.133 -0.6580 -0.6004 -0.6603
18721SOL    HW157264   8.708   4.277   4.163 -0.7313 -1.3754  0.6244
18721SOL    HW257265   8.572   4.312   4.108 -0.1962  0.0395  0.1720
18722SOL     OW57266   7.426   6.433   8.230  0.2847 -0.5357 -0.5128
18722SOL    HW157267   7.368   6.459   8.301  1.2000  1.4636 -0.4278
18722SOL    HW257268   7.368   6.426   8.153 -0.3949 -0.8062  0.0143
18723SOL     OW57269   9.098   6.000   3.827 -0.3120  0.1574 -0.0122
18723SOL    HW157270   9.004   6.014   3.835 -0.3220  1.0394 -1.2339
18723SOL    HW257271   9.135   6.042   3.904 -0.9256 -0.3548  0.5718
18724SOL     OW57272   1.534   6.930   4.192 -0.3248 -0.1615  0.5918
18724SOL    HW157273   1.602   6.904   4.129  0.8342  2.0469  0.8469
18724SOL    HW257274   1.582   6.976   4.261 -1.9339  0.1894  1.5206
18725SOL     OW57275   7.983   7.118   5.133  0.0133 -0.1707 -0.3085
18725SOL    HW157276   8.046   7.189   5.148 -2.5685  2.2814 -0.2400
18725SOL    HW257277   7.952   7.094   5.220 -1.9566  1.4909 -0.4727
18726SOL     OW57278   9.091   5.620   2.508 -0.3074  0.1726 -0.1168
18726SOL    HW157279   9.058   5.708   2.526 -2.5259 -0.7761  0.8790
18726SOL    HW257280   9.087   5.574   2.592  3.7502 -0.1194  0.1323
18727SOL     OW57281   7.167   7.923   0.926 -0.4773  0.0045 -0.0139
18727SOL    HW157282   7.244   7.933   0.981 -0.2964  1.2942 -0.4754
18727SOL    HW257283   7.145   7.830   0.933  1.7967 -0.6491 -0.7971
18728SOL     OW57284   6.405   1.006   4.306 -0.0150 -0.8486 -0.9652
18728SOL    HW157285   6.472   0.939   4.293  0.2951 -0.3216 -2.1753
18728SOL    HW257286   6.346   0.996   4.231 -0.6125 -0.5075 -0.5523
18729SOL     OW57287   8.098   3.490   9.062 -0.2029 -0.3313  0.2942
18729SOL    HW157288   8.132   3.536   9.139 -2.1669  0.8247  0.5582
18729SOL    HW257289   8.116   3.398   9.078 -2.6165 -0.4332  3.3654
18730SOL     OW57290   6.591   0.579   1.972 -0.0154 -0.5257 -0.0591
18730SOL    HW157291   6.528   0.646   1.948 -0.3474 -0.0705  1.9206
18730SOL    HW257292   6.550   0.496   1.946 -0.0149 -0.0626 -1.6362
18731SOL     OW57293   1.471   2.130   5.924 -0.9250  0.1704 -0.8341
18731SOL    HW157294   1.529   2.125   5.848 -0.9750 -0.8859 -0.8143
18731SOL    HW257295   1.439   2.220   5.924  0.1737  0.5711 -1.2465
18732SOL     OW57296   5.633   5.584   3.856 -0.4703 -0.4343 -0.3718
18732SOL    HW157297   5.546   5.560   3.890 -0.2729  0.3503  0.7384
18732SOL    HW257298   5.619   5.595   3.761 -1.5085 -0.6616 -0.2627
18733SOL     OW57299   5.407   7.663   4.830 -0.3849 -0.2006  0.1890
18733SOL    HW157300   5.497   7.696   4.829 -0.9957  1.6334  1.1858
18733SOL    HW257301   5.361   7.718   4.767 -1.0516 -0.3436  0.5439
18734SOL     OW57302   5.685   3.814   2.242  0.5828  0.8214 -0.4945
18734SOL    HW157303   5.774   3.850   2.245  0.4784  1.0441  0.9750
18734SOL    HW257304   5.681   3.757   2.319  0.2679 -1.2276 -1.9532
18735SOL     OW57305   6.715   7.775   0.235  0.1416  0.1700  0.1459
18735SOL    HW157306   6.649   7.715   0.201  2.0564 -2.2041  0.3908
18735SOL    HW257307   6.787   7.769   0.173  1.9595 -0.8992  2.2467
18736SOL     OW57308   7.044   8.411   6.323 -0.0126  0.2713  0.1955
18736SOL    HW157309   6.954   8.421   6.353  0.1915 -0.3077  1.0539
18736SOL    HW257310   7.051   8.320   6.295 -0.1938  0.7945 -1.6874
18737SOL     OW57311   5.828   2.631   1.286 -0.5373 -0.1777 -0.3336
18737SOL    HW157312   5.809   2.547   1.328  0.9232 -0.6906 -0.6397
18737SOL    HW257313   5.794   2.622   1.197  0.1773 -0.7107 -0.5670
18738SOL     OW57314   1.770   5.675   1.294 -0.6534 -0.3709  0.3508
18738SOL    HW157315   1.750   5.581   1.303 -2.0625 -0.0797  0.4870
18738SOL    HW257316   1.842   5.690   1.356  0.0654 -1.4902 -0.1704
18739SOL     OW57317   9.125   1.216   4.069 -0.4669  0.0639 -0.4192
18739SOL    HW157318   9.031   1.216   4.052 -0.5610 -0.5920  0.0866
18739SOL    HW257319   9.133   1.223   4.164  0.0277  1.7101 -0.5499
18740SOL     OW57320   3.122   5.582   2.007 -0.2349  0.7047  0.3740
18740SOL    HW157321   3.178   5.509   1.979 -1.3403 -0.7094  1.6752
18740SOL    HW257322   3.172   5.660   1.983  0.3332 -0.4007 -2.4484
18741SOL     OW57323   7.081   3.730   1.728  0.2307  0.0686  0.6851
18741SOL    HW157324   7.059   3.648   1.772  2.1154 -0.1882  1.2413
18741SOL    HW257325   7.067   3.713   1.635 -1.7170 -0.0703  0.9553
18742SOL     OW57326   6.614   1.333   1.234 -0.0975  0.3032 -0.5280
18742SOL    HW157327   6.581   1.319   1.322 -0.2652  1.0973 -0.4577
18742SOL    HW257328   6.686   1.395   1.245  2.0762 -2.0542 -0.5540
18743SOL     OW57329   2.233   1.725   8.863  0.3544  0.1166  0.0993
18743SOL    HW157330   2.161   1.786   8.875 -2.0254 -2.1966 -1.2511
18743SOL    HW257331   2.205   1.668   8.791  3.0880 -1.5722  0.2105
18744SOL     OW57332   2.067   7.101   8.981 -0.3881 -0.3770 -0.1188
18744SOL    HW157333   2.073   7.104   8.885 -2.0968 -2.0651 -0.3275
18744SOL    HW257334   2.123   7.027   9.006  0.2225  0.1926  0.2184
18745SOL     OW57335   7.116   2.595   0.677  0.4659  0.6416  0.1964
18745SOL    HW157336   7.066   2.641   0.610 -0.4459 -0.4204  0.1234
18745SOL    HW257337   7.088   2.504   0.670  2.5482 -0.0262  0.0478
18746SOL     OW57338   6.790   4.395   7.999  0.4998  0.0873  0.1206
18746SOL    HW157339   6.781   4.338   8.075  0.0752 -1.1485 -0.8055
18746SOL    HW257340   6.760   4.341   7.926  1.2161  1.1173 -0.9731
18747SOL     OW57341   3.172   1.164   2.654 -0.2401 -0.0323  0.5589
18747SOL    HW157342   3.152   1.257   2.651 -2.2540 -0.3823  1.3814
18747SOL    HW257343   3.260   1.159   2.692 -0.3063  1.5152  0.9566
18748SOL     OW57344   9.090   5.244   3.602  0.3996 -0.1953 -0.4212
18748SOL    HW157345   9.141   5.173   3.642  1.1184  0.0428 -0.8935
18748SOL    HW257346   9.156   5.305   3.569 -0.1639 -0.2729 -1.7571
18749SOL     OW57347   8.931   4.985   0.437  0.5050 -0.7503  0.5007
18749SOL    HW157348   8.958   5.014   0.350  0.2182  1.6887  1.1696
18749SOL    HW257349   8.974   5.045   0.498 -1.6646 -0.4929  1.8895
18750SOL     OW57350   6.191   3.552   0.005 -0.2034 -0.4821 -0.0547
18750SOL    HW157351   6.280   3.581  -0.013  0.9002 -2.4470  1.6576
18750SOL    HW257352   6.180   3.473  -0.048 -1.4670  0.4574 -1.2624
18751SOL     OW57353   6.715   5.978   2.296  0.0820 -0.3232 -0.0349
18751SOL    HW157354   6.809   5.965   2.308  0.5386  1.8540 -0.7523
18751SOL    HW257355   6.686   6.020   2.377 -0.3439 -1.2626  0.3067
18752SOL     OW57356   1.185   0.034   5.987 -0.3024  0.2642  0.0533
18752SOL    HW157357   1.249   0.092   6.028  0.6996 -1.7629  1.5197
18752SOL    HW257358   1.143  -0.011   6.061  0.2737 -2.1964 -1.0286
18753SOL     OW57359   2.601   1.738   3.052  0.0886  0.0263 -0.6689
18753SOL    HW157360   2.636   1.774   2.970 -0.3689  1.7237 -0.1625
18753SOL    HW257361   2.527   1.795   3.074  0.4243 -0.1699  1.1162
18754SOL     OW57362   6.201   0.124   6.437  0.1809  0.1160  0.9816
18754SOL    HW157363   6.195   0.103   6.530 -1.9521  3.0629  1.6414
18754SOL    HW257364   6.196   0.219   6.433  0.3745  0.0984 -2.1684
18755SOL     OW57365   8.782   5.282   5.921  0.3467  0.2554  0.3935
18755SOL    HW157366   8.801   5.195   5.886 -1.8765 -0.0276 -0.2188
18755SOL    HW257367   8.798   5.273   6.015  0.7962 -0.6046  0.2500
18756SOL     OW57368   8.448   5.011   4.735 -0.1516  0.4459 -0.7377
18756SOL    HW157369   8.419   5.058   4.656  0.9892 -0.5007 -1.7685
18756SOL    HW257370   8.541   5.031   4.741  0.2487 -1.2186 -0.8968
18757SOL     OW57371   7.814   4.858   2.104 -0.4793  0.0196  0.6897
18757SOL    HW157372   7.872   4.860   2.027 -2.0922  2.0156 -0.5681
18757SOL    HW257373   7.808   4.765   2.126  0.8311 -0.5166 -0.9668
18758SOL     OW57374   2.445   0.593   5.000  0.3509 -1.0630  0.1715
18758SOL    HW157375   2.382   0.540   5.050  0.4952 -0.5626  0.8890
18758SOL    HW257376   2.417   0.582   4.909 -0.1021 -1.7358  0.3802
18759SOL     OW57377   3.969   3.157   6.690  0.0613 -0.0825  0.5139
18759SOL    HW157378   3.881   3.173   6.724  0.1087  1.4082  0.0053
18759SOL    HW257379   3.967   3.066   6.661 -0.9637 -0.4058  1.5073
18760SOL     OW57380   8.988   4.015   8.294 -0.1194  0.2075 -0.2051
18760SOL    HW157381   8.896   4.014   8.268 -0.0293 -0.1231 -0.5062
18760SOL    HW257382   8.999   3.937   8.348 -0.0754  0.3877  0.0517
18761SOL     OW57383   4.937   8.104   1.075 -0.0440  0.1174  0.2355
18761SOL    HW157384   4.861   8.100   1.018  0.0014  0.9175  0.1179
18761SOL    HW257385   4.907   8.064   1.157  0.0515 -1.5411 -0.4878
18762SOL     OW57386   5.744   5.974   7.282  0.3456  0.2854  0.1027
18762SOL    HW157387   5.765   6.016   7.199  0.0356 -2.0965 -1.2667
18762SOL    HW257388   5.818   5.916   7.299  0.8875  1.4661  2.0673
18763SOL     OW57389   7.647   8.428   6.503  0.3873 -0.7102  0.0845
18763SOL    HW157390   7.682   8.411   6.590 -1.7655  0.9952  1.3973
18763SOL    HW257391   7.584   8.499   6.516 -1.0582 -1.3511 -2.6345
18764SOL     OW57392   6.048   8.578   4.958  0.4705  0.5456  0.5475
18764SOL    HW157393   6.035   8.566   4.864 -0.9616 -0.8041  0.8865
18764SOL    HW257394   6.141   8.600   4.967  0.6375  0.6281 -1.1669
18765SOL     OW57395   8.303   6.154   8.150  0.3174  0.4355 -0.0838
18765SOL    HW157396   8.377   6.129   8.095 -0.6314 -1.4311 -0.5878
18765SOL    HW257397   8.327   6.240   8.185  2.1746  0.4093 -1.1735
18766SOL     OW57398   0.307   3.529   4.387 -0.1539 -0.0965  0.2935
18766SOL    HW157399   0.376   3.573   4.337  1.0301 -1.6053  0.5279
18766SOL    HW257400   0.347   3.509   4.471 -2.0383  2.1830  1.8418
18767SOL     OW57401   1.423   0.752   1.315  0.0421 -0.4685  0.7041
18767SOL    HW157402   1.394   0.838   1.284 -0.2156 -1.1346 -0.9921
18767SOL    HW257403   1.419   0.758   1.410  1.6734  1.9760  0.7108
18768SOL     OW57404   3.741   1.772   0.203 -0.3123  0.0098  0.0481
18768SOL    HW157405   3.822   1.804   0.242  0.5196 -0.4359 -1.2358
18768SOL    HW257406   3.752   1.787   0.109 -0.7695 -2.0528 -0.3926
18769SOL     OW57407   0.141   2.227   2.540  0.0354 -0.5277 -0.4579
18769SOL    HW157408   0.196   2.241   2.463  1.0837 -0.2439  0.3146
18769SOL    HW257409   0.087   2.306   2.547  1.0392  0.1509 -0.0433
18770SOL     OW57410   3.690   4.239   7.820 -0.1352  0.7101 -0.3664
18770SOL    HW157411   3.646   4.320   7.842 -0.4037  0.6859 -0.8146
18770SOL    HW257412   3.728   4.254   7.733 -0.1064  0.3923 -0.4118
18771SOL     OW57413   1.944   8.257   3.362 -0.3568 -0.2143 -0.1201
18771SOL    HW157414   1.852   8.257   3.388 -0.6409  1.1690 -1.0478
18771SOL    HW257415   1.960   8.345   3.328  0.7704 -1.0178 -1.8213
18772SOL     OW57416   7.444   2.208   0.232 -0.2626 -0.1741  0.2090
18772SOL    HW157417   7.518   2.183   0.287  0.1242  0.8678  0.1934
18772SOL    HW257418   7.462   2.299   0.208 -1.5969  0.1315  0.2786
18773SOL     OW57419   2.788   5.766   3.850 -0.0706  0.2023  0.1093
18773SOL    HW157420   2.780   5.770   3.755  0.2204 -1.5840 -0.0253
18773SOL    HW257421   2.700   5.788   3.882 -0.1284  0.9696 -0.5420
18774SOL     OW57422   3.520   4.668   2.101 -0.2194 -0.0935  0.2239
18774SOL    HW157423   3.603   4.631   2.132 -0.9349 -1.3775  0.6938
18774SOL    HW257424   3.541   4.704   2.015  0.9959  0.3215  0.6646
18775SOL     OW57425   6.589   2.123   6.671  0.8852 -0.4226  0.0409
18775SOL    HW157426   6.590   2.110   6.577  1.3688  0.0699 -0.0273
18775SOL    HW257427   6.499   2.152   6.691 -0.1244 -3.3630  0.1551
18776SOL     OW57428   5.292   2.687   1.355  0.4385  0.2779  0.1848
18776SOL    HW157429   5.225   2.755   1.349  0.9601  0.8707  0.8748
18776SOL    HW257430   5.315   2.684   1.448 -0.5123 -1.7758  0.4121
18777SOL     OW57431   2.099   1.022   3.534 -0.7217 -0.3220  0.0235
18777SOL    HW157432   2.028   1.010   3.597 -0.4924  0.4255  0.4439
18777SOL    HW257433   2.157   1.086   3.576 -0.5931  0.2380 -0.9798
18778SOL     OW57434   6.913   6.289   7.577  0.0438 -0.0688  0.2234
18778SOL    HW157435   6.901   6.260   7.668 -1.8562 -0.8933 -0.2348
18778SOL    HW257436   6.960   6.217   7.535 -1.1201 -0.7406  0.0356
18779SOL     OW57437   0.746   4.544   4.751  0.0950  0.1692 -0.7464
18779SOL    HW157438   0.670   4.520   4.804  0.3521 -0.1096 -0.5017
18779SOL    HW257439   0.784   4.619   4.796 -2.1508  2.7828 -2.8355
18780SOL     OW57440   8.735   7.246   0.219  0.5091 -0.3410 -0.2943
18780SOL    HW157441   8.706   7.331   0.186 -2.7056 -0.1421  2.4836
18780SOL    HW257442   8.814   7.265   0.270  0.2547  0.8380 -0.3176
18781SOL     OW57443   1.160   3.529   5.895  0.5911 -0.3152 -0.0502
18781SOL    HW157444   1.157   3.444   5.939 -1.8271  0.1272  0.8056
18781SOL    HW257445   1.224   3.579   5.945  2.0332 -1.5771 -0.5479
18782SOL     OW57446   7.104   3.949   2.986  0.3465 -0.1863 -0.3811
18782SOL    HW157447   7.081   3.968   3.077  0.2018 -0.8672 -0.2722
18782SOL    HW257448   7.022   3.919   2.947  0.6649 -0.9795 -0.4415
18783SOL     OW57449   0.006   2.212   3.443  0.1073  0.3831  0.0510
18783SOL    HW157450   0.057   2.276   3.394  0.1323  0.0908 -0.3152
18783SOL    HW257451  -0.083   2.222   3.409  0.2036 -0.1096 -0.3668
18784SOL     OW57452   7.067   0.535   5.546 -0.5445 -0.4450 -0.7385
18784SOL    HW157453   7.087   0.446   5.576 -0.1328  0.1191  0.7470
18784SOL    HW257454   7.064   0.587   5.626 -1.6804  0.7227 -1.5007
18785SOL     OW57455   2.462   2.153   1.722  0.0196  0.1945  0.0236
18785SOL    HW157456   2.450   2.231   1.778 -1.4420  1.7528 -2.3158
18785SOL    HW257457   2.378   2.109   1.724 -0.4937  0.9954 -1.8983
18786SOL     OW57458   0.860   4.783   5.078  0.1118 -0.0718  0.5263
18786SOL    HW157459   0.769   4.812   5.069  0.5622  1.7104  1.3319
18786SOL    HW257460   0.854   4.703   5.131 -0.8962  0.8420  1.8629
18787SOL     OW57461   6.117   2.165   2.236  0.1470  0.1627  0.2091
18787SOL    HW157462   6.070   2.209   2.165 -0.8456  2.0969  1.9462
18787SOL    HW257463   6.200   2.213   2.243  0.2049  0.0318  0.4225
18788SOL     OW57464   0.555   0.028   6.608  0.7629 -0.8276  0.2632
18788SOL    HW157465   0.579   0.082   6.682 -0.3521  0.4850 -0.2989
18788SOL    HW257466   0.590   0.074   6.532 -1.1895 -0.2394 -0.3281
18789SOL     OW57467   4.946   8.561   5.977  0.3592  0.4236  0.0766
18789SOL    HW157468   4.935   8.656   5.985 -1.7500  0.0897  2.1141
18789SOL    HW257469   4.871   8.524   6.024  1.5060 -2.2741 -0.0466
18790SOL     OW57470   3.721   7.077   1.171  0.0824 -1.4557  0.4390
18790SOL    HW157471   3.674   7.036   1.243 -0.1864 -0.0752  1.0674
18790SOL    HW257472   3.808   7.097   1.206 -0.2687 -0.1655  0.6208
18791SOL     OW57473   7.834   3.749   2.732  0.4357  0.1459  0.3636
18791SOL    HW157474   7.926   3.728   2.717  1.0512  1.6450  1.6568
18791SOL    HW257475   7.801   3.678   2.788  0.5579 -0.8089 -0.7505
18792SOL     OW57476   6.095   2.180   5.706 -0.0856  0.4012 -0.0652
18792SOL    HW157477   6.120   2.176   5.613 -0.7177  0.4300 -0.2419
18792SOL    HW257478   6.005   2.148   5.707  0.2668 -0.6033  0.6859
18793SOL     OW57479   2.764   4.960   8.865 -0.0027 -0.8150 -0.2918
18793SOL    HW157480   2.753   4.996   8.952  1.8915  3.0533 -1.4337
18793SOL    HW257481   2.675   4.953   8.830 -0.6076  0.3148  0.9502
18794SOL     OW57482   8.149   2.928   9.097 -0.0597 -0.5243  0.0058
18794SOL    HW157483   8.238   2.964   9.092 -0.2465  0.2532  1.6435
18794SOL    HW257484   8.160   2.841   9.136 -0.1101  0.1151  1.4995
18795SOL     OW57485   8.546   2.387   8.688 -0.0389  0.0792  0.4471
18795SOL    HW157486   8.545   2.316   8.624  1.7383 -0.8574  1.3809
18795SOL    HW257487   8.455   2.415   8.694 -0.6311 -1.4560 -0.6668
18796SOL     OW57488   5.295   6.436   1.391 -0.6400 -0.0854  0.1273
18796SOL    HW157489   5.248   6.449   1.473 -0.4788  2.6945 -0.1456
18796SOL    HW257490   5.373   6.490   1.398 -0.1830 -0.4523 -1.5392
18797SOL     OW57491   3.870   2.976   1.843 -0.1069 -0.5194 -0.1118
18797SOL    HW157492   3.944   2.915   1.854 -0.1087 -0.8930 -1.8166
18797SOL    HW257493   3.853   3.009   1.930  2.8479  0.4745  0.1897
18798SOL     OW57494   3.342   1.264   4.469 -0.3615 -0.1300  0.0999
18798SOL    HW157495   3.324   1.310   4.386 -0.1189  0.2056  0.2330
18798SOL    HW257496   3.260   1.220   4.489 -1.2236  1.7247  0.9096
18799SOL     OW57497   3.055   8.198   0.847 -0.6693  0.2676 -0.7473
18799SOL    HW157498   3.044   8.157   0.761 -1.1768 -1.5947  0.1469
18799SOL    HW257499   2.984   8.161   0.900  0.6855 -0.0386  0.9411
18800SOL     OW57500   8.212   4.053   6.205 -0.4742  0.3109 -0.1140
18800SOL    HW157501   8.153   4.091   6.139  1.5341  2.3446 -0.8925
18800SOL    HW257502   8.194   3.959   6.202 -2.4647  0.6670 -1.4873
18801SOL     OW57503   7.508   2.095   7.430  0.5548 -0.3340 -0.9227
18801SOL    HW157504   7.466   2.176   7.403  1.4048  0.6952  0.6946
18801SOL    HW257505   7.599   2.104   7.400  0.6334 -0.7273 -0.8142
18802SOL     OW57506   2.506   1.577   2.350 -0.5339  0.4853 -0.5126
18802SOL    HW157507   2.571   1.568   2.280 -0.8640  0.4455 -0.8165
18802SOL    HW257508   2.532   1.657   2.396  0.6607 -0.3716  0.3529
18803SOL     OW57509   6.835   8.437   7.547 -0.5216 -0.1977  0.7950
18803SOL    HW157510   6.884   8.368   7.593  0.1719  1.1920  2.2075
18803SOL    HW257511   6.850   8.516   7.599 -2.0930  0.8341 -0.2500
18804SOL     OW57512   0.614   4.853   5.642  0.1160  0.1427 -0.6759
18804SOL    HW157513   0.548   4.914   5.676 -0.0601  0.6541 -1.8669
18804SOL    HW257514   0.615   4.870   5.548  1.1887 -0.6208 -0.8160
18805SOL     OW57515   3.012   6.283   5.089 -0.4879  0.0665 -0.1619
18805SOL    HW157516   3.028   6.301   4.997 -0.2898 -0.4228 -0.2322
18805SOL    HW257517   2.957   6.204   5.089  1.5688 -1.4733  0.1380
18806SOL     OW57518   3.951   8.704   8.036  0.2161 -0.2625  0.1043
18806SOL    HW157519   3.933   8.716   7.943 -3.7861 -1.7065  0.5049
18806SOL    HW257520   3.979   8.791   8.066  0.3985  0.5452 -2.1966
18807SOL     OW57521   4.217   3.723   3.808  0.4239  0.5318  0.4374
18807SOL    HW157522   4.208   3.706   3.714  1.7315 -0.8558  0.5315
18807SOL    HW257523   4.301   3.767   3.817  0.2522  0.7689  0.9553
18808SOL     OW57524   1.878   7.435   8.585  0.0488  0.4138  0.0846
18808SOL    HW157525   1.970   7.461   8.578 -0.3644  2.1023  0.4029
18808SOL    HW257526   1.839   7.464   8.502 -0.7082  2.1459  0.9985
18809SOL     OW57527   6.733   9.040   7.288 -0.3098 -0.1555 -0.4799
18809SOL    HW157528   6.664   8.977   7.308 -1.1923  0.3046 -1.9418
18809SOL    HW257529   6.808   9.011   7.340 -1.6068 -0.6225  1.2325
18810SOL     OW57530   0.302   0.774   8.667 -0.2158 -0.2233 -0.1014
18810SOL    HW157531   0.347   0.756   8.584 -0.0602 -2.3584  0.3959
18810SOL    HW257532   0.369   0.812   8.723  0.2249 -0.6867 -0.3048
18811SOL     OW57533   1.916   8.460   3.695 -0.1366 -0.0266  0.7015
18811SOL    HW157534   2.010   8.447   3.680 -0.2026  0.1268  0.1221
18811SOL    HW257535   1.876   8.375   3.674 -0.0132 -0.4697  2.1290
18812SOL     OW57536   5.475   3.798   0.860  0.0145  0.0703 -0.4280
18812SOL    HW157537   5.545   3.851   0.822  0.6596 -1.6227 -1.7258
18812SOL    HW257538   5.499   3.789   0.952  0.6402  0.8041 -0.5068
18813SOL     OW57539   0.069   4.968   2.174 -0.0508 -0.5372 -0.5985
18813SOL    HW157540   0.138   4.916   2.213  0.7794  0.5921 -0.5150
18813SOL    HW257541   0.030   4.910   2.108 -2.5317 -3.0714  2.7559
18814SOL     OW57542   4.196   7.625   8.464 -0.7233 -0.2480 -0.5025
18814SOL    HW157543   4.272   7.572   8.439  0.4189  0.8151  0.5547
18814SOL    HW257544   4.192   7.618   8.559 -0.3630  1.7376 -0.2895
18815SOL     OW57545   0.016   1.093   2.890  0.2284  0.5620  0.6295
18815SOL    HW157546   0.070   1.019   2.917 -0.0060 -0.7942 -2.1975
18815SOL    HW257547  -0.049   1.103   2.960  0.7411 -1.4188  1.4374
18816SOL     OW57548   0.882   3.131   0.654  0.6449 -0.3747  0.0571
18816SOL    HW157549   0.960   3.151   0.603  0.0785  0.4611 -0.5197
18816SOL    HW257550   0.913   3.119   0.743  1.3477  0.6767 -0.0342
18817SOL     OW57551   3.774   2.636   0.658  0.0808  0.6181  0.2345
18817SOL    HW157552   3.774   2.729   0.680  0.2630 -0.0641  3.7766
18817SOL    HW257553   3.687   2.618   0.624 -0.4220  1.8343  0.8489
18818SOL     OW57554   6.179   8.625   0.913 -0.1285 -0.3120 -0.0225
18818SOL    HW157555   6.154   8.587   0.829  0.5852 -1.5208  0.2863
18818SOL    HW257556   6.161   8.719   0.903 -0.7913 -0.5426 -1.2367
18819SOL     OW57557   5.850   0.263   8.464  0.2624 -0.2968 -0.6208
18819SOL    HW157558   5.887   0.284   8.379 -0.4323  0.8106 -0.6583
18819SOL    HW257559   5.796   0.339   8.487 -0.5746 -1.1193  0.2264
18820SOL     OW57560   5.060   8.536   7.615 -0.2070 -0.2304 -0.0539
18820SOL    HW157561   5.119   8.557   7.543 -1.3386 -2.2439 -1.7038
18820SOL    HW257562   4.972   8.542   7.576 -0.9987  0.7021  1.7652
18821SOL     OW57563   4.026   0.817   8.353  0.4376  0.6950 -0.0774
18821SOL    HW157564   3.997   0.854   8.270 -0.4629 -0.5713 -0.3632
18821SOL    HW257565   3.984   0.871   8.420 -0.3445  0.5846 -0.4731
18822SOL     OW57566   7.435   3.023   7.983 -0.2091 -0.3875  0.0225
18822SOL    HW157567   7.511   3.082   7.977  0.1375 -0.7465  0.7827
18822SOL    HW257568   7.363   3.074   7.948  0.4123 -0.0936 -0.8739
18823SOL     OW57569   4.852   4.597   3.121  0.3704  0.0178 -0.0232
18823SOL    HW157570   4.871   4.624   3.031  0.6872  1.9370  0.5713
18823SOL    HW257571   4.928   4.628   3.171  0.6771 -1.9252  0.7789
18824SOL     OW57572   3.713   7.191   3.335  0.1098 -0.0263 -0.5862
18824SOL    HW157573   3.720   7.165   3.243 -0.3610 -1.5249 -0.2287
18824SOL    HW257574   3.787   7.148   3.377  1.2996  1.9834 -0.5015
18825SOL     OW57575   1.866   0.290   0.440 -0.1737  0.2526 -0.1703
18825SOL    HW157576   1.791   0.270   0.497 -0.4564  1.3814 -0.1162
18825SOL    HW257577   1.838   0.262   0.353 -0.7188  0.7777 -0.1718
18826SOL     OW57578   0.687   6.062   4.289 -0.0569  0.1779  0.3755
18826SOL    HW157579   0.781   6.080   4.296  0.0409 -0.9126  2.4595
18826SOL    HW257580   0.681   5.969   4.269 -0.7036  0.7627 -2.5264
18827SOL     OW57581   1.205   5.529   9.124  0.2179  0.3411  0.3046
18827SOL    HW157582   1.183   5.572   9.042 -1.1771 -1.1023 -0.1222
18827SOL    HW257583   1.246   5.598   9.177 -1.3850  2.0213 -0.5441
18828SOL     OW57584   7.897   2.632   8.988 -0.4851  0.2326 -0.3237
18828SOL    HW157585   7.939   2.611   9.071  0.0772  1.4979 -0.2695
18828SOL    HW257586   7.961   2.685   8.941 -0.7491 -0.5639 -1.6281
18829SOL     OW57587   6.897   1.614   2.974  0.3417  0.3628  0.0998
18829SOL    HW157588   6.935   1.701   2.982 -0.3572  0.9319 -2.1927
18829SOL    HW257589   6.807   1.629   2.946  0.1639 -1.0934 -0.2076
18830SOL     OW57590   7.708   3.834   7.099 -0.4170  0.0930 -0.4655
18830SOL    HW157591   7.706   3.845   7.004  0.2132  0.5388 -0.4338
18830SOL    HW257592   7.680   3.919   7.133  2.6066  1.1234 -0.2363
18831SOL     OW57593   1.906   7.014   4.892 -0.1784  0.0007 -0.1313
18831SOL    HW157594   1.874   6.948   4.953  0.7967 -0.2076  0.1650
18831SOL    HW257595   1.869   6.988   4.807 -0.5235 -0.4127  0.1400
18832SOL     OW57596   0.041   7.418   1.088 -0.2134 -0.5741  0.0706
18832SOL    HW157597   0.049   7.326   1.111  0.7555 -0.4067  0.4729
18832SOL    HW257598  -0.026   7.452   1.147  0.2913 -0.7584  0.7540
18833SOL     OW57599   3.481   7.366   1.303 -0.1098  0.5499  0.3119
18833SOL    HW157600   3.475   7.300   1.234  1.0384  0.1082  0.6103
18833SOL    HW257601   3.398   7.359   1.351 -0.6488  0.4180 -0.6103
18834SOL     OW57602   4.792   2.424   8.905  0.3305 -0.0668  0.7427
18834SOL    HW157603   4.887   2.431   8.897  0.3758 -0.9507  0.3788
18834SOL    HW257604   4.757   2.463   8.825  0.5039 -2.1649 -0.4035
18835SOL     OW57605   9.022   8.549   7.777 -0.5035 -0.2741  0.4458
18835SOL    HW157606   9.105   8.546   7.730 -0.9585 -0.0893 -0.4001
18835SOL    HW257607   9.039   8.602   7.855  0.0882  0.0308  0.1112
18836SOL     OW57608   1.259   3.911   7.681 -0.2688  0.9485  0.2687
18836SOL    HW157609   1.318   3.977   7.718 -0.7510 -0.2234  3.4356
18836SOL    HW257610   1.316   3.840   7.654 -0.0334  0.7961  1.1314
18837SOL     OW57611   0.788   7.567   0.651  0.1755  0.3935 -0.0262
18837SOL    HW157612   0.738   7.536   0.576 -1.2865  2.6476 -0.0927
18837SOL    HW257613   0.762   7.511   0.724 -0.5144 -0.0716 -0.6254
18838SOL     OW57614   1.228   2.150   0.832  0.8742 -0.5346  0.1239
18838SOL    HW157615   1.203   2.063   0.802 -3.9716  0.7640 -0.4694
18838SOL    HW257616   1.212   2.149   0.926  1.0566 -0.3555  0.1582
18839SOL     OW57617   5.093   3.901   3.941 -0.6838  0.5016 -0.1555
18839SOL    HW157618   5.175   3.950   3.947  0.9803 -1.8661 -1.9379
18839SOL    HW257619   5.079   3.889   3.847 -1.8475 -1.1267  0.1881
18840SOL     OW57620   2.137   1.434   7.131  0.5861  0.8729  0.0631
18840SOL    HW157621   2.227   1.457   7.153  0.5412  0.7263  0.3967
18840SOL    HW257622   2.126   1.345   7.162  1.2744 -0.2820 -2.7208
18841SOL     OW57623   3.282   8.071   6.107 -0.1379 -0.6264  0.0411
18841SOL    HW157624   3.256   8.020   6.184 -0.5435  0.1202  0.4143
18841SOL    HW257625   3.264   8.014   6.032 -3.9239  0.1454  0.1671
18842SOL     OW57626   4.411   3.782   7.344 -0.2930  0.3665 -0.6092
18842SOL    HW157627   4.468   3.764   7.418  0.0524  0.8045 -0.7612
18842SOL    HW257628   4.329   3.738   7.365 -0.4213  1.0449  0.3494
18843SOL     OW57629   6.427   4.498   4.469  0.6965 -0.3189  0.1137
18843SOL    HW157630   6.332   4.498   4.473  0.5153  1.7573 -2.2188
18843SOL    HW257631   6.448   4.479   4.378  2.3846  2.0950 -0.0796
18844SOL     OW57632   8.810   0.130   5.806  0.3973 -0.1122 -0.6094
18844SOL    HW157633   8.836   0.221   5.790 -1.2454  0.2546 -1.3968
18844SOL    HW257634   8.872   0.099   5.871  0.2529  1.9801  0.6220
18845SOL     OW57635   0.330   0.748   3.553 -0.4460  0.3337  0.2156
18845SOL    HW157636   0.269   0.682   3.587 -1.1485 -0.1191 -1.7707
18845SOL    HW257637   0.274   0.820   3.524  0.2885  1.6372  1.9068
18846SOL     OW57638   5.852   2.969   4.641 -0.1029  0.2800  0.2462
18846SOL    HW157639   5.784   3.026   4.678 -0.7690 -0.7585  0.6729
18846SOL    HW257640   5.826   2.959   4.549 -0.9880 -0.7110  0.5768
18847SOL     OW57641   7.718   3.248   5.521  0.1123 -0.2415 -0.1432
18847SOL    HW157642   7.714   3.341   5.501  0.3634  0.1748  1.5748
18847SOL    HW257643   7.721   3.205   5.435  1.3389  1.3855 -0.9669
18848SOL     OW57644   4.576   8.820   5.516 -0.2073  0.3734 -0.2987
18848SOL    HW157645   4.566   8.763   5.592 -0.0554 -0.7943 -1.1218
18848SOL    HW257646   4.576   8.760   5.441  2.0660  1.2280 -1.0819
18849SOL     OW57647   4.624   4.088   0.082 -0.1496 -0.6920 -0.5411
18849SOL    HW157648   4.716   4.061   0.074  0.1903  0.2467  0.0482
18849SOL    HW257649   4.579   4.009   0.114  0.8982 -0.5075  1.5497
18850SOL     OW57650   5.165   4.492   6.705 -0.0408  0.0494  0.0988
18850SOL    HW157651   5.253   4.506   6.741  0.2251 -0.6436 -0.2665
18850SOL    HW257652   5.169   4.532   6.618 -0.2469  0.4513  0.2685
18851SOL     OW57653   5.387   0.981   1.145 -0.0823 -0.2149  0.3742
18851SOL    HW157654   5.432   1.047   1.198 -0.3381  0.5467 -0.3363
18851SOL    HW257655   5.389   1.016   1.056 -1.6840 -0.3651  0.2500
18852SOL     OW57656   3.877   6.643   2.403  0.5401  0.1991 -0.1617
18852SOL    HW157657   3.906   6.655   2.493 -4.1269  2.5085  1.3487
18852SOL    HW257658   3.871   6.732   2.367  1.9062 -0.6303 -2.7441
18853SOL     OW57659   4.870   8.642   5.460  0.1760 -0.2998  0.3406
18853SOL    HW157660   4.811   8.567   5.459  0.2220 -0.3478 -1.5819
18853SOL    HW257661   4.903   8.645   5.550 -0.7809 -1.8122  0.7753
18854SOL     OW57662   3.085   6.121   8.813  0.1324  0.3065  0.1477
18854SOL    HW157663   3.015   6.068   8.774 -0.4126  0.5219  0.8011
18854SOL    HW257664   3.042   6.168   8.884  1.2974 -0.8519  1.7010
18855SOL     OW57665   7.974   8.426   3.541 -0.4402  0.2946 -0.0537
18855SOL    HW157666   7.909   8.360   3.563  0.2304 -0.6663 -0.8175
18855SOL    HW257667   7.991   8.412   3.447 -1.2314  2.4238 -0.5621
18856SOL     OW57668   3.623   8.427   2.080  0.1073  0.2553 -0.1277
18856SOL    HW157669   3.567   8.504   2.075  0.2619  0.3844  0.1264
18856SOL    HW257670   3.630   8.408   2.173  0.1852  0.0199 -0.1825
18857SOL     OW57671   2.322   8.376   5.935  0.1946 -0.5228  0.2642
18857SOL    HW157672   2.246   8.342   5.982 -0.6616  0.7802 -0.1476
18857SOL    HW257673   2.286   8.413   5.855  1.1413  0.9836  0.5051
18858SOL     OW57674   3.615   5.484   8.558  0.4727 -0.3528 -0.1232
18858SOL    HW157675   3.699   5.485   8.511  0.8993 -0.1696  0.6253
18858SOL    HW257676   3.625   5.552   8.625 -1.1746  1.4079 -1.5352
18859SOL     OW57677   0.080   4.983   1.258  0.0110  0.5167 -0.3326
18859SOL    HW157678   0.127   4.918   1.206 -0.9809  0.0938 -0.7345
18859SOL    HW257679   0.144   5.015   1.321  0.4111 -1.1488  0.1460
18860SOL     OW57680   8.219   6.486   9.062  0.0476 -0.9810  0.1488
18860SOL    HW157681   8.210   6.394   9.086 -0.4170 -0.6482  1.3422
18860SOL    HW257682   8.270   6.524   9.133  0.9654 -0.4737 -0.7568
18861SOL     OW57683   6.609   2.160   7.698  0.1226 -0.1994  0.7439
18861SOL    HW157684   6.696   2.189   7.726  0.9980 -2.5438  0.6548
18861SOL    HW257685   6.564   2.241   7.673  2.4839  1.0424  0.2171
18862SOL     OW57686   7.405   0.878   3.672 -0.4722  0.1861  0.4140
18862SOL    HW157687   7.437   0.903   3.585 -0.4813  0.4182  0.4776
18862SOL    HW257688   7.348   0.802   3.655 -0.5038  0.2531  0.2132
18863SOL     OW57689   3.798   1.926   8.656 -0.5023  0.2316  0.0786
18863SOL    HW157690   3.787   1.926   8.561 -0.7116  0.2660  0.1026
18863SOL    HW257691   3.718   1.967   8.690 -0.6025 -0.1322  0.2873
18864SOL     OW57692   6.436   5.779   7.472 -0.0975 -0.3073 -0.0520
18864SOL    HW157693   6.413   5.784   7.379 -0.1663  0.2211 -0.0126
18864SOL    HW257694   6.382   5.847   7.513  0.8415  0.3014  0.1847
18865SOL     OW57695   5.141   0.616   8.867 -0.0103 -0.2497 -0.2752
18865SOL    HW157696   5.145   0.521   8.865  0.9708 -0.3490  2.4209
18865SOL    HW257697   5.222   0.643   8.911  0.5072  1.9600 -2.3553
18866SOL     OW57698   3.481   4.502   1.586 -0.2724  0.3538  0.2550
18866SOL    HW157699   3.425   4.564   1.537  0.6432  0.5891 -0.5319
18866SOL    HW257700   3.484   4.537   1.674  1.6844  2.5159 -0.5749
18867SOL     OW57701   2.348   0.969   0.797 -0.1706 -0.2350 -0.5375
18867SOL    HW157702   2.293   1.034   0.839 -0.0000 -0.4350 -0.0009
18867SOL    HW257703   2.417   0.950   0.860 -0.3065 -1.0484 -0.6110
18868SOL     OW57704   4.463   7.762   6.117  0.5703  0.2974  0.6070
18868SOL    HW157705   4.520   7.750   6.193 -0.0953  2.1866  1.4598
18868SOL    HW257706   4.425   7.849   6.128 -1.5961 -0.4123 -0.5268
18869SOL     OW57707   7.203   0.087   8.201 -0.3529 -0.5314 -0.6263
18869SOL    HW157708   7.292   0.069   8.172 -0.2721 -2.5698  0.7249
18869SOL    HW257709   7.189   0.028   8.275 -2.1162  1.2124  0.5286
18870SOL     OW57710   4.979   2.325   2.660  0.4443 -0.0443 -0.3522
18870SOL    HW157711   4.912   2.298   2.722  0.4742 -0.3948 -0.4674
18870SOL    HW257712   5.061   2.321   2.709  0.3391  0.7689 -0.0984
18871SOL     OW57713   6.992   4.163   6.738  0.3811 -0.1838  0.6094
18871SOL    HW157714   6.918   4.179   6.679  0.0126 -0.0648  1.0968
18871SOL    HW257715   7.017   4.072   6.721  0.2033 -0.1866  0.3564
18872SOL     OW57716   8.805   2.752   0.672  0.0290  0.2494  0.2130
18872SOL    HW157717   8.775   2.739   0.582 -2.3423 -0.7247  1.0334
18872SOL    HW257718   8.831   2.844   0.677 -1.4293  0.7701 -1.0652
18873SOL     OW57719   6.371   5.586   2.394  0.0255 -0.2608  0.0208
18873SOL    HW157720   6.402   5.650   2.458  0.1403 -1.0338  0.7716
18873SOL    HW257721   6.285   5.616   2.368 -0.0830 -0.0060  0.6608
18874SOL     OW57722   4.051   1.707   2.845 -0.0609 -0.1748 -0.5439
18874SOL    HW157723   4.132   1.718   2.795 -0.6902  0.2664 -1.4976
18874SOL    HW257724   3.982   1.737   2.786 -1.1343 -2.2917 -0.4685
18875SOL     OW57725   5.623   6.380   8.786  0.0281  0.2310  0.7460
18875SOL    HW157726   5.696   6.442   8.789 -1.3881  2.0574 -0.2929
18875SOL    HW257727   5.634   6.326   8.864  2.4527  0.4345  0.6317
18876SOL     OW57728   2.287   0.342   1.005  0.3522 -0.2738  0.0230
18876SOL    HW157729   2.307   0.322   0.914 -0.2647 -0.7226 -0.0183
18876SOL    HW257730   2.280   0.257   1.048  1.2251 -0.0545  0.6278
18877SOL     OW57731   3.866   3.873   2.131 -0.0576  0.4736  0.2808
18877SOL    HW157732   3.881   3.848   2.040 -0.4194 -0.7252  0.5381
18877SOL    HW257733   3.950   3.859   2.174  0.3469  1.8130 -0.0063
18878SOL     OW57734   7.714   0.199   5.716 -0.5452 -0.1146 -0.4960
18878SOL    HW157735   7.623   0.215   5.693 -1.0283 -2.4527 -0.4056
18878SOL    HW257736   7.755   0.170   5.635 -0.6161 -1.8407  0.0499
18879SOL     OW57737   7.203   2.561   7.577  0.5471 -0.5425  0.7843
18879SOL    HW157738   7.264   2.629   7.549  2.2333 -1.3668  2.2341
18879SOL    HW257739   7.117   2.600   7.567  1.4075  1.4841  0.7848
18880SOL     OW57740   2.230   6.165   3.853 -0.0406 -0.6309  0.1299
18880SOL    HW157741   2.187   6.079   3.851  0.9834 -1.1676  0.1773
18880SOL    HW257742   2.272   6.169   3.939  0.3566 -0.3083 -0.0736
18881SOL     OW57743   4.677   0.195   0.550  0.0116  0.1971 -0.0976
18881SOL    HW157744   4.598   0.144   0.534  0.4697 -0.6129  0.1572
18881SOL    HW257745   4.652   0.256   0.620 -0.1584 -0.6213  0.5679
18882SOL     OW57746   5.240   3.439   0.532  0.3479  0.0371  0.4661
18882SOL    HW157747   5.224   3.477   0.446  2.1532  1.4137  0.6717
18882SOL    HW257748   5.209   3.506   0.593 -1.4076 -1.1459  0.9351
18883SOL     OW57749   3.571   1.808   7.123  0.1965 -0.1357  0.4185
18883SOL    HW157750   3.638   1.828   7.188 -0.1621  0.4552  0.6098
18883SOL    HW257751   3.618   1.761   7.054  1.7314  3.6454 -1.3952
18884SOL     OW57752   9.131   1.732   4.687  0.5944  0.2883 -0.2273
18884SOL    HW157753   9.211   1.771   4.652  0.7149  0.4475  0.2228
18884SOL    HW257754   9.162   1.662   4.745  0.4195  0.5766  0.2181
18885SOL     OW57755   2.586   1.040   3.896  0.2838 -0.2331  0.1804
18885SOL    HW157756   2.580   1.015   3.988  2.5660 -1.6370  0.0379
18885SOL    HW257757   2.512   1.100   3.882 -0.1690 -0.0401  2.8647
18886SOL     OW57758   5.478   3.233   3.097  0.3098 -0.0502 -0.1446
18886SOL    HW157759   5.517   3.252   3.012 -1.0729 -0.7586 -0.9734
18886SOL    HW257760   5.405   3.175   3.078  1.2031 -1.9353  1.7331
18887SOL     OW57761   4.320   4.698   5.385  0.2082  0.5804 -0.8088
18887SOL    HW157762   4.325   4.634   5.456  0.1256  0.8824 -0.5245
18887SOL    HW257763   4.256   4.762   5.415 -1.8242 -0.6478 -2.2770
18888SOL     OW57764   0.878   6.731   6.758  0.3965 -0.1152 -0.2263
18888SOL    HW157765   0.856   6.673   6.685  0.2992 -1.3489  0.7449
18888SOL    HW257766   0.882   6.673   6.834  1.4860  0.9779  0.5852
18889SOL     OW57767   5.452   2.632   7.802  0.0506 -0.1020 -0.2977
18889SOL    HW157768   5.368   2.677   7.793  0.5428  0.5822 -1.7394
18889SOL    HW257769   5.485   2.659   7.888 -0.2722  1.2828 -0.5851
18890SOL     OW57770   6.409   6.862   5.568  0.4521  0.0473  0.2302
18890SOL    HW157771   6.486   6.808   5.584 -0.2462 -0.5394  1.7981
18890SOL    HW257772   6.361   6.862   5.651 -0.7631  1.1731 -0.4202
18891SOL     OW57773   6.946   8.875   7.604  0.2726 -0.4815  0.4603
18891SOL    HW157774   6.898   8.956   7.620 -1.2950 -1.4520  0.9252
18891SOL    HW257775   6.995   8.891   7.523 -0.0328  0.8917  0.5231
18892SOL     OW57776   1.687   0.267   7.081  0.0944  0.4107  0.1256
18892SOL    HW157777   1.636   0.332   7.129  1.1905  0.5294  1.1904
18892SOL    HW257778   1.730   0.316   7.011  0.7885  0.8193  0.8269
18893SOL     OW57779   0.973   1.288   7.480  0.7781 -0.1276 -0.5212
18893SOL    HW157780   0.901   1.242   7.523 -0.0483 -0.9991 -2.6510
18893SOL    HW257781   1.028   1.218   7.445  2.9916  0.5173  1.4646
18894SOL     OW57782   2.096   3.525   4.681 -0.3881 -0.2648 -0.3349
18894SOL    HW157783   2.102   3.575   4.600 -2.4801 -1.6741 -1.4465
18894SOL    HW257784   2.178   3.475   4.685  0.2715  0.7510 -0.9020
18895SOL     OW57785   7.954   7.858   7.147 -0.5346 -0.2269 -0.3926
18895SOL    HW157786   7.859   7.853   7.145 -0.7121  1.4222  1.2113
18895SOL    HW257787   7.980   7.860   7.055 -2.3032  2.1541 -0.9520
18896SOL     OW57788   0.581   7.862   3.610 -0.3741  0.6089 -0.4429
18896SOL    HW157789   0.599   7.859   3.703 -2.3640  0.9044 -0.0061
18896SOL    HW257790   0.619   7.781   3.575  0.7655  0.6976  0.5188
18897SOL     OW57791   0.236   3.047   0.636  0.0152  0.2265  0.2733
18897SOL    HW157792   0.181   3.057   0.714 -1.1759  1.7548 -0.7085
18897SOL    HW257793   0.253   2.953   0.631 -1.8191 -0.1994  1.0843
18898SOL     OW57794   1.144   3.680   8.116  0.6277 -0.5102 -0.0244
18898SOL    HW157795   1.060   3.672   8.161  1.2898 -1.9601  1.0103
18898SOL    HW257796   1.131   3.633   8.033  0.2869 -0.3442 -0.0680
18899SOL     OW57797   4.246   5.991   7.535 -0.2809 -0.8242  0.2723
18899SOL    HW157798   4.247   6.087   7.535 -0.6446 -0.7413  2.8772
18899SOL    HW257799   4.322   5.966   7.482  0.7106  0.9325  0.7800
18900SOL     OW57800   3.943   3.821   8.513 -0.2791 -0.1783  0.0561
18900SOL    HW157801   3.961   3.886   8.581  1.6189 -0.6280  0.0158
18900SOL    HW257802   3.850   3.833   8.494 -0.4025  1.2735  1.3453
18901SOL     OW57803   4.555   7.723   8.212  0.7517 -0.0426 -0.0586
18901SOL    HW157804   4.581   7.803   8.166  0.5397 -0.1042 -0.2910
18901SOL    HW257805   4.476   7.748   8.260  1.3803  0.2157  0.8572
18902SOL     OW57806   3.877   5.407   1.883 -0.8453 -0.0082 -0.2650
18902SOL    HW157807   3.804   5.350   1.903 -1.2728  0.7330  0.3597
18902SOL    HW257808   3.918   5.368   1.805 -0.9606 -1.2886  0.2934
18903SOL     OW57809   6.186   8.213   7.936  0.0501 -0.7364 -0.4252
18903SOL    HW157810   6.250   8.275   7.971  0.5561 -1.1547 -0.5910
18903SOL    HW257811   6.233   8.167   7.866 -0.6640 -0.5393 -1.0452
18904SOL     OW57812   0.530   4.946   0.501 -0.3576 -0.3575  0.4368
18904SOL    HW157813   0.555   4.899   0.580  0.1016 -0.1454  0.4227
18904SOL    HW257814   0.461   4.893   0.462  0.0392 -0.9338  0.5027
18905SOL     OW57815   8.414   5.470   1.153  0.8119  0.1701  0.4445
18905SOL    HW157816   8.363   5.543   1.189  0.3391  0.6764 -1.1620
18905SOL    HW257817   8.348   5.406   1.126  1.2273 -0.9237  1.9002
18906SOL     OW57818   2.305   3.919   1.662 -0.0656 -0.4075 -0.1164
18906SOL    HW157819   2.296   4.007   1.697  1.4661 -0.5827  0.8132
18906SOL    HW257820   2.264   3.863   1.728  1.1843 -0.5803  0.5397
18907SOL     OW57821   1.654   1.027   4.419 -0.0898 -0.6428 -0.1428
18907SOL    HW157822   1.611   1.032   4.334  0.8537 -1.1385 -0.6594
18907SOL    HW257823   1.737   0.983   4.402  0.1076 -0.7616  1.0379
18908SOL     OW57824   3.956   0.169   0.221  0.2388  0.0109 -0.2784
18908SOL    HW157825   3.873   0.129   0.247 -0.0070  0.5512 -0.2154
18908SOL    HW257826   3.950   0.179   0.126 -0.0965  0.7633 -0.1848
18909SOL     OW57827   6.348   1.370   0.480 -0.1460 -0.8417 -0.1112
18909SOL    HW157828   6.418   1.427   0.511  0.8491 -1.6491 -0.7916
18909SOL    HW257829   6.311   1.416   0.405  0.3846 -0.8984 -0.4138
18910SOL     OW57830   7.539   6.465   8.535  0.7050 -0.0771  0.2487
18910SOL    HW157831   7.447   6.456   8.509  0.3689 -1.0747  1.6348
18910SOL    HW257832   7.571   6.541   8.486 -1.7548  2.3615  2.0756
18911SOL     OW57833   7.829   0.847   7.706 -0.2236 -0.6131  0.4260
18911SOL    HW157834   7.770   0.824   7.778 -0.2999 -0.1910  0.5020
18911SOL    HW257835   7.815   0.940   7.692  0.1250 -0.5957  0.1649
18912SOL     OW57836   3.863   6.239   1.979 -0.3549  0.2069  0.3044
18912SOL    HW157837   3.827   6.169   1.924 -1.0509  0.6521  0.1734
18912SOL    HW257838   3.842   6.319   1.930  0.2826  0.5150  0.5342
18913SOL     OW57839   6.278   7.158   7.943  0.1694  0.0489 -0.5280
18913SOL    HW157840   6.322   7.185   7.863  1.0810 -0.4197 -0.2062
18913SOL    HW257841   6.300   7.225   8.007  1.9411 -1.0827  0.1117
18914SOL     OW57842   8.359   1.119   1.985 -0.1366 -0.2047  0.0184
18914SOL    HW157843   8.333   1.150   2.072  1.8840 -1.5174  1.1577
18914SOL    HW257844   8.377   1.026   1.996  0.0772 -0.4360 -1.8529
18915SOL     OW57845   1.235   0.674   6.684 -0.0419  0.4478  0.3744
18915SOL    HW157846   1.202   0.726   6.610  0.3044  0.0780 -0.0424
18915SOL    HW257847   1.329   0.669   6.670  0.1239  0.9438  1.2124
18916SOL     OW57848   1.156   5.398   4.271 -0.0329 -0.6558  0.6367
18916SOL    HW157849   1.150   5.371   4.363 -0.8721 -1.2884  0.3964
18916SOL    HW257850   1.226   5.343   4.235 -0.3776 -1.1147  0.6543
18917SOL     OW57851   5.976   7.787   0.377 -0.2389  0.0620  0.6571
18917SOL    HW157852   5.917   7.855   0.343  0.8276  0.3945 -0.5882
18917SOL    HW257853   6.056   7.834   0.400 -0.3494 -0.4189  2.1825
18918SOL     OW57854   8.543   5.925   4.240  0.0441 -0.4832 -0.0153
18918SOL    HW157855   8.607   5.935   4.169  0.1026  1.2233  0.2197
18918SOL    HW257856   8.461   5.905   4.196  0.6268 -2.3459 -0.3450
18919SOL     OW57857   1.699   6.369   6.165 -0.7153 -0.4393  0.1053
18919SOL    HW157858   1.742   6.295   6.208  0.8020  1.3241  1.8247
18919SOL    HW257859   1.737   6.372   6.077  3.1128  1.1449  1.5911
18920SOL     OW57860   6.761   1.659   7.143 -0.0724  0.2089  0.5322
18920SOL    HW157861   6.835   1.668   7.083  0.3418  1.7275  1.2372
18920SOL    HW257862   6.801   1.632   7.225 -0.4831 -0.4661  0.5139
18921SOL     OW57863   8.972   4.073   7.559  0.2300 -1.0850 -0.0333
18921SOL    HW157864   8.915   4.133   7.510  1.1867 -1.2821 -1.4458
18921SOL    HW257865   8.922   4.052   7.638 -1.7208 -1.3235 -1.2544
18922SOL     OW57866   8.496   3.549   1.440 -0.4458 -0.3361 -0.1667
18922SOL    HW157867   8.562   3.607   1.478 -0.0929 -0.8557  0.0205
18922SOL    HW257868   8.413   3.591   1.461 -0.3979 -1.5446  2.8810
18923SOL     OW57869   0.876   4.190   8.149  0.3017  0.1156  0.5805
18923SOL    HW157870   0.894   4.258   8.084 -1.8565 -0.6677 -0.9689
18923SOL    HW257871   0.960   4.173   8.191  1.5154  1.5515 -1.1389
18924SOL     OW57872   4.754   8.697   0.901 -0.3991 -0.0668 -0.1233
18924SOL    HW157873   4.827   8.737   0.948  0.7711  0.7121 -2.4233
18924SOL    HW257874   4.678   8.748   0.927  0.1801  0.3062  0.9171
18925SOL     OW57875   4.738   6.585   1.257  0.9505 -0.1461 -0.5345
18925SOL    HW157876   4.748   6.673   1.220  0.3459 -0.4692 -1.4940
18925SOL    HW257877   4.804   6.532   1.213  0.4607 -0.4529 -0.9127
18926SOL     OW57878   0.429   6.303   5.630  0.2318  0.0583  0.0268
18926SOL    HW157879   0.410   6.253   5.551  0.9389 -0.6366  0.2859
18926SOL    HW257880   0.512   6.347   5.612 -1.0982  2.4231 -0.7885
18927SOL     OW57881   0.580   8.393   3.095 -0.2846 -0.0066 -0.4605
18927SOL    HW157882   0.557   8.306   3.127  1.1003  0.2575  1.3912
18927SOL    HW257883   0.595   8.445   3.174  1.0871  1.3070 -1.5250
18928SOL     OW57884   6.321   7.586   4.243 -0.1762 -0.0246  0.2783
18928SOL    HW157885   6.334   7.675   4.275  1.4092  0.0160 -0.3730
18928SOL    HW257886   6.262   7.596   4.168 -1.7114  0.1923  1.4751
18929SOL     OW57887   0.918   0.798   0.780 -0.4025  0.3878  0.7844
18929SOL    HW157888   0.999   0.810   0.831  0.0116 -2.3153  0.8890
18929SOL    HW257889   0.948   0.793   0.689 -0.7435  1.6343  0.5874
18930SOL     OW57890   5.499   4.792   1.144 -0.1976  0.7380 -0.3412
18930SOL    HW157891   5.560   4.862   1.121  1.2594  0.0310  1.1847
18930SOL    HW257892   5.534   4.715   1.101  0.0017  0.3259  0.5366
18931SOL     OW57893   4.657   5.207   1.525  0.2171 -0.0397  0.6231
18931SOL    HW157894   4.637   5.207   1.432  0.2663 -0.1247  0.6125
18931SOL    HW257895   4.643   5.297   1.553  0.4484  0.0384  0.4817
18932SOL     OW57896   7.297   7.025   5.878 -0.5127 -0.1857  0.2088
18932SOL    HW157897   7.372   6.984   5.920 -0.7736  1.3840  2.3689
18932SOL    HW257898   7.336   7.089   5.817 -0.0792  0.4858  1.1721
18933SOL     OW57899   7.724   1.204   5.248  0.3809  0.1027  0.0816
18933SOL    HW157900   7.707   1.148   5.172  3.3165  0.0412 -0.6308
18933SOL    HW257901   7.662   1.276   5.238 -0.7472 -0.9760 -1.1942
18934SOL     OW57902   1.509   0.856   8.713  0.2254  0.5748 -0.5822
18934SOL    HW157903   1.439   0.902   8.758 -0.6613 -0.7102 -0.5918
18934SOL    HW257904   1.482   0.854   8.621  0.1365 -0.1284 -0.5492
18935SOL     OW57905   5.668   0.276   4.903 -0.1135  0.2923  0.3668
18935SOL    HW157906   5.682   0.225   4.823 -0.5109 -1.0645  1.1163
18935SOL    HW257907   5.753   0.275   4.946 -0.2527 -0.2273  0.6402
18936SOL     OW57908   5.099   3.014   7.076  0.3988 -0.5257 -0.4045
18936SOL    HW157909   5.082   3.077   7.006  0.1794  0.0436  0.1534
18936SOL    HW257910   5.129   2.935   7.030  0.8139  0.0240 -1.1073
18937SOL     OW57911   1.430   0.552   0.621 -0.1323 -0.3703  0.8129
18937SOL    HW157912   1.488   0.621   0.654 -0.7429 -0.0325  1.2060
18937SOL    HW257913   1.488   0.479   0.602  0.3861 -0.1562  1.5267
18938SOL     OW57914   5.392   5.987   4.980  0.0717 -0.1190 -0.3786
18938SOL    HW157915   5.340   6.056   5.020 -0.4379 -0.1810 -0.9223
18938SOL    HW257916   5.330   5.915   4.965 -0.1382  0.4562 -2.6737
18939SOL     OW57917   3.627   1.124   6.450  0.1051  0.3520 -0.2276
18939SOL    HW157918   3.644   1.121   6.544 -0.8507 -1.5187 -0.0673
18939SOL    HW257919   3.540   1.085   6.440 -1.5464  3.9292 -1.5784
18940SOL     OW57920   7.942   7.443   8.355 -0.2500  0.3132 -0.2057
18940SOL    HW157921   7.891   7.454   8.435 -1.4965 -0.0193 -0.9330
18940SOL    HW257922   7.948   7.348   8.343 -1.1844  0.3559 -1.1726
18941SOL     OW57923   6.973   1.499   5.243 -0.5518  0.2182  0.0076
18941SOL    HW157924   6.989   1.589   5.271  1.5866 -0.2918  0.5948
18941SOL    HW257925   6.882   1.482   5.266 -1.1752  2.3965 -0.6337
18942SOL     OW57926   8.582   8.040   3.743 -0.0388 -0.5556 -0.0959
18942SOL    HW157927   8.537   8.124   3.731  0.4911 -0.1083  0.9530
18942SOL    HW257928   8.666   8.063   3.784  0.6041 -1.4984 -0.8213
18943SOL     OW57929   2.610   8.125   2.718 -0.2154  0.4558  0.3498
18943SOL    HW157930   2.609   8.144   2.812 -1.7364  3.3946 -0.1384
18943SOL    HW257931   2.520   8.103   2.697 -0.0726  0.7028 -0.5695
18944SOL     OW57932   7.201   4.415   1.925 -0.1442  0.4463 -0.3636
18944SOL    HW157933   7.193   4.406   2.020  0.0766  1.2501 -0.2604
18944SOL    HW257934   7.151   4.494   1.905  0.8066  0.9679 -0.7549
18945SOL     OW57935   2.355   5.467   0.516  0.0027  0.2250 -0.5510
18945SOL    HW157936   2.302   5.392   0.545 -0.3584  0.2856 -1.0400
18945SOL    HW257937   2.378   5.446   0.425  1.6810 -0.2781 -0.0344
18946SOL     OW57938   0.903   2.734   8.208  0.0942 -0.1303 -0.6216
18946SOL    HW157939   0.931   2.669   8.272  0.9876 -0.2504 -1.1064
18946SOL    HW257940   0.889   2.684   8.127 -0.1541  0.1416 -0.7467
18947SOL     OW57941   5.129   3.489   0.819 -0.0483 -0.5274  0.1386
18947SOL    HW157942   5.145   3.572   0.864  0.8051 -1.1412  1.0016
18947SOL    HW257943   5.040   3.465   0.844 -0.8293  0.7948 -1.2394
18948SOL     OW57944   1.854   9.081   0.436 -0.3325  0.3094 -0.1085
18948SOL    HW157945   1.889   9.100   0.523 -0.7645  0.1457  0.1016
18948SOL    HW257946   1.905   9.005   0.406  1.2322  1.6076 -0.8527
18949SOL     OW57947   6.583   0.861   3.227  0.3294  0.3890 -0.2413
18949SOL    HW157948   6.597   0.947   3.266 -0.9307 -0.0458  1.2799
18949SOL    HW257949   6.489   0.859   3.208  0.2266 -0.8438  0.3121
18950SOL     OW57950   3.644   7.610   4.040 -0.2772  0.7658  0.3513
18950SOL    HW157951   3.695   7.689   4.022 -0.0426  0.9985  1.8728
18950SOL    HW257952   3.555   7.641   4.055 -0.2699  0.7058  0.5298
18951SOL     OW57953   9.070   0.639   2.346 -0.1397  0.3165 -0.1652
18951SOL    HW157954   9.163   0.657   2.356 -0.3027  0.0546  3.0840
18951SOL    HW257955   9.064   0.578   2.273  1.9732  1.7728 -1.6659
18952SOL     OW57956   0.582   5.382   8.401  0.1743  0.7831 -0.2715
18952SOL    HW157957   0.505   5.339   8.438  0.1896  2.3466  1.7447
18952SOL    HW257958   0.549   5.424   8.321 -0.2185 -1.4030 -1.3268
18953SOL     OW57959   5.897   5.941   6.033  0.3660 -0.1061  0.4097
18953SOL    HW157960   5.889   5.919   5.940 -0.5599 -0.3468  0.5360
18953SOL    HW257961   5.854   6.026   6.040  1.3310  0.3977  0.4514
18954SOL     OW57962   0.201   3.525   7.125  0.4812  0.0736  0.4168
18954SOL    HW157963   0.228   3.615   7.110 -0.4245  0.0754 -1.5759
18954SOL    HW257964   0.197   3.516   7.220 -0.4423  2.4412  0.6713
18955SOL     OW57965   4.480   8.038   7.108  0.0635 -0.2322  0.1438
18955SOL    HW157966   4.437   8.093   7.173  0.9031  1.3533 -0.5663
18955SOL    HW257967   4.437   8.061   7.026  2.0771  1.3603 -0.5795
18956SOL     OW57968   1.530   6.967   6.536 -0.2772 -0.1267 -0.6791
18956SOL    HW157969   1.463   6.921   6.485  0.2661 -0.3466 -1.2046
18956SOL    HW257970   1.505   6.951   6.627 -1.6222  0.8151 -0.8663
18957SOL     OW57971   7.156   8.362   0.741 -0.5974 -0.0868  0.1716
18957SOL    HW157972   7.149   8.309   0.819  0.5832 -2.0894 -1.0001
18957SOL    HW257973   7.138   8.452   0.771 -3.2469 -1.1294  2.1103
18958SOL     OW57974   2.872   4.461   4.089 -0.1349  0.6865  0.2922
18958SOL    HW157975   2.793   4.429   4.133  1.0769 -1.5874  0.9561
18958SOL    HW257976   2.851   4.454   3.996 -1.1956  1.4641  0.4508
18959SOL     OW57977   4.313   4.670   3.558 -0.1580  0.0068 -0.2213
18959SOL    HW157978   4.335   4.705   3.644 -0.2852  0.3822 -0.3403
18959SOL    HW257979   4.219   4.656   3.561 -0.1107 -0.3111 -0.1811
18960SOL     OW57980   6.239   0.391   4.085  0.0318 -0.5075 -0.3501
18960SOL    HW157981   6.213   0.452   4.016  1.4942 -0.8181 -1.2026
18960SOL    HW257982   6.334   0.396   4.088  0.0090 -0.3502  1.8061
18961SOL     OW57983   7.507   5.713   8.473  0.0128 -0.5732  0.2061
18961SOL    HW157984   7.528   5.782   8.410  0.0784 -0.8715 -0.1017
18961SOL    HW257985   7.415   5.694   8.459  0.3817 -1.6867 -0.8455
18962SOL     OW57986   0.041   7.689   4.954  0.6010  0.6576 -0.4316
18962SOL    HW157987  -0.022   7.634   4.907 -1.5131  2.9004 -0.4456
18962SOL    HW257988   0.050   7.767   4.899 -0.3464  2.4623  1.7925
18963SOL     OW57989   4.390   4.476   1.852 -0.1671 -0.5662 -0.1042
18963SOL    HW157990   4.357   4.532   1.922 -0.5048 -1.1240  0.1954
18963SOL    HW257991   4.392   4.532   1.775  1.0638  0.3191  0.5324
18964SOL     OW57992   2.403   6.672   0.733  0.2874  0.1263  0.9127
18964SOL    HW157993   2.313   6.644   0.750  0.2760  0.5004  1.4612
18964SOL    HW257994   2.401   6.767   0.742  0.6316  0.1849  0.4177
18965SOL     OW57995   5.824   3.582   1.145 -0.0275  0.0655  0.6804
18965SOL    HW157996   5.842   3.676   1.147  0.8068 -0.0940  1.7042
18965SOL    HW257997   5.878   3.546   1.215 -1.6262 -0.9515  1.4601
18966SOL     OW57998   4.544   1.892   4.219  0.3009 -0.2304 -0.1583
18966SOL    HW157999   4.595   1.812   4.205  1.4772  0.6092 -0.9862
18966SOL    HW258000   4.549   1.908   4.313  0.5887 -0.7963 -0.0744
18967SOL     OW58001   7.475   4.142   7.452  0.0982 -0.5259 -0.1753
18967SOL    HW158002   7.449   4.217   7.398  1.9410  0.6889  0.5569
18967SOL    HW258003   7.394   4.117   7.497 -1.0624 -0.4205 -2.0488
18968SOL     OW58004   5.660   7.878   5.555 -0.3337 -0.4985  0.0539
18968SOL    HW158005   5.586   7.844   5.505 -0.2938 -0.1673 -0.2297
18968SOL    HW258006   5.724   7.905   5.489 -0.4476  0.3174  0.2632
18969SOL     OW58007   4.087   1.275   7.836  0.1327 -0.6815 -0.2726
18969SOL    HW158008   4.046   1.318   7.911 -0.6226 -0.1862 -0.9457
18969SOL    HW258009   4.024   1.286   7.765  1.3781 -0.0116 -1.3161
18970SOL     OW58010   2.954   6.380   5.566 -0.0385 -0.0322  0.1547
18970SOL    HW158011   3.017   6.312   5.545  0.6200 -0.0143  1.9125
18970SOL    HW258012   2.889   6.376   5.496  0.9079 -1.3072 -0.6732
18971SOL     OW58013   0.749   2.323   8.217  0.3651  0.2438  0.7874
18971SOL    HW158014   0.682   2.277   8.166  1.5298  0.6075 -1.1783
18971SOL    HW258015   0.708   2.406   8.241 -0.6283 -0.4423  1.5754
18972SOL     OW58016   5.945   5.473   1.440  0.0836  0.2043 -0.3686
18972SOL    HW158017   5.955   5.511   1.527  0.9662 -1.7747  0.4465
18972SOL    HW258018   6.027   5.495   1.395 -0.9824  2.5407 -1.2909
18973SOL     OW58019   0.155   7.727   0.310 -0.2883 -0.3276 -0.0581
18973SOL    HW158020   0.121   7.790   0.246  0.5567  0.6055  0.3919
18973SOL    HW258021   0.084   7.663   0.320 -1.1923  0.5784 -0.4733
18974SOL     OW58022   6.086   7.689   6.990 -0.3876 -0.0711 -0.1118
18974SOL    HW158023   6.031   7.767   6.985 -2.1911 -1.3234 -0.7955
18974SOL    HW258024   6.089   7.656   6.900  3.4464  1.1525 -0.6154
18975SOL     OW58025   0.878   5.935   1.333 -0.1710 -0.3950 -0.1782
18975SOL    HW158026   0.851   5.873   1.401  0.7455 -2.1818 -1.3931
18975SOL    HW258027   0.956   5.896   1.294 -0.7733  0.4789 -2.4037
18976SOL     OW58028   8.919   3.613   1.681 -0.0570 -0.2924 -0.2998
18976SOL    HW158029   8.947   3.697   1.644 -0.4739  0.0111  0.0553
18976SOL    HW258030   8.999   3.574   1.715  0.0584  0.2354  0.0583
18977SOL     OW58031   1.619   6.276   2.185 -0.0636 -0.4028  0.4792
18977SOL    HW158032   1.632   6.239   2.098  0.3082  0.7968  0.0133
18977SOL    HW258033   1.535   6.242   2.214 -0.6460 -0.0388 -0.7516
18978SOL     OW58034   6.311   6.510   1.198  0.3443 -0.0995  0.0301
18978SOL    HW158035   6.332   6.442   1.133 -0.9403 -0.8551  0.3764
18978SOL    HW258036   6.243   6.563   1.157 -0.6449 -0.7221  0.8218
18979SOL     OW58037   2.245   8.831   5.954  0.1769 -0.0249 -0.0161
18979SOL    HW158038   2.323   8.786   5.987 -1.7595 -4.5065 -0.8226
18979SOL    HW258039   2.188   8.842   6.030 -0.0173 -0.4745 -0.0968
18980SOL     OW58040   5.453   7.098   0.188 -0.3293 -0.3539 -0.0106
18980SOL    HW158041   5.478   7.186   0.216  0.0865  0.2748 -2.1212
18980SOL    HW258042   5.442   7.049   0.269  0.5011  1.3468  1.2011
18981SOL     OW58043   1.423   1.073   4.044  0.6538 -0.3764 -0.0739
18981SOL    HW158044   1.474   1.036   4.117 -0.1179 -0.9295  0.2050
18981SOL    HW258045   1.385   0.996   4.001 -3.8831 -0.0556  2.5841
18982SOL     OW58046   5.528   2.679   0.277  0.6139  0.1449  0.4041
18982SOL    HW158047   5.473   2.729   0.336  0.4570 -0.1131  0.4810
18982SOL    HW258048   5.513   2.718   0.191  0.3827  0.1387  0.4399
18983SOL     OW58049   1.860   3.273   0.372  0.0598 -0.0650 -0.4371
18983SOL    HW158050   1.804   3.341   0.409  1.3515 -0.0253  1.6058
18983SOL    HW258051   1.949   3.304   0.388  0.6758 -1.3279 -1.2470
18984SOL     OW58052   6.661   5.454   0.387 -0.7936 -0.1216 -0.3723
18984SOL    HW158053   6.647   5.539   0.428 -2.1504 -0.1774 -0.6550
18984SOL    HW258054   6.746   5.461   0.343 -1.3770  1.4625 -1.3140
18985SOL     OW58055   3.788   5.617   1.159  0.3222  0.1683  0.5920
18985SOL    HW158056   3.856   5.683   1.172 -0.7676  1.8643 -1.6642
18985SOL    HW258057   3.822   5.560   1.090  1.1484 -1.5997  2.3512
18986SOL     OW58058   3.176   0.119   3.607  0.1791 -0.4384  0.0406
18986SOL    HW158059   3.191   0.199   3.658 -0.9773 -1.1604  1.5843
18986SOL    HW258060   3.253   0.112   3.550  0.7560  1.2522  0.5553
18987SOL     OW58061   7.657   6.692   9.049  0.6690  0.0954 -0.4014
18987SOL    HW158062   7.662   6.664   8.957 -0.0153 -0.2353 -0.3455
18987SOL    HW258063   7.687   6.782   9.048 -0.0807  0.3570 -1.0868
18988SOL     OW58064   0.102   0.540   3.931 -0.1251  0.1684  0.1484
18988SOL    HW158065   0.172   0.517   3.870 -0.0462  0.9064 -0.0511
18988SOL    HW258066   0.029   0.567   3.875 -0.5614 -0.5537  0.3573
18989SOL     OW58067   4.795   6.193   7.055 -0.4557 -0.4109  0.9221
18989SOL    HW158068   4.717   6.231   7.095  0.7213  1.4839  1.5330
18989SOL    HW258069   4.856   6.266   7.045  1.3868 -1.8800  0.7706
18990SOL     OW58070   4.814   7.901   4.152 -0.5551 -0.3081  0.2017
18990SOL    HW158071   4.818   7.996   4.145 -2.9953 -0.2327 -1.8012
18990SOL    HW258072   4.862   7.868   4.076 -3.1039 -0.4246 -1.5145
18991SOL     OW58073   1.564   2.980   6.633 -0.0503  0.3002 -0.2653
18991SOL    HW158074   1.630   3.008   6.697 -0.8435 -0.1426  0.7706
18991SOL    HW258075   1.565   3.049   6.567 -0.7629  1.9558  1.3500
18992SOL     OW58076   0.971   6.944   4.258  0.0746  0.4215  0.0745
18992SOL    HW158077   0.893   6.956   4.204  0.5077  1.6178 -0.3267
18992SOL    HW258078   0.944   6.882   4.326 -0.7543 -0.3833 -0.9564
18993SOL     OW58079   6.625   3.358   9.069 -0.0112 -0.3112  0.2714
18993SOL    HW158080   6.657   3.433   9.119 -0.7384 -0.4037  0.8980
18993SOL    HW258081   6.530   3.361   9.079 -0.2780  0.2798 -2.0030
18994SOL     OW58082   7.232   4.686   7.716  0.1624 -0.3723  0.0274
18994SOL    HW158083   7.237   4.674   7.622  0.6824 -1.4765  0.1808
18994SOL    HW258084   7.143   4.718   7.731  0.1181 -0.0645 -0.8419
18995SOL     OW58085   0.688   6.586   6.188  0.1817  0.1260 -0.5179
18995SOL    HW158086   0.658   6.658   6.132 -0.8696  2.3315  2.5458
18995SOL    HW258087   0.611   6.529   6.197  0.0710  0.2575 -0.6302
18996SOL     OW58088   5.280   2.505   8.545  0.1158  0.0971 -0.3500
18996SOL    HW158089   5.322   2.564   8.482  0.2656  1.3644  0.8765
18996SOL    HW258090   5.322   2.420   8.530 -0.1827  0.2405 -2.2489
18997SOL     OW58091   6.680   7.902   5.112 -0.2845 -0.1815  0.4708
18997SOL    HW158092   6.733   7.822   5.112 -0.7382 -0.4925  0.3663
18997SOL    HW258093   6.632   7.899   5.195 -1.1073 -0.5788 -0.0005
18998SOL     OW58094   0.116   2.541   0.344 -0.0244  0.3921 -0.3190
18998SOL    HW158095   0.079   2.526   0.257  0.4793 -1.4847 -0.2404
18998SOL    HW258096   0.039   2.549   0.401 -0.3402  0.6585 -0.7715
18999SOL     OW58097   4.297   1.232   8.248 -0.4781  0.2559 -0.2858
18999SOL    HW158098   4.377   1.231   8.196  0.1512 -0.7838  0.6697
18999SOL    HW258099   4.296   1.148   8.293 -1.4302  0.7965  0.7584
19000SOL     OW58100   0.335   2.202   4.879  0.3690 -1.1266 -0.5165
19000SOL    HW158101   0.290   2.178   4.959  0.1855 -0.9885 -0.5777
19000SOL    HW258102   0.425   2.172   4.892  0.4697 -0.6372 -0.0472
19001SOL     OW58103   4.375   0.237   3.726  0.2376  0.0257  0.0367
19001SOL    HW158104   4.314   0.208   3.659  0.1389 -0.4735  0.3355
19001SOL    HW258105   4.452   0.181   3.715 -0.5700 -1.5267  1.6392
19002SOL     OW58106   7.479   6.717   5.686  0.1782  0.4201 -0.4764
19002SOL    HW158107   7.533   6.786   5.725 -1.3947  0.4725  1.7817
19002SOL    HW258108   7.399   6.762   5.660 -0.7744 -0.4862  0.8239
19003SOL     OW58109   5.226   9.012   4.339 -0.0327 -0.1421 -0.1184
19003SOL    HW158110   5.172   9.066   4.396  1.4897 -1.3755  2.7481
19003SOL    HW258111   5.164   8.968   4.281 -1.8068  0.6237  1.1067
19004SOL     OW58112   7.152   2.512   0.246 -0.0727 -0.1491 -0.4815
19004SOL    HW158113   7.075   2.557   0.280 -1.3697 -0.6966 -2.5315
19004SOL    HW258114   7.225   2.570   0.269 -0.8582 -0.1601  2.5177
19005SOL     OW58115   4.956   0.892   5.128 -0.5755 -0.0900  0.2901
19005SOL    HW158116   5.024   0.837   5.088  0.5502  0.3045  1.5792
19005SOL    HW258117   4.957   0.972   5.076 -2.5743 -1.3771 -1.9189
19006SOL     OW58118   5.769   3.470   6.922  0.4573 -0.1917  0.0392
19006SOL    HW158119   5.687   3.422   6.933  0.6370 -0.4961  0.0359
19006SOL    HW258120   5.741   3.557   6.892  0.2133 -0.9774 -2.2401
19007SOL     OW58121   5.256   3.833   3.413  0.4147  0.3222  0.1547
19007SOL    HW158122   5.267   3.741   3.390 -0.6793  0.0250  0.7473
19007SOL    HW258123   5.211   3.871   3.337 -2.4338 -0.4723  1.3062
19008SOL     OW58124   8.809   1.256   8.695 -0.1904  0.2299 -0.1462
19008SOL    HW158125   8.782   1.237   8.785  1.0376 -0.1918  0.1530
19008SOL    HW258126   8.781   1.179   8.645  0.1494 -0.0550  0.0967
19009SOL     OW58127   4.799   8.408   1.813  0.6753  0.2914  0.4462
19009SOL    HW158128   4.872   8.347   1.804  0.8100  0.3703  0.9922
19009SOL    HW258129   4.816   8.454   1.895 -0.0794  0.1929  0.6606
19010SOL     OW58130   8.478   3.088   0.926  0.0670 -0.1368 -0.1260
19010SOL    HW158131   8.534   3.158   0.894  2.0751 -0.9466  1.3492
19010SOL    HW258132   8.512   3.009   0.884  0.1445 -0.6614  0.8887
19011SOL     OW58133   8.740   1.234   8.965  0.0625  0.0287  0.3632
19011SOL    HW158134   8.751   1.319   9.008  0.1653  0.1502  0.0987
19011SOL    HW258135   8.687   1.183   9.027  0.0668  0.2574  0.5585
19012SOL     OW58136   0.084   0.800   7.947 -0.5621 -0.6684 -0.3797
19012SOL    HW158137   0.150   0.868   7.958  0.0797 -1.4241  0.6697
19012SOL    HW258138   0.046   0.816   7.861  0.3960  0.2954 -0.6369
19013SOL     OW58139   5.409   0.329   7.555 -0.1940  0.0528  0.1107
19013SOL    HW158140   5.426   0.391   7.626 -0.8949 -1.6273  1.8552
19013SOL    HW258141   5.410   0.243   7.598 -1.5709 -0.9718 -1.7610
19014SOL     OW58142   1.939   6.718   5.518 -0.3504 -0.0278  0.3195
19014SOL    HW158143   1.903   6.792   5.566  0.3554  0.8672 -0.5110
19014SOL    HW258144   1.869   6.653   5.519 -0.8387  0.4980  1.3765
19015SOL     OW58145   3.629   1.608   1.887  0.0290  0.0531  0.2015
19015SOL    HW158146   3.697   1.589   1.951 -0.4138  2.7475  1.6133
19015SOL    HW258147   3.547   1.589   1.934 -0.2545 -0.6376 -0.5619
19016SOL     OW58148   4.961   3.682   6.002 -0.3084 -0.4315  0.5201
19016SOL    HW158149   4.952   3.607   6.060 -1.0691  0.6206  1.8256
19016SOL    HW258150   5.047   3.718   6.021  0.3366 -1.3026 -0.5785
19017SOL     OW58151   9.127   2.202   1.188  0.0521  0.5952 -0.3596
19017SOL    HW158152   9.044   2.168   1.154 -0.6139 -0.7282  2.2846
19017SOL    HW258153   9.153   2.139   1.255  1.5498  2.6031  1.0983
19018SOL     OW58154   2.342   1.288   0.857 -0.8242  0.2486  0.2428
19018SOL    HW158155   2.300   1.329   0.932 -1.2064  1.3080 -0.5148
19018SOL    HW258156   2.315   1.342   0.782  1.8214  0.9886 -0.3053
19019SOL     OW58157   1.912   6.912   8.592 -0.1613 -0.3322  0.2919
19019SOL    HW158158   1.821   6.938   8.611 -0.5051 -0.6572 -0.8318
19019SOL    HW258159   1.964   6.988   8.617 -0.9958  0.8295 -1.3353
19020SOL     OW58160   1.882   5.915   8.065 -0.1188  0.2579  0.2948
19020SOL    HW158161   1.919   5.827   8.051  0.9859  0.6247  0.7836
19020SOL    HW258162   1.959   5.971   8.076 -0.8264  1.2078  0.4426
19021SOL     OW58163   3.612   3.594   2.827 -1.1807 -0.0038 -0.2429
19021SOL    HW158164   3.657   3.584   2.742 -2.0302 -1.2856 -0.5756
19021SOL    HW258165   3.541   3.656   2.810 -1.5435 -0.4981 -0.5703
19022SOL     OW58166   8.923   3.399   8.875 -0.0977 -0.3065 -0.2049
19022SOL    HW158167   9.005   3.405   8.825  0.0140  1.4974  0.1178
19022SOL    HW258168   8.941   3.335   8.944  1.6360  1.2267  0.8575
19023SOL     OW58169   3.912   6.534   6.949  0.2584 -0.4280  0.6434
19023SOL    HW158170   3.821   6.506   6.943  0.0581 -0.2666  2.3320
19023SOL    HW258171   3.907   6.630   6.944  0.4338 -0.4532 -0.1108
19024SOL     OW58172   3.154   8.821   5.503  0.4466 -0.0086 -0.2925
19024SOL    HW158173   3.233   8.807   5.556 -0.2263 -1.9665  0.2457
19024SOL    HW258174   3.094   8.866   5.562  0.4009 -0.4325 -0.0130
19025SOL     OW58175   6.047   5.818   2.818 -0.0572 -0.2017  0.5193
19025SOL    HW158176   5.957   5.801   2.848 -0.3724  0.8178  0.1964
19025SOL    HW258177   6.076   5.891   2.873  0.4504 -0.2960  0.3779
19026SOL     OW58178   0.982   0.612   1.780 -0.1551 -0.3746 -0.8593
19026SOL    HW158179   1.044   0.681   1.757 -0.8266 -0.1153 -1.9155
19026SOL    HW258180   1.015   0.578   1.863 -0.3244  1.8219  0.1789
19027SOL     OW58181   2.995   5.412   8.013  0.2151  0.3931  0.1806
19027SOL    HW158182   3.010   5.505   8.026  0.7088  0.1016  1.8855
19027SOL    HW258183   2.978   5.377   8.101 -2.6835 -0.6832 -0.6783
19028SOL     OW58184   7.441   7.946   7.514 -0.4011 -0.4044 -0.1953
19028SOL    HW158185   7.447   7.851   7.524  0.2199 -0.3046  0.4501
19028SOL    HW258186   7.527   7.978   7.541 -0.7907  0.3870  0.1243
19029SOL     OW58187   3.669   5.422   0.703 -0.1578  0.5702  0.4611
19029SOL    HW158188   3.657   5.509   0.664  1.4361  0.2429 -0.8542
19029SOL    HW258189   3.638   5.361   0.635  0.7716  0.0477  0.5008
19030SOL     OW58190   2.731   6.900   8.226  0.6947 -0.1453 -0.1856
19030SOL    HW158191   2.733   6.991   8.196  1.1569 -1.2347 -3.9281
19030SOL    HW258192   2.652   6.895   8.280 -0.0806  2.1904 -0.9621
19031SOL     OW58193   0.828   1.848   2.230 -0.5687 -0.4835 -0.2608
19031SOL    HW158194   0.891   1.916   2.204  0.0687 -1.1109 -0.3877
19031SOL    HW258195   0.816   1.795   2.151 -0.2669 -1.1308  0.1236
19032SOL     OW58196   1.146   2.326   1.911  0.8639  0.0774  0.0827
19032SOL    HW158197   1.082   2.261   1.882  0.2218 -0.7269  3.0245
19032SOL    HW258198   1.095   2.405   1.925  0.1276 -0.8584  3.5006
19033SOL     OW58199   4.768   6.174   6.538  0.1659 -0.2660  0.1355
19033SOL    HW158200   4.776   6.259   6.580 -2.5500 -0.4168  1.1699
19033SOL    HW258201   4.760   6.112   6.611  1.3023 -1.3178 -0.6021
19034SOL     OW58202   3.792   0.635   9.055  0.3082  0.8342 -0.2912
19034SOL    HW158203   3.745   0.593   8.983  1.3800  0.4039 -0.7577
19034SOL    HW258204   3.752   0.722   9.062 -1.0709  0.2204 -0.1567
19035SOL     OW58205   6.667   5.948   6.311 -0.0905  0.5535  0.4804
19035SOL    HW158206   6.761   5.956   6.295  0.1872 -0.6673  1.3906
19035SOL    HW258207   6.639   5.877   6.253 -0.5276  1.1148 -0.0100
19036SOL     OW58208   6.071   6.136   1.552 -0.5508  0.0426 -0.3857
19036SOL    HW158209   6.091   6.193   1.478 -0.7688 -0.9289 -1.2149
19036SOL    HW258210   6.137   6.068   1.548 -1.0396 -0.4493 -0.1668
19037SOL     OW58211   0.015   6.994   0.742  0.3811 -0.1005 -0.2972
19037SOL    HW158212  -0.028   7.044   0.811 -0.1457  0.9245 -1.3333
19037SOL    HW258213  -0.046   6.922   0.723 -0.5602  0.9261 -1.2536
19038SOL     OW58214   8.272   7.155   1.285 -0.0710 -0.2313 -0.6706
19038SOL    HW158215   8.267   7.175   1.191  1.3251  1.1596 -0.4775
19038SOL    HW258216   8.332   7.220   1.321 -1.5957  0.1053  1.4516
19039SOL     OW58217   5.622   6.618   8.635 -0.2940 -0.2405 -0.1776
19039SOL    HW158218   5.595   6.542   8.687 -0.1139 -0.3853 -0.2993
19039SOL    HW258219   5.539   6.660   8.611 -0.3757  0.8976  1.8048
19040SOL     OW58220   6.071   3.898   7.690  0.1086  0.5169 -0.0505
19040SOL    HW158221   5.981   3.872   7.670 -0.1225 -0.5634  2.0502
19040SOL    HW258222   6.124   3.825   7.659  0.4271  1.6253 -2.2657
19041SOL     OW58223   1.880   3.003   1.728  0.5952  0.0881  0.0464
19041SOL    HW158224   1.847   3.014   1.817 -0.6936 -0.6527 -0.3137
19041SOL    HW258225   1.975   2.993   1.739  0.4995  0.3866  1.2919
19042SOL     OW58226   7.544   5.927   3.795  0.1555 -0.2541 -0.2497
19042SOL    HW158227   7.482   5.923   3.869  3.0825  0.2842  2.4454
19042SOL    HW258228   7.582   5.839   3.791  1.1144  0.1426 -0.0653
19043SOL     OW58229   7.239   0.669   2.275  0.1569  0.1960  0.0721
19043SOL    HW158230   7.279   0.689   2.190  0.1886 -0.3178 -0.0355
19043SOL    HW258231   7.253   0.748   2.327  0.2349  0.4722 -0.3645
19044SOL     OW58232   3.524   1.067   6.921 -0.0652 -0.5702  0.4194
19044SOL    HW158233   3.564   1.082   6.835  0.5342  1.6776  1.0402
19044SOL    HW258234   3.598   1.062   6.981 -0.4503 -2.6702  0.7968
19045SOL     OW58235   2.926   3.163   8.840 -0.1201  1.2275 -0.6123
19045SOL    HW158236   3.021   3.167   8.847 -0.0515 -0.3769 -0.2130
19045SOL    HW258237   2.909   3.160   8.746  0.7096 -4.6097 -0.9545
19046SOL     OW58238   2.034   9.054   5.030 -0.2330  0.4251 -0.1240
19046SOL    HW158239   1.982   9.001   4.969  1.3385 -0.7579 -0.5172
19046SOL    HW258240   2.084   9.113   4.974 -1.0429  1.4821  0.2418
19047SOL     OW58241   4.587   6.148   2.085  0.4267 -0.0308 -0.2489
19047SOL    HW158242   4.569   6.093   2.009 -2.1285 -0.5843  0.6648
19047SOL    HW258243   4.634   6.223   2.049 -1.6924  0.2920 -2.6120
19048SOL     OW58244   5.356   8.164   3.101  0.2090  0.4003  0.0356
19048SOL    HW158245   5.283   8.103   3.117  0.2997  0.2339 -0.1829
19048SOL    HW258246   5.363   8.214   3.183 -2.0822  2.4634 -0.8878
19049SOL     OW58247   5.227   4.048   0.814  0.2976 -0.2018  0.0945
19049SOL    HW158248   5.317   4.020   0.798  0.4506 -0.2520  0.9761
19049SOL    HW258249   5.178   3.966   0.822  0.2515 -0.1821  0.0076
19050SOL     OW58250   5.837   9.113   5.661  0.5403  0.1627 -0.2127
19050SOL    HW158251   5.751   9.150   5.682  0.9723  1.7378 -0.9917
19050SOL    HW258252   5.899   9.167   5.710  1.0839 -1.3604  0.8508
19051SOL     OW58253   0.681   6.715   8.845  0.6244 -0.2171  0.0912
19051SOL    HW158254   0.680   6.619   8.852 -0.5321 -0.2140  0.2434
19051SOL    HW258255   0.761   6.742   8.889  1.7456 -1.2017 -1.2738
19052SOL     OW58256   2.178   1.283   1.094  0.1154  0.0470 -0.3233
19052SOL    HW158257   2.186   1.198   1.049  0.5957  1.0078 -2.1410
19052SOL    HW258258   2.136   1.262   1.177 -0.7855 -1.8378 -1.1918
19053SOL     OW58259   8.712   0.126   1.021  0.0114 -0.0127  0.1787
19053SOL    HW158260   8.787   0.144   1.078  0.7282 -1.6875 -0.1579
19053SOL    HW258261   8.666   0.210   1.013  0.8601  0.6539  1.8053
19054SOL     OW58262   4.667   0.511   1.698  0.5409 -0.0352  0.4307
19054SOL    HW158263   4.609   0.466   1.636 -1.3255  0.2507  1.8937
19054SOL    HW258264   4.687   0.594   1.654  0.4059 -0.4239 -0.3998
19055SOL     OW58265   4.140   0.204   2.328  0.2327 -0.0454 -0.6119
19055SOL    HW158266   4.141   0.285   2.278  1.9131  0.9244  0.8902
19055SOL    HW258267   4.231   0.190   2.354 -0.5952 -0.0586  2.7319
19056SOL     OW58268   0.629   0.600   0.241  0.2298 -0.0967  0.0395
19056SOL    HW158269   0.547   0.564   0.275  2.1466 -4.3710  0.7862
19056SOL    HW258270   0.671   0.641   0.316  0.1600 -0.7683  0.4512
19057SOL     OW58271   7.768   2.300   2.930  0.6876 -0.6988 -0.0828
19057SOL    HW158272   7.762   2.205   2.922  1.5991 -0.7804  0.0423
19057SOL    HW258273   7.740   2.318   3.020 -0.6817 -0.7086 -0.4832
19058SOL     OW58274   1.235   0.075   0.441 -0.3167  0.1946  0.0578
19058SOL    HW158275   1.329   0.059   0.426 -0.3858  1.5229 -2.2231
19058SOL    HW258276   1.194  -0.009   0.424  0.2815  0.1505 -1.3505
19059SOL     OW58277   8.246   5.514   3.118  0.0688 -0.5287 -0.0400
19059SOL    HW158278   8.319   5.567   3.086 -0.1904 -0.9249 -1.3387
19059SOL    HW258279   8.202   5.570   3.183  1.7100 -0.4259  1.0273
19060SOL     OW58280   2.578   1.154   7.851  0.3016 -0.1314  0.2374
19060SOL    HW158281   2.629   1.209   7.910 -0.8833 -0.1947  1.3665
19060SOL    HW258282   2.498   1.204   7.833  0.3477 -0.3948 -0.8014
19061SOL     OW58283   2.997   2.284   8.022 -0.1993 -0.2106  0.0529
19061SOL    HW158284   3.035   2.272   7.936  0.0331 -1.1030  0.2681
19061SOL    HW258285   3.022   2.373   8.048  0.0147 -0.0635 -0.6508
19062SOL     OW58286   6.667   4.973   2.103 -0.2689 -0.0669 -0.0374
19062SOL    HW158287   6.749   4.942   2.063  0.1309 -0.0013  0.7117
19062SOL    HW258288   6.669   4.936   2.192 -0.2839  1.2422  0.5242
19063SOL     OW58289   0.654   4.827   1.245 -0.0841  0.6092 -0.4115
19063SOL    HW158290   0.744   4.844   1.218  0.6341  1.7638  2.3589
19063SOL    HW258291   0.661   4.758   1.312 -1.2007  0.9766  0.1112
19064SOL     OW58292   5.102   4.995   3.158  0.0475 -0.8588 -0.1682
19064SOL    HW158293   5.040   4.951   3.217 -0.5112 -0.4325 -0.4247
19064SOL    HW258294   5.061   4.989   3.072 -0.6603  1.2448 -0.0220
19065SOL     OW58295   4.195   1.942   7.067  0.3396 -0.1166 -0.4573
19065SOL    HW158296   4.229   1.893   7.142 -0.3667  0.1176  0.0256
19065SOL    HW258297   4.248   2.022   7.065 -0.2214  0.2933  0.3515
19066SOL     OW58298   1.016   6.084   2.294  0.1643  0.2855 -0.0970
19066SOL    HW158299   0.924   6.066   2.311  0.7030 -0.3207  2.7437
19066SOL    HW258300   1.049   6.005   2.252 -0.6258  0.6023 -1.3541
19067SOL     OW58301   8.796   7.191   1.653  0.5903  0.1227  0.6534
19067SOL    HW158302   8.774   7.210   1.562 -1.2394 -1.7973  0.6088
19067SOL    HW258303   8.718   7.146   1.688  1.1200  1.0418  3.2610
19068SOL     OW58304   5.720   1.861   2.680 -0.0124 -0.4031 -0.6403
19068SOL    HW158305   5.755   1.934   2.628  0.0970 -0.2848 -0.4031
19068SOL    HW258306   5.795   1.829   2.730 -0.1531 -0.4097 -0.4327
19069SOL     OW58307   8.245   7.450   8.582 -0.1713  0.4257  0.0090
19069SOL    HW158308   8.332   7.451   8.541  0.6920 -0.1032  1.7405
19069SOL    HW258309   8.226   7.541   8.602  0.9928  0.3605  1.5825
19070SOL     OW58310   0.128   2.538   7.415 -0.2565  0.1852 -0.0157
19070SOL    HW158311   0.183   2.565   7.489  1.0684  0.0206 -0.8923
19070SOL    HW258312   0.062   2.481   7.454  1.0660 -0.7896  0.9292
19071SOL     OW58313   1.376   0.799   1.833 -0.9321  0.7303  0.4559
19071SOL    HW158314   1.290   0.766   1.860 -0.5402 -1.0033 -0.2649
19071SOL    HW258315   1.418   0.724   1.791  0.7786  1.6631  0.4104
19072SOL     OW58316   4.672   2.792   0.519  0.5713  0.2643 -0.3504
19072SOL    HW158317   4.679   2.765   0.427  2.2850 -0.5169 -0.0366
19072SOL    HW258318   4.631   2.879   0.515 -0.8268 -0.3956 -1.7150
19073SOL     OW58319   7.267   8.930   5.434 -0.3532 -0.4835 -0.8925
19073SOL    HW158320   7.235   8.994   5.497  0.4814  0.0960 -1.0276
19073SOL    HW258321   7.331   8.878   5.483  0.3090 -0.0206 -1.2404
19074SOL     OW58322   0.983   5.836   4.370  0.1625 -0.0236  0.4481
19074SOL    HW158323   0.920   5.764   4.379 -0.3300  0.2931 -0.3343
19074SOL    HW258324   1.003   5.838   4.276 -2.1653  2.7749 -0.1144
19075SOL     OW58325   8.141   6.992   3.045 -0.0113 -0.3732  0.2903
19075SOL    HW158326   8.086   7.020   2.972 -1.9334 -1.0910  1.3935
19075SOL    HW258327   8.141   7.067   3.105  1.5565  0.2116 -0.3880
19076SOL     OW58328   1.857   3.534   2.816 -0.0957  0.5674 -0.5509
19076SOL    HW158329   1.912   3.611   2.831 -2.1166  2.1343 -0.8106
19076SOL    HW258330   1.784   3.545   2.877 -0.0522 -1.6095 -0.0123
19077SOL     OW58331   8.081   6.089   5.382 -0.5918 -0.2066 -0.1427
19077SOL    HW158332   8.119   6.025   5.321 -0.9693 -1.1964  0.6286
19077SOL    HW258333   8.029   6.036   5.443 -2.3764  1.0026 -0.5350
19078SOL     OW58334   1.333   6.705   4.658 -0.3792 -0.5241 -0.3030
19078SOL    HW158335   1.357   6.735   4.570 -2.1424  2.6734  0.1571
19078SOL    HW258336   1.238   6.697   4.656 -0.3923 -1.0853  1.1298
19079SOL     OW58337   4.740   2.325   0.185  0.1238 -0.6621 -0.5661
19079SOL    HW158338   4.656   2.371   0.180  1.2820  1.4835 -2.0952
19079SOL    HW258339   4.789   2.371   0.252  0.4320 -1.2587 -0.3799
19080SOL     OW58340   1.234   6.495   8.689  0.1165 -0.3588  0.1380
19080SOL    HW158341   1.257   6.406   8.715 -0.3171 -0.8969 -1.3006
19080SOL    HW258342   1.155   6.487   8.637 -0.4408  0.9701  0.7212
19081SOL     OW58343   5.776   4.800   4.357  0.5516 -0.2731 -0.0793
19081SOL    HW158344   5.845   4.793   4.423 -0.9104 -0.3257  1.5423
19081SOL    HW258345   5.725   4.876   4.385 -0.0028 -0.1852 -1.2866
19082SOL     OW58346   6.768   6.817   8.970  0.2509 -0.4213  0.0734
19082SOL    HW158347   6.779   6.907   8.939 -0.8870  0.0184  0.8847
19082SOL    HW258348   6.714   6.775   8.902  0.7251 -0.4895 -0.2709
19083SOL     OW58349   2.913   2.671   3.651 -0.3639 -0.5678  0.0847
19083SOL    HW158350   2.852   2.616   3.601 -2.2140  0.7561  0.7525
19083SOL    HW258351   2.881   2.760   3.636  2.4787  0.3883 -0.9068
19084SOL     OW58352   1.339   6.590   0.655  0.0807  0.4664 -0.0014
19084SOL    HW158353   1.269   6.543   0.609 -0.7330  1.7537 -0.1417
19084SOL    HW258354   1.420   6.549   0.623 -0.5198  0.3921 -1.5341
19085SOL     OW58355   5.201   5.159   4.300 -0.7209  0.3833 -0.1807
19085SOL    HW158356   5.256   5.129   4.227  0.6164  2.0919  0.0515
19085SOL    HW258357   5.139   5.220   4.260 -1.8383 -0.7773 -0.2809
19086SOL     OW58358   1.777   1.826   0.324  0.1175 -0.0801 -0.0730
19086SOL    HW158359   1.804   1.914   0.298  1.3858  0.3085  2.2552
19086SOL    HW258360   1.688   1.837   0.357  0.0352  0.2073 -0.3844
19087SOL     OW58361   4.825   2.234   4.069 -0.4086 -0.0873  0.3195
19087SOL    HW158362   4.853   2.190   4.149 -0.7990 -0.3641  0.3020
19087SOL    HW258363   4.902   2.286   4.043 -0.2596 -0.0414  0.8346
19088SOL     OW58364   1.928   1.481   6.950 -0.2536  0.1199 -0.2654
19088SOL    HW158365   1.864   1.484   7.021 -0.7193  1.1094 -0.7176
19088SOL    HW258366   2.010   1.459   6.994 -0.4906  0.9049  0.6153
19089SOL     OW58367   8.569   2.063   0.754 -0.0864 -0.0119 -0.0302
19089SOL    HW158368   8.588   2.032   0.843 -1.4638 -1.1911 -0.1179
19089SOL    HW258369   8.618   2.005   0.697 -0.7137 -0.4860 -0.0984
19090SOL     OW58370   1.681   1.525   5.701  0.1156 -0.7535 -0.0567
19090SOL    HW158371   1.658   1.551   5.790 -1.9100  0.5416 -0.8863
19090SOL    HW258372   1.643   1.438   5.691 -0.3501 -0.5713  0.0971
19091SOL     OW58373   3.010   8.860   0.492 -0.1733  0.0644  0.1882
19091SOL    HW158374   3.090   8.901   0.524 -0.7528  0.8340  0.6742
19091SOL    HW258375   2.939   8.909   0.534 -0.9582  0.7812 -1.8664
19092SOL     OW58376   9.094   1.774   6.476  0.2007  0.2451  0.1588
19092SOL    HW158377   9.000   1.754   6.479  0.2890 -0.1731  0.2252
19092SOL    HW258378   9.127   1.723   6.403  0.2267  1.0740 -0.4206
19093SOL     OW58379   5.005   7.577   3.871 -0.2100 -0.3315 -0.1042
19093SOL    HW158380   4.951   7.656   3.878 -0.9551 -0.6991 -1.4071
19093SOL    HW258381   5.047   7.584   3.785  0.1037 -1.1206 -0.0248
19094SOL     OW58382   2.248   0.405   7.523  0.7411 -0.5885  0.2053
19094SOL    HW158383   2.285   0.330   7.476 -1.0232 -1.2973 -0.1553
19094SOL    HW258384   2.205   0.457   7.454  1.2842  0.3530  0.5593
19095SOL     OW58385   2.165   1.500   3.376 -0.7590  0.5375 -0.5089
19095SOL    HW158386   2.216   1.452   3.310  0.3091  1.2223 -0.2005
19095SOL    HW258387   2.076   1.463   3.369 -0.2312 -0.6801 -1.0506
19096SOL     OW58388   5.995   3.465   0.510 -0.6541  0.5468  0.5246
19096SOL    HW158389   5.947   3.399   0.559 -0.8843  0.4923  0.2257
19096SOL    HW258390   5.973   3.548   0.554 -1.2496  0.5570  0.2144
19097SOL     OW58391   4.630   4.532   6.932 -0.4048 -0.1144  0.6660
19097SOL    HW158392   4.694   4.465   6.955 -2.5948 -2.6309 -0.1338
19097SOL    HW258393   4.607   4.574   7.016  0.4231 -0.9107  1.3017
19098SOL     OW58394   2.229   8.245   0.670 -0.0838  0.3491  0.5955
19098SOL    HW158395   2.143   8.280   0.691  0.6135  2.8097 -0.2656
19098SOL    HW258396   2.286   8.322   0.666  1.6540 -0.9176 -1.1932
19099SOL     OW58397   0.604   3.423   6.100 -0.0716 -0.3408  0.1083
19099SOL    HW158398   0.626   3.333   6.125 -1.6700 -0.5427  0.9170
19099SOL    HW258399   0.542   3.413   6.028  0.7734  0.1633 -0.7041
19100SOL     OW58400   8.246   5.342   1.474 -0.0379  0.2958 -0.6769
19100SOL    HW158401   8.313   5.274   1.474 -0.6298 -0.4042 -3.0428
19100SOL    HW258402   8.176   5.307   1.530  0.3923 -0.2615 -0.4837
19101SOL     OW58403   8.879   4.698   0.038  0.5665 -0.3376 -0.0357
19101SOL    HW158404   8.945   4.722   0.103 -0.1508  0.1424  0.5280
19101SOL    HW258405   8.873   4.603   0.044  3.7341 -0.8828 -2.5867
19102SOL     OW58406   1.247   0.852   0.642 -0.6645  0.4972 -0.4808
19102SOL    HW158407   1.223   0.939   0.673  1.1171  1.3242 -1.2847
19102SOL    HW258408   1.326   0.866   0.590  0.0703 -1.6819 -0.0689
19103SOL     OW58409   8.369   2.903   0.523  0.5985 -0.2974  0.0341
19103SOL    HW158410   8.365   2.820   0.475  2.5854 -1.2675  1.3989
19103SOL    HW258411   8.416   2.881   0.604 -1.2588  1.5893  1.7438
19104SOL     OW58412   6.651   1.893   2.949 -0.4533 -0.5144 -0.0274
19104SOL    HW158413   6.561   1.862   2.963  0.3387 -2.4337  1.1406
19104SOL    HW258414   6.676   1.932   3.032 -0.2950  0.3352 -0.4639
19105SOL     OW58415   6.720   7.933   1.526 -0.0923 -0.6117 -0.3624
19105SOL    HW158416   6.628   7.909   1.517 -0.3245  0.7280 -2.1892
19105SOL    HW258417   6.767   7.867   1.475 -0.3700  0.4541 -2.0723
19106SOL     OW58418   2.087   0.591   4.652  0.2783  0.5769 -0.3724
19106SOL    HW158419   2.085   0.517   4.591  0.4207  1.4567 -1.4766
19106SOL    HW258420   2.114   0.553   4.735 -0.5625 -0.7751 -0.6846
19107SOL     OW58421   4.247   4.706   8.851 -0.2461 -0.2941  0.2015
19107SOL    HW158422   4.299   4.786   8.864 -0.7542  0.0840 -0.0681
19107SOL    HW258423   4.216   4.712   8.761 -0.5722 -0.6266  0.2902
19108SOL     OW58424   6.269   5.975   2.517  0.0196  0.1801 -0.0539
19108SOL    HW158425   6.279   5.881   2.500 -1.7365  0.0438 -0.4947
19108SOL    HW258426   6.292   5.985   2.610  0.1729 -0.6874  0.0075
19109SOL     OW58427   6.347   3.386   6.884 -0.0446 -0.3111 -0.7676
19109SOL    HW158428   6.398   3.312   6.918 -0.2249 -0.7028 -1.3365
19109SOL    HW258429   6.260   3.374   6.922  0.5727  1.0340  1.1856
19110SOL     OW58430   7.938   2.101   2.537  0.4384  0.6905 -0.0263
19110SOL    HW158431   8.002   2.148   2.483 -1.1214  2.0937 -0.7598
19110SOL    HW258432   7.909   2.165   2.602  0.3326 -0.1643  0.7884
19111SOL     OW58433   3.012   4.400   6.422 -0.4678  0.8913 -0.0585
19111SOL    HW158434   3.065   4.479   6.430 -0.0865  0.8102 -1.5056
19111SOL    HW258435   3.073   4.328   6.437 -0.6513  0.8428  0.4830
19112SOL     OW58436   4.343   8.735   0.492 -0.2032 -0.0839 -0.1496
19112SOL    HW158437   4.299   8.782   0.421  1.3014 -0.1779 -1.2111
19112SOL    HW258438   4.382   8.659   0.448  1.4085  0.2674  0.6227
19113SOL     OW58439   4.966   8.003   1.965 -0.0463  0.6266  0.4570
19113SOL    HW158440   5.028   7.945   1.920  2.0315  2.4250  0.8796
19113SOL    HW258441   4.885   7.994   1.914  0.6270 -1.4597 -0.3758
19114SOL     OW58442   6.118   1.977   8.504 -0.0200  0.2671  0.1729
19114SOL    HW158443   6.091   1.986   8.412 -0.2308  1.9005  0.3707
19114SOL    HW258444   6.199   2.028   8.510  0.2960 -0.2942  0.7789
19115SOL     OW58445   3.231   6.628   5.750  0.3185  0.5296  0.2282
19115SOL    HW158446   3.219   6.571   5.674  0.8758  1.7582 -0.8107
19115SOL    HW258447   3.322   6.657   5.744  0.7236 -0.2236  2.0075
19116SOL     OW58448   2.887   7.117   3.411  0.1999  0.0137 -0.1224
19116SOL    HW158449   2.944   7.110   3.487 -1.4842 -0.0406  1.1988
19116SOL    HW258450   2.896   7.208   3.382 -1.5051  1.0170  2.1763
19117SOL     OW58451   6.878   2.449   3.001  0.3187 -0.3209  0.2730
19117SOL    HW158452   6.870   2.544   3.008  2.8595 -0.0243  0.1794
19117SOL    HW258453   6.863   2.418   3.090  0.4839  0.2680  0.5145
19118SOL     OW58454   3.706   4.696   3.958  0.1183  0.1985 -0.1146
19118SOL    HW158455   3.711   4.627   3.893 -0.0020 -2.3591  2.3932
19118SOL    HW258456   3.758   4.664   4.031 -0.0459  2.7430  1.2285
19119SOL     OW58457   1.297   2.603   4.035 -0.3456 -0.2792 -0.2321
19119SOL    HW158458   1.214   2.628   4.076 -0.2526 -0.7481  0.2547
19119SOL    HW258459   1.290   2.634   3.945 -1.1406 -0.4995 -0.2530
19120SOL     OW58460   5.550   3.642   8.794  0.0116  0.4684  0.3373
19120SOL    HW158461   5.534   3.722   8.744 -1.7799  1.5893  2.5436
19120SOL    HW258462   5.645   3.628   8.789  0.0607  1.2651 -2.1647
19121SOL     OW58463   8.956   0.461   2.547 -0.1037  0.4394  0.2135
19121SOL    HW158464   9.008   0.512   2.485  0.2215  0.6356  0.6491
19121SOL    HW258465   8.876   0.513   2.560 -0.0731  0.5062  0.1324
19122SOL     OW58466   8.716   9.083   4.340 -0.5162  0.2350  0.1848
19122SOL    HW158467   8.646   9.018   4.328 -1.1247  0.7106  1.0902
19122SOL    HW258468   8.697   9.124   4.424  1.2080 -0.0526  0.7613
19123SOL     OW58469   0.403   3.400   0.256 -0.5627 -0.6794  0.2119
19123SOL    HW158470   0.418   3.339   0.184  0.0658 -1.1038  0.6881
19123SOL    HW258471   0.346   3.353   0.316 -1.1682 -0.2885 -0.0465
19124SOL     OW58472   8.533   7.099   1.747  0.6568  0.3232 -0.3731
19124SOL    HW158473   8.514   7.057   1.663  0.7768 -0.0486 -0.2149
19124SOL    HW258474   8.517   7.192   1.731 -1.6932  0.0227 -0.1266
19125SOL     OW58475   5.490   0.397   5.714 -0.1454 -0.2630 -0.2393
19125SOL    HW158476   5.411   0.441   5.744 -0.8511 -2.5632  1.5935
19125SOL    HW258477   5.542   0.466   5.672 -1.0307  2.3867  2.6116
19126SOL     OW58478   5.540   8.335   3.613 -0.5091 -0.1879 -0.3794
19126SOL    HW158479   5.622   8.376   3.583  0.4504 -1.0189  0.9895
19126SOL    HW258480   5.475   8.405   3.605  0.9026  1.4098  1.0735
19127SOL     OW58481   2.858   0.888   6.528  0.2343 -0.0982 -0.1840
19127SOL    HW158482   2.816   0.866   6.445 -1.1937 -2.3970  1.0500
19127SOL    HW258483   2.799   0.951   6.570  0.0684 -0.2573 -0.1776
19128SOL     OW58484   2.828   5.369   3.737 -0.8366  0.0654 -0.5463
19128SOL    HW158485   2.860   5.283   3.767 -0.7879  0.9344  2.2208
19128SOL    HW258486   2.740   5.375   3.773 -0.4469  1.5717  0.2314
19129SOL     OW58487   1.951   7.918   0.499  0.7041  0.8059  0.2445
19129SOL    HW158488   2.026   7.940   0.555 -0.7716  0.4095  2.5095
19129SOL    HW258489   1.945   7.823   0.502  0.4632  0.7979 -0.3957
19130SOL     OW58490   6.240   8.475   7.182  0.3494  0.1248 -0.1413
19130SOL    HW158491   6.316   8.435   7.140  0.1134 -1.1541  0.5890
19130SOL    HW258492   6.238   8.437   7.270 -0.1713  1.4127  0.4314
19131SOL     OW58493   7.250   5.592   4.343 -0.5427  0.2324 -0.7704
19131SOL    HW158494   7.268   5.684   4.360  0.6698  0.0550 -0.9925
19131SOL    HW258495   7.175   5.571   4.398  1.3158  0.4710  2.0155
19132SOL     OW58496   3.949   7.845   1.754 -0.2004  0.2905  0.5197
19132SOL    HW158497   4.031   7.809   1.790  0.2731 -0.3239 -1.0510
19132SOL    HW258498   3.880   7.803   1.805  0.4054 -1.4248  0.0052
19133SOL     OW58499   3.991   7.084   0.046  0.8237  0.1599 -0.3246
19133SOL    HW158500   4.054   7.102   0.116  1.8286 -1.9412 -0.6041
19133SOL    HW258501   4.045   7.071  -0.032  0.1162 -1.9159 -0.5221
19134SOL     OW58502   6.969   8.678   7.310 -0.2242  0.4590 -0.2134
19134SOL    HW158503   6.926   8.762   7.293 -1.5528 -0.2892 -0.7889
19134SOL    HW258504   7.028   8.695   7.383 -2.3620  1.3197  1.4260
19135SOL     OW58505   7.530   7.103   4.389  0.3126  0.0339  0.1149
19135SOL    HW158506   7.574   7.177   4.348  1.6766 -1.2960 -0.9458
19135SOL    HW258507   7.589   7.075   4.459 -0.2747  0.0377  0.6241
19136SOL     OW58508   5.582   5.755   5.619  0.1138  0.0237 -0.5147
19136SOL    HW158509   5.650   5.711   5.568 -0.0130 -0.9665  0.1438
19136SOL    HW258510   5.503   5.703   5.604 -0.1909  0.3830 -0.2020
19137SOL     OW58511   2.208   4.854   5.663 -0.0220  0.5649  0.1705
19137SOL    HW158512   2.155   4.845   5.743  0.2923  1.6571  0.5136
19137SOL    HW258513   2.146   4.840   5.592 -0.3429 -0.2592  0.5949
19138SOL     OW58514   1.132   1.467   6.639 -0.0558  0.0449  0.2167
19138SOL    HW158515   1.082   1.402   6.689  0.7483 -0.7483  0.0242
19138SOL    HW258516   1.076   1.486   6.563  0.6350 -2.1900 -0.9525
19139SOL     OW58517   5.344   3.642   7.209  0.1897  0.4630 -0.1937
19139SOL    HW158518   5.427   3.691   7.212 -0.4445  1.6348 -1.0379
19139SOL    HW258519   5.277   3.709   7.219 -0.6638 -0.5605  1.2501
19140SOL     OW58520   7.214   8.403   4.036 -0.0974 -0.0443 -0.1964
19140SOL    HW158521   7.300   8.363   4.028  0.0494  0.2605 -0.1432
19140SOL    HW258522   7.208   8.431   4.127 -0.4501 -0.5034 -0.0707
19141SOL     OW58523   4.805   0.171   7.026  0.0319 -0.3063 -0.4968
19141SOL    HW158524   4.758   0.193   7.107 -0.5778  0.9527 -1.1715
19141SOL    HW258525   4.854   0.250   7.004 -0.0738 -0.5209 -1.5405
19142SOL     OW58526   7.638   1.386   7.360  0.2557 -0.0787  0.1986
19142SOL    HW158527   7.700   1.314   7.346 -1.7562 -1.6243 -1.4507
19142SOL    HW258528   7.680   1.462   7.321  2.8023 -0.0641  2.7076
19143SOL     OW58529   2.059   7.699   8.235  0.1369  0.0640  0.1321
19143SOL    HW158530   2.076   7.770   8.173 -1.0422 -0.5398 -0.9177
19143SOL    HW258531   2.135   7.700   8.293  0.8732  1.1886 -0.7956
19144SOL     OW58532   2.038   2.802   3.134  0.2674  0.1249 -0.2076
19144SOL    HW158533   2.089   2.871   3.091 -1.4563  1.0513 -0.8542
19144SOL    HW258534   2.093   2.774   3.207  2.6943 -0.5130 -2.1208
19145SOL     OW58535   4.987   5.422   5.572 -0.4233  0.2229  0.4561
19145SOL    HW158536   5.078   5.451   5.577 -0.2154 -0.3501  0.1601
19145SOL    HW258537   4.976   5.396   5.480 -0.2906 -1.5467  0.9070
19146SOL     OW58538   6.895   3.005   2.197  0.5176  0.3284  0.1636
19146SOL    HW158539   6.804   2.998   2.223  0.6233  0.6686  0.6365
19146SOL    HW258540   6.936   3.060   2.264  1.0139  0.3875 -0.1740
19147SOL     OW58541   6.974   7.873   6.325  0.3712  0.0160 -0.0233
19147SOL    HW158542   7.051   7.874   6.268  1.2870  1.9086  1.1229
19147SOL    HW258543   7.004   7.826   6.403 -0.2400 -0.8127 -0.2721
19148SOL     OW58544   4.807   8.911   0.451 -0.1423 -0.5681 -0.4285
19148SOL    HW158545   4.873   8.848   0.479 -0.0320 -0.6224 -0.7995
19148SOL    HW258546   4.829   8.992   0.497 -0.0740 -0.7039 -0.2216
19149SOL     OW58547   5.873   3.641   9.129  0.4013  0.3580 -0.0310
19149SOL    HW158548   5.780   3.636   9.152 -0.0680  2.6270 -1.2179
19149SOL    HW258549   5.918   3.612   9.208 -1.2825 -0.8595  0.5597
19150SOL     OW58550   9.031   3.348   7.352 -0.2542 -1.0685 -0.1138
19150SOL    HW158551   8.992   3.434   7.333  0.2630 -0.9239 -0.5347
19150SOL    HW258552   9.022   3.299   7.271 -0.6481 -1.4577  0.1599
19151SOL     OW58553   7.777   1.864   8.274 -0.3191  0.1586 -0.3894
19151SOL    HW158554   7.708   1.800   8.261  0.9396 -1.2561 -0.4005
19151SOL    HW258555   7.732   1.941   8.310 -2.0750 -0.1767 -1.7431
19152SOL     OW58556   6.875   7.695   8.259 -0.1717 -0.1439  0.0945
19152SOL    HW158557   6.806   7.692   8.193  0.0498 -0.3581 -0.1261
19152SOL    HW258558   6.841   7.753   8.327 -0.5106 -0.1395 -0.0812
19153SOL     OW58559   4.403   5.131   5.016 -0.1906  0.1722 -0.1471
19153SOL    HW158560   4.469   5.129   5.085  1.3860 -1.0405 -1.5920
19153SOL    HW258561   4.426   5.206   4.962 -0.6120  0.3322 -0.1099
19154SOL     OW58562   0.639   2.003   3.270 -0.6117 -0.3972  0.2593
19154SOL    HW158563   0.586   2.004   3.190 -2.0434  1.6317  1.1330
19154SOL    HW258564   0.654   2.096   3.289 -0.3914 -0.8277  2.3792
19155SOL     OW58565   7.789   1.022   0.755 -0.5475 -0.3792  0.0626
19155SOL    HW158566   7.812   1.080   0.682  0.8740 -1.4790 -0.4176
19155SOL    HW258567   7.845   1.051   0.827 -1.3508  0.1693  0.4778
19156SOL     OW58568   3.460   4.842   8.928 -0.1313  0.6811  0.6093
19156SOL    HW158569   3.463   4.925   8.880  2.2910  0.3642  0.1090
19156SOL    HW258570   3.371   4.810   8.915  0.3767  0.5379 -3.8589
19157SOL     OW58571   6.523   8.929   3.149  0.1882 -0.3017  0.9193
19157SOL    HW158572   6.528   8.995   3.218 -1.3057 -0.9818  1.7272
19157SOL    HW258573   6.511   8.846   3.196 -3.9616 -0.4968 -0.0668
19158SOL     OW58574   6.821   5.090   5.081  0.7855  0.3637 -0.3137
19158SOL    HW158575   6.823   5.134   5.166  0.6900 -1.5963  0.7742
19158SOL    HW258576   6.908   5.051   5.072  0.5665 -0.0328 -0.7807
19159SOL     OW58577   9.031   7.383   3.166 -0.5966 -0.4684 -0.5723
19159SOL    HW158578   9.010   7.328   3.091 -2.2480  0.1080 -0.5828
19159SOL    HW258579   8.945   7.412   3.199 -0.0366 -1.8829  2.4327
19160SOL     OW58580   6.594   5.509   1.807  0.1413 -0.3123 -0.3158
19160SOL    HW158581   6.674   5.526   1.756 -0.5838  1.4777 -0.9208
19160SOL    HW258582   6.615   5.538   1.895 -0.2469  1.4918 -0.7783
19161SOL     OW58583   3.853   8.350   6.521 -0.0901 -0.4241 -0.4864
19161SOL    HW158584   3.831   8.370   6.611  0.8104  0.5048 -0.4524
19161SOL    HW258585   3.904   8.269   6.526 -0.2301 -0.4933 -0.1893
19162SOL     OW58586   6.245   4.185   1.749 -0.0104 -0.3061  0.0454
19162SOL    HW158587   6.184   4.217   1.683 -0.0541 -0.6771 -0.0962
19162SOL    HW258588   6.232   4.243   1.824  0.1212  0.1895 -0.3085
19163SOL     OW58589   5.511   0.891   6.503 -0.3944  0.0698 -0.0087
19163SOL    HW158590   5.543   0.924   6.587 -2.0007 -0.5868  0.9010
19163SOL    HW258591   5.416   0.900   6.508 -0.5270  0.1855 -1.8478
19164SOL     OW58592   3.148   4.365   4.486  0.0244 -0.0302 -0.6787
19164SOL    HW158593   3.084   4.301   4.518  0.7197 -0.9727 -1.1387
19164SOL    HW258594   3.184   4.325   4.407 -0.8362  1.7311 -2.0422
19165SOL     OW58595   4.367   3.844   2.654  0.0391  0.7588 -0.0918
19165SOL    HW158596   4.285   3.826   2.699  0.4788 -0.7600  0.1438
19165SOL    HW258597   4.396   3.759   2.621  1.0983  1.4035 -0.9077
19166SOL     OW58598   3.368   6.387   3.846 -0.1367  0.2037  0.2604
19166SOL    HW158599   3.389   6.449   3.777 -0.6072  0.1259  0.0432
19166SOL    HW258600   3.275   6.368   3.834  0.2768 -1.5178 -0.4519
19167SOL     OW58601   0.428   6.221   8.687 -0.0255 -0.0564 -0.4162
19167SOL    HW158602   0.411   6.280   8.760  1.0147  1.0761 -1.0574
19167SOL    HW258603   0.353   6.234   8.628  1.0318  2.0857 -1.4300
19168SOL     OW58604   4.296   5.590   4.380 -0.5840 -0.3015 -0.2093
19168SOL    HW158605   4.345   5.577   4.299  0.0940 -2.9075  0.5149
19168SOL    HW258606   4.363   5.592   4.448 -1.2297  0.5869  0.4262
19169SOL     OW58607   3.588   7.312   4.374  0.3291 -0.0196  0.3761
19169SOL    HW158608   3.666   7.297   4.427 -0.4449  2.3989  2.4077
19169SOL    HW258609   3.515   7.291   4.432 -0.5596  0.7833 -0.4050
19170SOL     OW58610   4.727   2.721   1.779  0.3508 -0.5598  0.2553
19170SOL    HW158611   4.706   2.810   1.751 -1.4704 -1.1180 -0.3337
19170SOL    HW258612   4.678   2.665   1.718  0.9488 -1.9421  1.0058
19171SOL     OW58613   1.788   1.241   3.750 -0.5090  0.1629  0.3426
19171SOL    HW158614   1.776   1.320   3.696 -0.7837  0.3760  0.7143
19171SOL    HW258615   1.700   1.215   3.774 -0.7037 -1.9883 -2.2001
19172SOL     OW58616   6.942   0.279   8.386  0.1585  0.2954  0.3422
19172SOL    HW158617   6.850   0.292   8.409 -0.4008  1.4016 -2.1503
19172SOL    HW258618   6.988   0.278   8.470 -1.9859  0.8583  1.5980
19173SOL     OW58619   8.459   7.674   2.731  0.1898 -0.4432  0.1670
19173SOL    HW158620   8.405   7.603   2.696  0.4638 -0.0421 -1.1495
19173SOL    HW258621   8.401   7.721   2.790 -1.0565  0.1973 -1.4918
19174SOL     OW58622   7.198   6.759   2.197  0.1123 -0.1914 -0.4528
19174SOL    HW158623   7.218   6.812   2.274  2.0210 -1.1512 -0.2325
19174SOL    HW258624   7.239   6.807   2.125  0.8246 -0.7452 -0.4251
19175SOL     OW58625   6.528   3.897   3.310 -0.4176  0.0524 -0.5408
19175SOL    HW158626   6.603   3.956   3.319 -1.1847  0.8923  0.7297
19175SOL    HW258627   6.486   3.924   3.228 -0.2655  0.6953 -0.4136
19176SOL     OW58628   2.739   7.838   1.719 -0.1221  0.4266  0.1334
19176SOL    HW158629   2.660   7.862   1.768 -0.3472 -2.0657  1.0928
19176SOL    HW258630   2.793   7.791   1.781  1.1823  0.2187 -1.1072
19177SOL     OW58631   8.641   3.792   6.108  0.1782 -0.3973  0.3689
19177SOL    HW158632   8.693   3.841   6.045 -0.4944 -0.0267  0.0945
19177SOL    HW258633   8.702   3.772   6.180  0.4253  0.9473  0.5475
19178SOL     OW58634   7.802   7.624   0.149 -0.2762 -0.7182 -0.2864
19178SOL    HW158635   7.734   7.620   0.216 -1.2348  2.2253 -0.9559
19178SOL    HW258636   7.870   7.680   0.188  1.2800 -2.6062 -0.1174
19179SOL     OW58637   3.528   5.177   2.368  0.2053  0.0293 -0.1857
19179SOL    HW158638   3.546   5.090   2.404 -0.5534  0.0481  0.2576
19179SOL    HW258639   3.557   5.238   2.437  1.6466  0.1811 -0.8829
19180SOL     OW58640   0.081   0.760   5.677 -0.6116 -0.2012  0.5064
19180SOL    HW158641   0.094   0.741   5.770  1.5770  0.3201  0.3470
19180SOL    HW258642  -0.011   0.786   5.671 -0.3218  1.7644  2.8966
19181SOL     OW58643   7.685   3.692   1.300 -0.0677 -0.6409 -0.5486
19181SOL    HW158644   7.701   3.604   1.267 -0.6900 -0.2033 -2.1083
19181SOL    HW258645   7.670   3.680   1.393 -1.1155 -2.3189 -0.8843
19182SOL     OW58646   5.172   6.205   0.390 -0.8909  0.5253  0.0931
19182SOL    HW158647   5.174   6.295   0.357  0.8682  0.5074  0.0867
19182SOL    HW258648   5.170   6.151   0.311 -0.4991  0.5430  0.0688
19183SOL     OW58649   6.620   6.550   8.584 -0.8261  0.1056 -0.3641
19183SOL    HW158650   6.687   6.608   8.549 -0.6100  0.6809  0.9710
19183SOL    HW258651   6.578   6.513   8.506 -0.9249  1.9801 -1.2425
19184SOL     OW58652   5.692   1.931   5.905 -0.3636  0.3631  0.3957
19184SOL    HW158653   5.657   1.857   5.956 -1.4819  0.0680 -0.7434
19184SOL    HW258654   5.632   1.938   5.830 -0.2686  2.4344  0.4797
19185SOL     OW58655   3.602   3.246   0.937  0.0003  0.5449  0.1877
19185SOL    HW158656   3.608   3.179   1.005 -0.4861  1.3747  1.0840
19185SOL    HW258657   3.622   3.328   0.982 -0.3117  1.1128 -0.6779
19186SOL     OW58658   5.490   1.043   0.264  0.5955 -0.1576  0.0149
19186SOL    HW158659   5.453   0.965   0.306  0.5298  0.0919  0.4242
19186SOL    HW258660   5.561   1.070   0.323  1.1519 -0.3801 -0.5437
19187SOL     OW58661   6.020   0.130   7.794  0.4839  0.4493 -0.1713
19187SOL    HW158662   6.011   0.224   7.810 -2.1134  0.4068 -1.0001
19187SOL    HW258663   6.064   0.097   7.873  3.1956  2.5278 -0.6472
19188SOL     OW58664   2.154   9.096   5.267 -0.0914 -0.4044 -0.5221
19188SOL    HW158665   2.226   9.037   5.244  0.3342  0.5592 -1.7683
19188SOL    HW258666   2.092   9.088   5.195 -0.3476  0.1381 -0.3695
19189SOL     OW58667   0.187   4.444   6.133  0.1782 -0.1395  0.4438
19189SOL    HW158668   0.227   4.390   6.065  2.1267  0.6973  0.8416
19189SOL    HW258669   0.105   4.400   6.155  0.6048 -1.6434 -0.8375
19190SOL     OW58670   0.627   6.226   6.454  0.0542 -0.3042  0.5836
19190SOL    HW158671   0.669   6.155   6.502  0.8084 -0.6779 -0.5713
19190SOL    HW258672   0.645   6.206   6.362 -2.8380 -0.5900 -0.0160
19191SOL     OW58673   2.583   7.773   6.681  0.0306 -0.1885 -0.3684
19191SOL    HW158674   2.549   7.849   6.633  1.3921  0.8123  0.1947
19191SOL    HW258675   2.631   7.811   6.755  0.2513 -1.6234  0.2533
19192SOL     OW58676   1.833   1.563   1.752 -0.6431 -0.3622 -0.3512
19192SOL    HW158677   1.852   1.528   1.838  1.7278  1.0387 -0.2308
19192SOL    HW258678   1.876   1.503   1.691  1.1353  0.7789 -0.2849
19193SOL     OW58679   0.827   3.361   0.432  0.0304 -0.1410  0.2848
19193SOL    HW158680   0.734   3.354   0.455  0.0206 -0.4382  0.1603
19193SOL    HW258681   0.851   3.274   0.401  0.1744  0.1087 -0.3291
19194SOL     OW58682   7.277   5.478   2.799 -0.0673  0.1364 -0.1619
19194SOL    HW158683   7.318   5.495   2.714 -1.6946  0.3186 -0.9329
19194SOL    HW258684   7.211   5.547   2.809 -1.2672 -1.0371  0.3133
19195SOL     OW58685   1.132   1.471   6.049  0.4908  0.5331 -0.2611
19195SOL    HW158686   1.121   1.503   5.960 -2.5690 -2.7693 -1.3415
19195SOL    HW258687   1.047   1.486   6.091  1.3927  0.6521  1.6446
19196SOL     OW58688   3.537   1.522   7.167  0.1940  0.4938  0.4533
19196SOL    HW158689   3.460   1.547   7.218 -0.3670 -1.2168  0.4987
19196SOL    HW258690   3.536   1.581   7.092 -1.5323  0.1002  0.1212
19197SOL     OW58691   0.033   3.333   3.676 -0.0749 -0.2528  0.6630
19197SOL    HW158692  -0.021   3.255   3.685  0.3512 -0.5727  0.4991
19197SOL    HW258693   0.109   3.316   3.732 -0.4809  0.5061  1.4747
19198SOL     OW58694   1.005   5.226   7.189 -0.4965 -0.4540 -0.1496
19198SOL    HW158695   0.940   5.194   7.127 -0.9111  1.8495 -1.0324
19198SOL    HW258696   1.082   5.170   7.175  0.0181  0.8705 -3.9953
19199SOL     OW58697   7.568   3.892   6.817 -0.1226 -0.3738  0.5316
19199SOL    HW158698   7.533   3.980   6.830  1.3454  0.0490  1.9864
19199SOL    HW258699   7.660   3.905   6.796  0.4401 -1.5406  2.0410
19200SOL     OW58700   2.042   7.091   6.587  0.6097  0.0754  0.2486
19200SOL    HW158701   2.059   7.185   6.587  0.6715  0.1192  2.6661
19200SOL    HW258702   1.951   7.082   6.558  0.0867  1.0267  1.5264
19201SOL     OW58703   1.892   4.515   1.163 -0.3164 -0.1713  0.0207
19201SOL    HW158704   1.818   4.540   1.218  0.4093  0.0710  0.9161
19201SOL    HW258705   1.855   4.506   1.076 -1.4465 -0.2946  0.4938
19202SOL     OW58706   6.110   6.819   1.327 -0.0107  0.0836 -0.5142
19202SOL    HW158707   6.123   6.824   1.422 -0.4419  1.0998 -0.4958
19202SOL    HW258708   6.126   6.908   1.296 -1.4713  0.1328 -1.1892
19203SOL     OW58709   0.689   7.474   7.202 -0.2739  0.1554 -0.6087
19203SOL    HW158710   0.688   7.525   7.121 -2.0468  0.6644 -0.3048
19203SOL    HW258711   0.664   7.536   7.271  2.2005 -0.0127  0.5533
19204SOL     OW58712   2.637   4.819   7.583  0.2751 -0.1111 -0.3877
19204SOL    HW158713   2.619   4.828   7.677 -1.9880  1.0875 -0.8718
19204SOL    HW258714   2.698   4.890   7.564  0.1137  0.1476  0.0308
19205SOL     OW58715   0.897   0.034   6.716  0.4329 -0.5140 -0.1042
19205SOL    HW158716   0.982  -0.010   6.711 -0.2822 -1.8012 -1.4014
19205SOL    HW258717   0.858   0.021   6.630 -1.3820 -0.5672  0.6859
19206SOL     OW58718   3.508   8.419   0.940  0.4086  0.1694 -0.5736
19206SOL    HW158719   3.448   8.364   0.889  1.1243  0.6556 -1.9721
19206SOL    HW258720   3.485   8.399   1.031 -0.3226 -1.3593 -1.0429
19207SOL     OW58721   6.719   3.624   1.827  0.2511  0.3137  0.0881
19207SOL    HW158722   6.719   3.719   1.832  1.4514  0.2835  1.2196
19207SOL    HW258723   6.627   3.600   1.818 -0.0360  1.5860 -0.4859
19208SOL     OW58724   6.018   0.906   2.117 -0.3125  0.1055  0.2021
19208SOL    HW158725   6.067   0.824   2.108  1.8452  1.1551  1.5001
19208SOL    HW258726   6.034   0.953   2.035  0.8946  0.4182  0.5960
19209SOL     OW58727   2.724   5.904   2.628  0.2359 -0.2077  0.2046
19209SOL    HW158728   2.784   5.977   2.639  0.5120 -0.4684  0.4228
19209SOL    HW258729   2.766   5.831   2.672 -1.8356  0.4064  3.5615
19210SOL     OW58730   3.328   7.627   3.830 -0.2513 -0.4498  0.8370
19210SOL    HW158731   3.250   7.573   3.827 -0.4844 -0.0952  0.4625
19210SOL    HW258732   3.358   7.633   3.739 -0.6193  0.6054  0.7732
19211SOL     OW58733   3.128   6.715   3.270  0.0030  0.0530 -0.4591
19211SOL    HW158734   3.162   6.762   3.195  0.8633  0.2956  0.0764
19211SOL    HW258735   3.125   6.623   3.241  0.5578  0.1097 -0.7121
19212SOL     OW58736   4.990   0.884   0.531  0.3700  0.0141 -0.0819
19212SOL    HW158737   5.017   0.965   0.488 -0.3739  0.5544  0.4453
19212SOL    HW258738   5.017   0.896   0.622 -3.3674  1.4937  1.0050
19213SOL     OW58739   8.078   7.321   1.485 -0.3088 -0.3303  0.0535
19213SOL    HW158740   8.088   7.286   1.396  0.7425  1.4636 -0.5806
19213SOL    HW258741   8.068   7.415   1.473  1.0230  0.1092  1.8862
19214SOL     OW58742   5.499   8.343   0.339 -0.2304 -0.5584 -0.3400
19214SOL    HW158743   5.537   8.292   0.267 -0.1433  0.7133 -1.2135
19214SOL    HW258744   5.433   8.399   0.297  0.1094  0.4944  0.5032
19215SOL     OW58745   8.344   8.574   7.353 -0.2275 -0.1707 -0.3998
19215SOL    HW158746   8.345   8.554   7.259 -2.1271 -2.4122 -0.0482
19215SOL    HW258747   8.360   8.489   7.395 -2.3769  0.1565  1.2790
19216SOL     OW58748   0.926   4.206   4.463  0.1779 -0.1686  0.2033
19216SOL    HW158749   0.976   4.169   4.536  0.5334 -0.4801 -0.1916
19216SOL    HW258750   0.894   4.130   4.414  0.0007  0.0387 -0.0059
19217SOL     OW58751   0.158   2.429   5.123 -0.1560  0.0045 -0.5018
19217SOL    HW158752   0.131   2.444   5.032  0.3334  1.7446 -0.3874
19217SOL    HW258753   0.245   2.469   5.130  0.5819 -1.6238  0.3031
19218SOL     OW58754   7.258   4.848   1.793 -0.1007  0.4215  0.3809
19218SOL    HW158755   7.332   4.853   1.733 -1.1709  1.5607 -0.9068
19218SOL    HW258756   7.197   4.788   1.750  0.1525 -0.7385  1.5687
19219SOL     OW58757   2.848   5.856   0.879  0.0642  0.0217 -0.6141
19219SOL    HW158758   2.875   5.898   0.797 -0.1043  3.7327  1.0752
19219SOL    HW258759   2.752   5.860   0.877 -0.0064 -1.2845 -0.8466
19220SOL     OW58760   1.040   7.715   3.756 -0.0677 -0.0102  0.1269
19220SOL    HW158761   1.075   7.804   3.766  1.3342 -0.3196 -1.5815
19220SOL    HW258762   1.112   7.665   3.718 -0.7640 -1.9639  1.2488
19221SOL     OW58763   0.164   6.881   7.326  0.1222 -0.1349  0.2674
19221SOL    HW158764   0.216   6.946   7.373 -2.4402  0.4320  2.6122
19221SOL    HW258765   0.134   6.926   7.247 -0.0026  0.9038  0.8878
19222SOL     OW58766   3.089   8.899   1.794  0.0641 -0.0272  0.3679
19222SOL    HW158767   3.011   8.947   1.820  0.5167  0.1823  1.3777
19222SOL    HW258768   3.121   8.945   1.716  0.1040  0.8852  0.9152
19223SOL     OW58769   4.903   5.116   2.761  0.3973  0.1632 -0.0850
19223SOL    HW158770   4.948   5.039   2.794  0.2324 -1.2980 -2.9587
19223SOL    HW258771   4.895   5.174   2.837 -0.6395 -3.1284  2.5636
19224SOL     OW58772   6.475   8.649   1.749  0.0887 -0.3490  0.0462
19224SOL    HW158773   6.477   8.743   1.731  3.2961 -0.2328  0.4394
19224SOL    HW258774   6.464   8.642   1.844  1.1831 -0.2613  0.1988
19225SOL     OW58775   1.297   8.861   3.187 -0.2771  0.3926  0.2218
19225SOL    HW158776   1.321   8.815   3.106 -1.1932 -0.7409  0.5714
19225SOL    HW258777   1.326   8.951   3.172 -0.8098  0.3095 -1.5456
19226SOL     OW58778   6.642   0.102   8.150  0.3466  0.1789  0.3244
19226SOL    HW158779   6.584   0.149   8.090  1.1538 -1.6941 -2.0622
19226SOL    HW258780   6.583   0.063   8.214 -1.1029 -1.3250 -1.7940
19227SOL     OW58781   3.586   5.272   7.742 -0.8062  0.1100 -0.3755
19227SOL    HW158782   3.625   5.328   7.675 -1.3112  0.5533 -0.3009
19227SOL    HW258783   3.532   5.331   7.795 -0.4549 -0.2415  0.3972
19228SOL     OW58784   0.440   5.165   5.250 -0.4487 -0.7143  0.3447
19228SOL    HW158785   0.384   5.168   5.172 -0.0808  3.2004  0.0595
19228SOL    HW258786   0.525   5.196   5.220  0.4703 -1.6904  1.8227
19229SOL     OW58787   6.342   2.163   8.458  0.1051 -0.3466 -0.1536
19229SOL    HW158788   6.417   2.120   8.416  0.1859 -0.6319  0.2680
19229SOL    HW258789   6.321   2.236   8.401  0.5446 -0.4154 -0.4118
19230SOL     OW58790   3.238   1.729   0.457  0.1072  0.3839  0.3719
19230SOL    HW158791   3.166   1.687   0.410  1.0293 -1.7771  0.7692
19230SOL    HW258792   3.197   1.768   0.534 -0.9940  1.5559 -0.7477
19231SOL     OW58793   3.656   5.425   3.280 -0.0829  0.1682  0.1726
19231SOL    HW158794   3.704   5.421   3.198 -2.1777  1.4008 -1.2108
19231SOL    HW258795   3.568   5.394   3.258 -0.6484  0.3442  2.0021
19232SOL     OW58796   1.639   3.862   3.563  0.0629 -0.4589  0.1156
19232SOL    HW158797   1.601   3.930   3.617 -0.8800  0.7996 -2.0099
19232SOL    HW258798   1.732   3.861   3.588 -0.4112 -0.2766  2.0291
19233SOL     OW58799   7.700   7.677   2.457 -0.0733  0.7416 -0.3851
19233SOL    HW158800   7.718   7.647   2.368 -1.4350  2.4555 -1.3061
19233SOL    HW258801   7.716   7.772   2.454 -0.1827  0.8332  1.1810
19234SOL     OW58802   5.954   8.689   0.306  0.2316  0.3505  0.0541
19234SOL    HW158803   6.030   8.724   0.352 -0.2636  1.5301  0.0145
19234SOL    HW258804   5.929   8.611   0.356  0.9048  0.4730  0.5976
19235SOL     OW58805   3.907   7.285   3.883  0.0103 -0.1043 -0.2753
19235SOL    HW158806   3.847   7.273   3.956 -0.3245 -0.2220 -0.5690
19235SOL    HW258807   3.870   7.232   3.812 -0.0678  0.5889 -0.7587
19236SOL     OW58808   1.172   7.822   3.460 -0.1390 -0.5856  0.7373
19236SOL    HW158809   1.090   7.864   3.433  0.5835 -0.3952 -1.3173
19236SOL    HW258810   1.234   7.893   3.470  0.5138 -0.9333 -0.5960
19237SOL     OW58811   2.482   7.020   3.234 -0.4499  0.5369 -0.5931
19237SOL    HW158812   2.503   7.069   3.155 -1.5352  0.0116 -1.2269
19237SOL    HW258813   2.517   7.073   3.306 -0.0419  1.3424 -1.3766
19238SOL     OW58814   0.975   8.961   3.003 -0.3740  0.2927  0.3947
19238SOL    HW158815   1.017   8.987   2.921 -2.1938 -0.4805 -0.8379
19238SOL    HW258816   0.971   9.042   3.055 -2.4617  1.7352 -1.7938
19239SOL     OW58817   4.364   2.410   3.530  0.2654 -0.2516  0.0909
19239SOL    HW158818   4.293   2.353   3.501 -0.8468  1.0207  0.2292
19239SOL    HW258819   4.352   2.416   3.625  0.4695  0.0990  0.0947
19240SOL     OW58820   8.680   1.042   3.787 -0.2208 -0.9466  0.2966
19240SOL    HW158821   8.664   0.952   3.758 -2.2936 -0.7679  0.7045
19240SOL    HW258822   8.703   1.090   3.708  0.7770 -1.7916  0.0558
19241SOL     OW58823   8.943   1.647   7.163 -0.3093 -0.1251  0.2342
19241SOL    HW158824   8.873   1.596   7.122 -0.2125  0.1370 -0.2631
19241SOL    HW258825   8.953   1.608   7.250 -0.1784 -1.0042 -0.1671
19242SOL     OW58826   7.257   7.851   4.519 -0.3918 -0.3282 -0.2926
19242SOL    HW158827   7.195   7.779   4.526  0.0744 -0.9651 -2.2271
19242SOL    HW258828   7.268   7.882   4.609 -4.1106  0.3524  0.0966
19243SOL     OW58829   0.438   8.240   6.611  0.4402 -0.3355  0.0407
19243SOL    HW158830   0.495   8.316   6.601  0.6868 -0.5796 -0.4536
19243SOL    HW258831   0.484   8.170   6.566  0.6663 -1.0138  1.2592
19244SOL     OW58832   9.079   0.275   7.319  0.0989  0.2564 -0.1548
19244SOL    HW158833   9.057   0.324   7.399  1.0530  0.7949 -0.2046
19244SOL    HW258834   9.159   0.317   7.287  0.0659 -0.3551 -1.0599
19245SOL     OW58835   0.262   2.932   6.690 -0.0538  0.0559 -0.3666
19245SOL    HW158836   0.276   2.955   6.782  1.2265  0.0146 -0.5381
19245SOL    HW258837   0.263   2.837   6.689  2.4494  0.0200 -0.7362
19246SOL     OW58838   4.518   4.147   4.275  0.3036  0.0782  0.6722
19246SOL    HW158839   4.480   4.115   4.193  0.6367 -0.3790  0.6972
19246SOL    HW258840   4.510   4.074   4.336  1.0560  0.0340  0.7306
19247SOL     OW58841   8.595   4.766   5.103  0.0802  0.0067  0.3618
19247SOL    HW158842   8.629   4.787   5.016 -0.2062  1.4426  0.5726
19247SOL    HW258843   8.623   4.676   5.118 -1.8999 -1.1824 -2.2062
19248SOL     OW58844   7.165   7.783   0.304 -0.6941  0.4638  0.3677
19248SOL    HW158845   7.251   7.744   0.286 -0.9958  0.0019 -0.0680
19248SOL    HW258846   7.182   7.878   0.308 -0.1118  0.3539  0.5923
19249SOL     OW58847   1.215   9.044   4.381 -0.0377 -0.8224  0.5051
19249SOL    HW158848   1.277   9.071   4.450 -1.1064 -0.9649  1.5538
19249SOL    HW258849   1.139   9.100   4.395 -0.3564 -1.0170 -0.4296
19250SOL     OW58850   5.341   0.533   2.597  0.5837  0.1245 -0.0404
19250SOL    HW158851   5.357   0.438   2.594  2.4092  0.3845 -0.1725
19250SOL    HW258852   5.395   0.564   2.670 -0.9899  0.9215  0.8231
19251SOL     OW58853   0.885   8.635   0.930 -0.1703 -0.7352  0.4872
19251SOL    HW158854   0.889   8.612   0.837  0.7604  0.2705  0.2587
19251SOL    HW258855   0.882   8.730   0.932  2.1092 -0.6070  1.4976
19252SOL     OW58856   5.846   7.280   0.245 -0.4573  0.0904 -0.1181
19252SOL    HW158857   5.903   7.211   0.211 -1.6044 -0.5674 -0.7733
19252SOL    HW258858   5.884   7.361   0.211  0.6121 -0.2484  0.2381
19253SOL     OW58859   7.987   4.482   6.969 -0.3873  0.1301 -0.3885
19253SOL    HW158860   7.965   4.570   6.935  0.3705  0.6063  0.3197
19253SOL    HW258861   8.079   4.489   6.994 -0.2465 -0.9605 -0.5693
19254SOL     OW58862   5.890   3.446   5.861  0.2425  0.6762  0.6877
19254SOL    HW158863   5.852   3.358   5.856 -0.2831  0.9850 -1.7023
19254SOL    HW258864   5.911   3.457   5.954  0.4945 -2.0296  1.0317
19255SOL     OW58865   2.825   7.563   5.328  0.0156 -0.0602 -0.0401
19255SOL    HW158866   2.838   7.612   5.409 -0.5419 -0.3431  0.2258
19255SOL    HW258867   2.793   7.628   5.266 -2.1857 -0.3325  0.7238
19256SOL     OW58868   7.488   6.231   7.164 -0.6069  0.3666 -0.5901
19256SOL    HW158869   7.430   6.235   7.240 -0.2572  0.1232 -0.3061
19256SOL    HW258870   7.500   6.323   7.139 -0.8801  0.4351 -0.4704
19257SOL     OW58871   6.498   3.880   5.648 -0.1884 -0.0342  0.0792
19257SOL    HW158872   6.527   3.811   5.708 -0.7909 -1.0174 -0.7564
19257SOL    HW258873   6.538   3.960   5.684  0.0108 -0.7043  1.4031
19258SOL     OW58874   5.963   7.911   1.943  0.0358 -0.0365  0.3022
19258SOL    HW158875   5.948   7.991   1.892 -0.0296  0.4242  1.0277
19258SOL    HW258876   6.057   7.895   1.935  0.1685  0.5055  0.7111
19259SOL     OW58877   6.812   8.927   3.568  0.1602 -0.1323 -0.7182
19259SOL    HW158878   6.780   9.005   3.523 -1.5284  0.0355  0.6644
19259SOL    HW258879   6.777   8.935   3.656  1.8130 -1.3793  0.1002
19260SOL     OW58880   5.995   0.765   7.731 -0.2390 -0.3691 -0.5191
19260SOL    HW158881   6.071   0.817   7.706  0.6522 -0.5854  1.5033
19260SOL    HW258882   5.924   0.829   7.741 -0.4080 -0.1900 -2.5894
19261SOL     OW58883   1.940   4.940   3.964 -0.0065 -0.2804  0.0801
19261SOL    HW158884   1.916   4.916   3.875 -0.4898 -1.3354  0.4782
19261SOL    HW258885   2.029   4.973   3.957 -1.1279  2.8660 -1.2981
19262SOL     OW58886   6.958   0.087   1.668 -0.2951 -0.1175 -0.0458
19262SOL    HW158887   6.888   0.079   1.733 -1.0573  0.2243 -0.8138
19262SOL    HW258888   6.915   0.070   1.584  0.5042  0.2854 -0.5453
19263SOL     OW58889   1.795   5.423   5.594  0.4253  0.0107  0.2301
19263SOL    HW158890   1.882   5.447   5.563 -0.2198  0.7563 -1.1161
19263SOL    HW258891   1.735   5.464   5.531 -0.9339  0.3275  1.6558
19264SOL     OW58892   3.387   4.408   6.603 -0.2581  0.1114 -0.0782
19264SOL    HW158893   3.470   4.390   6.560 -0.7952 -0.5096 -0.8821
19264SOL    HW258894   3.380   4.504   6.603  0.1538  0.1421 -0.5936
19265SOL     OW58895   0.286   1.361   0.589  0.6576 -0.3948  0.9233
19265SOL    HW158896   0.200   1.365   0.549 -0.3397 -0.6246  2.9171
19265SOL    HW258897   0.340   1.422   0.539 -1.0566  0.8800  0.5576
19266SOL     OW58898   5.689   2.232   5.485  0.4593 -0.0396  0.1002
19266SOL    HW158899   5.672   2.299   5.419 -1.6248  1.0853  1.6645
19266SOL    HW258900   5.624   2.164   5.467  1.2900 -0.7593 -0.2756
19267SOL     OW58901   1.463   4.461   0.271 -0.1726 -0.3059  0.4358
19267SOL    HW158902   1.492   4.406   0.198  0.1540  1.1346 -0.5626
19267SOL    HW258903   1.368   4.459   0.266 -0.1579  0.9347 -0.9770
19268SOL     OW58904   6.205   5.370   4.005  0.1363 -0.2762  0.1721
19268SOL    HW158905   6.131   5.383   4.063 -0.2821  0.3539 -0.4847
19268SOL    HW258906   6.228   5.278   4.015 -2.5862 -1.2993 -1.7199
19269SOL     OW58907   8.198   6.317   8.817  0.2464  0.2448 -0.4614
19269SOL    HW158908   8.224   6.403   8.849  0.6364  0.9719 -2.5483
19269SOL    HW258909   8.260   6.256   8.856  2.3724  1.4018 -1.8680
19270SOL     OW58910   6.556   6.558   7.030 -0.3719 -0.3450  0.1636
19270SOL    HW158911   6.492   6.605   6.977  0.3626  2.1537  1.3414
19270SOL    HW258912   6.564   6.609   7.111  1.8892 -1.4750  0.7647
19271SOL     OW58913   1.957   2.448   7.319 -0.5221 -0.0197  0.2632
19271SOL    HW158914   1.955   2.382   7.389 -0.8823 -2.0104 -1.5271
19271SOL    HW258915   1.932   2.401   7.240  0.3027  2.0372 -1.3397
19272SOL     OW58916   3.544   3.247   3.413 -0.1873  0.5829 -0.1741
19272SOL    HW158917   3.587   3.227   3.329  0.2464 -3.2926  0.7812
19272SOL    HW258918   3.606   3.304   3.458  0.8657  0.4691 -1.4006
19273SOL     OW58919   7.032   3.001   0.753  0.9213  0.2187  0.0006
19273SOL    HW158920   7.077   2.947   0.817  1.2110 -0.7098 -0.9540
19273SOL    HW258921   6.986   2.938   0.697 -0.3095  1.0619  0.0223
19274SOL     OW58922   0.812   7.467   5.411  0.1263 -0.0152 -0.0493
19274SOL    HW158923   0.798   7.562   5.404  0.4698 -0.0619 -2.0438
19274SOL    HW258924   0.818   7.450   5.505 -1.8596  1.6408  0.4633
19275SOL     OW58925   6.873   6.526   8.318  0.0095 -0.5430  0.1260
19275SOL    HW158926   6.922   6.597   8.277 -0.1114 -1.4408 -1.6520
19275SOL    HW258927   6.787   6.565   8.337  0.4765  0.2359  0.7122
19276SOL     OW58928   1.874   4.295   2.767 -0.6490 -0.6567 -0.5185
19276SOL    HW158929   1.926   4.375   2.767  0.0411 -1.0973  0.0253
19276SOL    HW258930   1.792   4.320   2.725 -0.5961  0.4351 -0.0015
19277SOL     OW58931   0.634   5.810   3.073  0.4986  0.1558  0.0257
19277SOL    HW158932   0.688   5.731   3.077  0.1118 -0.1889 -1.1404
19277SOL    HW258933   0.696   5.881   3.056  0.8559  0.1351  1.1348
19278SOL     OW58934   5.420   8.261   4.726  0.3328 -0.4801 -0.2936
19278SOL    HW158935   5.503   8.284   4.768 -0.8705 -0.7913  2.4690
19278SOL    HW258936   5.385   8.189   4.779 -2.9523  1.4294  0.4410
19279SOL     OW58937   6.349   3.634   7.345  0.0001 -0.0455  0.4827
19279SOL    HW158938   6.358   3.618   7.251  0.9448 -2.5303  0.9007
19279SOL    HW258939   6.366   3.727   7.355  3.1288 -0.2321 -1.5221
19280SOL     OW58940   5.718   2.340   2.043 -0.0606 -0.4718  0.1210
19280SOL    HW158941   5.622   2.341   2.047 -0.0512  0.1182  0.2855
19280SOL    HW258942   5.745   2.325   2.133  0.0046  0.5489  0.2908
19281SOL     OW58943   5.431   2.223   2.541  0.0791  0.1128 -0.7453
19281SOL    HW158944   5.339   2.241   2.520 -0.5650 -0.1033  1.5717
19281SOL    HW258945   5.477   2.304   2.520 -1.0115  0.9202 -0.1139
19282SOL     OW58946   0.539   6.423   4.357 -0.2207  0.1429  0.1677
19282SOL    HW158947   0.480   6.395   4.427  0.1352  0.2389  0.5089
19282SOL    HW258948   0.557   6.515   4.376 -1.6322  0.7382 -1.1229
19283SOL     OW58949   3.686   1.352   4.357 -0.3669  0.1423  0.2145
19283SOL    HW158950   3.628   1.370   4.283  1.0465  1.5340 -0.6130
19283SOL    HW258951   3.743   1.428   4.362  0.8112 -0.7771  1.5537
19284SOL     OW58952   3.187   4.053   3.130 -0.3159 -0.1180 -0.0537
19284SOL    HW158953   3.254   4.018   3.188  0.5717  3.1026  1.0376
19284SOL    HW258954   3.226   4.048   3.042  1.9641  2.6606  0.6616
19285SOL     OW58955   7.741   2.976   1.875 -0.1107  0.7174  0.6731
19285SOL    HW158956   7.684   3.053   1.882 -0.6293  0.2503  1.7515
19285SOL    HW258957   7.812   2.993   1.937 -0.8937 -0.2120  1.8670
19286SOL     OW58958   7.591   4.966   0.884  0.4153  0.0598 -0.4131
19286SOL    HW158959   7.559   4.877   0.899 -1.9981  0.8586 -0.3534
19286SOL    HW258960   7.564   5.014   0.962  1.6514  0.8726 -0.4696
19287SOL     OW58961   5.296   0.658   7.985  0.0410 -0.0690 -0.2297
19287SOL    HW158962   5.346   0.723   8.034  0.5376 -0.5889 -0.0423
19287SOL    HW258963   5.255   0.604   8.052 -1.1749  0.6395 -0.3715
19288SOL     OW58964   5.699   5.505   3.394  0.0142 -0.1825 -0.5740
19288SOL    HW158965   5.661   5.417   3.398  1.2106 -0.7235 -0.6540
19288SOL    HW258966   5.746   5.507   3.311  0.2498  0.4292 -0.4327
19289SOL     OW58967   8.192   8.460   8.170 -0.3023 -0.4761 -0.3891
19289SOL    HW158968   8.207   8.375   8.129 -1.1912 -0.9735  0.2789
19289SOL    HW258969   8.276   8.506   8.162  0.5025 -1.8130  0.1558
19290SOL     OW58970   0.114   6.433   8.790  0.2487  0.0978  0.1122
19290SOL    HW158971   0.054   6.419   8.863  0.0262  2.2817  0.4283
19290SOL    HW258972   0.200   6.437   8.830  0.3739 -0.8870 -0.0507
19291SOL     OW58973   0.091   2.069   3.144 -0.3766 -0.0966  0.2493
19291SOL    HW158974   0.132   2.072   3.057  0.9227  1.0852  0.8730
19291SOL    HW258975  -0.003   2.079   3.126 -0.1209  0.2852 -1.0103
19292SOL     OW58976   0.305   6.044   3.959  0.3453  0.7155 -0.0708
19292SOL    HW158977   0.369   6.000   3.902  0.0826  0.3467 -0.0896
19292SOL    HW258978   0.348   6.050   4.044  1.1071  2.1166 -0.5295
19293SOL     OW58979   4.170   7.015   1.113 -0.7052 -0.3533 -0.8036
19293SOL    HW158980   4.255   6.971   1.111 -0.8510 -0.6153 -1.4164
19293SOL    HW258981   4.189   7.104   1.143 -0.4965 -1.0304  1.2467
19294SOL     OW58982   3.567   7.819   3.746  0.2021 -0.3591 -0.0527
19294SOL    HW158983   3.498   7.875   3.712  0.7131  0.8300  0.7697
19294SOL    HW258984   3.547   7.732   3.712 -1.1712  0.1292 -0.5657
19295SOL     OW58985   2.210   7.043   0.475 -0.5916 -0.2915  0.0235
19295SOL    HW158986   2.178   7.127   0.509 -1.0206 -0.4609  0.0488
19295SOL    HW258987   2.301   7.060   0.450 -0.2490 -0.1679  1.2866
19296SOL     OW58988   4.685   3.706   5.095  0.3000  0.2473  0.5210
19296SOL    HW158989   4.735   3.649   5.155 -1.4242 -1.4684  0.4143
19296SOL    HW258990   4.737   3.707   5.015  2.3078  2.0353  1.7443
19297SOL     OW58991   0.129   6.693   4.182  0.1077  0.2295 -0.0636
19297SOL    HW158992   0.160   6.713   4.093  0.7666  2.0309  0.5164
19297SOL    HW258993   0.035   6.676   4.172  0.2370  0.1035 -1.1402
19298SOL     OW58994   3.791   7.190   0.470 -0.1048 -0.4953 -0.1912
19298SOL    HW158995   3.790   7.231   0.383 -1.8002 -0.0013  0.0339
19298SOL    HW258996   3.799   7.096   0.452 -0.4764 -0.4021 -0.8787
19299SOL     OW58997   5.087   3.172   7.501 -0.6190  0.3186 -0.1760
19299SOL    HW158998   5.118   3.139   7.586 -1.5893  0.4529  0.2463
19299SOL    HW258999   5.023   3.107   7.472  0.3708 -0.2080 -1.2676
19300SOL     OW59000   5.263   7.640   0.861  0.4339  0.4694  0.0703
19300SOL    HW159001   5.224   7.588   0.931 -3.0705 -1.7180 -3.1319
19300SOL    HW259002   5.198   7.706   0.841  2.4906  2.7307  0.4292
19301SOL     OW59003   1.800   6.193   3.454 -0.0741  0.3877 -0.0364
19301SOL    HW159004   1.889   6.158   3.461  0.1444  0.5017 -1.8206
19301SOL    HW259005   1.791   6.251   3.529  1.3641  0.3960  0.1537
19302SOL     OW59006   2.436   1.759   1.579 -0.0085 -0.0622 -0.0288
19302SOL    HW159007   2.421   1.826   1.647 -0.3235 -0.1922  0.0305
19302SOL    HW259008   2.424   1.807   1.497  0.5427  0.1353  0.0057
19303SOL     OW59009   5.562   6.685   2.039 -0.3126  0.0779  0.2850
19303SOL    HW159010   5.647   6.704   2.078  1.3646 -1.6657 -2.1701
19303SOL    HW259011   5.542   6.763   1.988 -0.0957  0.4316  0.7319
19304SOL     OW59012   1.057   8.451   1.965  0.2737  0.0034  0.0607
19304SOL    HW159013   1.102   8.370   1.942  0.6050 -0.2250  1.4297
19304SOL    HW259014   1.075   8.510   1.892  3.2715  0.1182  0.7557
19305SOL     OW59015   7.950   2.636   1.591  0.1667  0.7614 -0.5352
19305SOL    HW159016   8.019   2.602   1.647 -1.4215 -2.5135 -0.2746
19305SOL    HW259017   7.932   2.723   1.624  1.7747  0.3440  1.6421
19306SOL     OW59018   2.970   8.383   5.375  0.2805 -0.1911 -0.1949
19306SOL    HW159019   3.031   8.337   5.318 -0.7409 -0.2685 -1.2519
19306SOL    HW259020   2.888   8.385   5.326 -0.3798  0.5309  0.9017
19307SOL     OW59021   8.798   2.648   5.090  0.2749  0.5855 -0.2794
19307SOL    HW159022   8.772   2.740   5.095  0.9778  0.7190  1.6665
19307SOL    HW259023   8.868   2.646   5.025 -0.4766  1.2202 -1.1394
19308SOL     OW59024   8.118   1.994   1.872  0.6582 -0.6225  0.5538
19308SOL    HW159025   8.189   1.966   1.929  0.0932 -0.0790  1.5641
19308SOL    HW259026   8.093   2.081   1.905  0.0171 -0.4839 -0.2401
19309SOL     OW59027   5.315   5.040   4.090 -0.6714 -0.1408  0.1071
19309SOL    HW159028   5.255   4.966   4.095  1.3138 -1.8514 -0.1185
19309SOL    HW259029   5.400   5.005   4.117 -0.0074  2.5425  1.9917
19310SOL     OW59030   3.352   0.349   2.094  0.5972  0.4083  0.0289
19310SOL    HW159031   3.274   0.341   2.149 -0.3168 -0.0688 -1.2923
19310SOL    HW259032   3.326   0.411   2.026  1.8903  1.4109  0.4125
19311SOL     OW59033   5.679   0.513   4.150 -0.1285  0.1856 -0.1995
19311SOL    HW159034   5.752   0.459   4.118 -1.4075 -2.4496  1.0565
19311SOL    HW259035   5.628   0.534   4.071  1.3563  1.1817 -0.9457
19312SOL     OW59036   6.181   2.944   5.297  0.0870 -0.0709  0.0954
19312SOL    HW159037   6.246   2.949   5.227 -0.8600 -0.3750 -0.8321
19312SOL    HW259038   6.191   2.856   5.333 -1.0629 -0.8355 -1.3368
19313SOL     OW59039   2.813   0.442   8.922 -0.2126 -0.2120 -0.4542
19313SOL    HW159040   2.762   0.460   9.001 -0.9437 -0.3453 -0.8893
19313SOL    HW259041   2.850   0.526   8.897  1.7072 -0.4951  1.1538
19314SOL     OW59042   0.021   6.023   8.522 -0.3585  0.2158 -0.7104
19314SOL    HW159043   0.060   6.053   8.440 -1.0027  1.1643 -0.6945
19314SOL    HW259044   0.037   6.095   8.583 -0.9471  0.0468 -0.3507
19315SOL     OW59045   7.479   7.050   0.832 -0.6254 -0.4635  0.0568
19315SOL    HW159046   7.495   7.035   0.739 -3.0071 -1.5854 -0.2553
19315SOL    HW259047   7.514   6.973   0.876 -0.0536 -0.2200  0.0352
19316SOL     OW59048   8.605   1.953   4.628  0.5906 -0.8029  0.4387
19316SOL    HW159049   8.689   1.975   4.666 -0.4857  1.3216  1.7749
19316SOL    HW259050   8.569   2.036   4.597 -1.5089 -1.4278  0.9991
19317SOL     OW59051   5.426   5.249   6.137  0.5687 -0.2521 -0.0834
19317SOL    HW159052   5.491   5.216   6.198  0.1044  1.0471  1.1859
19317SOL    HW259053   5.353   5.187   6.143  1.2714 -1.1639 -0.7710
19318SOL     OW59054   5.716   8.069   3.018 -0.0213  0.1051  0.3083
19318SOL    HW159055   5.673   8.141   3.064  1.7662 -0.5066  3.2083
19318SOL    HW259056   5.787   8.111   2.970 -0.7654  0.5692 -0.4030
19319SOL     OW59057   3.782   7.586   0.303  0.4936 -0.0755  0.1306
19319SOL    HW159058   3.796   7.492   0.310 -0.0987 -0.2453 -0.7889
19319SOL    HW259059   3.707   7.595   0.243  0.5272  0.9733  0.2256
19320SOL     OW59060   9.037   4.663   3.116 -0.0460  0.0371 -0.5967
19320SOL    HW159061   9.069   4.577   3.089 -0.0185 -0.4850  0.9463
19320SOL    HW259062   8.974   4.689   3.049 -0.7292 -1.6047 -0.6117
19321SOL     OW59063   5.733   6.166   7.488  0.0473  0.1184 -0.3182
19321SOL    HW159064   5.734   6.112   7.409  0.0801 -0.6378  0.1871
19321SOL    HW259065   5.650   6.144   7.530  0.5899 -0.4374  0.4931
19322SOL     OW59066   6.767   0.616   2.594 -0.1863  0.6620 -0.0538
19322SOL    HW159067   6.724   0.653   2.671  1.2372 -0.1972  1.1933
19322SOL    HW259068   6.858   0.646   2.601 -0.1699  1.0968 -1.7596
19323SOL     OW59069   1.658   1.281   7.767  0.3355  0.9118  0.0436
19323SOL    HW159070   1.625   1.238   7.845  0.7645  1.9104  0.8055
19323SOL    HW259071   1.691   1.211   7.712 -1.4154  0.0431  0.0312
19324SOL     OW59072   7.119   8.495   5.262  0.0930  0.2824 -0.4541
19324SOL    HW159073   7.139   8.450   5.344 -0.8734  1.6669  0.5829
19324SOL    HW259074   7.088   8.425   5.204 -2.1564 -0.3887  1.3682
19325SOL     OW59075   5.852   4.522   3.436 -0.1258 -0.4138  0.4253
19325SOL    HW159076   5.808   4.549   3.356  0.7638 -0.9691 -0.2670
19325SOL    HW259077   5.821   4.433   3.453  1.5289 -1.2674 -0.7126
19326SOL     OW59078   5.469   0.625   8.649  0.3573 -0.7545  0.4659
19326SOL    HW159079   5.434   0.676   8.576 -1.3811  1.2534  2.5572
19326SOL    HW259080   5.404   0.556   8.664  1.0695 -1.6195 -0.2605
19327SOL     OW59081   2.858   1.358   2.742 -0.4783  0.1132  0.2063
19327SOL    HW159082   2.788   1.422   2.730 -0.4538 -0.2288 -2.1614
19327SOL    HW259083   2.930   1.409   2.779 -0.7578  1.3128 -0.8172
19328SOL     OW59084   6.571   7.554   0.144 -0.1600 -0.1864 -0.7829
19328SOL    HW159085   6.500   7.549   0.208  0.3659 -0.8766 -0.2467
19328SOL    HW259086   6.581   7.465   0.112 -0.8360  0.2509 -2.3155
19329SOL     OW59087   8.041   2.203   0.337  0.0115 -0.0290 -0.5045
19329SOL    HW159088   8.085   2.260   0.400  1.2896 -0.3693 -1.0490
19329SOL    HW259089   8.076   2.116   0.356  1.8178  0.1087 -2.7996
19330SOL     OW59090   8.611   6.321   2.975  0.1631  0.1138 -0.0486
19330SOL    HW159091   8.596   6.299   3.067 -0.2809  0.0250 -0.1398
19330SOL    HW259092   8.676   6.258   2.945  1.8796  1.4100  0.7483
19331SOL     OW59093   0.565   8.266   4.967 -0.3338 -0.1350 -0.4629
19331SOL    HW159094   0.653   8.262   4.930  0.0850 -1.1009  0.5606
19331SOL    HW259095   0.571   8.215   5.048 -1.6041  0.5625  0.1006
19332SOL     OW59096   3.434   7.213   0.564  0.9507  0.3727  0.1809
19332SOL    HW159097   3.384   7.199   0.644  0.0660 -0.0412 -0.4391
19332SOL    HW259098   3.454   7.306   0.565  0.7284  0.4212  0.7514
19333SOL     OW59099   7.479   6.227   8.631 -0.0818  0.0102 -0.0505
19333SOL    HW159100   7.509   6.317   8.616  0.6978 -0.0489  1.0082
19333SOL    HW259101   7.555   6.173   8.614 -0.0063 -0.2823  1.1340
19334SOL     OW59102   6.576   8.702   0.178 -0.2287  0.2884 -0.3016
19334SOL    HW159103   6.482   8.690   0.161 -0.4768  2.3046 -0.6140
19334SOL    HW259104   6.579   8.756   0.256  0.6782  0.3413 -0.3666
19335SOL     OW59105   8.383   3.301   8.306 -0.3660 -0.1617 -0.0207
19335SOL    HW159106   8.470   3.340   8.309 -0.9454  1.2324 -0.3535
19335SOL    HW259107   8.342   3.326   8.389 -0.2546 -1.3289  0.4027
19336SOL     OW59108   9.048   4.466   3.680  0.1992  0.2443 -0.1555
19336SOL    HW159109   9.036   4.483   3.587 -1.2629  0.4158  0.0397
19336SOL    HW259110   9.018   4.547   3.723 -1.9175 -0.8375  0.5574
19337SOL     OW59111   6.556   7.926   4.816  0.1395  0.1743  0.1396
19337SOL    HW159112   6.561   7.855   4.752 -1.1883 -0.0444  0.2657
19337SOL    HW259113   6.466   7.959   4.809  0.1513  0.5317  1.4932
19338SOL     OW59114   6.111   7.229   7.412  0.1156  0.2755 -0.5705
19338SOL    HW159115   6.104   7.166   7.484  0.4606  1.9558  1.0267
19338SOL    HW259116   6.027   7.221   7.366 -0.2113 -0.7100  0.1550
19339SOL     OW59117   1.581   2.654   3.313 -0.1505 -0.3086 -0.0369
19339SOL    HW159118   1.622   2.618   3.392  0.8027 -0.1943 -0.4642
19339SOL    HW259119   1.606   2.746   3.313 -1.5757  0.1066  0.4121
19340SOL     OW59120   8.794   5.836   5.090  0.7692  0.0104 -0.1302
19340SOL    HW159121   8.759   5.925   5.083 -0.6421 -0.4289  0.9707
19340SOL    HW259122   8.885   5.849   5.117  1.4518  1.1606 -2.6833
19341SOL     OW59123   0.375   8.481   1.540 -0.5767 -0.1507 -0.2191
19341SOL    HW159124   0.424   8.522   1.611 -1.0487  0.6632 -0.3512
19341SOL    HW259125   0.441   8.460   1.474  0.0688 -2.1266  0.9844
19342SOL     OW59126   4.573   1.133   8.572 -0.0580 -0.0880 -0.1210
19342SOL    HW159127   4.521   1.087   8.507 -1.2509 -0.0033  0.7405
19342SOL    HW259128   4.532   1.111   8.656  1.3975 -0.1577  0.6179
19343SOL     OW59129   5.769   3.488   7.674  0.1185  0.1300  0.1865
19343SOL    HW159130   5.728   3.572   7.694 -0.4690 -0.0558 -0.2308
19343SOL    HW259131   5.719   3.453   7.601  0.8324 -0.2424 -0.1347
19344SOL     OW59132   3.254   5.428   1.007 -0.0803  0.0257  0.0084
19344SOL    HW159133   3.248   5.493   1.077  1.9788 -0.2808  0.5214
19344SOL    HW259134   3.337   5.447   0.962 -0.3765 -1.0473 -1.0630
19345SOL     OW59135   8.067   5.773   3.144  0.2842 -0.6459 -0.5425
19345SOL    HW159136   8.128   5.738   3.210  0.2437 -0.4513 -0.4015
19345SOL    HW259137   8.019   5.842   3.190 -0.8459 -1.5500 -0.3031
19346SOL     OW59138   1.854   8.417   2.558 -0.8511 -0.3302  0.3852
19346SOL    HW159139   1.788   8.374   2.503  0.1291 -1.5504  0.1193
19346SOL    HW259140   1.803   8.462   2.625 -1.9686 -3.4042  1.7929
19347SOL     OW59141   8.323   4.005   2.083  0.1954 -0.5879  0.3082
19347SOL    HW159142   8.384   4.069   2.048 -0.6424  0.4725  0.7258
19347SOL    HW259143   8.237   4.035   2.055 -0.1344 -2.4168 -0.8423
19348SOL     OW59144   5.254   4.325   3.656  0.3823 -1.0279 -0.4815
19348SOL    HW159145   5.252   4.287   3.743 -2.1002 -1.1256 -0.5098
19348SOL    HW259146   5.236   4.251   3.597  1.3496 -0.8350 -1.0612
19349SOL     OW59147   4.413   1.225   3.596  0.1087 -0.5919  0.4591
19349SOL    HW159148   4.332   1.223   3.545 -0.3622 -0.9110  1.2102
19349SOL    HW259149   4.460   1.146   3.569  1.7361  1.1598 -2.4143
19350SOL     OW59150   3.848   6.153   3.546  0.8302  0.1629  0.3287
19350SOL    HW159151   3.837   6.197   3.462 -1.3683  1.5262  1.2409
19350SOL    HW259152   3.850   6.060   3.525  0.3820  0.4854 -1.2371
19351SOL     OW59153   9.060   5.200   1.282 -0.4603  0.7591  0.4349
19351SOL    HW159154   9.107   5.261   1.224 -1.0234 -0.2389 -1.1547
19351SOL    HW259155   9.111   5.119   1.278 -1.5442  0.0918 -0.2201
19352SOL     OW59156   8.310   4.514   7.350 -0.2407 -0.6848  0.3001
19352SOL    HW159157   8.401   4.486   7.346  0.1847  0.2780  2.0161
19352SOL    HW259158   8.263   4.453   7.294  1.4584 -1.1623 -0.6800
19353SOL     OW59159   3.844   5.289   8.185  0.0724 -0.5146 -0.2947
19353SOL    HW159160   3.756   5.271   8.152 -0.3089 -0.6539  0.7492
19353SOL    HW259161   3.833   5.363   8.244  0.7394 -0.2433 -0.4996
19354SOL     OW59162   3.741   2.187   3.428 -0.0863  0.2929 -0.3042
19354SOL    HW159163   3.700   2.245   3.363 -1.4236  1.2397  1.2866
19354SOL    HW259164   3.674   2.122   3.447  0.9569 -1.0840 -1.1341
19355SOL     OW59165   1.000   8.040   7.764 -0.1149 -0.0913 -0.1136
19355SOL    HW159166   0.918   7.991   7.759 -0.4040  0.4208 -0.3666
19355SOL    HW259167   1.056   7.987   7.822 -0.5585 -0.5262 -0.0812
19356SOL     OW59168   3.404   6.990   8.342 -0.5703 -0.4296  0.0320
19356SOL    HW159169   3.353   6.977   8.422  0.9963 -0.5313  1.0622
19356SOL    HW259170   3.364   7.066   8.301 -0.9075  0.1417  1.3499
19357SOL     OW59171   8.344   1.053   5.427  0.8618  0.1072 -0.0270
19357SOL    HW159172   8.382   1.070   5.341  0.5569 -0.8495 -0.3678
19357SOL    HW259173   8.251   1.038   5.410  0.6995  0.4492  0.5427
19358SOL     OW59174   5.371   7.771   2.812  0.3691 -0.4106 -0.0172
19358SOL    HW159175   5.396   7.807   2.897 -1.8175  0.7033  0.2398
19358SOL    HW259176   5.440   7.799   2.752 -0.3193  2.9127  0.5093
19359SOL     OW59177   6.986   0.329   3.347  0.4468 -0.1016 -0.3111
19359SOL    HW159178   7.023   0.317   3.434  2.3138  3.1122 -0.5130
19359SOL    HW259179   6.891   0.318   3.360  0.8185 -1.6167  1.6509
19360SOL     OW59180   8.123   3.730   0.542  0.2808 -0.3915  0.3496
19360SOL    HW159181   8.068   3.756   0.469 -1.7065 -1.8584  1.2290
19360SOL    HW259182   8.156   3.812   0.578 -2.8235  0.7592  0.8539
19361SOL     OW59183   4.861   4.380   4.431  0.0498 -0.1363 -0.0379
19361SOL    HW159184   4.925   4.450   4.442  0.1535 -0.1572 -0.4850
19361SOL    HW259185   4.915   4.301   4.420 -0.0570 -0.1907 -0.1634
19362SOL     OW59186   7.233   4.900   8.171  0.1509 -0.1679  0.0031
19362SOL    HW159187   7.202   4.956   8.100  0.0448 -2.2236 -1.6572
19362SOL    HW259188   7.166   4.906   8.238 -0.6629  0.4099 -0.8418
19363SOL     OW59189   8.501   8.069   6.922 -0.2500  0.5804 -0.0539
19363SOL    HW159190   8.497   8.121   6.841 -0.7053  0.3634 -0.1724
19363SOL    HW259191   8.588   8.028   6.919 -1.2731 -1.6999 -1.8611
19364SOL     OW59192   0.309   6.690   3.141 -0.6890  0.2674  0.3544
19364SOL    HW159193   0.213   6.679   3.137 -0.5873 -0.8253  0.5310
19364SOL    HW259194   0.325   6.733   3.225 -1.1121  1.6860 -0.2658
19365SOL     OW59195   1.670   4.947   1.596  0.0116 -0.5110 -0.6010
19365SOL    HW159196   1.734   4.916   1.532 -0.8329 -0.1516 -1.6518
19365SOL    HW259197   1.680   4.888   1.671  0.9322 -1.0259 -1.1142
19366SOL     OW59198   0.541   0.137   2.296  0.0895  1.0348  0.4896
19366SOL    HW159199   0.624   0.162   2.255  0.6661  0.3468  1.1976
19366SOL    HW259200   0.561   0.056   2.344 -1.7655 -1.0148 -1.9301
19367SOL     OW59201   0.215   1.119   6.584  0.2348 -0.1189  0.5786
19367SOL    HW159202   0.270   1.043   6.602  1.4474  0.7351  0.5692
19367SOL    HW259203   0.140   1.109   6.643  0.5737 -1.1039  0.8570
19368SOL     OW59204   8.846   4.525   1.645  0.2300  0.1864  0.1015
19368SOL    HW159205   8.828   4.570   1.562 -1.0237  1.1044  0.8379
19368SOL    HW259206   8.876   4.438   1.619  0.9621  0.8304 -1.3264
19369SOL     OW59207   7.745   0.089   5.438  0.2655  0.4203 -0.2615
19369SOL    HW159208   7.780   0.106   5.350 -2.4916 -1.1700 -1.8162
19369SOL    HW259209   7.773   0.000   5.458  1.7545  1.1360  1.0076
19370SOL     OW59210   2.160   1.150   6.949  0.9309  0.2027 -0.4293
19370SOL    HW159211   2.068   1.153   6.976  1.4920  0.4387  1.5732
19370SOL    HW259212   2.188   1.061   6.967  1.4339  0.4812  0.1990
19371SOL     OW59213   6.567   6.539   1.023  0.0689 -0.2093 -0.2920
19371SOL    HW159214   6.513   6.461   1.039 -1.8463  0.8973 -1.0340
19371SOL    HW259215   6.510   6.612   1.047  2.0074  0.9847  0.8616
19372SOL     OW59216   6.097   3.931   8.486 -0.3418  0.5054  0.3068
19372SOL    HW159217   6.054   3.852   8.519  0.4386 -0.5036 -0.9626
19372SOL    HW259218   6.062   3.942   8.398  2.2436 -0.6823 -1.0056
19373SOL     OW59219   2.582   0.650   6.117  1.0873 -0.3769  0.9059
19373SOL    HW159220   2.583   0.590   6.192  1.7036 -1.5283  0.0158
19373SOL    HW259221   2.529   0.605   6.052  0.4087  0.6991  0.6946
19374SOL     OW59222   3.056   6.840   2.086 -0.5509 -0.1804 -0.4152
19374SOL    HW159223   3.039   6.924   2.130  0.5723 -0.2003  0.0849
19374SOL    HW259224   3.117   6.862   2.015 -0.7906 -0.4670 -0.7102
19375SOL     OW59225   8.748   2.140   3.521  0.2323  0.0940  0.0628
19375SOL    HW159226   8.778   2.177   3.438  4.1865 -0.3305  1.0824
19375SOL    HW259227   8.740   2.216   3.579  2.0320  0.0327  0.4457
19376SOL     OW59228   2.088   7.308   0.406 -0.0691  0.2784  0.4638
19376SOL    HW159229   2.095   7.276   0.495 -0.9936  1.0412  0.8319
19376SOL    HW259230   2.009   7.267   0.371 -1.3686  2.1772  0.9996
19377SOL     OW59231   7.072   8.830   5.822  1.1330  0.2586  0.2625
19377SOL    HW159232   6.991   8.828   5.770  1.0922  0.6117  0.3114
19377SOL    HW259233   7.056   8.766   5.892  1.0438  0.0518  0.0560
19378SOL     OW59234   8.836   5.767   3.775 -0.5197 -0.4166 -0.1089
19378SOL    HW159235   8.867   5.812   3.697 -1.1144  0.6637  0.2480
19378SOL    HW259236   8.910   5.714   3.805  0.3995  0.7751 -0.2317
19379SOL     OW59237   6.469   2.423   8.163  0.7456 -0.5320 -0.4954
19379SOL    HW159238   6.388   2.384   8.197  0.3153 -0.1768 -1.0828
19379SOL    HW259239   6.524   2.438   8.240 -0.3212  0.5501  0.0774
19380SOL     OW59240   1.950   3.243   8.317  0.1528 -0.5835 -0.4342
19380SOL    HW159241   1.986   3.155   8.322  0.2350 -0.5689 -0.7634
19380SOL    HW259242   2.025   3.300   8.336  0.0416 -0.5883  0.0491
19381SOL     OW59243   1.124   4.973   7.201 -0.1000  1.0076 -0.4606
19381SOL    HW159244   1.146   4.880   7.202 -2.9000  0.2111  1.4063
19381SOL    HW259245   1.181   5.012   7.266  1.3877  0.7413 -1.5492
19382SOL     OW59246   1.864   2.896   7.365  0.1488  0.0723 -0.3964
19382SOL    HW159247   1.893   2.968   7.310  0.1571 -0.7789 -1.5379
19382SOL    HW259248   1.927   2.895   7.438  0.2239  1.1144 -0.4340
19383SOL     OW59249   4.375   8.624   2.820  0.8524  0.0888 -0.6987
19383SOL    HW159250   4.451   8.596   2.869  0.8572 -2.2454 -1.9015
19383SOL    HW259251   4.406   8.630   2.729  0.1367  1.3789 -0.8845
19384SOL     OW59252   5.907   5.298   0.773 -0.1604 -0.0383 -0.1862
19384SOL    HW159253   5.832   5.292   0.832 -0.8565 -1.1683 -1.1283
19384SOL    HW259254   5.907   5.390   0.744 -0.8104  0.1170  0.2815
19385SOL     OW59255   5.789   3.585   0.355 -0.0802  0.1343 -0.3645
19385SOL    HW159256   5.789   3.530   0.434 -2.2169 -1.0264 -1.0876
19385SOL    HW259257   5.866   3.556   0.306 -0.1941 -1.0167  0.0881
19386SOL     OW59258   0.209   3.455   1.517  0.3061 -0.1747  0.1063
19386SOL    HW159259   0.289   3.413   1.548  1.3774  1.0341 -0.9355
19386SOL    HW259260   0.169   3.390   1.459 -0.6642 -1.6505  2.2653
19387SOL     OW59261   1.484   1.915   0.663  0.4303  0.0247  0.1475
19387SOL    HW159262   1.557   1.862   0.634 -0.6560 -1.6305  0.2828
19387SOL    HW259263   1.476   1.897   0.757 -1.1969 -1.2236 -0.1820
19388SOL     OW59264   1.701   7.336   8.765 -0.1421 -0.0342  0.1529
19388SOL    HW159265   1.618   7.350   8.720  0.9696 -1.5999 -2.6524
19388SOL    HW259266   1.767   7.366   8.703  1.4650 -1.0205  1.3113
19389SOL     OW59267   2.575   1.701   7.695 -0.1218  0.0672  0.1225
19389SOL    HW159268   2.671   1.703   7.697  0.0583  0.2844 -3.2036
19389SOL    HW259269   2.550   1.789   7.724  0.8272  0.8392 -1.2898
19390SOL     OW59270   8.850   8.076   7.929  0.1821 -0.7595  0.4403
19390SOL    HW159271   8.856   8.142   7.860  1.1052  1.0311  2.1369
19390SOL    HW259272   8.904   8.004   7.898  1.4756  0.4559 -0.2595
19391SOL     OW59273   0.731   7.093   2.038  0.5727  0.2269 -0.2119
19391SOL    HW159274   0.753   7.079   1.946 -0.2155 -0.1267 -0.3506
19391SOL    HW259275   0.649   7.143   2.035 -0.8609 -1.9622  0.2742
19392SOL     OW59276   0.563   9.090   8.569  0.2159  0.1369  0.4368
19392SOL    HW159277   0.517   9.008   8.556  0.8908  0.1582 -3.3346
19392SOL    HW259278   0.653   9.065   8.589  0.5528 -0.1436 -1.2731
19393SOL     OW59279   1.783   4.611   5.357  0.1869 -0.2357  0.3313
19393SOL    HW159280   1.727   4.688   5.340  1.0411  0.7544  1.8185
19393SOL    HW259281   1.843   4.609   5.282  1.8740  2.1938  1.4729
19394SOL     OW59282   1.994   2.234   3.909  0.6751  0.0014 -0.0789
19394SOL    HW159283   1.945   2.300   3.860  0.5758  1.6832  2.1261
19394SOL    HW259284   2.075   2.278   3.935  1.1247 -1.1200  0.5219
19395SOL     OW59285   0.964   7.190   6.525  0.0789  0.0942  0.2626
19395SOL    HW159286   0.896   7.140   6.569 -0.7272  1.1131  0.2100
19395SOL    HW259287   1.042   7.135   6.532 -0.2546 -0.2283  2.1038
19396SOL     OW59288   1.242   1.281   1.476  0.6944  0.4989 -0.0140
19396SOL    HW159289   1.168   1.341   1.463  0.5348  0.2076 -0.4756
19396SOL    HW259290   1.298   1.295   1.399 -0.1050 -1.0342 -0.9197
19397SOL     OW59291   3.489   3.598   8.551 -0.1869 -0.2636 -0.2299
19397SOL    HW159292   3.508   3.556   8.635  0.4890  0.0246 -0.2305
19397SOL    HW259293   3.437   3.675   8.575  2.3560  1.4293  0.2619
19398SOL     OW59294   1.318   5.418   7.778 -0.1088 -0.0187 -0.1353
19398SOL    HW159295   1.368   5.345   7.743 -1.4037 -1.7088  1.3542
19398SOL    HW259296   1.286   5.465   7.700  0.4324 -1.2503 -1.1360
19399SOL     OW59297   6.803   3.807   0.678  0.0186  0.1137 -0.2143
19399SOL    HW159298   6.814   3.733   0.738 -0.7012  0.6085  0.5569
19399SOL    HW259299   6.885   3.855   0.684  0.4313 -0.5332 -0.6002
19400SOL     OW59300   2.701   5.760   3.147 -0.4243  0.0091  0.3645
19400SOL    HW159301   2.686   5.747   3.054  1.1532 -0.3423  0.1213
19400SOL    HW259302   2.757   5.687   3.173  0.2913  0.8359  1.2595
19401SOL     OW59303   4.868   5.423   0.324 -0.0627 -0.4416 -0.1811
19401SOL    HW159304   4.907   5.469   0.250  0.7266  0.0358  0.5185
19401SOL    HW259305   4.828   5.492   0.377  0.4231 -0.6373  0.4565
19402SOL     OW59306   5.730   4.298   8.775 -0.0552 -0.3639  0.0700
19402SOL    HW159307   5.767   4.386   8.781  0.4380 -0.2757 -2.7171
19402SOL    HW259308   5.670   4.292   8.849  0.5374  1.9872  0.8436
19403SOL     OW59309   7.727   3.642   3.189 -0.0040 -0.1578  0.2669
19403SOL    HW159310   7.703   3.717   3.243  2.0446  0.4219  0.4540
19403SOL    HW259311   7.786   3.590   3.244  0.7266 -0.4772 -0.7893
19404SOL     OW59312   7.950   4.248   8.444 -0.3303  0.2823 -0.1019
19404SOL    HW159313   7.969   4.184   8.377 -2.7366  0.0329 -0.6587
19404SOL    HW259314   7.985   4.211   8.525  1.1327 -0.1858 -0.9329
19405SOL     OW59315   1.779   0.100   2.967  0.1224 -0.5991  0.5116
19405SOL    HW159316   1.723   0.172   2.996  0.8430  1.2464 -2.2875
19405SOL    HW259317   1.720   0.040   2.922 -0.2026 -0.9038  1.3154
19406SOL     OW59318   6.771   8.003   5.867  0.7351 -0.3808 -0.1891
19406SOL    HW159319   6.777   7.952   5.786  0.2359  0.9534 -1.1021
19406SOL    HW259320   6.707   7.955   5.920  1.0539 -1.2691 -0.5767
19407SOL     OW59321   4.525   7.807   4.169 -0.2375  0.1066  0.9295
19407SOL    HW159322   4.540   7.730   4.224 -0.8968  1.2525  2.8080
19407SOL    HW259323   4.584   7.873   4.204 -1.1791  1.0808  0.7471
19408SOL     OW59324   7.715   8.153   1.583  0.1520 -0.4853 -0.3615
19408SOL    HW159325   7.637   8.135   1.530  0.0843 -1.6414  0.1039
19408SOL    HW259326   7.703   8.099   1.661  0.7782  0.3631  0.3375
19409SOL     OW59327   0.963   2.493   7.861 -0.3919 -0.2275  0.3260
19409SOL    HW159328   0.891   2.542   7.901 -0.6458 -0.1978 -0.1710
19409SOL    HW259329   0.925   2.409   7.836  0.1458 -0.8575  1.5594
19410SOL     OW59330   0.121   6.434   4.664 -0.0426  0.4978  0.2656
19410SOL    HW159331   0.104   6.353   4.711  2.0867  0.7458  1.6148
19410SOL    HW259332   0.139   6.406   4.574  0.8032 -0.5585  0.7429
19411SOL     OW59333   2.804   2.083   4.090  0.4362  0.6784  0.0892
19411SOL    HW159334   2.726   2.137   4.101 -1.0951 -1.6472  1.6380
19411SOL    HW259335   2.874   2.132   4.134 -1.4712  0.3335  3.9458
19412SOL     OW59336   1.975   4.299   4.404 -0.3421  0.1700  0.0769
19412SOL    HW159337   1.913   4.282   4.476  0.6013  0.1350  0.9019
19412SOL    HW259338   2.010   4.386   4.424  0.2318 -0.0150 -0.1259
19413SOL     OW59339   1.438   8.848   3.426  0.0950  0.7755 -0.1650
19413SOL    HW159340   1.531   8.833   3.406 -0.0344  1.2193 -1.1749
19413SOL    HW259341   1.397   8.862   3.340 -0.8759  0.7658  0.2823
19414SOL     OW59342   4.317   1.791   0.602  0.2230 -0.1424 -0.1399
19414SOL    HW159343   4.411   1.811   0.607  0.3683 -0.7090 -0.5064
19414SOL    HW259344   4.308   1.706   0.644 -0.4011  0.6686  1.4577
19415SOL     OW59345   0.098   5.673   7.212 -0.8103 -0.5731  0.3973
19415SOL    HW159346   0.113   5.618   7.289 -0.5379  0.5691  1.1884
19415SOL    HW259347   0.035   5.739   7.242  1.7187  1.9018  0.7020
19416SOL     OW59348   5.950   7.646   8.584  0.3135 -0.3493 -0.0213
19416SOL    HW159349   5.965   7.688   8.500  0.6262 -0.5250 -0.0529
19416SOL    HW259350   6.003   7.696   8.646 -1.1503  0.7943  0.3639
19417SOL     OW59351   1.077   0.112   8.985  0.0991  0.0525 -0.3943
19417SOL    HW159352   1.105   0.119   9.076 -1.1602 -2.9725  0.3480
19417SOL    HW259353   1.062   0.202   8.957 -1.0886  1.0299  2.9564
19418SOL     OW59354   8.709   0.740   6.807  0.5086  0.3283 -0.1690
19418SOL    HW159355   8.802   0.722   6.817  0.7013  1.6891  0.7729
19418SOL    HW259356   8.694   0.818   6.860 -1.5441 -0.9633  1.3229
19419SOL     OW59357   2.049   1.409   0.718 -0.3681  0.0323 -0.2330
19419SOL    HW159358   2.005   1.364   0.790  1.7714 -0.3775  0.8966
19419SOL    HW259359   2.059   1.342   0.650  0.0602 -0.3578  0.2098
19420SOL     OW59360   7.122   6.277   1.632  0.0516 -0.0709  0.3470
19420SOL    HW159361   7.203   6.328   1.625  0.3262 -0.6712 -1.3522
19420SOL    HW259362   7.149   6.195   1.673  0.1348  0.0860  0.6077
19421SOL     OW59363   0.444   8.641   5.294 -0.0665 -0.0665 -0.1391
19421SOL    HW159364   0.433   8.721   5.242 -0.5065  0.1799  0.3255
19421SOL    HW259365   0.444   8.672   5.385 -0.0667 -0.5771  0.0352
19422SOL     OW59366   8.386   2.569   7.661  0.1821  0.4496  0.3003
19422SOL    HW159367   8.321   2.513   7.703 -1.3702  1.8987 -0.0568
19422SOL    HW259368   8.394   2.645   7.719 -0.8534  1.7622 -1.1583
19423SOL     OW59369   0.003   9.113   9.019 -0.8288  0.0825  0.3885
19423SOL    HW159370   0.029   9.087   8.930 -1.9528 -0.2048  0.1397
19423SOL    HW259371  -0.028   9.203   9.009  0.6774  0.6858  0.8136
19424SOL     OW59372   4.772   4.744   2.845  0.0167 -0.0904 -0.1043
19424SOL    HW159373   4.740   4.812   2.785 -0.5698 -0.2574  0.0139
19424SOL    HW259374   4.695   4.719   2.896 -0.3488 -2.4502 -1.6599
19425SOL     OW59375   3.242   1.825   2.156  0.0268  0.6690 -0.0288
19425SOL    HW159376   3.321   1.824   2.102  0.0721 -2.7418 -0.1098
19425SOL    HW259377   3.195   1.904   2.129  2.4881  1.8019 -1.2917
19426SOL     OW59378   8.748   5.982   6.067  0.1456 -0.4267  0.5363
19426SOL    HW159379   8.672   5.955   6.015 -0.5127 -2.7141  2.4990
19426SOL    HW259380   8.818   5.922   6.040  0.4214 -0.1967  0.7366
19427SOL     OW59381   6.548   7.943   3.912  0.3322  0.0297  0.1625
19427SOL    HW159382   6.506   7.999   3.977 -0.3631 -1.5249  1.0873
19427SOL    HW259383   6.629   7.914   3.954  0.8222  0.5006 -0.4180
19428SOL     OW59384   0.406   2.056   0.855  0.7655  0.4318  0.8189
19428SOL    HW159385   0.329   2.042   0.909  0.5921 -2.0345  0.0444
19428SOL    HW259386   0.380   2.125   0.793  0.5050  2.2718  2.8563
19429SOL     OW59387   0.661   1.512   0.605 -0.3183 -0.3165 -0.5266
19429SOL    HW159388   0.573   1.549   0.599  0.2994  1.0075 -2.5439
19429SOL    HW259389   0.697   1.549   0.685 -1.8911 -1.6763  0.8751
19430SOL     OW59390   1.375   8.701   7.345 -0.2025 -0.8398 -0.0241
19430SOL    HW159391   1.386   8.729   7.254 -0.1961 -1.4244 -0.2027
19430SOL    HW259392   1.458   8.727   7.387 -0.2014 -0.5783 -0.1822
19431SOL     OW59393   7.535   5.608   8.090  0.2006 -0.0329 -0.2478
19431SOL    HW159394   7.617   5.657   8.098 -0.0686  0.2935  0.5495
19431SOL    HW259395   7.494   5.642   8.010  1.5799 -1.3216 -1.5778
19432SOL     OW59396   7.803   6.734   3.605  0.2906 -0.0007  0.0163
19432SOL    HW159397   7.739   6.672   3.571 -0.4845  2.0134 -2.4799
19432SOL    HW259398   7.773   6.754   3.694 -2.4414  0.6749 -0.9739
19433SOL     OW59399   5.137   5.983   4.733  0.2931  0.5720  0.4460
19433SOL    HW159400   5.044   5.988   4.753  0.0401 -0.0099 -0.5227
19433SOL    HW259401   5.152   5.891   4.711  1.1973  0.5623  1.0523
19434SOL     OW59402   2.124   4.824   2.849 -0.5213 -0.1329 -0.7263
19434SOL    HW159403   2.162   4.872   2.923 -0.1577 -0.4744 -0.6852
19434SOL    HW259404   2.070   4.756   2.890 -0.4219 -0.2417 -0.7748
19435SOL     OW59405   0.558   8.386   7.554  0.0591 -0.0853  0.1304
19435SOL    HW159406   0.653   8.378   7.565  0.1386 -0.4186 -0.7251
19435SOL    HW259407   0.544   8.371   7.461 -1.1944 -3.5445  0.7662
19436SOL     OW59408   7.245   3.894   8.941  0.0734  0.2323  0.1215
19436SOL    HW159409   7.269   3.938   9.023 -0.4630  2.3443 -0.7921
19436SOL    HW259410   7.289   3.945   8.873 -1.9732  0.4481 -1.1233
19437SOL     OW59411   0.240   3.425   1.875 -0.1857  0.4042 -0.0711
19437SOL    HW159412   0.164   3.387   1.830 -0.6803 -0.5807  1.4852
19437SOL    HW259413   0.202   3.476   1.947  0.5953  1.1792 -0.1889
19438SOL     OW59414   4.127   6.856   2.654 -0.0599  0.1063 -0.3005
19438SOL    HW159415   4.221   6.844   2.645  0.1989  0.4428  1.5290
19438SOL    HW259416   4.091   6.768   2.647  0.3974 -0.0424 -0.8664
19439SOL     OW59417   5.389   3.680   5.128  0.1276  0.1951  0.4912
19439SOL    HW159418   5.369   3.590   5.154 -2.4520  0.4889 -0.2479
19439SOL    HW259419   5.419   3.672   5.037  2.2684 -0.0952  1.1604
19440SOL     OW59420   2.450   6.029   3.673 -0.7110 -0.2961 -0.5872
19440SOL    HW159421   2.517   6.094   3.652  0.3755  0.2633  3.6029
19440SOL    HW259422   2.375   6.080   3.703 -1.7952 -0.9933 -1.9836
19441SOL     OW59423   1.109   4.270   1.026  0.3790  0.1483 -0.1671
19441SOL    HW159424   1.050   4.228   0.964  1.2131  2.3032 -2.6136
19441SOL    HW259425   1.052   4.327   1.078  0.0841  1.0979 -1.4967
19442SOL     OW59426   1.999   0.227   3.474 -0.5975 -0.0446 -0.2699
19442SOL    HW159427   1.940   0.265   3.409  1.4454  1.7047 -1.2178
19442SOL    HW259428   2.060   0.297   3.496  0.9177 -1.6392  0.9526
19443SOL     OW59429   7.466   1.350   1.381  0.3746 -0.2647  0.3047
19443SOL    HW159430   7.416   1.399   1.316  0.4020 -1.2818 -0.5092
19443SOL    HW259431   7.508   1.279   1.331  0.9594 -0.6493  1.3118
19444SOL     OW59432   7.534   4.836   7.161  0.1627  0.5946 -0.2300
19444SOL    HW159433   7.523   4.822   7.255  0.7628  0.5287 -0.1667
19444SOL    HW259434   7.447   4.864   7.131  0.0728  1.0400  0.4177
19445SOL     OW59435   1.727   1.508   7.428 -0.3796 -0.4794 -0.3089
19445SOL    HW159436   1.648   1.546   7.467 -0.2195 -0.2610 -0.1940
19445SOL    HW259437   1.791   1.579   7.430 -0.3294 -0.5102 -0.8508
19446SOL     OW59438   3.896   3.195   8.088 -1.0667  0.1759 -0.7693
19446SOL    HW159439   3.907   3.103   8.066 -0.6940  0.2050 -0.7175
19446SOL    HW259440   3.851   3.194   8.172  1.0182 -0.0239  0.4195
19447SOL     OW59441   2.013   5.880   3.842  0.0128 -0.2586  0.0580
19447SOL    HW159442   1.977   5.805   3.889 -0.6463 -0.1853 -0.3251
19447SOL    HW259443   2.024   5.849   3.752  1.0271 -0.3163  0.1949
19448SOL     OW59444   2.023   2.536   4.555  0.2045  0.3619 -0.0293
19448SOL    HW159445   1.993   2.588   4.630  0.3076  0.8204 -0.3027
19448SOL    HW259446   2.030   2.447   4.589 -0.3006  0.4655  0.3585
19449SOL     OW59447   8.264   1.323   2.268 -0.4841  0.1057  0.2307
19449SOL    HW159448   8.261   1.395   2.205 -0.2922  0.5596  0.7317
19449SOL    HW259449   8.203   1.348   2.337 -0.6055 -0.3340  0.2876
19450SOL     OW59450   8.238   4.321   1.307 -0.7033 -0.5143  0.7959
19450SOL    HW159451   8.276   4.246   1.353  1.8379  0.2675  0.1565
19450SOL    HW259452   8.199   4.375   1.375  1.7770 -0.0501  1.9482
19451SOL     OW59453   2.351   6.556   5.932  0.4493 -0.2848 -0.3748
19451SOL    HW159454   2.417   6.582   5.997  0.1493 -0.3641 -0.0371
19451SOL    HW259455   2.378   6.468   5.905 -0.7030 -1.2404  1.3616
19452SOL     OW59456   2.980   1.044   7.963  0.9048 -0.0460  0.3935
19452SOL    HW159457   3.008   0.970   8.017  2.2311  0.5382  0.5535
19452SOL    HW259458   3.042   1.045   7.890 -1.1655 -1.1440 -1.4983
19453SOL     OW59459   2.215   8.708   2.892 -0.5273  0.4761  0.8382
19453SOL    HW159460   2.178   8.619   2.893  1.5279 -0.4491  0.0222
19453SOL    HW259461   2.177   8.749   2.815 -0.5866 -0.1338  0.5362
19454SOL     OW59462   3.619   0.280   4.564 -0.3961  0.2060  0.2222
19454SOL    HW159463   3.536   0.232   4.554 -0.3116  0.3337 -1.2454
19454SOL    HW259464   3.682   0.213   4.591 -0.7514 -0.0757  0.3716
19455SOL     OW59465   8.312   0.287   8.602  0.0009  0.2160 -0.3295
19455SOL    HW159466   8.391   0.239   8.627 -0.8196 -1.5787 -0.9458
19455SOL    HW259467   8.344   0.365   8.558  1.4860 -1.1253 -1.7706
19456SOL     OW59468   2.969   8.832   6.821  0.2280  0.8116 -0.0593
19456SOL    HW159469   3.021   8.765   6.778  0.8822  1.7577 -0.7884
19456SOL    HW259470   3.011   8.845   6.906 -0.4475 -0.3294  0.4671
19457SOL     OW59471   3.433   7.858   6.540  0.2737 -0.5018  0.2315
19457SOL    HW159472   3.432   7.892   6.450 -2.5183  0.0481  0.3916
19457SOL    HW259473   3.452   7.935   6.594 -3.3363  0.4404  0.3941
19458SOL     OW59474   2.094   3.195   4.272 -0.3439  0.1431  0.4645
19458SOL    HW159475   2.120   3.287   4.261  2.8986 -0.8123 -1.2401
19458SOL    HW259476   2.019   3.184   4.213  1.1487  1.0684 -1.7354
19459SOL     OW59477   8.604   1.465   6.942 -0.6228 -0.0608 -0.4717
19459SOL    HW159478   8.687   1.425   6.964 -0.3008 -0.0052 -1.5181
19459SOL    HW259479   8.600   1.544   6.996 -0.2278 -0.3179 -0.0596
19460SOL     OW59480   9.026   8.342   7.255  0.0319  0.3860 -0.2304
19460SOL    HW159481   9.024   8.275   7.324 -0.5380  1.3733  0.7259
19460SOL    HW259482   9.042   8.292   7.175  0.5375 -0.8057  0.5764
19461SOL     OW59483   1.640   5.437   8.290  0.5486 -0.9847  0.3885
19461SOL    HW159484   1.715   5.480   8.332  0.8853  0.2045 -1.3510
19461SOL    HW259485   1.679   5.379   8.225 -0.0400 -0.8363 -0.0961
19462SOL     OW59486   2.879   6.861   3.316  0.3534  0.2200 -0.5044
19462SOL    HW159487   2.913   6.946   3.341  2.1424  0.2681 -2.8063
19462SOL    HW259488   2.956   6.804   3.314 -0.5007 -0.9606 -0.9435
19463SOL     OW59489   5.313   1.236   7.281 -0.2604  0.4898  0.0454
19463SOL    HW159490   5.243   1.197   7.227 -0.9186  3.2807 -1.3199
19463SOL    HW259491   5.365   1.287   7.219  0.2514  2.1191  1.7270
19464SOL     OW59492   3.805   4.294   4.103  0.2591 -0.4871  0.5563
19464SOL    HW159493   3.728   4.244   4.130 -0.2206  0.5785  1.1955
19464SOL    HW259494   3.804   4.289   4.007 -1.1074  0.2431  0.5128
19465SOL     OW59495   5.874   8.687   1.205 -0.0267  0.4296 -0.3300
19465SOL    HW159496   5.894   8.778   1.183 -0.3329  0.6339  0.2099
19465SOL    HW259497   5.876   8.641   1.121 -1.4690  1.2437 -0.8580
19466SOL     OW59498   8.451   4.796   5.694 -0.5035  0.3517 -0.1993
19466SOL    HW159499   8.374   4.796   5.637 -0.2234  0.6753 -0.5853
19466SOL    HW259500   8.525   4.791   5.634 -0.0413  4.0000 -0.1550
19467SOL     OW59501   1.090   4.467   5.076 -0.1236 -0.4644 -0.1923
19467SOL    HW159502   1.119   4.555   5.053 -2.6862  0.0767 -1.7273
19467SOL    HW259503   1.072   4.471   5.170 -1.8619  1.2497 -0.5372
19468SOL     OW59504   8.842   4.069   8.946  0.3500  0.6459  0.4222
19468SOL    HW159505   8.881   4.075   9.034 -0.6843  0.8232  0.8813
19468SOL    HW259506   8.750   4.050   8.962 -0.1316  1.9579 -0.5934
19469SOL     OW59507   3.931   6.233   6.681 -0.2170 -0.5029 -0.0799
19469SOL    HW159508   4.012   6.263   6.640 -0.3106  1.0161  0.7622
19469SOL    HW259509   3.946   6.243   6.775 -1.5179  0.2189  0.0839
19470SOL     OW59510   4.930   4.888   2.429  0.4355  0.0345 -0.1138
19470SOL    HW159511   4.990   4.920   2.497  0.0309 -1.0698  0.8119
19470SOL    HW259512   4.851   4.941   2.440  0.9796  1.0308 -0.8854
19471SOL     OW59513   8.660   2.033   6.122 -0.4673 -0.4575 -0.3678
19471SOL    HW159514   8.586   2.043   6.062 -2.3311 -0.6861  1.7296
19471SOL    HW259515   8.659   1.940   6.146  0.8327 -0.5713 -0.6657
19472SOL     OW59516   9.004   2.345   2.336  0.1930 -0.1347 -0.2763
19472SOL    HW159517   8.941   2.416   2.347 -0.2864 -0.7621  1.3778
19472SOL    HW259518   9.077   2.369   2.392  0.3510 -0.5748 -0.2912
19473SOL     OW59519   0.838   5.602   0.422  0.3655 -1.0671 -0.3893
19473SOL    HW159520   0.915   5.653   0.396 -0.8118 -0.1927 -2.3519
19473SOL    HW259521   0.765   5.645   0.378 -1.0967 -2.6109  0.4386
19474SOL     OW59522   7.692   4.936   4.407 -0.1972  0.1444 -0.1368
19474SOL    HW159523   7.639   4.971   4.336  0.0071 -0.7378 -0.7352
19474SOL    HW259524   7.696   5.007   4.471 -0.3529  0.9620 -1.0151
19475SOL     OW59525   7.319   7.343   4.460 -0.2507  0.2329 -0.5074
19475SOL    HW159526   7.300   7.253   4.484 -2.0741  0.7521  0.1473
19475SOL    HW259527   7.296   7.349   4.367  1.6969 -0.4080 -1.0896
19476SOL     OW59528   1.637   0.286   1.825 -0.0999  0.0013 -0.4915
19476SOL    HW159529   1.615   0.218   1.761 -3.4851  0.6636 -0.2147
19476SOL    HW259530   1.684   0.239   1.894  0.5175 -1.3909 -1.7851
19477SOL     OW59531   4.875   4.044   0.710 -0.2919 -0.0620 -0.2900
19477SOL    HW159532   4.792   3.999   0.723 -0.6968  0.7188 -0.0650
19477SOL    HW259533   4.909   4.011   0.628 -0.8472 -0.3659 -0.3965
19478SOL     OW59534   6.746   6.284   5.925  0.1789 -0.0986  0.2281
19478SOL    HW159535   6.759   6.341   6.001  0.4276  0.9453 -0.5586
19478SOL    HW259536   6.762   6.342   5.850  0.9026 -1.3322 -0.6028
19479SOL     OW59537   8.406   8.924   3.150  0.7544 -0.1651 -0.4118
19479SOL    HW159538   8.481   8.865   3.142 -1.0492 -2.6302 -0.3846
19479SOL    HW259539   8.399   8.966   3.064  1.9015 -0.1629 -0.5270
19480SOL     OW59540   3.279   2.698   7.089  0.2473  0.4884  0.2979
19480SOL    HW159541   3.274   2.637   7.016 -0.4710 -0.3407  1.0228
19480SOL    HW259542   3.202   2.754   7.079  1.7774  2.4726 -1.3447
19481SOL     OW59543   4.836   0.813   2.439 -0.5477 -0.0895 -0.3279
19481SOL    HW159544   4.757   0.837   2.390  0.0032  0.1382 -1.1337
19481SOL    HW259545   4.852   0.887   2.497  0.4058  0.9833 -1.8755
19482SOL     OW59546   0.667   6.200   6.176  0.0132  0.1530  0.2135
19482SOL    HW159547   0.737   6.246   6.129  0.4591 -1.4120 -0.7091
19482SOL    HW259548   0.586   6.230   6.134  0.0902  1.6874  1.0445
19483SOL     OW59549   0.874   2.766   7.397  0.0359  0.5183  0.2953
19483SOL    HW159550   0.938   2.707   7.356 -0.9060  0.1783 -0.7309
19483SOL    HW259551   0.791   2.720   7.391 -0.3742  1.0687  1.3843
19484SOL     OW59552   7.055   3.288   2.230 -0.3669 -0.3403 -0.3606
19484SOL    HW159553   6.961   3.274   2.228 -0.4509  0.2493 -0.7357
19484SOL    HW259554   7.071   3.337   2.311 -0.2629 -1.2207  0.1657
19485SOL     OW59555   6.009   5.364   0.026 -0.5293  0.2730  0.6582
19485SOL    HW159556   5.964   5.369  -0.057 -0.3437 -0.7258  0.4745
19485SOL    HW259557   6.056   5.280   0.023 -1.7792 -0.5667  2.3799
19486SOL     OW59558   8.172   2.932   3.583 -0.3766  0.3631  0.3210
19486SOL    HW159559   8.155   3.024   3.564  0.5371  0.6410  0.8272
19486SOL    HW259560   8.134   2.918   3.670  1.5961  0.9188  1.3392
19487SOL     OW59561   6.861   5.363   2.522 -0.1970 -1.0885  0.5438
19487SOL    HW159562   6.908   5.312   2.457  0.4485 -0.8495  0.8201
19487SOL    HW259563   6.897   5.452   2.514  1.6542 -1.5410  2.8542
19488SOL     OW59564   3.082   5.796   3.163 -0.2853 -0.3584 -0.1916
19488SOL    HW159565   3.049   5.759   3.082  1.0377 -1.4628 -0.2634
19488SOL    HW259566   3.051   5.737   3.232 -0.9213  0.2541  0.0585
19489SOL     OW59567   3.010   9.081   0.754  0.1536  0.3541 -0.3238
19489SOL    HW159568   2.974   9.132   0.826 -1.3814 -0.9417 -0.0910
19489SOL    HW259569   2.940   9.080   0.689  0.4932 -0.6677 -0.6961
19490SOL     OW59570   6.133   9.130   3.172  0.5291  0.0811  0.4060
19490SOL    HW159571   6.082   9.051   3.193 -0.4290  0.5354 -0.1491
19490SOL    HW259572   6.149   9.171   3.257  2.6279 -1.6164  0.9301
19491SOL     OW59573   5.074   3.259   8.534 -0.4338  0.0908  0.1342
19491SOL    HW159574   5.072   3.225   8.444 -0.1503  1.2150 -0.3186
19491SOL    HW259575   5.166   3.251   8.561 -0.8230 -1.9617  1.0438
19492SOL     OW59576   4.368   0.050   0.893  0.0378  0.0193  0.1104
19492SOL    HW159577   4.286   0.058   0.845  0.3990  0.2564 -0.4872
19492SOL    HW259578   4.415  -0.021   0.848  0.4697  0.3816 -0.0157
19493SOL     OW59579   2.924   5.808   0.216 -0.5240  0.6480  0.1036
19493SOL    HW159580   2.847   5.845   0.173 -0.4258 -0.0320 -0.6851
19493SOL    HW259581   2.998   5.843   0.167 -0.3283  1.1743  0.7621
19494SOL     OW59582   6.862   1.430   3.183 -0.5645 -0.4913  0.6649
19494SOL    HW159583   6.850   1.500   3.119  0.4702 -1.2515 -0.3998
19494SOL    HW259584   6.800   1.362   3.156 -0.4703 -0.6176  0.7666
19495SOL     OW59585   4.854   7.492   4.785 -0.1902  0.1904 -0.1565
19495SOL    HW159586   4.820   7.546   4.714  0.2529 -0.5292 -0.9411
19495SOL    HW259587   4.783   7.430   4.804 -0.3745  0.4938  0.1524
19496SOL     OW59588   3.189   1.235   7.245  0.2120 -0.0703 -0.2755
19496SOL    HW159589   3.230   1.322   7.252  0.2395 -0.0855 -0.2486
19496SOL    HW259590   3.228   1.198   7.165  1.3520 -0.6613  0.5193
19497SOL     OW59591   2.247   6.719   3.751 -0.0707 -0.4071 -0.3510
19497SOL    HW159592   2.230   6.626   3.770 -1.3530 -0.6670 -2.3924
19497SOL    HW259593   2.342   6.726   3.748  0.1063 -1.1695  1.8332
19498SOL     OW59594   2.797   6.730   5.853  0.9936  0.1403  0.2189
19498SOL    HW159595   2.817   6.705   5.763  0.6952 -0.1031  0.2181
19498SOL    HW259596   2.871   6.699   5.904  1.9028  1.6162 -0.1390
19499SOL     OW59597   7.965   5.008   0.230 -0.0375  0.1872 -0.4932
19499SOL    HW159598   7.929   5.097   0.223 -1.3874 -0.2746  0.2320
19499SOL    HW259599   8.055   5.021   0.258 -0.1541  1.3351 -0.5911
19500SOL     OW59600   3.921   2.259   0.873 -0.2275 -0.2054 -0.1386
19500SOL    HW159601   3.936   2.354   0.876 -1.2558  0.0122 -1.0790
19500SOL    HW259602   4.008   2.221   0.862  0.1321  0.6840 -0.4473
19501SOL     OW59603   6.826   4.274   7.005 -0.0289  0.5017 -0.0737
19501SOL    HW159604   6.804   4.269   6.912  0.0157  1.2749 -0.1289
19501SOL    HW259605   6.755   4.226   7.048 -0.4105  0.7024 -0.4577
19502SOL     OW59606   0.747   6.001   2.740  0.1399  0.6879  0.3561
19502SOL    HW159607   0.811   5.959   2.798  1.0607 -2.3914 -2.5944
19502SOL    HW259608   0.662   5.969   2.771  0.5007  0.2067  0.8768
19503SOL     OW59609   2.846   8.683   7.641  0.5341 -0.3229  0.3695
19503SOL    HW159610   2.851   8.727   7.556 -0.0676 -2.0735 -0.6138
19503SOL    HW259611   2.757   8.698   7.670  1.0104  1.0966  1.1924
19504SOL     OW59612   1.835   5.082   0.163 -0.1010  0.6166  0.1778
19504SOL    HW159613   1.801   4.998   0.130 -1.0119  0.3045  1.7799
19504SOL    HW259614   1.907   5.104   0.103 -0.3629 -0.8952 -0.7613
19505SOL     OW59615   4.983   6.182   5.188  0.2459 -0.6343 -0.2162
19505SOL    HW159616   4.905   6.235   5.171  0.2386 -0.9732 -1.3849
19505SOL    HW259617   5.001   6.194   5.281 -1.3357 -0.7298  0.1303
19506SOL     OW59618   7.049   1.480   6.313 -0.1172  0.3321  0.2208
19506SOL    HW159619   7.078   1.393   6.285  1.0274  0.9100 -0.4725
19506SOL    HW259620   7.079   1.539   6.243 -2.6364  1.0691 -0.3430
19507SOL     OW59621   6.535   3.144   0.867  0.3466  0.9420  1.1278
19507SOL    HW159622   6.471   3.120   0.934 -0.6743  0.5589  0.0482
19507SOL    HW259623   6.552   3.063   0.819  1.3435  1.1303  1.1360
19508SOL     OW59624   3.502   5.727   6.017 -0.5248 -0.5684 -0.1327
19508SOL    HW159625   3.579   5.684   5.982 -0.4223 -0.7164  0.2709
19508SOL    HW259626   3.448   5.746   5.940  0.3056  0.3250 -0.5060
19509SOL     OW59627   8.726   7.609   1.812 -0.3908  0.1843 -0.2620
19509SOL    HW159628   8.768   7.695   1.812 -0.3999  0.3127  3.1224
19509SOL    HW259629   8.674   7.607   1.892 -0.9833 -2.7180 -0.5937
19510SOL     OW59630   6.884   2.785   2.794 -0.6530  0.2409 -0.2179
19510SOL    HW159631   6.977   2.773   2.774 -0.5854 -0.2913  0.3925
19510SOL    HW259632   6.838   2.750   2.719 -0.3885 -1.0251  0.1895
19511SOL     OW59633   5.208   1.360   5.535  0.2101 -0.1296 -0.2431
19511SOL    HW159634   5.224   1.447   5.573  2.4463 -0.0288 -1.2546
19511SOL    HW259635   5.150   1.317   5.598  1.0535  1.2199  1.5535
19512SOL     OW59636   0.352   5.747   0.469  0.3273  0.1588 -0.1314
19512SOL    HW159637   0.319   5.753   0.559 -1.8611 -0.1364 -0.8400
19512SOL    HW259638   0.357   5.653   0.451 -1.9428  0.1688 -1.1521
19513SOL     OW59639   4.467   0.998   5.940 -0.4329 -0.2380 -0.5680
19513SOL    HW159640   4.398   0.940   5.973 -1.1669  0.3681 -1.0134
19513SOL    HW259641   4.547   0.946   5.949 -0.7763 -0.5645  0.9623
19514SOL     OW59642   6.766   7.810   3.997  0.0246  0.4869  0.4182
19514SOL    HW159643   6.765   7.773   4.085  0.9930 -0.0256  0.2289
19514SOL    HW259644   6.859   7.826   3.978 -0.2501  1.6174 -0.0947
19515SOL     OW59645   5.107   1.793   8.549  0.3385 -0.5158 -0.1121
19515SOL    HW159646   5.083   1.774   8.458 -1.5026 -0.6685  0.3706
19515SOL    HW259647   5.123   1.707   8.588  0.6935 -0.4788 -0.1742
19516SOL     OW59648   3.571   2.199   8.544  0.2736  0.1509 -0.1463
19516SOL    HW159649   3.521   2.144   8.483 -0.9294  1.3385 -0.2862
19516SOL    HW259650   3.507   2.224   8.611  1.4506 -0.7120  1.3539
19517SOL     OW59651   0.659   1.229   5.755 -0.3979  0.6816 -0.0708
19517SOL    HW159652   0.576   1.259   5.715 -0.7002  0.4334  0.3662
19517SOL    HW259653   0.668   1.282   5.834 -0.6980 -0.0444  0.4614
19518SOL     OW59654   6.181   2.812   2.439 -0.3312  0.5634  0.7657
19518SOL    HW159655   6.225   2.848   2.362 -0.8920  0.5731  0.4454
19518SOL    HW259656   6.151   2.888   2.487 -2.0976  0.5435 -0.2498
19519SOL     OW59657   3.568   1.836   3.895  0.2594 -0.3429 -0.4315
19519SOL    HW159658   3.625   1.760   3.884 -0.5445 -0.9690 -0.3260
19519SOL    HW259659   3.480   1.800   3.902  0.0643  0.3764  2.0520
19520SOL     OW59660   4.109   0.847   1.407  0.2736  0.1566 -0.1236
19520SOL    HW159661   4.154   0.930   1.393 -0.5755  0.6444 -0.0138
19520SOL    HW259662   4.120   0.830   1.501 -2.1751  1.7626  0.5716
19521SOL     OW59663   5.648   4.758   6.497 -0.1693  0.3660 -0.2981
19521SOL    HW159664   5.564   4.804   6.501  0.0110  0.6871 -0.1282
19521SOL    HW259665   5.656   4.716   6.583  0.0272  0.6714 -0.1636
19522SOL     OW59666   6.192   0.104   8.321  0.1446  0.0239  0.2109
19522SOL    HW159667   6.191   0.030   8.381 -0.0087 -0.7554 -0.7348
19522SOL    HW259668   6.283   0.112   8.294  0.0370 -0.2634 -0.2319
19523SOL     OW59669   4.298   3.197   3.949  0.0903 -0.1247  0.0689
19523SOL    HW159670   4.321   3.174   4.039 -0.7830 -0.2346  0.2722
19523SOL    HW259671   4.316   3.291   3.943  1.1438 -0.3181  0.0350
19524SOL     OW59672   4.421   6.224   4.255 -0.2999  0.2591 -0.3081
19524SOL    HW159673   4.340   6.213   4.305 -0.1032  0.1151 -0.0176
19524SOL    HW259674   4.409   6.169   4.177 -1.5575  2.2511 -1.6065
19525SOL     OW59675   3.851   3.541   5.557 -0.9016 -0.3467  0.5519
19525SOL    HW159676   3.818   3.517   5.470 -1.9057 -0.5426  0.9821
19525SOL    HW259677   3.946   3.529   5.550 -1.0973 -1.6881 -0.1145
19526SOL     OW59678   1.827   2.441   2.607 -0.3319 -0.3705  0.6561
19526SOL    HW159679   1.748   2.484   2.642 -0.2087  0.7944 -0.4380
19526SOL    HW259680   1.880   2.513   2.574 -0.5197 -1.3901 -2.0931
19527SOL     OW59681   2.214   1.626   4.978 -0.3217  0.2141  0.2568
19527SOL    HW159682   2.178   1.577   5.052 -0.2608  0.7870  0.6705
19527SOL    HW259683   2.307   1.633   4.997 -0.4391  1.1007  0.5650
19528SOL     OW59684   6.893   3.791   5.625 -0.0681 -0.1047  0.1603
19528SOL    HW159685   6.920   3.740   5.701 -0.4266 -0.5141  0.0174
19528SOL    HW259686   6.809   3.753   5.599 -0.2396  0.4215 -0.0767
19529SOL     OW59687   3.874   7.385   1.935 -0.0167 -0.0019 -0.3174
19529SOL    HW159688   3.915   7.395   1.849 -0.9342 -1.3121 -0.9468
19529SOL    HW259689   3.930   7.435   1.994  1.3037 -0.0412 -1.4747
19530SOL     OW59690   1.794   1.253   1.142 -0.3013  0.1434  0.0756
19530SOL    HW159691   1.865   1.269   1.205 -0.1262  1.6952 -0.4676
19530SOL    HW259692   1.737   1.329   1.152 -0.6941  0.0118 -1.0859
19531SOL     OW59693   5.773   1.923   0.086 -0.0878 -0.2108  0.2448
19531SOL    HW159694   5.746   1.954   0.173  0.3008  1.4913 -0.2094
19531SOL    HW259695   5.691   1.911   0.038 -0.2539  0.0217  0.4679
19532SOL     OW59696   6.731   5.991   1.785  0.2676 -0.2461  0.7102
19532SOL    HW159697   6.723   6.041   1.866 -1.7581 -0.6300  0.7930
19532SOL    HW259698   6.824   5.967   1.781  1.1558  2.6782  1.1256
19533SOL     OW59699   3.858   8.170   5.338  0.2458 -0.3180  0.0450
19533SOL    HW159700   3.950   8.146   5.345  0.6514  0.7190 -1.3092
19533SOL    HW259701   3.811   8.088   5.356  1.3628 -0.6420  1.7266
19534SOL     OW59702   3.879   1.247   4.566  0.5564 -0.6753  0.1586
19534SOL    HW159703   3.811   1.277   4.505 -0.2673 -2.6554  0.0124
19534SOL    HW259704   3.863   1.296   4.647  1.7041  2.0263 -1.1656
19535SOL     OW59705   8.081   5.487   7.791  0.4809  0.1884 -0.0878
19535SOL    HW159706   8.028   5.407   7.783 -0.0260  0.7285 -3.2484
19535SOL    HW259707   8.160   5.458   7.838  0.1066 -2.0537 -0.7052
19536SOL     OW59708   0.082   1.034   3.772  0.1767 -0.1187  0.9840
19536SOL    HW159709   0.081   1.109   3.713  1.5218  1.0642  2.3946
19536SOL    HW259710   0.001   0.987   3.751  0.1221  0.7767 -1.0879
19537SOL     OW59711   7.352   5.879   8.027  0.1757  0.3206 -0.1930
19537SOL    HW159712   7.363   5.821   7.952 -0.7382  0.5445 -0.5148
19537SOL    HW259713   7.363   5.967   7.990 -1.7424  0.5165 -0.3893
19538SOL     OW59714   2.750   9.009   6.762  0.5919 -0.4761  0.4677
19538SOL    HW159715   2.810   8.936   6.748  1.8664  0.3758  1.2770
19538SOL    HW259716   2.790   9.060   6.832 -0.3655  0.8977  0.0604
19539SOL     OW59717   4.990   4.129   2.710 -0.6290  0.0878 -0.7405
19539SOL    HW159718   5.038   4.047   2.725 -2.9414 -1.4212 -0.9391
19539SOL    HW259719   5.048   4.197   2.743  0.9422 -1.7298  0.5155
19540SOL     OW59720   1.346   6.815   6.420 -0.2974 -0.2853 -0.0814
19540SOL    HW159721   1.303   6.748   6.474 -2.4424  0.0542 -1.2420
19540SOL    HW259722   1.283   6.831   6.349  1.1055  1.4515 -0.9840
19541SOL     OW59723   0.169   4.414   3.287 -0.2728  0.5062 -0.3125
19541SOL    HW159724   0.198   4.406   3.378 -0.8976 -1.6722 -0.2347
19541SOL    HW259725   0.122   4.332   3.270  0.2747  0.6188 -2.7628
19542SOL     OW59726   0.983   4.148   4.158 -0.3031 -0.2947 -0.0924
19542SOL    HW159727   0.994   4.062   4.117 -0.1835 -1.1159  1.5734
19542SOL    HW259728   1.052   4.202   4.119  1.7047 -1.8504  1.0959
19543SOL     OW59729   5.953   8.945   4.669  0.0975 -0.0540 -0.1774
19543SOL    HW159730   5.877   8.893   4.695  0.2309  0.0897  0.5258
19543SOL    HW259731   6.011   8.882   4.625  0.5231 -0.6533  1.1821
19544SOL     OW59732   3.653   5.355   0.959  0.2719 -0.0065 -0.0857
19544SOL    HW159733   3.729   5.398   0.998  0.4621 -1.1275  0.8147
19544SOL    HW259734   3.652   5.386   0.869  0.2677  2.0578  0.5657
19545SOL     OW59735   2.382   7.202   8.562  0.1210  0.4881 -0.5328
19545SOL    HW159736   2.450   7.230   8.623 -0.6242 -1.6928  1.4441
19545SOL    HW259737   2.427   7.192   8.478  1.9710  0.2106  0.4514
19546SOL     OW59738   7.104   1.589   2.400  0.1470  0.2677 -0.0277
19546SOL    HW159739   7.158   1.585   2.321  2.3722 -1.4527  1.4343
19546SOL    HW259740   7.137   1.664   2.448  0.5672 -0.1882  0.4067
19547SOL     OW59741   0.203   0.583   2.366 -0.3309  0.1636  0.4712
19547SOL    HW159742   0.207   0.564   2.272  0.4518  0.1763  0.4899
19547SOL    HW259743   0.167   0.504   2.405 -1.1989  0.3706  0.1045
19548SOL     OW59744   8.531   5.429   8.064  0.0008  0.6645 -0.2771
19548SOL    HW159745   8.499   5.396   8.148  0.1124  1.9499  0.2892
19548SOL    HW259746   8.599   5.365   8.038 -1.8347 -1.2110 -0.7359
19549SOL     OW59747   8.120   2.583   5.316 -0.0559  0.1036  0.0546
19549SOL    HW159748   8.048   2.639   5.287  0.1118 -0.1078 -0.8237
19549SOL    HW259749   8.084   2.495   5.314  0.1847  0.0075 -0.2859
19550SOL     OW59750   0.506   0.630   6.495 -0.1483  0.4489 -0.1975
19550SOL    HW159751   0.597   0.626   6.464 -0.2878  2.5070 -1.0627
19550SOL    HW259752   0.513   0.635   6.590  0.5314 -1.0490 -0.1373
19551SOL     OW59753   4.034   0.162   2.944 -0.3827 -0.1300 -0.2510
19551SOL    HW159754   4.058   0.075   2.912  0.3281  0.6723 -2.0188
19551SOL    HW259755   4.074   0.167   3.031 -1.7827 -2.1283  0.5938
19552SOL     OW59756   6.564   1.079   5.911 -0.3520  0.0513 -0.7063
19552SOL    HW159757   6.549   1.171   5.934  2.1924  0.5483 -0.7308
19552SOL    HW259758   6.527   1.030   5.985 -0.0051  1.2074  0.2763
19553SOL     OW59759   6.190   6.042   4.904 -0.1653  0.1651  0.6255
19553SOL    HW159760   6.108   6.018   4.947 -0.9673  0.9548 -0.4168
19553SOL    HW259761   6.185   6.002   4.818 -0.2797  1.6761 -0.1046
19554SOL     OW59762   6.424   4.028   1.187  0.9812 -0.4406 -0.0929
19554SOL    HW159763   6.499   4.020   1.246  1.2739  0.9794 -0.2181
19554SOL    HW259764   6.347   4.022   1.244  1.2153 -0.7995  0.1887
19555SOL     OW59765   0.377   4.836   0.025  0.4820 -0.1137  0.1606
19555SOL    HW159766   0.402   4.878  -0.057 -0.2770 -1.5881 -0.8708
19555SOL    HW259767   0.442   4.767   0.038 -0.0742 -0.6560  0.1410
19556SOL     OW59768   8.793   6.080   2.611 -1.0690 -0.1595 -0.3280
19556SOL    HW159769   8.768   6.002   2.562 -2.4348  0.3879 -0.5392
19556SOL    HW259770   8.836   6.136   2.547  1.3278 -1.3142  0.1463
19557SOL     OW59771   3.230   3.270   0.680  0.7428 -0.4673 -0.1945
19557SOL    HW159772   3.250   3.180   0.652 -0.2558 -0.7014 -0.2045
19557SOL    HW259773   3.242   3.268   0.775  1.1454 -0.4930 -0.2439
19558SOL     OW59774   5.054   2.529   1.248 -0.8045  0.2559  0.0490
19558SOL    HW159775   5.042   2.436   1.265 -1.7601  0.1629 -1.0358
19558SOL    HW259776   5.149   2.542   1.252 -0.7153 -0.5653  1.1217
19559SOL     OW59777   5.456   6.810   2.408  0.4041 -0.4068  0.0138
19559SOL    HW159778   5.470   6.869   2.334  1.1983  0.6579  0.9762
19559SOL    HW259779   5.543   6.774   2.426  0.0683 -1.2671 -0.0652
19560SOL     OW59780   1.786   8.976   8.872 -0.3393  0.2513 -0.0038
19560SOL    HW159781   1.837   9.050   8.839  3.3542 -2.3166 -0.7095
19560SOL    HW259782   1.814   8.967   8.963  1.5631 -1.8524 -0.7021
19561SOL     OW59783   3.706   7.944   5.756 -0.3557  0.2042  0.0694
19561SOL    HW159784   3.724   8.021   5.703  1.5348 -0.4293 -0.2932
19561SOL    HW259785   3.739   7.965   5.843 -0.7943  0.1771  0.2470
19562SOL     OW59786   7.051   5.288   6.835  0.4850  1.1620  0.2802
19562SOL    HW159787   6.956   5.289   6.848  0.4179  0.8724 -0.1602
19562SOL    HW259788   7.088   5.299   6.923  0.0549 -1.0749  0.8031
19563SOL     OW59789   4.166   4.784   4.222 -0.0436 -0.0530 -0.6150
19563SOL    HW159790   4.248   4.755   4.263 -0.2231 -1.0764 -0.9513
19563SOL    HW259791   4.098   4.742   4.274 -0.3051 -0.5349 -1.3390
19564SOL     OW59792   2.509   0.507   0.025  0.5537 -0.4099  0.5464
19564SOL    HW159793   2.556   0.588   0.005  0.5531 -0.2214  1.2736
19564SOL    HW259794   2.447   0.496  -0.047  2.0197 -0.9173 -0.6751
19565SOL     OW59795   8.543   7.650   6.258 -0.1429 -0.2117  0.0613
19565SOL    HW159796   8.498   7.591   6.197 -1.9111  0.9693  0.1553
19565SOL    HW259797   8.559   7.729   6.207 -0.8959  0.4776  0.8579
19566SOL     OW59798   2.096   3.560   2.132  0.9645 -0.1879 -0.0556
19566SOL    HW159799   2.039   3.519   2.067  0.6339 -2.7389  1.7352
19566SOL    HW259800   2.183   3.523   2.114  0.7930 -1.2403  1.1615
19567SOL     OW59801   8.653   1.044   0.088  0.1695 -0.2396  0.4217
19567SOL    HW159802   8.721   0.979   0.107  1.0252  0.0994 -1.3393
19567SOL    HW259803   8.696   1.128   0.099  0.1399 -0.0267 -1.0149
19568SOL     OW59804   4.803   4.176   8.965  0.0085 -0.4263  0.4001
19568SOL    HW159805   4.896   4.161   8.984  0.1296 -0.4937 -0.2029
19568SOL    HW259806   4.775   4.095   8.921  0.1364  0.2788 -1.0429
19569SOL     OW59807   7.803   6.533   7.056  0.7371 -0.3175 -0.6935
19569SOL    HW159808   7.749   6.611   7.066 -1.5622 -1.7481 -1.1153
19569SOL    HW259809   7.876   6.546   7.117  0.2528  1.9759 -0.5246
19570SOL     OW59810   9.006   8.030   3.208 -0.0848  0.2157  0.2750
19570SOL    HW159811   8.955   8.095   3.159  0.0464  0.8008  0.8890
19570SOL    HW259812   8.940   7.982   3.259 -0.0826  0.6314  0.6798
19571SOL     OW59813   6.114   1.895   6.857 -0.3605  0.4381  0.1761
19571SOL    HW159814   6.171   1.880   6.932 -0.1524 -0.2410 -0.1166
19571SOL    HW259815   6.156   1.849   6.785  0.4838  2.6397 -0.8577
19572SOL     OW59816   7.925   7.706   3.250  0.1632 -0.1625 -1.0996
19572SOL    HW159817   7.985   7.774   3.220 -0.0863  0.1967 -0.7837
19572SOL    HW259818   7.838   7.736   3.222  0.0681 -0.4318 -1.1044
19573SOL     OW59819   0.349   3.383   7.352  0.3474  0.1049 -0.2328
19573SOL    HW159820   0.301   3.306   7.382  1.3940  0.3547  2.4348
19573SOL    HW259821   0.330   3.450   7.418 -1.6820  2.7174 -3.1964
19574SOL     OW59822   5.545   5.894   6.184 -0.0116  0.0861  0.2042
19574SOL    HW159823   5.521   5.933   6.100  0.7948 -0.4171 -0.2736
19574SOL    HW259824   5.583   5.810   6.162 -0.0893 -0.2004  1.1027
19575SOL     OW59825   1.625   7.002   1.622  0.3842 -0.6425  0.3586
19575SOL    HW159826   1.576   6.941   1.568 -0.4627  0.4135 -0.1051
19575SOL    HW259827   1.640   6.955   1.705  0.0035 -1.5574 -0.0833
19576SOL     OW59828   7.703   1.832   3.738  0.0052  0.4004 -0.1043
19576SOL    HW159829   7.753   1.762   3.779  0.9446  0.3050 -1.3234
19576SOL    HW259830   7.690   1.802   3.647 -0.6698  1.2496 -0.3043
19577SOL     OW59831   5.549   1.348   8.851  0.5755  0.9017  0.4089
19577SOL    HW159832   5.645   1.349   8.854  0.5429  1.6039  1.4863
19577SOL    HW259833   5.529   1.292   8.776  1.8211  0.3151  0.4819
19578SOL     OW59834   4.091   8.914   7.282 -0.1108  0.5459  0.3950
19578SOL    HW159835   4.143   8.882   7.208 -0.2610 -1.6112  1.1585
19578SOL    HW259836   4.028   8.974   7.242  0.3585  0.0841 -1.1100
19579SOL     OW59837   6.855   7.928   4.886 -0.0893 -0.0284 -0.2128
19579SOL    HW159838   6.930   7.955   4.939  0.4776 -2.3559  0.3105
19579SOL    HW259839   6.894   7.894   4.805 -0.6120 -0.6888 -0.1948
19580SOL     OW59840   7.819   3.006   1.087  0.4227  0.1684  0.0945
19580SOL    HW159841   7.811   2.911   1.076  1.0826  0.1325 -0.1217
19580SOL    HW259842   7.729   3.036   1.099  0.3445 -0.6994  1.9964
19581SOL     OW59843   6.589   0.857   2.100  0.0173 -0.2188 -0.0967
19581SOL    HW159844   6.665   0.804   2.077 -0.5268 -0.7886 -0.6446
19581SOL    HW259845   6.524   0.837   2.032 -0.2990  0.9606 -0.1645
19582SOL     OW59846   6.942   7.483   2.386  0.2069 -0.0572 -0.0055
19582SOL    HW159847   7.017   7.426   2.367  0.4807  0.0141  0.8326
19582SOL    HW259848   6.981   7.570   2.393 -0.3531  0.4379 -2.3715
19583SOL     OW59849   3.909   8.558   3.953 -0.5243  0.2143 -0.5089
19583SOL    HW159850   3.932   8.591   3.867  0.2112 -1.4135 -0.9819
19583SOL    HW259851   3.816   8.534   3.946 -1.1833  2.3744 -0.0402
19584SOL     OW59852   4.911   5.841   7.722 -0.2867  0.1998 -0.8141
19584SOL    HW159853   4.947   5.871   7.639 -2.7419  2.7046 -1.1202
19584SOL    HW259854   4.950   5.898   7.788 -1.4221  1.0041 -0.8079
19585SOL     OW59855   8.048   6.752   6.388 -0.0643  0.9945 -0.1060
19585SOL    HW159856   8.099   6.732   6.466 -0.1409  1.7988  0.1564
19585SOL    HW259857   8.095   6.709   6.317 -0.0924  0.0979  0.3937
19586SOL     OW59858   1.317   3.349   9.075 -0.3622 -0.0756 -0.7001
19586SOL    HW159859   1.403   3.376   9.106  0.2657 -2.2474 -0.3731
19586SOL    HW259860   1.270   3.324   9.155 -1.1077  0.5990 -0.9219
19587SOL     OW59861   2.579   0.167   0.467 -0.1413  0.2246 -0.5637
19587SOL    HW159862   2.594   0.258   0.493  0.6099  0.7525 -2.6208
19587SOL    HW259863   2.486   0.163   0.447 -0.6787 -0.1216  1.7169
19588SOL     OW59864   7.982   0.188   1.343 -0.1402  0.2495  0.3220
19588SOL    HW159865   7.924   0.255   1.309 -0.3045  0.1193  0.3476
19588SOL    HW259866   8.044   0.171   1.272  1.1113  1.8144  0.9724
19589SOL     OW59867   8.322   1.505   3.612  0.1808 -0.3280 -0.1106
19589SOL    HW159868   8.320   1.440   3.682 -0.2656 -2.0430 -1.6567
19589SOL    HW259869   8.401   1.556   3.629 -0.7928  0.4502  2.5939
19590SOL     OW59870   5.758   7.557   1.464  0.0778 -0.1969  0.4665
19590SOL    HW159871   5.838   7.504   1.461  1.4200  1.7465 -0.2657
19590SOL    HW259872   5.735   7.559   1.557  1.7825  0.4263  0.9133
19591SOL     OW59873   8.456   1.426   8.995 -0.8102 -0.5634  0.3726
19591SOL    HW159874   8.519   1.383   8.938  0.2123  1.1632  0.1685
19591SOL    HW259875   8.379   1.439   8.940  0.1090  0.9415 -0.6169
19592SOL     OW59876   3.543   2.539   0.501 -0.2853  0.1016  0.7960
19592SOL    HW159877   3.531   2.449   0.473  1.2499 -0.0234  0.4646
19592SOL    HW259878   3.595   2.580   0.432  1.0204  0.5967  2.0257
19593SOL     OW59879   2.807   8.322   2.735 -0.1532  0.1277 -0.2225
19593SOL    HW159880   2.756   8.333   2.655  0.8149  1.8133 -0.6735
19593SOL    HW259881   2.744   8.331   2.806 -0.6312  1.3299 -0.7778
19594SOL     OW59882   2.713   4.838   8.208 -0.0335  0.5558 -0.1364
19594SOL    HW159883   2.656   4.761   8.206  1.8317 -0.9254  0.7142
19594SOL    HW259884   2.710   4.867   8.299  0.4357  0.5689 -0.1249
19595SOL     OW59885   7.469   7.638   3.243 -0.0022  0.1081 -0.0750
19595SOL    HW159886   7.401   7.574   3.265  0.9685 -1.8504 -2.2646
19595SOL    HW259887   7.421   7.715   3.212 -1.1918  0.0182  1.4510
19596SOL     OW59888   2.604   2.409   5.583 -0.2616  0.2459 -0.3145
19596SOL    HW159889   2.667   2.344   5.551  0.8091  1.1395 -0.1005
19596SOL    HW259890   2.540   2.417   5.512  1.6174  1.5989 -1.9664
19597SOL     OW59891   2.622   4.050   5.682  0.0453  0.2457 -0.3868
19597SOL    HW159892   2.610   4.013   5.770 -2.1441  0.2327 -0.6399
19597SOL    HW259893   2.571   4.131   5.684 -0.8530 -0.2495 -1.9297
19598SOL     OW59894   2.139   6.973   7.036  0.0097  0.2899 -0.6034
19598SOL    HW159895   2.072   7.040   7.051  0.1531  0.5584 -1.1454
19598SOL    HW259896   2.118   6.904   7.099  0.9169  1.6101  1.2560
19599SOL     OW59897   3.359   0.661   0.615  0.7269  0.0579 -0.3217
19599SOL    HW159898   3.452   0.652   0.596  1.2927  3.6592 -0.0334
19599SOL    HW259899   3.319   0.683   0.531  0.3795 -0.0715 -0.1930
19600SOL     OW59900   7.210   7.601   0.579  0.3098 -0.1572 -0.5845
19600SOL    HW159901   7.227   7.695   0.583 -0.0286  0.0713 -2.9501
19600SOL    HW259902   7.296   7.563   0.562  1.0230 -0.6836  3.3230
19601SOL     OW59903   4.792   2.101   4.338  0.3828 -0.2978 -0.6301
19601SOL    HW159904   4.807   2.007   4.346  2.0426  0.0057  0.4333
19601SOL    HW259905   4.880   2.139   4.337 -0.2461  1.2378 -1.2014
19602SOL     OW59906   1.398   8.547   5.307  0.0055 -0.1373 -0.1643
19602SOL    HW159907   1.311   8.514   5.333 -0.8551  1.4948 -0.8406
19602SOL    HW259908   1.410   8.512   5.219 -0.3105  0.2281 -0.3581
19603SOL     OW59909   2.711   5.801   7.761 -0.3724 -0.4647 -0.0408
19603SOL    HW159910   2.706   5.720   7.812 -1.0561 -0.1735  0.3568
19603SOL    HW259911   2.782   5.850   7.801 -1.0218 -0.1569  0.7646
19604SOL     OW59912   5.043   1.330   2.477 -0.1168 -0.3210  0.0144
19604SOL    HW159913   5.125   1.283   2.490 -0.6131 -1.0337  0.6377
19604SOL    HW259914   5.032   1.335   2.382  0.2968 -0.8399 -0.0639
19605SOL     OW59915   4.474   9.082   6.659  0.3041  0.3018 -0.3273
19605SOL    HW159916   4.489   9.119   6.746 -0.4517  0.5465 -0.3010
19605SOL    HW259917   4.515   9.144   6.599  2.4493 -0.7514 -0.0775
19606SOL     OW59918   8.969   6.474   0.471  0.0033  0.5795  0.5949
19606SOL    HW159919   8.897   6.495   0.412 -1.6471  0.0346  2.2960
19606SOL    HW259920   8.974   6.379   0.470  1.3233  0.6404 -0.1758
19607SOL     OW59921   1.580   4.874   4.815 -0.5423  0.4135 -0.8362
19607SOL    HW159922   1.585   4.816   4.739 -0.5230 -2.2542  1.0541
19607SOL    HW259923   1.612   4.821   4.887  0.6914  3.2554  0.8737
19608SOL     OW59924   2.801   6.624   5.612  0.1757 -0.0366 -0.4766
19608SOL    HW159925   2.869   6.566   5.578  0.1425 -0.1524 -0.3465
19608SOL    HW259926   2.752   6.652   5.534  0.5761  0.3107 -0.6064
19609SOL     OW59927   8.894   4.596   4.064 -0.0604 -0.1827 -0.2539
19609SOL    HW159928   8.910   4.662   3.997  0.9424 -1.0725 -0.9065
19609SOL    HW259929   8.883   4.514   4.016 -2.0289 -0.4091  0.4966
19610SOL     OW59930   2.208   1.918   5.128  0.6799  0.1173  0.1984
19610SOL    HW159931   2.193   2.013   5.123  0.1468  0.0247  0.0222
19610SOL    HW259932   2.248   1.896   5.044  0.4208  0.1194  0.0734
19611SOL     OW59933   6.649   7.544   2.889 -0.3515 -0.0606  0.2125
19611SOL    HW159934   6.602   7.627   2.884 -1.3747 -0.5917  0.7040
19611SOL    HW259935   6.718   7.552   2.823  0.6652  1.8407  1.4312
19612SOL     OW59936   1.145   8.079   4.645  0.0314 -0.1847  0.4832
19612SOL    HW159937   1.189   7.994   4.648 -2.7495 -1.8371 -1.3990
19612SOL    HW259938   1.175   8.118   4.562  0.2729  0.0991  0.6991
19613SOL     OW59939   6.258   0.895   9.070 -0.1414 -0.8338 -0.6401
19613SOL    HW159940   6.327   0.946   9.028 -0.1092 -0.7685 -0.5068
19613SOL    HW259941   6.205   0.863   8.997  0.1695 -1.0890 -0.7577
19614SOL     OW59942   8.612   4.408   0.325 -0.1150 -0.0600 -0.7074
19614SOL    HW159943   8.610   4.334   0.385 -0.0914  1.5748  1.4339
19614SOL    HW259944   8.666   4.474   0.369  0.1268  1.1284 -2.6584
19615SOL     OW59945   0.979   8.305   3.434 -1.1216 -0.7994  0.5230
19615SOL    HW159946   0.928   8.303   3.515  0.0527  0.7707  1.3554
19615SOL    HW259947   0.952   8.386   3.391 -2.4580 -2.0808 -1.2224
19616SOL     OW59948   2.733   8.453   6.560 -0.3835  0.1480 -0.3150
19616SOL    HW159949   2.677   8.476   6.634  0.8140  0.6664  0.4668
19616SOL    HW259950   2.808   8.512   6.568 -0.0844 -0.0021 -1.7730
19617SOL     OW59951   7.286   1.716   6.354  0.0254  0.0438  0.1892
19617SOL    HW159952   7.226   1.684   6.422  0.5021 -2.3365 -0.4112
19617SOL    HW259953   7.236   1.710   6.273  0.3795  0.0699 -0.0323
19618SOL     OW59954   2.420   3.610   6.423  0.0373  0.2787 -0.2423
19618SOL    HW159955   2.372   3.662   6.359  0.7280  1.0879 -0.1105
19618SOL    HW259956   2.354   3.588   6.490 -0.8148 -1.0034 -1.4469
19619SOL     OW59957   8.687   6.056   8.994  0.1424  0.4300  0.2802
19619SOL    HW159958   8.731   6.066   9.078 -0.2937  0.9563  0.4519
19619SOL    HW259959   8.754   6.017   8.937  0.7722  1.0231  0.5877
19620SOL     OW59960   5.062   0.229   2.254  0.2967  0.6743  0.0450
19620SOL    HW159961   5.143   0.278   2.269  1.2534 -0.7901 -0.1413
19620SOL    HW259962   5.033   0.257   2.168  0.4707  1.3637  0.1977
19621SOL     OW59963   2.432   3.064   5.459 -0.2114 -0.0149 -0.2871
19621SOL    HW159964   2.518   3.088   5.493  0.0444  1.2016 -1.6748
19621SOL    HW259965   2.408   2.985   5.507  2.0013 -0.8167 -0.3785
19622SOL     OW59966   8.070   4.031   5.960  0.7448  0.0489 -0.3835
19622SOL    HW159967   8.088   3.941   5.933  0.8509  0.0128 -0.1961
19622SOL    HW259968   7.975   4.034   5.972  0.8474 -0.3194  0.5973
19623SOL     OW59969   0.235   8.414   3.512  0.2666  0.0783 -0.0521
19623SOL    HW159970   0.161   8.417   3.451  0.4255 -0.2753 -0.2627
19623SOL    HW259971   0.207   8.353   3.580 -0.5721  1.6987  1.1023
19624SOL     OW59972   0.156   3.909   7.272  0.5143 -0.1784  0.2856
19624SOL    HW159973   0.191   3.964   7.342  0.6957 -1.5033  1.2683
19624SOL    HW259974   0.072   3.878   7.306  1.0098 -1.5511  0.3102
19625SOL     OW59975   7.994   2.065   0.886 -0.5651 -0.2026 -0.5372
19625SOL    HW159976   7.947   2.105   0.813  1.1587  0.2520 -1.4416
19625SOL    HW259977   7.956   2.107   0.964 -0.8379  1.0224 -1.3030
19626SOL     OW59978   2.156   6.363   8.225  0.2426  0.0780 -0.5820
19626SOL    HW159979   2.229   6.319   8.182  0.2684 -0.3664 -0.0988
19626SOL    HW259980   2.184   6.373   8.316  0.1989  1.0197 -0.6676
19627SOL     OW59981   8.464   8.863   1.712 -0.4516 -0.0630  0.8737
19627SOL    HW159982   8.479   8.857   1.806 -0.4178  0.3947  0.9011
19627SOL    HW259983   8.370   8.878   1.704 -0.2001  1.8710  0.9474
19628SOL     OW59984   3.630   6.539   7.633 -0.5036  0.3156 -0.2270
19628SOL    HW159985   3.599   6.474   7.697  1.6403 -0.7462 -0.1829
19628SOL    HW259986   3.571   6.528   7.558 -0.3586 -1.5518 -0.1182
19629SOL     OW59987   2.096   8.170   8.432 -0.1913 -0.2743 -1.0205
19629SOL    HW159988   2.139   8.202   8.511 -1.7365  0.0578 -0.2592
19629SOL    HW259989   2.101   8.242   8.370  0.1934 -0.1886 -0.8920
19630SOL     OW59990   3.862   4.748   8.490  0.1315 -0.0374  0.6212
19630SOL    HW159991   3.869   4.662   8.450  1.3619  0.0508  0.5928
19630SOL    HW259992   3.838   4.807   8.418  0.3259 -0.1993  0.4245
19631SOL     OW59993   1.980   2.903   2.241  0.5833 -0.4411 -0.7404
19631SOL    HW159994   2.021   2.893   2.327  1.7360 -1.5557 -1.3792
19631SOL    HW259995   2.044   2.865   2.180 -1.4157 -2.3563 -1.7962
19632SOL     OW59996   3.327   7.191   7.227 -0.1663 -0.1946  0.4357
19632SOL    HW159997   3.325   7.179   7.132 -2.1265  0.7530  0.3080
19632SOL    HW259998   3.415   7.222   7.246 -0.3417  1.5717 -1.3529
19633SOL     OW59999   1.571   0.878   4.650  0.5358 -0.4323 -0.3268
19633SOL    HW160000   1.663   0.863   4.627  0.5054 -0.4869 -0.4139
19633SOL    HW260001   1.542   0.948   4.592  0.6529 -0.0924  0.0203
19634SOL     OW60002   0.462   5.766   0.884  0.0435 -0.5210  0.6906
19634SOL    HW160003   0.515   5.796   0.811  2.9022  0.8217  3.1115
19634SOL    HW260004   0.420   5.845   0.918  0.9445 -0.5933  2.0740
19635SOL     OW60005   0.375   6.833   4.259 -0.1840  0.0974  0.3657
19635SOL    HW160006   0.298   6.781   4.235  0.1678 -0.0797 -0.4014
19635SOL    HW260007   0.436   6.770   4.297 -0.2789  0.1758  0.6460
19636SOL     OW60008   3.185   9.085   1.583  0.2139 -0.4472  0.1264
19636SOL    HW160009   3.134   9.119   1.509 -0.3697  0.8290  1.0733
19636SOL    HW260010   3.167   9.146   1.655  1.4828 -1.1327  1.0760
19637SOL     OW60011   7.446   1.122   2.040  0.2047  0.4781 -0.1281
19637SOL    HW160012   7.390   1.072   1.980 -0.7475  1.8558 -0.4200
19637SOL    HW260013   7.490   1.186   1.984 -0.3735  1.5007  0.5629
19638SOL     OW60014   7.788   5.796   6.959  0.2032 -0.0614  0.0095
19638SOL    HW160015   7.869   5.800   6.908 -1.4800  0.5780 -2.7960
19638SOL    HW260016   7.802   5.860   7.030  1.0661  2.3233 -2.1653
19639SOL     OW60017   3.111   1.271   8.628  0.1913 -0.3800 -0.3838
19639SOL    HW160018   3.181   1.282   8.564  1.8446  1.0131  1.5208
19639SOL    HW260019   3.068   1.190   8.603  1.5192 -0.5077 -2.5118
19640SOL     OW60020   6.497   6.825   3.871  0.5935  0.0972 -0.4017
19640SOL    HW160021   6.498   6.917   3.846  3.0166  0.4328  0.6546
19640SOL    HW260022   6.448   6.781   3.802 -0.2929  2.1157 -1.1065
19641SOL     OW60023   1.768   0.233   4.037 -0.4751 -0.2328  0.6174
19641SOL    HW160024   1.816   0.155   4.063 -1.7864 -1.6271 -0.9864
19641SOL    HW260025   1.830   0.282   3.983  0.1831 -0.3979  1.2060
19642SOL     OW60026   1.058   2.508   0.219 -0.5814 -0.9026  0.1610
19642SOL    HW160027   1.072   2.413   0.216 -0.5531 -0.9238  0.9565
19642SOL    HW260028   1.071   2.532   0.310  0.8225  0.0980 -0.2632
19643SOL     OW60029   5.345   5.173   0.407  0.0946 -0.0291 -0.4041
19643SOL    HW160030   5.298   5.090   0.397 -1.8819  0.6819  1.9307
19643SOL    HW260031   5.356   5.182   0.501  1.5328  1.7189 -0.7070
19644SOL     OW60032   7.707   1.025   5.826  0.8854 -0.2285 -0.3701
19644SOL    HW160033   7.675   1.115   5.837  1.1293 -0.0433 -1.0651
19644SOL    HW260034   7.707   0.988   5.914  1.6115  0.7454  0.0646
19645SOL     OW60035   6.119   6.680   1.108  0.3586  0.0154  0.1930
19645SOL    HW160036   6.099   6.756   1.055 -0.3924  0.6940  1.3943
19645SOL    HW260037   6.117   6.713   1.198 -0.7088 -1.5533  0.7878
19646SOL     OW60038   1.275   4.292   6.112 -0.3491  0.0663 -0.3988
19646SOL    HW160039   1.220   4.311   6.188 -1.1098  0.8529 -1.1249
19646SOL    HW260040   1.330   4.370   6.104  1.3841 -0.9683  0.7073
19647SOL     OW60041   5.640   0.132   6.473  0.2476 -0.5029 -0.3837
19647SOL    HW160042   5.587   0.122   6.552 -0.7391  0.2292 -0.9428
19647SOL    HW260043   5.724   0.165   6.505 -0.8855  2.0844  0.1945
19648SOL     OW60044   6.811   3.797   4.860  0.0286  0.3513  0.2752
19648SOL    HW160045   6.716   3.787   4.864 -0.0453 -0.1257 -1.5164
19648SOL    HW260046   6.846   3.715   4.896 -0.1617  1.1850  2.4813
19649SOL     OW60047   1.060   0.025   1.202  0.6454  0.4064 -0.3387
19649SOL    HW160048   1.027   0.070   1.281  0.8861 -0.2129  0.1217
19649SOL    HW260049   1.072   0.095   1.138 -1.1917  0.7211 -0.4056
19650SOL     OW60050   6.047   6.168   8.076 -0.5262 -0.1432  0.2735
19650SOL    HW160051   6.036   6.263   8.075 -0.4402 -0.1221 -0.8211
19650SOL    HW260052   5.963   6.134   8.106 -1.0797  0.2472 -0.7751
19651SOL     OW60053   8.803   2.403   7.327 -0.1458 -0.5899 -0.2373
19651SOL    HW160054   8.834   2.319   7.359  0.2155 -0.0911  0.7586
19651SOL    HW260055   8.721   2.382   7.282 -0.7939 -1.3029  1.2106
19652SOL     OW60056   7.966   3.613   0.293  0.3043  0.3566 -0.3655
19652SOL    HW160057   7.913   3.534   0.308  2.6348 -1.1528  0.3803
19652SOL    HW260058   7.978   3.615   0.198 -0.3900  0.2609 -0.4634
19653SOL     OW60059   5.091   8.605   0.807  0.4681 -0.2133  0.0003
19653SOL    HW160060   5.186   8.597   0.821  0.5650  0.5674 -0.1702
19653SOL    HW260061   5.053   8.585   0.892  0.8705  1.0177  0.4796
19654SOL     OW60062   3.506   7.739   5.159  0.5254 -0.0121  0.3288
19654SOL    HW160063   3.507   7.712   5.251 -1.0410  0.7670  0.5944
19654SOL    HW260064   3.599   7.740   5.134  0.8934 -1.6025  1.4719
19655SOL     OW60065   5.750   4.090   6.224 -0.1063 -0.1358  0.4075
19655SOL    HW160066   5.744   4.060   6.133 -0.8339 -3.0877  1.3191
19655SOL    HW260067   5.659   4.098   6.253  0.1165 -0.8723  1.3516
19656SOL     OW60068   8.328   0.442   8.086  0.0696  0.1936 -0.3262
19656SOL    HW160069   8.262   0.373   8.075  1.6845 -1.9262  2.0646
19656SOL    HW260070   8.284   0.510   8.138 -0.7640 -0.3387 -0.3212
19657SOL     OW60071   0.339   8.805   7.842  0.3460 -0.0236 -0.6018
19657SOL    HW160072   0.286   8.779   7.918  1.1939  1.5308  0.5856
19657SOL    HW260073   0.326   8.735   7.778 -2.2726 -0.2248  0.0529
19658SOL     OW60074   7.676   6.101   1.321  0.0134  0.3380  0.0298
19658SOL    HW160075   7.661   6.037   1.390  0.3811 -1.5316 -1.5396
19658SOL    HW260076   7.755   6.148   1.349  0.9154 -1.2731  0.2742
19659SOL     OW60077   1.917   4.819   7.808 -0.6086 -0.0646 -0.3212
19659SOL    HW160078   1.955   4.875   7.875  0.1698  0.3548 -1.0948
19659SOL    HW260079   1.965   4.840   7.728 -1.7528 -0.2838 -1.1042
19660SOL     OW60080   1.805   4.916   0.542  0.0401 -0.5148  0.0581
19660SOL    HW160081   1.717   4.908   0.505 -0.2090 -1.6505  0.8608
19660SOL    HW260082   1.792   4.955   0.628  0.7418  3.5903 -1.4500
19661SOL     OW60083   6.997   2.402   4.773  0.0263  0.2224  0.2171
19661SOL    HW160084   7.056   2.446   4.711 -0.6709  2.1532  0.8263
19661SOL    HW260085   6.918   2.385   4.722 -0.2323  1.0430  0.3158
19662SOL     OW60086   8.033   8.275   7.850 -0.5588 -0.2218  0.5492
19662SOL    HW160087   8.020   8.265   7.944  1.1223  2.4517  1.1894
19662SOL    HW260088   8.125   8.249   7.836 -0.6215 -0.0376 -0.2523
19663SOL     OW60089   8.820   4.533   1.970  0.2297  0.9833 -0.3071
19663SOL    HW160090   8.816   4.507   1.878  0.9316 -0.3308  0.0191
19663SOL    HW260091   8.764   4.469   2.016  1.9394 -0.0065  0.4988
19664SOL     OW60092   0.954   0.332   1.300  0.6888  0.1979  0.9581
19664SOL    HW160093   0.878   0.389   1.293  0.9419  0.3409 -3.0024
19664SOL    HW260094   0.918   0.246   1.323 -0.3159  0.8143  1.7683
19665SOL     OW60095   2.453   2.290   4.235 -0.0019  0.3222 -0.1661
19665SOL    HW160096   2.455   2.200   4.269 -1.6288  0.6181  0.8196
19665SOL    HW260097   2.480   2.281   4.144  0.8612 -1.0205  0.1802
19666SOL     OW60098   7.930   8.208   6.336 -0.3234 -0.2145 -0.0674
19666SOL    HW160099   7.900   8.162   6.258 -0.9426  0.0326  0.0226
19666SOL    HW260100   7.891   8.161   6.409 -0.2265 -0.0886  0.0684
19667SOL     OW60101   2.180   6.260   5.933 -0.8527  0.0213 -0.3173
19667SOL    HW160102   2.128   6.253   5.853  0.1088 -1.8485 -0.8389
19667SOL    HW260103   2.271   6.250   5.904 -0.3555  0.8729  0.8434
19668SOL     OW60104   8.239   1.293   7.322  0.3735 -0.1288  0.5943
19668SOL    HW160105   8.335   1.298   7.321  0.3076  1.7994  0.5183
19668SOL    HW260106   8.218   1.212   7.276  1.9435 -0.1203 -0.1740
19669SOL     OW60107   4.571   8.859   4.795  0.1980  0.2262  0.3142
19669SOL    HW160108   4.631   8.931   4.814  1.5299 -0.9560  0.7899
19669SOL    HW260109   4.504   8.864   4.863  0.7194  0.5499  0.8071
19670SOL     OW60110   3.522   7.592   2.707  0.4738  0.1994 -0.3254
19670SOL    HW160111   3.511   7.601   2.802  0.4709 -0.6491 -0.2395
19670SOL    HW260112   3.594   7.652   2.686 -0.2060  1.1807  0.0436
19671SOL     OW60113   9.028   6.644   4.638  0.6100  0.0287  0.5625
19671SOL    HW160114   9.016   6.557   4.676  2.9892  0.2086  1.8585
19671SOL    HW260115   9.110   6.638   4.590 -0.8136  0.6858 -2.1728
19672SOL     OW60116   4.649   0.095   1.328 -0.0775  0.3447 -0.0185
19672SOL    HW160117   4.565   0.116   1.370 -0.2136 -0.9745  0.4101
19672SOL    HW260118   4.665   0.170   1.270 -0.6151  1.5046  1.2572
19673SOL     OW60119   5.651   4.419   8.034 -0.2061 -0.2312 -0.0916
19673SOL    HW160120   5.672   4.401   8.126 -3.7427 -1.5358  0.6379
19673SOL    HW260121   5.665   4.513   8.023  1.7035 -0.2896  1.2661
19674SOL     OW60122   2.709   8.127   4.003  0.1571  0.7020 -0.2428
19674SOL    HW160123   2.666   8.104   3.921 -0.5652  1.6721 -0.1461
19674SOL    HW260124   2.641   8.121   4.070  0.5826  0.5734  0.1952
19675SOL     OW60125   0.040   6.981   7.040  0.0883  0.2994  0.2686
19675SOL    HW160126   0.112   6.935   6.996  0.0757  0.9284 -0.4235
19675SOL    HW260127  -0.024   6.998   6.971  0.4482  2.0572  0.3360
19676SOL     OW60128   4.292   8.501   3.799  0.2924  0.4182 -0.1610
19676SOL    HW160129   4.359   8.547   3.850  1.2615 -1.2503  0.1453
19676SOL    HW260130   4.227   8.474   3.863  1.8912 -2.3536  0.4424
19677SOL     OW60131   7.463   7.512   0.534  0.7131  0.8065  0.0518
19677SOL    HW160132   7.548   7.540   0.568  0.2433  0.9598  1.1498
19677SOL    HW260133   7.451   7.425   0.571  1.3879 -0.1825 -1.9456
19678SOL     OW60134   0.735   6.971   3.143  0.8477 -0.0817 -0.1666
19678SOL    HW160135   0.729   6.932   3.056  0.8337 -0.3338 -0.0548
19678SOL    HW260136   0.704   6.902   3.202  0.3535  0.2666 -0.0108
19679SOL     OW60137   5.912   9.037   9.008  0.2773 -0.1548  0.0062
19679SOL    HW160138   5.932   9.124   8.973 -0.6593  0.1397  0.1886
19679SOL    HW260139   5.947   8.977   8.942  2.6788  0.2871  0.7841
19680SOL     OW60140   8.542   4.233   6.763 -0.4320  0.4631 -0.0103
19680SOL    HW160141   8.576   4.322   6.771  1.5037 -0.2497  0.3052
19680SOL    HW260142   8.604   4.180   6.813 -1.4591 -1.0775 -0.3322
19681SOL     OW60143   1.598   4.616   2.131 -0.2843  0.5527  0.2515
19681SOL    HW160144   1.597   4.705   2.168 -2.1388  0.7555 -0.2106
19681SOL    HW260145   1.642   4.564   2.198 -0.2245  1.6005  1.0627
19682SOL     OW60146   5.595   2.250   0.251 -0.4160  0.2893  1.1088
19682SOL    HW160147   5.639   2.171   0.281  1.7333  0.5816 -0.9148
19682SOL    HW260148   5.505   2.224   0.234  0.1052 -1.5884  1.0463
19683SOL     OW60149   4.440   0.996   2.662 -0.1284 -0.4721  0.3338
19683SOL    HW160150   4.496   1.054   2.610  0.4812 -2.2898 -1.1518
19683SOL    HW260151   4.493   0.917   2.675 -2.1145 -2.0865 -0.7240
19684SOL     OW60152   5.562   3.283   0.806 -0.3262 -0.1215  0.3716
19684SOL    HW160153   5.504   3.348   0.765 -1.0695 -1.7230 -1.2759
19684SOL    HW260154   5.605   3.330   0.877 -0.7374  2.1890 -0.8262
19685SOL     OW60155   6.794   4.870   4.009 -0.3012  0.0979 -0.0886
19685SOL    HW160156   6.777   4.792   4.062  0.8856  0.0419  0.2591
19685SOL    HW260157   6.868   4.845   3.954  0.0439  0.9420 -0.0239
19686SOL     OW60158   5.019   8.536   8.594 -0.4073  0.1081  0.0407
19686SOL    HW160159   4.936   8.568   8.559 -1.5406  0.1704  2.5654
19686SOL    HW260160   4.994   8.486   8.672  1.8752 -0.7151  0.3081
19687SOL     OW60161   7.260   2.990   7.675 -0.0006  0.3525  0.1477
19687SOL    HW160162   7.179   3.033   7.647 -0.0274  0.2111  0.0055
19687SOL    HW260163   7.280   3.029   7.760  1.0571  2.1558 -0.8563
19688SOL     OW60164   7.170   1.209   4.507 -0.1547 -0.3842 -0.1425
19688SOL    HW160165   7.264   1.225   4.516  0.2167 -0.7713 -2.5588
19688SOL    HW260166   7.149   1.144   4.573  1.2178 -0.1110  0.5867
19689SOL     OW60167   8.178   4.491   5.026 -0.0781 -0.1464 -0.3249
19689SOL    HW160168   8.246   4.540   4.981 -0.4221  1.0835  0.4603
19689SOL    HW260169   8.216   4.404   5.040  0.9653  0.2371 -0.7217
19690SOL     OW60170   8.205   1.479   8.836 -0.1883 -0.2203  0.6929
19690SOL    HW160171   8.149   1.553   8.858  0.2657  0.2511  0.2693
19690SOL    HW260172   8.181   1.411   8.900 -1.3022 -0.0625  0.4534
19691SOL     OW60173   7.098   3.856   1.264 -0.6399  0.1045 -0.3557
19691SOL    HW160174   7.194   3.863   1.264 -0.7446  1.9558 -0.7628
19691SOL    HW260175   7.067   3.946   1.260 -2.4345 -0.3899  0.9934
19692SOL     OW60176   8.676   4.027   8.237 -0.1753 -0.7197  0.6006
19692SOL    HW160177   8.638   4.075   8.164 -1.0771  1.1137  2.1708
19692SOL    HW260178   8.659   4.082   8.314  3.2944 -1.0718  1.8406
19693SOL     OW60179   6.815   3.945   3.321  0.4417  0.8539  0.3478
19693SOL    HW160180   6.835   3.902   3.404 -0.7415 -1.1953 -0.3518
19693SOL    HW260181   6.867   3.898   3.256 -0.5671  0.7410 -0.4008
19694SOL     OW60182   9.070   7.769   7.607  0.1570 -0.0854 -0.5159
19694SOL    HW160183   8.999   7.809   7.556  0.7919  1.4368 -0.2673
19694SOL    HW260184   9.026   7.704   7.662 -0.7970 -0.3888 -1.5838
19695SOL     OW60185   6.773   5.187   1.986 -0.0653  0.6966 -0.0191
19695SOL    HW160186   6.730   5.118   2.036 -1.3441  1.2144 -0.3708
19695SOL    HW260187   6.702   5.233   1.941  0.9209  1.1207 -1.2131
19696SOL     OW60188   5.791   1.002   9.078 -0.3983  0.1236 -0.2498
19696SOL    HW160189   5.833   1.086   9.096  0.6087  0.3073 -3.0173
19696SOL    HW260190   5.711   1.023   9.030 -0.3790 -0.4675 -0.5586
19697SOL     OW60191   4.189   5.090   1.967 -0.3101 -0.1102 -0.3849
19697SOL    HW160192   4.279   5.114   1.945  0.4528 -1.1434  1.4382
19697SOL    HW260193   4.144   5.174   1.981  0.5644  0.3929 -0.5534
19698SOL     OW60194   5.958   1.061   1.635  0.0805 -0.7751 -0.2688
19698SOL    HW160195   6.047   1.027   1.624  0.6479 -0.3489  2.4059
19698SOL    HW260196   5.970   1.153   1.658 -1.1571 -0.3512 -1.1608
19699SOL     OW60197   1.493   9.104   5.366  0.1559 -0.0622  0.0547
19699SOL    HW160198   1.459   9.188   5.335 -2.2266 -1.7811 -2.5568
19699SOL    HW260199   1.579   9.096   5.326 -0.5767  0.2058 -1.6721
19700SOL     OW60200   2.779   2.463   0.418  0.3481 -0.4593 -0.8241
19700SOL    HW160201   2.745   2.375   0.433 -2.7247  0.6589 -0.4272
19700SOL    HW260202   2.743   2.488   0.332 -0.6044  1.0938 -0.0252
19701SOL     OW60203   5.242   4.315   0.809 -0.1547 -0.2348  0.1724
19701SOL    HW160204   5.247   4.219   0.805 -0.7373 -0.3012  0.7949
19701SOL    HW260205   5.199   4.333   0.893  1.0411  0.6086  0.6434
19702SOL     OW60206   7.395   7.190   5.675  0.3128  0.1668 -0.3747
19702SOL    HW160207   7.450   7.122   5.635  0.3963 -0.6732  1.1075
19702SOL    HW260208   7.355   7.235   5.600 -0.6092 -2.2371 -1.4492
19703SOL     OW60209   5.711   8.844   0.923  0.3681 -0.0714 -0.1534
19703SOL    HW160210   5.714   8.905   0.849  3.0422 -1.5176 -1.3583
19703SOL    HW260211   5.710   8.757   0.883  1.6567 -0.8882  1.4588
19704SOL     OW60212   6.676   7.496   2.334  0.8091  0.0636  0.4777
19704SOL    HW160213   6.765   7.462   2.342  0.4325 -1.3517 -0.8120
19704SOL    HW260214   6.668   7.520   2.241  0.4173  1.9374  0.9600
19705SOL     OW60215   6.690   6.128   2.787 -0.2332 -0.4549  1.0360
19705SOL    HW160216   6.706   6.138   2.693 -1.3731 -0.5686  0.8163
19705SOL    HW260217   6.697   6.034   2.802 -0.7631 -0.5152  0.9215
19706SOL     OW60218   1.879   5.960   5.897 -0.0979 -0.4189  0.0941
19706SOL    HW160219   1.880   6.051   5.869 -0.5222 -0.1414  0.9429
19706SOL    HW260220   1.786   5.940   5.910 -0.2084 -1.6367 -2.1221
19707SOL     OW60221   8.214   5.233   4.080 -0.9055 -0.0295  0.0469
19707SOL    HW160222   8.210   5.242   3.985 -0.0412 -0.9679 -0.1011
19707SOL    HW260223   8.293   5.280   4.106 -0.1115 -1.3078  0.0546
19708SOL     OW60224   0.243   2.392   8.967  0.7425 -0.2504 -0.5269
19708SOL    HW160225   0.337   2.403   8.952  0.8375  0.6259  0.5983
19708SOL    HW260226   0.221   2.457   9.033 -1.0379  0.7931 -2.0377
19709SOL     OW60227   2.830   1.176   6.439 -0.0164  0.3143 -0.3840
19709SOL    HW160228   2.766   1.125   6.489  0.1783 -0.6173 -1.0523
19709SOL    HW260229   2.817   1.148   6.348  1.0414  0.4288 -0.5852
19710SOL     OW60230   7.072   7.707   5.009 -0.1626  0.1989 -0.4612
19710SOL    HW160231   7.123   7.678   4.934 -0.4897  0.2013 -0.6864
19710SOL    HW260232   7.089   7.801   5.016  0.4500  0.0667 -0.0775
19711SOL     OW60233   2.451   7.137   4.187 -0.4177 -0.1248 -0.2228
19711SOL    HW160234   2.395   7.068   4.223  0.1976  0.0320  1.1199
19711SOL    HW260235   2.524   7.089   4.146  1.4408 -0.4045  3.0124
19712SOL     OW60236   2.528   8.616   3.689 -0.8000  0.7014  0.5333
19712SOL    HW160237   2.434   8.635   3.699 -1.0178 -0.3747  0.6400
19712SOL    HW260238   2.542   8.539   3.744  0.7026  2.3790  2.6462
19713SOL     OW60239   5.492   4.455   0.194 -0.3683 -0.3246  0.1374
19713SOL    HW160240   5.509   4.541   0.155 -2.2047  0.1955  0.3855
19713SOL    HW260241   5.576   4.428   0.230  0.7955  0.3281 -1.9349
19714SOL     OW60242   2.035   3.607   6.642 -0.0707  0.3235  0.4519
19714SOL    HW160243   1.981   3.679   6.675  0.7039  1.1849 -0.1396
19714SOL    HW260244   2.073   3.568   6.721 -1.4815 -0.2601  0.8786
19715SOL     OW60245   2.991   4.254   1.505 -0.4214  0.0120 -0.4114
19715SOL    HW160246   3.079   4.288   1.487  0.6100 -2.6908 -0.9758
19715SOL    HW260247   2.973   4.194   1.432 -1.6040 -1.4613  1.0088
19716SOL     OW60248   4.278   5.904   7.203 -0.2568 -0.0782  0.1393
19716SOL    HW160249   4.191   5.865   7.193 -1.0471  1.4171  0.7664
19716SOL    HW260250   4.261   5.998   7.211  1.3605  0.1750  1.0473
19717SOL     OW60251   0.385   7.104   7.151  0.2578 -0.0629  0.1043
19717SOL    HW160252   0.452   7.139   7.210  1.1255 -0.2893 -0.7150
19717SOL    HW260253   0.419   7.019   7.123  0.1540  0.2825 -1.1580
19718SOL     OW60254   4.968   0.421   1.655  0.5004 -0.4117  0.4815
19718SOL    HW160255   4.876   0.413   1.682  0.4428 -0.4879  0.2648
19718SOL    HW260256   4.985   0.340   1.606 -0.1054  0.7759 -1.8051
19719SOL     OW60257   1.644   2.042   0.152 -0.0632  0.2873 -0.0197
19719SOL    HW160258   1.653   2.116   0.213  1.9118  1.2150 -1.3713
19719SOL    HW260259   1.563   2.060   0.105 -1.5958 -0.3986  2.1440
19720SOL     OW60260   0.174   7.124   0.299 -0.1571  0.2095  0.0066
19720SOL    HW160261   0.107   7.133   0.231 -0.8124 -0.1215  0.5947
19720SOL    HW260262   0.179   7.210   0.340  0.5709  0.5365 -0.7607
19721SOL     OW60263   2.839   3.120   2.602 -0.2704  0.6159  0.3295
19721SOL    HW160264   2.792   3.093   2.523 -1.8410  1.0257  1.0998
19721SOL    HW260265   2.895   3.192   2.574  1.3713 -1.0710 -1.0016
19722SOL     OW60266   6.145   1.273   2.355  0.3630  0.5485 -0.5080
19722SOL    HW160267   6.051   1.292   2.348 -0.2128 -1.3651  1.0073
19722SOL    HW260268   6.181   1.348   2.401 -0.6708  0.7515  0.0168
19723SOL     OW60269   7.473   4.171   4.693 -0.5651 -0.2636 -0.2902
19723SOL    HW160270   7.563   4.153   4.666 -1.0917 -1.0493 -1.6071
19723SOL    HW260271   7.467   4.137   4.782  0.3161 -0.6250 -0.3648
19724SOL     OW60272   1.943   0.353   1.786 -0.5001 -0.0068 -0.0771
19724SOL    HW160273   1.902   0.296   1.851 -0.4454  0.1665  0.1117
19724SOL    HW260274   1.920   0.442   1.814  1.1043  0.1769  0.8135
19725SOL     OW60275   3.279   7.515   6.076 -0.0044 -0.2683  0.8251
19725SOL    HW160276   3.187   7.490   6.074 -1.1086  3.2263  1.5166
19725SOL    HW260277   3.312   7.493   5.989 -2.4852  1.4881 -0.6900
19726SOL     OW60278   1.902   2.099   3.068 -0.0336 -0.5073 -0.3610
19726SOL    HW160279   1.937   2.130   3.151 -0.0534 -0.5959 -0.3194
19726SOL    HW260280   1.977   2.096   3.009  0.0183 -0.6451 -0.2872
19727SOL     OW60281   0.266   1.570   2.269 -0.2008  0.0567 -0.0880
19727SOL    HW160282   0.237   1.494   2.319 -1.2259  0.2965 -0.3131
19727SOL    HW260283   0.331   1.535   2.208 -0.1112 -0.5054  0.3267
19728SOL     OW60284   0.803   2.718   1.792  0.0709 -0.2158 -0.3894
19728SOL    HW160285   0.736   2.706   1.860  2.0364 -1.4722  1.4574
19728SOL    HW260286   0.753   2.744   1.714 -2.2963  1.5577  1.5342
19729SOL     OW60287   4.462   5.502   4.130 -0.4298  0.0053 -0.5413
19729SOL    HW160288   4.516   5.576   4.158 -0.1962  0.4478 -2.0468
19729SOL    HW260289   4.524   5.439   4.093 -0.8571  0.2527 -1.7323
19730SOL     OW60290   2.226   1.140   1.529 -0.0487 -0.8933  0.1762
19730SOL    HW160291   2.200   1.109   1.442 -0.3611  1.5068 -0.6628
19730SOL    HW260292   2.144   1.151   1.576  0.0160 -0.7700  0.2592
19731SOL     OW60293   4.430   6.582   2.353 -0.1218  0.4267  0.0150
19731SOL    HW160294   4.400   6.628   2.275 -0.7368  0.3477  0.1983
19731SOL    HW260295   4.409   6.490   2.336 -1.6130  0.5786  0.8704
19732SOL     OW60296   6.205   8.898   2.408  0.1925 -0.5853  0.0125
19732SOL    HW160297   6.130   8.956   2.398  1.1409  0.5549 -0.8155
19732SOL    HW260298   6.180   8.818   2.362 -0.8313 -0.5477  0.4857
19733SOL     OW60299   4.512   7.384   6.418  0.0466 -0.2777  0.8713
19733SOL    HW160300   4.571   7.331   6.364 -1.0351 -1.1111  0.4825
19733SOL    HW260301   4.536   7.474   6.397  0.3990 -0.5931 -0.1658
19734SOL     OW60302   7.355   3.840   2.132  0.5486 -0.4114  0.1884
19734SOL    HW160303   7.367   3.749   2.158  1.1494  0.2841  2.5833
19734SOL    HW260304   7.260   3.850   2.125  0.4633 -1.1246  0.2323
19735SOL     OW60305   8.286   6.913   7.771  0.8159  0.0696  0.2265
19735SOL    HW160306   8.294   6.943   7.681  0.9940 -1.0521 -0.1445
19735SOL    HW260307   8.317   6.823   7.769  0.3903 -0.1135  1.3208
19736SOL     OW60308   0.301   8.009   4.519  0.2669  0.0656 -0.0364
19736SOL    HW160309   0.343   8.045   4.597  0.3484 -0.3722  0.1242
19736SOL    HW260310   0.208   8.028   4.531  0.2018 -0.5612  0.4704
19737SOL     OW60311   2.719   0.482   8.623  0.1574 -0.7767  0.0656
19737SOL    HW160312   2.658   0.555   8.615  1.0517  0.0689  0.8542
19737SOL    HW260313   2.714   0.456   8.715  1.1081 -0.5893  0.1778
19738SOL     OW60314   8.523   4.790   8.209  0.2438  0.0173 -0.1621
19738SOL    HW160315   8.436   4.750   8.207 -0.7911  2.1331  0.4942
19738SOL    HW260316   8.571   4.739   8.274 -0.4659 -1.2199 -0.5731
19739SOL     OW60317   5.409   7.451   9.120 -0.4430  0.3183  0.2300
19739SOL    HW160318   5.479   7.431   9.182 -1.5159  0.4389  1.5298
19739SOL    HW260319   5.348   7.506   9.169 -3.2507 -2.6033  0.3872
19740SOL     OW60320   0.827   4.877   6.079 -0.2045  0.0563 -0.3366
19740SOL    HW160321   0.911   4.856   6.038 -0.8364 -0.2506 -1.5346
19740SOL    HW260322   0.838   4.851   6.170  0.3827 -1.8511 -0.8889
19741SOL     OW60323   3.118   3.215   0.169 -0.0185 -0.9642 -1.0394
19741SOL    HW160324   3.056   3.234   0.239 -0.7765  2.1341 -2.3819
19741SOL    HW260325   3.199   3.191   0.214 -0.3536  1.2889  0.9376
19742SOL     OW60326   3.056   1.333   2.165 -0.1413 -0.0470 -0.0891
19742SOL    HW160327   2.982   1.373   2.209  1.2523  2.7666 -0.0826
19742SOL    HW260328   3.106   1.291   2.235  0.0739  1.1004  0.4646
19743SOL     OW60329   1.857   6.289   6.481  0.1820 -0.3197  0.1833
19743SOL    HW160330   1.833   6.350   6.551 -0.7140 -1.0016  0.4881
19743SOL    HW260331   1.807   6.209   6.500 -0.3138 -0.4171 -1.4043
19744SOL     OW60332   7.570   2.625   8.756  0.4562 -0.1064  0.2817
19744SOL    HW160333   7.553   2.550   8.700  0.6203  0.7044 -0.8829
19744SOL    HW260334   7.624   2.683   8.703 -1.8843  2.0938  0.1262
19745SOL     OW60335   3.157   8.550   5.103 -0.4949 -1.0922  0.2442
19745SOL    HW160336   3.211   8.598   5.167  0.6162  0.8421 -1.9647
19745SOL    HW260337   3.068   8.579   5.121 -0.4693 -1.9719  2.0058
19746SOL     OW60338   5.595   6.810   3.494  0.5805 -0.4753  0.3277
19746SOL    HW160339   5.611   6.717   3.478  0.4282 -0.2420 -1.3015
19746SOL    HW260340   5.545   6.812   3.576 -0.7496 -1.9502 -0.4020
19747SOL     OW60341   1.662   5.516   4.870  0.0218 -0.1232  0.3578
19747SOL    HW160342   1.650   5.490   4.779 -0.6073 -1.0805  0.6980
19747SOL    HW260343   1.573   5.526   4.904  0.2463 -0.0039  0.9280
19748SOL     OW60344   2.100   6.050   8.066  0.1773  0.5282 -0.1556
19748SOL    HW160345   2.102   6.059   7.970  2.7448  0.0098 -0.2342
19748SOL    HW260346   2.108   6.140   8.098 -4.4955  1.1855 -0.2269
19749SOL     OW60347   4.155   0.206   6.322 -0.1217  0.2317 -0.3814
19749SOL    HW160348   4.241   0.175   6.292 -0.0222 -0.3301  0.4690
19749SOL    HW260349   4.123   0.260   6.249  0.9496  0.4567 -0.7073
19750SOL     OW60350   6.150   2.620   7.091 -0.2724  0.1884  0.1246
19750SOL    HW160351   6.219   2.620   7.025 -0.4575  2.1379 -0.1383
19750SOL    HW260352   6.086   2.556   7.059  0.2020  0.2414 -0.9734
19751SOL     OW60353   7.234   2.002   2.913  0.0380 -0.1608 -0.0673
19751SOL    HW160354   7.200   2.039   2.832 -0.0116  1.2322  0.5676
19751SOL    HW260355   7.315   2.050   2.930  0.4691 -0.9908  0.2927
19752SOL     OW60356   5.119   6.682   3.127  0.4931  0.4522 -0.2559
19752SOL    HW160357   5.057   6.747   3.094  1.6301  1.9020  0.3226
19752SOL    HW260358   5.065   6.610   3.157 -0.9006  1.5709  0.0113
19753SOL     OW60359   3.180   8.838   0.118  1.4045  0.5620 -0.3756
19753SOL    HW160360   3.192   8.758   0.066 -0.5594 -0.7007  0.9465
19753SOL    HW260361   3.248   8.833   0.185  1.1077 -0.1863 -0.1147
19754SOL     OW60362   2.538   8.659   2.800  0.1905 -0.1959  0.1930
19754SOL    HW160363   2.478   8.683   2.871  0.8081 -0.4382  0.8077
19754SOL    HW260364   2.623   8.691   2.829  0.4339 -0.2118 -0.4928
19755SOL     OW60365   6.269   0.086   8.877  0.5524  0.0608  0.1229
19755SOL    HW160366   6.264   0.025   8.803 -1.2121  0.2370  0.0516
19755SOL    HW260367   6.315   0.163   8.842 -1.6559  0.8053 -1.3262
19756SOL     OW60368   3.300   6.289   8.465 -0.3054  0.2797 -0.3912
19756SOL    HW160369   3.222   6.324   8.508 -0.5244 -1.2616  0.5656
19756SOL    HW260370   3.288   6.194   8.468  1.5390  0.0042 -0.3445
19757SOL     OW60371   2.076   2.834   4.444  0.0881 -0.0556 -0.1216
19757SOL    HW160372   2.148   2.801   4.497  0.8384  0.4987 -0.7808
19757SOL    HW260373   2.010   2.861   4.508 -1.0727 -3.7891  0.4638
19758SOL     OW60374   7.655   6.899   7.717 -0.3490 -0.3326  0.5381
19758SOL    HW160375   7.626   6.940   7.798 -0.8331 -0.8162  0.6111
19758SOL    HW260376   7.580   6.906   7.658  0.5846  1.6532 -0.5081
19759SOL     OW60377   7.400   5.803   8.794 -0.4742  0.2270  0.1247
19759SOL    HW160378   7.320   5.763   8.760 -0.6000  0.3844  0.2363
19759SOL    HW260379   7.464   5.731   8.795 -0.8588 -0.1200  0.8619
19760SOL     OW60380   3.324   6.609   4.144  0.3601  0.4535 -0.0487
19760SOL    HW160381   3.336   6.677   4.077  0.4402  0.8580  0.3739
19760SOL    HW260382   3.267   6.649   4.209 -0.3266 -0.2057 -0.2401
19761SOL     OW60383   5.567   2.166   9.051  0.1160  0.2826 -0.4335
19761SOL    HW160384   5.596   2.118   9.129  1.4588 -0.6596 -1.4579
19761SOL    HW260385   5.477   2.137   9.037  0.3683 -0.7196 -0.0810
19762SOL     OW60386   5.704   7.680   4.773 -0.6005 -0.5414  0.3050
19762SOL    HW160387   5.738   7.648   4.857 -1.8421  1.1440  1.5188
19762SOL    HW260388   5.777   7.730   4.736 -0.4588 -0.2091  1.0108
19763SOL     OW60389   3.112   7.556   5.619  0.1108 -0.4746 -0.5204
19763SOL    HW160390   3.126   7.516   5.534 -0.3327  0.2118 -0.9317
19763SOL    HW260391   3.199   7.563   5.658  0.3314 -0.6716 -0.9776
19764SOL     OW60392   8.699   5.187   8.012 -0.6711  0.4477 -0.6473
19764SOL    HW160393   8.679   5.100   7.978  1.0249  0.0813 -0.8115
19764SOL    HW260394   8.721   5.173   8.104  2.9109  0.0646 -1.4020
19765SOL     OW60395   9.106   6.414   9.017 -1.0421  0.1461 -0.7870
19765SOL    HW160396   9.084   6.506   9.007  0.1131  0.7744  1.7670
19765SOL    HW260397   9.062   6.387   9.097 -0.5746 -1.2681 -0.9826
19766SOL     OW60398   0.536   1.731   8.366  0.4524 -0.4941 -0.5054
19766SOL    HW160399   0.604   1.668   8.339  1.5618  0.9957 -1.3807
19766SOL    HW260400   0.486   1.747   8.286  1.0654  0.7554 -0.6622
19767SOL     OW60401   0.127   0.160   2.978  0.0099  0.5956 -0.4618
19767SOL    HW160402   0.187   0.201   2.916 -0.5740 -0.1818 -1.5880
19767SOL    HW260403   0.048   0.141   2.927 -0.7905  0.6107  0.7145
19768SOL     OW60404   4.870   9.086   8.003 -0.4986  0.4386 -0.2510
19768SOL    HW160405   4.943   9.050   7.953 -2.1972 -1.5229 -1.4910
19768SOL    HW260406   4.801   9.020   7.997 -2.5926  2.3892  0.4143
19769SOL     OW60407   8.520   4.145   0.820 -0.0442  0.5501 -0.4035
19769SOL    HW160408   8.553   4.143   0.730 -1.5532  0.2378 -0.9767
19769SOL    HW260409   8.598   4.141   0.875  0.9572  1.6121 -1.6951
19770SOL     OW60410   6.585   4.620   0.617  0.0715  0.4379  0.1366
19770SOL    HW160411   6.599   4.553   0.550  1.4774  1.6457 -0.8544
19770SOL    HW260412   6.504   4.595   0.660 -2.3823  0.9303 -3.7180
19771SOL     OW60413   1.204   0.566   2.237 -0.2026 -0.2489  0.8347
19771SOL    HW160414   1.253   0.560   2.319 -0.2152  1.3613  1.0017
19771SOL    HW260415   1.120   0.605   2.263  0.4415  1.9021 -0.1408
19772SOL     OW60416   2.382   7.985   1.505  0.3620 -0.3390  0.3579
19772SOL    HW160417   2.312   8.041   1.473 -0.1965 -0.7376  0.8680
19772SOL    HW260418   2.349   7.950   1.588  1.9110  1.0065  1.6324
19773SOL     OW60419   5.408   4.671   3.338  0.2276 -0.0691  0.1596
19773SOL    HW160420   5.479   4.608   3.328 -0.3693 -0.8410  0.6277
19773SOL    HW260421   5.362   4.669   3.254 -0.0331 -0.5767  0.3085
19774SOL     OW60422   3.165   1.763   8.966  0.4526  0.4268 -0.4508
19774SOL    HW160423   3.182   1.690   8.907  0.3223  0.2798 -0.3098
19774SOL    HW260424   3.225   1.749   9.039  0.3953  0.4339 -0.4021
19775SOL     OW60425   1.324   8.359   8.745 -0.1970 -0.0470  0.0070
19775SOL    HW160426   1.341   8.368   8.839 -0.0881  1.3443 -0.1251
19775SOL    HW260427   1.411   8.347   8.706  0.0858  2.0738 -0.1553
19776SOL     OW60428   8.388   2.903   1.611 -0.1627 -0.3289  0.7049
19776SOL    HW160429   8.318   2.961   1.581  1.3166  1.9096  1.3379
19776SOL    HW260430   8.468   2.940   1.573  1.0252 -1.1311  2.2921
19777SOL     OW60431   6.191   6.612   2.743  0.4766 -0.0957  0.0947
19777SOL    HW160432   6.171   6.520   2.762  0.5853 -0.0234  0.5794
19777SOL    HW260433   6.187   6.655   2.828  1.9377  0.0621  0.1178
19778SOL     OW60434   6.531   3.542   0.649 -0.1587 -0.2549  0.3457
19778SOL    HW160435   6.545   3.491   0.728 -1.0054 -0.8910  0.1043
19778SOL    HW260436   6.435   3.543   0.638 -0.2073  1.8064  0.6144
19779SOL     OW60437   4.998   8.847   7.052  0.3256 -0.2746 -0.3168
19779SOL    HW160438   4.932   8.876   6.989  0.3759  2.4604  0.7460
19779SOL    HW260439   5.082   8.864   7.009  0.3434  0.5617  0.0185
19780SOL     OW60440   8.401   0.607   7.175  0.7278 -0.5553 -0.3595
19780SOL    HW160441   8.464   0.547   7.135  0.8496 -0.7887  0.1814
19780SOL    HW260442   8.413   0.689   7.127 -1.0592 -1.5447 -2.7363
19781SOL     OW60443   8.631   8.380   8.286  0.2518  0.6828 -0.5646
19781SOL    HW160444   8.693   8.323   8.240 -0.4876  0.6145 -1.5063
19781SOL    HW260445   8.680   8.412   8.362  0.4178 -1.8765  0.4938
19782SOL     OW60446   7.478   4.227   2.918 -0.1893 -0.7202  0.0983
19782SOL    HW160447   7.389   4.212   2.886 -0.5953  0.3843  0.6617
19782SOL    HW260448   7.512   4.139   2.935 -1.4586 -1.1356  0.6480
19783SOL     OW60449   3.900   9.025   7.141  0.2830  0.1399 -0.4598
19783SOL    HW160450   3.874   8.971   7.066 -1.9328 -0.3589  0.6101
19783SOL    HW260451   3.821   9.072   7.166  1.3100  1.3074  0.7943
19784SOL     OW60452   0.106   8.345   0.615  0.4571  0.7216  0.0907
19784SOL    HW160453   0.041   8.415   0.612  0.0074  0.6008  3.2533
19784SOL    HW260454   0.190   8.390   0.617  0.2823  1.0595 -0.2078
19785SOL     OW60455   2.974   4.614   0.737  0.1477  0.3676  0.0214
19785SOL    HW160456   2.906   4.564   0.782 -0.3455  1.0862  0.0869
19785SOL    HW260457   3.045   4.621   0.801 -0.0380  0.3009  0.2361
19786SOL     OW60458   2.305   7.631   7.555  0.7435 -0.2793  0.2189
19786SOL    HW160459   2.352   7.683   7.621  0.1595  0.4116  0.1004
19786SOL    HW260460   2.269   7.695   7.494 -1.6849 -0.6305  1.1611
19787SOL     OW60461   3.783   5.069   2.160 -0.2445  0.2812 -0.1817
19787SOL    HW160462   3.873   5.036   2.159 -0.4478 -0.2912 -0.4770
19787SOL    HW260463   3.733   4.999   2.202 -0.2071  1.5883  2.2326
19788SOL     OW60464   2.926   3.161   1.707 -0.1279 -0.2753 -0.3136
19788SOL    HW160465   2.994   3.156   1.775  0.1401 -0.5292 -0.5973
19788SOL    HW260466   2.858   3.216   1.746  0.0684 -0.3329  0.1213
19789SOL     OW60467   6.830   3.008   3.919 -0.2609 -0.0507 -0.8446
19789SOL    HW160468   6.880   2.931   3.893  0.0239  0.3037 -1.3868
19789SOL    HW260469   6.743   2.994   3.881 -1.5230 -1.9533  2.3415
19790SOL     OW60470   7.224   4.559   3.169  0.0700  0.2264  0.3210
19790SOL    HW160471   7.140   4.592   3.137  0.3275  0.7314  0.1575
19790SOL    HW260472   7.271   4.533   3.090  0.4418  0.8422  0.3371
19791SOL     OW60473   6.474   3.539   3.922 -0.2686  0.2359 -0.5092
19791SOL    HW160474   6.499   3.459   3.875 -1.0965 -0.9906  1.0204
19791SOL    HW260475   6.557   3.585   3.938 -0.0558  1.5027 -4.3394
19792SOL     OW60476   0.094   4.922   7.332  0.0161 -0.6950 -0.3357
19792SOL    HW160477   0.030   4.977   7.378  2.9543  1.2561  1.7152
19792SOL    HW260478   0.084   4.945   7.239 -2.7017 -1.0762 -0.2203
19793SOL     OW60479   4.076   6.661   1.160  0.5979  0.2641 -0.1355
19793SOL    HW160480   4.052   6.736   1.106  0.3229  0.8996  0.8392
19793SOL    HW260481   4.149   6.693   1.214 -1.0606  0.6475  2.0093
19794SOL     OW60482   0.619   4.220   6.094 -0.0807 -0.1206  0.4058
19794SOL    HW160483   0.633   4.260   6.180  4.6422  0.2412 -0.2465
19794SOL    HW260484   0.610   4.295   6.034  0.2171 -0.2740  0.1696
19795SOL     OW60485   5.563   7.089   7.298  0.0103  0.1405 -0.3208
19795SOL    HW160486   5.544   7.015   7.240  0.4545  0.9601 -1.5469
19795SOL    HW260487   5.615   7.051   7.368  1.4452 -0.4952 -1.6590
19796SOL     OW60488   6.310   2.271   5.862  0.4720 -0.6872 -0.1926
19796SOL    HW160489   6.348   2.294   5.777  0.3260  0.6767  0.0917
19796SOL    HW260490   6.236   2.214   5.841 -0.4206  0.7562 -1.0846
19797SOL     OW60491   3.241   5.311   6.059  0.0879  0.0872  0.3701
19797SOL    HW160492   3.248   5.323   5.964 -0.1207  0.2831  0.3801
19797SOL    HW260493   3.256   5.398   6.096 -0.4190  0.1243  0.4899
19798SOL     OW60494   3.802   0.691   5.169 -0.8672  0.3905 -0.0376
19798SOL    HW160495   3.740   0.756   5.200 -0.3519  1.0897 -0.4575
19798SOL    HW260496   3.808   0.706   5.074  0.5943  0.9198  0.1142
19799SOL     OW60497   1.532   4.078   8.772  0.3691  0.5513 -0.1752
19799SOL    HW160498   1.563   4.077   8.681  0.1808  0.6939 -0.2394
19799SOL    HW260499   1.566   3.996   8.808  0.1211  0.3074 -0.4832
19800SOL     OW60500   8.549   3.776   8.291 -0.4305 -0.7849 -0.0560
19800SOL    HW160501   8.465   3.790   8.248  0.8883 -0.9464 -2.8932
19800SOL    HW260502   8.594   3.860   8.287  0.5698 -1.3284 -1.0736
19801SOL     OW60503   3.866   5.523   8.359 -0.0048 -0.2419 -0.2212
19801SOL    HW160504   3.951   5.528   8.403  0.3545  2.5005 -1.0240
19801SOL    HW260505   3.848   5.613   8.332 -2.8648 -0.8568 -0.6951
19802SOL     OW60506   3.573   2.902   4.463 -0.1950  0.5035  0.3426
19802SOL    HW160507   3.553   2.861   4.379 -0.1138  1.0776  0.0442
19802SOL    HW260508   3.664   2.931   4.456  0.7710 -1.8971  1.6210
19803SOL     OW60509   0.314   3.732   5.022  0.1756  0.4379  0.5684
19803SOL    HW160510   0.292   3.784   5.100 -0.0054  2.4794 -0.7728
19803SOL    HW260511   0.268   3.775   4.951 -0.9469 -2.3228 -0.5057
19804SOL     OW60512   4.974   1.907   1.409 -0.4356 -0.2460  0.4314
19804SOL    HW160513   4.913   1.835   1.421 -1.6471  0.4599 -1.0922
19804SOL    HW260514   4.942   1.953   1.331  1.7655  0.4448 -0.1417
19805SOL     OW60515   8.224   1.899   3.232  0.1652  0.4413 -0.5631
19805SOL    HW160516   8.278   1.975   3.211  2.3583 -0.8982 -0.0668
19805SOL    HW260517   8.159   1.895   3.161 -0.0856  2.7871 -0.5261
19806SOL     OW60518   3.809   5.747   3.942  0.1706 -0.0076 -0.3621
19806SOL    HW160519   3.895   5.712   3.964  0.5060  0.8758 -0.2219
19806SOL    HW260520   3.777   5.786   4.023 -0.2419 -0.0876 -0.4830
19807SOL     OW60521   4.803   0.104   1.842 -0.3567  0.1872  0.8642
19807SOL    HW160522   4.720   0.088   1.797 -0.4552  0.2987  1.0073
19807SOL    HW260523   4.790   0.186   1.889  0.3563  1.0458 -0.3729
19808SOL     OW60524   3.802   7.160   3.674  0.2605  0.2239  0.0153
19808SOL    HW160525   3.731   7.100   3.651 -0.8315  1.9702 -1.5167
19808SOL    HW260526   3.864   7.152   3.602  0.4166  0.4461  0.1219
19809SOL     OW60527   3.116   1.713   8.122  0.1372 -0.5074  0.0568
19809SOL    HW160528   3.162   1.720   8.038 -1.3013  0.2276 -0.7018
19809SOL    HW260529   3.075   1.799   8.134 -1.3417 -1.2445  0.5091
19810SOL     OW60530   1.432   4.531   6.282  0.3292 -0.0329  0.1834
19810SOL    HW160531   1.345   4.520   6.320  0.2319 -1.0921 -0.3072
19810SOL    HW260532   1.444   4.626   6.277 -0.5673  0.1253  0.7664
19811SOL     OW60533   2.044   0.981   8.819 -0.1121  0.0095  0.3306
19811SOL    HW160534   1.964   1.033   8.808  0.6776  0.8351 -2.3440
19811SOL    HW260535   2.115   1.045   8.813  0.8065 -1.0442 -0.6056
19812SOL     OW60536   5.575   3.755   6.222 -0.2698  0.6273  0.0030
19812SOL    HW160537   5.651   3.724   6.272 -2.1606 -2.2350  1.4241
19812SOL    HW260538   5.553   3.681   6.165 -2.7214  0.8038  0.6140
19813SOL     OW60539   1.114   0.898   2.323  0.3837  0.7393  0.0174
19813SOL    HW160540   1.032   0.945   2.339 -0.5390 -0.8570  0.1591
19813SOL    HW260541   1.163   0.955   2.263 -0.1873  2.3857  1.0377
19814SOL     OW60542   3.219   6.650   8.484 -0.2065  0.0070  0.7123
19814SOL    HW160543   3.158   6.639   8.557 -1.2986 -1.7753 -0.3878
19814SOL    HW260544   3.181   6.722   8.433  1.0510  1.8873  2.2821
19815SOL     OW60545   2.946   8.817   5.163 -0.4233 -0.1407  0.7370
19815SOL    HW160546   2.894   8.745   5.126  2.3152 -2.1670  0.5088
19815SOL    HW260547   3.025   8.819   5.110  1.0444  0.8296  2.8108
19816SOL     OW60548   6.279   7.399   3.573 -0.4694  0.0170 -0.2428
19816SOL    HW160549   6.238   7.485   3.567 -0.5883  0.0363  0.6793
19816SOL    HW260550   6.289   7.384   3.667 -0.9243 -1.2066 -0.3787
19817SOL     OW60551   0.167   0.386   7.218 -0.0785  0.2646 -0.3381
19817SOL    HW160552   0.221   0.352   7.147 -0.3927  0.2822 -0.5899
19817SOL    HW260553   0.227   0.398   7.291  0.3046  0.5210 -0.6908
19818SOL     OW60554   0.783   2.199   8.710  0.2124  0.2950  0.3281
19818SOL    HW160555   0.808   2.126   8.768  1.5897  1.2841  1.0296
19818SOL    HW260556   0.809   2.170   8.623  0.7437 -0.0558  0.6005
19819SOL     OW60557   3.838   6.978   1.532 -0.1148 -0.2036  0.4647
19819SOL    HW160558   3.900   6.905   1.543 -0.3660 -0.4788  0.0967
19819SOL    HW260559   3.876   7.031   1.462 -1.4770 -1.6979 -1.5387
19820SOL     OW60560   2.636   0.813   3.273  0.9671 -0.0989 -0.2135
19820SOL    HW160561   2.726   0.806   3.242  0.6383 -1.1946 -0.9930
19820SOL    HW260562   2.584   0.769   3.206  0.0417 -1.0542  1.0701
19821SOL     OW60563   7.283   8.081   2.372  0.1430  0.2934  0.2748
19821SOL    HW160564   7.347   8.038   2.428  0.2270 -0.1409 -0.1521
19821SOL    HW260565   7.200   8.072   2.420  0.2335  0.0248  0.3834
19822SOL     OW60566   2.607   6.337   1.413  0.6946  0.1856 -0.4484
19822SOL    HW160567   2.666   6.346   1.488 -0.3206  1.2675  0.2603
19822SOL    HW260568   2.561   6.255   1.429  0.3994  0.4688  0.1866
19823SOL     OW60569   5.511   3.343   6.943 -0.5910 -0.0458  0.5818
19823SOL    HW160570   5.443   3.307   6.999 -1.9466 -0.6411 -1.3350
19823SOL    HW260571   5.464   3.383   6.870  1.0824 -1.0106 -1.1332
19824SOL     OW60572   0.461   1.304   3.280  0.3332  0.4451 -0.1347
19824SOL    HW160573   0.485   1.237   3.216  1.2815 -0.4483  1.1053
19824SOL    HW260574   0.429   1.255   3.356 -1.3150  1.4908 -0.0951
19825SOL     OW60575   7.479   0.859   3.393 -0.6830  0.0517 -0.4803
19825SOL    HW160576   7.456   0.815   3.311  2.2080  1.1025 -1.9938
19825SOL    HW260577   7.573   0.843   3.403 -0.4636  2.0442  1.3250
19826SOL     OW60578   3.227   3.350   8.650  0.1026 -0.1443  0.4607
19826SOL    HW160579   3.144   3.338   8.605 -0.2571  0.1604  1.0254
19826SOL    HW260580   3.292   3.354   8.580 -0.5522  1.2854 -0.0975
19827SOL     OW60581   2.193   0.723   3.086  0.2404  0.0027 -0.3169
19827SOL    HW160582   2.154   0.714   3.173 -1.3992 -0.3184 -1.0484
19827SOL    HW260583   2.173   0.813   3.060 -1.9210 -0.7499 -1.5226
19828SOL     OW60584   7.408   5.586   9.051 -0.5781 -0.3764  0.3529
19828SOL    HW160585   7.385   5.661   9.106 -0.2106  1.0078 -1.3108
19828SOL    HW260586   7.496   5.607   9.018  0.3680 -2.4591  1.3340
19829SOL     OW60587   3.316   1.583   3.086  0.2048  0.2021 -0.5075
19829SOL    HW160588   3.284   1.514   3.029  2.0646 -1.3559  0.2062
19829SOL    HW260589   3.381   1.630   3.034  1.1257 -0.5416 -0.0614
19830SOL     OW60590   6.720   1.185   6.193 -0.3388 -0.1146 -0.8732
19830SOL    HW160591   6.778   1.171   6.268  0.0371 -3.5397 -1.6485
19830SOL    HW260592   6.640   1.222   6.231  0.2519 -0.6937  1.0492
19831SOL     OW60593   5.705   3.814   3.246  0.3789 -0.3204  0.7557
19831SOL    HW160594   5.683   3.891   3.299  1.0195  1.8885 -1.9910
19831SOL    HW260595   5.799   3.802   3.260  0.0837 -1.3916  2.0550
19832SOL     OW60596   2.177   7.594   3.110 -0.4096 -0.3524  0.1044
19832SOL    HW160597   2.180   7.592   3.205 -0.2565  0.1811  0.1141
19832SOL    HW260598   2.210   7.681   3.087 -0.4154 -0.4904 -0.4342
19833SOL     OW60599   3.798   6.839   5.319 -0.3160 -0.5222  0.1515
19833SOL    HW160600   3.889   6.812   5.329 -0.4488 -0.7528  0.7649
19833SOL    HW260601   3.757   6.767   5.270 -0.4958 -1.1155  1.1345
19834SOL     OW60602   1.765   2.016   4.486  0.2188 -0.0991 -0.0232
19834SOL    HW160603   1.830   1.980   4.546  1.0791 -0.0129 -0.8855
19834SOL    HW260604   1.737   1.942   4.433 -1.7445 -0.5317  1.5020
19835SOL     OW60605   4.380   4.341   6.967 -0.3378 -0.5520  0.2085
19835SOL    HW160606   4.361   4.268   6.907 -0.8503 -0.7441  0.6024
19835SOL    HW260607   4.430   4.403   6.913 -0.3874 -0.9352 -0.2897
19836SOL     OW60608   6.445   5.604   3.394  1.1195  0.3105 -0.7954
19836SOL    HW160609   6.483   5.539   3.454  2.2794  2.2888  0.7182
19836SOL    HW260610   6.351   5.602   3.413  0.9715 -1.5585 -1.4837
19837SOL     OW60611   8.749   3.714   5.750  0.2039  0.2296 -0.7844
19837SOL    HW160612   8.787   3.743   5.833 -0.3069 -1.0874 -0.0698
19837SOL    HW260613   8.789   3.628   5.735 -0.0910  0.2402 -1.6538
19838SOL     OW60614   6.889   3.982   1.566  0.1263  0.6407 -0.2928
19838SOL    HW160615   6.847   3.895   1.567 -0.1607  0.7604 -1.2147
19838SOL    HW260616   6.979   3.965   1.591 -0.6403  0.4949  2.7759
19839SOL     OW60617   8.667   8.874   5.582  0.1302 -0.6252  0.7099
19839SOL    HW160618   8.659   8.966   5.558  0.1103 -0.5215  1.1066
19839SOL    HW260619   8.579   8.838   5.569 -0.3816 -0.1149  2.4715
19840SOL     OW60620   7.121   7.733   3.272  0.7650  0.4781 -0.2933
19840SOL    HW160621   7.186   7.754   3.205 -0.6064 -1.9208 -2.5781
19840SOL    HW260622   7.155   7.654   3.314 -0.0772 -0.1056 -0.6884
19841SOL     OW60623   8.872   1.142   2.432  0.5783 -0.5505 -1.5191
19841SOL    HW160624   8.935   1.209   2.406  1.5344 -1.5146 -1.7503
19841SOL    HW260625   8.923   1.078   2.480 -0.6035 -0.3882  0.0308
19842SOL     OW60626   6.622   2.809   0.436  0.3112  0.0584  0.1713
19842SOL    HW160627   6.575   2.844   0.512 -0.1152 -0.6150  0.2263
19842SOL    HW260628   6.594   2.718   0.431  2.1498 -0.5559  0.6070
19843SOL     OW60629   4.766   5.110   2.508  0.0038 -0.0553 -0.1224
19843SOL    HW160630   4.766   5.176   2.439 -0.9579 -0.9773 -1.0470
19843SOL    HW260631   4.830   5.142   2.572  1.0927  0.7264 -1.5293
19844SOL     OW60632   6.349   0.629   4.761 -0.1286 -0.1400 -0.2278
19844SOL    HW160633   6.399   0.699   4.720  0.3017 -0.5250 -0.3649
19844SOL    HW260634   6.290   0.674   4.822  1.2831  0.2359  0.9015
19845SOL     OW60635   7.734   5.163   2.343 -0.2508  0.0332 -0.2825
19845SOL    HW160636   7.729   5.106   2.420  2.4563  0.7652  0.5326
19845SOL    HW260637   7.707   5.249   2.376 -0.7200  0.0106 -0.5977
19846SOL     OW60638   5.835   2.077   5.663 -0.5342  0.5892 -0.0699
19846SOL    HW160639   5.809   1.987   5.641  1.6846 -0.6653  1.9103
19846SOL    HW260640   5.776   2.132   5.612 -0.2492 -1.9386 -3.5629
19847SOL     OW60641   7.918   5.721   5.012  0.2696  0.0055 -0.2626
19847SOL    HW160642   7.844   5.663   4.992  0.3469 -0.2072  0.0554
19847SOL    HW260643   7.995   5.668   4.993  0.3750  0.8651 -2.4910
19848SOL     OW60644   9.051   4.706   8.241  0.0563  0.2058  0.4372
19848SOL    HW160645   9.144   4.689   8.255  0.0216 -0.2347  0.1274
19848SOL    HW260646   9.014   4.622   8.216 -0.6765  0.0914  1.7785
19849SOL     OW60647   2.309   6.783   6.919 -0.1625 -0.5802 -0.2742
19849SOL    HW160648   2.367   6.828   6.859  0.9348  1.4530  2.1502
19849SOL    HW260649   2.253   6.851   6.956 -1.8565 -1.9839 -0.0812
19850SOL     OW60650   5.396   8.724   3.782 -0.2920 -0.0730  0.1389
19850SOL    HW160651   5.381   8.679   3.865 -0.9059 -1.2025 -0.5532
19850SOL    HW260652   5.491   8.728   3.774 -0.2283 -0.1839  0.7751
19851SOL     OW60653   2.371   4.229   5.657  0.1049  0.1980  0.6161
19851SOL    HW160654   2.379   4.263   5.747  1.5789 -0.2941  0.6992
19851SOL    HW260655   2.334   4.302   5.607  1.4645  1.3038  1.1668
19852SOL     OW60656   8.442   4.860   6.699  0.3591 -0.2724  0.1202
19852SOL    HW160657   8.371   4.812   6.740  0.0246  0.7422  0.7786
19852SOL    HW260658   8.517   4.847   6.758 -0.5392  2.5403  2.0858
19853SOL     OW60659   5.264   5.161   5.486 -0.1314 -0.5657  0.1646
19853SOL    HW160660   5.228   5.204   5.409  1.5141 -0.9184 -0.8491
19853SOL    HW260661   5.318   5.089   5.451  2.8553  0.8806  1.4103
19854SOL     OW60662   8.687   2.278   3.817 -0.2314  0.0401 -0.6095
19854SOL    HW160663   8.722   2.343   3.756 -2.4576  0.4838 -1.5327
19854SOL    HW260664   8.738   2.289   3.897  2.0809  0.1787 -2.0142
19855SOL     OW60665   6.340   4.514   0.740 -0.0998 -0.6691 -0.0095
19855SOL    HW160666   6.364   4.506   0.833 -0.0147 -0.6087 -0.0260
19855SOL    HW260667   6.270   4.450   0.728  0.1058 -0.9044  0.0227
19856SOL     OW60668   5.470   8.582   1.016 -0.0767 -0.2996  0.0960
19856SOL    HW160669   5.412   8.593   0.941 -0.4719  0.9994  0.5569
19856SOL    HW260670   5.427   8.515   1.069 -2.1631  1.7934  1.2647
19857SOL     OW60671   8.876   6.512   8.044  0.6048 -0.3959 -0.5485
19857SOL    HW160672   8.893   6.604   8.061  1.7467 -0.5295 -0.8600
19857SOL    HW260673   8.783   6.500   8.064  0.4370  0.8198 -0.5339
19858SOL     OW60674   4.126   4.871   5.492  0.1168 -0.1097 -0.6954
19858SOL    HW160675   4.042   4.827   5.483 -0.6130  1.0337  0.2968
19858SOL    HW260676   4.133   4.893   5.585  1.2028  0.4128 -0.8751
19859SOL     OW60677   6.980   7.005   6.042  0.1643 -0.0049  0.7212
19859SOL    HW160678   7.011   7.091   6.071  0.2766  0.0873  0.3245
19859SOL    HW260679   6.905   7.024   5.985 -0.2859 -0.2044  1.2343
19860SOL     OW60680   3.832   4.999   5.704  0.9384  0.0863  0.0839
19860SOL    HW160681   3.841   5.077   5.759 -1.2936  1.6885 -1.6425
19860SOL    HW260682   3.869   5.025   5.620 -2.4887  0.4683 -1.4451
19861SOL     OW60683   2.535   5.497   4.135  0.2599 -0.4023 -0.1974
19861SOL    HW160684   2.604   5.553   4.098 -0.8314  0.8781 -0.3484
19861SOL    HW260685   2.548   5.412   4.092  0.8680  0.2162 -1.2952
19862SOL     OW60686   8.374   4.611   4.897  0.5204 -0.5115 -0.0715
19862SOL    HW160687   8.343   4.556   4.826 -0.0533 -1.2008  0.6873
19862SOL    HW260688   8.444   4.665   4.858  1.2577 -1.9263 -0.7817
19863SOL     OW60689   1.741   4.945   8.668  0.0174  0.3003 -0.1346
19863SOL    HW160690   1.711   4.972   8.755 -0.2473 -0.9052  0.1625
19863SOL    HW260691   1.661   4.920   8.622  0.2450  0.1634 -0.4599
19864SOL     OW60692   3.070   3.351   5.213 -0.6562  0.1177  0.3241
19864SOL    HW160693   3.086   3.362   5.307  0.3463 -0.3594  0.2308
19864SOL    HW260694   3.064   3.440   5.179 -0.3312  0.3041  0.7404
19865SOL     OW60695   5.859   2.913   3.479  0.0803  0.1960  0.3415
19865SOL    HW160696   5.948   2.907   3.444 -0.1263  0.2001 -0.1777
19865SOL    HW260697   5.814   2.975   3.422 -0.9613 -1.6131 -0.9023
19866SOL     OW60698   8.987   2.163   8.608  0.0804 -0.5180  0.2890
19866SOL    HW160699   8.900   2.150   8.644 -0.2452 -0.6523 -0.5221
19866SOL    HW260700   9.046   2.146   8.681 -0.6058  1.9560  1.5396
19867SOL     OW60701   5.185   8.649   4.727 -0.2747  0.2268  0.6723
19867SOL    HW160702   5.143   8.563   4.730  1.2232 -0.5768  0.1503
19867SOL    HW260703   5.251   8.646   4.797 -0.7572  1.2724  1.1895
19868SOL     OW60704   2.449   3.663   7.938  0.5346  0.3001  0.4121
19868SOL    HW160705   2.453   3.666   7.842  1.9432  1.6116  0.4723
19868SOL    HW260706   2.378   3.723   7.960  0.8732  0.7793  0.2152
19869SOL     OW60707   3.897   7.786   5.622 -0.4386 -0.1151  0.1232
19869SOL    HW160708   3.844   7.729   5.567 -0.6262  1.5415 -1.5254
19869SOL    HW260709   3.834   7.843   5.666 -0.1962 -0.5094  1.0202
19870SOL     OW60710   7.992   4.706   6.068  0.2560  0.2246  0.1519
19870SOL    HW160711   8.004   4.618   6.032 -0.4890 -0.1922  0.8761
19870SOL    HW260712   7.973   4.691   6.161  2.6934  1.3046  0.8841
19871SOL     OW60713   2.502   5.849   2.301  0.5771 -0.0160  0.2329
19871SOL    HW160714   2.466   5.936   2.284  2.1414  1.0262  1.8772
19871SOL    HW260715   2.505   5.842   2.396  2.0430 -1.1779  0.1417
19872SOL     OW60716   6.623   5.704   4.092  0.0417  0.1485  0.3760
19872SOL    HW160717   6.691   5.649   4.053 -1.4884 -1.2693 -0.4001
19872SOL    HW260718   6.541   5.658   4.073 -1.0128  0.8110  2.9028
19873SOL     OW60719   2.312   0.848   3.802 -0.3858  0.0598  0.0450
19873SOL    HW160720   2.314   0.857   3.897  1.6403  0.7475 -0.0136
19873SOL    HW260721   2.285   0.934   3.771 -1.5817 -0.3193 -0.0193
19874SOL     OW60722   4.918   5.482   7.338  0.5128  0.4491  0.1603
19874SOL    HW160723   4.930   5.556   7.279  0.2951 -0.0379 -0.5158
19874SOL    HW260724   4.983   5.494   7.407 -0.2993  1.9000  0.7227
19875SOL     OW60725   3.520   4.516   5.647 -0.0304 -0.3415 -0.1541
19875SOL    HW160726   3.512   4.607   5.617 -1.9256 -0.2980  0.3288
19875SOL    HW260727   3.503   4.464   5.569  3.2957 -0.3770 -0.9683
19876SOL     OW60728   3.501   0.889   8.784 -0.2949 -0.1305  0.4398
19876SOL    HW160729   3.546   0.956   8.731 -0.7901  1.7926  2.3354
19876SOL    HW260730   3.472   0.825   8.720  0.3207  1.3851 -1.4807
19877SOL     OW60731   7.103   4.510   4.024 -0.4589  0.8283  0.4527
19877SOL    HW160732   7.036   4.577   4.010 -0.1242  1.1327  0.2664
19877SOL    HW260733   7.186   4.558   4.019 -0.2445  0.5429  1.1962
19878SOL     OW60734   7.903   8.684   2.011 -0.8905  0.0648  0.1254
19878SOL    HW160735   7.890   8.731   1.929 -0.2970  0.7162  0.3966
19878SOL    HW260736   7.897   8.592   1.987 -2.7663  0.2622 -0.3038
19879SOL     OW60737   3.636   8.548   3.912 -0.2748 -0.3324 -0.1522
19879SOL    HW160738   3.624   8.622   3.853  1.2148 -1.3544 -1.8233
19879SOL    HW260739   3.582   8.478   3.875 -1.7713 -0.1143  1.4811
19880SOL     OW60740   5.444   3.474   3.169 -0.4312 -0.0223 -0.2635
19880SOL    HW160741   5.412   3.489   3.081  1.4329  0.7617 -0.8630
19880SOL    HW260742   5.446   3.379   3.179 -0.9736 -0.1059 -0.9459
19881SOL     OW60743   1.561   4.990   4.540 -0.1938  0.0403 -0.4313
19881SOL    HW160744   1.507   4.942   4.602  0.7556 -0.7825 -0.2200
19881SOL    HW260745   1.651   4.970   4.566  0.2226  1.2344 -0.8836
19882SOL     OW60746   5.048   1.186   4.470  0.3126 -0.2221 -0.6408
19882SOL    HW160747   4.954   1.168   4.468  0.4905 -1.5248  0.7803
19882SOL    HW260748   5.058   1.269   4.423 -1.3967 -0.6161 -1.8004
19883SOL     OW60749   4.888   7.404   5.565  0.2770  0.3293  0.4044
19883SOL    HW160750   4.938   7.471   5.611  1.1985 -0.3706  0.4594
19883SOL    HW260751   4.801   7.406   5.605 -0.0405  2.1619 -0.2721
19884SOL     OW60752   7.088   3.549   8.827 -0.0346 -0.2479  0.7101
19884SOL    HW160753   7.061   3.585   8.742  0.2755 -0.1474  0.6542
19884SOL    HW260754   7.094   3.455   8.812  0.2274 -0.2092  0.5619
19885SOL     OW60755   5.396   1.070   6.900  0.2588 -0.4198 -0.2728
19885SOL    HW160756   5.352   0.988   6.923 -1.6654  0.5265 -0.3277
19885SOL    HW260757   5.336   1.111   6.836  1.0639  1.1174 -0.0798
19886SOL     OW60758   1.419   4.072   3.638  0.3133  0.3588 -0.1668
19886SOL    HW160759   1.461   4.071   3.725 -0.5312 -1.4114  0.2499
19886SOL    HW260760   1.345   4.013   3.646  1.2442 -1.2898 -2.6009
19887SOL     OW60761   1.766   8.073   6.585  0.2356 -0.0631 -0.5881
19887SOL    HW160762   1.687   8.079   6.639  0.8432  1.5084  0.2004
19887SOL    HW260763   1.744   8.119   6.504  0.9448  2.2992  0.4752
19888SOL     OW60764   5.559   5.767   4.499 -0.1197  0.0870  0.6020
19888SOL    HW160765   5.526   5.794   4.585 -0.4239  2.4898 -0.1726
19888SOL    HW260766   5.552   5.846   4.445  0.9349 -1.0863 -1.3890
19889SOL     OW60767   3.083   7.780   2.974  0.5962 -0.1247 -0.1644
19889SOL    HW160768   3.037   7.750   3.052  1.8101 -1.8483 -0.0638
19889SOL    HW260769   3.103   7.872   2.991 -0.8524  0.0605  0.6958
19890SOL     OW60770   5.547   6.100   6.864  0.9586 -0.6165 -0.1708
19890SOL    HW160771   5.578   6.014   6.891  0.8528 -0.1764  1.4082
19890SOL    HW260772   5.562   6.102   6.769  0.1546 -2.6821 -0.3812
19891SOL     OW60773   0.278   0.235   4.832 -0.4613 -0.2610 -0.0073
19891SOL    HW160774   0.294   0.251   4.739 -0.6636  0.8271  0.1226
19891SOL    HW260775   0.247   0.320   4.865 -1.1634 -0.8468  0.8825
19892SOL     OW60776   7.308   4.488   8.260  0.3121  0.6926  0.1562
19892SOL    HW160777   7.385   4.454   8.307 -0.3471  0.1226  0.8615
19892SOL    HW260778   7.318   4.454   8.171  1.0292  0.8718  0.1632
19893SOL     OW60779   8.297   2.044   7.365  0.0700 -0.8218 -0.4808
19893SOL    HW160780   8.212   2.040   7.409 -0.1090 -1.2448 -0.8646
19893SOL    HW260781   8.285   1.996   7.283 -0.3084  2.0338 -2.2297
19894SOL     OW60782   0.237   4.701   1.760 -0.3647 -0.8879  0.0213
19894SOL    HW160783   0.142   4.687   1.758 -0.3452 -1.0875  0.3854
19894SOL    HW260784   0.257   4.712   1.853  0.0038 -1.1037 -0.0324
19895SOL     OW60785   3.121   6.047   8.083  0.6994 -0.1576 -0.2089
19895SOL    HW160786   3.108   6.138   8.111 -3.3473 -0.7249  0.2382
19895SOL    HW260787   3.180   6.055   8.008  0.2066  2.9054 -0.4249
19896SOL     OW60788   3.763   2.894   0.661 -0.1012 -0.1997  0.2034
19896SOL    HW160789   3.696   2.961   0.672  0.6226  0.7491 -0.9768
19896SOL    HW260790   3.845   2.937   0.687  0.5157 -0.2742 -1.5191
19897SOL     OW60791   1.887   7.626   4.778  0.4760 -0.1430  0.2525
19897SOL    HW160792   1.851   7.662   4.696 -0.8587  0.9575  1.2633
19897SOL    HW260793   1.955   7.689   4.803  0.8966 -0.4897 -0.0073
19898SOL     OW60794   6.068   7.553   7.782  0.1528 -0.6366  0.2392
19898SOL    HW160795   6.134   7.622   7.786 -0.4838  0.1127 -1.3333
19898SOL    HW260796   6.028   7.553   7.868 -0.4503  1.6137  0.0194
19899SOL     OW60797   6.326   4.819   6.711  0.6148  0.5085  0.3357
19899SOL    HW160798   6.287   4.892   6.665 -1.8309 -0.2550  1.0030
19899SOL    HW260799   6.332   4.848   6.802 -1.5120 -0.3998  0.8523
19900SOL     OW60800   2.026   0.511   8.462 -0.4010  0.3600 -0.1705
19900SOL    HW160801   2.080   0.571   8.411  2.8058 -1.6836  0.5449
19900SOL    HW260802   2.010   0.437   8.402 -0.9386  0.1914  0.1810
19901SOL     OW60803   7.637   5.646   8.852  0.4702 -0.3684  0.2072
19901SOL    HW160804   7.685   5.669   8.773 -0.3091  3.7390  0.7011
19901SOL    HW260805   7.705   5.626   8.916  1.3260  0.5258 -0.3884
19902SOL     OW60806   0.415   8.232   4.746  0.0067  0.2205 -0.0337
19902SOL    HW160807   0.482   8.231   4.677  0.1603  2.1459  0.0284
19902SOL    HW260808   0.464   8.248   4.827 -0.5224  2.3406 -0.0710
19903SOL     OW60809   0.581   4.558   8.334  0.3933  0.1833 -0.7159
19903SOL    HW160810   0.534   4.491   8.285  0.3206 -1.3942  1.3500
19903SOL    HW260811   0.673   4.543   8.312  0.2836  0.1894 -1.1855
19904SOL     OW60812   8.995   6.098   4.387 -0.5059 -0.2758 -0.7218
19904SOL    HW160813   9.034   6.030   4.442  0.2008 -0.2096 -1.1305
19904SOL    HW260814   8.901   6.089   4.401 -0.3225  0.2514  1.1180
19905SOL     OW60815   3.830   5.825   1.615  0.1174 -0.1044  0.3050
19905SOL    HW160816   3.850   5.907   1.569  1.0502 -1.2878 -1.5392
19905SOL    HW260817   3.894   5.762   1.582  0.7706 -1.1323  3.2100
19906SOL     OW60818   3.999   4.497   7.689 -0.6359 -0.4080 -0.3026
19906SOL    HW160819   4.045   4.576   7.659 -2.1860  0.0655 -1.5290
19906SOL    HW260820   4.070   4.438   7.715  0.6348  0.7289 -1.0107
19907SOL     OW60821   5.182   4.747   8.384  0.0141 -0.3470 -0.4767
19907SOL    HW160822   5.242   4.678   8.353  1.6430  0.0571  1.5511
19907SOL    HW260823   5.236   4.827   8.383 -0.8561  0.2648  0.2802
19908SOL     OW60824   3.514   0.195   7.326  0.0155 -0.2114  0.2306
19908SOL    HW160825   3.449   0.256   7.290  0.0267 -0.4300 -0.1654
19908SOL    HW260826   3.461   0.124   7.363 -0.0098  0.2032  1.0043
19909SOL     OW60827   8.286   0.492   4.244 -0.2429 -0.1011 -0.3551
19909SOL    HW160828   8.249   0.404   4.244  0.7664 -0.5492 -0.6314
19909SOL    HW260829   8.328   0.500   4.158  0.8674  0.1143  0.1842
19910SOL     OW60830   5.645   5.119   5.125 -0.3063  0.4682  0.1934
19910SOL    HW160831   5.589   5.044   5.147 -0.8244  1.5652  3.1039
19910SOL    HW260832   5.611   5.150   5.042  0.1111 -2.6161 -1.2860
19911SOL     OW60833   8.681   8.110   5.500  0.6496 -0.0829 -0.1012
19911SOL    HW160834   8.608   8.102   5.561  0.4322  0.0981 -0.3366
19911SOL    HW260835   8.685   8.025   5.456  0.6379 -0.1249 -0.0201
19912SOL     OW60836   5.889   1.483   6.295  0.2577  0.2546 -0.4368
19912SOL    HW160837   5.863   1.391   6.309  1.9449 -0.4211 -1.4409
19912SOL    HW260838   5.810   1.525   6.262  0.1016 -1.5129 -2.5641
19913SOL     OW60839   3.213   5.502   2.984  0.2095  0.0625 -0.3582
19913SOL    HW160840   3.200   5.407   2.982  2.2249 -0.2596 -2.3946
19913SOL    HW260841   3.129   5.538   2.953 -0.2820 -1.0969 -0.4370
19914SOL     OW60842   7.929   3.146   3.387 -0.2651  0.2330  0.0874
19914SOL    HW160843   8.016   3.141   3.426  0.1024 -1.6058 -0.8385
19914SOL    HW260844   7.929   3.228   3.339  0.4184  0.9603  1.2976
19915SOL     OW60845   6.108   0.323   4.868 -0.1138  0.1727 -0.1095
19915SOL    HW160846   6.174   0.391   4.853 -0.9099  1.5230  2.0178
19915SOL    HW260847   6.039   0.341   4.804  0.1203  0.7670 -0.1965
19916SOL     OW60848   0.944   8.559   2.447 -0.2110  0.0989  0.1896
19916SOL    HW160849   0.994   8.506   2.385 -1.4996 -0.5369 -0.3376
19916SOL    HW260850   0.854   8.530   2.437 -0.7433  1.3812  0.9453
19917SOL     OW60851   2.285   5.116   3.518  0.0214  0.2815 -0.7937
19917SOL    HW160852   2.317   5.203   3.539  0.3377  0.1384 -0.6783
19917SOL    HW260853   2.220   5.130   3.449  0.4511  0.5517 -1.1463
19918SOL     OW60854   0.760   3.324   8.922  0.3604  0.3896 -0.4846
19918SOL    HW160855   0.823   3.392   8.947 -0.5947  1.8680 -1.8800
19918SOL    HW260856   0.813   3.244   8.916  1.6960  1.1661  0.3568
19919SOL     OW60857   2.019   0.099   2.195  0.5384 -0.1561  0.0216
19919SOL    HW160858   1.955   0.050   2.144  1.2063 -0.5975 -0.3945
19919SOL    HW260859   2.020   0.056   2.281  0.1115 -0.0037  0.1047
19920SOL     OW60860   6.952   5.748   4.054 -0.0746 -0.5760 -0.0332
19920SOL    HW160861   6.944   5.653   4.044 -1.5103 -0.5290  0.3896
19920SOL    HW260862   6.977   5.759   4.146 -1.5522 -0.5191  0.3930
19921SOL     OW60863   6.555   7.132   2.902  0.1610  0.0342 -0.0981
19921SOL    HW160864   6.572   7.041   2.880 -1.1108 -0.6141  1.3976
19921SOL    HW260865   6.632   7.160   2.953 -0.6037 -1.1129  1.8093
19922SOL     OW60866   5.206   8.565   1.121  0.3607 -0.1599  0.5420
19922SOL    HW160867   5.144   8.506   1.079  1.1112  0.7500 -2.0309
19922SOL    HW260868   5.269   8.507   1.164 -0.5433 -1.1283  0.6071
19923SOL     OW60869   3.432   3.255   4.249 -0.1646  0.8420 -0.5450
19923SOL    HW160870   3.364   3.292   4.194 -1.2710  0.5059  0.5408
19923SOL    HW260871   3.472   3.331   4.292 -1.2290  0.9489  0.3218
19924SOL     OW60872   3.216   7.660   0.869 -0.1711 -0.6487 -0.1258
19924SOL    HW160873   3.206   7.742   0.918  1.7506 -0.4637  0.0525
19924SOL    HW260874   3.279   7.610   0.919 -0.2565 -1.6472 -0.9816
19925SOL     OW60875   7.367   3.250   6.333 -0.3685 -0.1947 -0.1083
19925SOL    HW160876   7.318   3.271   6.253 -0.5806  0.5745  0.2188
19925SOL    HW260877   7.307   3.195   6.384 -0.9293  0.7801  0.3099
19926SOL     OW60878   4.708   7.340   5.316 -0.8897 -0.0217  0.3315
19926SOL    HW160879   4.783   7.340   5.377 -0.0523 -2.3123 -0.5895
19926SOL    HW260880   4.748   7.355   5.230 -1.6940  0.2931  0.0115
19927SOL     OW60881   2.168   7.238   0.654 -0.2943 -0.4835  0.7738
19927SOL    HW160882   2.250   7.280   0.678  0.4903 -1.7502  0.4120
19927SOL    HW260883   2.110   7.253   0.728 -0.2151  1.5876  0.4791
19928SOL     OW60884   2.506   4.850   0.915 -0.4246  0.5658  0.0845
19928SOL    HW160885   2.492   4.774   0.858 -0.3195  1.5951 -1.3834
19928SOL    HW260886   2.601   4.855   0.926 -0.5155 -0.4462  1.5510
19929SOL     OW60887   3.009   3.938   4.436  0.8047 -0.7315 -0.2320
19929SOL    HW160888   2.990   3.987   4.356 -0.1640 -0.3086  0.2347
19929SOL    HW260889   2.937   3.961   4.495  1.3686 -1.2397  0.6669
19930SOL     OW60890   0.236   2.558   4.448 -0.1302  0.6631 -0.2416
19930SOL    HW160891   0.273   2.646   4.440  0.4963  0.3641 -0.6934
19930SOL    HW260892   0.146   2.568   4.417  0.3855  0.8549 -1.7656
19931SOL     OW60893   4.690   7.814   0.368  0.4190  0.4417 -0.1892
19931SOL    HW160894   4.774   7.832   0.411 -0.1396  0.7643  0.8049
19931SOL    HW260895   4.640   7.895   0.378  0.9600  1.2893 -3.2374
19932SOL     OW60896   6.293   1.127   4.533 -0.4679 -0.0661  0.3065
19932SOL    HW160897   6.325   1.077   4.458  0.1255 -0.7473  0.9923
19932SOL    HW260898   6.207   1.159   4.506 -0.4946 -0.7530 -0.4615
19933SOL     OW60899   3.548   0.235   0.243 -0.6690 -0.2959 -0.4178
19933SOL    HW160900   3.482   0.296   0.274  0.0942 -0.0810  0.8334
19933SOL    HW260901   3.594   0.282   0.173 -0.8829  0.0847 -0.3007
19934SOL     OW60902   8.623   8.756   0.945 -0.4249  0.1738  0.0278
19934SOL    HW160903   8.560   8.809   0.995  0.4549  0.9738  0.3157
19934SOL    HW260904   8.569   8.689   0.902 -1.5482  1.1879 -0.2060
19935SOL     OW60905   0.117   1.271   5.413  0.6692 -0.4768  0.3654
19935SOL    HW160906   0.063   1.219   5.353  1.9338 -0.8216 -0.5167
19935SOL    HW260907   0.054   1.322   5.464 -0.4854 -0.7891 -0.6924
19936SOL     OW60908   0.981   3.937   1.682 -0.4345  0.0004  0.3796
19936SOL    HW160909   1.007   3.991   1.756 -1.2660 -1.8917  2.1761
19936SOL    HW260910   0.942   3.998   1.620 -2.1774  1.4148  2.6751
19937SOL     OW60911   1.473   8.227   7.169 -0.2850 -0.0436  0.4706
19937SOL    HW160912   1.429   8.294   7.221 -0.7058  0.0874 -0.0420
19937SOL    HW260913   1.440   8.241   7.080  0.6369 -0.0777  0.1143
19938SOL     OW60914   7.219   3.066   2.476 -0.1959  0.4867 -0.1907
19938SOL    HW160915   7.263   3.067   2.561  0.2415 -0.0034 -0.4072
19938SOL    HW260916   7.128   3.047   2.497  0.0910 -0.6433  0.0943
19939SOL     OW60917   8.950   2.673   1.528 -0.3493 -0.0363 -0.0580
19939SOL    HW160918   8.903   2.600   1.568 -0.0896  0.8826  2.0040
19939SOL    HW260919   8.887   2.745   1.528  0.4490  0.6883  1.0598
19940SOL     OW60920   7.544   8.738   6.171  0.0752  0.2115 -0.0548
19940SOL    HW160921   7.620   8.702   6.216 -1.2730 -1.9184  0.6440
19940SOL    HW260922   7.546   8.831   6.191  3.3927  0.5726 -1.4561
19941SOL     OW60923   6.094   0.406   5.450 -1.1988  0.2791 -0.3290
19941SOL    HW160924   6.126   0.326   5.408 -2.7064 -0.3719 -0.3017
19941SOL    HW260925   6.016   0.379   5.498 -1.3842  1.6495  0.1941
19942SOL     OW60926   7.609   7.869   1.276 -0.1008  0.1128  0.2906
19942SOL    HW160927   7.526   7.849   1.233 -0.0704  0.0370  0.2663
19942SOL    HW260928   7.588   7.940   1.336  0.1945  1.3890 -1.0552
19943SOL     OW60929   5.226   1.972   2.776  0.0224  0.3512 -0.2617
19943SOL    HW160930   5.313   2.010   2.766  0.7053 -1.4963 -2.0273
19943SOL    HW260931   5.236   1.882   2.744 -2.3990 -0.1027  0.1055
19944SOL     OW60932   6.002   2.829   7.786 -0.0825 -0.4327 -0.6212
19944SOL    HW160933   6.067   2.763   7.809  0.1836 -0.9303 -2.5814
19944SOL    HW260934   5.925   2.807   7.839  0.8494 -0.7054  0.6578
19945SOL     OW60935   5.846   3.730   8.418  0.4947  0.1113  0.1397
19945SOL    HW160936   5.864   3.751   8.326  0.1528  2.4961  0.5581
19945SOL    HW260937   5.766   3.677   8.415  0.0549  0.7916 -0.8994
19946SOL     OW60938   1.676   6.844   2.592  0.7563 -0.1471 -0.5538
19946SOL    HW160939   1.739   6.915   2.599  0.1858  0.2126  2.1145
19946SOL    HW260940   1.708   6.790   2.520  2.4308  1.6151 -1.2008
19947SOL     OW60941   5.708   7.604   7.024 -0.3102  0.2347  0.3585
19947SOL    HW160942   5.629   7.582   7.072 -0.0554  0.3775  0.8503
19947SOL    HW260943   5.780   7.575   7.080  0.0048 -1.8699 -1.0098
19948SOL     OW60944   6.711   1.889   1.423 -0.6960 -0.5188 -0.5104
19948SOL    HW160945   6.710   1.797   1.450 -0.0913 -0.2741  0.3947
19948SOL    HW260946   6.695   1.938   1.504  1.0242  0.2399 -0.5892
19949SOL     OW60947   0.975   3.917   4.790 -0.2027 -0.3674  0.2795
19949SOL    HW160948   0.982   3.822   4.780  1.6238 -0.2908  0.4338
19949SOL    HW260949   0.990   3.931   4.884 -0.1428  0.0885  0.2018
19950SOL     OW60950   6.571   2.902   8.177 -0.1351  0.6534 -0.1858
19950SOL    HW160951   6.602   2.871   8.092  1.4885  0.1780  0.5341
19950SOL    HW260952   6.606   2.991   8.185 -0.0894  0.6142  0.0734
19951SOL     OW60953   4.522   7.549   0.818 -0.0142  0.5004 -0.4297
19951SOL    HW160954   4.570   7.630   0.832  0.2203  0.2030  0.6222
19951SOL    HW260955   4.589   7.481   0.820 -0.4835  0.0312  1.5577
19952SOL     OW60956   1.718   5.813   4.050  0.3192  0.2052 -0.0561
19952SOL    HW160957   1.705   5.897   4.005 -2.1986 -0.6529 -1.1117
19952SOL    HW260958   1.653   5.813   4.120  0.9137 -0.5315  0.5168
19953SOL     OW60959   1.161   2.276   0.412 -0.4473  0.4578  0.0569
19953SOL    HW160960   1.197   2.260   0.325 -0.8053 -2.9370  0.3857
19953SOL    HW260961   1.067   2.261   0.402 -0.6958  1.4471  0.7678
19954SOL     OW60962   8.764   4.088   5.158  0.0899 -0.3883  0.1574
19954SOL    HW160963   8.809   4.119   5.237 -0.6505  0.6493  0.1875
19954SOL    HW260964   8.807   4.133   5.086  1.1991 -1.8211 -0.1379
19955SOL     OW60965   2.485   7.939   5.508  0.6103 -0.5722  0.4551
19955SOL    HW160966   2.471   7.999   5.582 -1.6099  0.5180 -0.7497
19955SOL    HW260967   2.580   7.937   5.497  0.8242  1.9790  1.1975
19956SOL     OW60968   2.936   8.644   6.581 -0.2418  0.0040  0.2315
19956SOL    HW160969   3.014   8.682   6.623  1.8614 -1.2393 -2.2572
19956SOL    HW260970   2.915   8.704   6.511  0.1740 -0.9782 -0.7618
19957SOL     OW60971   1.113   0.376   6.975  0.5194  0.4957 -0.2924
19957SOL    HW160972   1.124   0.296   7.027 -0.5332  1.5660  1.7015
19957SOL    HW260973   1.019   0.394   6.979  0.8342  2.2577  0.0093
19958SOL     OW60974   7.269   6.379   3.504  0.3516  0.6914 -0.3642
19958SOL    HW160975   7.204   6.420   3.561 -0.0661 -1.1568  0.5514
19958SOL    HW260976   7.229   6.380   3.417 -0.3091  0.7988 -0.0635
19959SOL     OW60977   6.386   5.311   6.586 -0.0449 -0.1835  0.2855
19959SOL    HW160978   6.402   5.405   6.573 -1.5368 -0.0333 -0.7375
19959SOL    HW260979   6.340   5.306   6.670 -2.3468  0.3528 -0.8471
19960SOL     OW60980   3.634   7.994   6.985  0.2689 -1.0427 -0.4154
19960SOL    HW160981   3.718   7.988   7.032 -0.4104 -1.8182  0.7569
19960SOL    HW260982   3.568   7.993   7.054 -0.6992  1.4927 -1.2021
19961SOL     OW60983   0.539   6.053   1.052 -0.4080 -0.0941  0.5983
19961SOL    HW160984   0.634   6.058   1.068 -0.1990 -0.7885 -0.3625
19961SOL    HW260985   0.530   6.056   0.957 -1.3479 -0.1644  0.6770
19962SOL     OW60986   5.055   2.913   2.828 -0.2797 -0.1348  0.0444
19962SOL    HW160987   4.985   2.874   2.776  1.4861  0.1787 -2.7956
19962SOL    HW260988   5.114   2.840   2.849  0.3221  0.1284 -0.6778
19963SOL     OW60989   2.209   7.326   2.376 -0.0726 -0.2637  0.6756
19963SOL    HW160990   2.225   7.396   2.439  3.5759 -1.6501  1.5910
19963SOL    HW260991   2.263   7.349   2.300  0.3956 -1.5426  0.5958
19964SOL     OW60992   4.738   6.331   1.432 -0.0834  0.0809 -0.3319
19964SOL    HW160993   4.708   6.286   1.353 -0.2744  0.0281 -0.2304
19964SOL    HW260994   4.766   6.418   1.401 -0.1531  0.0584 -0.4578
19965SOL     OW60995   7.837   2.560   3.646 -0.1323  0.4354  0.2826
19965SOL    HW160996   7.903   2.544   3.714  0.7379 -0.7301 -0.8015
19965SOL    HW260997   7.888   2.583   3.568 -0.9746 -0.5823 -0.5975
19966SOL     OW60998   4.240   7.236   3.465  0.5448  0.4178 -0.5098
19966SOL    HW160999   4.284   7.152   3.452 -0.3572 -0.0571 -0.6213
19966SOL    HW261000   4.207   7.233   3.554 -3.7407 -1.5136 -1.8906
19967SOL     OW61001   7.108   8.879   8.707 -0.9921  0.0465  0.1210
19967SOL    HW161002   7.140   8.794   8.737 -0.1953  0.6494  1.0433
19967SOL    HW261003   7.159   8.897   8.628 -0.9058 -0.1812  0.1251
19968SOL     OW61004   2.441   2.097   0.922  0.9268  0.2191 -0.6453
19968SOL    HW161005   2.388   2.021   0.896 -1.5922  1.3124  0.8992
19968SOL    HW261006   2.492   2.067   0.997 -1.2933  0.3491  1.0344
19969SOL     OW61007   1.595   1.235   1.357  0.3278 -0.4607  0.1893
19969SOL    HW161008   1.533   1.203   1.291  0.7762  0.0453 -0.4919
19969SOL    HW261009   1.583   1.177   1.431 -0.4899 -0.7841 -0.1848
19970SOL     OW61010   8.853   1.985   0.358 -0.2238  0.0966 -0.0462
19970SOL    HW161011   8.927   1.925   0.364 -0.3491  0.0298  1.3762
19970SOL    HW261012   8.844   2.004   0.265  0.2387 -1.5676 -0.4625
19971SOL     OW61013   4.252   4.228   3.109 -0.1035 -0.0651  0.0010
19971SOL    HW161014   4.245   4.254   3.017  0.9318 -1.0818 -0.3869
19971SOL    HW261015   4.346   4.230   3.127 -0.3214  0.6533  1.2127
19972SOL     OW61016   0.097   5.928   0.128 -0.0429  0.1443  0.0558
19972SOL    HW161017   0.188   5.900   0.117 -0.3220 -0.1061 -2.0015
19972SOL    HW261018   0.092   6.011   0.081 -0.9660 -0.0463 -0.2017
19973SOL     OW61019   0.624   0.677   3.251 -0.5442 -0.6351  0.1331
19973SOL    HW161020   0.710   0.684   3.292 -0.5428  1.7311 -0.1448
19973SOL    HW261021   0.570   0.742   3.296 -1.1397  0.5271 -2.0735
19974SOL     OW61022   5.277   0.101   4.044  0.4956  0.0199  0.3176
19974SOL    HW161023   5.239   0.087   4.131  0.1199  0.3730  0.2106
19974SOL    HW261024   5.369   0.120   4.062  0.6745 -1.0132  0.5643
19975SOL     OW61025   3.495   6.718   5.786  0.4115  0.1735  0.3109
19975SOL    HW161026   3.570   6.728   5.727  1.1799 -2.0347  0.8366
19975SOL    HW261027   3.498   6.797   5.841  2.0207  0.4024 -0.0598
19976SOL     OW61028   0.073   6.695   2.771 -0.0901 -0.9797  0.0474
19976SOL    HW161029   0.059   6.647   2.690 -0.0124  0.3446 -0.7804
19976SOL    HW261030  -0.015   6.716   2.802 -0.1747  1.2712 -1.4408
19977SOL     OW61031   4.932   4.104   0.968 -0.2445  0.5140 -0.5970
19977SOL    HW161032   4.879   4.052   1.028 -0.3488 -0.2531 -1.3465
19977SOL    HW261033   4.912   4.070   0.881  3.3037 -1.5442 -0.7980
19978SOL     OW61034   6.738   0.302   5.620  0.2046 -0.5797  0.0079
19978SOL    HW161035   6.786   0.230   5.579  2.6617  0.5983  0.5805
19978SOL    HW261036   6.703   0.353   5.546 -0.9015 -1.8899 -0.4097
19979SOL     OW61037   2.148   2.116   6.931 -0.0859  0.0707 -0.4946
19979SOL    HW161038   2.134   2.077   6.845 -0.5927  0.0530 -0.4096
19979SOL    HW261039   2.193   2.048   6.981  1.0161  0.4011 -1.0025
19980SOL     OW61040   7.790   7.258   0.965 -0.2723  0.0615 -0.5214
19980SOL    HW161041   7.847   7.235   0.892 -3.3447 -1.0636 -2.7990
19980SOL    HW261042   7.715   7.199   0.957 -2.6310  2.5430  1.1345
19981SOL     OW61043   6.420   3.960   3.988  0.5275  0.1175  0.2478
19981SOL    HW161044   6.369   3.947   3.909  0.4449 -1.7287  0.5573
19981SOL    HW261045   6.426   4.055   3.998 -1.5357  0.3789 -0.6134
19982SOL     OW61046   1.763   6.374   4.510  0.2828 -0.0823  0.1723
19982SOL    HW161047   1.671   6.347   4.518 -0.6356  2.1529 -1.7662
19982SOL    HW261048   1.791   6.387   4.601 -1.5067 -0.2487  0.8006
19983SOL     OW61049   8.711   1.863   4.400  0.0067  0.2012  0.0346
19983SOL    HW161050   8.726   1.770   4.419 -0.3711  0.1782  0.2130
19983SOL    HW261051   8.680   1.899   4.483  1.5740  0.8065  0.4090
19984SOL     OW61052   3.283   1.615   7.560  1.6756 -0.0334  0.0036
19984SOL    HW161053   3.265   1.615   7.654  2.8157 -0.1179  0.2385
19984SOL    HW261054   3.340   1.691   7.547 -1.1395  2.0517 -1.2042
19985SOL     OW61055   5.873   6.861   8.855  0.4963 -0.1227 -0.3313
19985SOL    HW161056   5.842   6.950   8.841 -0.2958 -0.4538 -0.7106
19985SOL    HW261057   5.863   6.818   8.770 -1.6693 -1.3332  0.4795
19986SOL     OW61058   6.714   2.742   0.138 -0.3053 -0.2980 -0.4147
19986SOL    HW161059   6.632   2.790   0.145 -0.2497 -0.3096  0.4810
19986SOL    HW261060   6.695   2.657   0.180 -0.3670 -1.0271 -1.8470
19987SOL     OW61061   7.564   4.988   0.607  0.7047  0.4642  0.4762
19987SOL    HW161062   7.571   4.988   0.703  2.2349 -0.8443  0.4064
19987SOL    HW261063   7.601   5.072   0.581 -0.8521  1.3808  1.0488
19988SOL     OW61064   6.478   6.691   6.013  0.2080 -0.4874  0.0253
19988SOL    HW161065   6.519   6.765   6.056 -0.1394 -0.3568  0.1280
19988SOL    HW261066   6.433   6.644   6.083 -0.3476 -0.2793 -0.1904
19989SOL     OW61067   4.157   8.903   6.828 -0.6992 -0.1073 -0.0946
19989SOL    HW161068   4.163   8.821   6.878 -0.2732 -1.3473 -2.0934
19989SOL    HW261069   4.210   8.965   6.878 -1.1464 -0.9836  1.5376
19990SOL     OW61070   5.339   5.578   8.919  0.1074  0.1702  0.3322
19990SOL    HW161071   5.293   5.550   8.998 -2.8921  0.3301 -1.2140
19990SOL    HW261072   5.380   5.661   8.943 -0.6783  0.1802  1.7448
19991SOL     OW61073   4.807   8.744   4.781  0.7277 -0.1435  0.7962
19991SOL    HW161074   4.846   8.824   4.745  0.6088 -0.4292  0.0114
19991SOL    HW261075   4.720   8.771   4.809  0.4604 -0.1384 -0.0378
19992SOL     OW61076   5.264   0.390   2.344 -0.1585  0.4007  0.2020
19992SOL    HW161077   5.319   0.426   2.274 -0.1437  2.2952  1.1309
19992SOL    HW261078   5.327   0.353   2.407 -0.0712  0.4504  0.1434
19993SOL     OW61079   3.846   1.697   8.478 -0.1117  0.2062  0.4897
19993SOL    HW161080   3.825   1.678   8.569  2.9107  0.2458  1.2872
19993SOL    HW261081   3.939   1.675   8.469 -0.3702 -0.0890 -2.6814
19994SOL     OW61082   1.115   5.455   1.146 -0.1183 -0.6848 -0.8358
19994SOL    HW161083   1.058   5.395   1.194  0.7295 -0.7941  0.0790
19994SOL    HW261084   1.154   5.510   1.214 -1.5087  1.5041 -1.7074
19995SOL     OW61085   3.899   1.140   3.371  0.1839 -0.3419  0.0264
19995SOL    HW161086   3.854   1.213   3.329 -0.6040 -1.7668 -1.7753
19995SOL    HW261087   3.929   1.174   3.455 -0.5925  1.8715 -0.5437
19996SOL     OW61088   0.262   0.758   6.829  0.1494 -0.0131 -0.0525
19996SOL    HW161089   0.198   0.690   6.807 -1.6121  2.1023 -2.0319
19996SOL    HW261090   0.293   0.790   6.744  0.0690  2.3362  0.7094
19997SOL     OW61091   0.224   5.552   4.360 -0.2211 -0.3316 -0.3462
19997SOL    HW161092   0.142   5.600   4.350 -0.4370 -0.3216  1.2384
19997SOL    HW261093   0.198   5.464   4.387  0.2563 -0.7510 -1.1997
19998SOL     OW61094   7.041   7.663   7.223 -0.5463  0.6612  0.0396
19998SOL    HW161095   7.078   7.749   7.242 -1.4216  1.2496 -0.7766
19998SOL    HW261096   7.109   7.617   7.174  0.1016  0.7087  0.8898
19999SOL     OW61097   8.725   3.520   7.713 -0.1391 -0.3266 -0.0624
19999SOL    HW161098   8.684   3.434   7.724  0.4589 -0.5647  0.3776
19999SOL    HW261099   8.651   3.581   7.709 -0.6032 -0.9368 -1.2280
20000SOL     OW61100   3.467   5.217   3.181  0.4484  0.1566  0.3075
20000SOL    HW161101   3.477   5.133   3.136  1.3925  0.0566  0.6834
20000SOL    HW261102   3.377   5.217   3.212 -0.1603  0.1286 -1.3701
20001SOL     OW61103   7.749   2.615   0.480  0.2226 -0.0767 -0.2594
20001SOL    HW161104   7.708   2.595   0.396 -0.5859 -1.9928  0.5236
20001SOL    HW261105   7.687   2.673   0.524 -0.3440 -0.7198 -0.1927
20002SOL     OW61106   5.958   0.051   4.792  0.1759 -0.0208 -0.1369
20002SOL    HW161107   5.872   0.076   4.759  0.3386  0.4459 -0.2155
20002SOL    HW261108   5.973  -0.037   4.757 -0.8434 -0.6685  0.9830
20003SOL     OW61109   5.210   3.519   8.377  0.3370 -0.1440  0.5822
20003SOL    HW161110   5.175   3.452   8.317 -0.9400  1.7556 -0.9203
20003SOL    HW261111   5.133   3.569   8.403  1.3629  1.2188  1.0387
20004SOL     OW61112   5.057   1.456   4.409  0.1643  0.3112  0.6269
20004SOL    HW161113   5.029   1.502   4.330 -0.7812 -0.6258  0.3871
20004SOL    HW261114   5.149   1.480   4.420  0.6399 -0.3688 -1.3575
20005SOL     OW61115   2.578   7.925   0.524 -0.2675 -0.2037 -0.2632
20005SOL    HW161116   2.567   8.005   0.576  1.3607 -0.7395  0.9888
20005SOL    HW261117   2.523   7.860   0.568  1.7756 -0.8930  1.4407
20006SOL     OW61118   0.087   8.027   9.008  0.0854 -0.6066 -0.0573
20006SOL    HW161119   0.083   8.036   8.913 -0.9657 -0.9259 -0.0586
20006SOL    HW261120   0.096   8.117   9.040 -0.6993 -0.3822 -0.4267
20007SOL     OW61121   9.014   6.935   3.889  0.2370 -0.1090  0.1253
20007SOL    HW161122   8.957   6.907   3.961 -0.2139  1.4000  0.3912
20007SOL    HW261123   8.985   7.025   3.870  1.8387  0.3085 -0.4341
20008SOL     OW61124   7.590   4.592   1.698 -0.1160  0.5211  0.5559
20008SOL    HW161125   7.664   4.588   1.637 -0.0475 -0.1854  0.6795
20008SOL    HW261126   7.540   4.668   1.670 -0.4937 -0.2184 -0.8609
20009SOL     OW61127   6.885   4.232   8.193  0.1349  0.2306  0.1136
20009SOL    HW161128   6.936   4.164   8.150 -0.8848 -0.5269  0.0595
20009SOL    HW261129   6.945   4.272   8.256  0.4497 -1.4697  0.9436
20010SOL     OW61130   9.056   2.657   5.023 -0.1530  0.1982  0.6419
20010SOL    HW161131   9.057   2.661   5.119  1.1633 -0.9741  0.7099
20010SOL    HW261132   9.148   2.668   4.998 -0.5052  0.6706 -0.5094
20011SOL     OW61133   6.270   6.557   5.568 -0.1173 -0.1232 -0.3777
20011SOL    HW161134   6.332   6.543   5.496 -0.0418  1.6131 -0.6978
20011SOL    HW261135   6.319   6.533   5.647  0.5156 -0.0174 -0.7317
20012SOL     OW61136   3.872   3.024   2.917  0.2058  0.2223  0.1616
20012SOL    HW161137   3.921   2.958   2.869  0.3560  1.0661 -0.8832
20012SOL    HW261138   3.902   3.016   3.007  0.2349 -1.1085  0.0494
20013SOL     OW61139   6.285   8.843   7.800  0.3623 -0.0371  0.6850
20013SOL    HW161140   6.256   8.752   7.805 -0.7268  0.0791 -1.9415
20013SOL    HW261141   6.243   8.886   7.875 -2.4462 -0.9159 -0.2759
20014SOL     OW61142   0.769   5.517   5.240  0.4909 -0.4187  0.1538
20014SOL    HW161143   0.706   5.589   5.251  0.0596 -0.6198 -0.9399
20014SOL    HW261144   0.852   5.560   5.223  0.1589 -0.1754 -0.8769
20015SOL     OW61145   8.021   2.482   3.818 -0.6261 -0.2163  0.2398
20015SOL    HW161146   8.103   2.525   3.797 -1.1660  1.0010  0.5460
20015SOL    HW261147   8.040   2.388   3.811  0.3965  0.0701 -1.1225
20016SOL     OW61148   9.033   4.572   6.937  0.1665 -0.1770 -0.2642
20016SOL    HW161149   9.008   4.562   6.845  4.6618 -2.5163 -1.5323
20016SOL    HW261150   9.102   4.639   6.935  0.2384 -0.1550  1.4772
20017SOL     OW61151   2.250   4.083   9.124  0.3121  0.3220  0.4049
20017SOL    HW161152   2.187   4.057   9.057  1.1130  1.5030 -0.8549
20017SOL    HW261153   2.240   4.177   9.132  0.9440  0.3336  1.2152
20018SOL     OW61154   5.642   3.012   8.664  0.3296  0.0563 -0.0609
20018SOL    HW161155   5.595   3.012   8.581  0.5889  1.1409 -0.2209
20018SOL    HW261156   5.631   3.100   8.699  3.4179  0.8730 -0.8143
20019SOL     OW61157   7.042   6.025   5.072 -0.2624  0.5274  0.0908
20019SOL    HW161158   7.009   6.038   5.161 -1.2081  1.2602 -0.3553
20019SOL    HW261159   7.074   5.934   5.071  1.2022  0.9776  1.6185
20020SOL     OW61160   4.520   5.538   2.506  0.2052 -0.1269 -0.2425
20020SOL    HW161161   4.496   5.499   2.422  2.1429 -1.4271 -0.2691
20020SOL    HW261162   4.562   5.621   2.482  0.5877 -0.4068 -0.5741
20021SOL     OW61163   5.109   0.610   2.327 -0.1008 -0.2146 -0.5400
20021SOL    HW161164   5.157   0.528   2.340 -0.0210  0.0566  1.0806
20021SOL    HW261165   5.177   0.677   2.323 -0.1129 -0.2553 -2.6040
20022SOL     OW61166   7.299   0.408   1.411  0.3144  0.2423  0.0545
20022SOL    HW161167   7.305   0.438   1.502  0.9692  1.0536 -0.2411
20022SOL    HW261168   7.209   0.376   1.403  1.1021 -2.8209  1.8429
20023SOL     OW61169   6.837   0.901   2.399  0.9589 -0.3332 -0.0674
20023SOL    HW161170   6.745   0.893   2.426  1.1051  0.2787  0.6364
20023SOL    HW261171   6.866   0.985   2.435  1.1422  0.6146 -2.2548
20024SOL     OW61172   8.273   3.599   5.318  0.1965  0.0360  0.2114
20024SOL    HW161173   8.243   3.688   5.300 -2.0135 -0.6074  0.4212
20024SOL    HW261174   8.292   3.599   5.412 -2.1807 -0.2738  0.7593
20025SOL     OW61175   4.424   2.349   4.213 -0.6314 -0.0591  0.2323
20025SOL    HW161176   4.408   2.259   4.241 -0.0631 -0.0357  0.6347
20025SOL    HW261177   4.428   2.343   4.118  0.2568 -0.6059  0.2931
20026SOL     OW61178   0.873   5.300   8.975  0.3843  0.2229  0.3092
20026SOL    HW161179   0.799   5.273   9.029  0.8111 -0.0483  0.7691
20026SOL    HW261180   0.934   5.340   9.036  1.0078 -0.3600  0.0878
20027SOL     OW61181   7.825   3.165   6.203  0.2038  0.0267  0.2710
20027SOL    HW161182   7.743   3.116   6.205  0.3025 -0.6726 -3.7721
20027SOL    HW261183   7.799   3.255   6.223 -1.4680 -0.2915 -0.2972
20028SOL     OW61184   5.857   7.105   5.207 -0.1688  0.8597  0.0523
20028SOL    HW161185   5.783   7.161   5.230 -0.8271  0.1707 -0.3476
20028SOL    HW261186   5.926   7.166   5.181 -1.3376  1.4904 -1.8068
20029SOL     OW61187   2.463   2.952   1.929 -0.1342  0.3488 -0.0670
20029SOL    HW161188   2.485   3.022   1.866  0.0764 -0.5219 -0.9961
20029SOL    HW261189   2.497   2.872   1.888  0.2798 -0.2134  1.3117
20030SOL     OW61190   6.752   0.445   0.923 -0.2951  0.2889  0.1325
20030SOL    HW161191   6.798   0.528   0.933  2.8877 -1.3960  0.6209
20030SOL    HW261192   6.685   0.446   0.992  0.8744  1.7193  1.3097
20031SOL     OW61193   9.094   7.243   6.956 -0.2129  0.3386 -0.4465
20031SOL    HW161194   9.174   7.258   7.006 -0.6484  0.7384  0.1320
20031SOL    HW261195   9.061   7.331   6.937  0.3646  0.2328 -2.1332
20032SOL     OW61196   8.098   4.830   5.802 -0.2098  0.7939 -0.1540
20032SOL    HW161197   8.039   4.773   5.852 -0.5632  0.3901 -1.0114
20032SOL    HW261198   8.078   4.918   5.832 -0.5350  0.5723  0.2926
20033SOL     OW61199   1.984   4.491   0.430  0.4392 -0.3198 -0.3344
20033SOL    HW161200   2.002   4.558   0.365 -1.0388  0.7772  0.3474
20033SOL    HW261201   1.978   4.538   0.513 -3.3857 -0.7676 -0.1812
20034SOL     OW61202   3.258   5.882   3.742  0.1201  0.0341 -0.3578
20034SOL    HW161203   3.170   5.896   3.707  0.2446 -0.9551 -1.0790
20034SOL    HW261204   3.279   5.792   3.720  1.5680  0.4410 -0.7491
20035SOL     OW61205   7.131   0.563   7.485  0.3258 -0.3791 -0.2368
20035SOL    HW161206   7.203   0.562   7.548 -0.5130 -0.7460  0.7314
20035SOL    HW261207   7.115   0.656   7.469  0.3983 -0.2765  0.2666
20036SOL     OW61208   4.313   3.973   5.540 -0.7138 -0.3536  0.2720
20036SOL    HW161209   4.275   3.983   5.627 -1.8718  0.7343 -0.3289
20036SOL    HW261210   4.405   4.000   5.550 -1.1918  1.1285  0.8819
20037SOL     OW61211   3.821   0.757   5.527  0.5293 -0.2347  0.1485
20037SOL    HW161212   3.851   0.826   5.586  1.9684 -0.3437 -0.4052
20037SOL    HW261213   3.827   0.796   5.439  0.1401 -0.6520 -0.0650
20038SOL     OW61214   3.542   8.194   9.053 -0.1297 -0.6269  0.3018
20038SOL    HW161215   3.451   8.170   9.034  0.0309 -0.3713 -0.8932
20038SOL    HW261216   3.564   8.258   8.985  1.0622 -0.9824  0.3346
20039SOL     OW61217   5.116   5.205   2.533  0.1400  0.9903 -0.1096
20039SOL    HW161218   5.120   5.111   2.548  2.6192  1.3360  2.1325
20039SOL    HW261219   5.053   5.237   2.598  0.4736  1.0200  0.2043
20040SOL     OW61220   4.686   7.791   2.080  0.6980 -0.1970 -0.1809
20040SOL    HW161221   4.692   7.843   2.160 -0.5259 -2.8703  1.8351
20040SOL    HW261222   4.618   7.726   2.100  1.1403 -1.6544 -3.0148
20041SOL     OW61223   8.121   1.763   2.422  0.2040  0.7249 -0.8977
20041SOL    HW161224   8.063   1.806   2.360 -0.0750 -0.8090 -1.7611
20041SOL    HW261225   8.203   1.752   2.375  0.4842  0.9023 -0.4551
20042SOL     OW61226   1.588   2.490   2.723  0.1479 -0.5044  0.1082
20042SOL    HW161227   1.622   2.467   2.809 -0.6768  0.9126  0.8595
20042SOL    HW261228   1.495   2.465   2.726  0.2524 -1.0067 -0.5960
20043SOL     OW61229   1.568   6.917   2.967 -0.2946  0.5376  0.0827
20043SOL    HW161230   1.499   6.965   3.014 -0.7053  0.1096 -0.0834
20043SOL    HW261231   1.648   6.939   3.015 -0.5000  1.2505  0.1213
20044SOL     OW61232   0.882   8.275   5.965  0.0184  0.1147  0.0768
20044SOL    HW161233   0.923   8.318   5.890  2.2888  0.5335  1.4717
20044SOL    HW261234   0.861   8.347   6.026  0.4692 -0.4186  0.8808
20045SOL     OW61235   3.675   5.252   6.687 -0.3475  0.1697 -0.7245
20045SOL    HW161236   3.642   5.340   6.699  0.0962  0.1848  0.5721
20045SOL    HW261237   3.604   5.195   6.716  0.3257  0.1869  1.1353
20046SOL     OW61238   3.079   1.927   7.921  0.1338  0.4640  0.0770
20046SOL    HW161239   3.135   1.993   7.961  0.8013 -0.0534  0.0321
20046SOL    HW261240   3.001   1.924   7.976  0.8806  0.0182  1.1556
20047SOL     OW61241   8.756   0.822   4.687 -0.1402  0.0772 -0.0871
20047SOL    HW161242   8.792   0.820   4.775 -1.8747  0.1030  0.6533
20047SOL    HW261243   8.758   0.731   4.658  2.1675  0.2954 -0.8073
20048SOL     OW61244   0.600   2.475   3.467 -0.0801  0.0910 -0.5588
20048SOL    HW161245   0.526   2.516   3.423 -1.2133 -1.2964 -0.0187
20048SOL    HW261246   0.658   2.548   3.491 -2.7805  1.6174  1.8689
20049SOL     OW61247   0.309   2.133   5.141 -0.4036 -0.6191  0.3794
20049SOL    HW161248   0.335   2.047   5.175 -1.6644 -0.7085  1.1557
20049SOL    HW261249   0.298   2.187   5.219  1.3444  0.5785 -0.1321
20050SOL     OW61250   6.577   2.895   6.881  0.3235  0.4313 -0.4734
20050SOL    HW161251   6.649   2.838   6.907 -0.8925 -1.3537 -0.7952
20050SOL    HW261252   6.556   2.868   6.792  0.4299  2.2023 -1.0747
20051SOL     OW61253   1.381   2.323   2.074 -0.0653  0.2887 -0.5439
20051SOL    HW161254   1.389   2.239   2.119 -2.6196 -0.2043 -0.8087
20051SOL    HW261255   1.292   2.322   2.039 -0.5126  3.4807  0.1857
20052SOL     OW61256   0.844   7.947   5.614 -0.0812 -0.0790  0.2309
20052SOL    HW161257   0.878   8.012   5.674  3.0112  2.6522 -3.9404
20052SOL    HW261258   0.750   7.965   5.610  0.4106  3.0262  0.5581
20053SOL     OW61259   3.518   8.960   7.342 -0.7746 -0.0606  0.0710
20053SOL    HW161260   3.597   8.942   7.393 -0.3514  1.2177 -0.0973
20053SOL    HW261261   3.515   8.890   7.276  0.2595 -0.0856  0.0355
20054SOL     OW61262   8.913   7.354   0.431 -0.4519  0.3724 -0.4332
20054SOL    HW161263   8.869   7.409   0.496  2.0812  1.2113  0.7205
20054SOL    HW261264   8.921   7.269   0.474  1.3549  0.9667  0.5335
20055SOL     OW61265   8.414   6.260   0.115 -0.4699 -0.4732  0.9554
20055SOL    HW161266   8.426   6.166   0.128  0.4167 -0.6599 -0.8774
20055SOL    HW261267   8.348   6.267   0.045  1.3887  0.1287 -0.8453
20056SOL     OW61268   9.005   7.899   2.116  0.2783  0.0729 -0.0447
20056SOL    HW161269   9.027   7.944   2.198 -1.8508  2.5993 -0.7416
20056SOL    HW261270   8.923   7.854   2.135 -0.0843  0.4543 -0.6797
20057SOL     OW61271   4.657   6.861   8.715  0.2971 -0.5637  0.1695
20057SOL    HW161272   4.690   6.821   8.796  0.2246 -0.0760  0.4488
20057SOL    HW261273   4.727   6.922   8.690 -0.3619  0.4570  0.7462
20058SOL     OW61274   6.345   0.199   8.060 -0.3388 -0.0079 -0.1412
20058SOL    HW161275   6.371   0.151   7.981  0.5929  0.4805 -0.1353
20058SOL    HW261276   6.312   0.282   8.027 -1.3746 -0.3808 -0.1038
20059SOL     OW61277   4.331   5.664   2.295  0.2539  0.5846 -0.3088
20059SOL    HW161278   4.258   5.689   2.238 -0.6752  1.4044  1.1734
20059SOL    HW261279   4.381   5.744   2.306 -0.6989  0.9821  1.5655
20060SOL     OW61280   3.770   7.424   2.895 -0.0737  0.0949  0.2226
20060SOL    HW161281   3.781   7.510   2.935  0.3544 -0.0729  0.4704
20060SOL    HW261282   3.844   7.373   2.927 -0.2270 -0.3129 -0.0665
20061SOL     OW61283   8.507   4.813   7.284 -0.0005 -0.6214  0.2020
20061SOL    HW161284   8.519   4.721   7.257  0.2857  0.4211 -4.0474
20061SOL    HW261285   8.589   4.856   7.259 -1.5299  1.4074 -1.7983
20062SOL     OW61286   8.889   3.926   6.219 -0.0500 -0.0688  0.4330
20062SOL    HW161287   8.973   3.971   6.214 -0.0638  0.2058  2.0050
20062SOL    HW261288   8.824   3.994   6.203 -0.0073 -0.0734  0.2346
20063SOL     OW61289   4.469   6.526   8.228  0.5273 -0.3095 -0.3758
20063SOL    HW161290   4.518   6.491   8.303  1.5858 -0.1159 -0.9590
20063SOL    HW261291   4.533   6.528   8.156 -0.2898  0.1370 -1.1097
20064SOL     OW61292   6.074   4.585   0.490  0.1552  0.1110  0.4136
20064SOL    HW161293   6.075   4.638   0.570  0.2617  1.5373 -0.5132
20064SOL    HW261294   5.987   4.599   0.453  0.2242 -0.2859  0.0961
20065SOL     OW61295   3.235   1.442   5.182 -0.0531 -0.0334 -0.6835
20065SOL    HW161296   3.210   1.444   5.274 -0.1683 -2.3035 -0.6157
20065SOL    HW261297   3.257   1.533   5.161 -0.7112  0.6493  1.3731
20066SOL     OW61298   3.797   3.926   4.709  0.0684 -0.1788 -0.3168
20066SOL    HW161299   3.890   3.949   4.706  0.3373 -0.7944  1.6998
20066SOL    HW261300   3.751   4.007   4.689  1.0140  0.0828 -1.5645
20067SOL     OW61301   2.250   4.728   7.159 -0.3755 -0.6606 -0.0451
20067SOL    HW161302   2.241   4.710   7.065  0.9984  0.7823 -0.4947
20067SOL    HW261303   2.330   4.681   7.184 -1.4283 -2.1152  0.7445
20068SOL     OW61304   2.839   2.883   5.160 -0.0924 -0.3278  0.0051
20068SOL    HW161305   2.884   2.950   5.107 -3.6959  0.4593 -2.4094
20068SOL    HW261306   2.822   2.927   5.244 -0.9401  1.2445 -0.9444
20069SOL     OW61307   1.396   1.324   2.506  0.5038 -0.2736 -0.6412
20069SOL    HW161308   1.479   1.322   2.459 -0.0584  0.3551 -1.7052
20069SOL    HW261309   1.329   1.317   2.437 -0.3362  0.1900  0.1032
20070SOL     OW61310   6.294   2.917   7.382  0.2383  0.4495 -0.2720
20070SOL    HW161311   6.205   2.902   7.348  0.0369  0.3966  0.2615
20070SOL    HW261312   6.350   2.914   7.305 -0.2096  0.3417 -0.5994
20071SOL     OW61313   5.956   9.046   2.224 -0.0474  0.0670 -0.6273
20071SOL    HW161314   5.918   9.003   2.147  0.3818 -0.2925 -0.6473
20071SOL    HW261315   5.882   9.057   2.284 -0.5020  0.9107 -1.3313
20072SOL     OW61316   6.727   1.814   3.571  0.1199  0.2630 -0.1857
20072SOL    HW161317   6.809   1.822   3.522  0.1192  3.7511  0.0876
20072SOL    HW261318   6.671   1.762   3.514  2.3360 -1.9722 -0.5136
20073SOL     OW61319   5.627   7.028   3.852 -0.5018  0.2197 -0.1776
20073SOL    HW161320   5.677   7.063   3.926 -1.0414  0.2361  0.1843
20073SOL    HW261321   5.654   6.936   3.847 -0.0362  0.3628 -0.3247
20074SOL     OW61322   6.198   6.934   0.652 -0.4619 -0.4398  0.0390
20074SOL    HW161323   6.218   6.848   0.617  0.2414  0.2356 -1.3064
20074SOL    HW261324   6.280   6.982   0.646 -0.6010  0.0548  1.6559
20075SOL     OW61325   4.648   4.994   4.680  0.4919 -0.5564  0.2839
20075SOL    HW161326   4.556   4.969   4.686  0.0956  0.8459  0.4117
20075SOL    HW261327   4.679   4.952   4.599 -1.2138  1.7053 -1.6985
20076SOL     OW61328   7.058   0.316   2.974  0.4726 -0.2358 -0.1953
20076SOL    HW161329   7.115   0.245   2.943 -0.0931 -1.0783  0.6227
20076SOL    HW261330   6.988   0.320   2.909  0.6343 -0.2715 -0.3727
20077SOL     OW61331   6.870   1.502   0.713  0.4019 -0.0002  1.0765
20077SOL    HW161332   6.965   1.502   0.726  0.8029 -0.8607 -1.4020
20077SOL    HW261333   6.855   1.565   0.643 -0.7013 -0.8279  0.5354
20078SOL     OW61334   5.841   2.484   4.080  0.7370 -0.1157 -0.3743
20078SOL    HW161335   5.873   2.416   4.139  0.5637 -0.2283 -0.4096
20078SOL    HW261336   5.749   2.464   4.067  0.7893 -0.1304 -0.7380
20079SOL     OW61337   3.000   1.823   0.133 -0.5818 -1.0167  0.0065
20079SOL    HW161338   3.081   1.874   0.126 -0.3730 -1.4643 -0.9231
20079SOL    HW261339   3.027   1.742   0.175 -1.1139  0.0347  2.5726
20080SOL     OW61340   5.595   6.349   0.107  0.3490  0.0238 -0.1020
20080SOL    HW161341   5.509   6.317   0.078 -0.3373 -1.2135  2.8418
20080SOL    HW261342   5.578   6.385   0.194  2.5507  1.4073 -0.1775
20081SOL     OW61343   8.133   7.168   2.654  0.3159  0.7330  0.0418
20081SOL    HW161344   8.215   7.120   2.663 -0.1369 -0.9225 -3.2552
20081SOL    HW261345   8.070   7.120   2.708  0.7983  0.0940  0.0402
20082SOL     OW61346   1.304   2.224   2.965  0.1476  0.3348  0.3236
20082SOL    HW161347   1.230   2.181   2.922 -0.6063 -0.4704  2.2890
20082SOL    HW261348   1.361   2.251   2.894  0.1104 -2.9376 -1.1379
20083SOL     OW61349   6.649   2.004   3.799 -0.3095  0.3003 -0.0086
20083SOL    HW161350   6.591   1.948   3.747  1.3978 -1.4621 -0.1470
20083SOL    HW261351   6.696   1.943   3.856 -0.6289  1.9723  2.1655
20084SOL     OW61352   4.769   8.045   3.569 -0.3339  0.3666 -0.1914
20084SOL    HW161353   4.791   8.085   3.485  0.3613 -0.1647 -0.2760
20084SOL    HW261354   4.704   7.978   3.546  0.9707 -0.8140 -0.5449
20085SOL     OW61355   0.433   7.156   8.312 -0.1043  0.3582  0.8164
20085SOL    HW161356   0.511   7.175   8.259 -0.4487 -1.2889 -0.3773
20085SOL    HW261357   0.379   7.235   8.305 -0.9325 -0.3081 -2.8761
20086SOL     OW61358   5.141   8.906   4.891 -0.0180  0.8683  0.0162
20086SOL    HW161359   5.132   8.813   4.875 -0.0078  1.2129 -2.2450
20086SOL    HW261360   5.174   8.912   4.981 -1.3630 -1.2181  0.7083
20087SOL     OW61361   7.562   6.810   5.056 -0.1568 -0.0449  0.3292
20087SOL    HW161362   7.544   6.895   5.017 -3.2088 -0.7145 -0.0170
20087SOL    HW261363   7.616   6.829   5.133 -1.0187  2.2518  0.4272
20088SOL     OW61364   4.036   6.991   7.113 -0.3526 -0.4546  0.1881
20088SOL    HW161365   4.127   6.971   7.091  0.9256  2.1287  2.5928
20088SOL    HW261366   4.022   7.078   7.077 -1.9986 -0.9055 -0.3316
20089SOL     OW61367   2.315   4.848   6.202  0.4431  0.3403 -0.3091
20089SOL    HW161368   2.329   4.932   6.244 -0.8647 -0.0985  1.0742
20089SOL    HW261369   2.253   4.866   6.131  0.4144  0.5989 -0.2176
20090SOL     OW61370   5.911   4.533   7.575  0.0719 -0.1004 -0.2054
20090SOL    HW161371   5.854   4.499   7.644  0.8972  0.2040  0.6582
20090SOL    HW261372   5.852   4.556   7.504 -0.8559 -0.0792  0.5508
20091SOL     OW61373   2.896   4.676   5.531 -0.1960 -0.5948  0.3004
20091SOL    HW161374   2.948   4.621   5.590  0.5149  0.9750  1.1846
20091SOL    HW261375   2.961   4.718   5.474 -0.7734 -1.0203 -0.7015
20092SOL     OW61376   1.199   3.560   6.368 -0.1298  0.1646 -0.3271
20092SOL    HW161377   1.287   3.576   6.333 -0.0801  0.0805 -0.2428
20092SOL    HW261378   1.171   3.479   6.324 -0.1738  0.2034 -0.3701
20093SOL     OW61379   5.879   5.867   0.166 -0.0998 -0.5554 -0.3998
20093SOL    HW161380   5.834   5.797   0.118 -2.2290  0.0990  0.5016
20093SOL    HW261381   5.927   5.822   0.235 -0.2346 -1.2424 -0.7455
20094SOL     OW61382   3.800   7.155   2.680 -0.2312  0.4662 -0.0182
20094SOL    HW161383   3.724   7.202   2.645 -0.5393 -0.6732 -0.9464
20094SOL    HW261384   3.854   7.135   2.604 -0.4155 -1.1936  0.2424
20095SOL     OW61385   7.611   7.846   3.755 -0.3294 -0.1510 -0.2887
20095SOL    HW161386   7.706   7.842   3.740 -0.1423  1.2671  0.3623
20095SOL    HW261387   7.596   7.781   3.824  0.0672 -0.7861 -0.7854
20096SOL     OW61388   0.487   3.358   1.931  0.1744  0.2717  0.5728
20096SOL    HW161389   0.494   3.409   2.011  0.2301 -0.2509  0.9002
20096SOL    HW261390   0.402   3.385   1.894 -0.2958 -0.1850  1.2935
20097SOL     OW61391   1.279   5.374   3.338 -0.2640  0.1950  0.0415
20097SOL    HW161392   1.318   5.408   3.257 -1.0756  1.0220 -0.0209
20097SOL    HW261393   1.265   5.452   3.392  0.3850 -0.3581  1.0530
20098SOL     OW61394   0.153   7.554   6.604  0.4729  0.5307 -0.0527
20098SOL    HW161395   0.198   7.602   6.535 -1.1600  0.4292 -1.2450
20098SOL    HW261396   0.070   7.602   6.616 -1.1849 -1.8326 -1.2316
20099SOL     OW61397   2.443   2.833   0.723  1.1104  0.1796  0.1239
20099SOL    HW161398   2.460   2.905   0.663 -1.2237 -0.2680 -1.2319
20099SOL    HW261399   2.488   2.758   0.684  1.0658  0.2780 -0.1184
20100SOL     OW61400   4.054   4.258   3.445 -0.2029 -0.0949  0.8146
20100SOL    HW161401   4.015   4.307   3.373  0.0087 -1.7724 -0.5133
20100SOL    HW261402   4.053   4.319   3.519 -1.3339  1.3529 -0.3249
20101SOL     OW61403   3.179   8.294   6.420  0.9886 -0.6084 -0.5639
20101SOL    HW161404   3.130   8.333   6.347 -0.4478 -2.0430 -0.4178
20101SOL    HW261405   3.235   8.228   6.379  1.6748 -0.0403 -0.5603
20102SOL     OW61406   6.520   6.061   7.832  0.3973 -0.0876  0.3037
20102SOL    HW161407   6.526   6.089   7.740 -3.7776 -0.0017 -0.0994
20102SOL    HW261408   6.472   6.131   7.876 -1.1477 -1.8866  1.6288
20103SOL     OW61409   3.068   5.973   6.414 -0.0819  0.5594 -0.6565
20103SOL    HW161410   3.010   5.946   6.343  1.0381  1.6646 -2.0655
20103SOL    HW261411   3.138   5.909   6.414 -0.9023 -0.4063  0.6250
20104SOL     OW61412   4.091   8.904   2.015 -0.6649 -0.4512 -0.9976
20104SOL    HW161413   4.033   8.945   2.078 -0.4359 -1.0377 -0.3941
20104SOL    HW261414   4.068   8.944   1.931 -0.7044  0.6197 -0.4914
20105SOL     OW61415   2.713   6.798   4.715  0.0276  0.4469  0.5338
20105SOL    HW161416   2.746   6.716   4.750 -3.4668 -1.0101  0.8882
20105SOL    HW261417   2.678   6.844   4.792  1.6560  2.2170  0.2968
20106SOL     OW61418   7.672   4.242   8.473 -0.6420  0.0189  0.6267
20106SOL    HW161419   7.768   4.244   8.476 -0.6644  1.2943  0.6883
20106SOL    HW261420   7.652   4.214   8.384 -0.1847  3.5323 -0.7452
20107SOL     OW61421   2.386   0.346   4.735 -0.3288 -0.3262 -0.0226
20107SOL    HW161422   2.293   0.333   4.716 -0.2195 -1.0386 -0.0721
20107SOL    HW261423   2.398   0.304   4.820 -0.5549  1.7785  1.1202
20108SOL     OW61424   5.186   1.029   2.025 -0.4650  0.2126 -0.3724
20108SOL    HW161425   5.160   0.988   2.108  0.0029 -0.5184 -0.5719
20108SOL    HW261426   5.281   1.018   2.022 -0.2786  1.6800 -0.2595
20109SOL     OW61427   5.983   6.653   0.107  0.0701 -0.1251  0.3216
20109SOL    HW161428   6.036   6.575   0.126  0.3601  0.5155  2.4969
20109SOL    HW261429   5.997   6.710   0.183 -1.0288  1.5695 -0.6794
20110SOL     OW61430   7.897   3.705   8.109 -0.2893 -0.3938 -0.3271
20110SOL    HW161431   7.913   3.734   8.199  0.0528 -1.3106 -0.0759
20110SOL    HW261432   7.802   3.696   8.103 -0.4017  0.6723 -0.3948
20111SOL     OW61433   1.277   8.569   8.546  0.3957 -0.1885 -0.6694
20111SOL    HW161434   1.369   8.591   8.531  0.0329  1.1760 -1.0096
20111SOL    HW261435   1.276   8.530   8.633  1.1386  0.8517 -0.1752
20112SOL     OW61436   8.489   4.147   3.643 -0.3158 -0.2350  0.1589
20112SOL    HW161437   8.400   4.141   3.607 -0.2200 -0.1727 -0.0986
20112SOL    HW261438   8.481   4.206   3.718 -0.2030  1.2090 -0.9051
20113SOL     OW61439   6.083   2.842   3.364  0.4820  0.2273 -0.3029
20113SOL    HW161440   6.103   2.906   3.296 -1.7876  0.7352 -0.5664
20113SOL    HW261441   6.094   2.757   3.320  1.6203  0.4657 -0.5064
20114SOL     OW61442   6.172   5.928   4.091 -0.5500 -0.3465  0.0665
20114SOL    HW161443   6.199   5.894   4.006 -0.1737 -1.9879  0.8040
20114SOL    HW261444   6.093   5.879   4.112 -0.3600 -0.3054  0.8916
20115SOL     OW61445   5.972   4.483   0.161 -0.5096 -0.2011 -0.1884
20115SOL    HW161446   6.033   4.417   0.195  1.9184  1.6551 -0.6522
20115SOL    HW261447   5.967   4.548   0.231 -0.5540  0.5260 -0.8613
20116SOL     OW61448   1.322   1.379   7.860 -0.1733  0.8359  0.6027
20116SOL    HW161449   1.398   1.404   7.912 -0.0614 -1.9106  1.9513
20116SOL    HW261450   1.248   1.420   7.904  0.0985 -0.1754  2.0895
20117SOL     OW61451   2.520   4.309   0.778 -0.1164  0.2967 -0.2368
20117SOL    HW161452   2.449   4.337   0.719 -1.1684 -2.1003 -0.2152
20117SOL    HW261453   2.578   4.257   0.723  0.2265  0.0709  0.3300
20118SOL     OW61454   1.430   8.364   2.178 -0.2997 -0.1767 -0.0232
20118SOL    HW161455   1.404   8.289   2.125 -0.8668  0.6225 -0.9193
20118SOL    HW261456   1.367   8.365   2.250  0.6308 -1.4188  0.8450
20119SOL     OW61457   8.177   4.857   3.101 -0.3280 -0.1514  0.7072
20119SOL    HW161458   8.141   4.931   3.052  0.0949  0.2831  1.0585
20119SOL    HW261459   8.125   4.853   3.181  0.1518  0.2482  1.0446
20120SOL     OW61460   3.085   6.727   4.284  0.2866 -0.3242  1.1125
20120SOL    HW161461   3.083   6.818   4.313  0.9029  0.2191 -0.4261
20120SOL    HW261462   3.001   6.713   4.241  0.9352  0.1644 -0.3843
20121SOL     OW61463   2.160   8.755   3.424  0.1538  0.6033 -0.1475
20121SOL    HW161464   2.138   8.825   3.363 -0.4001  0.4381 -0.1460
20121SOL    HW261465   2.156   8.675   3.371  0.6148  0.5507 -0.1101
20122SOL     OW61466   8.422   5.109   3.156 -0.5058 -0.3358  0.1150
20122SOL    HW161467   8.335   5.137   3.127 -0.0585  0.9640 -0.0675
20122SOL    HW261468   8.411   5.089   3.249 -1.3514 -1.8564 -0.2878
20123SOL     OW61469   4.164   5.791   0.629 -0.6811  0.4882  0.4877
20123SOL    HW161470   4.245   5.772   0.581  1.2359  0.7914  3.3423
20123SOL    HW261471   4.094   5.768   0.568  1.5263  0.0670 -2.0780
20124SOL     OW61472   6.166   3.035   1.404  0.7964  0.5236  0.3046
20124SOL    HW161473   6.112   2.956   1.401 -0.6222  1.4797 -0.2732
20124SOL    HW261474   6.256   3.002   1.397  0.2407 -1.0342 -0.0031
20125SOL     OW61475   8.852   4.855   4.001 -0.3543 -0.6128 -0.0126
20125SOL    HW161476   8.839   4.950   3.999 -0.6315 -0.5406  2.3637
20125SOL    HW261477   8.884   4.837   4.089  2.0533 -2.4928 -1.1593
20126SOL     OW61478   1.484   5.576   4.010  0.2169 -0.3061 -0.2314
20126SOL    HW161479   1.502   5.504   4.070 -0.0253  1.3884  1.9849
20126SOL    HW261480   1.534   5.650   4.045  0.4198  0.6611 -2.4035
20127SOL     OW61481   2.160   4.926   6.459  0.3512 -0.1328  0.7111
20127SOL    HW161482   2.107   4.882   6.392 -1.1036 -0.1790  1.8362
20127SOL    HW261483   2.177   5.013   6.422  0.3383 -0.4602 -0.0906
20128SOL     OW61484   8.615   7.118   4.002  0.0209  0.1574  0.4824
20128SOL    HW161485   8.570   7.165   3.932  0.8832  1.0693  0.5123
20128SOL    HW261486   8.549   7.059   4.038 -0.2905 -0.7135 -1.4222
20129SOL     OW61487   0.585   4.079   2.687  0.2333  0.2356  0.3045
20129SOL    HW161488   0.498   4.041   2.683  0.9839 -1.6714  0.7745
20129SOL    HW261489   0.589   4.119   2.774  0.3665 -1.1631  0.9689
20130SOL     OW61490   7.913   7.623   5.519 -0.5231  0.0188  0.1113
20130SOL    HW161491   7.880   7.685   5.454  1.1119  0.3872 -0.4217
20130SOL    HW261492   7.966   7.561   5.469  0.5508  0.1544  1.0344
20131SOL     OW61493   2.128   0.113   6.604  0.1827 -0.1862  0.1616
20131SOL    HW161494   2.055   0.062   6.569 -1.3950  2.8484 -1.4053
20131SOL    HW261495   2.205   0.080   6.558 -1.0082 -0.2002 -1.9521
20132SOL     OW61496   7.172   0.237   6.217 -0.0110 -0.4325 -0.0348
20132SOL    HW161497   7.119   0.261   6.293 -0.6743  1.1765 -0.9588
20132SOL    HW261498   7.109   0.200   6.155  0.0597  0.6867 -0.8033
20133SOL     OW61499   5.796   7.099   0.492  0.5417 -0.3264  0.7561
20133SOL    HW161500   5.701   7.096   0.500  0.5684  1.0496  2.0050
20133SOL    HW261501   5.812   7.124   0.401 -0.3609  0.7831  0.8775
20134SOL     OW61502   7.801   5.395   9.116 -0.0422 -0.4233  0.1123
20134SOL    HW161503   7.744   5.328   9.077 -1.5688  0.4959  0.6508
20134SOL    HW261504   7.827   5.450   9.042 -1.7933  0.5007  0.1238
20135SOL     OW61505   2.579   5.873   0.804 -0.1012 -0.1993 -0.5412
20135SOL    HW161506   2.542   5.790   0.835  1.5777 -0.4798  0.8925
20135SOL    HW261507   2.537   5.888   0.719 -2.1628 -1.3093  0.2176
20136SOL     OW61508   3.585   4.057   3.782 -0.1644 -0.6795 -0.0433
20136SOL    HW161509   3.555   4.131   3.835 -1.5322 -0.0592 -1.6092
20136SOL    HW261510   3.505   4.018   3.749  0.6372 -1.2778 -1.3419
20137SOL     OW61511   6.696   0.560   8.218  0.1351  0.2124 -0.5859
20137SOL    HW161512   6.753   0.625   8.261  0.8742 -0.2169 -0.8957
20137SOL    HW261513   6.757   0.502   8.173 -0.6208  0.6579 -2.2427
20138SOL     OW61514   6.105   2.694   2.073  0.8434  0.0737 -0.1017
20138SOL    HW161515   6.105   2.730   1.984 -0.2867 -1.1583 -0.6330
20138SOL    HW261516   6.032   2.632   2.074  0.1224  0.8611  2.0385
20139SOL     OW61517   6.625   3.077   4.512  0.0951 -0.0296 -0.3030
20139SOL    HW161518   6.632   3.050   4.604 -3.2316  0.2430  0.1534
20139SOL    HW261519   6.592   3.000   4.467 -0.8756  0.6181 -0.7228
20140SOL     OW61520   9.072   1.207   1.348  0.2119 -0.1334  0.4052
20140SOL    HW161521   9.044   1.160   1.426  0.4682  0.4244  0.8377
20140SOL    HW261522   9.059   1.299   1.369 -0.7017 -0.0114 -0.5895
20141SOL     OW61523   5.487   2.549   4.471  0.4226  0.5670  0.0186
20141SOL    HW161524   5.506   2.586   4.385  1.6907  1.0323  0.4715
20141SOL    HW261525   5.434   2.471   4.453 -0.3926  1.3383 -1.0916
20142SOL     OW61526   4.779   0.979   0.255 -0.2709  0.5132 -0.7625
20142SOL    HW161527   4.754   1.059   0.302  1.5006  0.6694 -0.0143
20142SOL    HW261528   4.808   0.919   0.324 -0.3702 -0.3309 -1.4353
20143SOL     OW61529   2.814   6.675   6.220  0.1446  0.1333 -0.4176
20143SOL    HW161530   2.905   6.650   6.205  0.2608  0.0189  0.4251
20143SOL    HW261531   2.803   6.758   6.174  0.0628 -0.8922 -2.3495
20144SOL     OW61532   0.351   2.861   4.341 -0.8014 -0.1960  0.7738
20144SOL    HW161533   0.382   2.862   4.432 -1.6855 -0.7707  1.0984
20144SOL    HW261534   0.429   2.879   4.289 -0.2774  0.1319  1.6454
20145SOL     OW61535   6.385   3.218   4.838  0.5009 -0.8371 -0.3923
20145SOL    HW161536   6.334   3.282   4.787  1.5397  1.1951  0.9669
20145SOL    HW261537   6.467   3.208   4.790  1.3644  0.8626  0.6247
20146SOL     OW61538   2.919   2.655   7.226  0.3010 -0.3300 -0.1252
20146SOL    HW161539   2.999   2.614   7.260  2.9893  2.9525 -1.7949
20146SOL    HW261540   2.891   2.598   7.155  1.7093 -1.1460 -0.0780
20147SOL     OW61541   2.705   1.943   6.378  0.0563  0.0025  0.2526
20147SOL    HW161542   2.788   1.988   6.389  0.9165 -0.5514 -3.0166
20147SOL    HW261543   2.643   2.011   6.353 -0.3599  0.3076  2.0050
20148SOL     OW61544   8.294   3.317   6.226  0.0936 -0.4543  0.4549
20148SOL    HW161545   8.387   3.320   6.205  0.2474  0.0024  1.1997
20148SOL    HW261546   8.262   3.240   6.179  0.9027 -0.7860  0.4304
20149SOL     OW61547   2.727   4.863   0.646  0.3546 -0.2530  0.7269
20149SOL    HW161548   2.808   4.874   0.697  0.5300 -0.7997  0.5698
20149SOL    HW261549   2.756   4.826   0.563 -0.0185 -0.0752  0.5159
20150SOL     OW61550   2.267   1.327   3.175 -0.4081  0.6246 -0.2859
20150SOL    HW161551   2.277   1.233   3.189  1.3233  0.9179  0.7279
20150SOL    HW261552   2.335   1.349   3.111 -0.2202  1.3117  0.1346
20151SOL     OW61553   7.820   1.606   1.949 -0.6089  0.5225  0.0771
20151SOL    HW161554   7.825   1.692   1.991 -2.1769  0.3883  0.5883
20151SOL    HW261555   7.888   1.555   1.994 -0.6785  1.0652  0.8309
20152SOL     OW61556   4.165   2.880   3.317  0.1701  0.1674  0.2354
20152SOL    HW161557   4.225   2.808   3.297  1.6051  0.9946  1.3317
20152SOL    HW261558   4.180   2.943   3.246  0.3462  0.2077  0.3064
20153SOL     OW61559   0.811   0.626   1.192  0.2725  1.0939 -0.5928
20153SOL    HW161560   0.906   0.627   1.186  0.4364  2.0813  1.3470
20153SOL    HW261561   0.781   0.670   1.113  1.4677  1.5263 -0.8166
20154SOL     OW61562   5.093   6.826   5.055 -0.0019  1.2210  0.2676
20154SOL    HW161563   5.119   6.909   5.013 -0.9389  1.6525  0.5247
20154SOL    HW261564   4.998   6.830   5.059 -0.4475 -1.5048 -3.0871
20155SOL     OW61565   7.147   0.282   1.748 -0.7126  0.1626  0.6604
20155SOL    HW161566   7.111   0.366   1.719 -0.3709  0.5637  1.3359
20155SOL    HW261567   7.076   0.219   1.737 -1.3389  0.7637  1.1609
20156SOL     OW61568   9.065   0.870   5.215 -0.0955  0.1870  0.2026
20156SOL    HW161569   9.139   0.836   5.265  0.4574 -0.4330 -0.9948
20156SOL    HW261570   8.992   0.871   5.278  0.3796 -1.2715  0.8278
20157SOL     OW61571   8.131   4.922   4.712 -0.0348 -0.5039  0.0787
20157SOL    HW161572   8.174   5.003   4.684 -1.1463 -0.3510 -1.3502
20157SOL    HW261573   8.129   4.927   4.807  0.3158  0.9500  0.0316
20158SOL     OW61574   1.494   9.030   8.936  0.3198  0.3365 -0.0720
20158SOL    HW161575   1.484   8.983   9.018  0.6606  1.8214  0.8558
20158SOL    HW261576   1.546   8.972   8.880  1.4390 -0.0477  1.3210
20159SOL     OW61577   7.350   7.454   7.166 -0.0209  0.3857 -0.1272
20159SOL    HW161578   7.435   7.444   7.122  0.7311 -0.8994  1.4992
20159SOL    HW261579   7.287   7.460   7.095  1.4045  1.1611 -1.3867
20160SOL     OW61580   1.089   7.207   8.880  0.5340  0.4184 -0.4719
20160SOL    HW161581   1.115   7.299   8.890  0.7023  0.3491 -0.2743
20160SOL    HW261582   1.168   7.157   8.900  0.8017  0.2662 -1.8292
20161SOL     OW61583   5.604   1.027   8.869 -0.3688  0.2598  0.3812
20161SOL    HW161584   5.656   0.955   8.834  0.2563  0.1303  1.5303
20161SOL    HW261585   5.570   1.072   8.792 -0.2246 -0.8686 -0.3596
20162SOL     OW61586   2.115   4.168   6.121  0.1758 -0.0453 -0.2252
20162SOL    HW161587   2.132   4.231   6.191  0.6593  0.5247 -0.8454
20162SOL    HW261588   2.032   4.127   6.145  0.2683  0.2384  0.6061
20163SOL     OW61589   0.184   6.096   5.569  0.3100 -0.7132 -0.4669
20163SOL    HW161590   0.180   6.002   5.587 -3.9039 -0.6284 -0.0262
20163SOL    HW261591   0.232   6.133   5.643  2.4531 -2.4765 -0.8868
20164SOL     OW61592   3.936   7.604   1.255  0.2576  0.0582  0.2593
20164SOL    HW161593   3.938   7.594   1.160 -0.0827 -1.3921  0.3764
20164SOL    HW261594   3.849   7.638   1.274  0.0361 -0.4074  0.0992
20165SOL     OW61595   1.351   7.910   2.636 -0.3157 -0.2413 -0.1625
20165SOL    HW161596   1.302   7.982   2.676 -0.9077  0.0912 -1.4429
20165SOL    HW261597   1.323   7.910   2.545  1.8969 -0.1917 -0.9016
20166SOL     OW61598   5.790   7.729   5.857  0.1189  0.0199  0.5934
20166SOL    HW161599   5.703   7.766   5.870  0.7646  0.9627  2.6551
20166SOL    HW261600   5.847   7.804   5.841  0.5053 -0.6374 -1.5710
20167SOL     OW61601   2.983   5.240   9.039  0.8295 -0.8818 -0.2537
20167SOL    HW161602   3.008   5.210   8.952  0.6184 -0.2653 -0.5327
20167SOL    HW261603   3.041   5.314   9.056 -1.3988  1.2184 -1.3303
20168SOL     OW61604   3.204   7.692   4.447 -0.2868 -0.4063 -0.0586
20168SOL    HW161605   3.270   7.641   4.401 -1.1357 -1.9178  0.3112
20168SOL    HW261606   3.203   7.655   4.535 -1.5475 -0.3651 -0.0397
20169SOL     OW61607   8.548   4.189   5.635 -0.8050  0.3988 -0.2874
20169SOL    HW161608   8.610   4.116   5.635 -0.6730  0.4891  0.9802
20169SOL    HW261609   8.468   4.152   5.597 -0.0816  0.2133 -1.6876
20170SOL     OW61610   5.398   5.690   3.546  0.1293 -0.2975 -0.1441
20170SOL    HW161611   5.381   5.623   3.612  1.0331 -0.2400  0.1633
20170SOL    HW261612   5.492   5.686   3.531  0.2779  1.2172  0.2277
20171SOL     OW61613   4.323   0.233   3.091  0.0932 -0.1410 -0.3882
20171SOL    HW161614   4.329   0.155   3.036 -0.4086 -0.0694 -0.5527
20171SOL    HW261615   4.398   0.286   3.066  0.2224 -0.3961 -0.5502
20172SOL     OW61616   1.669   5.367   6.565  0.2093 -0.1180  0.1950
20172SOL    HW161617   1.690   5.436   6.627  2.9968 -0.3575 -0.3301
20172SOL    HW261618   1.725   5.385   6.489 -0.7286 -1.6109 -0.9156
20173SOL     OW61619   4.526   8.288   2.767  0.3308  0.0895 -0.5483
20173SOL    HW161620   4.578   8.233   2.708 -0.9095 -0.7686 -0.8680
20173SOL    HW261621   4.549   8.378   2.742  1.1467 -0.2667 -1.1306
20174SOL     OW61622   2.440   6.233   6.947  0.1599  0.5416  0.2530
20174SOL    HW161623   2.486   6.314   6.965  2.9024 -0.7506 -0.3769
20174SOL    HW261624   2.507   6.175   6.910 -1.9382 -1.6195 -0.4448
20175SOL     OW61625   5.030   4.607   0.263 -0.1015  0.2356  0.2877
20175SOL    HW161626   4.991   4.673   0.320 -1.9453 -0.2295 -0.3630
20175SOL    HW261627   4.965   4.537   0.260  1.1851 -0.9676 -0.1811
20176SOL     OW61628   3.449   3.789   6.100  0.1049 -0.7488 -0.5352
20176SOL    HW161629   3.392   3.865   6.113  0.8410 -0.2624 -0.0218
20176SOL    HW261630   3.510   3.818   6.032  0.3098 -0.9260 -0.4251
20177SOL     OW61631   1.522   2.789   4.299  0.4086 -0.7026 -0.2403
20177SOL    HW161632   1.442   2.825   4.261  1.4318 -1.3209 -3.2212
20177SOL    HW261633   1.502   2.697   4.315  0.6119 -0.9571 -1.3759
20178SOL     OW61634   2.584   7.268   6.172 -0.2312  0.3853 -0.1644
20178SOL    HW161635   2.606   7.176   6.182  1.4885  0.7897  0.1782
20178SOL    HW261636   2.610   7.290   6.082  1.0216  0.9167  0.3003
20179SOL     OW61637   4.364   7.112   0.807 -0.2630 -0.0903 -0.1786
20179SOL    HW161638   4.277   7.112   0.768 -0.3240  0.9727 -0.0826
20179SOL    HW261639   4.406   7.191   0.772 -0.5204  1.2232  2.2656
20180SOL     OW61640   4.036   6.928   8.570  0.8544  0.5685  0.5572
20180SOL    HW161641   3.954   6.927   8.619  1.2888  0.0828  1.3078
20180SOL    HW261642   4.071   7.016   8.583 -0.1556  1.2182 -0.8525
20181SOL     OW61643   2.940   6.172   4.747 -0.5815 -0.3460 -0.1003
20181SOL    HW161644   2.921   6.180   4.654 -1.1294 -1.0086 -0.0456
20181SOL    HW261645   2.942   6.078   4.764  0.6995 -0.2657  0.3225
20182SOL     OW61646   6.888   3.891   3.659 -0.8188 -0.1871 -0.3122
20182SOL    HW161647   6.975   3.867   3.688 -0.5800  0.9714 -0.0044
20182SOL    HW261648   6.833   3.816   3.682  0.0240 -0.7710 -0.1704
20183SOL     OW61649   2.549   0.437   0.550  0.0182 -0.3044 -0.3049
20183SOL    HW161650   2.560   0.457   0.457  0.5527 -1.3432 -0.4784
20183SOL    HW261651   2.506   0.515   0.586 -1.0649 -0.2741 -1.5904
20184SOL     OW61652   2.528   3.076   8.511  0.1875 -0.3473 -0.3052
20184SOL    HW161653   2.482   3.152   8.547  0.4828 -0.3261  0.0196
20184SOL    HW261654   2.469   3.043   8.442 -1.1526 -1.3648  1.2579
20185SOL     OW61655   3.802   1.994   3.912  0.1391  0.1144  0.0680
20185SOL    HW161656   3.720   1.949   3.889  0.8339 -1.6653  0.9119
20185SOL    HW261657   3.858   1.982   3.835  1.0377 -2.3516  0.9981
20186SOL     OW61658   4.005   6.153   3.138  0.2338 -0.0524 -0.0148
20186SOL    HW161659   4.079   6.190   3.091  2.2953 -1.6892  1.7317
20186SOL    HW261660   3.962   6.095   3.075  1.8059 -0.7892 -0.4468
20187SOL     OW61661   3.440   0.645   0.104 -0.4338 -0.2163  0.1081
20187SOL    HW161662   3.409   0.649   0.013 -2.2276 -0.0873  0.6805
20187SOL    HW261663   3.485   0.728   0.117  0.0404 -0.3324 -0.7273
20188SOL     OW61664   6.434   1.482   4.127  0.5399  0.0769  0.3263
20188SOL    HW161665   6.462   1.565   4.167  2.9265 -0.9385  0.9706
20188SOL    HW261666   6.493   1.470   4.053 -0.2551 -0.7055 -0.1946
20189SOL     OW61667   4.624   1.642   3.510 -0.0350  0.1243 -0.0550
20189SOL    HW161668   4.568   1.719   3.503  1.1909  0.8914 -2.2909
20189SOL    HW261669   4.688   1.652   3.440  3.0470 -0.6082  2.4246
20190SOL     OW61670   8.250   7.924   6.232  0.2681  0.7875  0.1216
20190SOL    HW161671   8.169   7.914   6.283  0.0281 -1.6384 -0.6001
20190SOL    HW261672   8.246   7.853   6.168  2.9411  0.6673  0.0034
20191SOL     OW61673   4.054   4.646   3.687 -0.1416 -0.3292  0.3345
20191SOL    HW161674   4.044   4.553   3.665  0.5198 -0.2853 -0.1802
20191SOL    HW261675   4.063   4.647   3.783  1.8988 -1.0050  0.1935
20192SOL     OW61676   4.173   4.990   6.900 -0.4766 -0.1319 -0.7230
20192SOL    HW161677   4.127   4.905   6.900 -1.9663  0.5523  2.2356
20192SOL    HW261678   4.102   5.054   6.893  0.6065  0.9441 -2.4311
20193SOL     OW61679   6.812   0.022   3.365  0.3700 -0.6406 -0.6955
20193SOL    HW161680   6.859   0.104   3.350  1.4149 -0.6759  1.8808
20193SOL    HW261681   6.737   0.046   3.420  1.9558 -1.5882  2.0857
20194SOL     OW61682   7.768   6.893   6.247 -0.5992  0.3909  0.1224
20194SOL    HW161683   7.777   6.879   6.341 -0.8217 -0.2781  0.0489
20194SOL    HW261684   7.854   6.924   6.219  0.2319 -1.6740  0.1651
20195SOL     OW61685   6.068   7.255   1.121  0.0790  0.4380 -0.2211
20195SOL    HW161686   6.093   7.270   1.030  0.8549 -0.6302 -0.2081
20195SOL    HW261687   6.008   7.326   1.142 -0.6372  0.3316 -1.7714
20196SOL     OW61688   8.861   1.750   1.298 -0.6539 -0.3252  0.2528
20196SOL    HW161689   8.827   1.744   1.209 -1.0141  0.3263  0.3466
20196SOL    HW261690   8.949   1.712   1.292 -0.3716  0.4167 -0.5479
20197SOL     OW61691   7.703   7.628   1.880  0.3237 -0.6085  0.0711
20197SOL    HW161692   7.688   7.590   1.967 -2.1211 -3.5247 -1.4494
20197SOL    HW261693   7.763   7.567   1.837  0.2903 -0.0544 -0.7902
20198SOL     OW61694   8.035   1.581   2.695 -0.2267 -0.0609 -0.0567
20198SOL    HW161695   8.022   1.675   2.687 -0.0017  0.1140  1.3965
20198SOL    HW261696   8.045   1.566   2.789  0.7297 -1.4053 -0.3417
20199SOL     OW61697   6.911   6.997   2.438  0.1218 -0.1126 -0.5183
20199SOL    HW161698   6.820   6.988   2.408 -0.2116 -1.3297  0.7504
20199SOL    HW261699   6.905   7.055   2.514  0.4054 -0.2292 -0.4074
20200SOL     OW61700   0.845   8.495   7.814 -0.1376 -0.0998  0.4475
20200SOL    HW161701   0.830   8.579   7.772  0.0985 -0.7649 -1.0468
20200SOL    HW261702   0.874   8.437   7.743 -5.2039 -2.8976  0.1238
20201SOL     OW61703   7.599   0.462   1.535 -0.1839 -0.8265  0.2410
20201SOL    HW161704   7.518   0.511   1.546 -0.2699 -0.6303 -1.0413
20201SOL    HW261705   7.587   0.413   1.453  0.9970 -0.7399 -0.0091
20202SOL     OW61706   8.160   0.387   5.947 -0.2570 -0.8400  0.1740
20202SOL    HW161707   8.171   0.337   6.029 -0.1671 -1.9700 -0.5038
20202SOL    HW261708   8.070   0.368   5.920 -0.7369  0.6193  0.6985
20203SOL     OW61709   8.997   6.394   2.656 -0.3064  0.0513 -0.3951
20203SOL    HW161710   9.022   6.471   2.605 -0.1156  0.2276 -0.0432
20203SOL    HW261711   8.937   6.428   2.722 -0.8565 -0.2403 -0.7400
20204SOL     OW61712   7.103   6.117   1.398  0.0966  0.4135 -0.4572
20204SOL    HW161713   7.119   6.182   1.467 -0.5332 -1.1909  1.2805
20204SOL    HW261714   7.174   6.054   1.407 -1.1248 -0.9249  0.1537
20205SOL     OW61715   6.414   7.139   5.728 -0.2975  0.1094 -0.1154
20205SOL    HW161716   6.463   7.064   5.694  0.9289  0.2146  1.3462
20205SOL    HW261717   6.452   7.215   5.684 -2.2679 -0.1306 -2.4327
20206SOL     OW61718   1.640   8.432   3.003  0.3008  0.3921  0.0844
20206SOL    HW161719   1.593   8.491   3.062  0.6894  0.9093 -0.1135
20206SOL    HW261720   1.716   8.482   2.975  0.7316 -0.2720  0.0460
20207SOL     OW61721   9.089   1.410   4.600 -0.1369 -0.1715  0.1316
20207SOL    HW161722   9.102   1.361   4.681  0.7124 -0.9876 -0.4754
20207SOL    HW261723   9.158   1.477   4.602  0.2073 -0.5150 -0.1503
20208SOL     OW61724   5.827   4.333   5.066  0.9133  0.3338 -0.3537
20208SOL    HW161725   5.802   4.423   5.086 -1.8157 -0.7847  1.8447
20208SOL    HW261726   5.767   4.308   4.995  1.4932  0.1264 -0.7785
20209SOL     OW61727   1.253   5.915   5.938  0.2607 -0.0351 -0.3970
20209SOL    HW161728   1.173   5.863   5.943 -0.3473  0.9689  2.6498
20209SOL    HW261729   1.320   5.858   5.975  1.1062 -0.9241 -3.0611
20210SOL     OW61730   1.644   5.884   1.407 -0.7097  0.2474  0.3213
20210SOL    HW161731   1.672   5.890   1.498 -0.8623 -0.0176  0.3878
20210SOL    HW261732   1.676   5.799   1.377 -2.2061 -0.4851  0.6795
20211SOL     OW61733   1.631   9.066   2.816  0.2182 -0.0931 -0.3743
20211SOL    HW161734   1.591   8.994   2.865  1.3677  0.3911  1.3754
20211SOL    HW261735   1.571   9.083   2.744 -0.8193 -1.8152  0.0339
20212SOL     OW61736   2.815   5.106   0.409  0.0717 -0.1841 -0.9150
20212SOL    HW161737   2.823   5.011   0.398 -1.2649 -0.4854  0.4137
20212SOL    HW261738   2.721   5.122   0.411  0.2624  0.9274  0.5688
20213SOL     OW61739   5.683   7.570   6.050 -0.2299 -0.0597  0.4019
20213SOL    HW161740   5.696   7.475   6.051 -2.4604 -0.4125  0.1060
20213SOL    HW261741   5.747   7.602   5.986 -0.2228 -1.5104 -0.3553
20214SOL     OW61742   8.911   3.674   3.343  0.0855 -0.7318  0.2840
20214SOL    HW161743   8.918   3.579   3.333 -0.7015 -0.8306  0.5875
20214SOL    HW261744   9.002   3.704   3.351  0.4415 -1.2536 -1.4279
20215SOL     OW61745   0.245   4.992   0.605  0.2311 -0.4060 -0.1654
20215SOL    HW161746   0.200   4.990   0.520  0.0502  1.4087 -0.1587
20215SOL    HW261747   0.337   4.981   0.583  0.0134 -1.8829 -0.3999
20216SOL     OW61748   2.248   2.423   2.737  0.5686 -0.0697  0.0943
20216SOL    HW161749   2.158   2.412   2.767  0.5109 -0.4625 -0.2114
20216SOL    HW261750   2.288   2.481   2.802  0.2660 -0.3836  0.5678
20217SOL     OW61751   0.830   6.087   1.103 -0.1037 -0.6811  0.0340
20217SOL    HW161752   0.841   6.178   1.132 -0.0247 -0.9289  0.8185
20217SOL    HW261753   0.892   6.038   1.158  0.4922 -1.1000 -0.9907
20218SOL     OW61754   1.618   2.248   5.147 -0.6312  0.0875 -0.0480
20218SOL    HW161755   1.664   2.175   5.105  0.4606  1.0211 -0.5404
20218SOL    HW261756   1.640   2.324   5.093 -3.7901  0.4296 -1.0580
20219SOL     OW61757   8.118   4.381   3.182 -0.5148  0.0939  0.0236
20219SOL    HW161758   8.153   4.462   3.143 -0.9530  0.3332  0.1244
20219SOL    HW261759   8.025   4.399   3.194 -0.6426 -0.4863 -0.0968
20220SOL     OW61760   1.540   4.331   3.943  0.3387 -1.0681  0.4271
20220SOL    HW161761   1.448   4.357   3.947  0.3416 -1.1940  1.7994
20220SOL    HW261762   1.557   4.291   4.028  1.8792 -0.3242  0.4921
20221SOL     OW61763   2.204   0.713   0.600  0.2504 -0.3061  0.1963
20221SOL    HW161764   2.159   0.796   0.582  3.4875  1.2043 -1.7478
20221SOL    HW261765   2.163   0.650   0.541  0.4440  0.9650 -1.3652
20222SOL     OW61766   0.877   1.397   2.233 -0.1659  0.1301 -0.0145
20222SOL    HW161767   0.861   1.365   2.144  0.3425 -1.1685  0.3306
20222SOL    HW261768   0.799   1.447   2.256 -0.0109  1.0859 -1.4354
20223SOL     OW61769   4.486   5.830   7.452 -0.4694  0.8262  0.3191
20223SOL    HW161770   4.448   5.785   7.528  0.3733  0.7085  0.6737
20223SOL    HW261771   4.461   5.775   7.378 -0.9824  0.7434  0.5446
20224SOL     OW61772   7.630   8.233   8.797  0.0673  0.5153 -0.0059
20224SOL    HW161773   7.545   8.238   8.753 -0.9173  1.8193  1.8915
20224SOL    HW261774   7.681   8.172   8.744 -1.6814  0.5077 -1.8003
20225SOL     OW61775   4.783   8.470   3.511  0.3722 -0.2823 -0.0224
20225SOL    HW161776   4.746   8.425   3.435  0.4024 -0.8076  0.2733
20225SOL    HW261777   4.747   8.559   3.505 -0.9169 -0.7613  0.2289
20226SOL     OW61778   3.101   0.243   0.146 -0.4849  0.1643  0.1356
20226SOL    HW161779   3.124   0.247   0.239 -1.3995 -1.4381  0.4644
20226SOL    HW261780   3.184   0.228   0.101 -0.2665 -0.9441  0.8712
20227SOL     OW61781   7.000   8.941   0.443 -0.0276  0.3132  0.3033
20227SOL    HW161782   7.065   8.871   0.435  1.3174  1.5356  0.1049
20227SOL    HW261783   6.928   8.901   0.491  1.6504 -0.5861  2.2519
20228SOL     OW61784   7.585   2.036   1.274  0.5787  0.0463  0.4430
20228SOL    HW161785   7.574   2.048   1.180  0.9384  0.4970  0.4552
20228SOL    HW261786   7.672   2.073   1.293  0.0200  1.0492  1.1361
20229SOL     OW61787   5.507   5.042   4.825  0.2501  0.1714  0.3781
20229SOL    HW161788   5.549   4.977   4.769 -1.9759 -1.4965  0.5419
20229SOL    HW261789   5.416   5.015   4.830 -1.3673  4.4700 -1.2399
20230SOL     OW61790   7.164   3.935   6.395  0.2815  0.4934  0.2474
20230SOL    HW161791   7.175   4.012   6.450  0.8269  0.4092  0.2671
20230SOL    HW261792   7.191   3.862   6.450 -1.5780  0.1149  0.6987
20231SOL     OW61793   0.516   7.479   4.325 -0.6020  0.0744 -0.3146
20231SOL    HW161794   0.505   7.575   4.327  2.0215  0.4842 -1.6672
20231SOL    HW261795   0.606   7.466   4.295 -0.8807 -2.8559 -0.1216
20232SOL     OW61796   2.051   3.785   7.109 -0.3610 -0.2089 -0.1768
20232SOL    HW161797   2.089   3.848   7.048 -1.6405  0.4046 -0.3708
20232SOL    HW261798   2.125   3.758   7.164  0.5344  0.2376 -1.1203
20233SOL     OW61799   3.659   8.438   6.741  0.7261 -0.3865 -0.0580
20233SOL    HW161800   3.617   8.513   6.783  1.4349 -0.2195  0.3638
20233SOL    HW261801   3.587   8.382   6.713 -0.0737  1.9237 -3.2729
20234SOL     OW61802   6.424   8.413   4.654 -0.3049  0.3885  0.1283
20234SOL    HW161803   6.347   8.430   4.600 -0.0652  0.4349 -0.1979
20234SOL    HW261804   6.464   8.499   4.667 -0.7052  0.4665  0.8999
20235SOL     OW61805   7.931   7.342   5.786 -0.2024  0.5135  0.0567
20235SOL    HW161806   7.863   7.410   5.788 -0.2940  0.4363  2.3748
20235SOL    HW261807   7.998   7.377   5.726 -0.5055  2.3901  0.7392
20236SOL     OW61808   1.343   4.832   6.182 -0.6654 -0.2899 -0.0106
20236SOL    HW161809   1.315   4.918   6.213 -0.0260  0.8431 -2.3351
20236SOL    HW261810   1.279   4.809   6.114  0.1411 -0.8176 -0.6167
20237SOL     OW61811   0.050   3.194   3.017  0.2180  0.9010 -0.2855
20237SOL    HW161812  -0.035   3.150   3.020  0.9461 -1.0229 -2.9580
20237SOL    HW261813   0.043   3.257   2.945  1.3505 -0.2344 -1.4638
20238SOL     OW61814   4.584   3.313   4.327 -0.5742  0.1374 -0.0516
20238SOL    HW161815   4.637   3.373   4.275 -0.6093  0.2133  0.0003
20238SOL    HW261816   4.499   3.310   4.283 -0.0594 -1.1584 -1.0092
20239SOL     OW61817   4.131   1.850   1.881 -0.1374 -0.3975 -0.4219
20239SOL    HW161818   4.218   1.880   1.855  0.1016 -0.7002  0.0156
20239SOL    HW261819   4.078   1.929   1.889  0.5513 -0.0511  0.9803
20240SOL     OW61820   1.390   3.576   0.850  0.5640  0.6773  0.0081
20240SOL    HW161821   1.480   3.572   0.883  0.4127  1.5642  0.5665
20240SOL    HW261822   1.398   3.618   0.765  0.7876 -0.2792 -0.4686
20241SOL     OW61823   6.155   1.228   1.313  0.1622 -0.5188 -0.0560
20241SOL    HW161824   6.149   1.249   1.220  0.8168 -2.1387 -0.4986
20241SOL    HW261825   6.075   1.179   1.332  0.4084 -0.8923  0.0276
20242SOL     OW61826   4.105   7.760   0.429  0.5315  0.0342  0.0670
20242SOL    HW161827   4.080   7.771   0.337 -1.2603  0.6146  0.5898
20242SOL    HW261828   4.067   7.676   0.455 -1.8590  1.3443  1.1215
20243SOL     OW61829   6.738   5.396   4.986  0.4304 -0.1951 -0.1888
20243SOL    HW161830   6.756   5.310   5.024 -1.3329 -0.8690 -0.7728
20243SOL    HW261831   6.823   5.440   4.986  0.9340 -0.9856  2.4016
20244SOL     OW61832   3.468   0.052   6.383  0.5078 -0.4772  0.2846
20244SOL    HW161833   3.539   0.069   6.445  0.8274 -0.7259 -0.0047
20244SOL    HW261834   3.496  -0.027   6.336 -0.3187 -1.0187  0.6860
20245SOL     OW61835   4.920   2.464   6.726 -0.2380  0.4672  0.0157
20245SOL    HW161836   4.839   2.414   6.719  0.2877 -0.6571  1.4460
20245SOL    HW261837   4.894   2.555   6.713 -1.9026  0.2246  1.4315
20246SOL     OW61838   4.087   5.692   3.054 -1.1837 -0.3221 -0.0674
20246SOL    HW161839   4.063   5.603   3.079  0.1008 -1.0171 -1.1911
20246SOL    HW261840   4.078   5.694   2.958  1.6854 -0.2022 -0.4070
20247SOL     OW61841   2.446   7.827   8.471 -0.0376  0.3717  0.4314
20247SOL    HW161842   2.367   7.793   8.513 -0.2028  0.4950  0.2248
20247SOL    HW261843   2.482   7.753   8.422 -0.2972  0.4463  0.1277
20248SOL     OW61844   0.564   1.426   3.889 -0.2889  0.3403 -0.0200
20248SOL    HW161845   0.494   1.447   3.951  0.3419  2.3963  0.0532
20248SOL    HW261846   0.520   1.379   3.818 -1.8528  1.8695 -0.1324
20249SOL     OW61847   3.453   0.529   3.989 -0.2468  0.1937  0.6135
20249SOL    HW161848   3.530   0.495   4.034 -0.3747 -0.4568  0.3580
20249SOL    HW261849   3.477   0.618   3.964 -0.2747  0.6572  2.1711
20250SOL     OW61850   4.598   4.429   8.688  0.0886  0.4934  0.1662
20250SOL    HW161851   4.525   4.412   8.748 -0.5531  2.9192  0.1796
20250SOL    HW261852   4.673   4.387   8.729 -0.7491  0.3308  1.6122
20251SOL     OW61853   7.618   8.059   0.081  0.1483 -0.1605 -0.6954
20251SOL    HW161854   7.571   8.063   0.165  1.0555 -2.4566 -0.0027
20251SOL    HW261855   7.605   8.146   0.042  0.2562  1.2286  2.1131
20252SOL     OW61856   1.756   7.054   8.801 -0.6273 -0.2478 -0.1289
20252SOL    HW161857   1.682   7.036   8.860 -0.8328 -0.6855 -0.5164
20252SOL    HW261858   1.738   7.142   8.767 -0.4564  0.0518  0.5254
20253SOL     OW61859   0.999   7.298   2.619  0.1360  0.2686 -0.3072
20253SOL    HW161860   0.938   7.363   2.585  0.6282  1.6328  1.2913
20253SOL    HW261861   0.972   7.216   2.578 -2.0188  1.0450 -0.5567
20254SOL     OW61862   5.084   8.918   7.943 -0.8687  0.3176  1.0264
20254SOL    HW161863   5.177   8.908   7.965 -0.5835  1.7339  0.6015
20254SOL    HW261864   5.071   8.861   7.868 -0.2962  0.1997  1.0089
20255SOL     OW61865   2.363   5.038   6.840 -0.0469  0.2927 -0.1951
20255SOL    HW161866   2.361   5.130   6.867 -0.0963 -0.0818  1.1659
20255SOL    HW261867   2.394   4.991   6.917  1.2159 -0.7125 -1.2663
20256SOL     OW61868   5.423   8.902   5.827 -0.3829  0.4215  0.0570
20256SOL    HW161869   5.485   8.845   5.872 -1.6929 -1.6458 -0.6125
20256SOL    HW261870   5.352   8.843   5.799 -1.2425  2.1862 -1.7144
20257SOL     OW61871   7.753   8.345   4.105  0.1199  0.5865 -0.0385
20257SOL    HW161872   7.791   8.415   4.157 -2.1411  0.4218  1.9717
20257SOL    HW261873   7.762   8.267   4.160 -2.5441  0.4573  0.3230
20258SOL     OW61874   6.241   7.870   5.521  0.4915  0.5755  0.2591
20258SOL    HW161875   6.159   7.849   5.476  1.6827 -0.9820 -1.3460
20258SOL    HW261876   6.264   7.957   5.490  0.8589 -0.1333 -1.5729
20259SOL     OW61877   0.747   4.565   1.351  0.1969 -0.1532 -0.4890
20259SOL    HW161878   0.821   4.575   1.411 -0.4975 -0.8189  0.5254
20259SOL    HW261879   0.768   4.486   1.301 -2.1255 -3.7366  3.5173
20260SOL     OW61880   0.277   3.288   3.823  0.1186  0.1517 -0.1085
20260SOL    HW161881   0.353   3.237   3.796 -0.4071  0.2672 -1.8771
20260SOL    HW261882   0.292   3.304   3.916  2.2293  0.1396 -0.3993
20261SOL     OW61883   4.057   4.170   3.854  0.0885  0.1089  0.2735
20261SOL    HW161884   4.084   4.078   3.855  0.3994  0.0750 -3.0455
20261SOL    HW261885   3.963   4.167   3.841  0.2693  0.2263 -1.1659
20262SOL     OW61886   3.056   5.010   8.541  0.0295 -0.3013  0.7061
20262SOL    HW161887   3.112   4.948   8.588  1.0124 -0.7337 -0.9375
20262SOL    HW261888   3.118   5.072   8.502 -0.7369 -0.0109 -0.0734
20263SOL     OW61889   1.929   3.223   6.405 -0.5714  0.0183 -0.0305
20263SOL    HW161890   2.012   3.227   6.452 -0.2275 -0.4454 -0.5846
20263SOL    HW261891   1.925   3.134   6.371 -0.4711  0.5458 -1.4797
20264SOL     OW61892   4.318   0.031   4.262  0.2989 -0.0017  0.0267
20264SOL    HW161893   4.291   0.115   4.224  5.0843  1.1721 -1.5272
20264SOL    HW261894   4.332   0.050   4.355 -0.3976  0.3815  0.0587
20265SOL     OW61895   8.447   3.498   7.407  0.0047  0.6345  0.2151
20265SOL    HW161896   8.523   3.444   7.381 -1.4232 -0.9865 -0.8442
20265SOL    HW261897   8.396   3.506   7.327 -0.8812  1.8571  0.8764
20266SOL     OW61898   7.217   4.168   2.855  0.5486  0.1073 -0.1382
20266SOL    HW161899   7.144   4.216   2.817  0.8488  0.1939 -0.6297
20266SOL    HW261900   7.177   4.094   2.900  0.1324  0.4012 -0.0244
20267SOL     OW61901   4.487   7.093   6.909 -0.0606  0.0713  0.4778
20267SOL    HW161902   4.563   7.118   6.960 -0.2169  0.4444  0.5300
20267SOL    HW261903   4.459   7.174   6.865  0.3217 -0.3289 -0.5316
20268SOL     OW61904   1.227   0.940   5.544  0.5044  0.2018 -0.4436
20268SOL    HW161905   1.177   0.968   5.468 -1.5412 -0.1324  0.7152
20268SOL    HW261906   1.282   1.016   5.566 -3.5199  2.8965  1.4958
20269SOL     OW61907   6.011   7.139   0.671  0.2055 -0.3013  0.5515
20269SOL    HW161908   5.923   7.126   0.636  0.1423 -0.0546  0.6117
20269SOL    HW261909   6.061   7.065   0.639 -0.4471 -1.3721  1.9131
20270SOL     OW61910   1.128   3.715   7.509  0.8886 -0.2398 -0.0926
20270SOL    HW161911   1.157   3.771   7.581 -1.9988 -0.4827  1.4141
20270SOL    HW261912   1.142   3.626   7.541 -1.8073 -0.3753  0.9425
20271SOL     OW61913   1.382   5.274   5.716 -0.3598  0.1836 -0.4083
20271SOL    HW161914   1.451   5.333   5.747  1.6622 -1.7020 -1.0330
20271SOL    HW261915   1.394   5.271   5.621 -2.4706  1.1282 -0.7542
20272SOL     OW61916   8.228   5.825   3.680  0.0704 -0.6229 -0.6790
20272SOL    HW161917   8.261   5.744   3.642  0.5176 -2.0517  2.4292
20272SOL    HW261918   8.170   5.796   3.750  1.0561  1.6751  1.2228
20273SOL     OW61919   5.844   6.927   1.037 -0.6246  0.7096 -0.3884
20273SOL    HW161920   5.757   6.946   1.072 -0.5505  1.1168 -0.4166
20273SOL    HW261921   5.903   6.984   1.087 -0.3797  0.4802 -0.4111
20274SOL     OW61922   6.041   0.331   8.283  0.1244  0.1265  0.0971
20274SOL    HW161923   6.081   0.248   8.308 -0.2493 -0.5226 -1.4122
20274SOL    HW261924   6.073   0.348   8.195 -0.0356  1.4493  0.2678
20275SOL     OW61925   7.390   2.476   7.068  0.0894  0.3054 -0.8132
20275SOL    HW161926   7.402   2.448   6.978  0.4575  0.0677 -0.6928
20275SOL    HW261927   7.453   2.547   7.080  2.2830 -1.6746  0.1492
20276SOL     OW61928   1.267   2.680   0.140 -0.3377  0.5657  0.2907
20276SOL    HW161929   1.195   2.621   0.162 -0.7299  1.3248  1.1181
20276SOL    HW261930   1.321   2.682   0.219 -0.5782  1.6510  0.4420
20277SOL     OW61931   6.931   2.864   4.498  0.1592 -0.2656  0.5452
20277SOL    HW161932   6.875   2.829   4.567 -1.7236 -2.4913 -1.8757
20277SOL    HW261933   6.870   2.886   4.427  2.0351  1.2254 -0.7276
20278SOL     OW61934   5.797   0.460   3.521  0.5275 -0.5953 -0.9442
20278SOL    HW161935   5.813   0.518   3.595 -0.8685 -0.8451 -0.4214
20278SOL    HW261936   5.805   0.372   3.558  1.2910 -0.7452 -1.4351
20279SOL     OW61937   3.192   6.325   8.151  0.1562 -0.3414  0.0201
20279SOL    HW161938   3.130   6.364   8.212 -0.8510  0.3287 -1.3817
20279SOL    HW261939   3.269   6.382   8.155 -0.1883  0.1186  0.1182
20280SOL     OW61940   7.336   1.925   7.269  0.0744  0.2859  0.0110
20280SOL    HW161941   7.312   1.856   7.332  1.0555 -0.5853 -0.5340
20280SOL    HW261942   7.385   1.989   7.321 -0.1450  0.1707  0.3645
20281SOL     OW61943   2.763   6.886   3.625 -0.1639 -0.2103 -0.2592
20281SOL    HW161944   2.818   6.809   3.613 -1.1874 -0.8821 -0.8193
20281SOL    HW261945   2.769   6.933   3.542  0.5854  0.4092  0.1373
20282SOL     OW61946   1.159   1.570   3.877  0.0530 -0.3103 -0.5310
20282SOL    HW161947   1.118   1.508   3.937  1.1487  1.5636  2.3462
20282SOL    HW261948   1.233   1.522   3.841 -0.3961 -1.3711 -0.1031
20283SOL     OW61949   5.814   3.879   0.383 -0.4001  0.2018 -0.3604
20283SOL    HW161950   5.793   3.911   0.295 -2.2172 -0.3676 -0.1609
20283SOL    HW261951   5.820   3.784   0.374 -0.3296  0.1615  0.0753
20284SOL     OW61952   3.690   5.385   4.584 -0.6623 -0.1914 -0.3625
20284SOL    HW161953   3.767   5.426   4.545 -1.2341  0.3992 -0.8905
20284SOL    HW261954   3.621   5.398   4.519 -1.8234  1.3958  1.1158
20285SOL     OW61955   5.890   3.643   4.226 -0.0728  0.2000 -0.0147
20285SOL    HW161956   5.859   3.675   4.141  0.9556  2.7705  0.4770
20285SOL    HW261957   5.811   3.639   4.280 -0.2053  3.0250  0.1512
20286SOL     OW61958   6.035   7.274   5.130  0.4479 -0.2509 -0.4587
20286SOL    HW161959   6.026   7.301   5.038  1.0684  0.3317 -0.3496
20286SOL    HW261960   6.129   7.272   5.145  0.3435 -0.1838  0.2166
20287SOL     OW61961   6.167   3.846   0.288  0.1989  0.5478  0.0688
20287SOL    HW161962   6.254   3.806   0.298  0.5066  0.0622 -3.2278
20287SOL    HW261963   6.179   3.912   0.220 -1.8126  1.2992  0.3823
20288SOL     OW61964   1.882   6.380   4.756  0.3180 -0.1289  0.4286
20288SOL    HW161965   1.932   6.348   4.831  0.0515  1.7459  1.4622
20288SOL    HW261966   1.880   6.475   4.767 -1.9318 -0.0018 -0.5600
20289SOL     OW61967   1.670   7.798   7.852 -0.0713  0.2296  0.2693
20289SOL    HW161968   1.616   7.811   7.775 -0.0377  1.1128  0.3888
20289SOL    HW261969   1.739   7.738   7.823 -0.1004  0.4939 -0.3570
20290SOL     OW61970   6.316   3.881   0.700  0.2382 -0.4063  0.3335
20290SOL    HW161971   6.375   3.834   0.759  0.4841 -0.7545 -0.1755
20290SOL    HW261972   6.373   3.911   0.629  0.0912  0.6893  0.6570
20291SOL     OW61973   5.002   8.869   5.657 -0.0388 -0.2799  0.3851
20291SOL    HW161974   5.080   8.880   5.604 -1.1235 -0.9627 -1.4356
20291SOL    HW261975   4.935   8.923   5.614 -1.6067 -2.7162 -0.4790
20292SOL     OW61976   2.983   7.288   1.870 -0.5461  0.2549 -0.6812
20292SOL    HW161977   3.052   7.353   1.883  0.2524 -0.7429  0.2230
20292SOL    HW261978   2.937   7.286   1.954  0.4800 -1.4924 -0.1048
20293SOL     OW61979   3.885   8.781   2.454 -0.2565  1.1358  0.4357
20293SOL    HW161980   3.845   8.846   2.397  1.8609  1.2160 -1.1022
20293SOL    HW261981   3.900   8.827   2.536 -0.7840  1.9030  0.1103
20294SOL     OW61982   0.430   0.927   0.895 -0.4969 -0.0837  0.5932
20294SOL    HW161983   0.455   0.878   0.973 -0.7128  0.5494  1.0705
20294SOL    HW261984   0.511   0.938   0.847 -0.4021 -0.6871  0.6024
20295SOL     OW61985   8.613   2.689   9.027  0.1121 -0.4291  0.5481
20295SOL    HW161986   8.660   2.704   8.945  0.6661 -2.1684  0.5008
20295SOL    HW261987   8.601   2.594   9.030  0.3861 -0.4380  2.6150
20296SOL     OW61988   3.125   9.091   8.492  0.1483 -0.1110  0.1173
20296SOL    HW161989   3.125   9.000   8.465 -1.0976 -0.4846  1.3005
20296SOL    HW261990   3.065   9.135   8.432 -0.4561 -0.3877  0.5138
20297SOL     OW61991   5.992   4.041   8.817 -0.0955 -0.2394  0.4024
20297SOL    HW161992   6.051   3.992   8.760  0.6013  2.1218 -1.0432
20297SOL    HW261993   5.985   3.987   8.896  1.3556 -2.1557 -0.6872
20298SOL     OW61994   2.438   6.016   0.092 -0.0247 -0.4950  0.3349
20298SOL    HW161995   2.472   5.930   0.119  0.7672 -0.5944 -0.9133
20298SOL    HW261996   2.347   6.000   0.069  0.4234 -1.2550 -0.9840
20299SOL     OW61997   8.255   7.761   3.631  0.8804  0.5090  0.3583
20299SOL    HW161998   8.188   7.812   3.676  1.6312  1.6010  0.2788
20299SOL    HW261999   8.250   7.789   3.539 -0.4826 -1.5311 -0.2716
20300SOL     OW62000   6.021   2.368   4.937 -0.1330 -0.1939 -0.3956
20300SOL    HW162001   5.990   2.387   5.026 -0.3182  0.9363 -0.6837
20300SOL    HW262002   5.959   2.415   4.880  0.9206  0.4390 -1.0480
20301SOL     OW62003   6.330   8.816   8.478  0.2028  0.3549 -0.7981
20301SOL    HW162004   6.249   8.864   8.496 -1.0823 -1.3936 -1.6002
20301SOL    HW262005   6.328   8.802   8.383  1.6183  0.5359 -0.8730
20302SOL     OW62006   2.899   7.863   4.683 -0.2501  0.4444  0.2959
20302SOL    HW162007   2.849   7.893   4.758 -0.8547  2.1704 -0.7382
20302SOL    HW262008   2.873   7.772   4.671 -1.0417  0.5054  1.4432
20303SOL     OW62009   5.929   2.462   2.687  0.8603  0.1138 -0.0058
20303SOL    HW162010   5.870   2.441   2.759  0.5417 -1.8186 -0.7743
20303SOL    HW262011   5.982   2.382   2.675  3.6813  1.7511  0.6732
20304SOL     OW62012   6.656   4.070   3.562  0.1649  0.2236  0.5652
20304SOL    HW162013   6.579   4.014   3.576  1.0438 -0.5730  2.6918
20304SOL    HW262014   6.673   4.107   3.649  0.4309  2.7733 -0.4952
20305SOL     OW62015   5.802   1.386   1.028  0.5009  0.4528  0.1881
20305SOL    HW162016   5.723   1.439   1.029  0.4287  0.3636 -0.1928
20305SOL    HW262017   5.861   1.431   0.967  0.4898  0.1772 -0.0341
20306SOL     OW62018   0.191   8.081   0.266 -0.0991 -0.1547  0.9337
20306SOL    HW162019   0.282   8.113   0.269 -0.6921  1.8186  0.1174
20306SOL    HW262020   0.139   8.156   0.295 -1.5503 -0.7822  0.0491
20307SOL     OW62021   0.333   1.326   3.722  0.6918  0.2232 -0.1913
20307SOL    HW162022   0.269   1.342   3.791  1.5931  0.2997  0.6488
20307SOL    HW262023   0.335   1.230   3.714  1.2348  0.1582  0.5465
20308SOL     OW62024   6.530   0.226   6.439  0.2180  0.0743  0.3128
20308SOL    HW162025   6.506   0.318   6.443  0.4265  0.2962 -2.0027
20308SOL    HW262026   6.586   0.219   6.362  0.7448 -1.8833  0.8140
20309SOL     OW62027   5.855   7.639   3.414 -0.4014  0.3358  0.4530
20309SOL    HW162028   5.815   7.693   3.482  0.1798 -1.0900  2.0258
20309SOL    HW262029   5.784   7.584   3.382 -0.4516  0.2391  0.7248
20310SOL     OW62030   3.461   4.717   6.059  0.1142  0.0301  0.1221
20310SOL    HW162031   3.536   4.749   6.010  0.6200  0.5799  1.2191
20310SOL    HW262032   3.469   4.759   6.145 -0.0259 -1.9000  1.1315
20311SOL     OW62033   5.758   2.302   2.296  0.1615  0.2268  0.3093
20311SOL    HW162034   5.762   2.210   2.325 -1.1644 -0.2185 -0.7994
20311SOL    HW262035   5.682   2.338   2.341 -0.7211  0.0916 -1.0078
20312SOL     OW62036   7.164   4.090   5.995 -0.2047  0.6443 -0.2342
20312SOL    HW162037   7.191   4.013   6.045  0.8201  0.0897 -1.5851
20312SOL    HW262038   7.180   4.164   6.055 -2.3980 -0.2055  1.5520
20313SOL     OW62039   0.915   0.432   3.101 -0.3815 -0.7225 -0.2560
20313SOL    HW162040   0.853   0.400   3.035 -1.5908  0.6130  0.1908
20313SOL    HW262041   0.916   0.527   3.091  0.8559 -0.6336  0.4192
20314SOL     OW62042   0.908   9.064   6.447 -0.0391 -0.3528  0.1074
20314SOL    HW162043   0.970   8.992   6.441  1.1026  0.7040 -1.9056
20314SOL    HW262044   0.834   9.038   6.392  1.1636  0.6444 -2.1332
20315SOL     OW62045   6.849   0.678   9.088  0.2471  0.1897  0.9498
20315SOL    HW162046   6.875   0.636   9.170 -0.5177  0.4945  1.3656
20315SOL    HW262047   6.902   0.757   9.084 -0.1145  0.4625  1.4417
20316SOL     OW62048   8.200   2.208   1.317 -0.0112 -0.2636 -0.1580
20316SOL    HW162049   8.135   2.259   1.365  0.6400  1.1832 -0.7711
20316SOL    HW262050   8.156   2.125   1.299 -1.6072  0.5820 -0.3444
20317SOL     OW62051   7.666   7.683   2.789  0.0252 -0.3848 -0.0317
20317SOL    HW162052   7.690   7.701   2.698  0.7813  3.1590  0.7105
20317SOL    HW262053   7.723   7.611   2.816  1.9008  0.4671 -1.5545
20318SOL     OW62054   8.355   0.569   4.944 -0.5054  0.1261 -0.3828
20318SOL    HW162055   8.438   0.564   4.897 -0.3678 -0.5268 -0.0814
20318SOL    HW262056   8.292   0.525   4.887 -0.5732  0.3097 -0.4515
20319SOL     OW62057   4.367   7.211   5.617  0.5849  0.5133 -0.2407
20319SOL    HW162058   4.390   7.210   5.710  0.1713 -0.1065 -0.1376
20319SOL    HW262059   4.411   7.288   5.582 -0.2302  1.4618  0.7197
20320SOL     OW62060   6.690   4.212   3.808 -0.0843  0.2332  0.1484
20320SOL    HW162061   6.617   4.194   3.868  0.1713 -1.0240  0.1151
20320SOL    HW262062   6.768   4.193   3.860  0.1312 -1.2772 -0.6786
20321SOL     OW62063   4.310   7.458   1.956  0.6272 -0.4509 -0.4977
20321SOL    HW162064   4.356   7.423   2.032  1.4960 -0.0544 -0.8308
20321SOL    HW262065   4.253   7.387   1.927  1.5441 -1.1976 -0.4961
20322SOL     OW62066   3.644   1.286   5.902 -0.3044  0.4750  0.4724
20322SOL    HW162067   3.660   1.345   5.828  1.0188  0.8965  1.0584
20322SOL    HW262068   3.665   1.199   5.867  0.2653  0.6662  0.3235
20323SOL     OW62069   8.292   6.549   6.892 -0.1340  0.0248 -0.0457
20323SOL    HW162070   8.316   6.618   6.954  0.3831  0.3295 -0.5725
20323SOL    HW262071   8.198   6.562   6.876 -0.7851 -1.3146  2.2111
20324SOL     OW62072   3.914   6.240   0.303 -0.1471  0.6691 -0.2015
20324SOL    HW162073   3.900   6.168   0.363  0.1863  2.6110  2.3618
20324SOL    HW262074   3.994   6.217   0.255  0.9479  0.0863  1.8195
20325SOL     OW62075   7.964   8.644   6.057  0.7040  0.4551  0.0225
20325SOL    HW162076   8.026   8.699   6.009  0.7810  0.8024  0.5070
20325SOL    HW262077   7.911   8.706   6.107 -0.6874  0.2394 -1.1178
20326SOL     OW62078   8.674   6.274   8.338  0.5372 -0.2198 -0.4544
20326SOL    HW162079   8.746   6.283   8.401  0.1495 -1.3513  0.1775
20326SOL    HW262080   8.695   6.194   8.289 -0.7755 -1.1381  0.4251
20327SOL     OW62081   8.985   2.994   4.426 -0.2533  0.1096  0.0904
20327SOL    HW162082   8.911   2.939   4.401 -0.9901  0.4384  1.4859
20327SOL    HW262083   8.995   2.980   4.520  0.3036  1.4548  0.2500
20328SOL     OW62084   0.095   1.896   2.834 -0.8353  0.6997 -0.2007
20328SOL    HW162085   0.006   1.859   2.833 -0.4336 -0.3032 -0.6025
20328SOL    HW262086   0.118   1.907   2.742 -0.3081  0.3425 -0.1183
20329SOL     OW62087   5.773   8.312   6.151  0.2771  0.0105  0.1763
20329SOL    HW162088   5.841   8.313   6.218 -0.1405 -1.0848  0.6337
20329SOL    HW262089   5.698   8.357   6.192  0.4558  0.5253 -0.0495
20330SOL     OW62090   1.016   1.878   0.159  0.0658  0.2881 -0.0485
20330SOL    HW162091   0.987   1.802   0.108 -2.6277  0.8423  0.4791
20330SOL    HW262092   0.973   1.952   0.116  0.1379  1.1204  1.2708
20331SOL     OW62093   1.418   8.286   6.905  0.1594 -0.4375  0.1901
20331SOL    HW162094   1.324   8.295   6.889  0.0777 -2.0599 -0.4661
20331SOL    HW262095   1.459   8.329   6.830 -0.0371  0.4048  0.5511
20332SOL     OW62096   5.588   4.121   5.112 -0.1029  0.2876 -0.1655
20332SOL    HW162097   5.517   4.071   5.151  0.6783 -0.1707  0.7315
20332SOL    HW262098   5.561   4.212   5.119 -0.6413  0.1118  0.0693
20333SOL     OW62099   1.725   0.138   0.679 -0.2005 -0.0277 -0.3668
20333SOL    HW162100   1.811   0.117   0.716  0.3532  0.3459 -1.3943
20333SOL    HW262101   1.683   0.053   0.665  0.5483 -0.2951 -1.0869
20334SOL     OW62102   8.357   3.591   5.588 -0.2002  0.0742 -0.2165
20334SOL    HW162103   8.449   3.563   5.592 -0.3083 -0.2452  0.1328
20334SOL    HW262104   8.357   3.676   5.633 -0.0607  0.1169 -0.2945
20335SOL     OW62105   8.855   1.943   3.700  0.2813 -0.2990  0.2825
20335SOL    HW162106   8.938   1.972   3.661 -0.2606 -1.4164 -1.8200
20335SOL    HW262107   8.788   1.994   3.656 -0.2757 -0.6804  0.6714
20336SOL     OW62108   4.071   0.147   7.034  0.1469 -0.0416  0.5266
20336SOL    HW162109   4.016   0.085   7.082 -0.0078  0.4725  1.0286
20336SOL    HW262110   4.045   0.138   6.943  1.1439 -1.7558  0.3765
20337SOL     OW62111   1.998   1.449   1.950 -0.1553 -0.1600  0.3517
20337SOL    HW162112   2.007   1.452   2.046 -1.7262 -2.2912  0.6450
20337SOL    HW262113   2.048   1.373   1.924  0.9546  0.8814 -0.6876
20338SOL     OW62114   5.468   7.983   4.047 -0.1591  0.6856  0.1055
20338SOL    HW162115   5.514   8.048   4.101 -0.4719  0.9955  0.0072
20338SOL    HW262116   5.389   8.029   4.017 -0.1670  0.4011 -0.3209
20339SOL     OW62117   5.624   6.024   5.691 -0.2481  0.4737 -0.3676
20339SOL    HW162118   5.720   6.029   5.690 -0.1183 -0.6074  1.4718
20339SOL    HW262119   5.605   5.935   5.660 -0.4261 -0.4978  2.2838
20340SOL     OW62120   3.204   8.249   6.694 -0.2910  0.0500 -0.1643
20340SOL    HW162121   3.207   8.284   6.605 -0.4881  1.1913  0.2632
20340SOL    HW262122   3.172   8.159   6.683  1.3035 -0.4052 -1.3899
20341SOL     OW62123   0.212   2.818   8.506 -0.6916  0.1905  0.3817
20341SOL    HW162124   0.260   2.901   8.510 -0.3077 -0.0107 -0.0886
20341SOL    HW262125   0.141   2.834   8.444 -0.5884  0.1526  0.2538
20342SOL     OW62126   4.225   6.754   7.395  0.3162 -0.4624 -0.3883
20342SOL    HW162127   4.299   6.772   7.452  0.3040  1.0426 -0.8171
20342SOL    HW262128   4.179   6.682   7.438  1.6463 -0.9710  0.2183
20343SOL     OW62129   1.704   0.963   4.944  0.7669 -0.3153  0.3108
20343SOL    HW162130   1.661   0.896   4.891 -1.0278 -1.4149  2.9708
20343SOL    HW262131   1.783   0.921   4.977 -0.3716 -1.2699  2.0019
20344SOL     OW62132   8.640   7.245   8.476  0.2229  0.2497 -0.8597
20344SOL    HW162133   8.594   7.193   8.542  0.3556 -0.0803 -1.0244
20344SOL    HW262134   8.634   7.193   8.396  0.7117  0.2977 -0.9309
20345SOL     OW62135   5.597   1.974   0.309 -0.8169 -0.0429 -0.3011
20345SOL    HW162136   5.509   1.941   0.297 -0.4388 -1.6307  0.9265
20345SOL    HW262137   5.604   1.991   0.404 -0.2186  1.3595 -0.5559
20346SOL     OW62138   1.093   1.980   1.193 -0.1174  0.1431 -0.4283
20346SOL    HW162139   1.039   2.059   1.195 -0.0958  0.1695 -0.7628
20346SOL    HW262140   1.102   1.954   1.285  1.8188  1.8294 -0.0680
20347SOL     OW62141   0.043   4.446   5.783  0.3679 -0.5108 -0.5351
20347SOL    HW162142  -0.008   4.503   5.840  2.3598  2.7290 -1.6934
20347SOL    HW262143   0.064   4.370   5.837 -1.8637  0.1170  1.3524
20348SOL     OW62144   7.215   5.283   5.040  0.4460 -0.0068  0.0439
20348SOL    HW162145   7.246   5.252   4.955  2.4176  1.1802  0.2579
20348SOL    HW262146   7.259   5.228   5.104 -1.7643 -1.5280  0.3602
20349SOL     OW62147   3.680   4.681   8.960 -0.0852 -0.1732 -0.0940
20349SOL    HW162148   3.744   4.688   8.889  1.0464  0.8313  0.9790
20349SOL    HW262149   3.606   4.734   8.930  0.3994  0.2858 -0.5034
20350SOL     OW62150   6.342   7.175   8.407  0.2889 -0.4038 -0.0423
20350SOL    HW162151   6.269   7.194   8.466 -0.4853 -0.3575 -0.9895
20350SOL    HW262152   6.415   7.154   8.465 -0.2774  0.2475  0.9427
20351SOL     OW62153   1.605   5.864   5.609 -0.4359 -0.3167 -0.3259
20351SOL    HW162154   1.668   5.894   5.543 -0.5508 -0.0547 -0.3207
20351SOL    HW262155   1.526   5.915   5.591  0.0559  1.0277  1.0737
20352SOL     OW62156   6.679   5.648   3.720  0.2113 -0.2559 -0.4581
20352SOL    HW162157   6.695   5.736   3.754 -1.4997  0.9667 -2.5128
20352SOL    HW262158   6.679   5.592   3.797 -0.0253  1.7649  1.1162
20353SOL     OW62159   7.551   1.503   6.764  0.5540  0.0257  0.3291
20353SOL    HW162160   7.643   1.477   6.768  0.3352 -0.7946  0.2703
20353SOL    HW262161   7.503   1.420   6.757 -0.1763  0.4535  0.1565
20354SOL     OW62162   3.582   8.653   8.679 -0.1119 -0.5184 -0.2544
20354SOL    HW162163   3.624   8.641   8.594 -0.2750  0.7044 -0.5198
20354SOL    HW262164   3.493   8.681   8.659 -0.3306 -0.7635  0.3273
20355SOL     OW62165   8.212   8.265   0.702 -0.2205  0.0416  0.3304
20355SOL    HW162166   8.224   8.196   0.767 -0.3892 -0.7247 -0.4347
20355SOL    HW262167   8.156   8.225   0.635  0.8946  0.4191 -0.8685
20356SOL     OW62168   1.328   8.119   3.864  0.2707  0.2983 -0.2898
20356SOL    HW162169   1.348   8.038   3.816 -0.9261 -0.5923  0.6639
20356SOL    HW262170   1.399   8.127   3.928  0.0675 -0.3533  0.0275
20357SOL     OW62171   4.013   7.537   6.919  0.4290 -0.1997  0.0359
20357SOL    HW162172   3.978   7.609   6.865  2.1670  0.3644 -0.4120
20357SOL    HW262173   3.980   7.556   7.007 -0.1889  0.4166 -0.3087
20358SOL     OW62174   2.104   3.676   3.309  0.1616  0.4224  0.3465
20358SOL    HW162175   2.143   3.712   3.230 -0.1067  0.4835  0.2428
20358SOL    HW262176   2.178   3.637   3.357  0.3050  0.2849  0.0138
20359SOL     OW62177   3.129   4.475   4.148 -0.2798  0.1305 -0.4055
20359SOL    HW162178   3.142   4.392   4.193 -0.1656  0.0147 -0.6501
20359SOL    HW262179   3.039   4.472   4.115 -0.1763 -0.0246 -0.6768
20360SOL     OW62180   5.910   6.299   2.914  0.1271  0.2434 -0.0151
20360SOL    HW162181   5.858   6.265   2.840  1.0383  1.5544 -1.3183
20360SOL    HW262182   5.858   6.373   2.947  0.6391  0.9097 -0.6596
20361SOL     OW62183   0.191   7.397   8.364  0.1952  0.3450  0.1526
20361SOL    HW162184   0.113   7.427   8.410 -0.8163 -0.0479 -1.2192
20361SOL    HW262185   0.241   7.477   8.347 -0.7557  0.8356 -0.4228
20362SOL     OW62186   3.530   0.037   4.146  0.3336  0.4223 -0.0878
20362SOL    HW162187   3.539  -0.057   4.127 -0.4186  0.8016 -2.7581
20362SOL    HW262188   3.490   0.073   4.067  0.4618  2.9963  0.9388
20363SOL     OW62189   3.974   2.177   3.982  0.1226 -0.4358 -0.6905
20363SOL    HW162190   3.949   2.239   4.050  1.6440  0.5533 -0.9892
20363SOL    HW262191   3.900   2.115   3.978  0.4798 -1.2841  2.6812
20364SOL     OW62192   4.623   7.159   7.814  0.0519  0.5800 -0.0719
20364SOL    HW162193   4.583   7.084   7.769  2.1291 -0.3955 -0.4166
20364SOL    HW262194   4.682   7.197   7.748 -1.0710  2.6596  0.0462
20365SOL     OW62195   7.955   3.398   2.121 -0.1373 -0.4277  0.4366
20365SOL    HW162196   8.015   3.344   2.171  0.8047  0.0927 -0.0963
20365SOL    HW262197   7.990   3.487   2.130 -1.7141  0.1356  1.3900
20366SOL     OW62198   7.018   0.926   1.430 -0.1035  0.3623 -0.2347
20366SOL    HW162199   7.112   0.947   1.431  0.6978 -2.7591  0.9502
20366SOL    HW262200   7.004   0.881   1.347 -0.4028  0.2278 -0.1129
20367SOL     OW62201   4.611   5.521   6.649 -0.1045 -0.0358 -0.8336
20367SOL    HW162202   4.577   5.464   6.718  1.8710  0.4475  0.6108
20367SOL    HW262203   4.684   5.471   6.611  1.0926  1.1445 -0.1336
20368SOL     OW62204   4.935   6.429   3.216 -0.5143  0.2378 -0.4205
20368SOL    HW162205   4.936   6.413   3.122 -0.6205  1.4972 -0.6535
20368SOL    HW262206   4.976   6.352   3.254 -0.0197 -0.0634 -1.5353
20369SOL     OW62207   3.863   4.873   2.751 -0.5353  0.1120 -0.2752
20369SOL    HW162208   3.806   4.912   2.684 -1.1664 -1.2205 -0.5407
20369SOL    HW262209   3.890   4.789   2.714 -0.9593 -0.6842  1.1597
20370SOL     OW62210   7.406   0.806   7.236  0.0387 -0.0914 -0.0597
20370SOL    HW162211   7.360   0.747   7.176  0.0049 -2.1893  1.9495
20370SOL    HW262212   7.345   0.880   7.247 -1.0137 -0.8401 -0.6783
20371SOL     OW62213   6.933   2.518   8.071  0.0673  0.0109 -0.7814
20371SOL    HW162214   7.010   2.564   8.038  0.5217  0.4897  0.8484
20371SOL    HW262215   6.861   2.549   8.016  0.8031  0.6090 -1.4379
20372SOL     OW62216   1.525   2.884   8.040 -0.4876  0.1395 -0.4741
20372SOL    HW162217   1.518   2.930   8.124  0.8292  0.2775 -0.4118
20372SOL    HW262218   1.567   2.948   7.982 -0.0165 -0.4753 -0.8178
20373SOL     OW62219   8.597   4.582   2.802 -0.2328 -0.0395 -0.2165
20373SOL    HW162220   8.578   4.618   2.716 -0.8773 -1.2334 -0.5865
20373SOL    HW262221   8.604   4.488   2.788  2.3910 -0.0600  0.5380
20374SOL     OW62222   1.109   4.123   8.300 -0.3488 -0.1312 -0.6187
20374SOL    HW162223   1.059   4.047   8.332 -2.2015  2.1485  2.5073
20374SOL    HW262224   1.164   4.148   8.374 -0.9659  2.4626 -0.9489
20375SOL     OW62225   4.835   8.016   1.322  0.0280  0.6386 -0.3222
20375SOL    HW162226   4.803   7.940   1.372 -0.8566  0.2716 -1.4007
20375SOL    HW262227   4.925   8.029   1.352 -1.1311  1.8678  3.0493
20376SOL     OW62228   7.076   5.022   3.842 -0.0546  0.3289 -0.1971
20376SOL    HW162229   7.053   5.099   3.790  0.4044 -0.2090 -1.2225
20376SOL    HW262230   7.093   5.056   3.930  0.1098  1.3875 -0.6299
20377SOL     OW62231   6.912   5.038   1.763 -0.0479  0.0454 -0.3438
20377SOL    HW162232   6.854   5.065   1.834  1.4518  0.1848  0.8756
20377SOL    HW262233   6.875   4.955   1.732 -1.2460  0.4430 -0.0447
20378SOL     OW62234   1.107   1.642   5.527 -0.1838  0.0885  0.2237
20378SOL    HW162235   1.072   1.616   5.441 -1.7293  1.2284  0.4516
20378SOL    HW262236   1.029   1.651   5.582  0.2416  3.7101  0.5013
20379SOL     OW62237   2.770   0.218   1.180 -0.1117 -0.2120  0.0386
20379SOL    HW162238   2.682   0.193   1.151 -0.0066 -0.4436 -0.0797
20379SOL    HW262239   2.758   0.245   1.271  0.1141 -2.7346  0.8892
20380SOL     OW62240   8.210   6.901   4.597  0.4296  0.8260 -0.5568
20380SOL    HW162241   8.283   6.839   4.588 -0.6018 -0.3845 -1.0025
20380SOL    HW262242   8.147   6.856   4.653 -0.0363  1.7974 -0.2795
20381SOL     OW62243   1.758   4.395   3.732  0.2723  0.6415  0.3953
20381SOL    HW162244   1.733   4.486   3.719 -1.8938 -0.0583 -0.9454
20381SOL    HW262245   1.692   4.360   3.792  0.5425 -0.2637  0.1850
20382SOL     OW62246   2.500   2.885   7.317  0.3887  0.3908  0.3366
20382SOL    HW162247   2.492   2.839   7.400 -3.8803 -0.6257 -0.4089
20382SOL    HW262248   2.549   2.824   7.261 -0.2610 -0.7789  0.9980
20383SOL     OW62249   6.835   8.934   6.645  0.2249 -0.0998  0.0142
20383SOL    HW162250   6.903   8.874   6.675  0.1503 -0.5900 -0.7705
20383SOL    HW262251   6.849   8.942   6.551 -0.7286 -0.1149 -0.1465
20384SOL     OW62252   2.808   4.553   6.635  0.1249  0.0988  0.5015
20384SOL    HW162253   2.804   4.614   6.561 -1.1474 -1.3925 -0.7267
20384SOL    HW262254   2.719   4.552   6.670  0.2375 -0.7165  0.7899
20385SOL     OW62255   5.655   7.475   4.605  0.1307 -0.6556 -0.2784
20385SOL    HW162256   5.592   7.510   4.542  0.1638 -0.0250  0.0206
20385SOL    HW262257   5.674   7.550   4.662  1.3093 -0.7772 -0.4946
20386SOL     OW62258   4.603   9.078   2.467 -0.5460 -0.0809 -0.0131
20386SOL    HW162259   4.516   9.039   2.458 -1.2284  1.5062 -0.7151
20386SOL    HW262260   4.657   9.030   2.405 -1.1122 -0.5452 -0.1601
20387SOL     OW62261   7.219   8.632   6.425  0.1221 -0.1396  0.1138
20387SOL    HW162262   7.221   8.628   6.520 -1.2347  0.5122  0.1907
20387SOL    HW262263   7.177   8.551   6.398 -0.1076 -0.0226  0.1139
20388SOL     OW62264   2.443   6.740   5.230 -0.4031 -0.2047 -0.3690
20388SOL    HW162265   2.383   6.720   5.158  0.0065 -2.9255 -0.0295
20388SOL    HW262266   2.526   6.758   5.187 -0.2548 -1.4379 -0.6214
20389SOL     OW62267   1.276   3.800   0.311  0.5254  0.0588 -0.4169
20389SOL    HW162268   1.278   3.719   0.260 -2.2679 -0.2288 -0.2540
20389SOL    HW262269   1.213   3.855   0.266 -0.9021  0.3845  1.8168
20390SOL     OW62270   7.290   3.680   0.020 -0.2101 -0.0829 -0.0873
20390SOL    HW162271   7.250   3.617   0.079  0.3569 -1.8561 -1.4949
20390SOL    HW262272   7.368   3.711   0.067  0.2068 -1.4227  0.1423
20391SOL     OW62273   5.224   4.934   0.325  0.1072 -0.1232 -0.3398
20391SOL    HW162274   5.139   4.963   0.358  0.3173 -0.9483  0.9645
20391SOL    HW262275   5.237   4.848   0.364  2.1015  0.5057  0.4712
20392SOL     OW62276   3.327   8.865   0.354  0.0484  0.2475 -0.3622
20392SOL    HW162277   3.361   8.954   0.354 -0.3456  0.4039 -0.4221
20392SOL    HW262278   3.305   8.847   0.445  1.0173 -0.1441 -0.2004
20393SOL     OW62279   7.645   3.569   2.049  0.1384  0.5150  0.0721
20393SOL    HW162280   7.728   3.560   2.002  0.0012  1.0837 -0.2930
20393SOL    HW262281   7.659   3.524   2.133  1.1929  1.5629  0.4821
20394SOL     OW62282   8.810   7.517   0.029 -0.9282  0.4317  0.0414
20394SOL    HW162283   8.779   7.584   0.090 -1.8596  0.5230 -0.5172
20394SOL    HW262284   8.898   7.545   0.005 -0.8873  0.8544  0.6795
20395SOL     OW62285   0.909   1.184   8.622  0.3539 -0.2231 -0.0972
20395SOL    HW162286   0.955   1.250   8.570 -1.3052  1.8247  0.8826
20395SOL    HW262287   0.821   1.182   8.586 -0.1095 -0.6212  1.0125
20396SOL     OW62288   3.225   6.588   5.188  0.0024 -0.2177 -0.5910
20396SOL    HW162289   3.138   6.561   5.218 -0.2749  1.4177  0.1778
20396SOL    HW262290   3.209   6.633   5.105  0.2343 -0.6319 -0.8691
20397SOL     OW62291   8.970   5.723   4.871 -0.4637  0.1655  0.1490
20397SOL    HW162292   8.917   5.761   4.941  0.5853 -0.7789  1.4941
20397SOL    HW262293   8.960   5.629   4.882 -0.7694 -0.0031 -1.3759
20398SOL     OW62294   1.384   4.014   0.475  0.2336 -0.1496  0.7593
20398SOL    HW162295   1.338   3.947   0.424 -0.2165 -0.0133  0.9896
20398SOL    HW262296   1.318   4.081   0.494  1.0435  1.1972 -0.8860
20399SOL     OW62297   3.885   3.601   1.321  0.4936 -0.3156  0.3373
20399SOL    HW162298   3.918   3.530   1.376 -0.8808 -1.4496 -0.2463
20399SOL    HW262299   3.866   3.560   1.237  1.9484  1.2580 -0.8281
20400SOL     OW62300   2.339   1.285   4.117 -0.4076  0.1631 -0.0027
20400SOL    HW162301   2.249   1.275   4.145  0.0075 -0.2784  1.2163
20400SOL    HW262302   2.336   1.356   4.053 -1.6738 -0.1540 -0.3269
20401SOL     OW62303   3.481   5.809   3.560  0.2874 -0.0092 -0.0977
20401SOL    HW162304   3.571   5.824   3.589  1.1111  0.6504 -2.7330
20401SOL    HW262305   3.444   5.897   3.549 -0.5393 -0.2669  0.4698
20402SOL     OW62306   8.084   6.270   5.095  0.6053  0.3846  0.5082
20402SOL    HW162307   8.085   6.225   5.180  0.0080 -0.8063 -0.0952
20402SOL    HW262308   8.006   6.326   5.099  0.5637  0.3134  0.7242
20403SOL     OW62309   7.191   1.962   4.867  0.0125 -0.3602  0.0369
20403SOL    HW162310   7.111   2.011   4.847 -0.1241 -0.4187  0.4280
20403SOL    HW262311   7.217   1.994   4.954 -0.6353 -1.6898  0.7621
20404SOL     OW62312   1.475   0.200   8.047  0.3498 -0.0838 -0.2795
20404SOL    HW162313   1.417   0.262   8.091  0.4850 -0.3594  0.3004
20404SOL    HW262314   1.448   0.203   7.955  0.6397  1.1368 -0.3385
20405SOL     OW62315   4.977   7.506   4.282  0.1668  0.2344  0.4751
20405SOL    HW162316   5.027   7.554   4.215  2.2644 -0.4309  1.4696
20405SOL    HW262317   4.889   7.498   4.245  0.6098  1.9914 -1.1238
20406SOL     OW62318   8.459   2.558   4.580  0.2094 -0.7866  0.4422
20406SOL    HW162319   8.443   2.595   4.667 -0.5618 -1.1555  0.4657
20406SOL    HW262320   8.372   2.533   4.549  0.4586 -0.4972 -0.5112
20407SOL     OW62321   2.127   5.416   6.501  0.0049 -0.3549 -0.0174
20407SOL    HW162322   2.054   5.356   6.505 -0.7488  0.4821 -0.7920
20407SOL    HW262323   2.126   5.461   6.586 -2.6241  2.1480 -1.1982
20408SOL     OW62324   2.475   5.251   4.798  0.1004 -0.6545 -0.1386
20408SOL    HW162325   2.522   5.334   4.810 -0.1889 -0.4869 -0.1583
20408SOL    HW262326   2.484   5.232   4.705  1.2294 -1.2864  0.0853
20409SOL     OW62327   4.293   4.301   4.433  0.5482  0.2530 -0.7780
20409SOL    HW162328   4.331   4.251   4.505  0.5667  0.0364 -0.9364
20409SOL    HW262329   4.359   4.296   4.364 -0.4678 -1.6032 -1.7062
20410SOL     OW62330   5.882   4.781   1.261 -0.1129  0.2770  0.5590
20410SOL    HW162331   5.975   4.805   1.267 -0.4944  1.6150  1.5402
20410SOL    HW262332   5.842   4.853   1.212 -0.4499 -0.9376 -1.0516
20411SOL     OW62333   3.445   5.521   3.101 -0.3823  0.8190 -0.2277
20411SOL    HW162334   3.510   5.488   3.039 -0.8685 -1.9680  0.6156
20411SOL    HW262335   3.361   5.493   3.066 -0.6880 -0.5858  1.4724
20412SOL     OW62336   5.975   4.849   4.199 -0.3677  0.4629 -0.0968
20412SOL    HW162337   6.022   4.777   4.242 -1.0221  0.2909  0.3385
20412SOL    HW262338   5.889   4.850   4.241 -0.9247  0.4654 -1.2193
20413SOL     OW62339   1.705   3.894   7.552  0.4032 -0.3703 -0.2257
20413SOL    HW162340   1.749   3.904   7.467 -1.0149 -2.0921 -1.2395
20413SOL    HW262341   1.688   3.983   7.581  4.2303  0.4147  0.1270
20414SOL     OW62342   2.405   8.504   6.315 -0.8785  0.4141 -0.2069
20414SOL    HW162343   2.449   8.588   6.302 -1.6595  0.7706 -0.6475
20414SOL    HW262344   2.475   8.444   6.339 -0.2025  1.0416 -0.5458
20415SOL     OW62345   6.456   6.624   7.902  0.2282  0.1273  0.1529
20415SOL    HW162346   6.497   6.664   7.825  1.9951 -0.8444  0.5171
20415SOL    HW262347   6.453   6.695   7.967  0.4292  0.4754 -0.2107
20416SOL     OW62348   1.512   1.810   4.983  0.3393  0.6550  0.1134
20416SOL    HW162349   1.445   1.761   5.030 -0.5650  2.7875  1.2104
20416SOL    HW262350   1.502   1.782   4.892  1.5635 -2.9369  0.9224
20417SOL     OW62351   2.243   1.089   6.509 -0.1192  0.3513 -0.1038
20417SOL    HW162352   2.233   0.994   6.516 -1.0810  0.3254 -1.4620
20417SOL    HW262353   2.253   1.119   6.600  0.0802 -1.0241  0.3472
20418SOL     OW62354   6.549   7.897   7.262  0.2202 -0.3050  0.2270
20418SOL    HW162355   6.537   7.845   7.342 -0.1362 -0.4990  0.0481
20418SOL    HW262356   6.480   7.867   7.203 -0.3195  0.7382  0.3025
20419SOL     OW62357   3.416   9.069   0.859  0.3753  0.3158  0.2290
20419SOL    HW162358   3.452   9.138   0.803  0.2102 -0.5592 -0.9874
20419SOL    HW262359   3.334   9.106   0.892  0.2287  0.6671 -0.5105
20420SOL     OW62360   6.090   2.090   3.165  0.0058 -0.1562  0.1988
20420SOL    HW162361   6.021   2.095   3.231 -0.0761  0.1614  0.0919
20420SOL    HW262362   6.170   2.074   3.215  0.2842  2.0903  0.5986
20421SOL     OW62363   2.905   8.958   4.074  0.2189 -0.1526  0.1745
20421SOL    HW162364   2.961   8.906   4.132 -0.5370  1.4874  2.5093
20421SOL    HW262365   2.837   8.993   4.131  0.2754  2.7983 -1.3804
20422SOL     OW62366   1.562   3.514   2.067 -0.4150  0.2912  0.5094
20422SOL    HW162367   1.473   3.529   2.034 -0.3285 -0.5478 -0.1154
20422SOL    HW262368   1.558   3.428   2.108  0.3400 -0.1780 -0.3681
20423SOL     OW62369   2.213   8.195   7.213  0.4955 -0.1559  0.1174
20423SOL    HW162370   2.122   8.170   7.198  0.0693 -0.2480  2.4872
20423SOL    HW262371   2.228   8.267   7.152 -0.4564 -1.4963 -1.8054
20424SOL     OW62372   0.691   4.813   7.167  0.0549 -0.2558  0.1135
20424SOL    HW162373   0.678   4.898   7.210 -4.9177 -0.7089  0.1405
20424SOL    HW262374   0.667   4.829   7.076  1.6087 -1.1824 -0.4936
20425SOL     OW62375   2.731   3.900   3.695  0.2111 -0.1208  0.4758
20425SOL    HW162376   2.720   3.992   3.672 -1.3378 -0.3818  0.0884
20425SOL    HW262377   2.726   3.854   3.612 -2.9538 -0.8538  0.9571
20426SOL     OW62378   6.519   5.695   5.154  0.0375 -0.5666  0.0306
20426SOL    HW162379   6.569   5.777   5.157 -0.7503 -0.0726 -0.1566
20426SOL    HW262380   6.466   5.702   5.074  1.7485 -2.3246 -1.3498
20427SOL     OW62381   4.363   6.212   1.866  0.2265  0.1605 -0.2497
20427SOL    HW162382   4.281   6.163   1.869 -0.6346  1.5434  2.1843
20427SOL    HW262383   4.429   6.146   1.846 -1.1992 -1.4190 -0.0613
20428SOL     OW62384   6.490   6.555   3.387  0.0865 -0.3541 -0.1070
20428SOL    HW162385   6.452   6.472   3.416  0.5185  0.2339  2.3254
20428SOL    HW262386   6.578   6.556   3.423  0.6788  0.4771 -1.4928
20429SOL     OW62387   2.890   3.744   5.290 -0.2852  0.2201  0.4797
20429SOL    HW162388   2.825   3.793   5.240  0.2337  1.7274  1.2106
20429SOL    HW262389   2.942   3.698   5.224  0.4397  2.2238 -0.4202
20430SOL     OW62390   3.974   0.581   0.678  0.3044  0.0840  0.6923
20430SOL    HW162391   3.999   0.517   0.744  1.9946  0.3309  0.3389
20430SOL    HW262392   3.956   0.661   0.727  3.0603  0.7175  0.8378
20431SOL     OW62393   7.119   5.225   0.051 -0.2298 -0.4336  0.3366
20431SOL    HW162394   7.113   5.173  -0.029 -0.8112 -0.7941  0.6040
20431SOL    HW262395   7.028   5.241   0.076 -0.0643 -0.8215  1.2386
20432SOL     OW62396   2.295   2.949   3.092 -0.5040 -0.2499 -0.4893
20432SOL    HW162397   2.356   3.001   3.039 -0.9077 -1.2029 -1.9729
20432SOL    HW262398   2.350   2.883   3.135 -0.2002  0.3840  0.1089
20433SOL     OW62399   1.471   4.635   3.652 -0.5744 -0.5168  0.2097
20433SOL    HW162400   1.562   4.651   3.679 -1.1743 -2.7866  4.7076
20433SOL    HW262401   1.428   4.719   3.661  0.6213  0.1023  0.4069
20434SOL     OW62402   3.870   4.419   9.083  0.5156  0.1971  0.4263
20434SOL    HW162403   3.777   4.408   9.062  0.7203 -0.5968 -0.1401
20434SOL    HW262404   3.913   4.428   8.998  1.1647 -1.3834  0.5363
20435SOL     OW62405   2.108   0.299   2.411 -0.3430  0.0676 -0.1294
20435SOL    HW162406   2.166   0.276   2.485 -1.4234  1.0589  1.0788
20435SOL    HW262407   2.066   0.216   2.387  0.1838 -0.3119  0.2265
20436SOL     OW62408   3.797   1.311   8.622  0.4123 -0.0979 -0.3170
20436SOL    HW162409   3.775   1.365   8.545 -0.3929  2.3375  1.5032
20436SOL    HW262410   3.892   1.315   8.626  0.5113 -0.7028 -1.4483
20437SOL     OW62411   3.628   3.384   6.841  0.4376  0.0985 -0.0457
20437SOL    HW162412   3.667   3.401   6.755 -1.1292 -0.0358 -0.8028
20437SOL    HW262413   3.621   3.288   6.846 -2.1892  0.1691 -1.0692
20438SOL     OW62414   0.418   2.874   5.770  0.3178  0.1064  0.0847
20438SOL    HW162415   0.381   2.786   5.779  0.8936 -0.2708 -1.0159
20438SOL    HW262416   0.475   2.868   5.693  0.4721  1.4131  0.0785
20439SOL     OW62417   3.074   5.643   3.939 -0.5241 -0.1486  0.4007
20439SOL    HW162418   3.009   5.699   3.897  2.4240  1.9619 -1.8277
20439SOL    HW262419   3.088   5.572   3.876  0.8119  0.6367 -0.2365
20440SOL     OW62420   6.521   8.612   7.973  0.3522  0.1889  0.6012
20440SOL    HW162421   6.523   8.650   7.885 -0.1690 -0.0705  0.4755
20440SOL    HW262422   6.596   8.653   8.018  0.0557  1.0460  0.3362
20441SOL     OW62423   4.425   8.824   8.240 -0.3085  0.3986  0.2694
20441SOL    HW162424   4.427   8.737   8.199 -1.3539  0.3201  0.3456
20441SOL    HW262425   4.402   8.883   8.168 -0.9982  0.4125  0.4900
20442SOL     OW62426   6.317   1.042   6.212 -0.4692  0.1150  0.5282
20442SOL    HW162427   6.254   1.089   6.157  0.2958  2.5098  1.5480
20442SOL    HW262428   6.356   0.977   6.154  0.1656  2.3853 -1.7803
20443SOL     OW62429   5.698   3.605   4.571  0.0951  0.7603  0.4226
20443SOL    HW162430   5.679   3.640   4.484 -2.0430  1.9639  1.3097
20443SOL    HW262431   5.657   3.519   4.572  0.1623  0.7256  0.2354
20444SOL     OW62432   1.979   8.301   5.354 -0.0875 -0.1161 -0.5206
20444SOL    HW162433   1.915   8.273   5.420 -2.4396  1.2069 -2.0799
20444SOL    HW262434   1.959   8.394   5.340 -0.3439 -0.5370 -3.6890
20445SOL     OW62435   7.472   1.364   8.148  0.6236  0.3563  0.1265
20445SOL    HW162436   7.383   1.377   8.116 -0.2761 -1.9420  1.4770
20445SOL    HW262437   7.524   1.348   8.070  0.2842  3.3614 -0.8566
20446SOL     OW62438   6.147   5.949   6.168 -0.0094  0.2118 -0.4769
20446SOL    HW162439   6.070   5.944   6.111  0.0646 -0.0225 -0.5571
20446SOL    HW262440   6.146   6.039   6.201 -0.9242 -0.0930  0.3775
20447SOL     OW62441   8.727   7.692   0.235  0.4434 -0.3325 -0.5896
20447SOL    HW162442   8.688   7.777   0.255  0.5266 -0.0362 -1.6087
20447SOL    HW262443   8.689   7.632   0.299 -2.2253 -0.2084 -1.9162
20448SOL     OW62444   8.338   7.920   8.351  0.5449 -0.0967  0.2843
20448SOL    HW162445   8.396   7.848   8.326  1.5330  0.7988 -0.0961
20448SOL    HW262446   8.397   7.990   8.378 -0.3926  0.5785  0.6454
20449SOL     OW62447   8.471   4.562   3.659  0.9359  0.2056 -0.2806
20449SOL    HW162448   8.452   4.548   3.752  0.9672  0.0565 -0.2956
20449SOL    HW262449   8.561   4.534   3.649  0.7352 -0.3798 -0.4833
20450SOL     OW62450   1.094   3.149   6.901  0.1106  0.6053 -0.1189
20450SOL    HW162451   1.158   3.113   6.839  1.0853  0.2692  1.0493
20450SOL    HW262452   1.071   3.235   6.864 -0.0354  0.0363 -1.4106
20451SOL     OW62453   2.529   7.920   1.212 -0.0532  0.5037  0.3999
20451SOL    HW162454   2.493   7.959   1.292 -1.1026 -0.3928  0.4008
20451SOL    HW262455   2.545   7.828   1.235  2.3427  0.8542  0.3983
20452SOL     OW62456   4.745   3.906   8.220  0.2656  0.0354  0.2860
20452SOL    HW162457   4.835   3.937   8.234  0.2975  0.1354 -0.1375
20452SOL    HW262458   4.753   3.810   8.215  0.3395  0.0403  0.3070
20453SOL     OW62459   2.876   1.919   8.105  0.0390 -0.6419  0.1404
20453SOL    HW162460   2.842   2.009   8.111 -0.7488 -0.9385  0.1826
20453SOL    HW262461   2.915   1.902   8.191 -0.7501 -0.7109  0.4885
20454SOL     OW62462   0.995   8.203   1.278 -0.0388  0.2262 -0.4484
20454SOL    HW162463   0.999   8.284   1.226  0.8506 -0.4668 -1.5172
20454SOL    HW262464   0.902   8.191   1.297 -0.1691  1.6216 -0.0439
20455SOL     OW62465   7.557   3.087   1.578 -0.6426  0.1738  0.2162
20455SOL    HW162466   7.571   3.124   1.665  0.2446  0.2402  0.0543
20455SOL    HW262467   7.525   2.998   1.594 -1.5398  0.5620  0.6030
20456SOL     OW62468   0.534   5.657   6.206 -0.1565  0.4811  0.3609
20456SOL    HW162469   0.462   5.672   6.267 -0.4844 -0.2788  0.1687
20456SOL    HW262470   0.594   5.730   6.222  0.5294 -0.4954  2.7005
20457SOL     OW62471   5.022   5.298   7.164 -0.0543 -0.1601 -0.3322
20457SOL    HW162472   5.112   5.328   7.147 -0.0621  0.5092  0.7375
20457SOL    HW262473   4.986   5.363   7.224 -1.7761  0.4360 -1.8907
20458SOL     OW62474   0.165   6.948   3.893 -0.1643 -0.6551  0.6535
20458SOL    HW162475   0.189   6.855   3.889 -2.5638 -1.2948 -1.0807
20458SOL    HW262476   0.074   6.950   3.864 -0.0294  2.3210  0.1883
20459SOL     OW62477   6.912   3.309   6.717  0.0692 -0.1538 -0.3983
20459SOL    HW162478   6.878   3.311   6.807  0.4486 -0.6311 -0.2357
20459SOL    HW262479   6.841   3.273   6.665 -0.1380  0.0854 -0.2812
20460SOL     OW62480   3.155   8.608   9.018 -0.1330  0.5840  0.4530
20460SOL    HW162481   3.213   8.639   8.950  0.0730 -0.1350  0.2892
20460SOL    HW262482   3.076   8.580   8.972  0.2347 -0.4687  0.4161
20461SOL     OW62483   6.918   6.930   1.696  0.2982  0.2635  0.5486
20461SOL    HW162484   6.994   6.871   1.695  0.4414  0.4493 -0.0082
20461SOL    HW262485   6.952   7.013   1.664 -0.2687  0.1692 -0.3492
20462SOL     OW62486   0.353   4.267   9.024  0.8329  0.2506  0.3792
20462SOL    HW162487   0.308   4.351   9.009  0.6536  0.0147 -0.4997
20462SOL    HW262488   0.391   4.246   8.939 -0.0812 -1.1124  0.2778
20463SOL     OW62489   1.572   6.086   4.449 -0.0462  0.2016 -0.3600
20463SOL    HW162490   1.577   6.035   4.530  2.4125  2.0356  0.8048
20463SOL    HW262491   1.542   6.172   4.478  2.9506  1.5449 -0.9173
20464SOL     OW62492   6.037   7.038   7.588 -0.3704  0.4775 -0.3715
20464SOL    HW162493   6.056   7.046   7.681  0.8227  1.2965 -0.6675
20464SOL    HW262494   5.960   6.981   7.584 -0.7308  0.8251  1.1274
20465SOL     OW62495   0.380   7.863   4.826 -0.1542  0.4924 -0.2742
20465SOL    HW162496   0.439   7.903   4.762  1.5683  0.5327  1.2804
20465SOL    HW262497   0.342   7.937   4.873 -1.3657  0.4589 -1.1381
20466SOL     OW62498   0.898   8.599   8.600 -0.1133 -0.4740  0.3753
20466SOL    HW162499   0.921   8.553   8.680 -0.6935 -0.6952  0.4154
20466SOL    HW262500   0.967   8.665   8.589  0.3383 -0.8957  0.6820
20467SOL     OW62501   7.646   8.269   2.212 -0.0008 -0.3689  0.2088
20467SOL    HW162502   7.634   8.363   2.222  1.0365 -0.0492 -1.2845
20467SOL    HW262503   7.558   8.233   2.209 -0.4580  0.7905 -1.1095
20468SOL     OW62504   2.428   8.874   5.478 -0.1770  0.0099  0.2053
20468SOL    HW162505   2.395   8.903   5.563  1.0446  1.5055  0.2188
20468SOL    HW262506   2.373   8.919   5.414  0.4198  0.8030  0.2301
20469SOL     OW62507   2.251   0.576   6.791 -0.2527 -0.1694 -0.0209
20469SOL    HW162508   2.266   0.486   6.822 -1.3549  0.7204  3.4967
20469SOL    HW262509   2.161   0.595   6.814  0.8030  2.8254  2.2732
20470SOL     OW62510   1.341   8.926   5.931  0.2275 -0.3740 -1.0478
20470SOL    HW162511   1.345   9.010   5.976 -0.0540 -1.2697  0.7055
20470SOL    HW262512   1.413   8.875   5.969  1.1904 -0.5523 -2.9722
20471SOL     OW62513   5.419   7.487   0.412  0.3288 -0.2680 -0.3078
20471SOL    HW162514   5.451   7.574   0.437 -2.5279  0.7519  0.1878
20471SOL    HW262515   5.364   7.460   0.485 -0.6202 -1.4897 -1.4272
20472SOL     OW62516   5.644   7.385   0.602 -0.4131 -0.1946 -0.1625
20472SOL    HW162517   5.697   7.425   0.671  0.9059 -0.4131 -1.0205
20472SOL    HW262518   5.658   7.441   0.525 -2.8481  0.7869  0.0072
20473SOL     OW62519   4.029   6.820   2.259  0.3476 -0.3346 -0.2706
20473SOL    HW162520   4.091   6.767   2.309  0.5548 -0.2482 -0.4349
20473SOL    HW262521   4.077   6.901   2.240 -0.6024  0.7206  1.6062
20474SOL     OW62522   2.233   5.840   4.487  0.4429 -0.3609 -0.7436
20474SOL    HW162523   2.202   5.856   4.398  0.8909 -0.4238 -0.9133
20474SOL    HW262524   2.308   5.899   4.497 -1.4445  1.9856  0.6670
20475SOL     OW62525   4.025   0.853   1.128 -0.1303 -0.6677  0.1748
20475SOL    HW162526   4.115   0.840   1.157  0.9009  0.7531 -2.1174
20475SOL    HW262527   3.999   0.936   1.169 -0.7756 -1.5155  1.5571
20476SOL     OW62528   2.042   6.743   3.969 -0.3118  0.1992  0.3775
20476SOL    HW162529   2.100   6.724   3.895 -0.2223  1.2889  0.1557
20476SOL    HW262530   2.056   6.671   4.030  1.3091  0.4703  0.3498
20477SOL     OW62531   6.833   3.729   6.683 -0.1694 -0.9145 -0.6041
20477SOL    HW162532   6.846   3.704   6.774  1.6198  0.1418 -0.5253
20477SOL    HW262533   6.874   3.658   6.632  1.2857 -0.2073 -0.4785
20478SOL     OW62534   5.814   4.174   1.786  0.7637 -0.3993  0.5107
20478SOL    HW162535   5.871   4.101   1.812 -0.2823 -1.7999 -0.9334
20478SOL    HW262536   5.733   4.132   1.757 -0.4770  1.4557  1.0984
20479SOL     OW62537   4.164   3.577   0.022  0.4868  1.2543 -0.0665
20479SOL    HW162538   4.216   3.642   0.070  0.2158  0.8400  0.8126
20479SOL    HW262539   4.130   3.519   0.090 -0.6683  1.1837 -0.6768
20480SOL     OW62540   4.905   4.397   6.994  0.1248  0.3334  0.2489
20480SOL    HW162541   4.892   4.489   6.970  1.5132  0.8818  1.4397
20480SOL    HW262542   4.989   4.374   6.956 -0.7295 -0.8221 -1.0064
20481SOL     OW62543   0.043   0.532   1.588 -0.2655 -0.3327 -0.1268
20481SOL    HW162544  -0.021   0.604   1.591 -0.6778 -0.7273  1.6306
20481SOL    HW262545   0.112   0.564   1.529 -1.1268  0.9099 -0.5007
20482SOL     OW62546   8.541   6.106   8.023 -0.3619  0.4181  0.4530
20482SOL    HW162547   8.595   6.112   7.944 -0.3276  1.7689  0.5466
20482SOL    HW262548   8.573   6.028   8.069  1.3025  1.0077  0.3572
20483SOL     OW62549   6.843   8.327   8.137  0.5810  0.6274  0.4328
20483SOL    HW162550   6.761   8.277   8.137 -0.2547  1.9278  1.5126
20483SOL    HW262551   6.818   8.413   8.104  1.1568  1.5244  2.2234
20484SOL     OW62552   7.970   5.111   8.514 -0.4165  0.0839 -0.2165
20484SOL    HW162553   7.970   5.182   8.450 -0.7762  1.2654  1.0506
20484SOL    HW262554   8.060   5.110   8.548 -0.3489 -0.2378 -0.4015
20485SOL     OW62555   2.751   5.046   7.515  0.2827 -0.0023 -0.1792
20485SOL    HW162556   2.791   5.110   7.574  0.0642 -0.2540  0.2559
20485SOL    HW262557   2.808   5.043   7.439 -0.0093  1.1418 -0.4717
20486SOL     OW62558   1.630   1.415   4.212 -0.5408 -0.1358 -0.0912
20486SOL    HW162559   1.543   1.397   4.175  0.2455 -2.5145 -0.9244
20486SOL    HW262560   1.624   1.385   4.302 -0.0300 -2.2839 -0.7255
20487SOL     OW62561   3.163   2.509   7.258  0.8482  0.1752  0.3926
20487SOL    HW162562   3.216   2.431   7.245  1.7473  0.9426 -0.8381
20487SOL    HW262563   3.217   2.581   7.224 -1.0084  0.9973 -1.0507
20488SOL     OW62564   1.341   2.164   5.039 -0.0075 -0.2220 -0.0275
20488SOL    HW162565   1.323   2.235   5.101 -0.9654 -0.2824 -0.2091
20488SOL    HW262566   1.405   2.200   4.978  0.2690  0.1424  0.4699
20489SOL     OW62567   8.648   4.030   1.254  0.1584 -0.1455 -0.7531
20489SOL    HW162568   8.601   3.947   1.254 -0.3901  0.1572 -0.5978
20489SOL    HW262569   8.591   4.089   1.205 -0.6485  0.7956  1.2364
20490SOL     OW62570   6.800   8.787   8.062  0.3573  0.0232 -0.6538
20490SOL    HW162571   6.842   8.855   8.116 -0.2340  1.3405 -1.8031
20490SOL    HW262572   6.872   8.729   8.037  0.9587  0.4898 -0.0617
20491SOL     OW62573   0.810   2.242   4.488  0.0337  0.6605 -0.7455
20491SOL    HW162574   0.792   2.162   4.538 -0.4059  2.1114  1.5088
20491SOL    HW262575   0.733   2.253   4.432 -0.3087 -0.0066 -0.4165
20492SOL     OW62576   2.207   4.690   2.107 -0.1458  0.7873  0.2331
20492SOL    HW162577   2.148   4.756   2.144  0.4288  0.6645  1.3867
20492SOL    HW262578   2.265   4.666   2.179 -2.7313 -3.8713  1.1381
20493SOL     OW62579   8.938   5.590   2.895 -0.0295  0.7449  0.0444
20493SOL    HW162580   9.025   5.629   2.906 -0.0769  0.3965  2.0827
20493SOL    HW262581   8.954   5.510   2.845  0.4798  1.7662 -1.5289
20494SOL     OW62582   7.153   3.554   2.832 -0.2648  0.0938 -0.9449
20494SOL    HW162583   7.143   3.506   2.913  0.7462  1.3207 -0.0500
20494SOL    HW262584   7.227   3.512   2.787  0.4831  0.6533 -0.2626
20495SOL     OW62585   7.450   1.140   7.023  0.3541 -0.5010 -0.2969
20495SOL    HW162586   7.492   1.092   7.095  0.7522 -0.0473 -0.2199
20495SOL    HW262587   7.514   1.139   6.952  0.2120 -0.4144 -0.4271
20496SOL     OW62588   1.880   2.639   4.356  0.2308 -0.5019 -0.3865
20496SOL    HW162589   1.916   2.726   4.338  0.0927 -0.5957 -1.1568
20496SOL    HW262590   1.940   2.600   4.419 -1.4267  1.3614  2.5609
20497SOL     OW62591   6.925   8.415   0.260 -0.1977  0.9448 -0.0479
20497SOL    HW162592   6.993   8.416   0.327 -0.4436 -1.5506  0.3611
20497SOL    HW262593   6.848   8.453   0.303 -0.2054 -0.1564  0.9703
20498SOL     OW62594   0.476   0.264   7.398  0.0617  0.7101 -0.3455
20498SOL    HW162595   0.472   0.174   7.430  0.1432  0.1656 -1.7991
20498SOL    HW262596   0.422   0.314   7.460  2.6174  0.3129  2.3910
20499SOL     OW62597   5.987   6.578   3.650  0.0126 -0.2932  0.1941
20499SOL    HW162598   5.905   6.556   3.605 -1.7625  0.4077  2.8814
20499SOL    HW262599   6.035   6.495   3.653 -1.2354 -1.0629 -0.1646
20500SOL     OW62600   1.354   2.264   1.710 -0.0198  0.0310  0.1278
20500SOL    HW162601   1.306   2.326   1.655 -0.0431  1.0082  1.2210
20500SOL    HW262602   1.315   2.272   1.797 -0.4112 -1.9491  0.1950
20501SOL     OW62603   7.453   7.010   8.874  0.6173 -0.0064  0.2206
20501SOL    HW162604   7.418   7.018   8.785 -0.6396 -1.4957  0.5259
20501SOL    HW262605   7.489   7.096   8.894 -1.2862  1.1096 -0.8321
20502SOL     OW62606   3.867   4.059   2.910  0.5921 -0.4695 -0.0641
20502SOL    HW162607   3.839   3.982   2.860  1.0326 -0.5159 -0.2458
20502SOL    HW262608   3.953   4.080   2.874  0.8772 -0.4556  0.6272
20503SOL     OW62609   2.136   6.543   7.381 -0.3221  0.5384  0.5739
20503SOL    HW162610   2.055   6.505   7.347  0.1852 -0.1141  0.0695
20503SOL    HW262611   2.191   6.467   7.402  0.8009  0.9745 -0.6536
20504SOL     OW62612   5.605   7.587   7.905  0.3151  0.2126  0.2594
20504SOL    HW162613   5.549   7.562   7.978 -0.3653 -0.4948 -0.4713
20504SOL    HW262614   5.689   7.545   7.923 -0.4815 -1.7944 -0.3851
20505SOL     OW62615   3.288   7.323   2.163 -0.2273  0.5710 -0.5329
20505SOL    HW162616   3.204   7.304   2.204 -0.0492  2.1635  0.6822
20505SOL    HW262617   3.267   7.339   2.071 -1.2485  0.7865 -0.2775
20506SOL     OW62618   7.279   8.116   1.168 -0.2130 -0.1242  0.5410
20506SOL    HW162619   7.262   8.162   1.250 -2.4112 -0.8999  0.5937
20506SOL    HW262620   7.264   8.024   1.188 -0.1330 -0.3967 -0.5745
20507SOL     OW62621   0.710   1.924   4.087  0.0282  0.4197 -0.1032
20507SOL    HW162622   0.779   1.874   4.133 -0.4509 -0.0773  0.0899
20507SOL    HW262623   0.710   1.888   3.998 -1.0519 -0.7155  0.3264
20508SOL     OW62624   0.734   5.307   0.555 -0.0450  0.3082 -0.0673
20508SOL    HW162625   0.739   5.391   0.600 -0.4606  0.4433 -0.2772
20508SOL    HW262626   0.823   5.272   0.561 -0.2748 -0.0906  1.6463
20509SOL     OW62627   6.849   6.727   8.636  0.1430  0.2253  0.1847
20509SOL    HW162628   6.790   6.782   8.688 -2.6661 -2.1191 -0.2842
20509SOL    HW262629   6.879   6.659   8.697  1.5053  0.7002  0.0978
20510SOL     OW62630   6.505   8.306   3.171  0.2929  0.0499 -0.2830
20510SOL    HW162631   6.553   8.362   3.110  0.9134  1.1820  1.2014
20510SOL    HW262632   6.554   8.312   3.253 -1.2095 -0.4527  0.6895
20511SOL     OW62633   2.121   4.952   6.040 -0.6733 -0.6954 -0.4951
20511SOL    HW162634   2.093   4.887   5.974 -0.7291  0.1858 -1.3669
20511SOL    HW262635   2.104   5.036   5.998  1.2966 -0.1050 -0.2091
20512SOL     OW62636   6.178   0.980   5.911  0.1306  0.0073 -0.3896
20512SOL    HW162637   6.088   0.956   5.891 -0.1790 -1.3181  2.1634
20512SOL    HW262638   6.175   1.074   5.928 -1.0112 -0.1785  0.6123
20513SOL     OW62639   2.156   0.105   8.005 -0.0868 -0.0032 -0.4084
20513SOL    HW162640   2.221   0.162   8.045 -2.1207  2.0151  0.1837
20513SOL    HW262641   2.195   0.078   7.922  1.3245  1.4953 -0.2659
20514SOL     OW62642   6.577   5.007   4.005  0.7523 -0.1588 -0.0061
20514SOL    HW162643   6.526   4.950   3.949  0.0891  1.2435 -0.8738
20514SOL    HW262644   6.663   4.964   4.011  0.3850 -1.0514 -0.9053
20515SOL     OW62645   5.025   6.188   2.795 -0.1670  0.2261 -0.1331
20515SOL    HW162646   5.081   6.118   2.827 -0.9225 -0.2538  0.1466
20515SOL    HW262647   4.979   6.151   2.720  0.1298  0.7246 -0.5698
20516SOL     OW62648   2.551   1.962   2.204 -0.3306  0.1405 -0.1869
20516SOL    HW162649   2.573   1.999   2.119  1.8333 -2.1321 -0.7024
20516SOL    HW262650   2.609   2.008   2.265 -0.3415  0.2271 -0.2406
20517SOL     OW62651   5.956   8.808   8.251  0.2400 -0.3532 -1.1230
20517SOL    HW162652   5.969   8.863   8.328 -0.5761  0.4359 -1.5322
20517SOL    HW262653   6.013   8.847   8.184  2.5019 -2.1993 -0.4305
20518SOL     OW62654   1.786   4.709   0.310  0.0030  0.0090  0.0566
20518SOL    HW162655   1.749   4.757   0.236 -0.0974  0.2950  0.2894
20518SOL    HW262656   1.873   4.683   0.281 -0.8236 -1.7783 -0.9810
20519SOL     OW62657   2.788   5.384   6.123  0.6472  0.1240 -0.5415
20519SOL    HW162658   2.839   5.405   6.045 -1.1499 -0.5457 -1.9608
20519SOL    HW262659   2.743   5.303   6.101  0.4371 -0.3302  1.3944
20520SOL     OW62660   4.262   6.215   4.697 -0.0088  0.0011  0.1203
20520SOL    HW162661   4.170   6.194   4.681 -0.0921  0.1360  0.4149
20520SOL    HW262662   4.300   6.131   4.726  0.0624 -0.1569 -0.4173
20521SOL     OW62663   8.754   0.566   2.959 -0.2675  0.7933  0.4413
20521SOL    HW162664   8.684   0.544   2.897  1.6330 -2.1580 -0.9102
20521SOL    HW262665   8.810   0.627   2.911 -0.0225  0.3083  0.0982
20522SOL     OW62666   7.384   8.083   7.858  0.4962  0.0325  0.7760
20522SOL    HW162667   7.443   8.140   7.808  1.2144 -0.6284  0.8644
20522SOL    HW262668   7.399   8.106   7.949  0.5486 -0.0778  0.7950
20523SOL     OW62669   8.604   7.495   5.919  0.2543 -0.7205 -0.0932
20523SOL    HW162670   8.626   7.409   5.885  0.9929 -1.6022  2.4314
20523SOL    HW262671   8.658   7.505   5.997  0.2718  2.0988 -0.3555
20524SOL     OW62672   1.863   3.491   0.714 -0.3183 -0.0241  0.2638
20524SOL    HW162673   1.848   3.578   0.676  0.5582  0.1597  0.3187
20524SOL    HW262674   1.948   3.464   0.680 -0.6012 -0.8921  0.2067
20525SOL     OW62675   1.535   0.826   8.174 -0.1967 -0.5608  0.1406
20525SOL    HW162676   1.602   0.816   8.242  0.6078  2.5961 -0.0461
20525SOL    HW262677   1.582   0.820   8.091 -1.1848 -4.4748 -0.3403
20526SOL     OW62678   7.410   4.813   8.457  0.1792  0.2991  0.0499
20526SOL    HW162679   7.360   4.735   8.478  1.4089 -0.2031  1.2401
20526SOL    HW262680   7.345   4.884   8.456 -1.1394 -0.8170 -2.1015
20527SOL     OW62681   1.202   2.638   2.908 -0.2537 -0.3548 -0.0249
20527SOL    HW162682   1.183   2.700   2.838 -0.7977 -0.0655  0.3672
20527SOL    HW262683   1.297   2.626   2.904 -0.0710  0.8498  0.1691
20528SOL     OW62684   2.116   3.831   8.627 -0.5638  0.6040  0.0746
20528SOL    HW162685   2.120   3.737   8.644 -1.2110  0.5575  0.0166
20528SOL    HW262686   2.204   3.864   8.648 -1.2365  0.5763  3.7103
20529SOL     OW62687   4.352   4.564   2.111 -0.3832 -0.5240 -0.0591
20529SOL    HW162688   4.381   4.485   2.157  0.3370 -0.2458 -0.0219
20529SOL    HW262689   4.374   4.635   2.171 -2.2634 -0.3630  0.5194
20530SOL     OW62690   2.399   1.454   3.875  0.7283  0.2469 -0.3094
20530SOL    HW162691   2.387   1.437   3.782 -0.1935 -0.2816 -0.1109
20530SOL    HW262692   2.340   1.526   3.894  1.4900  0.8766 -0.2784
20531SOL     OW62693   5.340   4.356   7.272 -0.2824 -0.4622 -0.7523
20531SOL    HW162694   5.351   4.450   7.287 -1.3177 -0.0884 -2.0471
20531SOL    HW262695   5.354   4.345   7.178  0.6228 -1.7527 -0.4953
20532SOL     OW62696   6.789   7.539   0.563 -0.7882  0.3540 -0.2577
20532SOL    HW162697   6.835   7.619   0.538  1.3892 -1.0162 -0.8604
20532SOL    HW262698   6.807   7.530   0.657  1.3832 -0.8157 -0.7114
20533SOL     OW62699   6.245   3.842   7.993  0.5863 -0.8492  0.0564
20533SOL    HW162700   6.272   3.904   8.060  0.3774 -2.3460  1.5970
20533SOL    HW262701   6.318   3.840   7.931  1.1175 -0.0043  0.6356
20534SOL     OW62702   1.179   1.195   8.856 -0.2177 -0.0315  0.5068
20534SOL    HW162703   1.212   1.193   8.946  1.5918 -1.4377 -0.1308
20534SOL    HW262704   1.122   1.119   8.850 -0.1377 -0.0828  0.3988
20535SOL     OW62705   4.853   8.201   1.565 -0.4570  0.3501  0.0434
20535SOL    HW162706   4.820   8.241   1.483 -1.0031  0.3321  0.2490
20535SOL    HW262707   4.941   8.238   1.575 -0.3462  0.2855 -0.6004
20536SOL     OW62708   2.568   4.404   6.575 -0.0389  0.2120  0.0090
20536SOL    HW162709   2.506   4.390   6.504  0.1999  0.6612 -0.2921
20536SOL    HW262710   2.515   4.441   6.646 -0.1084  0.6661 -0.2749
20537SOL     OW62711   4.174   5.935   5.736 -0.2523  0.2575  0.2004
20537SOL    HW162712   4.244   5.910   5.676 -0.5299  0.1157 -0.0683
20537SOL    HW262713   4.145   5.853   5.775  0.2558  0.3997  0.9029
20538SOL     OW62714   3.318   1.660   3.885 -0.4376 -0.1135 -0.0721
20538SOL    HW162715   3.297   1.679   3.794 -0.1939 -0.5048 -0.2138
20538SOL    HW262716   3.327   1.565   3.889 -0.0401 -0.0675  0.2694
20539SOL     OW62717   5.272   2.866   3.540  0.1614 -0.5637 -0.2073
20539SOL    HW162718   5.334   2.846   3.470  0.2123 -0.4257 -0.2018
20539SOL    HW262719   5.289   2.800   3.607 -0.0134 -0.8097 -0.4039
20540SOL     OW62720   1.611   5.818   5.283  0.2367 -0.2515 -0.3547
20540SOL    HW162721   1.676   5.792   5.218 -0.2730  1.3478 -1.5771
20540SOL    HW262722   1.562   5.888   5.241 -0.3960  0.5699  1.6323
20541SOL     OW62723   4.149   4.493   6.075  0.4070 -0.3256 -0.3688
20541SOL    HW162724   4.230   4.534   6.043  0.7404  1.2739  2.2069
20541SOL    HW262725   4.079   4.541   6.031  0.8568  1.3269  0.6145
20542SOL     OW62726   8.783   2.952   5.577  0.7543 -0.4914 -0.1068
20542SOL    HW162727   8.807   2.861   5.556  0.4130 -1.0011  1.5347
20542SOL    HW262728   8.867   2.995   5.595  0.8058 -1.0997  1.2738
20543SOL     OW62729   2.837   1.809   4.047  0.7094 -0.4413 -0.7851
20543SOL    HW162730   2.778   1.885   4.049  0.6328 -0.4772  1.6518
20543SOL    HW262731   2.898   1.828   3.975  1.5158  2.6313  0.5086
20544SOL     OW62732   8.371   5.827   2.478 -0.2673 -0.0681 -0.3870
20544SOL    HW162733   8.338   5.904   2.432  0.4827  0.1255 -0.6236
20544SOL    HW262734   8.392   5.765   2.408 -3.4859 -1.6479 -0.1285
20545SOL     OW62735   3.822   0.655   0.203  0.5456 -0.1651  0.4562
20545SOL    HW162736   3.827   0.663   0.108  1.1989 -1.7047  0.3274
20545SOL    HW262737   3.811   0.745   0.235  3.0502  0.7159 -0.9114
20546SOL     OW62738   6.551   4.542   3.964  0.6997  0.3639 -0.5549
20546SOL    HW162739   6.498   4.497   4.030  2.2789 -1.2012 -0.2948
20546SOL    HW262740   6.542   4.487   3.886  0.0562  1.3965 -1.2333
20547SOL     OW62741   6.207   7.960   2.393  0.1341  0.4809 -0.1145
20547SOL    HW162742   6.195   8.044   2.348  2.2157  1.2089  0.5705
20547SOL    HW262743   6.183   7.978   2.484 -1.6230 -0.3270 -0.3647
20548SOL     OW62744   7.847   5.785   0.018 -0.3001 -0.0204 -0.5227
20548SOL    HW162745   7.838   5.699  -0.022  1.1617 -1.1957  1.4495
20548SOL    HW262746   7.780   5.787   0.086 -0.9173  0.8066 -1.1322
20549SOL     OW62747   5.989   8.454   4.343 -0.1419  0.3501  0.4852
20549SOL    HW162748   5.957   8.371   4.376  0.6369  0.7941  2.5385
20549SOL    HW262749   5.985   8.446   4.248 -0.1278 -1.9992  0.6336
20550SOL     OW62750   4.388   4.325   1.236 -0.0153  0.3820 -0.5614
20550SOL    HW162751   4.407   4.323   1.330  0.2011  3.0044 -0.4800
20550SOL    HW262752   4.464   4.284   1.195  0.3235  0.0730  0.3456
20551SOL     OW62753   8.624   5.296   3.521 -0.0501 -0.3062  0.5590
20551SOL    HW162754   8.595   5.247   3.444  1.1552 -1.8698  1.0341
20551SOL    HW262755   8.618   5.388   3.495 -2.2149 -0.6753 -0.4483
20552SOL     OW62756   6.698   5.793   8.197 -0.0670  0.0773  0.2198
20552SOL    HW162757   6.720   5.884   8.179  2.9779 -0.6613 -0.3351
20552SOL    HW262758   6.663   5.760   8.114  0.6397  0.2703 -0.1596
20553SOL     OW62759   1.889   1.216   0.084  0.0637  0.5544  0.8378
20553SOL    HW162760   1.849   1.143   0.130  0.0636  0.7487  1.1467
20553SOL    HW262761   1.983   1.199   0.087 -0.0321 -0.8748 -1.4911
20554SOL     OW62762   3.581   4.131   1.911  0.0456  0.1762 -0.1668
20554SOL    HW162763   3.602   4.060   1.972 -2.0563  0.8214  1.4161
20554SOL    HW262764   3.580   4.089   1.825  2.8720 -0.8013  0.1790
20555SOL     OW62765   5.694   2.309   0.824  0.0474  0.3464 -0.7174
20555SOL    HW162766   5.718   2.402   0.817 -1.2089  0.7616  0.0596
20555SOL    HW262767   5.728   2.269   0.745 -0.8321  1.8083 -1.8883
20556SOL     OW62768   1.448   7.210   2.073 -0.1878 -0.2234  0.5978
20556SOL    HW162769   1.489   7.270   2.134 -2.0243 -0.4725  2.1783
20556SOL    HW262770   1.518   7.149   2.048  1.5627  2.0931 -0.5817
20557SOL     OW62771   0.873   8.544   3.325 -0.1142 -0.2830 -0.2547
20557SOL    HW162772   0.889   8.598   3.403 -0.7045 -3.0415  1.9432
20557SOL    HW262773   0.825   8.602   3.266 -0.0964  1.8122  1.6142
20558SOL     OW62774   1.708   4.328   6.791  0.3821  0.1422 -0.0524
20558SOL    HW162775   1.749   4.387   6.855 -0.2990  1.2691 -0.6254
20558SOL    HW262776   1.661   4.264   6.845 -0.1195  1.0263  0.6002
20559SOL     OW62777   3.233   6.302   2.848  0.4573 -0.5128  0.2410
20559SOL    HW162778   3.215   6.396   2.852 -0.5054 -0.6425 -0.5155
20559SOL    HW262779   3.235   6.274   2.940 -1.8773 -0.1806  0.4659
20560SOL     OW62780   7.516   4.098   1.430  0.2491  0.2729 -0.1619
20560SOL    HW162781   7.488   4.180   1.390  0.1660  0.1367 -0.3825
20560SOL    HW262782   7.503   4.112   1.524  1.4640  0.9851 -0.0762
20561SOL     OW62783   2.616   3.219   2.900 -0.6766 -0.0072  0.6105
20561SOL    HW162784   2.532   3.235   2.859 -0.0872 -0.6527 -0.9095
20561SOL    HW262785   2.663   3.302   2.892  0.1992 -0.6645 -1.9735
20562SOL     OW62786   2.837   3.723   5.690 -0.3944 -0.1563 -0.5051
20562SOL    HW162787   2.833   3.638   5.734 -0.6354 -0.1603 -0.5372
20562SOL    HW262788   2.860   3.785   5.759  0.3958 -0.3344 -0.5882
20563SOL     OW62789   4.420   0.087   0.509  0.5915  0.2723 -0.4297
20563SOL    HW162790   4.385   0.046   0.588  1.9030  0.6472  0.3838
20563SOL    HW262791   4.390   0.031   0.437  1.1338 -1.2940  0.5162
20564SOL     OW62792   2.851   1.289   0.694  0.3087 -0.1646  0.3266
20564SOL    HW162793   2.760   1.318   0.690  0.0905 -0.3227  2.8989
20564SOL    HW262794   2.899   1.354   0.641 -1.0732  0.8405  0.2455
20565SOL     OW62795   3.449   4.188   0.673  0.5574 -0.8119 -0.1642
20565SOL    HW162796   3.442   4.117   0.737 -0.0828 -0.9810 -0.4065
20565SOL    HW262797   3.359   4.218   0.661  0.8917  0.4448  0.3753
20566SOL     OW62798   5.557   7.662   6.643  0.1132  0.4371 -0.1586
20566SOL    HW162799   5.503   7.707   6.708 -0.1248 -1.3902  0.9860
20566SOL    HW262800   5.641   7.649   6.687  0.5548  0.7731 -0.8953
20567SOL     OW62801   3.263   7.830   5.440  0.0531 -0.1278 -0.2418
20567SOL    HW162802   3.186   7.775   5.430 -0.4326 -0.0893  2.4380
20567SOL    HW262803   3.231   7.919   5.424  0.4121 -0.3867 -2.6872
20568SOL     OW62804   1.809   4.004   1.719 -0.6553 -0.5012  0.3596
20568SOL    HW162805   1.778   3.977   1.633  0.5840 -2.3908  0.4373
20568SOL    HW262806   1.730   4.027   1.768 -1.3356  1.3411 -1.4673
20569SOL     OW62807   4.661   4.004   6.669  0.0505 -0.2713 -0.6499
20569SOL    HW162808   4.724   3.962   6.609  0.5843  1.9779 -1.7992
20569SOL    HW262809   4.716   4.055   6.728 -0.6373  0.6379 -0.7880
20570SOL     OW62810   3.447   7.156   7.854  0.5176  0.1718 -0.0430
20570SOL    HW162811   3.466   7.206   7.933 -1.3346 -3.0513  2.7274
20570SOL    HW262812   3.477   7.068   7.874  0.7468 -0.6340 -3.3710
20571SOL     OW62813   0.965   5.692   0.662 -0.0131 -0.6759 -0.0601
20571SOL    HW162814   1.019   5.710   0.585 -0.4922 -1.1978 -0.5343
20571SOL    HW262815   0.901   5.627   0.631 -1.9827  1.1352  0.0025
20572SOL     OW62816   7.940   8.477   4.254  0.6114 -0.1557 -0.8036
20572SOL    HW162817   7.921   8.566   4.223  1.1901  0.1287 -0.3513
20572SOL    HW262818   8.032   8.463   4.233  0.2001 -1.1654 -2.0790
20573SOL     OW62819   4.160   5.199   2.640 -0.3913  0.0272 -0.3158
20573SOL    HW162820   4.099   5.152   2.583  0.4834  0.2518 -1.4543
20573SOL    HW262821   4.241   5.205   2.590 -0.0286  1.4562  0.3962
20574SOL     OW62822   2.930   2.020   1.771  0.2044 -0.2230 -0.1278
20574SOL    HW162823   2.850   2.068   1.749 -1.0941 -1.7374  1.0239
20574SOL    HW262824   3.000   2.071   1.732 -1.3723  0.7637 -1.8404
20575SOL     OW62825   1.369   8.831   2.315 -0.1969  0.3120  0.2890
20575SOL    HW162826   1.307   8.894   2.278 -1.8083 -2.2902 -1.7675
20575SOL    HW262827   1.318   8.752   2.330  1.8538 -0.7624  2.2540
20576SOL     OW62828   0.006   5.811   8.722 -0.2191 -0.4453  0.3370
20576SOL    HW162829   0.045   5.741   8.669 -2.4309 -1.2057 -0.4074
20576SOL    HW262830  -0.005   5.883   8.660 -0.9320 -0.6220  0.2430
20577SOL     OW62831   2.677   1.742   7.128 -0.3751  0.2851  0.0947
20577SOL    HW162832   2.719   1.821   7.094 -0.7934  0.4023 -0.1509
20577SOL    HW262833   2.625   1.773   7.202 -0.5440  0.2389 -0.0053
20578SOL     OW62834   4.324   0.515   7.898  0.0738 -0.7101  0.2775
20578SOL    HW162835   4.384   0.442   7.882  1.5691  0.6640 -0.7669
20578SOL    HW262836   4.380   0.593   7.894 -1.7702  0.6438 -0.5733
20579SOL     OW62837   7.727   4.846   8.639 -0.5012 -0.7031  0.3894
20579SOL    HW162838   7.705   4.936   8.617  0.0402 -0.7658 -0.4641
20579SOL    HW262839   7.735   4.845   8.734  1.3568  0.5824  0.2905
20580SOL     OW62840   3.887   4.771   5.552 -0.4232  0.0224 -0.0293
20580SOL    HW162841   3.867   4.825   5.629  0.8261  1.2912 -0.5374
20580SOL    HW262842   3.827   4.802   5.485  2.1299  3.0370 -1.2167
20581SOL     OW62843   2.213   6.609   2.724  0.9494 -0.6149 -0.0266
20581SOL    HW162844   2.145   6.547   2.751 -0.1376  0.0915 -1.0442
20581SOL    HW262845   2.194   6.689   2.772  0.1315  0.0484 -1.3779
20582SOL     OW62846   6.337   7.353   8.105 -0.8090  0.3811 -0.0347
20582SOL    HW162847   6.424   7.373   8.140 -0.2161 -2.6930  0.4735
20582SOL    HW262848   6.277   7.384   8.173 -0.0691  1.2363  0.2579
20583SOL     OW62849   8.789   0.295   1.701 -0.0514 -0.2910  0.2942
20583SOL    HW162850   8.710   0.284   1.647 -0.7104 -1.4971  1.4504
20583SOL    HW262851   8.849   0.345   1.646 -0.6396 -1.5727 -1.6065
20584SOL     OW62852   1.231   4.605   6.934 -0.0470 -0.5599 -0.0204
20584SOL    HW162853   1.198   4.642   7.016 -0.0715  0.7011 -0.5688
20584SOL    HW262854   1.306   4.551   6.960 -0.2048 -0.3706  0.8536
20585SOL     OW62855   3.021   3.422   1.938  0.0562  1.0874 -0.6272
20585SOL    HW162856   3.064   3.451   2.018  1.2334  1.5087 -1.3850
20585SOL    HW262857   3.086   3.367   1.894 -1.3912 -1.0579 -0.2222
20586SOL     OW62858   6.866   1.181   3.798  0.0559  0.1889 -0.6444
20586SOL    HW162859   6.869   1.088   3.821 -0.2311  0.3685  0.1641
20586SOL    HW262860   6.956   1.212   3.812 -0.2243  0.4197  0.8768
20587SOL     OW62861   7.335   1.537   3.400  0.2673 -0.1395 -0.0603
20587SOL    HW162862   7.251   1.492   3.391 -0.0114  0.1593  0.9662
20587SOL    HW262863   7.390   1.499   3.331 -1.4191  1.3839 -2.3861
20588SOL     OW62864   2.907   8.061   0.312  0.4898 -0.1296 -0.2938
20588SOL    HW162865   2.848   8.122   0.269  0.0208  1.9252  2.9488
20588SOL    HW262866   2.982   8.054   0.253  0.2859  3.1564 -1.1382
20589SOL     OW62867   6.931   2.917   7.761  0.2853 -0.3621  0.0104
20589SOL    HW162868   6.894   3.005   7.763  1.6654  0.2429  1.1251
20589SOL    HW262869   6.979   2.910   7.844  0.1115 -2.2068 -0.0079
20590SOL     OW62870   6.879   7.996   0.278 -0.6568  0.0994  0.3038
20590SOL    HW162871   6.958   7.969   0.231 -0.2609  3.5732 -1.3615
20590SOL    HW262872   6.812   7.934   0.251 -0.0785  0.9902 -3.8307
20591SOL     OW62873   3.037   2.240   5.773 -0.4454  0.8659 -0.2269
20591SOL    HW162874   2.958   2.188   5.759 -2.2818  3.4788 -0.2062
20591SOL    HW262875   3.065   2.266   5.685  1.1187 -0.9233 -0.3250
20592SOL     OW62876   6.742   0.007   7.769 -0.4946  0.3734 -0.1100
20592SOL    HW162877   6.793   0.038   7.844 -0.5937  0.8921 -0.2586
20592SOL    HW262878   6.715   0.086   7.723 -0.2718  0.0552 -0.8067
20593SOL     OW62879   6.019   1.251   3.206  0.2795  0.1136 -0.1647
20593SOL    HW162880   5.948   1.302   3.167  0.7464  1.2854  0.4525
20593SOL    HW262881   6.018   1.168   3.159 -1.4383  0.1394 -0.2184
20594SOL     OW62882   0.200   7.108   4.125  0.0493  0.8900  0.4194
20594SOL    HW162883   0.193   7.022   4.084  0.8282  1.3675 -0.7773
20594SOL    HW262884   0.111   7.128   4.155 -0.1048 -0.3865  0.8508
20595SOL     OW62885   2.747   7.906   5.546 -0.0524 -0.1071 -0.7085
20595SOL    HW162886   2.795   7.960   5.609 -0.2818 -0.3486 -0.3184
20595SOL    HW262887   2.787   7.819   5.554  0.0265 -0.1000 -1.0178
20596SOL     OW62888   2.762   5.515   3.520 -0.6903  0.2369  0.7997
20596SOL    HW162889   2.782   5.485   3.608  3.4862  1.3042  0.4064
20596SOL    HW262890   2.801   5.448   3.462 -0.2337  1.2963 -0.1535
20597SOL     OW62891   4.034   1.591   2.520 -0.0656  0.6180 -0.2541
20597SOL    HW162892   4.000   1.667   2.567  1.1432  0.9983  0.0474
20597SOL    HW262893   4.097   1.628   2.459  0.6649 -0.1485  0.0214
20598SOL     OW62894   2.825   8.610   5.831 -0.2907 -0.3280 -0.2754
20598SOL    HW162895   2.860   8.564   5.754  0.5846 -0.1363  0.0006
20598SOL    HW262896   2.750   8.659   5.797  0.7588  0.6659 -1.2621
20599SOL     OW62897   8.583   8.699   3.059 -0.4079 -0.0685 -0.1193
20599SOL    HW162898   8.553   8.622   3.109  2.4332 -0.8609  0.5228
20599SOL    HW262899   8.638   8.747   3.120  0.1499  0.9704 -1.3989
20600SOL     OW62900   5.013   3.605   7.146 -0.0152 -0.1081 -0.0840
20600SOL    HW162901   4.948   3.554   7.098  0.2098 -0.1418 -0.3538
20600SOL    HW262902   5.081   3.624   7.082 -0.0247  0.4022  0.0564
20601SOL     OW62903   3.292   6.692   4.950  0.0042  0.1613  0.3891
20601SOL    HW162904   3.381   6.723   4.970 -0.1038  0.9272 -0.2724
20601SOL    HW262905   3.294   6.672   4.856 -0.9022  1.5498  0.0501
20602SOL     OW62906   4.049   4.115   5.542  0.1419 -0.3571  0.0612
20602SOL    HW162907   4.006   4.125   5.457 -1.8148  0.0584  1.0375
20602SOL    HW262908   4.110   4.042   5.530 -1.7218 -1.8172 -1.1141
20603SOL     OW62909   2.952   7.402   5.011  0.7609 -0.5687 -0.0693
20603SOL    HW162910   3.005   7.475   4.979  2.1362 -1.4629  0.1022
20603SOL    HW262911   3.013   7.330   5.022 -0.5148 -1.6854  0.0498
20604SOL     OW62912   0.964   3.587   3.657 -0.3283  0.2251 -0.1724
20604SOL    HW162913   1.049   3.555   3.686 -0.2216  0.5949 -0.0667
20604SOL    HW262914   0.901   3.547   3.716 -0.1273  0.8469  0.4746
20605SOL     OW62915   6.157   4.502   7.471 -0.2284  0.6715 -0.4016
20605SOL    HW162916   6.136   4.448   7.395 -0.4833 -0.6266  0.5473
20605SOL    HW262917   6.076   4.550   7.489 -0.3352  0.5823 -0.6323
20606SOL     OW62918   2.391   0.903   8.894  0.3610 -0.3094  0.1080
20606SOL    HW162919   2.345   0.874   8.816 -1.1622  1.3565  0.3447
20606SOL    HW262920   2.335   0.875   8.967  0.7916 -0.1480  0.5063
20607SOL     OW62921   7.892   1.500   8.353 -0.3451 -1.0026 -0.1491
20607SOL    HW162922   7.803   1.507   8.389  0.1961 -1.3849  1.3365
20607SOL    HW262923   7.909   1.406   8.348 -0.5531 -0.9792 -1.8684
20608SOL     OW62924   7.150   4.264   4.355 -0.6124 -0.1172 -0.1721
20608SOL    HW162925   7.138   4.282   4.262 -0.5525 -0.1328 -0.1824
20608SOL    HW262926   7.188   4.344   4.391 -2.5003  0.6513  0.2230
20609SOL     OW62927   2.108   7.043   3.662 -0.2648  0.1920 -1.0888
20609SOL    HW162928   2.113   7.137   3.680 -0.4550 -0.0419  0.3096
20609SOL    HW262929   2.195   7.019   3.632 -0.6149  1.0788 -2.9852
20610SOL     OW62930   5.226   3.142   3.137 -0.5438 -0.1630 -0.3112
20610SOL    HW162931   5.252   3.051   3.151 -0.0381 -0.0149 -0.2713
20610SOL    HW262932   5.185   3.142   3.050 -1.7388 -0.6703  0.2205
20611SOL     OW62933   1.354   5.189   6.742  0.1078 -0.3753 -0.0050
20611SOL    HW162934   1.402   5.120   6.696 -1.0927 -1.0624 -0.2567
20611SOL    HW262935   1.376   5.269   6.693  1.6754 -0.5028  0.4160
20612SOL     OW62936   1.483   7.357   0.101 -0.1927 -0.6702 -0.7106
20612SOL    HW162937   1.438   7.338   0.183 -0.3638 -0.0542 -0.6544
20612SOL    HW262938   1.519   7.445   0.113  1.5621 -1.3770 -0.5224
20613SOL     OW62939   1.266   5.056   5.866 -0.0361  0.3797  0.0390
20613SOL    HW162940   1.357   5.030   5.876  0.1198  1.1459  0.7184
20613SOL    HW262941   1.267   5.124   5.799  0.2221  1.9610  1.5771
20614SOL     OW62942   7.352   4.557   2.241 -0.6297  0.5389  0.7926
20614SOL    HW162943   7.322   4.466   2.243  1.0177 -0.1799 -1.9270
20614SOL    HW262944   7.444   4.552   2.270 -0.6990  1.4562  1.2141
20615SOL     OW62945   6.894   4.180   8.764  0.6259 -0.1001  0.0629
20615SOL    HW162946   6.933   4.265   8.744 -0.0081 -0.1364 -1.4969
20615SOL    HW262947   6.812   4.179   8.714  0.7182 -1.6993 -0.1035
20616SOL     OW62948   8.616   7.087   1.415 -0.0452  0.3390  0.4517
20616SOL    HW162949   8.704   7.050   1.403  1.2105  2.0307  3.4752
20616SOL    HW262950   8.560   7.010   1.427  1.6576 -0.7396  1.9619
20617SOL     OW62951   7.124   0.915   0.517  0.0105 -0.3026 -0.0129
20617SOL    HW162952   7.036   0.953   0.507  0.2454 -0.0022 -1.1047
20617SOL    HW262953   7.178   0.966   0.457  0.4800 -1.9451 -1.0500
20618SOL     OW62954   5.638   6.767   5.926  0.2066 -0.5288 -0.3070
20618SOL    HW162955   5.725   6.762   5.967  0.3775  0.2502 -0.5537
20618SOL    HW262956   5.656   6.797   5.837 -0.2535 -1.1715 -0.6189
20619SOL     OW62957   7.762   4.983   8.113 -0.3644  0.1958  0.0826
20619SOL    HW162958   7.709   4.941   8.180  0.8757 -1.0252  0.3637
20619SOL    HW262959   7.836   4.924   8.101  0.4900  1.4003 -0.8998
20620SOL     OW62960   0.039   7.896   7.931  0.3600 -0.5567  0.1499
20620SOL    HW162961   0.060   7.809   7.965  0.1582 -1.3258 -1.5884
20620SOL    HW262962   0.019   7.948   8.009  2.5248 -1.4758  1.4031
20621SOL     OW62963   2.588   5.020   5.640 -0.7275  0.4831 -0.0067
20621SOL    HW162964   2.626   5.099   5.680  0.1761 -0.1120  0.3413
20621SOL    HW262965   2.505   5.049   5.604 -0.5959  1.5080  0.4856
20622SOL     OW62966   1.703   3.743   2.107  0.2406  0.5118  0.4606
20622SOL    HW162967   1.672   3.784   2.026  0.8076  0.2968  0.1271
20622SOL    HW262968   1.665   3.655   2.106 -0.9367  0.9836  1.1527
20623SOL     OW62969   3.539   8.912   1.293  0.3960 -0.3526  0.4824
20623SOL    HW162970   3.478   8.870   1.232 -1.8237  0.4048  2.0135
20623SOL    HW262971   3.615   8.854   1.295 -0.0573 -1.1102 -1.8862
20624SOL     OW62972   7.232   8.788   0.390 -0.4804 -0.3826 -0.2653
20624SOL    HW162973   7.311   8.797   0.444  0.0574  0.6099 -1.1645
20624SOL    HW262974   7.263   8.799   0.300 -1.3837 -1.8349 -0.7815
20625SOL     OW62975   6.230   5.498   0.721 -0.0214 -0.0263 -0.4351
20625SOL    HW162976   6.152   5.553   0.720  0.6078  0.8883 -0.4762
20625SOL    HW262977   6.290   5.540   0.659  0.9402 -0.0467  0.4501
20626SOL     OW62978   6.727   0.250   5.317 -0.2452 -0.4202 -0.4373
20626SOL    HW162979   6.640   0.213   5.337 -0.9194 -0.2386 -2.7737
20626SOL    HW262980   6.711   0.344   5.307 -0.4609 -0.6883 -3.7121
20627SOL     OW62981   2.766   1.669   4.470 -0.0952 -0.3431 -0.7569
20627SOL    HW162982   2.860   1.688   4.464 -0.2925  0.4776 -1.4375
20627SOL    HW262983   2.759   1.575   4.454  0.7079 -0.6134  0.3960
20628SOL     OW62984   5.227   4.469   1.588 -0.2415  0.2135 -0.2585
20628SOL    HW162985   5.248   4.558   1.618 -0.4331 -0.5805  2.5769
20628SOL    HW262986   5.143   4.450   1.630  1.0733 -2.2101  1.5184
20629SOL     OW62987   5.233   4.411   2.341  0.1202  0.8901  0.4430
20629SOL    HW162988   5.300   4.343   2.334 -0.7063  0.2405 -2.0478
20629SOL    HW262989   5.282   4.493   2.343  1.0382  0.3510  0.4855
20630SOL     OW62990   3.860   1.296   7.680  0.0701  0.1470  0.3383
20630SOL    HW162991   3.862   1.211   7.637  1.6493 -0.3371  1.2735
20630SOL    HW262992   3.843   1.359   7.610 -1.8554 -0.9630 -0.2642
20631SOL     OW62993   8.736   0.829   5.933  0.0164  0.0588  0.1828
20631SOL    HW162994   8.780   0.837   6.017  0.8837  0.8712 -0.3312
20631SOL    HW262995   8.650   0.791   5.954  0.2756  0.1173  1.4037
20632SOL     OW62996   2.043   5.356   8.038 -0.2627  0.2366  0.3648
20632SOL    HW162997   1.969   5.355   8.098 -1.0708  0.7282 -0.5985
20632SOL    HW262998   2.021   5.291   7.972  0.6128 -0.2874  0.5716
20633SOL     OW62999   1.129   7.294   7.909  0.1332  0.4118  0.4979
20633SOL    HW163000   1.043   7.258   7.929 -0.1635  0.9184  0.1600
20633SOL    HW263001   1.112   7.383   7.879  0.5776 -0.1584 -1.6087
20634SOL     OW63002   5.172   6.411   4.705  0.3612 -0.2637  0.0071
20634SOL    HW163003   5.216   6.418   4.621 -0.7280 -1.2033 -0.6809
20634SOL    HW263004   5.111   6.485   4.707  1.1529  0.4038  0.4871
20635SOL     OW63005   0.916   8.157   2.240  0.5001 -0.8733  0.2628
20635SOL    HW163006   0.883   8.243   2.217 -0.8884 -0.9121  1.8941
20635SOL    HW263007   0.947   8.120   2.158 -0.6829  0.4146 -0.8104
20636SOL     OW63008   0.223   8.081   2.424  0.1186 -0.3153 -0.4324
20636SOL    HW163009   0.285   8.056   2.492 -0.7206  0.1481  0.5152
20636SOL    HW263010   0.259   8.162   2.387  1.6634 -1.6283 -1.9959
20637SOL     OW63011   4.915   4.806   6.061  0.0479  0.0241  0.6173
20637SOL    HW163012   4.943   4.870   6.126 -0.8881 -0.2555  1.3101
20637SOL    HW263013   4.920   4.853   5.977  0.7362  0.5500  0.9408
20638SOL     OW63014   6.396   2.352   1.487  0.2492  0.3156  0.6036
20638SOL    HW163015   6.426   2.345   1.578  0.0479  0.2484  0.6648
20638SOL    HW263016   6.413   2.265   1.450 -0.7797 -0.0296  0.9163
20639SOL     OW63017   0.278   3.441   4.092  0.0639  0.3706 -0.1449
20639SOL    HW163018   0.310   3.530   4.078 -1.0674  0.7556 -0.4209
20639SOL    HW263019   0.270   3.433   4.187  3.4081 -0.6617  0.1848
20640SOL     OW63020   8.333   4.382   6.373 -0.3709 -0.9532  0.1864
20640SOL    HW163021   8.291   4.360   6.290  2.0042  0.3560 -1.4702
20640SOL    HW263022   8.304   4.471   6.392  0.7311 -0.4634 -0.3776
20641SOL     OW63023   3.054   4.588   6.783  0.1039 -0.5580 -0.0493
20641SOL    HW163024   2.980   4.610   6.727 -0.7029  0.1026  1.2331
20641SOL    HW263025   3.018   4.584   6.871  1.3022 -1.7772  0.4341
20642SOL     OW63026   6.091   5.251   7.629  0.4617 -0.0815 -0.8294
20642SOL    HW163027   6.119   5.325   7.575  2.4547 -0.0735  0.1017
20642SOL    HW263028   6.160   5.185   7.616 -0.9943 -1.5975 -1.2177
20643SOL     OW63029   0.953   6.386   9.023  0.4299  0.1138  0.2328
20643SOL    HW163030   1.025   6.407   9.083 -0.2955 -0.4273  1.3333
20643SOL    HW263031   0.960   6.292   9.010  1.3351  0.3967 -1.5744
20644SOL     OW63032   8.968   7.678   0.990 -0.2930 -0.4841  0.3987
20644SOL    HW163033   8.958   7.662   1.083  2.5685  0.5736  0.9883
20644SOL    HW263034   8.948   7.771   0.980  0.6070 -0.2996  0.2105
20645SOL     OW63035   1.226   3.285   5.974  0.0550 -0.5232 -0.1252
20645SOL    HW163036   1.322   3.287   5.980  0.1440  0.8234 -1.3072
20645SOL    HW263037   1.208   3.223   5.903  0.0200 -1.1256  0.4054
20646SOL     OW63038   0.656   4.252   2.220 -0.0014  0.0422 -0.0903
20646SOL    HW163039   0.740   4.243   2.263 -0.2290  2.9272  1.2238
20646SOL    HW263040   0.673   4.232   2.128  1.5469 -1.6980  0.5371
20647SOL     OW63041   4.867   3.736   6.634 -0.0438  0.0384  0.6233
20647SOL    HW163042   4.818   3.757   6.554  1.6958  0.3100 -0.4276
20647SOL    HW263043   4.840   3.646   6.655 -1.7974  0.5642  0.7336
20648SOL     OW63044   2.713   3.388   7.815 -0.2131  0.3120 -0.1400
20648SOL    HW163045   2.705   3.481   7.837 -0.4854 -0.2288  2.2090
20648SOL    HW263046   2.781   3.386   7.747 -0.7343  2.2646 -0.7958
20649SOL     OW63047   1.662   0.464   3.501  0.5793 -0.1188  0.0801
20649SOL    HW163048   1.736   0.407   3.478 -0.3035 -1.7411  1.0151
20649SOL    HW263049   1.668   0.472   3.596  0.1434  0.6075  0.0474
20650SOL     OW63050   4.836   8.826   4.378 -0.1209  0.4870  0.0417
20650SOL    HW163051   4.915   8.794   4.421 -0.1330 -0.6023 -0.7066
20650SOL    HW263052   4.812   8.905   4.427  3.0212  2.5463 -1.4307
20651SOL     OW63053   2.179   8.450   4.367 -0.1982  0.2859  0.0823
20651SOL    HW163054   2.147   8.360   4.374 -0.1134  0.2937  0.6254
20651SOL    HW263055   2.166   8.486   4.455 -1.1296  1.1075 -0.3809
20652SOL     OW63056   8.439   7.855   4.759 -0.2949 -0.1908  0.3234
20652SOL    HW163057   8.430   7.798   4.683 -1.0893 -0.7822  0.8481
20652SOL    HW263058   8.395   7.936   4.734  0.1008 -0.1094 -0.1155
20653SOL     OW63059   3.295   3.816   2.203  0.1358 -0.1649 -0.1941
20653SOL    HW163060   3.388   3.803   2.183  0.6274 -0.5264  2.0666
20653SOL    HW263061   3.275   3.902   2.168  0.9373 -0.6257 -1.8970
20654SOL     OW63062   7.895   5.369   3.935  0.0890  0.4209 -0.8538
20654SOL    HW163063   7.916   5.320   4.015 -3.7802 -0.0816  0.0304
20654SOL    HW263064   7.905   5.461   3.960  0.5103  0.2456 -0.3447
20655SOL     OW63065   0.216   4.020   6.043  0.0180 -0.2615 -0.4122
20655SOL    HW163066   0.134   3.986   6.080 -0.1581  1.3207  0.7328
20655SOL    HW263067   0.280   4.011   6.114  0.4077  0.1232 -0.7108
20656SOL     OW63068   6.992   3.549   6.214  0.1265 -0.1939 -0.1589
20656SOL    HW163069   6.993   3.494   6.136  0.1387 -0.3785 -0.0293
20656SOL    HW263070   6.901   3.546   6.244  0.1133 -0.0930 -0.1857
20657SOL     OW63071   1.470   2.473   6.517 -0.0115  0.3984 -0.0500
20657SOL    HW163072   1.496   2.542   6.578  0.7510  0.4277 -0.3978
20657SOL    HW263073   1.461   2.517   6.433 -2.2089  0.5798  0.2350
20658SOL     OW63074   3.038   0.733   3.989  0.1972  0.2371  0.0749
20658SOL    HW163075   3.013   0.753   3.899 -0.8198  0.6551  0.4359
20658SOL    HW263076   3.082   0.813   4.020 -0.9592  0.7319  0.4771
20659SOL     OW63077   3.489   2.527   0.803  0.0126  0.0901 -0.6910
20659SOL    HW163078   3.510   2.528   0.710  1.3937  0.8197 -0.4050
20659SOL    HW263079   3.537   2.452   0.838  0.8661  0.7802 -0.3181
20660SOL     OW63080   4.292   5.816   6.040 -0.2393  0.5313  0.2611
20660SOL    HW163081   4.218   5.801   5.980  0.1840  0.0826 -0.1648
20660SOL    HW263082   4.357   5.862   5.987  0.0582  0.3151  0.4358
20661SOL     OW63083   0.937   1.402   4.714  0.2760 -0.5009  0.1379
20661SOL    HW163084   1.021   1.415   4.758 -0.4252  0.8732  1.1690
20661SOL    HW263085   0.873   1.444   4.773 -1.0857 -1.2117 -0.7812
20662SOL     OW63086   6.706   1.379   3.670 -0.4938 -0.3449 -0.3530
20662SOL    HW163087   6.718   1.380   3.575  0.4667 -1.5389 -0.2596
20662SOL    HW263088   6.762   1.308   3.701  1.0591  1.5102  1.3621
20663SOL     OW63089   2.602   5.892   8.262 -0.1030 -0.7288 -0.0542
20663SOL    HW163090   2.614   5.947   8.185 -2.9116 -0.7697 -0.6191
20663SOL    HW263091   2.593   5.954   8.334  0.1453 -0.5968 -0.1350
20664SOL     OW63092   0.632   6.519   3.559  0.1887  0.0084 -0.3068
20664SOL    HW163093   0.615   6.465   3.482  0.1374  0.5115 -0.6457
20664SOL    HW263094   0.718   6.557   3.544 -0.6696  1.7331 -1.0793
20665SOL     OW63095   2.702   3.106   0.073 -0.4059  0.0621  0.0278
20665SOL    HW163096   2.772   3.052   0.037 -1.4812 -1.1412 -0.3582
20665SOL    HW263097   2.707   3.188   0.024  1.0083  0.1730  0.3372
20666SOL     OW63098   2.179   5.498   6.002  0.0869  0.9609 -0.3217
20666SOL    HW163099   2.101   5.550   6.020  1.5218  2.6311  1.5493
20666SOL    HW263100   2.188   5.441   6.079  2.5023  3.2375  1.2298
20667SOL     OW63101   0.435   4.411   2.302  0.5031 -0.3172  0.1673
20667SOL    HW163102   0.406   4.421   2.212  1.7208 -1.4041 -0.3799
20667SOL    HW263103   0.514   4.357   2.296  0.0869 -1.2029  1.9621
20668SOL     OW63104   4.067   7.237   6.357  0.1189 -0.3923  0.6249
20668SOL    HW163105   4.145   7.292   6.347 -0.2194 -0.3500 -3.1682
20668SOL    HW263106   3.997   7.299   6.376  0.2771  0.1860 -0.5478
20669SOL     OW63107   0.624   2.423   2.027  0.1949 -0.3170  0.5080
20669SOL    HW163108   0.534   2.398   2.050  0.7115 -1.1355  1.7772
20669SOL    HW263109   0.622   2.518   2.026 -0.3024 -0.2492  2.4121
20670SOL     OW63110   8.252   5.968   3.957  0.8242 -0.2965 -0.0226
20670SOL    HW163111   8.257   5.907   4.030  0.4735  0.2730  0.4904
20670SOL    HW263112   8.236   6.053   3.998  0.5585  0.0225 -0.7670
20671SOL     OW63113   4.870   0.146   7.698 -0.5579 -0.3898  0.3447
20671SOL    HW163114   4.775   0.140   7.705 -0.5584 -0.1221  0.6181
20671SOL    HW263115   4.891   0.104   7.615 -0.8500 -1.0609  0.6020
20672SOL     OW63116   8.505   0.953   4.724 -0.3616 -0.0654 -0.0759
20672SOL    HW163117   8.468   0.908   4.800  0.9565  0.6130  1.0281
20672SOL    HW263118   8.589   0.908   4.709  0.3055  1.0697  0.1485
20673SOL     OW63119   4.312   7.698   4.841 -0.1804 -0.3400  0.4949
20673SOL    HW163120   4.339   7.788   4.820  0.4128 -0.4558  0.7432
20673SOL    HW263121   4.232   7.685   4.790  0.2775 -0.0103 -0.3426
20674SOL     OW63122   4.701   4.574   1.248 -0.5436 -0.7958  0.6983
20674SOL    HW163123   4.688   4.614   1.162 -0.4527  1.2060  1.5577
20674SOL    HW263124   4.794   4.552   1.251 -0.5243 -0.7636  0.3138
20675SOL     OW63125   3.275   6.162   2.382  0.2318 -0.2574 -0.5405
20675SOL    HW163126   3.209   6.230   2.395 -1.6629 -2.0486 -0.2530
20675SOL    HW263127   3.267   6.139   2.289  0.2769 -0.6180 -0.4568
20676SOL     OW63128   5.367   3.941   0.002 -0.1315  0.1717 -0.2351
20676SOL    HW163129   5.437   3.898  -0.046 -0.8577 -1.2104 -0.1130
20676SOL    HW263130   5.392   3.934   0.094 -0.8232 -1.0970 -0.1308
20677SOL     OW63131   1.502   5.581   5.663  0.1231  0.0481 -0.0782
20677SOL    HW163132   1.529   5.672   5.646  0.7291 -0.0246  0.4437
20677SOL    HW263133   1.424   5.589   5.718  0.4930  0.2569  0.4257
20678SOL     OW63134   2.703   1.175   1.261 -0.2422 -0.4728  0.1536
20678SOL    HW163135   2.700   1.267   1.289 -0.1825 -1.0456  2.2184
20678SOL    HW263136   2.788   1.166   1.217 -0.8498  0.7601 -1.3442
20679SOL     OW63137   6.630   8.950   7.924 -0.5215  0.2140 -0.0172
20679SOL    HW163138   6.676   9.008   7.863 -2.5321 -0.6814 -2.5563
20679SOL    HW263139   6.695   8.884   7.948 -0.0874 -0.5536 -2.8407
20680SOL     OW63140   6.615   8.429   0.885  0.0672 -0.2335 -0.0547
20680SOL    HW163141   6.571   8.513   0.874 -0.2373 -0.2387  1.0401
20680SOL    HW263142   6.677   8.444   0.956 -0.8277 -1.2510  0.9623
20681SOL     OW63143   6.441   0.065   7.862 -0.4510 -0.5819  0.2864
20681SOL    HW163144   6.493  -0.014   7.844 -0.3784 -0.3442 -0.5869
20681SOL    HW263145   6.423   0.102   7.776 -1.2195 -0.1041  0.6419
20682SOL     OW63146   8.306   1.103   6.273 -0.5727 -0.4341 -0.3796
20682SOL    HW163147   8.222   1.126   6.313 -1.5341 -3.0335 -0.6519
20682SOL    HW263148   8.291   1.111   6.179 -0.7758 -1.5128 -0.4582
20683SOL     OW63149   6.512   3.451   4.935  0.2180 -0.1482 -0.4527
20683SOL    HW163150   6.438   3.507   4.959 -0.1070 -0.5947 -0.3916
20683SOL    HW263151   6.472   3.369   4.905  0.6759 -0.2214 -0.8827
20684SOL     OW63152   5.445   6.889   1.733  0.8255  0.0162  0.3919
20684SOL    HW163153   5.527   6.840   1.721  0.3711 -0.6412 -0.1037
20684SOL    HW263154   5.466   6.977   1.703  1.5033 -0.0017  0.7780
20685SOL     OW63155   7.126   3.978   1.807  0.5090 -0.4583  0.5008
20685SOL    HW163156   7.098   3.887   1.801 -0.5711 -0.0806 -0.4102
20685SOL    HW263157   7.221   3.973   1.821  0.6479 -1.7103 -0.6747
20686SOL     OW63158   7.167   7.089   2.602 -0.5748 -0.3066  0.0707
20686SOL    HW163159   7.185   7.043   2.520  1.3156 -0.8760  0.7534
20686SOL    HW263160   7.243   7.146   2.614 -0.3788 -0.9078  1.8812
20687SOL     OW63161   2.582   3.990   1.120  0.7074 -0.2301  0.1297
20687SOL    HW163162   2.514   3.923   1.122  0.3599  0.1229  1.1478
20687SOL    HW263163   2.539   4.066   1.082  0.6103 -0.0982  0.4950
20688SOL     OW63164   1.720   3.992   0.207  0.6611 -0.5534 -0.1688
20688SOL    HW163165   1.629   3.995   0.178  0.5011 -0.4436  0.3242
20688SOL    HW263166   1.750   4.083   0.207  1.0240 -0.6644 -1.0856
20689SOL     OW63167   2.542   3.114   6.263  0.4148 -0.1295  0.7332
20689SOL    HW163168   2.524   3.180   6.196  1.3327 -1.0651 -0.4787
20689SOL    HW263169   2.603   3.157   6.323  0.2723  0.4353  0.4838
20690SOL     OW63170   2.638   8.535   4.479  0.1197  0.6107  0.2677
20690SOL    HW163171   2.710   8.549   4.417  0.5551  0.8169  0.8127
20690SOL    HW263172   2.560   8.566   4.434 -0.0147 -1.6722 -1.2377
20691SOL     OW63173   5.257   3.254   4.365  0.1190 -0.1376 -0.0476
20691SOL    HW163174   5.196   3.265   4.293  0.1840 -1.9408 -0.4328
20691SOL    HW263175   5.343   3.274   4.327 -0.1188  1.6216  0.2878
20692SOL     OW63176   1.247   8.712   7.595  0.6663 -0.1624 -0.3410
20692SOL    HW163177   1.278   8.797   7.624 -0.2298  0.1147 -0.1584
20692SOL    HW263178   1.280   8.703   7.505 -0.4179  1.0214 -0.8855
20693SOL     OW63179   8.830   8.331   5.147 -0.0059  0.4779  0.5473
20693SOL    HW163180   8.761   8.334   5.081  0.0614  1.2775  0.5089
20693SOL    HW263181   8.889   8.261   5.117 -0.4933  0.1777  0.2818
20694SOL     OW63182   7.707   5.731   6.711 -0.7356 -0.0601 -0.8633
20694SOL    HW163183   7.724   5.750   6.803  1.8843  0.0493 -1.2850
20694SOL    HW263184   7.615   5.754   6.698 -1.0686  0.2572  1.6161
20695SOL     OW63185   6.230   8.329   5.147 -0.4543  0.0287  0.1209
20695SOL    HW163186   6.226   8.267   5.220 -1.6152 -0.8516 -0.6565
20695SOL    HW263187   6.185   8.407   5.179  0.6049  0.3271  0.9454
20696SOL     OW63188   8.643   8.031   4.674  0.4035  0.1820  0.1204
20696SOL    HW163189   8.601   7.947   4.693 -1.0834  0.9564  0.4313
20696SOL    HW263190   8.660   8.029   4.580 -1.5526  0.3235 -0.2813
20697SOL     OW63191   5.762   5.643   5.461  0.4006 -0.0369  0.5112
20697SOL    HW163192   5.853   5.628   5.436  0.5351  0.6470  0.5480
20697SOL    HW263193   5.711   5.589   5.402  0.8478 -0.6713  0.7004
20698SOL     OW63194   3.550   5.086   0.931 -0.0533 -0.0959  0.1361
20698SOL    HW163195   3.604   5.163   0.948  1.4810 -1.0514 -0.2403
20698SOL    HW263196   3.465   5.108   0.968  1.0067  0.8717  2.1586
20699SOL     OW63197   0.830   1.386   5.184  0.2478  0.6176  0.4111
20699SOL    HW163198   0.740   1.399   5.215  0.2047 -0.2827  0.7026
20699SOL    HW263199   0.851   1.296   5.210  1.3750  0.9439  0.6989
20700SOL     OW63200   5.044   2.984   1.771 -0.1362 -0.0063 -0.1719
20700SOL    HW163201   4.953   2.957   1.782 -0.2509 -0.0999 -1.2536
20700SOL    HW263202   5.082   2.916   1.716  0.6429 -0.0635  0.4223
20701SOL     OW63203   7.768   8.136   5.540  0.2766  0.1739 -0.5019
20701SOL    HW163204   7.727   8.170   5.460  0.9611 -0.3627 -1.0900
20701SOL    HW263205   7.862   8.146   5.525  0.4058  0.6947  0.5263
20702SOL     OW63206   4.641   3.636   7.525  0.1472  0.4345 -0.0701
20702SOL    HW163207   4.735   3.647   7.537  0.1151  0.4363  0.1957
20702SOL    HW263208   4.610   3.599   7.608  0.3530 -2.4642 -1.1623
20703SOL     OW63209   1.720   2.868   6.042 -0.0421 -0.0884  0.0406
20703SOL    HW163210   1.771   2.804   6.091 -0.3433 -0.2782  0.1078
20703SOL    HW263211   1.631   2.833   6.043 -0.3005  0.5792  0.4980
20704SOL     OW63212   4.800   8.404   3.797 -0.0585 -0.3234 -0.2416
20704SOL    HW163213   4.764   8.316   3.808 -1.0765  0.0749 -0.2979
20704SOL    HW263214   4.786   8.424   3.704  1.8101 -0.7833 -0.6716
20705SOL     OW63215   3.534   8.393   8.824  0.2057 -0.2779 -0.0917
20705SOL    HW163216   3.568   8.333   8.757  0.0486  0.0988 -0.5143
20705SOL    HW263217   3.581   8.475   8.809  1.0663 -0.5411  1.0493
20706SOL     OW63218   3.215   3.592   8.086  0.1635 -0.5247 -0.4406
20706SOL    HW163219   3.236   3.501   8.065 -0.7682 -0.2737 -2.8007
20706SOL    HW263220   3.132   3.608   8.041  0.5233  1.6171 -0.4353
20707SOL     OW63221   3.487   4.960   2.525  0.6173  0.0245  0.0228
20707SOL    HW163222   3.413   4.899   2.520  1.3148 -0.8352  0.0332
20707SOL    HW263223   3.484   4.994   2.614 -0.8849  1.4463 -0.5208
20708SOL     OW63224   1.330   6.400   8.948  0.4383 -0.1202 -0.3360
20708SOL    HW163225   1.265   6.331   8.945  0.0744  0.2558 -1.6995
20708SOL    HW263226   1.289   6.470   8.999  0.5837 -0.6700  0.5494
20709SOL     OW63227   5.538   0.443   8.304 -0.8091 -0.4004 -0.1839
20709SOL    HW163228   5.459   0.486   8.271  0.4923  0.3908 -2.5009
20709SOL    HW263229   5.529   0.352   8.277 -2.2829 -1.0828  2.2967
20710SOL     OW63230   4.697   6.690   3.602  0.0246 -0.2419 -0.0210
20710SOL    HW163231   4.619   6.692   3.547  0.8473 -0.8063 -1.2666
20710SOL    HW263232   4.763   6.645   3.548  0.9333 -0.6145  1.3478
20711SOL     OW63233   3.023   3.554   4.785 -0.3778 -0.2267 -1.1654
20711SOL    HW163234   3.040   3.589   4.698  1.2425 -0.4910 -0.9981
20711SOL    HW263235   3.099   3.497   4.803 -1.6435 -1.7742 -0.3989
20712SOL     OW63236   4.164   3.610   7.842 -0.1345 -0.4885 -0.3483
20712SOL    HW163237   4.074   3.640   7.854  0.1934  0.8547 -1.0472
20712SOL    HW263238   4.157   3.515   7.842 -1.3837 -0.4432  0.7847
20713SOL     OW63239   2.453   5.987   4.456 -0.3260 -0.0191  0.3900
20713SOL    HW163240   2.449   5.999   4.361 -2.0198 -2.9607 -0.0325
20713SOL    HW263241   2.545   5.966   4.473 -0.1825 -0.4661 -0.7827
20714SOL     OW63242   1.530   5.180   8.575 -0.2413 -0.2346  0.2590
20714SOL    HW163243   1.498   5.183   8.484 -1.0830 -0.2548  0.5448
20714SOL    HW263244   1.523   5.088   8.600 -1.0533 -0.0592  0.6998
20715SOL     OW63245   0.162   2.200   6.456  0.1718  0.3772  0.0523
20715SOL    HW163246   0.112   2.126   6.492 -0.8836  0.5495 -0.9859
20715SOL    HW263247   0.134   2.275   6.508  0.5921  0.1990  0.5432
20716SOL     OW63248   7.447   3.627   3.160 -0.2957  0.7080 -0.3283
20716SOL    HW163249   7.408   3.677   3.088 -1.4912 -0.9476 -0.9065
20716SOL    HW263250   7.541   3.628   3.141 -0.6219 -0.1653 -2.2948
20717SOL     OW63251   0.756   0.031   1.010 -0.3111 -0.6214 -0.1016
20717SOL    HW163252   0.837   0.082   1.007  0.1677 -1.2692  1.1727
20717SOL    HW263253   0.785  -0.060   1.019 -1.1582 -0.7669  1.5024
20718SOL     OW63254   6.587   1.225   0.225 -0.1515 -0.2859  0.6349
20718SOL    HW163255   6.667   1.210   0.175 -0.3828 -0.8137  0.4132
20718SOL    HW263256   6.550   1.305   0.188 -0.2646 -0.6152  0.0294
20719SOL     OW63257   3.461   0.876   2.579 -0.5612  0.4046  0.4338
20719SOL    HW163258   3.417   0.876   2.494  0.2094 -1.3336 -0.0019
20719SOL    HW263259   3.517   0.954   2.577 -0.9029  0.6375 -0.4505
20720SOL     OW63260   5.190   6.493   8.903 -0.0124  0.0894  0.1845
20720SOL    HW163261   5.141   6.488   8.821  0.6478  1.0332 -0.2850
20720SOL    HW263262   5.168   6.412   8.949 -0.0624 -0.6603 -1.1152
20721SOL     OW63263   3.620   2.977   2.325  0.1488  0.5487 -0.3766
20721SOL    HW163264   3.631   3.071   2.310  0.2607  0.5341 -0.3833
20721SOL    HW263265   3.528   2.960   2.304  0.2746  0.5452 -0.9477
20722SOL     OW63266   3.052   1.412   0.553 -0.0278 -0.1989  0.3046
20722SOL    HW163267   3.048   1.433   0.460  0.5157 -0.2103  0.2749
20722SOL    HW263268   3.061   1.317   0.556 -0.6533 -0.2568  0.3867
20723SOL     OW63269   4.408   4.633   7.413 -0.4531 -0.3975  1.5791
20723SOL    HW163270   4.380   4.568   7.348 -0.2831  1.9291 -0.9884
20723SOL    HW263271   4.485   4.593   7.455 -0.1639 -1.7417 -0.1142
20724SOL     OW63272   6.231   8.636   2.213  0.0893  0.5503  0.5910
20724SOL    HW163273   6.171   8.634   2.139  0.3797  1.4771  0.3071
20724SOL    HW263274   6.317   8.648   2.173  0.8273 -2.9042  0.8260
20725SOL     OW63275   0.021   8.475   1.880  0.6792 -0.2135 -0.0647
20725SOL    HW163276  -0.048   8.454   1.943 -1.1260  3.8178 -0.4047
20725SOL    HW263277   0.090   8.515   1.931  0.8734 -0.3294 -0.2327
20726SOL     OW63278   5.435   6.940   3.310 -0.5292 -0.2227  0.2827
20726SOL    HW163279   5.488   6.885   3.367 -0.9312 -0.9278 -0.0024
20726SOL    HW263280   5.455   7.030   3.336  0.8923 -0.4617  0.1007
20727SOL     OW63281   0.221   5.355   8.114  0.1487  0.7107 -0.2484
20727SOL    HW163282   0.179   5.275   8.144  1.8054 -0.0325  0.2280
20727SOL    HW263283   0.175   5.377   8.033 -0.8179 -0.3029 -0.0007
20728SOL     OW63284   1.344   4.774   8.156  0.4967 -0.7991  0.0477
20728SOL    HW163285   1.426   4.759   8.203 -0.2245 -1.0298  1.2784
20728SOL    HW263286   1.291   4.826   8.217 -0.0582 -0.1475 -0.9677
20729SOL     OW63287   2.047   4.655   1.572  0.1598 -0.4430 -0.7186
20729SOL    HW163288   2.013   4.567   1.552 -0.8546  0.0983 -1.4364
20729SOL    HW263289   2.033   4.705   1.492 -0.3194  0.6953  0.0659
20730SOL     OW63290   0.997   5.480   6.029  0.9762 -0.4074  0.9687
20730SOL    HW163291   1.029   5.429   5.955  1.8361  0.9501  0.3706
20730SOL    HW263292   0.902   5.468   6.026  1.1957 -3.1368  1.7671
20731SOL     OW63293   2.215   1.611   7.910  0.1716 -0.0323 -0.0559
20731SOL    HW163294   2.141   1.560   7.876 -0.4687  0.4392  0.6044
20731SOL    HW263295   2.266   1.548   7.961 -1.1369  0.1669  1.5628
20732SOL     OW63296   1.185   4.687   6.007  0.1345 -0.3541 -0.1039
20732SOL    HW163297   1.111   4.724   5.958  0.4818 -1.0486 -1.1530
20732SOL    HW263298   1.229   4.629   5.946  3.4361  2.3522 -0.5807
20733SOL     OW63299   7.889   6.599   5.275 -0.2301  0.4456  0.9664
20733SOL    HW163300   7.957   6.618   5.211  0.6857  0.7569  2.0098
20733SOL    HW263301   7.908   6.511   5.306 -2.4034 -0.9568 -1.2743
20734SOL     OW63302   0.709   0.411   6.119 -0.5673  0.2233 -0.4131
20734SOL    HW163303   0.782   0.432   6.061 -0.1721  0.0945  0.0289
20734SOL    HW263304   0.676   0.327   6.088 -1.2448  0.8072 -1.3069
20735SOL     OW63305   7.249   1.171   8.657  0.0997 -0.1659  0.2119
20735SOL    HW163306   7.296   1.089   8.644  1.4306  0.3982  1.2033
20735SOL    HW263307   7.233   1.204   8.569  0.3857 -1.0427 -0.1702
20736SOL     OW63308   6.960   0.168   6.040 -0.4146 -0.2399  0.0502
20736SOL    HW163309   6.927   0.218   5.965  0.3051 -2.1154 -1.5983
20736SOL    HW263310   6.882   0.140   6.087 -0.8852  0.8856 -0.0281
20737SOL     OW63311   5.330   6.759   4.886 -0.2846  0.4004 -0.4695
20737SOL    HW163312   5.295   6.759   4.797 -1.6159  0.2875  0.0283
20737SOL    HW263313   5.253   6.769   4.942  0.2236 -1.7624  0.7596
20738SOL     OW63314   6.577   3.903   6.893  0.1015 -0.2549 -0.6750
20738SOL    HW163315   6.571   3.817   6.934 -0.6295 -0.9402 -2.1533
20738SOL    HW263316   6.489   3.919   6.858 -0.3968  2.0338  1.2911
20739SOL     OW63317   0.399   5.147   7.948  0.2348 -0.2288 -0.5256
20739SOL    HW163318   0.446   5.104   8.019  0.7584  0.1412 -0.6379
20739SOL    HW263319   0.340   5.208   7.991 -0.1814 -0.7234 -0.3822
20740SOL     OW63320   8.041   8.173   5.478 -0.2606 -0.3512 -0.1240
20740SOL    HW163321   8.115   8.228   5.453 -0.0766 -0.5102  0.0667
20740SOL    HW263322   8.026   8.116   5.403  0.9554 -1.5405  0.5004
20741SOL     OW63323   8.645   4.744   3.248  0.0005  0.2770 -0.3192
20741SOL    HW163324   8.729   4.784   3.269  1.8055 -2.2293 -2.1549
20741SOL    HW263325   8.663   4.650   3.243 -3.2620 -0.5328  0.6196
20742SOL     OW63326   2.247   5.685   0.633 -0.0643  0.3328 -0.0618
20742SOL    HW163327   2.239   5.745   0.559 -1.0668  0.4417  0.1209
20742SOL    HW263328   2.300   5.612   0.599  0.5459  0.9677 -0.4965
20743SOL     OW63329   7.976   4.700   6.688  0.3577  0.4050  0.0668
20743SOL    HW163330   7.881   4.706   6.697  0.1518 -0.2085 -1.4276
20743SOL    HW263331   7.990   4.684   6.594  1.9238  0.3247  0.2946
20744SOL     OW63332   3.388   7.398   3.094 -0.1590 -0.8321 -0.4553
20744SOL    HW163333   3.351   7.458   3.029  0.1473 -0.0700  0.0644
20744SOL    HW263334   3.448   7.342   3.043 -0.2927 -0.5716 -0.9074
20745SOL     OW63335   1.579   2.851   8.974 -0.1634  0.5632  0.1926
20745SOL    HW163336   1.518   2.781   8.997 -0.3724  0.7466  0.2006
20745SOL    HW263337   1.527   2.931   8.979  0.7807  1.1364  3.3240
20746SOL     OW63338   1.015   1.549   8.355 -0.1353 -0.2307  0.0659
20746SOL    HW163339   1.084   1.606   8.390  0.1671 -0.8088  0.4336
20746SOL    HW263340   0.982   1.595   8.279 -1.4530  1.5292  1.6070
20747SOL     OW63341   1.701   1.933   4.131  0.0240  1.0020 -0.1227
20747SOL    HW163342   1.646   1.939   4.053 -0.8452 -0.1667  0.3668
20747SOL    HW263343   1.747   2.017   4.135  1.8262  0.3050 -3.1215
20748SOL     OW63344   5.080   8.774   5.357  0.6967 -0.4907 -0.0524
20748SOL    HW163345   5.019   8.712   5.397  0.2814  0.1294  0.2966
20748SOL    HW263346   5.155   8.721   5.331 -0.2156 -1.3513 -0.9850
20749SOL     OW63347   2.245   5.263   9.104  0.1493  0.2552 -0.1748
20749SOL    HW163348   2.204   5.350   9.103  2.0026  1.2459  2.1182
20749SOL    HW263349   2.280   5.252   9.016  1.4254  2.6772 -0.0581
20750SOL     OW63350   2.194   4.769   1.046  0.7596  0.4825  0.2987
20750SOL    HW163351   2.284   4.756   1.015  0.7881 -0.9968  0.9522
20750SOL    HW263352   2.140   4.754   0.968  1.0351  0.8163  0.0370
20751SOL     OW63353   3.844   8.269   0.125  0.7283  0.4681  0.0957
20751SOL    HW163354   3.895   8.240   0.050 -0.0787  0.2712 -0.3800
20751SOL    HW263355   3.903   8.328   0.173  0.8469  1.5592 -1.3322
20752SOL     OW63356   8.483   2.150   3.178  0.0653  0.2076  0.3893
20752SOL    HW163357   8.466   2.243   3.194 -1.0541  0.4016 -1.6626
20752SOL    HW263358   8.497   2.114   3.266  0.2501  2.2367  1.2685
20753SOL     OW63359   0.307   4.431   3.535 -0.3896  0.3297  0.0812
20753SOL    HW163360   0.398   4.459   3.533  0.5521 -2.2042  2.1835
20753SOL    HW263361   0.267   4.483   3.604 -0.1234  0.3664  0.2063
20754SOL     OW63362   1.168   2.052   6.439 -0.2669 -0.0925  0.1595
20754SOL    HW163363   1.173   2.096   6.525 -1.5774  0.4462 -0.0207
20754SOL    HW263364   1.186   2.122   6.376  0.8448 -0.5200 -0.0310
20755SOL     OW63365   1.887   0.197   5.395 -0.7074  0.3675 -0.2712
20755SOL    HW163366   1.836   0.127   5.353 -2.1444  0.7436  0.7664
20755SOL    HW263367   1.941   0.233   5.325 -1.7222 -0.1950 -1.3819
20756SOL     OW63368   2.506   1.713   4.627  0.0688  0.2458 -0.5441
20756SOL    HW163369   2.549   1.667   4.699  0.1292  1.0533 -0.0476
20756SOL    HW263370   2.575   1.725   4.562 -0.0808 -0.8369 -0.9337
20757SOL     OW63371   4.002   5.766   1.217  0.0341  0.1735  0.2925
20757SOL    HW163372   4.011   5.758   1.312  0.5774  0.2221  0.2509
20757SOL    HW263373   4.083   5.810   1.189 -0.6211  1.2106 -0.0637
20758SOL     OW63374   5.920   5.825   4.108 -0.3930  0.1293  0.2099
20758SOL    HW163375   5.827   5.822   4.131 -0.9068  0.9103 -1.5611
20758SOL    HW263376   5.939   5.738   4.071 -0.6433  0.2317 -0.1647
20759SOL     OW63377   6.264   5.097   4.019 -0.4189  0.1559 -0.1827
20759SOL    HW163378   6.247   5.059   3.932  0.3614 -0.0504 -0.2587
20759SOL    HW263379   6.309   5.027   4.066  1.8794  1.2228 -0.6198
20760SOL     OW63380   4.960   3.125   2.620  0.1977  0.1415  0.3490
20760SOL    HW163381   4.884   3.134   2.677 -0.8062  0.9846 -1.0587
20760SOL    HW263382   4.945   3.043   2.573  1.2808 -0.8234  1.5994
20761SOL     OW63383   4.734   0.120   3.186  0.5863 -0.7129 -0.5922
20761SOL    HW163384   4.825   0.140   3.208 -0.4605  2.2618  1.6875
20761SOL    HW263385   4.733   0.117   3.090  2.7044  1.9071 -0.8304
20762SOL     OW63386   5.536   7.880   7.698  0.1827  0.2407 -0.2149
20762SOL    HW163387   5.629   7.899   7.713  0.1694 -0.5810  1.0246
20762SOL    HW263388   5.529   7.869   7.603  1.4916 -0.3530 -0.2599
20763SOL     OW63389   2.229   7.495   1.496  0.0587 -0.3278  0.1967
20763SOL    HW163390   2.181   7.570   1.532  0.1306  0.0300 -0.4425
20763SOL    HW263391   2.307   7.488   1.552  0.2815  0.3621 -0.0155
20764SOL     OW63392   2.863   6.711   4.125  0.2070  0.2835  0.2058
20764SOL    HW163393   2.889   6.765   4.051  0.1213  0.9563  0.6621
20764SOL    HW263394   2.773   6.685   4.106  0.3516  0.0343 -0.1615
20765SOL     OW63395   3.092   5.500   6.952  0.0624 -0.2330 -0.1598
20765SOL    HW163396   3.096   5.516   6.858  2.7090 -1.4376 -0.3342
20765SOL    HW263397   3.124   5.581   6.992  1.2346 -0.5289 -0.4525
20766SOL     OW63398   5.506   2.522   3.097  0.0138 -0.6621 -0.6036
20766SOL    HW163399   5.538   2.445   3.050 -1.3840 -1.4220 -0.3534
20766SOL    HW263400   5.569   2.536   3.167 -0.7739 -2.8451  0.6193
20767SOL     OW63401   3.993   2.869   8.877  0.0426  0.2193 -0.0101
20767SOL    HW163402   3.989   2.799   8.942 -0.2033  0.8401  0.6600
20767SOL    HW263403   4.077   2.857   8.833  0.9560  0.7470  1.5208
20768SOL     OW63404   6.599   2.698   8.598 -0.1226  0.0110  0.1481
20768SOL    HW163405   6.688   2.715   8.630 -0.0786  0.1781 -0.0640
20768SOL    HW263406   6.570   2.782   8.564  0.4820 -0.5527 -1.8777
20769SOL     OW63407   4.341   1.476   8.410  0.0501 -0.6307  0.2518
20769SOL    HW163408   4.372   1.462   8.321  1.0879  1.2710  0.2629
20769SOL    HW263409   4.299   1.393   8.434  0.7064 -1.5558 -1.5917
20770SOL     OW63410   3.056   8.526   6.831  0.0980  0.3238  0.5225
20770SOL    HW163411   3.129   8.464   6.835 -1.8310 -2.0687  1.8942
20770SOL    HW263412   3.024   8.520   6.741  0.7858  0.4367  0.2619
20771SOL     OW63413   2.844   6.445   0.387  0.3897 -0.1706 -0.0936
20771SOL    HW163414   2.824   6.499   0.311 -0.4975 -1.7324 -1.0323
20771SOL    HW263415   2.831   6.355   0.356  0.9458 -0.8828  1.6434
20772SOL     OW63416   6.976   8.916   4.841  0.1251  0.1175 -0.4251
20772SOL    HW163417   6.991   8.950   4.929  0.4371  0.4585 -0.6078
20772SOL    HW263418   6.906   8.970   4.805  0.6552  0.6147 -0.7340
20773SOL     OW63419   6.071   8.617   2.755  0.1555 -0.0884 -0.6080
20773SOL    HW163420   6.002   8.592   2.815  0.3362  0.0410 -0.3464
20773SOL    HW263421   6.060   8.558   2.680  0.8682 -1.2850  0.2008
20774SOL     OW63422   0.571   5.409   4.332  0.5010 -0.0407  0.5541
20774SOL    HW163423   0.623   5.423   4.411  1.8011  1.2934 -0.4873
20774SOL    HW263424   0.525   5.327   4.349  0.2055  0.5198  2.9548
20775SOL     OW63425   8.493   0.262   2.541  0.2884  0.3601  0.8711
20775SOL    HW163426   8.565   0.311   2.500  0.4713 -0.3654  0.2937
20775SOL    HW263427   8.424   0.326   2.554  1.0061  1.0455  1.3261
20776SOL     OW63428   6.464   7.632   2.426  0.5964  0.6869 -0.1294
20776SOL    HW163429   6.539   7.584   2.392  0.8253  1.6309 -1.0026
20776SOL    HW263430   6.398   7.565   2.443  1.2697 -0.0403 -0.3332
20777SOL     OW63431   3.311   5.361   7.288 -0.6070 -0.8034 -0.3121
20777SOL    HW163432   3.236   5.420   7.279  1.2688  2.1189  1.2633
20777SOL    HW263433   3.301   5.322   7.375  0.2802  0.7166  0.5348
20778SOL     OW63434   0.331   9.020   4.431  0.1268  0.6736  0.1957
20778SOL    HW163435   0.395   9.054   4.493 -0.1251 -0.1651  0.9318
20778SOL    HW263436   0.252   9.005   4.484 -0.4537  1.0124 -0.5554
20779SOL     OW63437   1.411   2.537   3.125  0.6505  0.0522 -0.0868
20779SOL    HW163438   1.452   2.489   3.053  1.5024  0.8695 -0.1684
20779SOL    HW263439   1.484   2.569   3.177  0.0424 -0.3269  1.0217
20780SOL     OW63440   1.260   3.176   5.234  0.1321 -0.4158 -0.4799
20780SOL    HW163441   1.199   3.246   5.207  2.6207  0.5831 -4.3972
20780SOL    HW263442   1.225   3.097   5.192 -1.2081 -1.0868  1.7289
20781SOL     OW63443   7.536   2.648   3.606  0.0501 -0.2771 -0.9187
20781SOL    HW163444   7.502   2.562   3.630 -1.0098  0.7827  1.7408
20781SOL    HW263445   7.629   2.645   3.630 -0.0664 -0.5679 -0.4920
20782SOL     OW63446   4.616   2.557   7.613 -0.3938 -0.7041 -0.6459
20782SOL    HW163447   4.597   2.464   7.605 -1.1143 -0.4760 -1.7714
20782SOL    HW263448   4.641   2.568   7.705 -1.5481 -1.7785 -0.1765
20783SOL     OW63449   5.318   1.865   0.374  0.2823  0.2675 -0.1970
20783SOL    HW163450   5.256   1.938   0.383  0.5318  0.4840 -0.2391
20783SOL    HW263451   5.310   1.838   0.283 -0.4273 -0.3130  0.0199
20784SOL     OW63452   7.554   8.707   8.635  0.0586  0.1828 -0.1998
20784SOL    HW163453   7.552   8.774   8.703 -2.0562 -1.7193  1.7895
20784SOL    HW263454   7.618   8.643   8.665 -0.8765 -0.6640  0.0712
20785SOL     OW63455   3.142   2.104   2.430  0.1407  0.2592  0.0813
20785SOL    HW163456   3.096   2.092   2.347  0.6666 -0.0723 -0.1652
20785SOL    HW263457   3.176   2.017   2.452  2.3645  0.8288 -0.7621
20786SOL     OW63458   7.707   7.983   5.132 -0.2038  0.6425  0.2894
20786SOL    HW163459   7.750   8.067   5.122 -0.4617  0.6308 -1.2096
20786SOL    HW263460   7.696   7.951   5.042 -1.5625 -0.2423  0.7322
20787SOL     OW63461   4.273   8.829   1.809  0.1285  0.1541 -0.3803
20787SOL    HW163462   4.286   8.920   1.784 -0.5023  0.4946  0.4884
20787SOL    HW263463   4.240   8.833   1.898 -0.2486 -0.9119 -0.4561
20788SOL     OW63464   9.099   4.129   1.989 -0.5058  0.1213 -0.0174
20788SOL    HW163465   9.169   4.141   2.054 -0.4639  1.1821 -0.2383
20788SOL    HW263466   9.128   4.180   1.913 -1.9229  1.2964  0.2020
20789SOL     OW63467   2.326   0.935   5.691  0.5193 -0.0994 -0.0263
20789SOL    HW163468   2.242   0.972   5.663  0.6099  0.6947  0.7286
20789SOL    HW263469   2.329   0.948   5.785  1.1983 -0.7376  0.0529
20790SOL     OW63470   4.544   1.170   8.166 -0.4892  0.9710  0.2796
20790SOL    HW163471   4.627   1.143   8.204  0.0182  1.3958 -0.5180
20790SOL    HW263472   4.562   1.184   8.074 -1.5765  0.5491 -0.0154
20791SOL     OW63473   8.986   3.204   1.381  0.7241 -0.4946 -0.4262
20791SOL    HW163474   8.965   3.208   1.475  1.4218 -0.5292 -0.2592
20791SOL    HW263475   8.913   3.247   1.338  0.4821 -0.3140  0.1504
20792SOL     OW63476   6.801   7.244   5.092  0.2907  0.1011  0.3791
20792SOL    HW163477   6.885   7.285   5.110  1.0066 -0.8527 -0.7022
20792SOL    HW263478   6.787   7.185   5.166  0.8341 -0.1338  0.3001
20793SOL     OW63479   7.061   3.123   4.831 -0.3162  0.7368 -0.5855
20793SOL    HW163480   7.069   3.160   4.743  2.5101  1.1914 -0.2315
20793SOL    HW263481   7.062   3.028   4.817 -0.7603  0.8054 -1.0924
20794SOL     OW63482   4.793   3.764   8.956 -0.4633  0.3844  0.4145
20794SOL    HW163483   4.740   3.692   8.991 -0.5329  0.6866  0.9554
20794SOL    HW263484   4.883   3.741   8.979 -0.4817  0.4465  0.5520
20795SOL     OW63485   2.240   6.714   3.460  0.0036 -0.1624  0.1503
20795SOL    HW163486   2.230   6.800   3.421  1.7155  0.4857  1.0275
20795SOL    HW263487   2.242   6.731   3.555  2.6265 -0.8129  0.2968
20796SOL     OW63488   2.150   6.016   6.318 -0.3988  0.7160  0.2083
20796SOL    HW163489   2.155   5.937   6.372  0.0065 -0.2908 -1.2537
20796SOL    HW263490   2.080   5.998   6.255 -0.6030  1.7146  0.1219
20797SOL     OW63491   7.210   1.685   0.278  0.3258  0.2237  0.2094
20797SOL    HW163492   7.300   1.716   0.286  0.3276  0.0673  0.8739
20797SOL    HW263493   7.196   1.631   0.356 -0.7522  1.2914  0.8073
20798SOL     OW63494   5.350   5.927   7.903 -0.0866  0.1411 -0.2981
20798SOL    HW163495   5.402   6.004   7.879  0.2176 -0.2532 -0.8966
20798SOL    HW263496   5.411   5.872   7.952 -0.3343  0.3247  0.2222
20799SOL     OW63497   7.082   1.600   9.127  0.0796 -0.3757 -0.0632
20799SOL    HW163498   7.145   1.652   9.077 -1.1996 -0.1815 -1.5023
20799SOL    HW263499   7.087   1.637   9.216  1.1485  0.4031 -0.4250
20800SOL     OW63500   1.468   0.168   7.760 -0.0447  0.0566 -0.2371
20800SOL    HW163501   1.553   0.125   7.753  0.2098  0.4788  0.1737
20800SOL    HW263502   1.428   0.157   7.674  0.0368 -0.9380 -0.1609
20801SOL     OW63503   6.974   7.359   2.079  0.4440  0.2258 -0.9055
20801SOL    HW163504   6.979   7.290   2.146 -1.5987  0.2959 -0.6198
20801SOL    HW263505   7.062   7.362   2.042  1.2097 -0.9215  0.6751
20802SOL     OW63506   8.094   8.868   5.991 -0.4778 -0.4539  0.4825
20802SOL    HW163507   8.101   8.919   6.072  0.1705 -0.8878  0.7101
20802SOL    HW263508   8.094   8.933   5.921  0.7146 -0.1473  0.7481
20803SOL     OW63509   3.471   6.471   5.233  0.5884 -0.1954  0.0073
20803SOL    HW163510   3.533   6.510   5.171  0.5211  1.0584  0.6845
20803SOL    HW263511   3.390   6.522   5.221  1.1611  1.5010  2.4889
20804SOL     OW63512   8.344   2.141   1.073 -0.1777 -0.1290  0.5456
20804SOL    HW163513   8.277   2.203   1.101 -0.0174  0.5089 -0.4200
20804SOL    HW263514   8.297   2.057   1.065 -0.8670  0.3079 -0.1239
20805SOL     OW63515   8.627   5.463   5.813 -0.2376 -0.2166 -0.0315
20805SOL    HW163516   8.674   5.393   5.858 -1.5918 -1.4594 -0.4694
20805SOL    HW263517   8.667   5.543   5.845  2.6696 -1.1792 -0.8991
20806SOL     OW63518   0.441   3.087   4.944 -0.1453  0.4511  0.1030
20806SOL    HW163519   0.519   3.083   4.999  0.9029  0.5438 -1.3261
20806SOL    HW263520   0.442   3.175   4.907 -0.4119  0.1530 -0.6354
20807SOL     OW63521   0.504   4.569   5.338 -0.2170  0.0642  0.7463
20807SOL    HW163522   0.579   4.561   5.280 -0.6818 -0.5269  0.2100
20807SOL    HW263523   0.453   4.642   5.303 -0.3517 -0.1098  0.5810
20808SOL     OW63524   0.423   5.782   5.696  0.0956  0.2670  0.6228
20808SOL    HW163525   0.459   5.702   5.735 -2.4032 -1.2099  0.1303
20808SOL    HW263526   0.485   5.805   5.628  0.6972 -1.5141  0.5071
20809SOL     OW63527   8.274   4.306   7.543 -0.0556 -0.2128  0.1439
20809SOL    HW163528   8.186   4.321   7.507 -0.0935 -0.3983  0.1572
20809SOL    HW263529   8.320   4.390   7.531 -1.1453  0.8771  2.7943
20810SOL     OW63530   8.876   2.300   8.073  0.1521  0.0549  0.1173
20810SOL    HW163531   8.951   2.300   8.133  0.1819  1.0404  0.0882
20810SOL    HW263532   8.828   2.380   8.095 -0.5240 -0.2252 -0.3280
20811SOL     OW63533   6.718   7.809   2.738 -0.5785  0.8051 -0.8905
20811SOL    HW163534   6.756   7.729   2.702 -0.0477  0.4331  0.4435
20811SOL    HW263535   6.643   7.828   2.681 -1.7033 -1.5597 -0.2837
20812SOL     OW63536   7.212   5.733   8.417  1.0638  0.5263  0.1033
20812SOL    HW163537   7.222   5.665   8.351 -0.5805 -0.4166  0.7684
20812SOL    HW263538   7.190   5.812   8.368 -1.0696 -0.3653 -0.4786
20813SOL     OW63539   5.121   4.175   7.356 -0.2060 -0.3523  0.0563
20813SOL    HW163540   5.201   4.223   7.335  0.0587 -1.2374 -1.0230
20813SOL    HW263541   5.058   4.243   7.380  0.4603  0.4589 -0.4335
20814SOL     OW63542   7.222   6.718   4.178 -0.1687 -0.2092  0.1710
20814SOL    HW163543   7.263   6.802   4.199  2.9568 -2.1750  2.6797
20814SOL    HW263544   7.294   6.655   4.176 -2.5702 -3.1914  0.1824
20815SOL     OW63545   2.373   7.509   7.993  0.7124 -0.1482 -0.0735
20815SOL    HW163546   2.328   7.454   8.057  1.3091  0.2409  0.6963
20815SOL    HW263547   2.446   7.455   7.963  1.3803  0.2515  0.7854
20816SOL     OW63548   4.738   7.077   0.661  0.1142 -0.1832  0.2327
20816SOL    HW163549   4.828   7.072   0.627  0.1749  1.3190  0.1047
20816SOL    HW263550   4.682   7.071   0.583  0.1665  0.4432  0.1397
20817SOL     OW63551   6.282   7.883   1.936  0.0594 -0.0153  0.2045
20817SOL    HW163552   6.358   7.934   1.965 -1.2461  1.5994  0.9243
20817SOL    HW263553   6.306   7.852   1.849  1.2514  1.1101  0.1007
20818SOL     OW63554   0.171   4.683   7.451  1.0939  0.0678 -0.3057
20818SOL    HW163555   0.125   4.747   7.397  0.9141 -0.5087 -0.8380
20818SOL    HW263556   0.209   4.736   7.522  0.9869  0.7697 -0.7568
20819SOL     OW63557   8.492   8.954   0.642 -0.4786 -0.1435 -0.4033
20819SOL    HW163558   8.432   8.989   0.708 -0.4134  1.0489 -0.9456
20819SOL    HW263559   8.577   8.993   0.664  0.2190 -2.0963  0.5732
20820SOL     OW63560   2.038   8.004   0.923  0.2040 -0.3179 -0.5920
20820SOL    HW163561   1.976   7.964   0.985  1.5135 -0.5041  0.6684
20820SOL    HW263562   2.026   8.098   0.934 -1.5159 -0.3123 -2.1335
20821SOL     OW63563   5.969   5.764   3.580  0.0579  0.1433  0.4282
20821SOL    HW163564   5.998   5.855   3.572  3.6736 -0.9340 -0.6610
20821SOL    HW263565   5.952   5.753   3.673  2.8092  1.1802  1.1692
20822SOL     OW63566   2.963   1.006   5.586 -0.3776 -0.6608  0.2909
20822SOL    HW163567   2.960   1.005   5.491 -0.4744 -0.1408  0.2862
20822SOL    HW263568   3.027   1.074   5.607 -0.0901 -1.0192  0.5946
20823SOL     OW63569   4.980   0.678   0.793 -0.4173 -0.0983 -0.2364
20823SOL    HW163570   4.980   0.618   0.718  0.4923 -0.5018  0.0797
20823SOL    HW263571   5.052   0.648   0.849  0.1864  1.3766 -0.1599
20824SOL     OW63572   7.712   2.851   9.015 -0.1617 -0.0875 -0.2668
20824SOL    HW163573   7.756   2.766   9.022 -0.5810 -0.5454 -2.5581
20824SOL    HW263574   7.777   2.914   9.045 -0.1588 -1.2088  2.4329
20825SOL     OW63575   8.241   0.832   0.782 -0.4187 -0.2813  0.3398
20825SOL    HW163576   8.313   0.779   0.750 -1.5330 -1.1063 -0.8926
20825SOL    HW263577   8.261   0.847   0.875  0.6222 -1.6527  0.3603
20826SOL     OW63578   0.308   4.389   2.985 -0.1154  0.1104 -0.4644
20826SOL    HW163579   0.215   4.386   2.961  0.1361 -1.0444 -1.3981
20826SOL    HW263580   0.326   4.303   3.022  0.6810  0.1770 -0.6776
20827SOL     OW63581   7.309   4.817   0.568 -0.1268 -0.5758 -0.0249
20827SOL    HW163582   7.383   4.877   0.566 -0.3394 -0.3236 -1.7045
20827SOL    HW263583   7.232   4.874   0.570 -0.2972 -0.8130  0.1703
20828SOL     OW63584   3.794   7.392   5.521  0.4049  0.3723 -0.1100
20828SOL    HW163585   3.804   7.368   5.429 -1.4483  0.8408 -0.4763
20828SOL    HW263586   3.873   7.442   5.542  0.0683  1.7815 -1.9640
20829SOL     OW63587   8.923   6.056   1.128 -0.1326  0.1761 -0.1247
20829SOL    HW163588   8.834   6.064   1.162 -0.3295 -1.3627 -0.2072
20829SOL    HW263589   8.975   6.116   1.182 -0.6819 -1.1498  2.0090
20830SOL     OW63590   4.482   8.485   4.988  0.0432 -0.2005  0.0320
20830SOL    HW163591   4.466   8.531   5.070 -0.0666 -1.1513  0.5593
20830SOL    HW263592   4.415   8.417   4.985  0.8479 -1.0066 -0.2025
20831SOL     OW63593   5.966   0.754   1.624 -0.3496 -0.6703  0.0040
20831SOL    HW163594   6.005   0.842   1.624 -1.7600  0.0435  2.2387
20831SOL    HW263595   6.023   0.703   1.683  0.3363 -1.2462 -1.1132
20832SOL     OW63596   3.350   0.453   0.270 -0.3623  0.0619 -0.6246
20832SOL    HW163597   3.384   0.522   0.213 -2.0246  0.1727 -1.5535
20832SOL    HW263598   3.260   0.481   0.290 -1.3090 -2.0895 -1.5530
20833SOL     OW63599   0.036   1.347   0.476 -0.1777 -0.0192 -0.0661
20833SOL    HW163600   0.026   1.275   0.539  2.2091 -2.0738 -1.8478
20833SOL    HW263601  -0.030   1.329   0.409  0.1524 -0.3097 -0.3117
20834SOL     OW63602   7.808   3.528   9.049  0.0883 -0.2723  0.2449
20834SOL    HW163603   7.896   3.559   9.027 -0.1495  0.8653  0.7929
20834SOL    HW263604   7.817   3.434   9.060  1.1681 -0.2126 -0.0199
20835SOL     OW63605   8.515   2.956   8.866 -0.0199 -0.0457 -0.1651
20835SOL    HW163606   8.545   3.042   8.835 -0.1131 -0.5437 -1.7304
20835SOL    HW263607   8.575   2.894   8.826 -0.0445 -0.7372  0.8442
20836SOL     OW63608   4.105   3.908   6.972 -0.3643  0.2524  0.3262
20836SOL    HW163609   4.150   3.833   7.011  0.7780  1.2675  1.0349
20836SOL    HW263610   4.169   3.945   6.911 -0.3254  1.5094  1.0833
20837SOL     OW63611   0.924   0.681   7.792 -0.1190  0.7077  0.1835
20837SOL    HW163612   0.871   0.687   7.713  0.4756  0.6576 -0.2284
20837SOL    HW263613   0.900   0.758   7.843 -1.3501  0.1319  0.4940
20838SOL     OW63614   9.040   4.786   5.061  0.2120  0.3280  0.3664
20838SOL    HW163615   9.112   4.723   5.058  0.1625  0.1022  2.3231
20838SOL    HW263616   9.081   4.870   5.041  0.9166  0.1039  0.8216
20839SOL     OW63617   6.315   6.475   7.675 -0.1034  0.5334  0.1433
20839SOL    HW163618   6.360   6.494   7.593  0.7355  1.7343  0.8602
20839SOL    HW263619   6.321   6.556   7.726 -1.5307  0.1531  0.9783
20840SOL     OW63620   6.923   6.775   7.632 -0.4458 -0.2453 -0.0986
20840SOL    HW163621   6.898   6.835   7.562 -0.2637 -0.5992 -0.4687
20840SOL    HW263622   6.969   6.704   7.588  0.1720 -0.1929  0.4360
20841SOL     OW63623   1.528   0.557   8.913  0.1346 -0.5907  0.2504
20841SOL    HW163624   1.522   0.652   8.927 -1.9098 -0.7801  0.9509
20841SOL    HW263625   1.618   0.535   8.937  1.1803  1.3732 -1.4796
20842SOL     OW63626   6.673   4.983   7.011  0.7332  0.1503 -0.5949
20842SOL    HW163627   6.679   4.974   6.916  0.4220 -2.8164 -0.4211
20842SOL    HW263628   6.693   4.896   7.045 -1.2393  0.5700  1.9708
20843SOL     OW63629   8.331   0.917   6.591  0.2420  0.1293 -0.1871
20843SOL    HW163630   8.257   0.898   6.534 -0.0186  0.0089  0.1849
20843SOL    HW263631   8.378   0.834   6.598  0.3805  0.1903 -0.3730
20844SOL     OW63632   7.925   8.703   4.119 -0.2562 -0.5842  0.5002
20844SOL    HW163633   7.994   8.766   4.099 -1.4639  1.0780  1.3529
20844SOL    HW263634   7.881   8.690   4.036 -0.0082 -0.2905  0.3181
20845SOL     OW63635   2.198   0.494   5.196 -0.0076 -0.5256  0.7379
20845SOL    HW163636   2.160   0.415   5.235  1.8615 -1.2247  1.2781
20845SOL    HW263637   2.194   0.560   5.266 -1.5533 -0.1207  0.2919
20846SOL     OW63638   0.332   1.704   5.885  0.4651 -0.2458 -0.0531
20846SOL    HW163639   0.325   1.768   5.814  2.4510  0.3448  0.2130
20846SOL    HW263640   0.263   1.728   5.946 -1.1198 -0.6088 -1.6287
20847SOL     OW63641   5.978   0.854   6.996  0.1014  0.0435 -0.6185
20847SOL    HW163642   5.996   0.905   6.917 -0.2336  2.4309  0.7581
20847SOL    HW263643   6.014   0.906   7.067 -1.1872 -1.1506  0.9814
20848SOL     OW63644   0.426   7.431   5.630 -0.7260 -0.0475  0.1343
20848SOL    HW163645   0.349   7.405   5.581 -0.8313 -0.6136  0.5884
20848SOL    HW263646   0.454   7.513   5.590 -1.5079  0.1128 -0.0897
20849SOL     OW63647   6.716   6.209   7.367  0.0315 -0.5490 -0.0627
20849SOL    HW163648   6.792   6.266   7.378  1.0571 -1.9200  0.1206
20849SOL    HW263649   6.648   6.267   7.333  0.5727  1.1109  1.5302
20850SOL     OW63650   5.685   3.278   4.944 -0.3642 -0.5457  0.4156
20850SOL    HW163651   5.629   3.353   4.925  0.0971  0.1206  1.5587
20850SOL    HW263652   5.625   3.204   4.952 -0.9422 -0.0791  0.4099
20851SOL     OW63653   0.976   8.088   4.174  0.1510  0.2090 -0.6158
20851SOL    HW163654   0.889   8.117   4.148  0.4992  2.2869  0.3187
20851SOL    HW263655   1.011   8.045   4.096 -0.7502  1.6438 -1.8770
20852SOL     OW63656   1.275   8.304   5.729  0.1519  0.3026 -0.0734
20852SOL    HW163657   1.226   8.239   5.678  0.2010 -1.2273  1.6877
20852SOL    HW263658   1.347   8.253   5.768 -0.0290  1.3055  1.6757
20853SOL     OW63659   7.066   1.897   5.135 -0.3526  0.7470 -0.3164
20853SOL    HW163660   7.113   1.980   5.125 -1.2733  1.0838 -2.2638
20853SOL    HW263661   6.977   1.923   5.159 -0.0508  0.1803  1.5871
20854SOL     OW63662   6.470   1.637   5.818  0.1702  0.7953 -0.2539
20854SOL    HW163663   6.526   1.577   5.767 -0.2777  1.7267 -1.9325
20854SOL    HW263664   6.508   1.637   5.905  0.0426 -2.1351 -0.0891
20855SOL     OW63665   5.005   6.673   6.705  0.1619  0.3547 -0.0569
20855SOL    HW163666   4.930   6.616   6.687 -0.9730  1.8545 -0.2862
20855SOL    HW263667   5.081   6.621   6.678 -0.7923 -1.0905 -0.1256
20856SOL     OW63668   6.698   1.945   1.167  0.5835 -0.2107  0.2364
20856SOL    HW163669   6.606   1.944   1.140  0.7222 -0.7261 -0.2206
20856SOL    HW263670   6.696   1.915   1.258  0.3974 -1.2786 -0.1047
20857SOL     OW63671   8.350   1.319   4.952 -0.6606 -0.0450  0.2851
20857SOL    HW163672   8.438   1.356   4.960 -0.3618 -0.1915 -1.7074
20857SOL    HW263673   8.299   1.364   5.019  0.2601  2.1961 -0.4157
20858SOL     OW63674   8.169   0.824   2.486 -0.7332  0.5757 -0.1886
20858SOL    HW163675   8.257   0.848   2.456 -0.3866 -1.0623 -0.6013
20858SOL    HW263676   8.124   0.794   2.407 -1.1199 -0.0868  0.2687
20859SOL     OW63677   5.517   6.478   1.590 -0.5683 -0.2067 -0.3469
20859SOL    HW163678   5.542   6.422   1.665 -0.8709 -1.3871 -1.0954
20859SOL    HW263679   5.572   6.446   1.518 -3.0684 -1.8725 -1.6562
20860SOL     OW63680   6.470   3.802   7.855  0.3048 -0.4761  0.2309
20860SOL    HW163681   6.470   3.725   7.799 -0.0685 -0.0980 -0.2991
20860SOL    HW263682   6.561   3.830   7.859  0.7658 -2.0117  1.9389
20861SOL     OW63683   9.075   5.400   8.907  0.2600  0.3925 -0.4237
20861SOL    HW163684   8.983   5.420   8.889  0.5875  0.8337 -1.6919
20861SOL    HW263685   9.115   5.485   8.924  0.7559  0.3760 -1.4701
20862SOL     OW63686   3.733   4.260   0.970 -0.1940  0.5989  0.1739
20862SOL    HW163687   3.766   4.328   1.029  0.5698  1.3413 -1.0766
20862SOL    HW263688   3.810   4.207   0.950 -0.7754 -0.6688  1.1211
20863SOL     OW63689   3.953   4.084   7.435 -0.3732  0.1788 -0.0280
20863SOL    HW163690   3.989   4.043   7.356 -0.7732 -2.0796  0.8815
20863SOL    HW263691   3.879   4.028   7.459 -1.3689  1.8492  0.9629
20864SOL     OW63692   4.924   1.369   7.616  0.5272 -0.3870 -0.1760
20864SOL    HW163693   4.921   1.408   7.528  1.0754 -0.8001 -0.3776
20864SOL    HW263694   4.832   1.351   7.636  0.1247  1.8470  0.3074
20865SOL     OW63695   5.524   3.228   4.256 -0.6239  0.6717 -0.0596
20865SOL    HW163696   5.604   3.227   4.204 -1.6448  0.7677 -1.6981
20865SOL    HW263697   5.501   3.136   4.267  1.2560  0.4362  3.0219
20866SOL     OW63698   5.772   2.856   1.634  0.2830 -0.7644 -0.0205
20866SOL    HW163699   5.848   2.801   1.654 -0.6051 -1.4584  1.6885
20866SOL    HW263700   5.747   2.832   1.545  1.1260 -1.6534 -0.0313
20867SOL     OW63701   2.619   5.934   6.584  0.1426  0.4896  0.0208
20867SOL    HW163702   2.622   5.972   6.497 -1.0755 -0.3446 -0.4127
20867SOL    HW263703   2.658   6.000   6.641 -4.4608  3.8233 -0.1910
20868SOL     OW63704   0.832   1.728   1.086  0.4179 -0.1312 -0.3027
20868SOL    HW163705   0.841   1.650   1.032  1.2301  0.6694 -1.3719
20868SOL    HW263706   0.859   1.800   1.029 -1.2199  1.0558  0.3473
20869SOL     OW63707   6.801   0.466   8.600 -0.1616 -0.0387 -0.4664
20869SOL    HW163708   6.838   0.542   8.555  0.6769 -0.8149 -1.1283
20869SOL    HW263709   6.831   0.475   8.691 -1.2882  1.1715 -0.1784
20870SOL     OW63710   2.448   5.282   6.939 -0.3443 -0.2898  0.2670
20870SOL    HW163711   2.514   5.342   6.903 -0.5918 -0.1354  0.0696
20870SOL    HW263712   2.455   5.294   7.034  0.0014 -0.3696  0.2519
20871SOL     OW63713   5.482   0.730   2.177 -0.4404  0.9994  0.3949
20871SOL    HW163714   5.450   0.799   2.118  0.0252  1.2162  0.3876
20871SOL    HW263715   5.429   0.740   2.256 -0.2791  1.4624  0.4468
20872SOL     OW63716   6.268   3.407   2.189 -0.3984  0.4908  0.0529
20872SOL    HW163717   6.268   3.457   2.108 -1.6754 -0.6462 -0.6792
20872SOL    HW263718   6.254   3.472   2.258  0.4395  1.4291 -0.6297
20873SOL     OW63719   7.118   1.595   7.886 -0.4261  0.4698  0.3863
20873SOL    HW163720   7.129   1.674   7.832  0.5850 -0.0037 -0.1262
20873SOL    HW263721   7.106   1.628   7.975 -0.6703  1.2189  0.0809
20874SOL     OW63722   7.067   3.810   2.717  0.2964  0.0636  0.4606
20874SOL    HW163723   7.007   3.791   2.789  0.3293  0.8475  0.7062
20874SOL    HW263724   7.098   3.724   2.688  0.5593 -0.2531  1.6170
20875SOL     OW63725   5.357   4.427   1.349  0.1755  0.0580 -0.9326
20875SOL    HW163726   5.307   4.425   1.431 -0.8303  1.8325 -1.4295
20875SOL    HW263727   5.408   4.346   1.350 -0.4001 -0.3527  1.0622
20876SOL     OW63728   5.009   8.222   0.762  0.8999  0.0655  0.0650
20876SOL    HW163729   4.925   8.263   0.781  0.8408 -0.1297  0.2228
20876SOL    HW263730   5.047   8.203   0.847  2.0710  2.1010  0.0546
20877SOL     OW63731   3.634   6.598   3.176 -0.2771 -0.6634  0.0854
20877SOL    HW163732   3.636   6.570   3.084  0.3122 -1.0145  0.2006
20877SOL    HW263733   3.565   6.664   3.179  2.1748  2.1950 -1.4285
20878SOL     OW63734   6.969   1.133   5.434 -0.0855  0.2436 -0.1270
20878SOL    HW163735   6.946   1.072   5.504 -0.1791 -0.2551 -0.5891
20878SOL    HW263736   6.940   1.090   5.354  1.0538  0.2911 -0.5840
20879SOL     OW63737   2.715   0.507   8.337  0.6317 -0.6090 -0.2173
20879SOL    HW163738   2.738   0.597   8.358  0.0273 -0.2865 -0.8887
20879SOL    HW263739   2.713   0.462   8.422 -1.0972  0.5015  0.3781
20880SOL     OW63740   7.395   4.317   5.273  0.6278  0.4124  0.1613
20880SOL    HW163741   7.457   4.316   5.200  1.8589 -0.7440  1.1723
20880SOL    HW263742   7.422   4.392   5.326  0.1236  0.8764 -0.2232
20881SOL     OW63743   2.289   7.897   0.980  0.5616 -0.2280  0.2614
20881SOL    HW163744   2.201   7.931   0.964  0.5046 -1.0295 -1.3797
20881SOL    HW263745   2.286   7.861   1.068 -0.3760  0.8581  0.7010
20882SOL     OW63746   2.769   0.762   2.811 -0.6214  0.4825  0.0282
20882SOL    HW163747   2.853   0.728   2.843 -0.6789 -0.3662 -0.6574
20882SOL    HW263748   2.794   0.827   2.745 -0.4792 -0.3588 -0.7712
20883SOL     OW63749   5.772   5.334   7.736 -0.0760 -0.0003 -0.2031
20883SOL    HW163750   5.750   5.241   7.731  0.9915 -0.3136  0.6759
20883SOL    HW263751   5.861   5.340   7.702 -0.3057  0.7786 -0.6973
20884SOL     OW63752   3.644   4.341   8.353  0.0733  0.0502 -0.3595
20884SOL    HW163753   3.648   4.299   8.267  0.4482 -0.5604 -0.0451
20884SOL    HW263754   3.577   4.293   8.400  0.8678 -0.5485  0.1835
20885SOL     OW63755   1.080   6.994   0.320  0.6951  0.3902 -0.6052
20885SOL    HW163756   1.097   7.065   0.381 -1.4354  1.7346 -1.4959
20885SOL    HW263757   1.032   7.034   0.248  0.9714 -1.6250 -2.0090
20886SOL     OW63758   4.159   2.558   1.280  0.1063  0.1335  0.3953
20886SOL    HW163759   4.149   2.501   1.356  1.7468 -0.2137  0.3752
20886SOL    HW263760   4.080   2.542   1.228  0.0902 -1.4324  0.8562
20887SOL     OW63761   1.186   3.866   8.973  0.0869 -0.2860  0.0907
20887SOL    HW163762   1.115   3.885   9.034  0.2516  1.0430 -0.1061
20887SOL    HW263763   1.241   3.803   9.019  1.7863  2.7552  2.6008
20888SOL     OW63764   5.891   2.510   6.764 -0.1007  0.3455 -0.5796
20888SOL    HW163765   5.978   2.550   6.769  0.3912 -0.6998 -0.4406
20888SOL    HW263766   5.849   2.553   6.689  0.5451  0.8415 -0.6644
20889SOL     OW63767   1.896   8.863   4.850 -0.0567 -0.4820 -0.1704
20889SOL    HW163768   1.803   8.886   4.857  0.1302  1.0554 -1.9630
20889SOL    HW263769   1.901   8.810   4.770  0.6471 -0.2752 -0.2656
20890SOL     OW63770   5.764   3.342   7.910 -0.5208  0.0205  0.1479
20890SOL    HW163771   5.685   3.292   7.886  1.3583 -2.3060 -1.6767
20890SOL    HW263772   5.787   3.389   7.830  0.3047  0.1544  0.4622
20891SOL     OW63773   3.485   7.468   0.591 -0.2559  0.0410 -0.1149
20891SOL    HW163774   3.500   7.547   0.643 -1.5398  0.2213  0.0359
20891SOL    HW263775   3.476   7.500   0.501 -0.8906  0.0912 -0.0380
20892SOL     OW63776   3.919   4.592   4.651  0.1298  0.5835 -0.2009
20892SOL    HW163777   3.896   4.507   4.690 -0.9859  0.4545 -1.1168
20892SOL    HW263778   4.012   4.603   4.673  0.1912 -0.6785  0.2757
20893SOL     OW63779   6.777   2.344   4.602  0.0619 -0.0153 -0.4762
20893SOL    HW163780   6.788   2.254   4.572 -2.3512 -0.6373  0.3403
20893SOL    HW263781   6.683   2.357   4.606  0.3160  1.6517  2.0200
20894SOL     OW63782   0.901   5.125   1.801 -0.8685 -0.3476 -0.1153
20894SOL    HW163783   0.854   5.077   1.870  0.5726  1.0864  1.9999
20894SOL    HW263784   0.837   5.188   1.768 -1.6983 -1.3028 -0.3669
20895SOL     OW63785   6.227   6.339   5.167  0.2735  0.3017  0.1540
20895SOL    HW163786   6.156   6.389   5.126 -0.9019 -0.7043  0.8948
20895SOL    HW263787   6.184   6.261   5.203  1.7074 -0.1804  0.8968
20896SOL     OW63788   6.218   6.946   0.998  0.8138  0.2028  0.4059
20896SOL    HW163789   6.232   6.935   0.903  0.3045 -1.4580  0.4865
20896SOL    HW263790   6.185   7.035   1.007 -0.3133 -0.0101 -1.1336
20897SOL     OW63791   6.095   1.706   8.094  0.0381 -0.2448 -0.1731
20897SOL    HW163792   6.091   1.709   7.998 -0.5671 -0.2373 -0.1541
20897SOL    HW263793   6.028   1.768   8.122  1.0081  0.6355  0.2663
20898SOL     OW63794   0.428   3.863   2.814 -0.3724 -0.3457  0.2445
20898SOL    HW163795   0.441   3.770   2.795 -1.8463 -0.2743 -1.3965
20898SOL    HW263796   0.349   3.866   2.867 -1.2213  0.0400 -1.0020
20899SOL     OW63797   4.936   3.198   6.219  0.1985  0.2254 -0.4512
20899SOL    HW163798   4.887   3.279   6.230  0.4916  0.4760 -0.9607
20899SOL    HW263799   4.904   3.162   6.136  0.8423  0.3719 -0.7692
20900SOL     OW63800   3.925   7.872   1.298 -0.5138 -0.0592  0.4724
20900SOL    HW163801   3.941   7.783   1.270  0.3113  0.3066 -0.2502
20900SOL    HW263802   3.979   7.883   1.377  0.5652  0.2536 -0.2893
20901SOL     OW63803   4.615   1.020   7.756 -0.3254  0.3902 -0.1867
20901SOL    HW163804   4.670   1.015   7.678 -1.1363  2.4834 -0.9647
20901SOL    HW263805   4.643   1.100   7.800  0.8183 -1.2547  2.3122
20902SOL     OW63806   2.206   3.678   5.821 -0.0303  0.0234 -0.2588
20902SOL    HW163807   2.112   3.667   5.838 -0.2431 -0.0163 -1.4045
20902SOL    HW263808   2.217   3.771   5.804  0.1938  0.0723  0.1262
20903SOL     OW63809   4.464   7.764   7.152 -0.9306  0.2957  0.2059
20903SOL    HW163810   4.457   7.854   7.122  0.5869  0.2297 -0.4588
20903SOL    HW263811   4.498   7.770   7.241  0.6096  0.3942 -0.3496
20904SOL     OW63812   2.594   8.987   5.794  0.3657 -0.1872  0.0949
20904SOL    HW163813   2.514   9.038   5.781  0.3460 -0.4522 -0.9612
20904SOL    HW263814   2.582   8.909   5.739  1.2312 -0.3628  0.1307
20905SOL     OW63815   7.580   2.086   6.482  0.0273 -0.4256 -0.1803
20905SOL    HW163816   7.644   2.049   6.422 -0.8619 -0.6999 -0.9659
20905SOL    HW263817   7.497   2.084   6.435 -0.6780 -0.5654  1.0129
20906SOL     OW63818   4.396   4.613   4.327  0.1149 -0.0131 -0.7436
20906SOL    HW163819   4.465   4.578   4.383  0.7761 -1.4432 -2.3469
20906SOL    HW263820   4.370   4.539   4.272 -2.0232  0.7482 -0.8821
20907SOL     OW63821   0.193   1.042   4.306 -0.2610  0.1700 -0.2867
20907SOL    HW163822   0.156   1.114   4.359  0.0423  1.3924 -1.6685
20907SOL    HW263823   0.260   1.003   4.362  0.8063  2.1256 -0.1297
20908SOL     OW63824   7.687   2.541   1.802 -0.6494 -0.7523 -0.4954
20908SOL    HW163825   7.634   2.541   1.882 -0.6957 -1.0098 -0.5250
20908SOL    HW263826   7.688   2.632   1.774 -0.4119 -0.6189 -0.0542
20909SOL     OW63827   2.749   6.662   1.254 -0.1951 -0.4019  0.1279
20909SOL    HW163828   2.658   6.688   1.269  0.0771  0.6081  0.1150
20909SOL    HW263829   2.743   6.587   1.194 -0.9628  0.5610 -1.0461
20910SOL     OW63830   3.650   4.795   6.315 -0.3923  0.2164  0.1365
20910SOL    HW163831   3.708   4.755   6.251 -0.8615  0.8831 -0.7203
20910SOL    HW263832   3.708   4.819   6.388 -0.0456 -1.6919  0.5586
20911SOL     OW63833   0.942   6.748   0.350 -0.8507 -0.5599 -0.6309
20911SOL    HW163834   0.859   6.768   0.392 -0.6244 -1.4175  0.2592
20911SOL    HW263835   0.983   6.834   0.337 -1.6703 -0.1656 -0.6721
20912SOL     OW63836   1.058   3.879   7.887  0.4013 -0.0578 -0.3740
20912SOL    HW163837   1.094   3.801   7.929  0.4383  0.5207  0.7056
20912SOL    HW263838   1.119   3.899   7.816  0.1864 -1.2171 -0.9220
20913SOL     OW63839   1.759   0.156   3.744  0.2416  0.3871 -0.1843
20913SOL    HW163840   1.712   0.219   3.688 -2.0516 -2.2578 -1.5084
20913SOL    HW263841   1.693   0.125   3.805  1.5705 -0.0573  1.0746
20914SOL     OW63842   0.853   8.786   7.704  0.2551 -0.3729  0.0123
20914SOL    HW163843   0.928   8.813   7.651 -0.3495  0.8759 -0.2276
20914SOL    HW263844   0.777   8.814   7.655 -0.3353  0.2796  1.2483
20915SOL     OW63845   0.658   6.510   7.008 -0.3123 -0.1330  0.4919
20915SOL    HW163846   0.725   6.536   7.071  0.9123  0.0185 -0.8443
20915SOL    HW263847   0.635   6.590   6.962  1.7751 -0.8608 -2.0155
20916SOL     OW63848   4.730   6.170   6.036 -0.0347  0.0746  0.4394
20916SOL    HW163849   4.777   6.140   5.958  0.1301 -1.2733  1.0342
20916SOL    HW263850   4.673   6.240   6.004 -2.5777 -2.6735 -1.6711
20917SOL     OW63851   0.041   5.899   2.296  0.5253  0.6603 -0.0665
20917SOL    HW163852   0.112   5.852   2.340  0.9381  0.7878 -0.5800
20917SOL    HW263853   0.050   5.874   2.203 -0.1472  0.6224 -0.1281
20918SOL     OW63854   2.353   1.395   5.195 -0.1368 -0.6980 -0.1300
20918SOL    HW163855   2.265   1.412   5.161  0.0440 -0.9082 -0.7103
20918SOL    HW263856   2.345   1.411   5.289 -0.1238  2.1041 -0.5074
20919SOL     OW63857   5.959   1.770   1.492 -0.2842  0.0106 -0.1984
20919SOL    HW163858   6.039   1.800   1.449 -1.2201 -0.5162 -2.4197
20919SOL    HW263859   5.984   1.759   1.584  1.8744  0.9443 -0.6208
20920SOL     OW63860   2.374   3.255   2.794 -0.1541  0.3229 -0.3573
20920SOL    HW163861   2.365   3.340   2.753 -2.3938 -0.0766 -0.8138
20920SOL    HW263862   2.287   3.236   2.829  0.9388 -0.6431  2.0417
20921SOL     OW63863   0.406   7.048   4.450 -0.0057 -0.1209 -0.1358
20921SOL    HW163864   0.411   6.984   4.379  0.9994  0.3280 -0.4854
20921SOL    HW263865   0.431   6.999   4.528  1.1175 -0.0976 -0.4560
20922SOL     OW63866   1.458   0.148   0.247  0.5213 -0.3626 -0.1162
20922SOL    HW163867   1.501   0.069   0.280 -1.8242 -2.5095 -1.7708
20922SOL    HW263868   1.510   0.174   0.171  0.3707 -1.3574 -0.5700
20923SOL     OW63869   0.238   6.688   3.901  0.1646 -0.1123 -0.2690
20923SOL    HW163870   0.211   6.641   3.822 -1.3860  0.9456 -0.4053
20923SOL    HW263871   0.333   6.679   3.902  0.1010 -1.3122 -1.5038
20924SOL     OW63872   7.940   1.816   0.635  0.0399  0.1538 -0.3156
20924SOL    HW163873   8.015   1.766   0.668 -0.8233 -0.3653  0.9305
20924SOL    HW263874   7.980   1.890   0.588  1.3280 -0.5882 -0.4366
20925SOL     OW63875   2.805   6.957   5.353  0.1370 -0.3860  0.3658
20925SOL    HW163876   2.739   6.973   5.421 -1.9859 -0.0832 -1.6432
20925SOL    HW263877   2.805   7.037   5.300  1.2927 -0.8431 -0.3496
20926SOL     OW63878   0.040   3.753   3.348 -0.3466 -0.0488 -0.6833
20926SOL    HW163879   0.109   3.812   3.319  0.2424 -1.2060 -1.7084
20926SOL    HW263880   0.071   3.720   3.432 -0.5258  0.8103 -0.2621
20927SOL     OW63881   2.191   6.132   2.790  0.6867 -0.8485  0.4556
20927SOL    HW163882   2.274   6.140   2.837  1.3537  0.0005 -0.8218
20927SOL    HW263883   2.146   6.215   2.805 -0.5397 -1.7628  2.1818
20928SOL     OW63884   7.603   3.402   5.768  0.4123  0.5555 -0.0262
20928SOL    HW163885   7.593   3.487   5.726  1.4818  0.6889 -0.0214
20928SOL    HW263886   7.574   3.416   5.858 -3.1065 -0.0244 -0.9253
20929SOL     OW63887   0.433   4.801   8.863  0.3538 -0.2851  0.1527
20929SOL    HW163888   0.463   4.838   8.781  1.4948 -0.3369  0.5339
20929SOL    HW263889   0.402   4.713   8.840  0.9774 -0.4222 -0.1817
20930SOL     OW63890   3.903   7.162   4.933 -1.0040 -0.6720  0.0748
20930SOL    HW163891   3.893   7.074   4.968  1.0229 -0.6819  0.7786
20930SOL    HW263892   3.976   7.200   4.983  0.0496  0.3736 -2.0848
20931SOL     OW63893   2.953   9.073   3.656 -0.3586  0.1445  0.3915
20931SOL    HW163894   3.010   9.149   3.648 -0.5323  0.2102 -0.2266
20931SOL    HW263895   2.975   9.036   3.742  1.0966 -0.2258 -0.1209
20932SOL     OW63896   0.474   2.915   6.337 -0.0517 -0.0693 -0.0786
20932SOL    HW163897   0.389   2.886   6.370  0.8508 -1.6828  0.9861
20932SOL    HW263898   0.487   2.866   6.256  0.2310 -0.4592  0.2033
20933SOL     OW63899   3.712   2.323   7.538  0.2273  0.2019 -0.4309
20933SOL    HW163900   3.722   2.227   7.542  1.0003  0.2960 -0.0356
20933SOL    HW263901   3.676   2.347   7.623 -0.0952  0.2472 -0.5806
20934SOL     OW63902   2.222   2.658   6.618 -0.2787  0.1001 -0.6629
20934SOL    HW163903   2.196   2.625   6.704  1.1180  0.5531 -0.0392
20934SOL    HW263904   2.171   2.739   6.607 -0.3793  0.1028 -0.2079
20935SOL     OW63905   8.216   3.001   6.755  0.1647  0.2265 -0.0614
20935SOL    HW163906   8.153   2.929   6.755 -0.4559  0.7021 -1.8857
20935SOL    HW263907   8.295   2.964   6.793 -0.9319 -0.6309  1.5104
20936SOL     OW63908   6.611   4.049   8.059 -0.3198  0.3746 -0.4951
20936SOL    HW163909   6.585   4.125   8.110 -1.7156  0.0728 -0.7159
20936SOL    HW263910   6.551   4.048   7.984  0.6138 -0.1292 -1.2624
20937SOL     OW63911   0.350   8.596   8.846  0.1073 -0.1520  0.0823
20937SOL    HW163912   0.265   8.635   8.868 -0.1116 -1.2881  1.3372
20937SOL    HW263913   0.395   8.665   8.797 -1.2665  0.7231 -0.0175
20938SOL     OW63914   5.816   5.110   1.974  0.1268 -0.0578 -0.5034
20938SOL    HW163915   5.795   5.168   2.047  0.6390  1.8907 -1.8313
20938SOL    HW263916   5.794   5.160   1.896 -0.7297 -2.2036 -1.7402
20939SOL     OW63917   7.990   5.583   1.161  0.1856  0.6071 -0.5761
20939SOL    HW163918   8.033   5.535   1.090  1.8088  0.3826  0.5083
20939SOL    HW263919   7.979   5.518   1.230  0.7878  1.3808  0.2562
20940SOL     OW63920   3.650   7.938   6.722  0.0653 -1.0369 -0.2849
20940SOL    HW163921   3.617   8.008   6.667  2.5497 -0.1742 -0.7716
20940SOL    HW263922   3.620   7.961   6.811 -0.4243 -0.2127 -0.6548
20941SOL     OW63923   2.347   9.123   7.402  1.2054 -0.5977 -0.0741
20941SOL    HW163924   2.269   9.096   7.353  1.9866 -0.3564 -1.5098
20941SOL    HW263925   2.352   9.218   7.389  1.8343 -0.6370 -0.1445
20942SOL     OW63926   8.790   1.168   5.549 -0.1859  0.2009 -0.3725
20942SOL    HW163927   8.736   1.119   5.610  0.0388 -1.3908 -1.3694
20942SOL    HW263928   8.757   1.143   5.462  1.9387 -0.6480 -1.0095
20943SOL     OW63929   3.771   1.002   7.062 -0.1086  0.5082 -0.5278
20943SOL    HW163930   3.750   0.965   7.148 -1.1587 -1.1636 -1.4586
20943SOL    HW263931   3.865   0.986   7.052 -0.0048  0.5902  0.2256
20944SOL     OW63932   5.242   5.064   1.534  0.0231 -0.2311  0.4544
20944SOL    HW163933   5.312   5.033   1.592  0.2607 -0.7983 -0.1205
20944SOL    HW263934   5.232   4.995   1.469  1.8693  1.6098 -2.0163
20945SOL     OW63935   3.715   8.179   6.302 -0.0820 -0.1025 -0.3191
20945SOL    HW163936   3.778   8.176   6.373 -0.0828 -0.1198 -0.3190
20945SOL    HW263937   3.767   8.164   6.223 -0.0562  0.0857 -0.3377
20946SOL     OW63938   6.791   1.053   1.783  0.1781  0.2143  0.0265
20946SOL    HW163939   6.779   0.958   1.791  1.5426 -0.0073 -0.4237
20946SOL    HW263940   6.854   1.075   1.851 -0.8383  0.9648  0.7498
20947SOL     OW63941   8.200   1.090   6.841  0.7400 -0.5910  0.2344
20947SOL    HW163942   8.258   1.166   6.835 -0.9764  0.6769 -2.9214
20947SOL    HW263943   8.247   1.020   6.795  1.2400 -0.6798  0.8686
20948SOL     OW63944   0.374   6.951   1.116  0.6205 -0.4126  0.5323
20948SOL    HW163945   0.466   6.945   1.139  0.8495  1.1151  0.1179
20948SOL    HW263946   0.331   6.979   1.196  0.9358  1.5866  0.0410
20949SOL     OW63947   0.068   7.343   8.795 -0.7142 -0.4879 -0.2292
20949SOL    HW163948  -0.026   7.362   8.799 -1.2503 -2.9025 -0.2491
20949SOL    HW263949   0.107   7.425   8.764 -2.8836  0.3253 -1.0261
20950SOL     OW63950   8.965   8.553   6.325 -0.4433 -0.4359 -0.0069
20950SOL    HW163951   8.869   8.557   6.327 -0.4268 -0.0535  1.3575
20950SOL    HW263952   8.986   8.464   6.355 -0.3663 -0.5277 -0.3257
20951SOL     OW63953   7.643   7.107   4.709  0.5561 -0.4005  0.0707
20951SOL    HW163954   7.655   7.013   4.727 -1.6342 -0.6428  0.6063
20951SOL    HW263955   7.577   7.134   4.773 -0.6538  0.9300 -1.6659
20952SOL     OW63956   5.047   7.668   4.485 -0.1817  0.3784  0.1139
20952SOL    HW163957   4.996   7.747   4.466  1.4087  1.7423  1.2330
20952SOL    HW263958   5.020   7.605   4.418  0.9907  2.9725 -3.0306
20953SOL     OW63959   8.820   3.528   1.431  0.0879 -0.6669  0.0302
20953SOL    HW163960   8.804   3.539   1.524 -0.2724  0.6304 -0.1590
20953SOL    HW263961   8.884   3.596   1.409 -0.8552 -0.0407 -0.9093
20954SOL     OW63962   3.769   3.382   7.700 -0.0101 -0.2899 -0.1368
20954SOL    HW163963   3.708   3.426   7.641 -0.8418  1.1759  1.6952
20954SOL    HW263964   3.776   3.441   7.775  0.6734 -2.2193  1.4105
20955SOL     OW63965   1.298   8.104   6.554 -0.0792 -0.0826  0.7431
20955SOL    HW163966   1.256   8.019   6.560  2.7671 -1.4952  3.4582
20955SOL    HW263967   1.270   8.150   6.634  0.1713  0.6529  0.4195
20956SOL     OW63968   0.016   1.405   5.655 -0.2607 -0.4265  0.0219
20956SOL    HW163969  -0.046   1.400   5.727 -0.4178  0.7593 -0.0136
20956SOL    HW263970   0.090   1.351   5.683 -1.1966 -1.6526  0.1619
20957SOL     OW63971   7.760   1.252   8.255 -0.3158 -0.4424 -0.5255
20957SOL    HW163972   7.717   1.290   8.179 -0.1081  0.7367 -0.0807
20957SOL    HW263973   7.824   1.191   8.219 -1.5081 -1.3129 -1.2179
20958SOL     OW63974   6.620   3.611   4.605  0.3823  0.2386 -0.2696
20958SOL    HW163975   6.586   3.600   4.516 -0.6845  1.6450 -0.0586
20958SOL    HW263976   6.699   3.664   4.594 -0.8042  2.0901 -0.2449
20959SOL     OW63977   8.956   6.485   7.026  0.1052 -0.0525 -0.2008
20959SOL    HW163978   8.888   6.531   6.979  1.2143  1.1645 -0.6777
20959SOL    HW263979   9.038   6.513   6.985  1.0105 -0.1980  1.3906
20960SOL     OW63980   4.866   3.418   0.832 -0.3573 -0.3950 -0.0180
20960SOL    HW163981   4.866   3.335   0.880  0.3851 -0.5961 -0.3515
20960SOL    HW263982   4.830   3.395   0.746  0.2027 -0.4539 -0.2393
20961SOL     OW63983   7.588   0.137   1.549 -0.1567  0.5872  0.4860
20961SOL    HW163984   7.568   0.192   1.473  0.4293 -1.3816 -1.2100
20961SOL    HW263985   7.514   0.148   1.608 -2.5665 -0.5903 -2.0664
20962SOL     OW63986   0.189   1.547   4.788 -0.0085 -0.6728  0.7663
20962SOL    HW163987   0.221   1.472   4.838 -1.2018 -1.8225 -0.0967
20962SOL    HW263988   0.219   1.530   4.698  0.7006  0.5012  0.7665
20963SOL     OW63989   1.954   7.084   2.074 -0.3008 -0.3576 -0.1773
20963SOL    HW163990   1.923   7.166   2.114  1.7355  1.3238 -1.8182
20963SOL    HW263991   2.015   7.048   2.139  1.6923  1.4783 -0.8928
20964SOL     OW63992   6.981   2.447   8.713 -0.1848 -0.3992 -0.0819
20964SOL    HW163993   7.047   2.384   8.684  1.7867  1.4157  0.2421
20964SOL    HW263994   7.026   2.531   8.711 -2.2461  0.7977  1.0503
20965SOL     OW63995   3.472   0.733   4.579  0.0060 -0.1694  0.3424
20965SOL    HW163996   3.492   0.719   4.486  1.5374 -0.1840  0.6473
20965SOL    HW263997   3.468   0.644   4.616 -0.6339 -0.1653  0.2916
20966SOL     OW63998   2.422   5.111   5.046 -0.3554  0.3506 -0.4930
20966SOL    HW163999   2.327   5.123   5.045 -0.3954  0.1176 -2.7530
20966SOL    HW264000   2.452   5.149   4.964  1.8710  2.7865  1.3024
20967SOL     OW64001   7.778   3.843   0.359  0.0532 -0.0874 -0.3169
20967SOL    HW164002   7.804   3.894   0.282 -2.5282 -0.1196 -1.3332
20967SOL    HW264003   7.819   3.758   0.347  0.8192  0.3492 -0.9055
20968SOL     OW64004   6.008   3.154   0.368 -0.2827 -0.3154  0.0656
20968SOL    HW164005   6.083   3.211   0.387 -0.3887 -1.1015  3.6202
20968SOL    HW264006   5.933   3.200   0.404 -1.2866 -0.3510 -1.8578
20969SOL     OW64007   0.817   0.403   8.759  0.0806  0.2012  0.5505
20969SOL    HW164008   0.798   0.323   8.710  0.7266  1.5115 -2.0329
20969SOL    HW264009   0.889   0.379   8.817 -0.0236 -1.2091  0.1344
20970SOL     OW64010   1.482   3.295   7.563  0.2338  0.1784 -0.2729
20970SOL    HW164011   1.480   3.343   7.481  1.5051  1.1618  0.2506
20970SOL    HW264012   1.472   3.362   7.631  0.7359 -0.4357  0.4303
20971SOL     OW64013   6.729   2.037   4.881  0.7577 -0.4736  0.5643
20971SOL    HW164014   6.678   2.093   4.940 -2.5441 -1.5077 -1.0692
20971SOL    HW264015   6.692   1.949   4.894  1.3958 -1.1002 -1.4920
20972SOL     OW64016   3.919   4.393   5.032  0.4631  0.2302  0.4859
20972SOL    HW164017   3.937   4.374   4.940 -0.8343 -0.3898  0.3347
20972SOL    HW264018   3.867   4.473   5.031 -0.6635 -0.4842  0.5722
20973SOL     OW64019   2.674   8.936   8.992 -0.2133  0.3839  0.3025
20973SOL    HW164020   2.581   8.944   8.968 -1.3316 -5.0975  1.4741
20973SOL    HW264021   2.674   8.921   9.086  1.7322 -0.4653  0.2243
20974SOL     OW64022   4.910   6.415   5.857  0.0110  0.5631 -0.3695
20974SOL    HW164023   4.842   6.454   5.912  0.2224 -2.0231  1.9817
20974SOL    HW264024   4.862   6.360   5.795 -0.1210  0.2719 -0.0137
20975SOL     OW64025   2.651   1.327   4.562 -0.3037  0.0346  0.2301
20975SOL    HW164026   2.568   1.316   4.514 -0.0078 -2.0636  0.1122
20975SOL    HW264027   2.716   1.338   4.493 -0.2839  0.2323  0.2789
20976SOL     OW64028   7.863   1.555   5.259 -0.1055 -0.4322 -0.0876
20976SOL    HW164029   7.874   1.461   5.268 -0.0017 -0.4802 -0.6758
20976SOL    HW264030   7.896   1.575   5.171  0.7083  0.2754  0.3588
20977SOL     OW64031   6.589   3.697   2.784  0.4164  0.3587  0.1558
20977SOL    HW164032   6.565   3.709   2.876  1.6953 -0.0635  0.5693
20977SOL    HW264033   6.512   3.726   2.735 -0.0235  1.2540  1.3317
20978SOL     OW64034   5.993   1.324   7.554 -0.0830  0.3096 -0.3713
20978SOL    HW164035   5.970   1.250   7.610 -0.5972  0.4074 -0.4531
20978SOL    HW264036   5.985   1.290   7.465 -0.3012  0.4633 -0.4085
20979SOL     OW64037   5.322   2.664   4.639 -0.0101  0.4810 -0.3195
20979SOL    HW164038   5.357   2.752   4.622  1.2091  0.3193  1.1118
20979SOL    HW264039   5.393   2.605   4.615  0.8958  0.1459  2.7140
20980SOL     OW64040   6.233   1.065   0.960 -0.4036  0.6233 -0.4436
20980SOL    HW164041   6.231   1.004   1.033  0.3322 -0.7573 -1.5171
20980SOL    HW264042   6.314   1.115   0.972 -0.6535  0.9180  0.0566
20981SOL     OW64043   5.222   6.021   5.264  0.2263 -0.4664  0.5318
20981SOL    HW164044   5.279   6.098   5.262 -0.7899  0.2930 -0.4457
20981SOL    HW264045   5.135   6.055   5.245 -0.1117 -1.9642 -0.8259
20982SOL     OW64046   2.635   1.511   4.802 -0.1457 -0.5344  0.8093
20982SOL    HW164047   2.637   1.472   4.715  2.1594 -2.2540  1.5463
20982SOL    HW264048   2.621   1.437   4.861 -1.9385  0.6309  1.9493
20983SOL     OW64049   0.194   3.906   8.702 -0.2548  0.3988 -0.1993
20983SOL    HW164050   0.282   3.944   8.704 -0.7376  1.5583  0.1901
20983SOL    HW264051   0.193   3.850   8.625  1.2872 -0.8300  0.6218
20984SOL     OW64052   3.509   4.039   7.282 -0.2610  0.4104  0.1811
20984SOL    HW164053   3.467   3.959   7.250  0.8941 -0.6272  1.0935
20984SOL    HW264054   3.567   4.065   7.211  0.9866 -0.8699  0.6697
20985SOL     OW64055   7.451   8.980   1.421 -0.3300 -0.6115  0.0071
20985SOL    HW164056   7.460   9.058   1.476 -1.5399 -0.1887 -0.3719
20985SOL    HW264057   7.375   8.998   1.366  0.7317 -1.1208 -1.6724
20986SOL     OW64058   3.572   2.659   7.153  0.2517  0.0529  0.3784
20986SOL    HW164059   3.597   2.573   7.120  0.2856  0.0168  0.4968
20986SOL    HW264060   3.477   2.662   7.145  0.2166 -0.1310  0.6957
20987SOL     OW64061   2.733   0.599   6.601 -0.5550 -0.1593  0.2481
20987SOL    HW164062   2.783   0.660   6.655 -0.7885  0.3581 -0.1122
20987SOL    HW264063   2.656   0.579   6.654 -0.9300  0.5761 -0.0016
20988SOL     OW64064   6.304   4.567   7.876  0.9387 -0.4467  0.3273
20988SOL    HW164065   6.257   4.617   7.810 -0.4114  2.5032  3.2349
20988SOL    HW264066   6.386   4.616   7.889  0.6128 -0.2060  1.6485
20989SOL     OW64067   5.461   6.296   6.602  0.2298 -0.8932 -0.6982
20989SOL    HW164068   5.556   6.293   6.597  0.2434 -0.3965 -0.6982
20989SOL    HW264069   5.433   6.309   6.511  0.1912 -0.1783 -0.5839
20990SOL     OW64070   3.406   0.885   7.549  0.4114  0.0253  0.0180
20990SOL    HW164071   3.336   0.938   7.511 -0.2999  1.1458  2.6405
20990SOL    HW264072   3.473   0.882   7.482 -1.6987 -0.2668 -2.2317
20991SOL     OW64073   5.642   5.903   4.975 -0.0446 -0.0908  0.2533
20991SOL    HW164074   5.644   5.855   5.058  1.1876  1.3711  1.1163
20991SOL    HW264075   5.564   5.959   4.982  0.0408  0.0089  0.4064
20992SOL     OW64076   5.654   2.728   4.785 -0.5163 -0.3247  0.1538
20992SOL    HW164077   5.737   2.704   4.826 -0.9583  1.0500  2.0131
20992SOL    HW264078   5.607   2.646   4.776  0.3100 -0.8901  0.8504
20993SOL     OW64079   0.433   5.468   1.581  0.0368 -0.3356  0.1549
20993SOL    HW164080   0.490   5.398   1.550 -0.0038 -1.6039  2.7383
20993SOL    HW264081   0.346   5.429   1.582 -0.2246  0.2447  0.2326
20994SOL     OW64082   1.345   3.887   1.356 -0.3675  0.3290  0.0854
20994SOL    HW164083   1.348   3.912   1.448 -3.3294  0.4504  0.2436
20994SOL    HW264084   1.307   3.963   1.311 -0.3350 -0.2690 -0.9933
20995SOL     OW64085   4.192   0.166   5.508 -0.1558  0.7222 -0.3120
20995SOL    HW164086   4.157   0.082   5.478  0.8624  0.4469 -0.7556
20995SOL    HW264087   4.178   0.165   5.603 -2.2889  1.0789 -0.5567
20996SOL     OW64088   7.497   2.693   0.941 -0.3461 -0.0620  0.6354
20996SOL    HW164089   7.480   2.721   1.031  0.2777 -0.9022  1.0305
20996SOL    HW264090   7.422   2.725   0.891 -0.3783  0.9953  1.3260
20997SOL     OW64091   3.984   2.532   8.794 -0.1027  0.0748 -0.2330
20997SOL    HW164092   4.020   2.465   8.736 -0.1815 -0.2597  0.0962
20997SOL    HW264093   3.953   2.601   8.735  0.9333  0.3095 -0.5380
20998SOL     OW64094   5.700   0.504   0.991  0.2036 -0.3367 -0.3240
20998SOL    HW164095   5.724   0.419   1.027 -0.1144 -0.5907 -0.7104
20998SOL    HW264096   5.673   0.486   0.901 -1.6476 -0.1152  0.1500
20999SOL     OW64097   9.054   8.837   1.466 -0.0020  0.0874 -0.0667
20999SOL    HW164098   9.024   8.924   1.491 -0.6764 -0.4375  1.0360
20999SOL    HW264099   9.149   8.840   1.475  0.0183  0.8236 -0.4703
21000SOL     OW64100   7.589   6.968   3.277  0.3207 -0.4311 -0.7838
21000SOL    HW164101   7.537   6.890   3.296  0.0069  0.0119  0.2463
21000SOL    HW264102   7.538   7.014   3.210 -1.7527  1.0083  1.6033
21001SOL     OW64103   7.674   7.206   7.652 -0.9275  0.4886 -0.2199
21001SOL    HW164104   7.721   7.123   7.659 -0.4422  0.6416 -1.3523
21001SOL    HW264105   7.672   7.240   7.741  0.0737 -0.0962  0.0426
21002SOL     OW64106   0.855   8.906   3.422  0.7357  0.1949  0.0521
21002SOL    HW164107   0.803   8.927   3.344  1.3672  1.1783 -0.1271
21002SOL    HW264108   0.935   8.866   3.388 -0.2688 -2.2264  0.3755
21003SOL     OW64109   5.714   2.704   0.591 -0.2964  0.2191 -0.3549
21003SOL    HW164110   5.761   2.784   0.566 -0.0888 -0.6895 -3.3186
21003SOL    HW264111   5.642   2.734   0.645 -0.5054  2.5032 -1.7609
21004SOL     OW64112   5.881   7.487   4.474 -0.2642  0.1304 -0.3577
21004SOL    HW164113   5.925   7.561   4.517 -1.2573  0.3788  0.2657
21004SOL    HW264114   5.805   7.469   4.529 -0.0247 -1.3954 -0.4875
21005SOL     OW64115   1.496   2.878   0.811  0.4579  0.8445  0.2349
21005SOL    HW164116   1.492   2.973   0.799  2.7175  1.2144  1.8882
21005SOL    HW264117   1.585   2.854   0.787 -0.4117 -1.1387 -1.4249
21006SOL     OW64118   0.161   4.847   8.429 -0.1031 -0.4284  0.0949
21006SOL    HW164119   0.188   4.755   8.424 -1.4889 -0.8308 -0.7156
21006SOL    HW264120   0.242   4.896   8.439  0.5919 -1.8088  1.7917
21007SOL     OW64121   1.135   6.400   4.155 -0.1406  0.6109 -0.1882
21007SOL    HW164122   1.177   6.334   4.209 -0.1405  0.8982  0.1647
21007SOL    HW264123   1.117   6.356   4.072 -2.4722 -0.6018  0.8896
21008SOL     OW64124   8.596   7.672   5.096 -0.4463 -0.0157  0.0850
21008SOL    HW164125   8.670   7.611   5.097  0.3195  0.8389 -1.6871
21008SOL    HW264126   8.635   7.759   5.087 -1.6479  0.3262 -3.0387
21009SOL     OW64127   4.787   6.448   6.678  0.0226  0.4563 -0.0737
21009SOL    HW164128   4.719   6.402   6.726  0.6095  0.0758  0.4107
21009SOL    HW264129   4.743   6.482   6.600 -0.1419 -2.2351 -1.2636
21010SOL     OW64130   8.615   8.755   0.410  0.0322  0.3640  0.3948
21010SOL    HW164131   8.660   8.800   0.481 -0.2512 -0.5957  1.2128
21010SOL    HW264132   8.634   8.808   0.333 -0.2634  1.8647  1.2911
21011SOL     OW64133   1.701   1.271   7.068  0.9307 -0.1358 -0.1674
21011SOL    HW164134   1.744   1.355   7.083  0.2657  0.5627 -1.9345
21011SOL    HW264135   1.614   1.293   7.034  0.1332 -1.5409  0.8227
21012SOL     OW64136   6.455   4.532   2.764 -0.2718  0.3455 -0.1613
21012SOL    HW164137   6.535   4.503   2.719  0.0070 -1.3577  1.3407
21012SOL    HW264138   6.468   4.626   2.778  1.0375  0.2779 -0.7863
21013SOL     OW64139   7.826   2.545   4.955 -0.3884 -0.1655  0.3045
21013SOL    HW164140   7.867   2.463   4.981  0.3676 -0.2542 -1.0937
21013SOL    HW264141   7.898   2.599   4.923 -0.7367  1.3827  1.9639
21014SOL     OW64142   5.134   2.001   0.914 -0.3225  0.1672 -0.1034
21014SOL    HW164143   5.054   2.053   0.912 -0.0501  0.5966  0.0019
21014SOL    HW264144   5.151   1.986   1.007  0.8674  1.9081  0.0316
21015SOL     OW64145   1.954   9.069   7.791  0.0834  0.3014 -0.1866
21015SOL    HW164146   2.015   9.014   7.841 -1.0980 -0.3780  0.5555
21015SOL    HW264147   1.979   9.055   7.699 -0.0234 -1.3109 -0.0029
21016SOL     OW64148   6.075   7.634   2.452 -0.7304  0.0974  0.1115
21016SOL    HW164149   6.063   7.673   2.538 -1.6996 -1.5476  0.7532
21016SOL    HW264150   6.143   7.688   2.411  0.8006  0.0644  2.4322
21017SOL     OW64151   2.196   4.247   4.073 -0.2864  0.3086 -0.4192
21017SOL    HW164152   2.259   4.185   4.037  1.8829  3.7095 -3.0740
21017SOL    HW264153   2.117   4.233   4.021 -0.3298 -1.1088 -0.0138
21018SOL     OW64154   1.358   8.064   6.285 -0.1160 -0.2339 -0.3802
21018SOL    HW164155   1.276   8.018   6.266 -1.5663  2.0192  0.0211
21018SOL    HW264156   1.355   8.081   6.379  0.5217  0.3675 -0.4560
21019SOL     OW64157   8.013   2.276   6.902 -0.6085  0.0783  0.0760
21019SOL    HW164158   7.947   2.314   6.844  0.0313  2.0817  0.5628
21019SOL    HW264159   8.092   2.327   6.885  0.0952 -0.5275  1.3640
21020SOL     OW64160   0.338   2.017   7.019  0.1830 -0.1552  0.2574
21020SOL    HW164161   0.338   2.110   6.995  1.0278 -0.2170  0.0084
21020SOL    HW264162   0.287   1.974   6.951  0.7618 -0.0290 -0.2614
21021SOL     OW64163   6.948   9.088   5.061 -0.5704 -0.0471  0.0174
21021SOL    HW164164   6.874   9.148   5.048  0.5942  0.9677 -2.4823
21021SOL    HW264165   7.018   9.143   5.096 -0.9818 -1.0590  2.6603
21022SOL     OW64166   8.354   6.094   5.204  0.3548  0.0304 -0.1122
21022SOL    HW164167   8.424   6.029   5.205  1.0229  0.7200 -0.5984
21022SOL    HW264168   8.347   6.120   5.112 -0.9225 -0.4157 -0.1635
21023SOL     OW64169   2.898   1.747   7.693 -0.1063 -0.0706  0.3133
21023SOL    HW164170   2.907   1.841   7.676 -1.3467 -0.1635 -1.1413
21023SOL    HW264171   2.935   1.705   7.615  0.2292 -0.7850  0.8495
21024SOL     OW64172   6.443   7.646   8.407  0.5961 -0.2723  0.0987
21024SOL    HW164173   6.466   7.651   8.314 -0.0614 -0.0526 -0.0580
21024SOL    HW264174   6.520   7.607   8.449  1.0871  0.0725 -0.4669
21025SOL     OW64175   6.798   0.780   8.334 -0.1174 -0.6218  0.2094
21025SOL    HW164176   6.807   0.821   8.420 -1.3174 -0.3921  0.2354
21025SOL    HW264177   6.856   0.831   8.277 -1.8624  1.4055  0.1538
21026SOL     OW64178   7.927   6.363   2.258  0.6464  0.0561 -0.5605
21026SOL    HW164179   8.017   6.357   2.228 -0.2288 -1.6777 -3.1951
21026SOL    HW264180   7.875   6.331   2.184 -2.0738 -0.0230  1.2459
21027SOL     OW64181   8.905   4.117   4.392  0.4806  0.7153  0.5394
21027SOL    HW164182   8.928   4.194   4.445  2.3573  0.5512  0.0203
21027SOL    HW264183   8.968   4.050   4.418  1.0033  0.4104 -1.3856
21028SOL     OW64184   1.436   5.729   6.015  0.0191  0.7438 -0.1150
21028SOL    HW164185   1.482   5.704   6.095 -0.5561  1.9127  0.6047
21028SOL    HW264186   1.365   5.666   6.008  2.1116 -1.6309 -1.7035
21029SOL     OW64187   8.091   3.274   4.528 -0.9940  0.5412  0.0392
21029SOL    HW164188   8.002   3.303   4.548 -0.8388  0.6836  0.5338
21029SOL    HW264189   8.118   3.225   4.606 -1.5237 -1.6107 -1.0286
21030SOL     OW64190   3.259   2.923   9.095 -0.3976 -0.0050  0.3394
21030SOL    HW164191   3.315   2.845   9.091 -0.0455  0.1477  1.6243
21030SOL    HW264192   3.294   2.980   9.027 -0.2877 -0.7315 -0.2295
21031SOL     OW64193   6.225   6.696   0.499  0.5302 -0.5101 -0.6403
21031SOL    HW164194   6.200   6.660   0.584  1.7533 -0.5688 -0.2800
21031SOL    HW264195   6.288   6.633   0.464  0.7682 -0.0019 -1.1446
21032SOL     OW64196   0.595   8.266   5.780  0.1268  0.2994 -0.1366
21032SOL    HW164197   0.591   8.271   5.876  1.3681  1.3953 -0.1104
21032SOL    HW264198   0.578   8.356   5.751  1.1503  0.2812 -0.8599
21033SOL     OW64199   1.365   0.017   8.564  0.1934 -0.6466  0.7814
21033SOL    HW164200   1.363   0.030   8.659  1.3896  3.8944  0.4033
21033SOL    HW264201   1.454   0.042   8.538 -0.3512 -0.9663 -1.6314
21034SOL     OW64202   1.732   4.412   7.894  0.1493 -0.0128  0.3106
21034SOL    HW164203   1.745   4.323   7.927  0.2228 -0.4097 -0.7268
21034SOL    HW264204   1.673   4.401   7.819  1.0439  0.6523 -0.5266
21035SOL     OW64205   6.498   6.156   0.079 -0.7320 -0.1611  0.0983
21035SOL    HW164206   6.592   6.143   0.094 -0.9772 -2.2904  0.0604
21035SOL    HW264207   6.492   6.244   0.041  1.1048  0.5191  1.2498
21036SOL     OW64208   3.212   1.092   3.850  0.6873  0.4065  0.2386
21036SOL    HW164209   3.254   1.137   3.776  0.3183 -0.1810 -0.3428
21036SOL    HW264210   3.118   1.100   3.832  0.6074 -0.1504  0.3949
21037SOL     OW64211   5.012   8.283   5.549  0.0486  0.2074  0.3490
21037SOL    HW164212   5.021   8.187   5.550 -0.7155  0.1241  0.4865
21037SOL    HW264213   5.087   8.314   5.500 -0.0482 -0.5191 -0.2789
21038SOL     OW64214   4.729   7.434   0.260 -0.1501  0.1436  0.3888
21038SOL    HW164215   4.714   7.459   0.351 -1.9868  1.3421 -0.1943
21038SOL    HW264216   4.813   7.474   0.238  0.6608 -0.7337  1.7063
21039SOL     OW64217   1.012   0.275   6.091 -0.1145 -0.2123  0.4186
21039SOL    HW164218   1.079   0.337   6.122  0.7906 -1.4706  1.0783
21039SOL    HW264219   0.972   0.241   6.172 -1.6543  0.5920  0.0353
21040SOL     OW64220   6.972   3.832   7.318  0.1941 -0.7464 -0.3332
21040SOL    HW164221   7.062   3.827   7.352  0.5401  0.8031 -0.9551
21040SOL    HW264222   6.980   3.876   7.234 -1.1303 -0.8815 -0.5524
21041SOL     OW64223   5.733   3.606   5.542 -0.1700  0.1632 -0.4509
21041SOL    HW164224   5.693   3.619   5.628  0.5640 -0.9623  0.0850
21041SOL    HW264225   5.663   3.623   5.480 -0.4928  1.8695  0.3165
21042SOL     OW64226   3.371   0.782   7.841  0.5034  0.2835 -0.3401
21042SOL    HW164227   3.374   0.686   7.838  2.5000  0.3241 -1.1553
21042SOL    HW264228   3.402   0.810   7.755 -0.0743  1.6798 -0.1236
21043SOL     OW64229   6.548   4.279   8.166  0.2374 -0.0529 -0.6607
21043SOL    HW164230   6.604   4.326   8.228  0.9853 -1.9490  0.1870
21043SOL    HW264231   6.493   4.347   8.127  0.3174  1.3304  1.4720
21044SOL     OW64232   3.641   1.988   3.664 -0.1165 -0.0451 -0.5289
21044SOL    HW164233   3.588   1.958   3.738 -1.2771 -0.4052 -1.4662
21044SOL    HW264234   3.586   1.971   3.587  0.7936  0.9121 -1.4221
21045SOL     OW64235   4.013   0.290   5.349 -0.0682 -0.2688  0.0697
21045SOL    HW164236   4.088   0.257   5.398 -0.4575  0.1451  0.9514
21045SOL    HW264237   3.978   0.361   5.403 -0.8326 -0.1698 -0.5463
21046SOL     OW64238   0.541   4.474   3.316  0.1689  0.1542 -0.0868
21046SOL    HW164239   0.505   4.536   3.253 -0.5412  0.1194  0.2699
21046SOL    HW264240   0.499   4.391   3.294  1.3004 -0.2709 -0.7207
21047SOL     OW64241   7.476   7.702   8.235  0.5345 -0.6355 -0.2755
21047SOL    HW164242   7.448   7.702   8.144  0.0520 -3.3095 -0.2199
21047SOL    HW264243   7.563   7.663   8.233  0.6978 -0.3163  0.3780
21048SOL     OW64244   6.205   1.481   6.681 -0.1105 -0.9484 -0.1920
21048SOL    HW164245   6.172   1.468   6.770 -0.5905  0.0249 -0.2155
21048SOL    HW264246   6.128   1.469   6.624 -0.5422  1.5313 -0.2305
21049SOL     OW64247   2.462   7.854   6.334  0.9198  0.1991  0.5530
21049SOL    HW164248   2.531   7.790   6.318 -0.6908 -1.5546  0.2086
21049SOL    HW264249   2.411   7.816   6.406 -0.1984  0.9918  0.2100
21050SOL     OW64250   2.821   0.567   7.235  0.1507 -0.2313  0.7321
21050SOL    HW164251   2.750   0.554   7.172 -0.2294 -0.6959  1.2529
21050SOL    HW264252   2.885   0.621   7.188  0.0376 -0.8694 -0.1765
21051SOL     OW64253   4.696   1.987   2.692  0.2110 -0.3534 -0.4904
21051SOL    HW164254   4.777   1.938   2.679 -0.2703 -1.1551 -0.5246
21051SOL    HW264255   4.684   1.988   2.787 -0.3675 -1.3184 -0.5306
21052SOL     OW64256   6.259   7.893   6.701  0.0359 -0.0525 -0.1172
21052SOL    HW164257   6.182   7.901   6.757 -0.0290  0.3756 -0.2663
21052SOL    HW264258   6.307   7.975   6.715 -0.2087  0.2571 -1.0258
21053SOL     OW64259   7.096   0.129   2.703  0.1698 -0.2043 -0.2586
21053SOL    HW164260   7.106   0.171   2.617  2.1706  0.2338  0.1240
21053SOL    HW264261   7.173   0.158   2.752 -0.3828 -1.3027  1.3290
21054SOL     OW64262   0.649   8.598   1.705 -1.1739  0.1263  0.0046
21054SOL    HW164263   0.715   8.666   1.722 -2.0317  1.2696 -1.0390
21054SOL    HW264264   0.698   8.527   1.665 -0.5763  1.0365 -0.9392
21055SOL     OW64265   2.858   5.624   2.115  0.0592 -0.3329 -0.4140
21055SOL    HW164266   2.840   5.699   2.058  1.2973  1.2044  1.1051
21055SOL    HW264267   2.934   5.582   2.077  1.0180  0.8204  0.1647
21056SOL     OW64268   1.536   4.145   3.396 -0.5183 -0.0565  0.2872
21056SOL    HW164269   1.481   4.128   3.473  0.6399 -0.4355  1.0619
21056SOL    HW264270   1.516   4.236   3.372 -0.7623  0.1324  1.1553
21057SOL     OW64271   5.539   0.765   8.359  0.0922  0.2883 -0.8403
21057SOL    HW164272   5.614   0.745   8.303  2.1594 -3.3012  2.6372
21057SOL    HW264273   5.475   0.696   8.339 -0.3021  0.6058 -0.6778
21058SOL     OW64274   4.708   8.969   1.468 -0.9055 -0.2316  0.2627
21058SOL    HW164275   4.804   8.965   1.474 -0.9719 -2.2876  0.6780
21058SOL    HW264276   4.691   9.039   1.406  0.9420 -1.1737 -1.4249
21059SOL     OW64277   5.871   4.125   1.332  0.2267  0.2936  0.0520
21059SOL    HW164278   5.838   4.173   1.408  0.3712  1.5858 -0.6821
21059SOL    HW264279   5.959   4.096   1.359  0.1082  0.3769  0.5307
21060SOL     OW64280   6.251   8.253   8.905  0.1623 -0.2833 -0.2047
21060SOL    HW164281   6.248   8.251   9.001  1.9303 -1.1707 -0.1221
21060SOL    HW264282   6.164   8.283   8.879 -0.2733  0.2324  1.6780
21061SOL     OW64283   1.600   3.235   4.997  0.1079 -0.3793 -0.0012
21061SOL    HW164284   1.583   3.183   4.919  0.2176 -0.0123 -0.2746
21061SOL    HW264285   1.597   3.172   5.069 -1.0752 -0.5609 -0.1758
21062SOL     OW64286   3.390   6.891   8.015 -0.1069  0.4791 -0.0124
21062SOL    HW164287   3.485   6.881   8.004 -0.3948 -2.6697 -0.6260
21062SOL    HW264288   3.370   6.844   8.096 -1.3624 -1.0241 -1.1201
21063SOL     OW64289   4.850   7.571   0.672  0.7737 -0.1297  0.2491
21063SOL    HW164290   4.774   7.518   0.647  1.1654 -1.7426  2.2496
21063SOL    HW264291   4.813   7.639   0.729  0.7134 -0.2568  0.3605
21064SOL     OW64292   3.016   0.358   7.255 -0.6344  0.2470  0.2857
21064SOL    HW164293   3.062   0.423   7.308  1.4230 -1.5932  0.9177
21064SOL    HW264294   2.935   0.401   7.229 -0.7542  2.0152  3.1370
21065SOL     OW64295   8.855   2.884   8.585  0.4760  0.4627 -0.5337
21065SOL    HW164296   8.935   2.839   8.611  0.2778 -0.0590 -0.8114
21065SOL    HW264297   8.851   2.872   8.490  1.8252  3.3326 -1.0725
21066SOL     OW64298   8.292   3.864   6.651  0.1507  0.3969  0.2260
21066SOL    HW164299   8.332   3.841   6.735  0.9944  0.1546 -0.2326
21066SOL    HW264300   8.276   3.958   6.657 -2.1546 -0.0137  1.6265
21067SOL     OW64301   3.157   7.784   4.155 -0.7899 -0.1153 -0.3563
21067SOL    HW164302   3.177   7.818   4.242 -0.4787 -0.1252 -0.4234
21067SOL    HW264303   3.081   7.834   4.127 -0.9219 -0.1481 -0.0566
21068SOL     OW64304   8.512   8.613   8.914 -0.1158  0.0290 -0.2211
21068SOL    HW164305   8.589   8.652   8.956 -0.8121  0.0864  1.0705
21068SOL    HW264306   8.531   8.519   8.913  0.1026  0.0708 -0.2079
21069SOL     OW64307   4.058   6.544   0.786  0.0434 -0.1258 -0.7720
21069SOL    HW164308   4.129   6.557   0.848  1.1526  0.4945 -2.1080
21069SOL    HW264309   3.998   6.483   0.829  0.2156  1.1048  1.3200
21070SOL     OW64310   0.068   6.918   4.690  0.3965 -0.2166  0.6612
21070SOL    HW164311   0.060   6.921   4.595 -0.1779  0.9302  0.7294
21070SOL    HW264312   0.152   6.874   4.706  0.6028 -0.2133 -0.3703
21071SOL     OW64313   8.534   7.217   8.823  0.0438 -0.3265  0.3944
21071SOL    HW164314   8.505   7.270   8.897 -0.8475  1.5163 -1.1841
21071SOL    HW264315   8.453   7.192   8.778  0.5132 -2.1827  0.5138
21072SOL     OW64316   6.243   0.297   0.743  0.0925 -0.1404  0.2930
21072SOL    HW164317   6.265   0.253   0.825 -2.2846 -0.9384  0.5780
21072SOL    HW264318   6.262   0.389   0.759  1.5905 -0.5326  0.9853
21073SOL     OW64319   8.635   5.629   7.935  0.3537 -0.6453 -0.0653
21073SOL    HW164320   8.614   5.602   7.846  1.3392 -4.3069  0.6617
21073SOL    HW264321   8.581   5.573   7.991  1.3657  0.0060  1.6405
21074SOL     OW64322   1.954   5.762   5.297 -0.7573 -0.0873  0.2911
21074SOL    HW164323   1.970   5.853   5.270 -0.7320  0.3544  1.6808
21074SOL    HW264324   2.009   5.751   5.375 -0.7620 -1.3075  0.1350
21075SOL     OW64325   5.112   0.436   8.333  0.5334  0.0376 -0.4743
21075SOL    HW164326   5.127   0.451   8.240  0.9525 -1.1113 -0.6050
21075SOL    HW264327   5.114   0.341   8.343 -2.0620 -0.0243  0.2746
21076SOL     OW64328   0.278   4.818   7.667 -0.5091  0.1555  0.3219
21076SOL    HW164329   0.333   4.741   7.684 -1.3962 -0.9895 -1.5613
21076SOL    HW264330   0.279   4.868   7.748  0.7562 -1.4440  1.3437
21077SOL     OW64331   5.386   4.844   3.601 -0.3759  0.1712 -0.3926
21077SOL    HW164332   5.360   4.769   3.547  0.6584 -0.6294  0.1953
21077SOL    HW264333   5.473   4.867   3.568  0.0614 -0.0241  0.6010
21078SOL     OW64334   6.367   0.664   2.559  0.0492 -0.2579  0.0288
21078SOL    HW164335   6.309   0.627   2.625 -0.9085 -0.2311 -0.7792
21078SOL    HW264336   6.404   0.588   2.514 -1.9717 -0.3112 -1.6771
21079SOL     OW64337   7.401   6.808   1.793 -0.2301 -0.5965 -0.0853
21079SOL    HW164338   7.482   6.783   1.748  0.0471  1.6331 -0.9374
21079SOL    HW264339   7.358   6.868   1.732 -1.1876  0.3697  1.4819
21080SOL     OW64340   7.582   4.050   7.211 -0.4274  0.0737 -0.0710
21080SOL    HW164341   7.530   4.092   7.143  0.2561 -0.6131 -1.0411
21080SOL    HW264342   7.532   4.064   7.291 -1.2683  0.8589 -0.7114
21081SOL     OW64343   7.590   0.243   0.744 -0.0111 -0.6193 -0.1664
21081SOL    HW164344   7.527   0.203   0.804 -1.0420  0.7029 -0.3187
21081SOL    HW264345   7.543   0.252   0.661  1.0501 -1.4448 -0.8859
21082SOL     OW64346   4.495   6.339   3.238  0.2598  0.5225 -0.3914
21082SOL    HW164347   4.486   6.328   3.143 -0.7168  0.1842 -0.2678
21082SOL    HW264348   4.416   6.300   3.274 -0.2445  2.2521  0.4548
21083SOL     OW64349   5.801   0.093   8.111  0.0704  0.2889 -0.0382
21083SOL    HW164350   5.826   0.049   8.192 -2.4743 -3.0242 -0.8282
21083SOL    HW264351   5.716   0.132   8.130 -0.2822 -0.0184 -0.9369
21084SOL     OW64352   2.898   4.707   7.395  0.1995  0.4558 -0.1676
21084SOL    HW164353   2.813   4.667   7.413 -0.8947  2.4136 -0.6286
21084SOL    HW264354   2.961   4.654   7.443 -1.3161 -0.8780  0.4181
21085SOL     OW64355   8.160   2.508   4.478 -0.4529  0.6568 -0.2002
21085SOL    HW164356   8.139   2.540   4.565 -0.1476 -0.0313  0.1322
21085SOL    HW264357   8.101   2.434   4.464 -0.3598  0.6351 -0.4911
21086SOL     OW64358   4.235   8.727   4.871 -0.3746  0.0249  0.3276
21086SOL    HW164359   4.252   8.777   4.951  0.2506 -1.5338  1.2167
21086SOL    HW264360   4.254   8.636   4.895  1.9876 -0.2864 -2.1810
21087SOL     OW64361   2.972   2.872   2.344  0.0941  0.1603  0.0134
21087SOL    HW164362   3.042   2.931   2.373 -1.2277  1.6511  0.2946
21087SOL    HW264363   2.927   2.920   2.275 -0.8888 -0.6162  0.0938
21088SOL     OW64364   1.949   1.393   8.523 -0.4318 -0.3255 -0.3315
21088SOL    HW164365   1.997   1.475   8.536 -0.9433 -0.1930  0.7884
21088SOL    HW264366   1.889   1.388   8.597 -2.3071 -0.4061 -1.7980
21089SOL     OW64367   2.444   8.099   6.798 -0.1333 -0.1509 -0.2886
21089SOL    HW164368   2.363   8.047   6.797  0.3194 -0.8489 -0.8369
21089SOL    HW264369   2.491   8.074   6.719  0.6918  0.1547  0.0926
21090SOL     OW64370   8.191   5.935   8.294  0.5697 -0.2848 -0.4030
21090SOL    HW164371   8.160   5.960   8.380  2.7076  0.3142  0.2660
21090SOL    HW264372   8.218   6.018   8.253 -0.0482 -0.6035 -1.5043
21091SOL     OW64373   0.756   5.950   3.343 -0.6129 -0.6596  0.1525
21091SOL    HW164374   0.796   5.869   3.312 -0.2018 -0.6853  0.7386
21091SOL    HW264375   0.670   5.951   3.301 -1.4572 -2.4222  1.6831
21092SOL     OW64376   2.950   3.233   8.274  0.5075  0.5214  0.5513
21092SOL    HW164377   3.034   3.195   8.247 -1.0935 -1.7220 -1.7317
21092SOL    HW264378   2.919   3.280   8.197 -2.6781 -3.2563 -0.7928
21093SOL     OW64379   1.640   7.410   4.454 -0.6830  0.1049  0.1643
21093SOL    HW164380   1.728   7.374   4.446 -1.1781 -1.6924  2.0240
21093SOL    HW264381   1.646   7.496   4.412  1.6496 -0.4070 -0.7219
21094SOL     OW64382   5.496   2.685   6.307 -0.1898  0.3376  0.0963
21094SOL    HW164383   5.548   2.611   6.277 -0.9213  0.0186 -0.4230
21094SOL    HW264384   5.493   2.744   6.232 -0.5624  0.3487  0.1171
21095SOL     OW64385   8.782   6.297   7.126 -0.7766  0.1535 -0.0678
21095SOL    HW164386   8.837   6.224   7.156  0.6479  1.1691 -0.0887
21095SOL    HW264387   8.844   6.361   7.093 -2.0135  1.2818 -0.2746
21096SOL     OW64388   4.932   6.890   6.277 -0.1390  0.4009  0.3827
21096SOL    HW164389   4.866   6.882   6.209 -0.8936  2.4662  0.8139
21096SOL    HW264390   4.885   6.873   6.359  0.0886  0.8456  0.6108
21097SOL     OW64391   4.892   7.607   1.944  0.4763 -0.2604 -0.3432
21097SOL    HW164392   4.816   7.623   2.000  2.1420 -1.1784  2.3521
21097SOL    HW264393   4.890   7.513   1.926  1.6411 -0.5556  0.8936
21098SOL     OW64394   0.103   3.269   2.577  0.5687 -0.0995  0.3708
21098SOL    HW164395   0.103   3.179   2.608  1.1722 -0.4512 -0.6128
21098SOL    HW264396   0.178   3.275   2.518 -0.3223  0.6322 -0.7447
21099SOL     OW64397   6.358   3.110   2.917 -0.9512 -0.5371 -0.4483
21099SOL    HW164398   6.386   3.103   2.826 -3.0278 -1.8375 -1.0765
21099SOL    HW264399   6.350   3.019   2.947 -0.1801 -0.1334  1.1023
21100SOL     OW64400   8.765   3.546   5.223  0.4957 -0.1471 -0.5686
21100SOL    HW164401   8.677   3.586   5.224 -0.0784 -1.1795  2.7878
21100SOL    HW264402   8.825   3.620   5.214 -0.6788  0.8563 -0.4113
21101SOL     OW64403   1.264   2.722   1.197  0.2487  0.0048  0.2535
21101SOL    HW164404   1.235   2.712   1.288 -1.8853  1.7174 -0.1495
21101SOL    HW264405   1.183   2.728   1.147  1.3735 -1.0750 -1.8428
21102SOL     OW64406   0.643   5.703   0.237 -0.7945  0.2550  0.1078
21102SOL    HW164407   0.668   5.756   0.162  0.8310  0.1019  0.4971
21102SOL    HW264408   0.566   5.655   0.208 -0.5578  0.6567 -1.2569
21103SOL     OW64409   8.264   0.754   3.055 -0.4051  0.0062 -0.1021
21103SOL    HW164410   8.338   0.752   2.994 -0.7377  1.4251 -0.5799
21103SOL    HW264411   8.201   0.814   3.015 -2.8300 -2.7641 -0.8234
21104SOL     OW64412   8.939   1.667   6.774  0.1832  0.2409  0.2902
21104SOL    HW164413   8.870   1.611   6.809  0.0980  0.6333  0.7575
21104SOL    HW264414   8.904   1.701   6.692  0.0883 -0.0895  0.1910
21105SOL     OW64415   0.718   6.898   8.293  0.8455  0.2507 -0.0462
21105SOL    HW164416   0.684   6.912   8.381  2.2574  3.2867  0.1351
21105SOL    HW264417   0.799   6.949   8.290  1.9164 -1.3815 -2.5021
21106SOL     OW64418   4.247   4.466   5.173 -0.0151 -0.4009  0.3568
21106SOL    HW164419   4.210   4.476   5.261  0.2463 -1.4849  0.5924
21106SOL    HW264420   4.270   4.556   5.147 -0.5104 -0.0167  1.2030
21107SOL     OW64421   0.614   0.795   3.683  0.0324  0.4968  0.3800
21107SOL    HW164422   0.672   0.853   3.635 -1.7485  0.4473 -1.9918
21107SOL    HW264423   0.533   0.793   3.632 -0.6041 -2.7080  1.2676
21108SOL     OW64424   3.829   3.456   1.090  0.2323  0.0569 -0.1032
21108SOL    HW164425   3.796   3.473   1.001  2.0163 -0.6935 -0.9446
21108SOL    HW264426   3.877   3.374   1.083 -1.8757 -1.5485  2.2200
21109SOL     OW64427   6.411   3.771   6.127  0.4185 -0.1625 -0.1377
21109SOL    HW164428   6.476   3.788   6.195 -0.6135  0.7535  0.6734
21109SOL    HW264429   6.423   3.842   6.064  2.1890 -1.6765 -1.6386
21110SOL     OW64430   7.779   3.484   1.765  0.0722  0.1060 -0.0009
21110SOL    HW164431   7.821   3.538   1.832 -2.3875  1.3442  0.6593
21110SOL    HW264432   7.732   3.546   1.709  0.2068 -1.0870 -1.5292
21111SOL     OW64433   0.552   1.565   3.307  0.9272  0.4398  0.8321
21111SOL    HW164434   0.543   1.474   3.278 -0.2974  1.4547 -2.3116
21111SOL    HW264435   0.546   1.560   3.403  1.0381 -2.7594  0.7746
21112SOL     OW64436   0.978   5.867   4.644 -0.1034 -0.9106  0.2826
21112SOL    HW164437   1.006   5.782   4.678 -0.0480 -0.8975  0.2696
21112SOL    HW264438   0.999   5.863   4.551  0.1867 -0.7660  0.3397
21113SOL     OW64439   4.439   5.570   0.719  0.1438 -0.4427 -0.0125
21113SOL    HW164440   4.436   5.602   0.629  1.8236  0.7976  0.3190
21113SOL    HW264441   4.481   5.485   0.713 -1.4337 -1.2237 -0.5617
21114SOL     OW64442   0.700   3.944   4.887  0.1824 -0.1381  0.3539
21114SOL    HW164443   0.788   3.961   4.853  0.1276  1.8350  1.0530
21114SOL    HW264444   0.686   4.012   4.953 -1.6031 -0.8414  0.7632
21115SOL     OW64445   7.098   8.115   8.609  0.6379  0.1907  0.0525
21115SOL    HW164446   7.146   8.092   8.530 -0.3922  2.0393 -1.1887
21115SOL    HW264447   7.012   8.144   8.578 -0.3821 -0.5113  1.9922
21116SOL     OW64448   0.801   6.996   3.881  0.1207  0.0121 -0.4137
21116SOL    HW164449   0.784   7.057   3.809  2.2208  1.8053  0.4974
21116SOL    HW264450   0.714   6.977   3.917 -0.6639  2.3018 -0.8927
21117SOL     OW64451   6.062   4.728   8.771  0.0619  0.2930 -0.2338
21117SOL    HW164452   6.135   4.681   8.809  0.1159 -0.1498 -0.8826
21117SOL    HW264453   6.089   4.820   8.774  0.3745  0.1931  0.1068
21118SOL     OW64454   5.966   0.104   2.496 -0.1671 -0.1487 -0.7074
21118SOL    HW164455   5.976   0.175   2.560  0.6552 -0.7197 -0.1784
21118SOL    HW264456   5.927   0.147   2.419 -4.2063 -0.0148  1.1719
21119SOL     OW64457   2.551   0.705   6.422  0.5593  0.2132 -0.5418
21119SOL    HW164458   2.503   0.624   6.403  1.9725 -0.7862 -0.0572
21119SOL    HW264459   2.628   0.676   6.470  1.0082  1.8921 -0.1848
21120SOL     OW64460   4.644   8.070   6.381  0.0494 -0.0194 -0.1297
21120SOL    HW164461   4.584   8.145   6.382  1.4403  1.1483  0.7459
21120SOL    HW264462   4.659   8.052   6.289  1.1787  2.0748 -0.4194
21121SOL     OW64463   1.808   6.018   2.605  0.0416  0.1252 -0.5940
21121SOL    HW164464   1.743   5.951   2.625 -0.3468  0.2139 -1.5162
21121SOL    HW264465   1.786   6.048   2.517  0.9083  0.6551 -0.6470
21122SOL     OW64466   4.841   8.066   2.220 -0.2824 -0.0395  0.3399
21122SOL    HW164467   4.891   8.040   2.142 -1.5335 -1.1674 -0.1131
21122SOL    HW264468   4.858   7.997   2.284  0.0317  0.4241  0.7628
21123SOL     OW64469   7.444   6.595   6.358 -0.1056 -0.3910  0.1468
21123SOL    HW164470   7.419   6.533   6.427  2.3960 -1.1065  0.4803
21123SOL    HW264471   7.532   6.623   6.381  0.2371  0.4840 -2.0098
21124SOL     OW64472   1.117   6.041   5.334 -0.3457 -0.5888 -0.5835
21124SOL    HW164473   1.121   6.105   5.406  0.9499 -0.7635 -0.4922
21124SOL    HW264474   1.162   6.084   5.261 -0.2835 -1.0373 -0.8100
21125SOL     OW64475   1.217   1.798   4.329 -0.1039 -0.7608 -0.9975
21125SOL    HW164476   1.229   1.877   4.382  4.5296  0.6298 -3.6106
21125SOL    HW264477   1.197   1.729   4.393  1.0682  1.5219  2.0661
21126SOL     OW64478   0.073   7.921   4.822 -0.0771 -0.1611  0.5693
21126SOL    HW164479   0.136   7.984   4.857 -0.5988  1.2607 -0.9181
21126SOL    HW264480   0.067   7.941   4.729 -1.0103 -1.7921  0.2338
21127SOL     OW64481   3.291   4.877   1.205  0.6338  0.3648 -0.1104
21127SOL    HW164482   3.215   4.905   1.255  1.2302  0.5392  0.7206
21127SOL    HW264483   3.274   4.909   1.116 -0.2367  0.4324  0.0704
21128SOL     OW64484   0.057   8.563   7.533 -0.1401  0.1152 -0.2769
21128SOL    HW164485   0.098   8.648   7.545 -1.0071  0.4196  0.7806
21128SOL    HW264486   0.011   8.569   7.450  0.4230  0.4073 -0.5705
21129SOL     OW64487   1.469   6.754   0.357  0.2495 -0.4109 -0.2241
21129SOL    HW164488   1.489   6.748   0.451  1.2971 -0.5526 -0.4417
21129SOL    HW264489   1.425   6.839   0.348  1.0543  0.0770  0.2530
21130SOL     OW64490   4.171   7.777   5.709 -0.4191  0.7006  0.3373
21130SOL    HW164491   4.090   7.791   5.661  1.1940  2.6100 -2.0398
21130SOL    HW264492   4.144   7.727   5.786 -3.3993 -1.1311 -1.6792
21131SOL     OW64493   5.213   4.476   1.121  0.0033 -0.1951 -0.1198
21131SOL    HW164494   5.193   4.382   1.112  1.8419 -0.6830  0.4798
21131SOL    HW264495   5.258   4.483   1.204 -3.0101  1.8191  1.5171
21132SOL     OW64496   0.113   3.497   0.353  0.5974 -0.2481 -0.0755
21132SOL    HW164497   0.072   3.415   0.380 -1.0984  0.7810  0.6379
21132SOL    HW264498   0.168   3.522   0.428 -0.2167  0.0946  0.4239
21133SOL     OW64499   2.210   7.265   3.402 -0.7803 -0.1674  0.8593
21133SOL    HW164500   2.248   7.235   3.319 -1.6567  0.1335  0.3334
21133SOL    HW264501   2.282   7.258   3.465 -0.7313 -2.6650  0.6129
21134SOL     OW64502   1.692   5.202   2.411  0.2971 -0.0998  0.0890
21134SOL    HW164503   1.607   5.242   2.428 -1.2634 -1.5459 -3.3787
21134SOL    HW264504   1.701   5.135   2.478 -1.4838 -0.1482  0.3349
21135SOL     OW64505   8.367   4.127   6.975 -0.0045  0.0615  0.1868
21135SOL    HW164506   8.413   4.092   7.051  2.3427  3.7123  0.6923
21135SOL    HW264507   8.436   4.157   6.915 -1.5806  3.4219 -0.2259
21136SOL     OW64508   2.815   8.863   7.416 -0.5572  0.7246  0.0802
21136SOL    HW164509   2.903   8.850   7.382 -0.6498 -0.4877  0.2787
21136SOL    HW264510   2.795   8.954   7.394  0.7021  0.9951 -0.0380
21137SOL     OW64511   8.516   4.229   2.101  0.0781  0.4195 -0.0487
21137SOL    HW164512   8.533   4.225   2.007 -1.3385 -0.4550 -0.2962
21137SOL    HW264513   8.524   4.322   2.123 -3.9818  1.4668 -1.9816
21138SOL     OW64514   6.740   2.354   6.393  0.3116  0.5170  0.5817
21138SOL    HW164515   6.709   2.269   6.363 -0.1527  0.7931  0.2478
21138SOL    HW264516   6.834   2.353   6.376 -0.0032  0.8693 -1.4812
21139SOL     OW64517   3.682   2.921   7.034 -0.2807  0.2469 -0.0194
21139SOL    HW164518   3.680   2.836   7.077 -0.0550  0.6125  0.7404
21139SOL    HW264519   3.761   2.964   7.068  0.5310  0.1383 -1.6386
21140SOL     OW64520   8.553   3.811   4.377  0.0086 -0.0025 -0.1070
21140SOL    HW164521   8.513   3.783   4.459  0.8353  0.0030  0.3149
21140SOL    HW264522   8.595   3.895   4.398  0.0845  0.0776 -0.5718
21141SOL     OW64523   0.389   6.338   6.386  0.2291 -0.8498 -0.1073
21141SOL    HW164524   0.333   6.262   6.370  1.0287 -2.0041  2.0697
21141SOL    HW264525   0.466   6.301   6.430  1.4987  1.0129 -0.6657
21142SOL     OW64526   1.049   0.476   0.399  0.0227  0.2971 -0.3779
21142SOL    HW164527   1.118   0.415   0.423  0.5946  0.8767 -0.5403
21142SOL    HW264528   1.078   0.561   0.431 -1.0969  0.3894  0.4775
21143SOL     OW64529   0.526   5.605   7.467  0.6475  0.3737  0.0349
21143SOL    HW164530   0.505   5.688   7.508  0.9880  0.2894  0.3866
21143SOL    HW264531   0.622   5.601   7.467  0.6407  0.0887 -0.1947
21144SOL     OW64532   1.647   3.883   1.533 -0.4397  0.0093  0.1703
21144SOL    HW164533   1.645   3.868   1.439  1.7193 -2.3151  0.4122
21144SOL    HW264534   1.564   3.847   1.565 -0.5745 -0.4600 -0.6879
21145SOL     OW64535   2.945   6.674   1.436 -0.9085 -0.1823  1.0339
21145SOL    HW164536   2.995   6.611   1.383 -2.4713 -0.1186 -0.5998
21145SOL    HW264537   2.855   6.667   1.403 -1.4193  1.8139  1.8816
21146SOL     OW64538   1.516   6.933   7.724  0.6564 -0.3753  0.3699
21146SOL    HW164539   1.604   6.895   7.720  0.2328 -1.6553  2.1220
21146SOL    HW264540   1.502   6.950   7.817 -2.0528 -3.0065  0.5806
21147SOL     OW64541   0.425   0.347   1.132  0.0130 -0.1006  0.2046
21147SOL    HW164542   0.443   0.295   1.053 -1.0896 -0.1824 -0.0089
21147SOL    HW264543   0.474   0.303   1.201  0.7248 -0.2251 -0.3694
21148SOL     OW64544   2.332   1.986   5.994 -0.2489 -0.0274  0.0002
21148SOL    HW164545   2.375   2.072   5.999 -1.9226  0.8022  1.5567
21148SOL    HW264546   2.368   1.938   6.069  0.2548 -0.4886 -0.5309
21149SOL     OW64547   7.103   8.838   3.418  0.0586  0.1761  0.3082
21149SOL    HW164548   7.143   8.884   3.492  0.7505  0.1335 -0.0255
21149SOL    HW264549   7.169   8.774   3.392 -1.2710 -1.7309  1.3971
21150SOL     OW64550   2.624   4.818   8.475 -0.4744 -0.0297  0.2165
21150SOL    HW164551   2.577   4.901   8.483 -1.3543 -0.4377 -0.4239
21150SOL    HW264552   2.672   4.809   8.557 -0.3244  1.1326  0.2682
21151SOL     OW64553   0.035   5.144   7.822  0.6807 -0.4099  0.9579
21151SOL    HW164554   0.012   5.082   7.753  1.6781  3.6828 -3.5209
21151SOL    HW264555  -0.048   5.169   7.861 -0.4593  0.1016 -1.6421
21152SOL     OW64556   5.546   6.425   7.267  0.2165  0.7905 -0.0948
21152SOL    HW164557   5.557   6.485   7.194  0.2904  1.3172  0.3428
21152SOL    HW264558   5.455   6.393   7.258 -0.0142  1.4157  0.0049
21153SOL     OW64559   3.185   2.124   7.603  0.1223 -0.0634 -0.6582
21153SOL    HW164560   3.192   2.031   7.623  1.0764  0.0386 -0.4365
21153SOL    HW264561   3.266   2.144   7.555  0.5622  0.9280  0.4483
21154SOL     OW64562   3.853   8.493   7.580  0.1845 -0.1353 -0.3727
21154SOL    HW164563   3.895   8.579   7.572  0.1247  0.0029  0.7283
21154SOL    HW264564   3.879   8.461   7.666  1.2033 -1.7681 -1.2184
21155SOL     OW64565   5.282   7.780   9.022 -0.0549 -0.0209  0.1354
21155SOL    HW164566   5.298   7.754   8.931  0.5205  1.7236 -0.2902
21155SOL    HW264567   5.363   7.822   9.050 -0.5823  0.3787  1.1221
21156SOL     OW64568   7.190   4.338   8.821 -0.6058 -0.4097 -0.3604
21156SOL    HW164569   7.282   4.318   8.837  0.1276  1.1871 -2.1509
21156SOL    HW264570   7.172   4.415   8.876 -0.5891 -0.1878 -0.6575
21157SOL     OW64571   4.170   4.521   4.686 -0.1133 -0.4804 -0.1471
21157SOL    HW164572   4.207   4.446   4.733 -2.2159 -1.3080  0.3133
21157SOL    HW264573   4.163   4.491   4.595  1.3290  0.0876 -0.4634
21158SOL     OW64574   3.431   3.321   9.104 -0.1461  0.4029  0.4795
21158SOL    HW164575   3.345   3.288   9.128 -1.0877  0.1114 -2.8014
21158SOL    HW264576   3.414   3.403   9.058  1.5362  1.3367  1.3956
21159SOL     OW64577   5.187   2.152   1.638 -0.5218  0.1627 -0.1648
21159SOL    HW164578   5.265   2.125   1.686 -0.8296 -1.2750 -0.4161
21159SOL    HW264579   5.114   2.118   1.690 -0.9106  0.0067 -0.8053
21160SOL     OW64580   4.833   3.880   2.935  0.7229  0.1591  0.3298
21160SOL    HW164581   4.881   3.950   2.980  0.6391  0.6660 -0.3348
21160SOL    HW264582   4.822   3.812   3.000  0.6949  0.8255  1.0372
21161SOL     OW64583   6.539   2.808   1.127 -0.0859  0.2142  0.0628
21161SOL    HW164584   6.609   2.818   1.191 -0.7940  2.4014  0.6137
21161SOL    HW264585   6.531   2.714   1.113  3.1916 -0.1188 -0.3415
21162SOL     OW64586   6.990   0.335   7.530  0.2669  0.1681 -0.1119
21162SOL    HW164587   6.986   0.297   7.442 -2.0341  0.3250 -0.1361
21162SOL    HW264588   7.022   0.424   7.516  0.6067 -0.0434 -0.7091
21163SOL     OW64589   3.261   5.605   7.642 -0.0555 -0.3644 -0.5092
21163SOL    HW164590   3.332   5.622   7.580 -0.4731 -1.1343 -1.2179
21163SOL    HW264591   3.205   5.542   7.597 -0.5824 -0.6293  0.4984
21164SOL     OW64592   7.627   4.545   4.797  0.6104  0.5713 -0.1504
21164SOL    HW164593   7.696   4.609   4.779  1.8171 -0.4527  0.6295
21164SOL    HW264594   7.599   4.515   4.711  1.4778  0.6766 -0.4800
21165SOL     OW64595   7.618   8.256   7.160 -0.1612 -0.0457  0.9765
21165SOL    HW164596   7.701   8.236   7.202  1.1600  0.5602 -1.2194
21165SOL    HW264597   7.583   8.330   7.210  1.6382  1.0301  0.7271
21166SOL     OW64598   1.568   7.624   0.081 -0.1763 -0.5730  0.4299
21166SOL    HW164599   1.503   7.693   0.097 -3.2529 -3.4055  1.3816
21166SOL    HW264600   1.562   7.606  -0.013  1.7404  1.3016 -0.1297
21167SOL     OW64601   5.963   0.886   5.355 -0.9037  0.5524  0.1798
21167SOL    HW164602   5.975   0.809   5.299 -0.6266  1.4227 -0.9793
21167SOL    HW264603   5.889   0.932   5.317 -1.3580  0.6437  1.1407
21168SOL     OW64604   5.815   1.945   1.952  0.9331 -0.4645  0.0647
21168SOL    HW164605   5.829   1.925   1.859  0.0877 -3.8573  0.5332
21168SOL    HW264606   5.898   1.924   1.994  0.7068 -0.8484  0.3200
21169SOL     OW64607   8.328   7.454   5.937 -0.1812 -0.0466  0.1184
21169SOL    HW164608   8.325   7.380   5.877  0.9767  0.2871 -0.3846
21169SOL    HW264609   8.416   7.489   5.926 -0.8240  1.6182  0.0957
21170SOL     OW64610   7.146   7.909   1.296 -0.2536 -0.4193  0.4104
21170SOL    HW164611   7.067   7.964   1.298  0.6149  0.9560 -0.7673
21170SOL    HW264612   7.128   7.839   1.358 -1.4919  1.1308  1.9003
21171SOL     OW64613   0.207   3.134   4.234 -0.2097  0.2739 -0.2883
21171SOL    HW164614   0.143   3.157   4.300 -1.6939 -0.2940 -1.4807
21171SOL    HW264615   0.281   3.099   4.283 -1.3516 -0.3374  1.0545
21172SOL     OW64616   3.376   6.148   4.437  0.1250 -0.2222 -0.1980
21172SOL    HW164617   3.359   6.128   4.345 -0.8982 -0.8558  0.1225
21172SOL    HW264618   3.451   6.093   4.460  0.9382  0.5588 -0.8595
21173SOL     OW64619   1.012   4.003   6.361  0.0381  0.1046  0.8668
21173SOL    HW164620   0.935   4.056   6.384  0.8216  1.5632  0.2481
21173SOL    HW264621   0.979   3.939   6.298 -1.1833 -0.9990  2.5303
21174SOL     OW64622   4.023   4.245   4.473 -0.3369 -0.5956  0.0027
21174SOL    HW164623   4.114   4.260   4.445 -0.0557 -0.3809  0.9992
21174SOL    HW264624   3.979   4.328   4.456 -0.0527 -0.3124  0.6166
21175SOL     OW64625   7.175   7.341   2.314  0.0343  0.9975  0.5317
21175SOL    HW164626   7.241   7.301   2.372  0.0581 -0.4135 -0.4214
21175SOL    HW264627   7.132   7.267   2.272 -0.1751  1.9695 -1.0519
21176SOL     OW64628   3.075   5.089   1.948  0.2418 -0.6054  0.5314
21176SOL    HW164629   2.995   5.114   1.903 -0.7511  0.3517  2.6859
21176SOL    HW264630   3.047   5.028   2.017  1.3061 -0.1139  1.4479
21177SOL     OW64631   7.275   0.925   1.914 -0.5429 -0.0188  0.3691
21177SOL    HW164632   7.249   0.873   1.838 -0.3781 -1.7227  1.4467
21177SOL    HW264633   7.299   0.861   1.981 -0.6837  1.4398  1.8794
21178SOL     OW64634   5.366   4.519   8.380  0.0479 -0.6306 -0.4492
21178SOL    HW164635   5.440   4.470   8.416 -0.9130 -1.7234  0.0564
21178SOL    HW264636   5.348   4.478   8.296 -0.6297 -1.0352 -0.1150
21179SOL     OW64637   8.769   2.812   4.339 -0.9119  0.6695  0.0742
21179SOL    HW164638   8.799   2.763   4.262  0.0688 -0.5090  1.1638
21179SOL    HW264639   8.727   2.889   4.302  1.5704  1.3386 -1.6413
21180SOL     OW64640   7.242   5.316   8.109 -0.6365 -0.5728  0.2411
21180SOL    HW164641   7.227   5.225   8.083 -0.0986 -0.6895  0.3208
21180SOL    HW264642   7.337   5.321   8.124 -0.7173 -0.1002  0.6143
21181SOL     OW64643   3.486   0.119   7.743 -0.4618  0.6889  0.3632
21181SOL    HW164644   3.492   0.031   7.704 -0.9366  1.4129 -1.4214
21181SOL    HW264645   3.492   0.103   7.837  1.6989 -1.0568  0.0130
21182SOL     OW64646   8.593   1.323   4.574  0.2011 -0.4359 -0.2132
21182SOL    HW164647   8.508   1.302   4.613  0.3810  3.0299  2.5883
21182SOL    HW264648   8.656   1.270   4.623 -0.0622 -0.5057  0.0513
21183SOL     OW64649   3.352   2.717   2.651 -0.5911  0.0203 -0.3358
21183SOL    HW164650   3.271   2.768   2.645 -0.0706  1.2085  1.9388
21183SOL    HW264651   3.351   2.679   2.739  1.0492 -0.4316 -0.4743
21184SOL     OW64652   1.731   1.687   4.735  0.0890 -0.3374  0.3730
21184SOL    HW164653   1.651   1.732   4.708  1.4396  1.9151 -0.1510
21184SOL    HW264654   1.774   1.665   4.653  1.5280  1.4567  0.5893
21185SOL     OW64655   2.974   7.904   8.724  0.0530 -0.6096 -0.1030
21185SOL    HW164656   2.880   7.891   8.732 -0.2274  0.8631 -0.7541
21185SOL    HW264657   3.004   7.831   8.668 -0.3803 -2.0900  1.5131
21186SOL     OW64658   1.180   5.194   3.153  0.1563  0.3407 -0.7066
21186SOL    HW164659   1.151   5.123   3.210  0.9570  0.4390 -0.1655
21186SOL    HW264660   1.183   5.271   3.210  1.6874  0.2870 -0.6733
21187SOL     OW64661   5.202   8.904   6.219  0.2632  0.1843 -0.1783
21187SOL    HW164662   5.125   8.883   6.271  1.4623 -0.3299  1.4661
21187SOL    HW264663   5.261   8.829   6.232  1.1594  0.6882 -1.1568
21188SOL     OW64664   4.928   1.551   0.786 -0.3940  0.3369  0.0315
21188SOL    HW164665   4.996   1.611   0.753 -0.2884  0.6209  0.7603
21188SOL    HW264666   4.960   1.464   0.760  0.8562  0.3586  1.3762
21189SOL     OW64667   9.096   1.481   1.515 -0.1625  0.1218 -0.3275
21189SOL    HW164668   9.127   1.560   1.558 -0.5856 -0.3979  0.9608
21189SOL    HW264669   9.000   1.486   1.521 -0.1777 -0.7309  0.2141
21190SOL     OW64670   0.933   2.027   6.274  0.4093 -0.1735  0.0573
21190SOL    HW164671   1.013   2.030   6.327  0.6059 -0.1232 -0.2402
21190SOL    HW264672   0.963   2.041   6.185  0.1932 -1.2319 -0.1899
21191SOL     OW64673   6.566   1.579   8.034  0.2877 -0.6070 -0.1143
21191SOL    HW164674   6.503   1.546   8.097 -0.5667  2.7477  1.0012
21191SOL    HW264675   6.513   1.605   7.958  0.8344 -1.1444 -0.6973
21192SOL     OW64676   6.511   3.430   7.449  0.0212  0.4256 -0.3772
21192SOL    HW164677   6.466   3.493   7.393 -0.9323 -1.2317 -1.5812
21192SOL    HW264678   6.450   3.415   7.522  0.5399  1.3396  0.2717
21193SOL     OW64679   2.546   6.535   4.909  0.1164 -0.0525 -0.5426
21193SOL    HW164680   2.624   6.499   4.866  0.2586  0.2451 -0.5395
21193SOL    HW264681   2.561   6.521   5.002  1.3662  2.2620 -0.3187
21194SOL     OW64682   3.789   8.381   0.664  0.2274  0.1107  0.1405
21194SOL    HW164683   3.815   8.380   0.756  2.4878 -1.8181 -0.4225
21194SOL    HW264684   3.742   8.299   0.651  0.4056  0.1101 -0.5354
21195SOL     OW64685   6.177   1.004   4.968  0.2806  0.3220  0.4944
21195SOL    HW164686   6.173   1.019   5.062  0.0921  0.4368  0.4694
21195SOL    HW264687   6.258   1.047   4.940 -1.0115  2.7445  0.1774
21196SOL     OW64688   2.925   2.035   7.653  0.0693 -0.0691  0.8498
21196SOL    HW164689   2.872   2.064   7.579  1.6121 -1.5639 -0.9579
21196SOL    HW264690   3.016   2.041   7.622  0.7034 -2.0783  2.0604
21197SOL     OW64691   0.986   1.629   7.823  0.1609  0.3718  0.0585
21197SOL    HW164692   1.016   1.539   7.833  0.6795  0.5364  0.0494
21197SOL    HW264693   0.943   1.650   7.906 -1.1398 -0.3058 -0.4230
21198SOL     OW64694   5.062   1.617   4.168 -0.1613 -0.4047  0.0973
21198SOL    HW164695   4.988   1.667   4.202  1.4590  4.1920 -2.2560
21198SOL    HW264696   5.040   1.601   4.077  1.5136  0.7362 -0.5437
21199SOL     OW64697   5.623   3.253   3.440  0.2187  0.6985  0.3239
21199SOL    HW164698   5.638   3.346   3.420 -0.1414  0.8959  0.9595
21199SOL    HW264699   5.552   3.253   3.504  0.0437 -0.0338  0.1386
21200SOL     OW64700   5.494   8.619   2.911 -0.3408  0.2535  0.2269
21200SOL    HW164701   5.442   8.541   2.934 -1.0657 -0.1478 -2.4149
21200SOL    HW264702   5.433   8.675   2.863  0.9363  1.0543 -0.5168
21201SOL     OW64703   8.356   7.154   9.059  0.0511  0.3649 -0.0619
21201SOL    HW164704   8.349   7.080   8.999 -0.0601  0.3722 -0.0589
21201SOL    HW264705   8.415   7.123   9.128 -1.2757 -0.3341  0.8168
21202SOL     OW64706   5.627   2.804   6.550  0.5224 -0.0752  0.1328
21202SOL    HW164707   5.606   2.769   6.463  0.3397 -0.2900  0.2620
21202SOL    HW264708   5.713   2.769   6.571 -0.0189 -1.1675  0.6305
21203SOL     OW64709   7.668   1.896   0.293 -0.8323 -0.1054  0.8218
21203SOL    HW164710   7.705   1.906   0.381 -0.3156  1.0216  0.4953
21203SOL    HW264711   7.745   1.886   0.237 -1.1115  0.2385  0.3773
21204SOL     OW64712   3.345   1.638   3.581  0.2620  0.0473  0.0072
21204SOL    HW164713   3.327   1.732   3.579 -0.7200  0.0015  2.7666
21204SOL    HW264714   3.277   1.600   3.526 -1.0534  0.7910  1.0517
21205SOL     OW64715   1.609   6.322   1.629 -0.1575  0.2546 -0.3934
21205SOL    HW164716   1.523   6.350   1.661  0.5316  2.5216 -0.3142
21205SOL    HW264717   1.593   6.294   1.539 -0.9159  1.0670 -0.5288
21206SOL     OW64718   5.278   3.238   7.077  0.2123 -0.5716 -0.0092
21206SOL    HW164719   5.192   3.259   7.039 -0.4409  0.0611  1.7207
21206SOL    HW264720   5.273   3.143   7.093 -0.9980 -0.2380  1.9202
21207SOL     OW64721   8.118   2.218   2.351  0.1706 -1.2880  0.1306
21207SOL    HW164722   8.169   2.241   2.274  1.9880 -1.4803  1.2071
21207SOL    HW264723   8.152   2.275   2.420  0.1388 -2.6351  1.2990
21208SOL     OW64724   4.350   2.630   8.496 -0.4492  0.3932  0.2384
21208SOL    HW164725   4.345   2.543   8.456  0.9066  0.1002  0.6587
21208SOL    HW264726   4.312   2.689   8.431 -0.3312 -0.3638 -0.5305
21209SOL     OW64727   0.700   7.528   0.389 -0.0751 -0.5177  0.1292
21209SOL    HW164728   0.780   7.490   0.353  0.3295  1.7073 -1.5104
21209SOL    HW264729   0.630   7.475   0.353  0.5857 -2.1873  1.1794
21210SOL     OW64730   7.110   3.109   8.277 -0.2723 -0.2591 -0.1326
21210SOL    HW164731   7.079   3.030   8.320 -0.1295  0.1906  0.8312
21210SOL    HW264732   7.116   3.174   8.347  1.0204  0.2004 -0.6279
21211SOL     OW64733   8.872   6.719   8.536  0.8707 -0.5269  0.2047
21211SOL    HW164734   8.792   6.761   8.566 -0.7361 -3.3798  0.2199
21211SOL    HW264735   8.939   6.788   8.541 -1.3602  1.7041  1.0108
21212SOL     OW64736   4.640   1.098   0.651 -0.7842 -0.5218 -0.0644
21212SOL    HW164737   4.681   1.150   0.582 -0.7503 -0.1324  0.2476
21212SOL    HW264738   4.637   1.009   0.615 -1.8891 -0.1093 -1.0565
21213SOL     OW64739   7.949   0.512   0.365 -0.0069  0.7289  0.1318
21213SOL    HW164740   7.900   0.430   0.359 -0.5269  1.0701 -0.3922
21213SOL    HW264741   7.994   0.507   0.449  0.2634 -0.2583 -0.0574
21214SOL     OW64742   2.267   5.887   4.012 -0.1571  0.1339  0.0803
21214SOL    HW164743   2.281   5.961   4.071 -0.1972 -0.3825  0.7481
21214SOL    HW264744   2.172   5.882   4.000 -0.0994  0.8174 -0.7984
21215SOL     OW64745   3.054   2.101   3.888  0.1590 -0.1304 -0.2419
21215SOL    HW164746   3.022   2.121   3.976 -0.9374 -1.7759 -0.2227
21215SOL    HW264747   2.988   2.042   3.851  0.5672  0.5545 -2.2097
21216SOL     OW64748   2.381   5.548   2.521  0.2900 -0.6930 -0.6722
21216SOL    HW164749   2.413   5.468   2.479  0.4658 -0.9632 -0.0247
21216SOL    HW264750   2.305   5.521   2.572 -0.7577 -0.1285 -1.8506
21217SOL     OW64751   1.569   0.483   8.611 -0.2459 -0.4109 -0.5315
21217SOL    HW164752   1.649   0.533   8.619 -0.8836  0.7457 -1.1391
21217SOL    HW264753   1.524   0.495   8.695 -0.8102  0.8052 -0.9870
21218SOL     OW64754   7.653   7.793   7.842 -0.0199  0.1333  0.5994
21218SOL    HW164755   7.683   7.875   7.802  1.0667  0.5931  2.2702
21218SOL    HW264756   7.728   7.734   7.837 -0.7459 -0.7403 -0.4485
21219SOL     OW64757   5.105   7.682   5.236 -0.2776 -0.0218 -0.1465
21219SOL    HW164758   5.172   7.650   5.176 -2.5801 -0.3165 -2.7929
21219SOL    HW264759   5.055   7.604   5.261 -0.3416  0.3329  0.8853
21220SOL     OW64760   1.308   8.493   8.120  0.1237  0.6250 -0.1822
21220SOL    HW164761   1.269   8.413   8.086  0.1956  0.3524  0.3756
21220SOL    HW264762   1.246   8.524   8.186  0.5258  0.5443  0.2383
21221SOL     OW64763   0.849   0.451   0.592 -0.4179 -0.4930  0.3490
21221SOL    HW164764   0.915   0.477   0.527 -0.3841  1.5211  1.1112
21221SOL    HW264765   0.896   0.450   0.675 -0.9105 -1.0664  0.6276
21222SOL     OW64766   1.755   0.393   4.464  0.5241 -0.0759  0.1624
21222SOL    HW164767   1.738   0.487   4.466  0.2185 -0.1003 -0.7492
21222SOL    HW264768   1.743   0.365   4.555  0.6736  0.7669  0.4552
21223SOL     OW64769   1.402   4.435   4.690 -0.2750 -0.1098 -0.4564
21223SOL    HW164770   1.366   4.351   4.661 -1.2778  0.3440 -0.5317
21223SOL    HW264771   1.359   4.500   4.636  0.5952  0.4561 -0.4821
21224SOL     OW64772   8.075   8.476   3.059  0.3619 -0.0493  0.7942
21224SOL    HW164773   7.996   8.465   3.006  0.9726 -3.1671  0.3584
21224SOL    HW264774   8.118   8.553   3.022 -1.5672  0.6708 -0.0847
21225SOL     OW64775   6.752   3.694   7.923  0.0872  0.4860  0.6252
21225SOL    HW164776   6.738   3.627   7.856  0.7859  1.1515 -0.2222
21225SOL    HW264777   6.770   3.646   8.003  0.2487 -0.3371  0.1034
21226SOL     OW64778   7.847   8.292   8.984 -0.4818  0.3180  0.4990
21226SOL    HW164779   7.809   8.380   8.990 -0.8740  0.3956 -2.0180
21226SOL    HW264780   7.789   8.246   8.923  1.1513 -0.8715 -0.2123
21227SOL     OW64781   8.454   3.380   6.937 -0.5546 -0.7241 -0.0220
21227SOL    HW164782   8.542   3.364   6.902 -0.1784 -0.7518  0.9105
21227SOL    HW264783   8.395   3.343   6.872  0.1738 -2.1415  0.0930
21228SOL     OW64784   5.308   0.642   8.318  0.4302  0.0702 -0.3810
21228SOL    HW164785   5.273   0.719   8.274  0.5748 -0.4487 -1.4359
21228SOL    HW264786   5.235   0.580   8.319  1.2593 -1.0546 -2.6777
21229SOL     OW64787   5.683   3.175   1.246 -0.1540 -0.2318  0.1763
21229SOL    HW164788   5.660   3.267   1.243 -0.6104 -0.3037  0.9913
21229SOL    HW264789   5.619   3.136   1.306  0.1518 -1.0370 -0.0005
21230SOL     OW64790   1.556   5.560   7.257  0.0472 -0.6389  0.9756
21230SOL    HW164791   1.551   5.497   7.328 -2.7059  0.1867  1.6513
21230SOL    HW264792   1.558   5.645   7.300  3.9218 -0.0855  0.0898
21231SOL     OW64793   7.529   2.269   2.729 -0.1819 -0.4691  0.0560
21231SOL    HW164794   7.625   2.272   2.730 -0.1814 -0.2041  1.0288
21231SOL    HW264795   7.506   2.246   2.819 -1.0840  1.8479  0.4676
21232SOL     OW64796   8.297   0.792   4.213  0.2588  0.2111 -0.0143
21232SOL    HW164797   8.217   0.831   4.250 -0.5990  1.2701 -2.7224
21232SOL    HW264798   8.293   0.700   4.240 -2.9812 -0.2741 -1.5978
21233SOL     OW64799   4.448   1.706   2.003 -0.5626  0.1494 -0.2134
21233SOL    HW164800   4.404   1.762   1.939  1.7611  1.2809 -0.9132
21233SOL    HW264801   4.519   1.760   2.037 -0.4941 -1.1433  1.8615
21234SOL     OW64802   7.103   0.050   6.642 -0.2005 -0.1255  0.4497
21234SOL    HW164803   7.103   0.140   6.611 -0.4308 -0.7304 -1.3804
21234SOL    HW264804   7.050   0.002   6.579 -0.8904 -1.3941  1.9253
21235SOL     OW64805   1.081   8.419   1.076  0.3756  0.0749 -0.1206
21235SOL    HW164806   1.055   8.486   1.013  1.8991  1.0515  0.2341
21235SOL    HW264807   1.172   8.399   1.053  0.3334 -0.9701  0.5624
21236SOL     OW64808   7.102   5.569   7.200  0.1534 -0.1988  0.4243
21236SOL    HW164809   7.103   5.622   7.120 -0.8367 -0.3607  0.2875
21236SOL    HW264810   7.151   5.621   7.264  0.1180  0.3874 -0.0142
21237SOL     OW64811   8.225   3.974   7.719  0.2933 -0.4053 -0.4278
21237SOL    HW164812   8.235   3.897   7.663 -0.4354  0.3413 -1.6316
21237SOL    HW264813   8.302   4.028   7.700  0.7653 -0.7822  0.3586
21238SOL     OW64814   6.385   0.903   8.590  0.0334 -0.3476 -0.2653
21238SOL    HW164815   6.305   0.854   8.605 -0.6068  0.9653  0.8472
21238SOL    HW264816   6.357   0.983   8.546  0.4576  0.8971  1.6122
21239SOL     OW64817   8.919   4.017   7.858  0.2894  0.2386 -0.1668
21239SOL    HW164818   8.918   4.088   7.922 -1.0421 -0.6206  0.8189
21239SOL    HW264819   8.831   3.980   7.863  1.2831 -2.2488  0.2352
21240SOL     OW64820   8.737   9.061   3.073  0.6844  0.6765 -0.5123
21240SOL    HW164821   8.692   9.108   3.003 -0.9810  0.3963  0.3285
21240SOL    HW264822   8.814   9.116   3.092  0.0814  1.7947 -1.1790
21241SOL     OW64823   2.354   0.371   4.387 -0.5175 -0.0765  0.3232
21241SOL    HW164824   2.260   0.390   4.377 -0.2196  0.6715 -1.5616
21241SOL    HW264825   2.369   0.295   4.331  0.1072  0.2101  0.0968
21242SOL     OW64826   8.321   8.374   5.083 -0.1886  0.0122  0.0584
21242SOL    HW164827   8.255   8.355   5.016  0.1495 -1.5364  0.1181
21242SOL    HW264828   8.388   8.425   5.037 -1.4210  1.6920  0.0189
21243SOL     OW64829   6.489   1.917   2.314 -0.7055  0.5308  0.1683
21243SOL    HW164830   6.576   1.879   2.324 -0.3587  1.2840 -0.0030
21243SOL    HW264831   6.477   1.926   2.220 -1.1679 -0.0168  0.1669
21244SOL     OW64832   4.435   5.823   3.317 -0.0797  0.6817 -0.0877
21244SOL    HW164833   4.449   5.729   3.304  0.1114  0.7488 -0.3857
21244SOL    HW264834   4.461   5.839   3.407  0.1568  0.5004 -0.1230
21245SOL     OW64835   7.991   3.158   3.833  0.0027 -0.0123  0.2486
21245SOL    HW164836   8.028   3.216   3.900 -2.2227  0.2552  1.3654
21245SOL    HW264837   8.012   3.070   3.864  0.1906  0.1446  0.5801
21246SOL     OW64838   1.663   1.240   9.004  0.0623  0.3165  0.3049
21246SOL    HW164839   1.609   1.285   9.070  0.2857  1.0484  0.0001
21246SOL    HW264840   1.730   1.304   8.981 -0.4450  0.3383 -1.1706
21247SOL     OW64841   0.922   3.642   4.851  0.5453  0.3538 -0.0723
21247SOL    HW164842   0.846   3.596   4.885 -1.2351  0.9749 -2.8489
21247SOL    HW264843   0.993   3.619   4.911 -1.5962 -0.9371  2.1618
21248SOL     OW64844   9.017   7.984   8.781  0.5003 -0.0686  0.3822
21248SOL    HW164845   9.004   7.950   8.693 -1.1037  0.6857  0.3013
21248SOL    HW264846   8.947   7.945   8.833  0.2157  1.0513  0.8634
21249SOL     OW64847   6.150   8.246   0.884 -0.2404  0.1461 -0.2168
21249SOL    HW164848   6.168   8.322   0.938 -1.2181  0.1556  0.1240
21249SOL    HW264849   6.210   8.253   0.810  0.2379  0.8037  0.2317
21250SOL     OW64850   1.553   4.662   1.047 -0.2022  0.4491  0.4161
21250SOL    HW164851   1.534   4.727   1.115  2.5135  0.1181  1.6020
21250SOL    HW264852   1.576   4.714   0.970  3.6854  1.1237  1.8371
21251SOL     OW64853   3.666   7.360   6.873  0.1898 -0.0540 -0.2649
21251SOL    HW164854   3.667   7.419   6.948  0.2261 -1.4207  0.8439
21251SOL    HW264855   3.710   7.409   6.803  0.9425  0.9089  0.8520
21252SOL     OW64856   7.795   5.606   4.436  0.5090 -0.4216  0.2103
21252SOL    HW164857   7.850   5.623   4.513  1.4674  0.8786 -0.7208
21252SOL    HW264858   7.794   5.689   4.389 -2.7515 -0.2000  0.4556
21253SOL     OW64859   0.149   7.758   6.960 -0.0206 -0.1642 -0.5553
21253SOL    HW164860   0.204   7.718   6.893  2.0886  1.5316  0.0236
21253SOL    HW264861   0.211   7.804   7.017 -1.9357  0.4791  1.1368
21254SOL     OW64862   5.535   6.401   3.554 -0.3919  0.2309 -0.0724
21254SOL    HW164863   5.477   6.454   3.609 -1.1062 -0.1398 -0.4571
21254SOL    HW264864   5.546   6.452   3.474  3.3284  2.4071  1.5434
21255SOL     OW64865   0.744   4.535   5.172 -0.0821  0.0616  0.1566
21255SOL    HW164866   0.789   4.454   5.195  1.1689 -0.0339 -2.3562
21255SOL    HW264867   0.684   4.509   5.102 -0.9934  1.0119  0.5609
21256SOL     OW64868   3.747   1.864   7.944  0.1844  0.2554  0.0427
21256SOL    HW164869   3.766   1.788   7.998 -1.7261 -0.9431 -0.8479
21256SOL    HW264870   3.701   1.829   7.868  2.8783  1.8321 -2.5476
21257SOL     OW64871   5.495   3.585   4.049 -0.0245  0.8044 -0.3261
21257SOL    HW164872   5.585   3.596   4.019 -0.1898  0.4858 -0.9669
21257SOL    HW264873   5.443   3.638   3.989 -0.2139  1.4586  0.4067
21258SOL     OW64874   5.057   5.360   5.275 -0.2503 -0.1941  0.0652
21258SOL    HW164875   4.986   5.391   5.218 -0.5526  0.1431  0.6190
21258SOL    HW264876   5.117   5.315   5.216 -1.5247 -1.5616 -0.2524
21259SOL     OW64877   7.083   3.849   2.097  0.1957  0.0359  0.0233
21259SOL    HW164878   7.041   3.782   2.150 -1.6546  2.2870  1.6115
21259SOL    HW264879   7.011   3.890   2.048  1.2048  1.0506 -0.6637
21260SOL     OW64880   8.600   3.624   1.936  0.3723  0.1087  0.4127
21260SOL    HW164881   8.554   3.704   1.962  1.4659  0.2953  1.9321
21260SOL    HW264882   8.537   3.577   1.882 -0.0675  2.2704 -1.0828
21261SOL     OW64883   2.248   6.934   0.008  0.6246  0.2165  0.6617
21261SOL    HW164884   2.194   6.955   0.084  0.6631  0.6357  0.5740
21261SOL    HW264885   2.258   6.838   0.012  0.8371  0.2554  1.3294
21262SOL     OW64886   7.843   6.543   1.512  0.1014  0.3868 -0.6835
21262SOL    HW164887   7.882   6.555   1.598  0.7399 -0.1201 -0.8948
21262SOL    HW264888   7.903   6.586   1.452 -0.2169  0.5279 -0.9065
21263SOL     OW64889   8.870   2.811   8.334  0.7761 -0.5590 -0.4295
21263SOL    HW164890   8.826   2.784   8.253 -2.1804 -1.1691  1.2318
21263SOL    HW264891   8.912   2.732   8.366 -0.9162 -1.2082  0.2800
21264SOL     OW64892   2.609   6.867   1.648 -0.4901  0.4716 -0.3050
21264SOL    HW164893   2.672   6.820   1.702 -0.3898 -2.5627 -2.7589
21264SOL    HW264894   2.632   6.959   1.659  1.5445 -0.2267  2.1991
21265SOL     OW64895   3.766   2.827   8.707 -0.2479  0.2005  0.1451
21265SOL    HW164896   3.820   2.884   8.653 -0.7042  0.7550  0.2668
21265SOL    HW264897   3.794   2.846   8.797 -1.1426  1.0278  0.2607
21266SOL     OW64898   7.314   5.721   1.181  0.3627  0.5583 -0.0445
21266SOL    HW164899   7.407   5.739   1.163  1.1198  0.9596  3.4909
21266SOL    HW264900   7.315   5.635   1.222 -0.8018  0.7065  0.3058
21267SOL     OW64901   5.721   6.865   5.697  0.1769  0.2321  0.5628
21267SOL    HW164902   5.661   6.915   5.640  0.5582  0.9179  0.7574
21267SOL    HW264903   5.798   6.850   5.642 -0.0648 -0.4526  0.3913
21268SOL     OW64904   0.821   8.797   1.845  0.6143  0.7768  0.7763
21268SOL    HW164905   0.774   8.782   1.927 -1.6480  0.0025 -0.5672
21268SOL    HW264906   0.830   8.892   1.839  1.0303  0.8420  1.9852
21269SOL     OW64907   4.173   0.577   3.611 -0.2692 -0.0929  0.0367
21269SOL    HW164908   4.267   0.586   3.598 -0.1809  1.4675  1.4980
21269SOL    HW264909   4.135   0.617   3.533  0.2652 -0.2372 -0.3055
21270SOL     OW64910   1.794   4.607   8.532 -0.0779  0.0389 -0.7945
21270SOL    HW164911   1.799   4.668   8.606 -0.3056 -0.5741 -0.2632
21270SOL    HW264912   1.881   4.613   8.491  0.2639 -0.0820 -0.1004
21271SOL     OW64913   3.523   2.658   8.963 -0.4557 -0.3933 -0.2892
21271SOL    HW164914   3.446   2.650   9.020 -0.1974 -0.4266  0.0610
21271SOL    HW264915   3.549   2.750   8.972 -0.5695 -0.3352 -0.5579
21272SOL     OW64916   1.971   5.260   1.082 -0.1591  0.1964  0.4114
21272SOL    HW164917   1.979   5.322   1.155 -0.3787 -0.2255  0.7996
21272SOL    HW264918   2.047   5.203   1.090 -1.1747 -1.0865  1.5088
21273SOL     OW64919   8.919   0.164   2.822 -0.4201  0.0040  0.3451
21273SOL    HW164920   8.824   0.157   2.810 -0.3661  1.2325 -1.1645
21273SOL    HW264921   8.951   0.076   2.804 -1.3577 -0.8399  2.4320
21274SOL     OW64922   5.423   7.527   8.871 -0.4214 -0.4519  0.6033
21274SOL    HW164923   5.351   7.478   8.830 -0.8745 -0.3906  1.3074
21274SOL    HW264924   5.422   7.499   8.963  0.0095  0.0761  0.7761
21275SOL     OW64925   3.257   6.524   2.613  0.4048 -0.2952  0.0623
21275SOL    HW164926   3.337   6.567   2.582  1.3873 -2.3217 -0.3891
21275SOL    HW264927   3.235   6.569   2.694  1.1050  1.3286 -0.6174
21276SOL     OW64928   6.537   6.872   8.017  0.4775  0.0185  0.2536
21276SOL    HW164929   6.626   6.852   7.988  0.0796 -0.1370 -0.9170
21276SOL    HW264930   6.527   6.966   8.001  1.3414  0.6795  2.9991
21277SOL     OW64931   0.253   9.061   8.369 -0.0862  0.0243 -0.0423
21277SOL    HW164932   0.276   8.971   8.348 -0.2818 -0.2096  0.7049
21277SOL    HW264933   0.160   9.068   8.346 -0.2210 -0.1434  0.4192
21278SOL     OW64934   8.590   6.870   1.904  0.6072  0.2005 -0.1682
21278SOL    HW164935   8.671   6.851   1.856  0.0130  1.2475 -1.6764
21278SOL    HW264936   8.550   6.941   1.854 -0.4907  0.7461  1.4334
21279SOL     OW64937   2.801   2.024   0.126 -0.7192 -0.3596  0.2842
21279SOL    HW164938   2.766   2.008   0.039 -0.1819  0.2620 -0.0461
21279SOL    HW264939   2.849   1.944   0.147 -0.5338 -0.3597 -0.1392
21280SOL     OW64940   9.121   6.799   5.777 -0.7131  0.2006  0.2289
21280SOL    HW164941   9.157   6.723   5.822 -1.0757 -0.0558  0.0920
21280SOL    HW264942   9.131   6.871   5.840  2.5187  0.7815 -0.7663
21281SOL     OW64943   3.118   4.667   2.725 -0.4368 -0.6775 -0.1814
21281SOL    HW164944   3.162   4.713   2.653 -1.8653  2.1962  0.6310
21281SOL    HW264945   3.187   4.655   2.791  0.4232 -1.5725 -1.2062
21282SOL     OW64946   7.568   2.285   5.978 -0.1541  0.2665  0.2835
21282SOL    HW164947   7.583   2.236   5.897 -2.6758 -2.3693  1.2498
21282SOL    HW264948   7.540   2.371   5.949  0.2140 -0.1985 -1.6104
21283SOL     OW64949   2.665   1.619   8.870 -0.8549 -0.1472 -0.0699
21283SOL    HW164950   2.616   1.598   8.950 -0.2033 -2.8949 -0.3080
21283SOL    HW264951   2.598   1.640   8.806 -1.6401 -1.6624  0.2098
21284SOL     OW64952   2.864   5.613   0.996  0.0118 -0.1255 -0.0151
21284SOL    HW164953   2.876   5.701   0.960  4.4988 -1.0130 -1.4021
21284SOL    HW264954   2.940   5.600   1.053 -1.4853 -2.5358  1.6380
21285SOL     OW64955   1.054   5.191   1.416  0.5898  0.0801  0.1059
21285SOL    HW164956   1.037   5.167   1.325 -1.1688  2.6091 -0.3543
21285SOL    HW264957   1.119   5.261   1.411  2.5393 -1.5778  1.0612
21286SOL     OW64958   1.586   2.226   4.838 -0.0485 -0.3227 -0.1680
21286SOL    HW164959   1.618   2.136   4.846  1.7628  0.3374  0.3391
21286SOL    HW264960   1.659   2.280   4.867 -1.5134  1.2900  0.6840
21287SOL     OW64961   6.125   5.336   3.485  0.0086 -0.0371 -0.2627
21287SOL    HW164962   6.164   5.418   3.515  0.0425 -0.1882  0.1114
21287SOL    HW264963   6.201   5.281   3.461  0.1652 -1.0442  2.2853
21288SOL     OW64964   3.201   4.221   4.245  0.1458  0.3428  0.0321
21288SOL    HW164965   3.141   4.151   4.219  0.1894  0.0634  0.6643
21288SOL    HW264966   3.283   4.201   4.199  0.3957 -0.4643  0.8047
21289SOL     OW64967   8.507   0.112   1.247  0.3833  0.2488  0.0574
21289SOL    HW164968   8.586   0.145   1.289  0.9173 -2.3541  1.2990
21289SOL    HW264969   8.517   0.016   1.249 -2.1526 -0.1210 -1.0366
21290SOL     OW64970   3.296   6.207   5.164  0.1363  0.0260 -0.2284
21290SOL    HW164971   3.384   6.231   5.193 -0.1420 -0.3372  0.9554
21290SOL    HW264972   3.264   6.285   5.120  0.2869  0.8954  1.1407
21291SOL     OW64973   8.469   0.184   9.079 -0.1700 -0.2882 -0.0863
21291SOL    HW164974   8.480   0.124   9.006  0.2046 -1.1533  0.6562
21291SOL    HW264975   8.427   0.261   9.041 -0.3091 -0.8615 -1.1330
21292SOL     OW64976   8.993   3.869   1.942 -0.1576  0.1604 -0.3747
21292SOL    HW164977   9.043   3.944   1.973 -0.5476 -0.1061  0.9899
21292SOL    HW264978   8.909   3.905   1.915  0.1465  0.3834 -1.0450
21293SOL     OW64979   8.501   7.160   2.711 -0.3808 -0.0985  0.1068
21293SOL    HW164980   8.594   7.160   2.688 -0.8052  0.2248 -1.7828
21293SOL    HW264981   8.464   7.089   2.658 -0.8828 -1.8165  2.5624
21294SOL     OW64982   0.245   7.795   1.821 -0.6255 -0.3322 -0.0698
21294SOL    HW164983   0.152   7.815   1.809 -0.4152  0.1537 -0.9541
21294SOL    HW264984   0.287   7.879   1.835 -0.4580 -0.6461  1.5047
21295SOL     OW64985   3.647   7.211   1.932  0.3115  0.2313  0.1672
21295SOL    HW164986   3.655   7.201   1.837  1.2648  1.4289  0.0963
21295SOL    HW264987   3.726   7.260   1.957 -0.9960  1.8656  1.2763
21296SOL     OW64988   6.220   8.343   6.820 -0.3536  0.1528  0.0170
21296SOL    HW164989   6.310   8.361   6.792 -0.4014 -1.3514 -1.2393
21296SOL    HW264990   6.190   8.425   6.859  0.7492  1.4407 -1.7299
21297SOL     OW64991   0.125   4.934   6.106  0.3586 -0.4548  0.1130
21297SOL    HW164992   0.040   4.976   6.089 -0.5306 -1.3532  1.9776
21297SOL    HW264993   0.179   5.004   6.142  0.1228 -0.0740 -0.2642
21298SOL     OW64994   5.177   5.124   8.477 -0.0546  0.4851  0.1847
21298SOL    HW164995   5.110   5.081   8.530  0.2190  0.6922  0.7099
21298SOL    HW264996   5.248   5.141   8.539  1.4074 -1.6574 -0.7729
21299SOL     OW64997   5.712   5.176   6.559  0.1959 -0.7779 -0.0727
21299SOL    HW164998   5.673   5.126   6.631 -2.2161  1.3326  0.2433
21299SOL    HW264999   5.795   5.208   6.594  0.0212 -1.4588  1.0195
21300SOL     OW65000   0.657   0.173   6.385  0.1023 -0.1997  0.4626
21300SOL    HW165001   0.652   0.149   6.293  1.8866  0.5568  0.1074
21300SOL    HW265002   0.601   0.250   6.393  0.1937 -0.0723 -0.0798
21301SOL     OW65003   2.621   2.964   3.752  0.4202  0.1389 -0.1226
21301SOL    HW165004   2.717   2.965   3.749  0.4416 -0.4558  0.1176
21301SOL    HW265005   2.594   3.026   3.684  0.9754  0.5871  0.0560
21302SOL     OW65006   3.368   4.621   5.355  0.1498  0.0276  0.6155
21302SOL    HW165007   3.392   4.713   5.350  0.1138 -0.0189 -1.9520
21302SOL    HW265008   3.424   4.578   5.290 -0.2614 -1.6560  1.3192
21303SOL     OW65009   5.844   2.041   5.187  0.7406 -0.8038  0.2616
21303SOL    HW165010   5.871   1.991   5.263 -0.0341  0.0105  1.0977
21303SOL    HW265011   5.915   2.028   5.123  0.5271 -3.0016  0.3954
21304SOL     OW65012   8.677   6.496   3.506 -0.5376 -0.1800  0.3160
21304SOL    HW165013   8.667   6.437   3.581  0.6543 -0.7033  0.0821
21304SOL    HW265014   8.752   6.461   3.458 -0.2937  1.0816 -0.2549
21305SOL     OW65015   4.959   0.792   3.611 -0.1042  0.0864 -0.0389
21305SOL    HW165016   4.888   0.773   3.550 -1.5137  1.2236  1.1547
21305SOL    HW265017   4.932   0.873   3.655  1.7042  0.2844  0.8254
21306SOL     OW65018   3.852   6.196   6.946 -0.2102  0.1985  0.0866
21306SOL    HW165019   3.818   6.170   7.031  0.8128 -0.0070  0.4473
21306SOL    HW265020   3.820   6.285   6.934  0.0499  0.4123  0.9174
21307SOL     OW65021   8.460   1.421   0.145 -0.0393  0.4386 -0.5914
21307SOL    HW165022   8.479   1.413   0.052 -0.3133  0.2825 -0.6363
21307SOL    HW265023   8.384   1.364   0.159 -0.4017  0.9642 -0.3988
21308SOL     OW65024   8.579   7.289   7.372  0.0734  0.0249  0.2348
21308SOL    HW165025   8.595   7.370   7.323  1.9359 -0.8690 -0.7329
21308SOL    HW265026   8.644   7.228   7.338 -1.0947 -1.7965  1.1684
21309SOL     OW65027   8.231   7.345   4.951  0.4927  0.7435  0.0821
21309SOL    HW165028   8.243   7.345   4.856  0.1308 -1.9185 -0.0246
21309SOL    HW265029   8.310   7.387   4.985  2.3557 -1.4478 -1.2874
21310SOL     OW65030   6.586   7.271   0.143 -0.0411  0.3322 -0.6298
21310SOL    HW165031   6.595   7.305   0.232 -0.9246  0.2366 -0.4984
21310SOL    HW265032   6.492   7.269   0.127  0.1083  0.4142 -1.5955
21311SOL     OW65033   2.257   7.219   0.134 -0.2659  0.3893 -0.2766
21311SOL    HW165034   2.215   7.148   0.182 -1.4578  3.7724  4.4004
21311SOL    HW265035   2.186   7.266   0.092  0.2991 -0.0594 -1.8004
21312SOL     OW65036   9.026   0.209   7.710  1.0891 -0.9367 -0.3194
21312SOL    HW165037   8.960   0.155   7.755  0.4624 -0.5958 -0.8172
21312SOL    HW265038   8.999   0.299   7.727  0.3382 -0.7935 -2.0803
21313SOL     OW65039   7.453   4.839   7.437  0.2429 -0.5272  0.1831
21313SOL    HW165040   7.372   4.789   7.424  0.5534 -0.8449 -0.5829
21313SOL    HW265041   7.511   4.779   7.483 -0.1048 -0.1459  1.1338
21314SOL     OW65042   8.798   6.002   7.409  0.0529  0.3639  0.3756
21314SOL    HW165043   8.767   6.023   7.497  0.4124  0.7715  0.4072
21314SOL    HW265044   8.718   5.977   7.361 -0.2615  0.9676  0.5787
21315SOL     OW65045   2.075   1.500   0.051 -0.1163 -0.1734  0.6553
21315SOL    HW165046   2.004   1.485  -0.012  1.5766  3.1898 -2.3913
21315SOL    HW265047   2.145   1.441   0.024 -0.1451 -0.2712  0.7913
21316SOL     OW65048   4.793   8.233   7.611  0.2248  0.1626  0.3531
21316SOL    HW165049   4.774   8.325   7.631 -1.5566  0.2691 -1.4717
21316SOL    HW265050   4.884   8.222   7.637  0.3222  2.2925  1.1625
21317SOL     OW65051   7.334   3.309   1.774  0.2992 -0.1175 -0.1622
21317SOL    HW165052   7.390   3.265   1.838  1.4891  0.4081 -0.8079
21317SOL    HW265053   7.327   3.399   1.805  1.2845  0.2683 -0.9901
21318SOL     OW65054   8.509   2.686   8.107  0.1604 -0.1810 -0.2787
21318SOL    HW165055   8.470   2.758   8.057 -1.2087 -1.2885 -0.8748
21318SOL    HW265056   8.474   2.697   8.195  0.7429  0.4512 -0.1236
21319SOL     OW65057   4.128   0.201   6.010 -0.1631  0.4414 -0.6101
21319SOL    HW165058   4.049   0.170   6.054  1.3771 -0.3129  1.8152
21319SOL    HW265059   4.157   0.126   5.959  0.7886 -0.5034  1.2263
21320SOL     OW65060   3.204   5.176   4.844 -0.1808 -0.2248 -0.3920
21320SOL    HW165061   3.172   5.093   4.809  0.5140  0.9501 -4.3013
21320SOL    HW265062   3.298   5.175   4.828 -0.1217  1.1884 -0.2797
21321SOL     OW65063   2.113   8.767   5.524  0.3307  0.6869  0.3134
21321SOL    HW165064   2.105   8.859   5.549 -3.9310  0.9034 -1.0987
21321SOL    HW265065   2.132   8.721   5.606  2.4232  2.6875  1.0737
21322SOL     OW65066   6.479   2.526   3.989  0.1756 -0.4677  0.1133
21322SOL    HW165067   6.570   2.529   4.020 -0.0559  0.0767  0.7792
21322SOL    HW265068   6.484   2.548   3.896  0.6875 -0.0078  0.2457
21323SOL     OW65069   5.696   0.845   3.338 -0.1608 -0.0292  0.2392
21323SOL    HW165070   5.769   0.782   3.334 -0.6114 -0.5161 -0.8790
21323SOL    HW265071   5.617   0.790   3.332 -0.7279  0.3567  2.8564
21324SOL     OW65072   6.448   4.767   0.285 -0.0008 -0.4000 -0.3659
21324SOL    HW165073   6.514   4.836   0.283 -1.0814  0.6928 -0.0587
21324SOL    HW265074   6.497   4.686   0.284  1.3938  0.3766  1.0029
21325SOL     OW65075   7.541   3.403   0.006 -0.2295 -0.2562 -0.7199
21325SOL    HW165076   7.623   3.356  -0.013  0.5420  0.9023 -0.3654
21325SOL    HW265077   7.569   3.493   0.024 -1.5157 -0.0151  0.1794
21326SOL     OW65078   2.499   3.310   3.336  0.5134  0.7443  0.1337
21326SOL    HW165079   2.410   3.296   3.306  0.9791 -0.6787 -0.6973
21326SOL    HW265080   2.554   3.262   3.274  1.8221  1.1329  0.9277
21327SOL     OW65081   5.411   2.956   2.225  0.2196  0.3206  0.5571
21327SOL    HW165082   5.451   2.891   2.283  1.5171  0.4552 -0.1432
21327SOL    HW265083   5.428   2.922   2.137 -0.2131  0.9858  0.2111
21328SOL     OW65084   3.000   3.605   1.023  0.1081  0.4214  0.7803
21328SOL    HW165085   2.943   3.678   1.048 -0.4991 -0.0509  0.7852
21328SOL    HW265086   3.062   3.598   1.096 -1.0803 -0.3485  1.7452
21329SOL     OW65087   2.524   0.484   1.071  0.4267 -0.3069  0.0726
21329SOL    HW165088   2.435   0.452   1.055  0.4715 -0.2455 -0.3006
21329SOL    HW265089   2.580   0.422   1.025  0.6162 -0.6960  0.8144
21330SOL     OW65090   3.676   7.392   4.628 -0.4784  0.3107 -0.1546
21330SOL    HW165091   3.764   7.418   4.600  0.7664 -1.3755  1.9214
21330SOL    HW265092   3.647   7.465   4.683 -0.2010  0.6929 -0.5083
21331SOL     OW65093   1.617   7.100   5.662 -0.1535 -0.6595 -0.1404
21331SOL    HW165094   1.616   7.195   5.668 -1.5794 -0.5599 -1.4406
21331SOL    HW265095   1.581   7.070   5.745  1.7893 -0.1577  0.9370
21332SOL     OW65096   3.305   2.668   3.642 -0.0372 -0.2234  0.6164
21332SOL    HW165097   3.280   2.744   3.588 -0.2017 -0.4208  0.4142
21332SOL    HW265098   3.382   2.697   3.690 -0.7374  0.4590  1.3758
21333SOL     OW65099   6.019   3.761   8.171 -0.1420  0.7074 -0.0147
21333SOL    HW165100   6.064   3.726   8.248  0.3731  0.0744 -0.5905
21333SOL    HW265101   6.090   3.792   8.114 -0.5087  1.0237 -0.3079
21334SOL     OW65102   5.356   5.841   0.571  0.0897  0.6328 -0.2486
21334SOL    HW165103   5.436   5.885   0.599  0.3061  0.2985 -0.3336
21334SOL    HW265104   5.327   5.889   0.494  0.6527  0.2671 -0.6960
21335SOL     OW65105   5.519   0.828   3.657  0.3020 -0.0898 -0.3276
21335SOL    HW165106   5.428   0.800   3.647  0.2916 -1.2205  2.1736
21335SOL    HW265107   5.518   0.886   3.734  1.5821  0.5044 -0.7335
21336SOL     OW65108   3.181   0.114   0.934  0.1205 -0.3151  0.6594
21336SOL    HW165109   3.101   0.104   0.986  0.6652  0.0268  1.5920
21336SOL    HW265110   3.245   0.151   0.995  1.4823 -2.0861  0.3774
21337SOL     OW65111   6.075   0.164   3.731 -0.3431 -0.1531 -0.0048
21337SOL    HW165112   6.111   0.140   3.646 -0.2415 -0.6719  0.1794
21337SOL    HW265113   5.981   0.170   3.716 -0.3054 -0.0362 -0.2013
21338SOL     OW65114   1.239   2.169   7.654  0.4961  0.1647 -0.3794
21338SOL    HW165115   1.159   2.186   7.604 -0.3252 -0.5581  0.6591
21338SOL    HW265116   1.250   2.248   7.707  0.4257  0.2261 -0.4548
21339SOL     OW65117   1.085   2.594   4.833  0.2217 -0.3010  1.0640
21339SOL    HW165118   1.075   2.602   4.928 -0.8770 -1.9616  1.1251
21339SOL    HW265119   1.172   2.555   4.822  0.6166  0.4729  1.3276
21340SOL     OW65120   7.865   0.109   3.971  0.3528 -0.1795  0.0069
21340SOL    HW165121   7.901   0.053   4.040  1.4901  0.4682 -0.0267
21340SOL    HW265122   7.779   0.134   4.003  1.0616  0.5545  1.4831
21341SOL     OW65123   1.037   0.866   2.795  0.0252  0.8802 -0.3021
21341SOL    HW165124   0.948   0.899   2.781 -0.4723  1.0134  2.5928
21341SOL    HW265125   1.083   0.938   2.838  1.1719  0.3486 -0.5887
21342SOL     OW65126   1.758   1.064   2.751 -0.0629  0.2237 -0.3965
21342SOL    HW165127   1.747   1.040   2.659  1.2262  0.6157 -0.6747
21342SOL    HW265128   1.808   0.991   2.788 -0.7463 -0.0244  0.0478
21343SOL     OW65129   6.195   3.306   9.026 -0.0128  0.1084  0.4350
21343SOL    HW165130   6.253   3.267   8.961  1.7220 -1.3395  2.7112
21343SOL    HW265131   6.108   3.271   9.005  0.6615 -1.0440 -0.5527
21344SOL     OW65132   0.735   2.932   1.573  0.0266  0.0910  0.1527
21344SOL    HW165133   0.648   2.899   1.551 -0.0719  0.4764 -0.0357
21344SOL    HW265134   0.744   3.013   1.523  0.9272 -0.5084 -0.7088
21345SOL     OW65135   2.553   1.681   3.844  0.3188 -0.2642 -0.4918
21345SOL    HW165136   2.463   1.684   3.812  0.6181 -0.6296 -1.4110
21345SOL    HW265137   2.555   1.605   3.902 -0.1423  0.1800  0.1148
21346SOL     OW65138   5.287   7.219   6.632  0.7769 -0.0693 -0.1489
21346SOL    HW165139   5.256   7.208   6.542 -0.4882  0.2194  0.2315
21346SOL    HW265140   5.365   7.275   6.625 -0.3461  1.4501 -0.9108
21347SOL     OW65141   7.588   3.685   5.673 -0.0642  0.2088 -0.0915
21347SOL    HW165142   7.575   3.772   5.634  2.4368  0.8533  0.3061
21347SOL    HW265143   7.641   3.638   5.609 -2.5081 -1.5767 -0.9079
21348SOL     OW65144   3.193   8.740   6.667  0.4350 -0.1746 -0.2789
21348SOL    HW165145   3.275   8.696   6.643 -0.1340 -0.6490 -1.4752
21348SOL    HW265146   3.207   8.832   6.645  0.4854 -0.3428 -0.9904
21349SOL     OW65147   7.391   0.834   0.181  0.3914 -0.4386  0.0870
21349SOL    HW165148   7.372   0.796   0.267 -1.7767 -1.3551 -0.7176
21349SOL    HW265149   7.351   0.921   0.184 -0.0992 -0.6502 -0.1194
21350SOL     OW65150   8.916   1.196   7.525 -0.0708 -0.6091  0.3460
21350SOL    HW165151   8.829   1.223   7.555 -0.4995 -0.9578 -0.5300
21350SOL    HW265152   8.949   1.139   7.594  0.6894  1.7536  2.0390
21351SOL     OW65153   7.230   7.537   6.295 -0.3408 -0.3501 -0.6050
21351SOL    HW165154   7.165   7.467   6.294 -1.9955  1.1178 -0.7498
21351SOL    HW265155   7.295   7.510   6.230 -1.6427 -1.1357 -1.6508
21352SOL     OW65156   7.065   5.311   7.298 -0.1132  0.0352  0.4172
21352SOL    HW165157   7.102   5.311   7.387 -0.2937 -0.1529  0.4939
21352SOL    HW265158   7.079   5.400   7.266 -0.3473  0.1972  0.7589
21353SOL     OW65159   4.032   3.594   6.185  0.1056 -0.0952  0.1183
21353SOL    HW165160   4.077   3.630   6.108 -0.0490  1.2082  0.6118
21353SOL    HW265161   4.096   3.602   6.255  0.0990 -0.9031  0.2242
21354SOL     OW65162   6.587   0.121   1.073 -0.6394 -0.7439 -0.2025
21354SOL    HW165163   6.599   0.213   1.097 -0.4868 -1.1405  1.3251
21354SOL    HW265164   6.665   0.099   1.022  0.1278 -0.4683  0.8273
21355SOL     OW65165   0.458   7.064   5.067 -0.2851  0.0533 -0.0354
21355SOL    HW165166   0.492   7.143   5.108  0.0889  0.2020 -0.6123
21355SOL    HW265167   0.490   6.992   5.122 -2.0035  0.3664  1.4388
21356SOL     OW65168   5.186   5.199   5.110  0.1676 -0.3253 -0.0291
21356SOL    HW165169   5.179   5.158   5.023 -1.3638 -1.9377  0.7760
21356SOL    HW265170   5.228   5.132   5.164 -0.3177  0.0524  0.8247
21357SOL     OW65171   0.534   8.872   5.161 -0.0875 -0.2505  0.0490
21357SOL    HW165172   0.618   8.826   5.153  0.1871  0.3698 -0.8621
21357SOL    HW265173   0.514   8.900   5.071 -1.0139  0.0510  0.3412
21358SOL     OW65174   0.828   8.459   2.998  0.8584  0.3410  0.2168
21358SOL    HW165175   0.739   8.446   3.029  1.8552 -0.4323  3.1084
21358SOL    HW265176   0.835   8.553   2.983 -0.1573  0.5698  1.0614
21359SOL     OW65177   8.699   2.721   8.763 -0.2871  0.0328 -0.2878
21359SOL    HW165178   8.625   2.686   8.713 -1.1501 -0.1572  1.0621
21359SOL    HW265179   8.760   2.752   8.696 -1.1334 -0.7092 -1.4610
21360SOL     OW65180   7.894   2.057   5.053  0.9414  0.0951  0.1062
21360SOL    HW165181   7.871   2.147   5.079  1.4807 -0.2458  1.9206
21360SOL    HW265182   7.827   2.032   4.990 -0.6498  0.9265  1.4070
21361SOL     OW65183   8.409   2.758   7.824  0.4204 -0.0972  0.2670
21361SOL    HW165184   8.380   2.835   7.775  1.5976  0.3532  0.2498
21361SOL    HW265185   8.343   2.748   7.893  0.1439  0.8219  0.1567
21362SOL     OW65186   4.146   3.725   7.367  0.2566 -0.0071  0.4282
21362SOL    HW165187   4.107   3.653   7.416 -0.4491 -0.3409 -0.5945
21362SOL    HW265188   4.135   3.801   7.424  0.7294 -0.6363  1.3860
21363SOL     OW65189   7.225   0.897   4.615  0.1883  0.5226 -0.6330
21363SOL    HW165190   7.260   0.925   4.531 -0.2368  0.9697 -0.6633
21363SOL    HW265191   7.152   0.838   4.592 -0.8088  1.7073 -0.6071
21364SOL     OW65192   0.801   8.934   5.905  0.2454  0.0864  0.5033
21364SOL    HW165193   0.813   8.840   5.923  1.3066  0.6099  2.8095
21364SOL    HW265194   0.812   8.976   5.990 -2.6693  2.1431  0.0178
21365SOL     OW65195   7.279   5.090   3.268  0.5498  0.0675 -0.1315
21365SOL    HW165196   7.200   5.139   3.291  1.6292  1.7974  0.0577
21365SOL    HW265197   7.247   5.014   3.219 -1.3387 -0.2385  1.4542
21366SOL     OW65198   5.383   1.230   5.329  0.2242  0.2633  0.2224
21366SOL    HW165199   5.323   1.237   5.254  2.0039  0.0689 -1.2874
21366SOL    HW265200   5.335   1.271   5.401 -0.6331  2.7264 -1.5850
21367SOL     OW65201   5.488   6.717   0.087 -0.0127  0.3026  0.0695
21367SOL    HW165202   5.577   6.691   0.063 -0.1927 -0.1858 -0.0936
21367SOL    HW265203   5.442   6.724   0.003 -0.6823 -1.5366  0.2326
21368SOL     OW65204   4.717   0.701   3.851  1.0996 -0.1668 -0.6776
21368SOL    HW165205   4.738   0.792   3.835  2.2020 -0.0448  1.1502
21368SOL    HW265206   4.630   0.689   3.813 -0.0236  2.2262  0.9265
21369SOL     OW65207   5.008   8.497   0.544 -0.6339 -0.2847 -0.4655
21369SOL    HW165208   4.932   8.555   0.549  1.1097  2.1185 -0.1619
21369SOL    HW265209   5.068   8.530   0.611  1.5418 -0.7603 -2.0582
21370SOL     OW65210   0.054   8.293   4.472  0.2801  0.1206  0.0858
21370SOL    HW165211   0.127   8.309   4.533 -0.9980  2.2994  1.1450
21370SOL    HW265212   0.024   8.380   4.447 -0.7282 -0.7438 -1.9099
21371SOL     OW65213   3.056   7.090   6.773 -0.0836 -0.3728 -0.3653
21371SOL    HW165214   3.023   7.000   6.779 -0.6878 -0.0657  1.4386
21371SOL    HW265215   3.120   7.098   6.843 -0.1946  0.6595 -0.3565
21372SOL     OW65216   5.564   8.159   2.120 -0.0407  0.1405  0.1721
21372SOL    HW165217   5.605   8.246   2.113 -0.1161  0.1387 -0.3303
21372SOL    HW265218   5.534   8.154   2.211  1.7530 -0.1656  0.7919
21373SOL     OW65219   7.192   5.671   8.676  0.3519  0.2583  0.0730
21373SOL    HW165220   7.192   5.686   8.581 -0.8268  0.5574  0.1124
21373SOL    HW265221   7.104   5.640   8.696  0.7162 -0.1986  1.0223
21374SOL     OW65222   8.744   8.673   9.037 -0.1455 -0.2711 -0.0991
21374SOL    HW165223   8.807   8.617   9.081  0.9155  0.2833 -0.8531
21374SOL    HW265224   8.786   8.759   9.035 -0.4677 -0.1175 -1.4965
21375SOL     OW65225   6.403   6.309   1.022 -0.1022  0.0371  0.6672
21375SOL    HW165226   6.463   6.234   1.019 -0.0542  0.1086 -0.9656
21375SOL    HW265227   6.333   6.287   0.961 -1.0891  0.5328  1.5696
21376SOL     OW65228   5.670   4.644   5.824  0.0758 -0.4971 -0.0723
21376SOL    HW165229   5.756   4.604   5.835  0.4484  0.1707 -0.5123
21376SOL    HW265230   5.641   4.662   5.914 -0.1554 -1.8401  0.1441
21377SOL     OW65231   4.769   7.179   3.353 -0.2906 -0.0599  0.5774
21377SOL    HW165232   4.836   7.203   3.417 -0.9085 -0.7683  1.5281
21377SOL    HW265233   4.686   7.199   3.397 -0.7277 -0.5024 -0.0205
21378SOL     OW65234   8.810   1.472   5.852  0.1904  0.5405 -0.4335
21378SOL    HW165235   8.821   1.458   5.758 -1.2405  0.9108 -0.6797
21378SOL    HW265236   8.899   1.469   5.888  0.5989 -1.7638 -1.4717
21379SOL     OW65237   9.008   5.870   2.521 -0.4974  0.1294  0.0596
21379SOL    HW165238   8.919   5.882   2.552 -0.9264 -1.3359 -0.4941
21379SOL    HW265239   9.003   5.887   2.427 -0.3997 -0.7448 -0.1193
21380SOL     OW65240   0.316   7.634   7.975  0.0047 -0.5015 -0.1706
21380SOL    HW165241   0.259   7.613   7.901 -1.3756 -0.7605  0.9146
21380SOL    HW265242   0.394   7.672   7.935 -0.3975 -1.2585 -1.7907
21381SOL     OW65243   6.255   1.161   5.474 -0.0428 -0.5886  0.8443
21381SOL    HW165244   6.298   1.131   5.555  0.9549  1.5699  1.2069
21381SOL    HW265245   6.306   1.238   5.448 -0.8817 -0.7344 -1.3886
21382SOL     OW65246   4.903   0.085   6.612 -0.2514 -0.2844 -0.4103
21382SOL    HW165247   4.882   0.003   6.658  1.6049 -1.2716 -1.1840
21382SOL    HW265248   4.820   0.114   6.575 -1.0075 -1.7058  0.0793
21383SOL     OW65249   1.359   3.792   5.578 -0.1015 -0.3762 -0.0980
21383SOL    HW165250   1.310   3.717   5.610 -2.3878  0.2185 -1.9120
21383SOL    HW265251   1.395   3.833   5.657  0.7531 -2.9936  0.9745
21384SOL     OW65252   3.316   8.773   3.876 -0.0814 -0.0840  0.3047
21384SOL    HW165253   3.280   8.856   3.845 -0.2519 -0.8783 -1.7374
21384SOL    HW265254   3.410   8.787   3.877 -0.1478  0.3827  0.7914
21385SOL     OW65255   4.675   9.077   1.090 -0.3048 -0.2099 -0.0320
21385SOL    HW165256   4.600   9.104   1.143  0.7528  3.5938 -0.1423
21385SOL    HW265257   4.638   9.057   1.004 -1.3172  0.3750  0.2526
21386SOL     OW65258   3.871   7.157   6.646  0.3104 -0.0953 -0.3817
21386SOL    HW165259   3.964   7.181   6.653  0.2987 -0.4203  1.5075
21386SOL    HW265260   3.825   7.241   6.643  0.5437  0.1505  1.4862
21387SOL     OW65261   9.029   7.387   4.006  0.3888  0.4360 -0.5106
21387SOL    HW165262   9.095   7.404   3.939  0.0288  0.4100 -0.8805
21387SOL    HW265263   8.976   7.316   3.969  0.6179 -0.0664  0.1156
21388SOL     OW65264   8.789   5.597   0.242 -0.5488  0.9082 -0.1747
21388SOL    HW165265   8.796   5.660   0.314 -3.2626 -0.1145  1.1321
21388SOL    HW265266   8.754   5.518   0.283 -2.6422  0.4126 -2.6720
21389SOL     OW65267   2.431   0.066   2.705  0.1082 -0.3490 -0.2455
21389SOL    HW165268   2.351   0.015   2.699 -0.9569  1.3284 -1.0058
21389SOL    HW265269   2.425   0.111   2.790  0.0869  0.0268 -0.4448
21390SOL     OW65270   1.315   4.948   3.752  0.5107 -0.6931  0.6855
21390SOL    HW165271   1.386   4.993   3.799  0.7827  0.5417 -0.8312
21390SOL    HW265272   1.236   4.993   3.781  0.5697 -0.5991  0.7020
21391SOL     OW65273   3.123   4.371   2.333  0.1870 -0.5508  0.3877
21391SOL    HW165274   3.153   4.382   2.423 -3.2637 -0.1024  1.6569
21391SOL    HW265275   3.166   4.441   2.284  0.6438  0.4544  2.1457
21392SOL     OW65276   0.201   5.540   0.996  0.2201  0.2750 -0.1553
21392SOL    HW165277   0.165   5.610   0.942  2.1204  1.0264 -0.5048
21392SOL    HW265278   0.251   5.584   1.064 -3.0048 -0.5733  3.1258
21393SOL     OW65279   8.634   7.016   6.060 -0.2462 -0.4537  0.1564
21393SOL    HW165280   8.688   6.973   6.127 -1.3160 -0.2338  1.1939
21393SOL    HW265281   8.553   7.037   6.105 -0.9571 -0.1867 -1.1986
21394SOL     OW65282   3.747   6.546   0.831 -0.4389 -0.2922 -0.3534
21394SOL    HW165283   3.802   6.477   0.868 -0.1383  0.6707  1.0897
21394SOL    HW265284   3.759   6.621   0.890 -0.1322  1.2708 -2.2716
21395SOL     OW65285   1.124   7.602   3.245 -0.0361  0.6301 -0.0728
21395SOL    HW165286   1.147   7.667   3.311 -0.1055 -0.1619  0.7387
21395SOL    HW265287   1.209   7.573   3.210  0.0861 -0.2013  0.8908
21396SOL     OW65288   7.456   8.705   3.724  0.1249  0.6121  0.0910
21396SOL    HW165289   7.484   8.785   3.681  0.7796  0.5224  0.3309
21396SOL    HW265290   7.470   8.636   3.659 -1.6388  0.8353 -0.5707
21397SOL     OW65291   6.220   0.197   7.057  0.1524 -0.1532  0.4205
21397SOL    HW165292   6.276   0.121   7.041 -0.3608 -1.1921  2.9703
21397SOL    HW265293   6.139   0.179   7.010  0.9393  0.0887 -1.0850
21398SOL     OW65294   2.425   0.879   4.939  0.3780  0.4184  0.5427
21398SOL    HW165295   2.470   0.885   5.023  0.4857  0.3033  0.4945
21398SOL    HW265296   2.355   0.815   4.953 -1.4875  2.5235  1.3720
21399SOL     OW65297   2.670   8.052   1.539 -0.0269 -0.3764 -0.1722
21399SOL    HW165298   2.576   8.045   1.525 -0.2494  0.0770  0.9654
21399SOL    HW265299   2.693   7.976   1.592  0.3584 -0.7799 -0.8972
21400SOL     OW65300   1.248   8.285   3.456  0.2454  0.2548  0.1392
21400SOL    HW165301   1.157   8.310   3.439 -0.1044 -0.9651  0.1084
21400SOL    HW265302   1.293   8.303   3.373  0.2901  1.8910  0.4917
21401SOL     OW65303   0.343   6.405   8.937 -0.1875 -0.4477  0.8342
21401SOL    HW165304   0.399   6.482   8.925  1.3237 -1.4912  0.8701
21401SOL    HW265305   0.365   6.372   9.024 -1.0837 -0.7273  0.9701
21402SOL     OW65306   6.678   7.237   9.024  0.2233 -0.1463 -0.1033
21402SOL    HW165307   6.620   7.167   8.994  1.9304 -1.6196 -0.1353
21402SOL    HW265308   6.653   7.252   9.115  0.2557 -1.2746  0.1020
21403SOL     OW65309   0.395   1.123   7.476 -0.2057  0.5119 -0.1233
21403SOL    HW165310   0.441   1.074   7.408  0.4049  0.8328  0.0527
21403SOL    HW265311   0.464   1.161   7.530 -0.6772  0.7075  0.3624
21404SOL     OW65312   8.817   6.375   5.526 -0.2650  0.0309  0.4592
21404SOL    HW165313   8.819   6.402   5.618 -0.3379 -0.7205  0.6894
21404SOL    HW265314   8.782   6.451   5.479  1.8471  1.2445  0.7466
21405SOL     OW65315   2.138   2.723   2.106  0.1005  0.2504 -0.6030
21405SOL    HW165316   2.180   2.639   2.126  1.0036  0.8892  0.2771
21405SOL    HW265317   2.136   2.727   2.011  0.5482 -0.5277 -0.6543
21406SOL     OW65318   0.618   7.163   6.614 -0.1710 -0.5847  0.2916
21406SOL    HW165319   0.615   7.107   6.536 -0.4273 -1.7237  1.0859
21406SOL    HW265320   0.537   7.143   6.660  0.0625 -0.0627  0.9352
21407SOL     OW65321   6.970   4.186   5.658  0.0004  0.6308 -0.9061
21407SOL    HW165322   6.910   4.147   5.594 -0.6019 -0.0359  0.0333
21407SOL    HW265323   6.984   4.275   5.627 -1.0235  0.6159 -1.4521
21408SOL     OW65324   6.677   0.025   0.752 -0.2451  0.4045  0.9446
21408SOL    HW165325   6.741   0.059   0.815  0.1926  0.4503  0.4838
21408SOL    HW265326   6.672   0.093   0.684  0.9221 -0.5677 -0.1855
21409SOL     OW65327   6.517   0.509   7.558 -0.2303  0.1142 -0.2318
21409SOL    HW165328   6.527   0.436   7.619 -0.0684  1.2332  1.1249
21409SOL    HW265329   6.503   0.467   7.473  3.1858 -1.5552 -0.1404
21410SOL     OW65330   1.800   8.572   0.306 -0.0990  0.1164  0.0990
21410SOL    HW165331   1.730   8.634   0.288  0.1174  0.4263  0.3236
21410SOL    HW265332   1.758   8.503   0.358 -0.6168 -0.5370 -1.1181
21411SOL     OW65333   4.792   4.815   4.452  0.5635 -0.0053  0.2275
21411SOL    HW165334   4.705   4.835   4.419 -0.3423 -1.0133  1.8373
21411SOL    HW265335   4.849   4.883   4.415 -0.7378  0.1962 -1.5013
21412SOL     OW65336   0.231   3.606   3.717  0.1773 -0.7059 -0.9393
21412SOL    HW165337   0.150   3.604   3.665 -0.0960  0.0685 -0.5664
21412SOL    HW265338   0.208   3.658   3.795  0.9172 -0.8300 -0.6292
21413SOL     OW65339   0.791   4.624   3.158 -0.2207 -0.8151 -0.4305
21413SOL    HW165340   0.832   4.539   3.168 -0.3470 -1.2663 -2.9967
21413SOL    HW265341   0.699   4.605   3.143 -0.4672 -0.1329  0.1374
21414SOL     OW65342   2.846   1.075   4.924  0.4479  0.2879 -0.1582
21414SOL    HW165343   2.780   1.104   4.861 -0.2243  0.6264  0.6890
21414SOL    HW265344   2.811   1.101   5.009  0.6377 -1.4954  0.4942
21415SOL     OW65345   1.182   3.164   1.529  0.2887 -0.2046  0.5096
21415SOL    HW165346   1.271   3.168   1.564 -0.4553  0.9907  2.4226
21415SOL    HW265347   1.127   3.153   1.606 -1.2157 -1.4366 -0.6880
21416SOL     OW65348   1.936   0.940   3.755 -0.2695 -0.1355  0.0208
21416SOL    HW165349   1.964   1.000   3.823  1.4341 -0.9305  0.0618
21416SOL    HW265350   1.885   0.873   3.801 -0.1956  0.0213  0.3282
21417SOL     OW65351   4.811   8.281   7.291  0.1178 -0.4051  0.7268
21417SOL    HW165352   4.759   8.257   7.368 -0.5622  1.1901  0.8081
21417SOL    HW265353   4.900   8.255   7.313 -0.4648 -2.3215  0.9810
21418SOL     OW65354   1.226   6.033   3.764 -0.3844  0.5783  0.7718
21418SOL    HW165355   1.164   5.961   3.764 -0.9423  1.0385  0.2655
21418SOL    HW265356   1.181   6.103   3.716  0.5955  0.8554  0.2219
21419SOL     OW65357   5.610   0.572   4.803 -0.0785  0.0758 -0.0565
21419SOL    HW165358   5.650   0.486   4.793  1.2620  0.8479 -2.1457
21419SOL    HW265359   5.673   0.622   4.855 -0.3016  0.1486  0.1491
21420SOL     OW65360   9.061   9.055   3.811 -0.7146 -0.2284  0.4795
21420SOL    HW165361   9.141   9.097   3.779 -0.0855 -0.6184  1.4943
21420SOL    HW265362   9.035   8.997   3.740  1.6362 -2.4056  1.2432
21421SOL     OW65363   6.153   8.226   2.306 -0.0123 -0.3047 -0.6090
21421SOL    HW165364   6.210   8.292   2.268 -2.2139  1.9061 -0.2870
21421SOL    HW265365   6.150   8.247   2.399 -0.9546 -0.6744 -0.5408
21422SOL     OW65366   8.878   1.089   6.920 -0.4874  0.6664  0.2876
21422SOL    HW165367   8.971   1.071   6.931 -0.5078  1.1376  1.3844
21422SOL    HW265368   8.874   1.164   6.861 -0.2001  0.2809 -0.2246
21423SOL     OW65369   7.582   0.928   8.779 -0.3486  0.3189 -0.1521
21423SOL    HW165370   7.586   1.024   8.773  0.2224  0.3407  0.5081
21423SOL    HW265371   7.668   0.902   8.811 -0.2328 -0.4846 -1.0536
21424SOL     OW65372   8.344   5.130   6.335  0.0832 -0.3597 -0.1465
21424SOL    HW165373   8.404   5.097   6.268 -0.0922  1.0292 -1.0517
21424SOL    HW265374   8.257   5.108   6.301  0.0140 -0.2356 -0.0483
21425SOL     OW65375   1.518   7.964   5.389 -0.1555  0.5948  0.0103
21425SOL    HW165376   1.486   8.054   5.391  2.8577  2.0510 -4.0812
21425SOL    HW265377   1.595   7.965   5.446 -0.7038  0.2676  0.7740
21426SOL     OW65378   5.918   7.448   7.118 -0.1528 -0.0114 -0.2702
21426SOL    HW165379   5.947   7.464   7.208  1.6016 -1.2060 -0.5665
21426SOL    HW265380   5.871   7.365   7.123 -0.4898  0.1712 -0.3859
21427SOL     OW65381   6.100   6.279   8.570  0.3458  0.2098  0.1623
21427SOL    HW165382   6.019   6.263   8.521 -0.3526  1.4190  0.8838
21427SOL    HW265383   6.162   6.307   8.502 -0.1396  0.2714 -0.2709
21428SOL     OW65384   7.301   8.848   4.104 -0.3110 -0.8146  0.0667
21428SOL    HW165385   7.341   8.821   4.187 -1.0331 -0.2433  0.6106
21428SOL    HW265386   7.297   8.767   4.053  1.4469 -0.9135  0.0029
21429SOL     OW65387   4.440   8.294   5.255 -0.5741 -0.4677 -0.2639
21429SOL    HW165388   4.426   8.259   5.343 -0.3878  0.6996  0.2600
21429SOL    HW265389   4.502   8.234   5.214 -0.1779 -0.6871  0.6274
21430SOL     OW65390   1.171   6.686   4.170 -0.6339 -0.4876  0.4150
21430SOL    HW165391   1.194   6.604   4.214 -1.4459 -1.0720 -0.2106
21430SOL    HW265392   1.097   6.663   4.114  0.3290  0.2242 -1.2291
21431SOL     OW65393   0.640   6.748   1.890  0.5085  0.6402  0.6917
21431SOL    HW165394   0.599   6.798   1.820  1.8587  2.6805  1.2849
21431SOL    HW265395   0.587   6.669   1.896 -2.1587  2.2487  0.1377
21432SOL     OW65396   1.177   6.547   0.045  0.3106  0.0125 -0.0706
21432SOL    HW165397   1.251   6.519   0.098  0.8431  1.3794 -0.0561
21432SOL    HW265398   1.176   6.642   0.053 -0.3947  0.1468 -1.4697
21433SOL     OW65399   8.421   0.484   7.756 -0.1317 -0.2557  0.5970
21433SOL    HW165400   8.356   0.538   7.800  0.0436 -0.5661  1.2384
21433SOL    HW265401   8.411   0.506   7.663  0.0963  1.0489  0.8617
21434SOL     OW65402   8.702   6.496   3.201 -0.5673 -0.3017  0.0829
21434SOL    HW165403   8.737   6.581   3.227 -0.2628 -0.4573  0.1758
21434SOL    HW265404   8.607   6.509   3.201 -0.5071  0.5092 -1.4251
21435SOL     OW65405   3.181   1.219   4.800 -0.4197  0.5650  0.1247
21435SOL    HW165406   3.137   1.210   4.885  0.8635  0.0041  0.7670
21435SOL    HW265407   3.173   1.132   4.760 -1.4739  0.9723 -0.5741
21436SOL     OW65408   6.150   4.326   5.863  1.0037  0.0007  0.1486
21436SOL    HW165409   6.119   4.239   5.887  2.8849 -0.7177  0.1230
21436SOL    HW265410   6.078   4.363   5.812 -0.4621 -0.9103  1.4364
21437SOL     OW65411   4.570   8.068   1.517  0.1449 -0.3347  0.0194
21437SOL    HW165412   4.617   8.129   1.461  0.5473  0.3339  1.0630
21437SOL    HW265413   4.638   8.016   1.559 -0.1841 -1.4331 -0.7364
21438SOL     OW65414   7.124   2.715   8.745  0.3966 -0.1458  0.2734
21438SOL    HW165415   7.119   2.655   8.820  0.5665 -0.2583  0.1935
21438SOL    HW265416   7.198   2.684   8.694 -0.8405 -1.2067 -0.9364
21439SOL     OW65417   8.702   1.997   6.484  0.0126  0.1498 -0.1885
21439SOL    HW165418   8.763   2.000   6.557  0.7361 -1.7097 -0.6543
21439SOL    HW265419   8.736   2.060   6.421  1.1188 -0.3951 -0.1627
21440SOL     OW65420   3.601   4.890   2.266 -0.6651  0.2191 -0.0789
21440SOL    HW165421   3.516   4.925   2.292 -0.8197  1.2096 -1.7742
21440SOL    HW265422   3.581   4.807   2.222 -0.8789  0.8388 -1.2043
21441SOL     OW65423   1.737   8.490   8.178 -0.1918  0.0395  0.1047
21441SOL    HW165424   1.702   8.430   8.244 -0.8103  0.7397  0.4260
21441SOL    HW265425   1.669   8.492   8.110  1.2323 -2.1232 -1.5022
21442SOL     OW65426   8.743   3.281   5.479 -0.2213 -0.3478 -0.9295
21442SOL    HW165427   8.833   3.287   5.449  0.0281 -1.6661 -0.5257
21442SOL    HW265428   8.691   3.283   5.399  0.3734 -2.6437 -1.4588
21443SOL     OW65429   1.284   3.890   2.867 -0.0305  0.4394 -0.0285
21443SOL    HW165430   1.343   3.937   2.926  0.6045  1.0602 -1.1129
21443SOL    HW265431   1.326   3.806   2.852 -0.7866 -0.1999  1.3161
21444SOL     OW65432   5.470   2.115   3.969 -0.4437  0.1406 -0.4277
21444SOL    HW165433   5.497   2.174   3.899 -1.3320  1.6094  0.4265
21444SOL    HW265434   5.498   2.028   3.940 -0.8911  0.6946 -2.6425
21445SOL     OW65435   1.374   0.797   2.924 -0.2845 -0.3987  0.5614
21445SOL    HW165436   1.449   0.793   2.864 -0.7278 -1.5235  0.0418
21445SOL    HW265437   1.333   0.710   2.917 -2.8083  0.7736 -0.6878
21446SOL     OW65438   8.309   8.275   4.261 -0.2281 -0.0582  0.5395
21446SOL    HW165439   8.388   8.243   4.217 -0.6860  0.1534 -0.4630
21446SOL    HW265440   8.245   8.205   4.250 -0.9001  0.7062 -0.7286
21447SOL     OW65441   4.464   4.368   6.634  0.2693 -0.1861  0.5287
21447SOL    HW165442   4.442   4.343   6.544  0.8138 -0.5273  0.4853
21447SOL    HW265443   4.438   4.292   6.687  2.0765 -0.9694  0.3794
21448SOL     OW65444   1.246   8.535   4.986  0.2555 -0.3727  0.6341
21448SOL    HW165445   1.171   8.499   4.938 -0.7153  0.0518  1.7630
21448SOL    HW265446   1.320   8.480   4.961  0.1008  0.6035 -2.2984
21449SOL     OW65447   3.961   8.817   3.092 -0.2970  0.3201  0.0052
21449SOL    HW165448   4.039   8.840   3.042 -0.1362 -0.0142  0.0956
21449SOL    HW265449   3.996   8.779   3.173 -0.5540  0.5970  0.2454
21450SOL     OW65450   5.332   6.842   4.229 -1.0623  0.0169  0.6061
21450SOL    HW165451   5.403   6.806   4.176 -1.1299 -0.7524  1.0224
21450SOL    HW265452   5.367   6.925   4.262 -0.2326 -0.5013  1.0594
21451SOL     OW65453   4.526   0.703   8.368 -0.1320  0.5766  0.3393
21451SOL    HW165454   4.498   0.624   8.320 -1.1059  0.9688  0.2391
21451SOL    HW265455   4.510   0.775   8.307 -1.4712  1.0983  1.2352
21452SOL     OW65456   0.624   1.955   3.769 -0.4951  0.0722  0.0116
21452SOL    HW165457   0.572   1.876   3.753  0.0436 -0.1962 -0.4449
21452SOL    HW265458   0.568   2.010   3.825 -1.1393 -0.3441 -0.2145
21453SOL     OW65459   5.580   7.985   1.262 -0.0846  0.0026 -0.5068
21453SOL    HW165460   5.614   7.951   1.345 -0.6387 -2.8586 -1.3474
21453SOL    HW265461   5.652   7.972   1.201 -0.6559 -0.6806 -1.0560
21454SOL     OW65462   3.011   8.129   7.464 -0.1060 -0.0477  0.8999
21454SOL    HW165463   2.918   8.124   7.488 -0.1316  0.7047  0.9927
21454SOL    HW265464   3.014   8.195   7.394  0.3641 -0.0357  0.9266
21455SOL     OW65465   0.389   8.021   1.879  0.2038 -0.0041  0.4279
21455SOL    HW165466   0.466   8.075   1.864  0.0851  0.2147  0.6129
21455SOL    HW265467   0.322   8.081   1.911 -0.1350 -0.1424  0.0052
21456SOL     OW65468   2.553   7.969   7.604 -0.4809 -0.6478  0.0067
21456SOL    HW165469   2.538   7.876   7.620 -0.4237 -0.7784 -0.6682
21456SOL    HW265470   2.486   7.993   7.539  0.2996 -0.5261 -0.7738
21457SOL     OW65471   6.882   2.540   5.022 -0.1183 -0.7237 -0.0374
21457SOL    HW165472   6.942   2.567   5.091  0.2244  1.9474 -1.2444
21457SOL    HW265473   6.939   2.519   4.948 -0.5518  0.6026 -0.7894
21458SOL     OW65474   4.048   6.760   3.002 -0.6488 -0.2645  0.7534
21458SOL    HW165475   4.033   6.666   2.997 -0.3983 -0.3303  1.2372
21458SOL    HW265476   3.962   6.799   2.982 -1.7420 -0.6467  4.0923
21459SOL     OW65477   8.620   1.590   8.495 -0.4828  0.2056  0.2819
21459SOL    HW165478   8.538   1.601   8.543  0.1470  0.7166  1.2594
21459SOL    HW265479   8.596   1.537   8.418 -1.6951  0.2493  0.6188
21460SOL     OW65480   3.550   2.040   1.859 -0.4851 -0.0117  0.0123
21460SOL    HW165481   3.539   2.130   1.828 -0.7887 -0.0597 -0.0192
21460SOL    HW265482   3.543   2.046   1.954  1.8011  0.3443  0.2176
21461SOL     OW65483   3.878   8.299   4.695 -0.6774 -0.2727  0.2020
21461SOL    HW165484   3.835   8.216   4.676 -2.5641  1.0396 -1.8315
21461SOL    HW265485   3.935   8.315   4.619  1.6425 -0.8035  1.7268
21462SOL     OW65486   0.774   6.639   0.604 -0.1101 -0.2739 -0.2966
21462SOL    HW165487   0.717   6.711   0.631  1.1883  0.1574  1.4957
21462SOL    HW265488   0.714   6.573   0.569 -2.0489 -0.6529  3.2505
21463SOL     OW65489   3.909   7.847   0.689 -0.5293 -0.4806 -0.2784
21463SOL    HW165490   3.979   7.853   0.623 -1.0566 -1.2791 -0.9314
21463SOL    HW265491   3.835   7.893   0.650 -0.5542 -0.1486  0.1603
21464SOL     OW65492   5.151   6.370   5.727  0.2015  0.1496  0.3871
21464SOL    HW165493   5.078   6.396   5.783  0.2294 -0.9773  0.9814
21464SOL    HW265494   5.222   6.348   5.788  1.8321  3.2268 -0.1915
21465SOL     OW65495   8.640   0.247   6.890 -0.3918  0.0368 -0.0928
21465SOL    HW165496   8.715   0.232   6.948  0.2051 -0.0359 -0.8681
21465SOL    HW265497   8.661   0.198   6.811 -1.4037 -0.2186 -0.2113
21466SOL     OW65498   3.019   2.220   4.151  0.3253 -0.2710  0.1032
21466SOL    HW165499   3.048   2.276   4.079  0.0219 -0.6557 -0.3226
21466SOL    HW265500   3.092   2.220   4.213  1.1948 -1.1174 -0.8845
21467SOL     OW65501   1.151   2.000   1.749 -0.0539  0.2595 -0.1987
21467SOL    HW165502   1.074   1.980   1.697  0.6033 -1.5150 -0.5572
21467SOL    HW265503   1.202   2.059   1.694  1.1038 -2.3293 -2.1241
21468SOL     OW65504   9.097   3.730   0.237 -0.3197  0.0104 -0.1227
21468SOL    HW165505   9.154   3.691   0.304  1.5684  0.7765 -1.2159
21468SOL    HW265506   9.058   3.655   0.193 -0.1249 -0.5360  0.6101
21469SOL     OW65507   7.444   2.272   1.519 -0.4610  0.1162 -0.2321
21469SOL    HW165508   7.379   2.317   1.466  0.0824 -0.3749 -1.3385
21469SOL    HW265509   7.525   2.278   1.469  0.3300  0.5612  1.0388
21470SOL     OW65510   8.851   6.247   0.733 -0.4053  0.0402 -0.9330
21470SOL    HW165511   8.880   6.170   0.683  2.1982  1.8097 -2.3647
21470SOL    HW265512   8.779   6.283   0.681 -0.0625 -0.1183 -1.5285
21471SOL     OW65513   2.363   7.843   4.103  0.7004 -0.6757 -0.0778
21471SOL    HW165514   2.368   7.867   4.195  1.0262  0.7370 -0.4342
21471SOL    HW265515   2.407   7.759   4.097  0.6078 -0.8135  1.0618
21472SOL     OW65516   4.286   6.814   4.620 -0.4454  0.6987  0.0708
21472SOL    HW165517   4.263   6.900   4.655  1.0705  1.8123 -1.4872
21472SOL    HW265518   4.228   6.801   4.546 -0.2086  0.6957 -0.1151
21473SOL     OW65519   3.031   2.247   2.824  0.4026 -0.0204  1.0123
21473SOL    HW165520   3.035   2.293   2.909  0.8660  1.4297  0.2483
21473SOL    HW265521   2.952   2.281   2.783  0.4490 -0.3451  0.6527
21474SOL     OW65522   5.415   6.580   7.861  0.4386  0.2652 -0.5813
21474SOL    HW165523   5.505   6.582   7.831  1.2485  0.1008  1.6845
21474SOL    HW265524   5.421   6.565   7.955 -1.8728  2.2894 -0.0057
21475SOL     OW65525   5.147   7.914   5.873 -0.3478 -0.2443  0.1874
21475SOL    HW165526   5.210   7.967   5.923  1.4906 -0.0491 -2.1497
21475SOL    HW265527   5.175   7.824   5.887 -0.4121 -0.2522  0.2632
21476SOL     OW65528   4.157   0.700   6.595 -0.0608 -0.2097  0.5297
21476SOL    HW165529   4.247   0.707   6.626 -0.2842  0.9319  0.9726
21476SOL    HW265530   4.120   0.626   6.643  0.8121 -1.1132 -0.1350
21477SOL     OW65531   1.142   4.231   0.020 -0.2223 -0.0692 -0.1966
21477SOL    HW165532   1.225   4.230  -0.028 -0.9672 -0.5311 -1.5393
21477SOL    HW265533   1.084   4.173  -0.030 -0.5124 -2.1045  2.2982
21478SOL     OW65534   3.867   3.133   3.645 -0.3511  0.0179 -0.4966
21478SOL    HW165535   3.908   3.047   3.648  0.6293  0.4681 -0.6052
21478SOL    HW265536   3.841   3.150   3.736  1.3339  0.4709 -0.0685
21479SOL     OW65537   0.614   4.944   4.843  0.3747 -0.2111  0.1521
21479SOL    HW165538   0.534   4.895   4.825 -0.2386  1.3889 -1.8404
21479SOL    HW265539   0.671   4.923   4.769  0.4146  1.3809 -0.2920
21480SOL     OW65540   3.016   0.507   5.158  0.0376 -0.0065 -0.1842
21480SOL    HW165541   3.081   0.572   5.187 -0.5777  0.1145  0.9921
21480SOL    HW265542   2.936   0.531   5.205 -1.3724  0.8502 -2.8060
21481SOL     OW65543   1.458   0.917   0.286  0.5696  0.0120  0.1457
21481SOL    HW165544   1.482   0.957   0.369 -0.9394  0.8625  0.2049
21481SOL    HW265545   1.455   0.990   0.224  0.8645 -0.4886 -0.4643
21482SOL     OW65546   8.736   3.963   5.916  0.1088  0.0947  0.4774
21482SOL    HW165547   8.647   3.996   5.906 -0.4960 -1.6403 -0.3042
21482SOL    HW265548   8.776   3.974   5.830  0.7786  1.1409  0.9010
21483SOL     OW65549   3.080   3.515   3.129  0.4373  0.5136 -0.1662
21483SOL    HW165550   3.101   3.434   3.082 -2.2184  0.1781 -0.9834
21483SOL    HW265551   3.156   3.571   3.115  0.5204 -0.1821 -3.5217
21484SOL     OW65552   5.432   6.504   2.985  0.3416  0.0251  0.0717
21484SOL    HW165553   5.458   6.533   2.897 -2.2244  1.4306 -0.3586
21484SOL    HW265554   5.420   6.586   3.034 -0.2000 -0.6489  1.1010
21485SOL     OW65555   5.148   2.678   3.785 -0.7100  0.2640  0.3207
21485SOL    HW165556   5.234   2.720   3.788  0.7510 -2.0621 -2.7406
21485SOL    HW265557   5.116   2.681   3.875  1.9952  2.3008  1.3507
21486SOL     OW65558   8.458   4.678   1.469 -0.1701  0.3383 -0.5867
21486SOL    HW165559   8.524   4.619   1.433  1.0501  1.3280 -0.0435
21486SOL    HW265560   8.389   4.680   1.403  0.9345  0.2661 -1.7798
21487SOL     OW65561   3.133   0.998   1.684 -0.1016 -0.6740 -0.0075
21487SOL    HW165562   3.075   1.069   1.657 -0.7529 -1.1572  0.0948
21487SOL    HW265563   3.080   0.919   1.674  0.0556 -0.9953  1.4803
21488SOL     OW65564   6.554   4.152   1.761 -0.4372 -0.1094  1.0910
21488SOL    HW165565   6.511   4.079   1.717  1.5767 -2.5328  2.8652
21488SOL    HW265566   6.504   4.165   1.841 -0.6650  0.3379  0.8795
21489SOL     OW65567   3.126   1.464   8.255  0.7558  0.2804  0.2131
21489SOL    HW165568   3.038   1.473   8.292  1.4998  1.5431  1.8549
21489SOL    HW265569   3.137   1.543   8.201  0.5408 -0.3756 -0.8125
21490SOL     OW65570   1.341   8.627   1.071  0.1212 -0.0594 -0.6101
21490SOL    HW165571   1.277   8.694   1.096 -0.1481 -0.7806  0.7317
21490SOL    HW265572   1.426   8.671   1.080 -0.0667  0.1954 -0.0288
21491SOL     OW65573   7.844   8.789   7.179  0.0390 -0.0931  0.0241
21491SOL    HW165574   7.749   8.795   7.171 -0.4513 -0.5559  3.7056
21491SOL    HW265575   7.862   8.695   7.187  0.5215  0.0963  1.3950
21492SOL     OW65576   1.677   0.535   0.107 -0.0556 -0.6030  0.0166
21492SOL    HW165577   1.636   0.561   0.189  1.0531 -0.7493  0.6310
21492SOL    HW265578   1.655   0.604   0.045 -1.5267 -0.8583  0.2212
21493SOL     OW65579   4.195   2.103   2.458  0.7171 -0.1631  0.6392
21493SOL    HW165580   4.202   2.139   2.370 -0.1164  0.0421  0.6502
21493SOL    HW265581   4.277   2.056   2.471  0.8957 -0.1022 -0.2049
21494SOL     OW65582   1.870   2.477   6.571  0.4072  0.1068  0.3726
21494SOL    HW165583   1.921   2.441   6.498 -0.2703  0.1478 -0.1318
21494SOL    HW265584   1.802   2.411   6.587  1.1612 -0.4010  1.6671
21495SOL     OW65585   3.174   7.054   4.767 -0.3460 -0.5390 -0.1246
21495SOL    HW165586   3.197   7.121   4.703 -1.8623 -0.7078 -0.8781
21495SOL    HW265587   3.231   7.072   4.842 -0.9453  1.7968 -0.1632
21496SOL     OW65588   2.624   1.078   1.494  0.7180 -0.1386 -0.2758
21496SOL    HW165589   2.582   1.151   1.539  0.1505 -0.7971  0.2668
21496SOL    HW265590   2.660   1.117   1.414  0.1458  0.6707 -0.1465
21497SOL     OW65591   3.082   4.025   5.541  0.4133  0.8994  0.6741
21497SOL    HW165592   2.999   3.987   5.514  2.4558 -2.1583 -2.0135
21497SOL    HW265593   3.119   3.961   5.602  2.2439  0.3990 -0.8730
21498SOL     OW65594   2.645   5.036   3.554  0.1329  0.2823  0.4634
21498SOL    HW165595   2.636   5.091   3.476  2.5904  1.2123  0.7150
21498SOL    HW265596   2.631   4.947   3.523 -0.5594  0.7724 -0.6937
21499SOL     OW65597   8.288   6.258   0.653  0.7375 -0.8281 -0.0565
21499SOL    HW165598   8.331   6.212   0.726  1.3223 -0.0088  0.1247
21499SOL    HW265599   8.310   6.350   0.667  0.6464 -0.6358 -1.1427
21500SOL     OW65600   5.844   2.263   4.251 -0.1582  0.0832 -0.6363
21500SOL    HW165601   5.865   2.191   4.191 -0.5850 -0.7826  0.2232
21500SOL    HW265602   5.801   2.220   4.325 -2.6011  1.4466 -1.1358
21501SOL     OW65603   7.442   9.094   1.930 -0.2323  0.2643 -0.4734
21501SOL    HW165604   7.399   9.107   2.014  0.5510 -0.3404  0.0351
21501SOL    HW265605   7.446   8.999   1.920  2.4697  0.2250  0.3044
21502SOL     OW65606   0.013   1.788   1.458 -0.5058 -0.1883 -0.0996
21502SOL    HW165607   0.024   1.882   1.445 -0.8111 -0.0138  0.8555
21502SOL    HW265608   0.009   1.752   1.369  1.8003  0.4272 -0.5163
21503SOL     OW65609   3.730   7.824   6.473 -0.3759  0.9045 -0.3825
21503SOL    HW165610   3.713   7.866   6.557  1.7759  1.1336 -0.0174
21503SOL    HW265611   3.698   7.734   6.484  0.0238  0.8832  0.7531
21504SOL     OW65612   3.172   6.885   7.621 -0.5070 -0.0373  0.0161
21504SOL    HW165613   3.158   6.942   7.546 -1.4492  0.8477  0.8304
21504SOL    HW265614   3.098   6.824   7.620 -0.5416 -0.0008  0.2401
21505SOL     OW65615   2.923   7.394   3.319  0.0745 -0.2105 -0.3094
21505SOL    HW165616   2.948   7.398   3.411  0.6561  0.0819 -0.4714
21505SOL    HW265617   2.912   7.485   3.293  0.2221 -0.2712 -0.6025
21506SOL     OW65618   3.722   6.371   6.540  0.5745  0.0628 -0.2382
21506SOL    HW165619   3.734   6.463   6.516  2.5040  0.1605  0.9244
21506SOL    HW265620   3.799   6.349   6.592  0.1094 -2.2070 -0.4086
21507SOL     OW65621   2.782   0.271   5.297 -0.0840 -0.1601  0.3977
21507SOL    HW165622   2.705   0.216   5.282 -0.7936  0.7784  0.5515
21507SOL    HW265623   2.761   0.354   5.254  1.2168 -0.1859 -0.3320
21508SOL     OW65624   6.168   7.963   2.702 -0.2376 -0.0125 -0.0631
21508SOL    HW165625   6.079   7.992   2.722  0.1785 -0.2188  2.4738
21508SOL    HW265626   6.166   7.869   2.716  0.7675  0.2095  2.0227
21509SOL     OW65627   3.051   4.872   3.331  0.3048 -0.0564  0.0866
21509SOL    HW165628   2.983   4.821   3.287 -2.3725  2.7545  0.5760
21509SOL    HW265629   3.093   4.922   3.261 -1.1874  1.4118  0.1874
21510SOL     OW65630   6.297   5.724   2.775  0.3480 -0.0781  0.0503
21510SOL    HW165631   6.207   5.753   2.765  1.0898  1.9926 -1.2610
21510SOL    HW265632   6.296   5.669   2.854 -1.7008  1.3534  1.1124
21511SOL     OW65633   6.214   0.008   2.239  0.9193  0.5342  0.6539
21511SOL    HW165634   6.130  -0.024   2.208  0.2498  2.4461  0.4003
21511SOL    HW265635   6.274  -0.066   2.226 -0.5255 -0.5756  0.0654
21512SOL     OW65636   0.190   3.503   5.943 -0.2439 -0.0904  0.2198
21512SOL    HW165637   0.252   3.532   6.010 -0.7515 -0.3678  0.8288
21512SOL    HW265638   0.244   3.454   5.881  0.0805 -0.7822  1.0175
21513SOL     OW65639   5.222   6.903   8.198 -0.4611 -0.3149  0.7589
21513SOL    HW165640   5.142   6.870   8.239 -0.3166 -1.2771  0.3027
21513SOL    HW265641   5.213   6.878   8.106  0.6097 -0.9322  0.8094
21514SOL     OW65642   8.674   9.043   2.355  0.1175  0.0543  0.1468
21514SOL    HW165643   8.596   9.031   2.300 -0.4628 -0.5777  1.0813
21514SOL    HW265644   8.640   9.069   2.440  0.7622 -2.0751  1.1294
21515SOL     OW65645   0.103   5.300   4.365  0.1415  0.4675  0.0607
21515SOL    HW165646   0.159   5.226   4.342  1.7656  1.7272 -0.2562
21515SOL    HW265647   0.033   5.298   4.300  2.2825  1.4179 -2.4705
21516SOL     OW65648   8.710   0.932   4.935 -0.2772 -0.0965  0.2049
21516SOL    HW165649   8.621   0.909   4.962 -1.4678  0.9382 -2.5697
21516SOL    HW265650   8.724   1.019   4.972  0.3963 -0.9838  2.2185
21517SOL     OW65651   4.495   5.597   4.556 -0.1218 -0.2635  0.1022
21517SOL    HW165652   4.540   5.513   4.570  1.3394  0.3151 -0.8113
21517SOL    HW265653   4.526   5.652   4.628 -1.1168 -0.5072  0.7277
21518SOL     OW65654   8.779   5.880   1.948  0.0476 -0.1392 -0.8297
21518SOL    HW165655   8.824   5.863   2.031  0.9173  0.6536 -1.1204
21518SOL    HW265656   8.810   5.810   1.890  1.9057  1.0617 -1.3809
21519SOL     OW65657   2.356   2.780   2.328 -0.3323  0.2491 -0.2217
21519SOL    HW165658   2.330   2.728   2.403 -1.7534  2.2122  0.7479
21519SOL    HW265659   2.307   2.743   2.255 -0.8047 -0.1921  0.3117
21520SOL     OW65660   8.906   2.006   5.281  0.1523  0.2394  0.2341
21520SOL    HW165661   8.890   2.051   5.198 -0.3266  1.7018  1.0846
21520SOL    HW265662   8.888   1.914   5.262  0.9107  0.4133 -1.5000
21521SOL     OW65663   3.112   1.786   8.560 -0.1130 -0.4759  0.2420
21521SOL    HW165664   3.057   1.827   8.626 -0.4610  0.0915 -0.3891
21521SOL    HW265665   3.062   1.795   8.479  0.8259 -0.1106 -0.3098
21522SOL     OW65666   7.708   0.448   4.671 -0.0943  0.2036  0.2155
21522SOL    HW165667   7.644   0.403   4.725 -0.0926  1.5341  1.3905
21522SOL    HW265668   7.790   0.440   4.720  0.7037 -1.4816 -1.2654
21523SOL     OW65669   2.369   0.357   8.364  0.2098  0.2577 -0.1336
21523SOL    HW165670   2.400   0.270   8.390 -0.3657  0.3603  0.9551
21523SOL    HW265671   2.310   0.340   8.291  0.5857 -0.2019 -0.3412
21524SOL     OW65672   0.299   4.560   7.262 -0.2983 -0.2119  0.0049
21524SOL    HW165673   0.270   4.587   7.349 -0.0041 -1.4156  0.4964
21524SOL    HW265674   0.391   4.585   7.259 -0.4303  0.2822 -0.1694
21525SOL     OW65675   1.057   7.576   8.277  0.0432  0.2943 -0.4655
21525SOL    HW165676   1.143   7.585   8.237  0.6042 -0.3226  0.5619
21525SOL    HW265677   1.016   7.662   8.263  0.7414  0.5330 -1.1395
21526SOL     OW65678   6.832   7.723   1.407 -0.7803 -0.0758  0.3928
21526SOL    HW165679   6.927   7.727   1.397 -0.6771  0.7015  1.4976
21526SOL    HW265680   6.804   7.656   1.345  0.5628 -0.7960  0.5222
21527SOL     OW65681   4.331   1.312   6.856 -0.6114  0.6887 -0.6585
21527SOL    HW165682   4.394   1.253   6.814 -0.7457  0.5203 -0.6242
21527SOL    HW265683   4.355   1.399   6.824  0.7231  0.8481  0.6616
21528SOL     OW65684   1.643   0.354   5.306  0.3285  0.0332 -0.1821
21528SOL    HW165685   1.664   0.447   5.297 -0.5969  0.1716 -1.1740
21528SOL    HW265686   1.721   0.308   5.278 -0.0449  0.5230 -2.1751
21529SOL     OW65687   6.058   3.992   0.729 -0.1681 -0.2398 -0.0266
21529SOL    HW165688   6.000   3.986   0.805 -2.6570 -1.0789 -1.8457
21529SOL    HW265689   6.135   3.941   0.753 -0.2690  0.6266  2.3792
21530SOL     OW65690   8.531   4.778   0.572  0.1897  0.7807  0.5499
21530SOL    HW165691   8.524   4.757   0.666 -0.1260  0.5720  0.4796
21530SOL    HW265692   8.574   4.864   0.571 -0.9671  1.3861  0.9399
21531SOL     OW65693   6.285   3.449   0.659 -0.2191 -0.4465 -0.9203
21531SOL    HW165694   6.209   3.496   0.693 -1.3146 -1.4465 -1.8792
21531SOL    HW265695   6.314   3.394   0.731 -0.8965 -0.6200 -0.7695
21532SOL     OW65696   7.831   3.968   6.752 -0.0721 -0.8724 -0.4707
21532SOL    HW165697   7.886   3.910   6.699 -0.2808 -1.5667  0.0648
21532SOL    HW265698   7.890   4.038   6.779  0.3453 -1.1731 -0.5902
21533SOL     OW65699   7.498   7.225   8.096 -0.3014 -0.2483  0.2750
21533SOL    HW165700   7.482   7.153   8.157  0.2076  0.5162  1.3255
21533SOL    HW265701   7.450   7.299   8.133  2.2830  1.0152  1.3474
21534SOL     OW65702   7.103   2.243   5.753 -0.2120  0.1698 -0.4659
21534SOL    HW165703   7.109   2.338   5.742 -0.4683 -0.1179 -4.2350
21534SOL    HW265704   7.008   2.226   5.753 -0.1909 -0.0803  1.0062
21535SOL     OW65705   3.941   0.427   8.950  0.1417  0.6815 -0.6740
21535SOL    HW165706   3.894   0.500   8.990 -0.0992  0.1228  0.0730
21535SOL    HW265707   4.005   0.401   9.016  0.9666  0.9028 -1.3590
21536SOL     OW65708   0.789   3.017   3.377 -0.0785  0.3483  0.2790
21536SOL    HW165709   0.819   2.990   3.464 -1.1044  0.4306  0.6695
21536SOL    HW265710   0.848   2.972   3.317  1.6830  1.5391  1.0247
21537SOL     OW65711   4.477   0.019   8.044  0.0470 -0.3521 -0.2638
21537SOL    HW165712   4.472  -0.059   7.989 -0.9602  0.2888 -1.1259
21537SOL    HW265713   4.403   0.010   8.104  0.7234 -0.7022  0.5325
21538SOL     OW65714   1.200   0.722   0.874 -0.4152  0.0433  0.3078
21538SOL    HW165715   1.268   0.657   0.891 -1.1682 -1.3238 -1.6061
21538SOL    HW265716   1.224   0.760   0.789 -0.1712  2.0840  1.2274
21539SOL     OW65717   2.372   7.494   1.763 -0.9301  0.2253 -0.2009
21539SOL    HW165718   2.467   7.491   1.759 -0.9230  0.4568 -0.2197
21539SOL    HW265719   2.348   7.419   1.817 -0.6547  1.0387  1.0794
21540SOL     OW65720   3.541   7.194   4.738 -0.8463  0.5083  0.3577
21540SOL    HW165721   3.590   7.261   4.690 -0.5835 -0.4143 -0.7286
21540SOL    HW265722   3.463   7.178   4.684  0.4146 -1.9712 -0.9618
21541SOL     OW65723   6.303   8.662   7.532  0.3620 -0.2429 -0.5099
21541SOL    HW165724   6.217   8.703   7.533  0.1759 -0.6278  0.2761
21541SOL    HW265725   6.296   8.588   7.593  1.4954  0.2563  0.2696
21542SOL     OW65726   1.898   0.588   0.793  0.4161  0.7071 -0.7467
21542SOL    HW165727   1.931   0.557   0.877 -2.2636 -1.9659 -0.4910
21542SOL    HW265728   1.955   0.547   0.728  0.9697  0.7307 -0.2797
21543SOL     OW65729   5.216   8.621   7.401  0.3118  0.2021 -0.5926
21543SOL    HW165730   5.285   8.682   7.429 -0.3552  1.0765 -0.7991
21543SOL    HW265731   5.261   8.538   7.388  1.2203  0.6119 -0.1508
21544SOL     OW65732   3.664   5.904   4.857  0.0068 -0.1151  0.3235
21544SOL    HW165733   3.607   5.857   4.796 -0.3009  0.9603 -0.2387
21544SOL    HW265734   3.607   5.929   4.929 -0.1510  0.5871 -0.0360
21545SOL     OW65735   2.335   3.562   7.074 -0.2510 -0.8208  0.5232
21545SOL    HW165736   2.292   3.590   7.155  0.1458  0.1220  0.4105
21545SOL    HW265737   2.393   3.634   7.050 -0.9887 -0.7144 -1.0754
21546SOL     OW65738   4.503   2.342   6.987  0.0062 -0.6720  0.3805
21546SOL    HW165739   4.590   2.306   7.004 -0.1128 -0.6595  1.0131
21546SOL    HW265740   4.519   2.434   6.965  0.2882 -1.0285 -1.0080
21547SOL     OW65741   5.071   9.026   9.058 -0.0378 -0.5319 -0.3245
21547SOL    HW165742   5.139   9.093   9.063  1.0220 -1.5324 -0.8561
21547SOL    HW265743   4.996   9.065   9.102  1.7958 -0.5536  3.1476
21548SOL     OW65744   1.936   7.632   0.507 -0.2789  0.1779  0.8946
21548SOL    HW165745   1.881   7.619   0.584 -0.4193  1.8629  1.1192
21548SOL    HW265746   1.898   7.574   0.441  0.0101 -1.5098  2.1183
21549SOL     OW65747   4.769   1.382   2.487 -0.6111  0.1251  0.3346
21549SOL    HW165748   4.864   1.369   2.491 -0.5691  0.1272 -0.4602
21549SOL    HW265749   4.750   1.447   2.554 -0.1145 -0.2198  0.8176
21550SOL     OW65750   2.417   2.701   7.520 -0.0500 -0.6504 -0.3172
21550SOL    HW165751   2.369   2.722   7.600 -1.7779  1.0834 -1.6989
21550SOL    HW265752   2.353   2.659   7.464  0.3587  0.5124 -1.7194
21551SOL     OW65753   4.563   4.114   0.507 -0.0536 -0.3155  0.6311
21551SOL    HW165754   4.648   4.139   0.472 -0.0572  1.5967  1.8577
21551SOL    HW265755   4.518   4.196   0.522 -2.1464 -1.3002  0.0331
21552SOL     OW65756   8.892   4.482   8.163 -0.0435 -0.4244  0.2543
21552SOL    HW165757   8.838   4.546   8.118  1.3678  1.6010  1.2890
21552SOL    HW265758   8.836   4.447   8.233 -1.8019 -2.6171 -2.0802
21553SOL     OW65759   1.811   4.597   3.981  0.0791  0.2451 -0.1577
21553SOL    HW165760   1.809   4.503   4.002  0.5381  0.3830  0.5374
21553SOL    HW265761   1.726   4.630   4.010 -0.5139 -0.1476 -1.3887
21554SOL     OW65762   7.535   7.758   0.894 -0.5995 -0.2738  0.2652
21554SOL    HW165763   7.582   7.675   0.896  1.8799  1.0556  0.6377
21554SOL    HW265764   7.512   7.776   0.985 -2.2276 -1.0506  0.0586
21555SOL     OW65765   1.913   3.802   0.660  0.3076 -0.1351 -0.2999
21555SOL    HW165766   1.843   3.831   0.720  0.8648  0.4187  0.0928
21555SOL    HW265767   1.908   3.863   0.587 -1.4265 -1.7640 -1.6495
21556SOL     OW65768   3.438   4.227   8.504 -0.0940 -0.6380  0.0246
21556SOL    HW165769   3.435   4.140   8.543  2.4240 -1.0066 -0.4416
21556SOL    HW265770   3.456   4.286   8.578 -0.1132 -0.7212  0.0954
21557SOL     OW65771   4.238   3.946   7.884 -0.1435  0.0445 -0.2686
21557SOL    HW165772   4.285   4.020   7.848 -0.9842  0.5931 -0.2740
21557SOL    HW265773   4.156   3.943   7.834 -0.0869 -0.9315 -0.3219
21558SOL     OW65774   2.094   0.283   4.665 -0.1563  0.2459  0.0059
21558SOL    HW165775   2.037   0.230   4.722  1.2770  0.3722  1.6658
21558SOL    HW265776   2.122   0.223   4.596 -1.3410 -0.1356 -0.1652
21559SOL     OW65777   0.702   3.428   2.911  0.2178  0.1215  0.1505
21559SOL    HW165778   0.795   3.449   2.903 -0.3261  2.0460 -2.3385
21559SOL    HW265779   0.679   3.454   3.000  1.6841  1.2969  0.2236
21560SOL     OW65780   7.596   3.835   6.139  0.2890  0.3773 -0.1979
21560SOL    HW165781   7.554   3.893   6.075  0.5194  0.7623 -0.0016
21560SOL    HW265782   7.607   3.889   6.217 -0.0640 -0.1131  0.2019
21561SOL     OW65783   5.179   8.050   3.996 -0.0181  1.1317 -0.4836
21561SOL    HW165784   5.160   8.012   4.082 -0.5392  0.2202 -0.9861
21561SOL    HW265785   5.165   8.144   4.008 -0.1548  1.0086  0.4075
21562SOL     OW65786   7.946   2.879   2.156  0.2238  0.8017  0.2298
21562SOL    HW165787   7.982   2.956   2.113  0.2688  0.1715 -0.8954
21562SOL    HW265788   7.958   2.808   2.092 -1.5851  0.2593  0.4458
21563SOL     OW65789   1.666   8.379   6.222 -0.1263  0.0028  0.0081
21563SOL    HW165790   1.599   8.400   6.157 -1.4968  1.0232  1.6757
21563SOL    HW265791   1.744   8.424   6.190 -0.7444  0.4498 -0.9499
21564SOL     OW65792   5.451   4.614   5.314  0.4894 -0.0969 -0.5207
21564SOL    HW165793   5.490   4.623   5.401  0.4724 -0.7663 -0.4392
21564SOL    HW265794   5.360   4.640   5.325  0.8744  1.4111 -0.6968
21565SOL     OW65795   8.220   4.348   7.147  0.3148 -0.0818  0.5603
21565SOL    HW165796   8.250   4.413   7.084  1.5800 -0.3382  0.8654
21565SOL    HW265797   8.242   4.264   7.107 -1.5113 -0.3738  0.0633
21566SOL     OW65798   2.582   8.375   6.023  0.4091 -0.5215 -0.2083
21566SOL    HW165799   2.624   8.322   5.955  1.0090 -2.7612  1.7899
21566SOL    HW265800   2.489   8.354   6.016  0.6331 -1.7962  0.5101
21567SOL     OW65801   4.445   1.671   7.357 -0.1554 -0.0591 -0.1878
21567SOL    HW165802   4.502   1.648   7.431  0.0001 -2.9278 -1.0785
21567SOL    HW265803   4.364   1.623   7.372 -0.9007  0.9284 -0.8865
21568SOL     OW65804   3.436   0.665   0.880  0.1706  0.0660  0.2625
21568SOL    HW165805   3.366   0.656   0.944  0.0883 -0.9284  0.0450
21568SOL    HW265806   3.391   0.676   0.796  0.2818 -0.0027  0.1940
21569SOL     OW65807   1.327   3.973   4.018 -0.3514 -0.1855 -0.6029
21569SOL    HW165808   1.391   3.984   3.947 -0.6785  0.4111 -0.8140
21569SOL    HW265809   1.332   4.055   4.067  0.8427 -1.0971  0.8987
21570SOL     OW65810   0.302   6.059   1.214  0.1825 -0.5312  0.2313
21570SOL    HW165811   0.311   5.993   1.283  1.0312 -0.1101  0.5420
21570SOL    HW265812   0.391   6.074   1.183 -0.1031 -0.1500 -0.4231
21571SOL     OW65813   5.412   2.166   6.939 -0.1136  0.0254  0.5550
21571SOL    HW165814   5.386   2.161   6.847  2.4448  1.9593 -0.3829
21571SOL    HW265815   5.470   2.243   6.944 -1.3202  0.9199  4.0941
21572SOL     OW65816   0.914   1.479   6.200 -0.3949  0.1829 -0.0063
21572SOL    HW165817   0.952   1.444   6.281 -1.0988 -0.7169 -0.0556
21572SOL    HW265818   0.829   1.513   6.226  0.4426  2.3478  0.1323
21573SOL     OW65819   2.156   5.245   5.089  0.8291  0.5978  0.2132
21573SOL    HW165820   2.191   5.323   5.131 -0.2369  1.2229 -0.0387
21573SOL    HW265821   2.129   5.188   5.162 -2.3426  2.2628  0.5157
21574SOL     OW65822   5.432   0.350   6.702 -0.5197 -0.7494 -0.4687
21574SOL    HW165823   5.349   0.346   6.749  0.1772  1.4107  1.1245
21574SOL    HW265824   5.428   0.431   6.652  1.0546  0.0386  0.5965
21575SOL     OW65825   2.580   6.344   6.283 -0.8561 -0.3574  0.4913
21575SOL    HW165826   2.620   6.379   6.203 -1.1144 -2.1014 -0.4532
21575SOL    HW265827   2.529   6.418   6.318  0.4704  0.8882 -0.1040
21576SOL     OW65828   6.710   0.102   8.885 -0.5064 -0.1433 -0.3085
21576SOL    HW165829   6.800   0.130   8.901 -0.6875 -0.6210  1.7442
21576SOL    HW265830   6.662   0.126   8.965 -1.5497 -2.5518 -0.1382
21577SOL     OW65831   5.030   1.394   2.856  0.0721 -0.1064  0.1343
21577SOL    HW165832   4.963   1.462   2.863 -0.1828 -0.4741  1.6663
21577SOL    HW265833   5.053   1.374   2.947  2.1157 -0.1282 -0.3417
21578SOL     OW65834   6.249   4.382   3.319 -0.3231 -0.4886 -0.0296
21578SOL    HW165835   6.217   4.461   3.361 -0.2600 -0.7436  0.5009
21578SOL    HW265836   6.304   4.340   3.384  1.6823  0.2764 -1.1409
21579SOL     OW65837   0.704   8.204   8.136  0.0187  0.2467 -0.0072
21579SOL    HW165838   0.764   8.244   8.073 -0.1906 -0.0994 -0.4340
21579SOL    HW265839   0.747   8.215   8.221  0.8197 -0.2253 -0.3392
21580SOL     OW65840   3.929   5.310   0.741 -0.2656  0.1647  0.2599
21580SOL    HW165841   3.849   5.347   0.703  0.7780  0.8157 -1.3902
21580SOL    HW265842   3.949   5.235   0.686  0.6939  0.4890  0.1452
21581SOL     OW65843   5.479   2.252   3.369  0.5312 -0.8128 -0.2981
21581SOL    HW165844   5.528   2.329   3.338 -1.1008  0.2498 -0.3749
21581SOL    HW265845   5.401   2.251   3.315 -1.4225 -0.1393  2.3040
21582SOL     OW65846   0.905   7.995   4.716  0.4099  0.0886  0.1983
21582SOL    HW165847   0.884   7.905   4.692 -1.8490  0.4770  0.5460
21582SOL    HW265848   0.996   8.007   4.688 -0.2815 -1.2132 -2.9911
21583SOL     OW65849   2.082   0.142   7.557  0.6365  0.0051  0.4297
21583SOL    HW165850   2.143   0.118   7.627 -0.4895 -2.1390  0.7626
21583SOL    HW265851   2.042   0.223   7.587  0.3868 -0.7172  2.1726
21584SOL     OW65852   6.235   7.491   5.368  0.1373  0.6427 -0.7624
21584SOL    HW165853   6.289   7.500   5.290  0.3109 -0.8398 -0.8399
21584SOL    HW265854   6.296   7.499   5.441  0.0971  1.2668 -0.7995
21585SOL     OW65855   4.498   1.004   3.478  0.0793 -0.3256 -0.0811
21585SOL    HW165856   4.440   1.053   3.419 -0.0981 -1.1167 -0.5753
21585SOL    HW265857   4.576   0.985   3.426 -0.2713 -1.4336 -0.2281
21586SOL     OW65858   2.621   8.683   1.220  0.4897 -0.5353 -0.0986
21586SOL    HW165859   2.664   8.719   1.297 -2.7322  1.4164  1.0038
21586SOL    HW265860   2.540   8.644   1.253 -1.1943  0.6730 -2.4204
21587SOL     OW65861   2.260   5.821   8.643  0.5090 -0.4340 -0.5013
21587SOL    HW165862   2.192   5.772   8.596 -1.4282  0.4026  1.2341
21587SOL    HW265863   2.231   5.912   8.639  0.6686 -0.2371  1.5449
21588SOL     OW65864   0.765   8.124   1.619  0.1981  0.3758 -0.2101
21588SOL    HW165865   0.787   8.213   1.592  0.4409  0.1073 -0.9071
21588SOL    HW265866   0.774   8.072   1.540  1.4043 -0.5120  0.4900
21589SOL     OW65867   7.366   2.093   8.373 -0.2962 -0.1912 -0.4824
21589SOL    HW165868   7.296   2.040   8.333  1.0735 -0.4298 -2.7231
21589SOL    HW265869   7.336   2.183   8.363 -1.0082 -0.3409  0.1150
21590SOL     OW65870   3.760   7.003   6.444  0.5169  0.2063  0.1401
21590SOL    HW165871   3.799   7.073   6.496  1.3297  0.5557 -0.9033
21590SOL    HW265872   3.835   6.956   6.407 -0.0374 -0.1034 -0.6223
21591SOL     OW65873   6.110   3.735   2.813 -0.6970  0.3129 -0.0427
21591SOL    HW165874   6.049   3.727   2.740 -0.2068 -0.2884 -0.4001
21591SOL    HW265875   6.057   3.767   2.886 -1.0306  1.7368 -0.8679
21592SOL     OW65876   2.376   5.664   5.131  0.0783  0.3967  0.5308
21592SOL    HW165877   2.414   5.705   5.054 -0.7921  2.6926  1.2591
21592SOL    HW265878   2.282   5.660   5.113 -0.1036  0.7235  1.3705
21593SOL     OW65879   5.598   0.631   7.974 -0.0779  0.6065 -0.2762
21593SOL    HW165880   5.652   0.636   8.053 -0.3580 -0.0146 -0.0446
21593SOL    HW265881   5.592   0.722   7.944  1.3959  0.6474 -0.5159
21594SOL     OW65882   6.977   0.802   5.428  0.1441  0.6408 -0.3447
21594SOL    HW165883   7.021   0.826   5.347  0.8614  0.0350 -0.1554
21594SOL    HW265884   7.026   0.726   5.460  0.5943  1.5298  1.2228
21595SOL     OW65885   0.252   7.353   5.406  0.1349 -0.1249  0.3926
21595SOL    HW165886   0.323   7.348   5.341 -0.7736 -1.0031 -0.5564
21595SOL    HW265887   0.172   7.356   5.355 -0.5490  0.6332  1.4618
21596SOL     OW65888   0.580   5.865   1.773 -0.0190  0.0364 -0.0672
21596SOL    HW165889   0.593   5.933   1.839 -1.0491  1.6452 -1.4537
21596SOL    HW265890   0.651   5.803   1.789  0.7697  1.2587  1.4444
21597SOL     OW65891   8.022   2.265   7.943  0.5846  0.2049 -0.5313
21597SOL    HW165892   7.964   2.223   8.007  1.9161 -0.4339  0.2981
21597SOL    HW265893   7.964   2.319   7.890 -0.7670 -0.4118  0.2680
21598SOL     OW65894   1.959   3.198   0.790 -0.5321  0.1199  0.2645
21598SOL    HW165895   1.937   3.279   0.837  0.1725  1.4803 -1.5956
21598SOL    HW265896   2.033   3.162   0.838 -2.2068 -0.6550  2.3941
21599SOL     OW65897   3.424   5.339   2.201  0.5528 -0.6148 -0.3102
21599SOL    HW165898   3.478   5.285   2.259  2.2433  1.1050 -0.2107
21599SOL    HW265899   3.417   5.423   2.245 -0.8363 -0.2502 -1.1431
21600SOL     OW65900   8.860   5.564   4.188  0.0363  0.0200 -0.2868
21600SOL    HW165901   8.835   5.481   4.228 -0.4520  0.2301 -0.1561
21600SOL    HW265902   8.802   5.628   4.227 -0.5098  0.2155 -1.3888
21601SOL     OW65903   3.432   8.925   8.032  0.1275 -0.2486  0.1268
21601SOL    HW165904   3.357   8.977   8.060  0.3861  0.2041 -0.0259
21601SOL    HW265905   3.435   8.935   7.937  2.1846  2.2470  0.3503
21602SOL     OW65906   8.277   5.152   4.571  0.0328 -0.7056 -0.2915
21602SOL    HW165907   8.194   5.198   4.558  0.2021 -0.5553 -0.8856
21602SOL    HW265908   8.308   5.132   4.483  0.9218 -0.2293 -0.1057
21603SOL     OW65909   3.255   0.217   0.397  0.0797  0.2984  0.0164
21603SOL    HW165910   3.214   0.249   0.478  1.8621  0.9651  0.7047
21603SOL    HW265911   3.296   0.295   0.359  1.2965 -0.4617 -0.2690
21604SOL     OW65912   5.952   1.854   5.846 -0.6393 -0.1317  0.3837
21604SOL    HW165913   5.884   1.918   5.823 -0.8137 -0.6101 -0.4438
21604SOL    HW265914   5.967   1.805   5.766  1.5097  0.7009  0.2073
21605SOL     OW65915   7.679   4.402   7.481  0.0155 -0.2839  0.5745
21605SOL    HW165916   7.625   4.347   7.425 -0.6120 -2.1679  2.8856
21605SOL    HW265917   7.616   4.462   7.522  0.0699 -0.6257  1.1670
21606SOL     OW65918   7.748   5.343   3.481 -0.0651 -0.1210  1.0785
21606SOL    HW165919   7.689   5.384   3.544 -0.3392  1.4987 -0.1698
21606SOL    HW265920   7.746   5.401   3.405  0.8465 -1.6126 -0.1377
21607SOL     OW65921   5.953   6.570   6.731  0.1129  0.2838 -0.3791
21607SOL    HW165922   6.011   6.545   6.659 -0.2552 -2.5870  0.2024
21607SOL    HW265923   5.865   6.566   6.693 -0.0744 -1.1519  0.1397
21608SOL     OW65924   6.439   0.209   0.355  0.7345 -0.2785 -0.3211
21608SOL    HW165925   6.431   0.184   0.263  1.1879 -1.3937 -0.0690
21608SOL    HW265926   6.411   0.301   0.357 -1.4295 -0.8447 -1.2197
21609SOL     OW65927   7.872   3.688   2.476 -0.5587 -0.1398  0.3625
21609SOL    HW165928   7.847   3.743   2.550  0.3675  0.7328  0.0539
21609SOL    HW265929   7.968   3.683   2.481 -0.5246 -0.4824 -0.4835
21610SOL     OW65930   2.501   8.320   1.309 -0.2735  0.4479 -0.1217
21610SOL    HW165931   2.592   8.316   1.281 -0.6185 -0.5241 -1.1804
21610SOL    HW265932   2.505   8.314   1.405  0.7660  0.2600 -0.1684
21611SOL     OW65933   8.891   5.574   6.147 -0.1530 -0.2285  0.0757
21611SOL    HW165934   8.827   5.643   6.165  0.7152  0.9480 -1.1790
21611SOL    HW265935   8.917   5.587   6.056  0.1752 -2.1229 -0.1540
21612SOL     OW65936   6.667   2.638   2.261  0.1281 -0.2757 -0.0415
21612SOL    HW165937   6.704   2.551   2.275  0.1407 -0.0916  1.1828
21612SOL    HW265938   6.578   2.622   2.231  1.1274 -0.7287 -3.0479
21613SOL     OW65939   2.750   1.197   7.629  0.4238 -0.1022 -0.0107
21613SOL    HW165940   2.677   1.174   7.686 -0.0940  1.7209  0.1348
21613SOL    HW265941   2.810   1.122   7.635 -2.1169 -2.4244 -1.4587
21614SOL     OW65942   8.234   2.206   4.312 -0.2446 -0.2483 -0.7448
21614SOL    HW165943   8.271   2.288   4.281 -2.6884  0.5676 -1.7146
21614SOL    HW265944   8.171   2.231   4.379 -1.3138 -1.2893 -1.3263
21615SOL     OW65945   5.558   6.171   2.428  0.2817 -0.5784  0.3392
21615SOL    HW165946   5.522   6.098   2.479 -0.1685 -0.4065  0.2675
21615SOL    HW265947   5.511   6.167   2.345 -0.6339  0.5325  0.7712
21616SOL     OW65948   6.784   4.313   1.095  0.4126 -0.4331  0.6595
21616SOL    HW165949   6.791   4.283   1.185 -0.4408  0.7908  1.1612
21616SOL    HW265950   6.873   4.343   1.073  0.7817 -1.3713  0.8491
21617SOL     OW65951   3.926   1.198   3.644 -0.2245  0.5719  0.4925
21617SOL    HW165952   3.836   1.167   3.634 -0.2929  0.1576  2.1791
21617SOL    HW265953   3.924   1.254   3.721  0.5614  2.2917 -0.6707
21618SOL     OW65954   6.362   1.371   5.833 -0.3082  0.1076  0.2003
21618SOL    HW165955   6.294   1.334   5.889 -0.4520 -1.2974 -0.8483
21618SOL    HW265956   6.435   1.388   5.893 -1.3102  1.0176  1.2278
21619SOL     OW65957   8.240   2.701   0.974 -1.3773  0.0127 -0.5253
21619SOL    HW165958   8.170   2.685   0.911 -1.8442  1.5986 -0.4569
21619SOL    HW265959   8.240   2.796   0.986 -0.8860 -0.1965  1.4121
21620SOL     OW65960   6.800   5.955   0.480  0.0857 -0.0728  0.0629
21620SOL    HW165961   6.785   5.924   0.570 -0.5353 -0.3134 -0.1210
21620SOL    HW265962   6.770   6.046   0.481  0.0767 -0.0758  0.0980
21621SOL     OW65963   7.193   8.680   7.097 -0.0777 -0.0713 -0.3828
21621SOL    HW165964   7.128   8.621   7.133 -0.1821  0.8938  1.0938
21621SOL    HW265965   7.267   8.623   7.075 -0.3944 -0.8367  0.4530
21622SOL     OW65966   1.436   2.690   7.238 -0.0254 -0.2517 -0.3458
21622SOL    HW165967   1.365   2.754   7.230 -0.0089 -0.0056  1.1259
21622SOL    HW265968   1.392   2.610   7.266  0.0743 -0.6376 -1.2492
21623SOL     OW65969   5.988   3.471   6.119  0.0630 -0.3279  0.7920
21623SOL    HW165970   6.076   3.506   6.131  1.2786 -1.6693 -2.9143
21623SOL    HW265971   5.986   3.391   6.172  2.0195 -1.5626 -0.8642
21624SOL     OW65972   5.345   4.425   2.673 -0.4783 -0.0064 -0.3759
21624SOL    HW165973   5.417   4.484   2.650 -0.3935 -0.1164 -0.3942
21624SOL    HW265974   5.384   4.337   2.670 -0.3387  0.0042  0.6223
21625SOL     OW65975   7.612   6.458   4.387 -0.8325  0.1620 -0.0361
21625SOL    HW165976   7.591   6.426   4.299 -1.3918 -3.3880  1.2428
21625SOL    HW265977   7.708   6.461   4.389 -0.6625 -2.5166 -0.0247
21626SOL     OW65978   6.326   4.269   2.716 -0.2414  0.0414  0.0604
21626SOL    HW165979   6.241   4.310   2.704 -0.3769 -0.1400  0.4000
21626SOL    HW265980   6.384   4.341   2.742 -0.2308  0.2092 -0.4168
21627SOL     OW65981   9.133   2.111   6.004 -0.1237 -0.5964 -0.5590
21627SOL    HW165982   9.050   2.062   6.002  0.8726 -2.3856 -0.8697
21627SOL    HW265983   9.132   2.158   6.087 -0.5325 -2.3643  0.4983
21628SOL     OW65984   4.848   4.338   8.716 -0.7860  0.0406 -0.4635
21628SOL    HW165985   4.832   4.272   8.783  1.5801  0.0715  0.2185
21628SOL    HW265986   4.883   4.289   8.641  1.4541  0.4863  0.2209
21629SOL     OW65987   5.985   5.767   4.471 -0.0140 -0.1912  0.6870
21629SOL    HW165988   5.971   5.824   4.395  2.8288  0.9367  0.9014
21629SOL    HW265989   5.992   5.679   4.433 -0.2422  0.1481 -0.1693
21630SOL     OW65990   1.210   2.568   8.705  0.4118  0.2985 -0.0411
21630SOL    HW165991   1.244   2.480   8.691 -0.9050 -0.6688  2.2710
21630SOL    HW265992   1.288   2.623   8.709  1.2753 -0.7710 -1.2842
21631SOL     OW65993   1.449   4.626   2.414 -0.3300 -0.6591 -0.3279
21631SOL    HW165994   1.505   4.701   2.394  0.1932 -0.0642  2.8615
21631SOL    HW265995   1.507   4.550   2.407 -0.1214 -0.4567 -0.8126
21632SOL     OW65996   5.303   1.725   2.685  0.1183  0.6504 -0.0938
21632SOL    HW165997   5.250   1.656   2.645 -0.6539  1.6500 -0.8494
21632SOL    HW265998   5.389   1.716   2.642  0.6566 -1.0363  1.2065
21633SOL     OW65999   8.874   1.760   0.734 -0.8533 -0.3366  0.9329
21633SOL    HW166000   8.808   1.714   0.785  0.1052 -0.1665  2.3786
21633SOL    HW266001   8.929   1.691   0.696 -0.7227 -0.4385  1.3072
21634SOL     OW66002   4.357   1.294   2.381 -0.3436 -0.0981  0.2256
21634SOL    HW166003   4.286   1.232   2.368  1.0742 -1.3056 -2.4047
21634SOL    HW266004   4.340   1.363   2.317  0.4903 -0.0556  0.0473
21635SOL     OW66005   3.497   6.451   1.669 -0.3064 -0.0065  0.2506
21635SOL    HW166006   3.447   6.448   1.588  0.9189  3.6648 -0.8189
21635SOL    HW266007   3.475   6.535   1.709  0.1317 -1.1224  3.1191
21636SOL     OW66008   0.568   3.617   0.296 -0.1758  0.0233  0.1780
21636SOL    HW166009   0.625   3.633   0.221 -1.5604  1.2180 -0.6700
21636SOL    HW266010   0.505   3.552   0.266 -0.3366  0.0141  0.5198
21637SOL     OW66011   1.183   8.561   3.471 -0.0449 -0.5354 -0.3627
21637SOL    HW166012   1.115   8.564   3.538 -0.4983 -1.2947 -0.7758
21637SOL    HW266013   1.262   8.536   3.519 -0.6718 -2.6279 -0.3012
21638SOL     OW66014   3.471   6.020   5.037  0.0673  0.5204 -0.4953
21638SOL    HW166015   3.416   6.068   4.975 -0.4773  2.4989  1.3897
21638SOL    HW266016   3.409   5.971   5.091  0.5509 -1.3896 -1.5830
21639SOL     OW66017   4.684   6.415   0.590 -0.4649 -0.2360  0.2011
21639SOL    HW166018   4.610   6.355   0.602 -0.1496 -0.5215  0.7543
21639SOL    HW266019   4.723   6.389   0.507 -0.3552 -0.7687  0.4194
21640SOL     OW66020   4.971   5.013   4.406 -0.2536  0.8021  0.0627
21640SOL    HW166021   5.062   5.041   4.401 -0.0197  0.0247 -0.1409
21640SOL    HW266022   4.922   5.083   4.364  0.0344  2.1380  1.8166
21641SOL     OW66023   7.741   5.143   3.252 -0.6037 -0.1676 -0.2578
21641SOL    HW166024   7.738   5.206   3.324  0.0268 -2.7137  2.1487
21641SOL    HW266025   7.831   5.149   3.219 -0.0563 -0.8945  1.0498
21642SOL     OW66026   2.243   8.484   2.519  0.0823  0.1534  0.4055
21642SOL    HW166027   2.327   8.454   2.553  0.7985  0.8986 -0.6206
21642SOL    HW266028   2.225   8.566   2.565  0.7179  0.8117 -0.4843
21643SOL     OW66029   7.360   2.936   8.847  0.2413  0.0289 -0.2875
21643SOL    HW166030   7.275   2.961   8.811  0.3760  1.6792  0.4375
21643SOL    HW266031   7.349   2.844   8.873 -1.2937  0.1936 -0.2592
21644SOL     OW66032   1.659   4.250   7.350  0.0016 -0.1092  0.0738
21644SOL    HW166033   1.733   4.203   7.313  0.0049 -0.5469  0.6233
21644SOL    HW266034   1.667   4.236   7.445 -1.2503 -0.8508  0.0837
21645SOL     OW66035   5.366   2.956   4.530  0.5667  0.4324 -0.3557
21645SOL    HW166036   5.313   3.035   4.538 -2.0037 -1.1344 -0.7808
21645SOL    HW266037   5.420   2.971   4.452  0.4674  1.9235 -0.1592
21646SOL     OW66038   6.367   2.845   6.144 -0.6852 -0.2944  0.1585
21646SOL    HW166039   6.392   2.889   6.063 -0.0688 -0.3093  0.3356
21646SOL    HW266040   6.290   2.793   6.121 -2.1319  1.7045  0.1887
21647SOL     OW66041   5.850   2.153   7.543  0.3087  0.0697  1.0852
21647SOL    HW166042   5.795   2.077   7.525  2.6462 -1.0101 -2.9133
21647SOL    HW266043   5.810   2.225   7.493  0.8668  0.0383  0.5722
21648SOL     OW66044   1.325   1.404   3.224  0.1676  0.0097 -0.6187
21648SOL    HW166045   1.257   1.413   3.291 -0.3120  1.2511 -1.2273
21648SOL    HW266046   1.314   1.315   3.190 -1.8422  0.4848 -1.3875
21649SOL     OW66047   0.185   6.366   5.749 -0.7046 -0.1479 -0.1636
21649SOL    HW166048   0.276   6.350   5.725 -0.5958 -0.6190  0.5472
21649SOL    HW266049   0.174   6.323   5.834 -1.2455  0.9937  0.3631
21650SOL     OW66050   9.006   1.204   2.144  0.2542 -0.0678 -0.4777
21650SOL    HW166051   9.059   1.126   2.157 -1.7334 -1.5276 -0.8440
21650SOL    HW266052   9.022   1.257   2.223  2.8315 -0.0221 -0.9345
21651SOL     OW66053   7.554   5.739   1.652 -0.1021  0.1956  0.4873
21651SOL    HW166054   7.573   5.809   1.714 -1.8183  0.1311  1.1347
21651SOL    HW266055   7.567   5.779   1.566 -0.4803  1.1443  0.8571
21652SOL     OW66056   2.520   1.277   2.045 -0.2958  0.2216  0.0096
21652SOL    HW166057   2.461   1.352   2.041 -0.3393  0.3599  2.1535
21652SOL    HW266058   2.486   1.223   2.116  2.1559  0.3455  1.3902
21653SOL     OW66059   0.448   1.374   2.130  0.5672 -0.0862  0.2382
21653SOL    HW166060   0.478   1.283   2.130 -0.1343 -0.3303  0.9654
21653SOL    HW266061   0.419   1.390   2.040  0.1490 -0.7664  0.2501
21654SOL     OW66062   7.809   3.006   4.649 -0.0694 -0.0079  0.1704
21654SOL    HW166063   7.854   2.978   4.570  1.2501  2.4685 -0.0171
21654SOL    HW266064   7.728   3.046   4.618  0.0798  0.2631  0.1332
21655SOL     OW66065   4.463   2.927   2.343  0.1217 -0.9920 -0.0287
21655SOL    HW166066   4.542   2.960   2.387 -0.5807 -0.1333  0.6243
21655SOL    HW266067   4.484   2.836   2.321  1.3500 -0.7316 -0.0164
21656SOL     OW66068   2.360   2.293   1.497 -0.0336 -0.4509 -0.8993
21656SOL    HW166069   2.289   2.355   1.515  2.2852  2.3276 -0.4253
21656SOL    HW266070   2.371   2.245   1.579 -1.8739 -1.5720 -1.2616
21657SOL     OW66071   5.326   6.367   8.634 -0.4846  0.1089 -0.2166
21657SOL    HW166072   5.368   6.422   8.700  1.0215 -1.0914 -0.1146
21657SOL    HW266073   5.357   6.402   8.550 -1.3066  0.7804 -0.2495
21658SOL     OW66074   7.850   4.382   2.687  0.0675 -0.3892 -0.0768
21658SOL    HW166075   7.759   4.380   2.658 -0.0930  0.7746  0.2652
21658SOL    HW266076   7.860   4.469   2.726  0.8406 -1.1342  1.4768
21659SOL     OW66077   2.335   6.937   1.626  0.3883 -0.2324  0.2652
21659SOL    HW166078   2.316   6.901   1.540 -0.1514 -1.0549  0.7154
21659SOL    HW266079   2.431   6.946   1.628  0.4118 -0.3353 -0.3597
21660SOL     OW66080   0.210   4.118   3.957 -0.2893 -0.3102  0.4805
21660SOL    HW166081   0.132   4.062   3.960 -0.7487  0.3502  1.0716
21660SOL    HW266082   0.184   4.190   3.899  0.4572 -0.9138 -0.6557
21661SOL     OW66083   3.678   4.628   3.487 -0.4401  0.4163  0.2098
21661SOL    HW166084   3.694   4.721   3.507 -1.7505  0.8960 -0.8079
21661SOL    HW266085   3.628   4.596   3.561 -0.5434  0.7105  0.2711
21662SOL     OW66086   4.062   6.962   6.811  0.3446  0.3123 -0.0653
21662SOL    HW166087   4.013   7.039   6.842 -1.1705  0.0853 -1.7672
21662SOL    HW266088   4.096   6.988   6.726 -0.6094 -1.0405 -0.8873
21663SOL     OW66089   2.542   4.257   2.347 -0.0212  0.3736  0.1686
21663SOL    HW166090   2.511   4.182   2.297 -1.7236  0.6926  0.7026
21663SOL    HW266091   2.575   4.318   2.281  1.9163 -1.0214 -0.2433
21664SOL     OW66092   8.666   5.827   1.143 -0.3248 -0.7327 -0.2126
21664SOL    HW166093   8.752   5.810   1.181 -0.6201 -1.7723  0.0279
21664SOL    HW266094   8.605   5.786   1.204 -0.9791 -0.1867 -0.4919
21665SOL     OW66095   7.992   8.669   8.550  0.9508  0.5231 -0.4411
21665SOL    HW166096   8.059   8.603   8.530  0.1161  0.0434 -1.7826
21665SOL    HW266097   7.980   8.715   8.467 -1.3862 -0.3350 -0.6395
21666SOL     OW66098   7.118   8.569   1.515 -0.3062  0.1985 -0.3529
21666SOL    HW166099   7.151   8.627   1.447 -0.0743  0.3165 -0.1427
21666SOL    HW266100   7.032   8.605   1.538  0.7412  1.8267  1.3451
21667SOL     OW66101   2.310   9.061   3.120  0.3413 -0.3929 -0.1464
21667SOL    HW166102   2.245   8.999   3.088  2.3614 -1.9163 -1.5439
21667SOL    HW266103   2.259   9.125   3.170 -2.3275 -0.9233 -1.9670
21668SOL     OW66104   1.598   0.702   7.855 -0.4837  0.1073 -0.1086
21668SOL    HW166105   1.524   0.658   7.897 -0.4988 -0.6360 -0.8877
21668SOL    HW266106   1.565   0.726   7.768 -0.1457  0.7416 -0.0653
21669SOL     OW66107   3.586   7.608   6.561  0.2184 -0.4529  0.4908
21669SOL    HW166108   3.521   7.678   6.559  0.4069 -0.2886  0.0047
21669SOL    HW266109   3.536   7.528   6.544  0.3169 -0.1820 -1.2816
21670SOL     OW66110   2.066   8.192   4.450 -0.2006  0.0443  0.4441
21670SOL    HW166111   1.993   8.149   4.405 -1.3566  1.6459  0.6862
21670SOL    HW266112   2.138   8.130   4.444 -0.9456 -0.7105 -1.7164
21671SOL     OW66113   4.344   2.855   8.326 -0.4414 -0.0493 -0.1484
21671SOL    HW166114   4.362   2.945   8.297 -2.8191  1.0475  1.4813
21671SOL    HW266115   4.422   2.831   8.376 -0.1491  1.5161  0.2239
21672SOL     OW66116   3.051   8.721   3.215  0.3433  0.5733 -0.0622
21672SOL    HW166117   3.061   8.626   3.208 -0.8330  0.5218 -1.3610
21672SOL    HW266118   3.100   8.755   3.140  1.2595  1.0592  0.7284
21673SOL     OW66119   0.317   2.785   7.702  0.0119 -0.1884 -0.3047
21673SOL    HW166120   0.339   2.868   7.743 -0.1630 -0.2577 -0.0711
21673SOL    HW266121   0.272   2.735   7.770 -0.0736 -0.3924 -0.5084
21674SOL     OW66122   1.868   6.203   2.796  0.6512 -0.3116 -0.1507
21674SOL    HW166123   1.790   6.256   2.780  0.2951 -0.5954  0.6125
21674SOL    HW266124   1.866   6.135   2.728  0.7245  0.2147 -0.6857
21675SOL     OW66125   2.404   7.256   2.875  0.0795 -0.4087  0.0395
21675SOL    HW166126   2.375   7.346   2.860 -0.7610 -0.7060 -0.1245
21675SOL    HW266127   2.491   7.253   2.835 -0.2925  0.0594 -0.8406
21676SOL     OW66128   0.953   0.710   3.160  0.7766 -0.6989 -0.1071
21676SOL    HW166129   0.918   0.686   3.246  1.2702 -0.7179  0.0949
21676SOL    HW266130   1.046   0.726   3.176  1.1300 -1.8762 -0.8682
21677SOL     OW66131   6.863   1.096   8.272 -0.6932 -0.2056 -0.2888
21677SOL    HW166132   6.877   1.044   8.194  0.6452 -1.3876  0.6976
21677SOL    HW266133   6.769   1.113   8.273 -1.2199 -2.7951 -0.5493
21678SOL     OW66134   2.920   2.385   1.838  0.2568 -0.0644  0.3522
21678SOL    HW166135   2.908   2.437   1.759 -0.3535  0.7463  0.9577
21678SOL    HW266136   2.838   2.337   1.849 -0.3447  1.1173  1.3803
21679SOL     OW66137   0.569   8.173   5.531  0.0654  1.0389 -0.2249
21679SOL    HW166138   0.556   8.183   5.626  0.4489  2.2592 -0.2828
21679SOL    HW266139   0.593   8.261   5.501  0.8484  0.4663 -1.3167
21680SOL     OW66140   7.876   3.482   4.141  0.2134 -0.0331  0.5763
21680SOL    HW166141   7.865   3.525   4.226 -1.2538  1.9512 -0.5261
21680SOL    HW266142   7.822   3.534   4.081 -0.3420 -2.5060 -1.2169
21681SOL     OW66143   4.982   1.019   3.164  0.6039  0.4821  0.4037
21681SOL    HW166144   4.974   0.974   3.080 -1.4843 -0.2291  0.9218
21681SOL    HW266145   4.894   1.017   3.201  1.5217  0.4549  2.7692
21682SOL     OW66146   6.359   3.941   7.136  0.2099  0.2135 -0.0081
21682SOL    HW166147   6.394   3.921   7.223  2.7472  2.2081 -0.4198
21682SOL    HW266148   6.288   4.003   7.152  0.9121  0.8652  0.6873
21683SOL     OW66149   5.176   2.042   6.943  0.7518  0.3309  0.3013
21683SOL    HW166150   5.254   2.093   6.918  0.5802  1.2009  1.4448
21683SOL    HW266151   5.103   2.091   6.906  0.7318 -0.4690 -0.7433
21684SOL     OW66152   7.111   2.473   7.041  0.1847 -0.0668 -0.0434
21684SOL    HW166153   7.062   2.494   7.121  0.1611  2.1716 -0.5744
21684SOL    HW266154   7.202   2.490   7.063  0.1853  0.4969 -0.4698
21685SOL     OW66155   7.412   1.710   4.908  0.3280  0.2523 -0.5600
21685SOL    HW166156   7.416   1.660   4.989  1.6943  1.0407 -0.1021
21685SOL    HW266157   7.503   1.712   4.877 -0.4526 -2.2145 -3.5113
21686SOL     OW66158   4.818   9.018   4.564  0.0008 -0.3136 -0.5802
21686SOL    HW166159   4.791   9.054   4.648 -0.1952  0.0910 -0.8148
21686SOL    HW266160   4.914   9.017   4.569 -0.0242 -1.2552  0.0423
21687SOL     OW66161   6.781   4.050   5.114 -0.5001 -0.2187  0.1692
21687SOL    HW166162   6.872   4.037   5.140 -0.4934  0.4962  0.5321
21687SOL    HW266163   6.741   3.964   5.123 -0.0500 -0.3731  0.7721
21688SOL     OW66164   4.465   4.582   3.326 -0.5714 -0.1171  0.0084
21688SOL    HW166165   4.428   4.501   3.290 -1.5113  0.0995  0.4641
21688SOL    HW266166   4.405   4.607   3.396 -1.5824  2.1631 -1.5300
21689SOL     OW66167   7.049   4.110   7.958 -0.2803  0.3497  0.0023
21689SOL    HW166168   6.971   4.058   7.942  0.8703 -2.1970  1.9455
21689SOL    HW266169   7.045   4.181   7.894 -3.1976 -0.7373 -1.1569
21690SOL     OW66170   7.160   4.082   2.277 -0.1441 -0.3718  0.1021
21690SOL    HW166171   7.130   4.042   2.358 -2.6405  0.4924 -0.3011
21690SOL    HW266172   7.146   4.014   2.210  0.9208 -0.7105  0.1937
21691SOL     OW66173   1.665   3.788   0.393 -0.2159  0.5496 -0.0726
21691SOL    HW166174   1.665   3.822   0.304  0.2461  0.6998 -0.0193
21691SOL    HW266175   1.699   3.861   0.446  0.4429  0.1336  0.0938
21692SOL     OW66176   2.634   2.853   6.960  0.2896 -0.4513  0.4382
21692SOL    HW166177   2.543   2.845   6.989 -0.6775 -0.0565 -2.2075
21692SOL    HW266178   2.651   2.771   6.913  1.0186 -0.1602  0.1841
21693SOL     OW66179   6.571   0.087   6.911 -0.0313  1.0178 -0.0168
21693SOL    HW166180   6.612   0.172   6.899 -1.7508  2.1082  1.2560
21693SOL    HW266181   6.516   0.075   6.834  0.2131  1.0612 -0.1982
21694SOL     OW66182   7.101   6.972   7.123 -0.4494  0.0106 -0.1864
21694SOL    HW166183   7.124   6.955   7.214  2.9593  3.1029 -0.2116
21694SOL    HW266184   7.104   7.067   7.115 -1.7087 -0.0853 -3.3422
21695SOL     OW66185   0.156   2.563   2.250  0.1538 -0.1973  0.2257
21695SOL    HW166186   0.110   2.638   2.289  1.7627  0.8253  0.2253
21695SOL    HW266187   0.089   2.495   2.243 -0.8901  0.5887  2.0144
21696SOL     OW66188   0.048   2.996   0.864  0.2732 -0.2346  0.3545
21696SOL    HW166189   0.024   2.906   0.842 -1.2145  0.6040 -1.8677
21696SOL    HW266190  -0.020   3.024   0.925 -0.1035 -0.2050 -0.0687
21697SOL     OW66191   4.850   5.059   1.730 -1.1300  0.0589 -0.0640
21697SOL    HW166192   4.900   4.996   1.679 -0.4399 -0.0294  0.6840
21697SOL    HW266193   4.759   5.038   1.713 -0.9313 -1.6525  0.7424
21698SOL     OW66194   1.883   3.829   2.642  0.2420 -0.3665  0.2775
21698SOL    HW166195   1.938   3.864   2.573 -0.2210  1.2744  0.6885
21698SOL    HW266196   1.944   3.791   2.705  0.7421 -0.6279 -0.3554
21699SOL     OW66197   7.824   8.551   8.886  0.2421  0.0060  0.3631
21699SOL    HW166198   7.799   8.510   8.804  0.3582  0.4900  0.0781
21699SOL    HW266199   7.747   8.602   8.912  0.3916  0.2736  0.2806
21700SOL     OW66200   5.576   9.041   4.093 -0.4638  0.0413  0.2808
21700SOL    HW166201   5.654   9.061   4.041 -1.1682 -0.2380 -0.9359
21700SOL    HW266202   5.591   9.084   4.177 -0.8760  3.7764 -1.3707
21701SOL     OW66203   7.818   5.810   7.299 -0.9084 -0.2957 -0.5990
21701SOL    HW166204   7.757   5.851   7.237 -1.3519 -0.3311 -0.1895
21701SOL    HW266205   7.903   5.848   7.277 -1.3856  1.2836  0.1253
21702SOL     OW66206   7.115   5.263   5.377  0.2707  0.2332  0.3506
21702SOL    HW166207   7.046   5.246   5.313  0.8329  3.0424 -1.1625
21702SOL    HW266208   7.073   5.316   5.444  0.3130 -0.5043  0.9772
21703SOL     OW66209   8.873   7.143   0.620 -0.3032 -0.5208 -0.5121
21703SOL    HW166210   8.895   7.144   0.713  3.7107 -0.3332 -1.2848
21703SOL    HW266211   8.875   7.050   0.596  0.0037 -0.4809 -0.6470
21704SOL     OW66212   5.533   7.230   2.501 -0.4337 -0.4802 -0.4027
21704SOL    HW166213   5.504   7.141   2.520  0.9272 -0.6069  1.3554
21704SOL    HW266214   5.515   7.243   2.408 -1.2199 -2.3542 -0.5410
21705SOL     OW66215   6.031   6.293   6.793  0.5038  0.7542 -0.4721
21705SOL    HW166216   5.954   6.346   6.813  0.1638 -0.1122  0.6164
21705SOL    HW266217   6.041   6.300   6.698  0.4179  2.6680 -0.3748
21706SOL     OW66218   8.409   0.891   3.778 -0.2170  0.7449  0.0155
21706SOL    HW166219   8.437   0.963   3.835 -0.4987  2.2091 -1.5974
21706SOL    HW266220   8.486   0.868   3.728 -0.3767  0.5852 -0.1592
21707SOL     OW66221   4.396   3.643   8.087  0.0648 -0.2608 -0.1866
21707SOL    HW166222   4.445   3.704   8.032  2.4229 -2.0826 -0.3071
21707SOL    HW266223   4.304   3.657   8.065  0.6318  2.1705 -1.2297
21708SOL     OW66224   6.182   1.839   0.244 -0.8781  0.1206 -0.1410
21708SOL    HW166225   6.123   1.776   0.287 -1.1607 -0.0095 -0.7113
21708SOL    HW266226   6.200   1.800   0.159  0.9235 -0.3830  0.4213
21709SOL     OW66227   4.821   3.134   4.425  0.5453  0.2361  0.3117
21709SOL    HW166228   4.737   3.119   4.469  0.9134  0.8998  1.2756
21709SOL    HW266229   4.831   3.230   4.426  0.0920  0.3742 -2.1602
21710SOL     OW66230   1.560   9.083   0.412  0.2587  0.2830 -0.4848
21710SOL    HW166231   1.653   9.099   0.398  0.2373  1.5010  0.6518
21710SOL    HW266232   1.553   8.987   0.418  1.6615  0.2289  0.8079
21711SOL     OW66233   1.073   1.313   4.485 -0.1480  0.2860 -0.2673
21711SOL    HW166234   1.065   1.217   4.490  0.2180  0.3196  1.7648
21711SOL    HW266235   1.037   1.344   4.568 -1.3513  2.0288 -1.3756
21712SOL     OW66236   3.486   4.310   7.356  0.0886 -0.0679 -0.1177
21712SOL    HW166237   3.483   4.350   7.270 -0.8034 -0.6951 -0.3976
21712SOL    HW266238   3.490   4.216   7.339 -0.7699 -0.2378  0.5056
21713SOL     OW66239   3.979   0.145   2.559  0.1895  0.2947  0.1112
21713SOL    HW166240   3.890   0.140   2.525  0.2317 -2.3146  0.1938
21713SOL    HW266241   4.029   0.188   2.489 -1.1061  1.8419  0.0929
21714SOL     OW66242   6.233   6.136   3.692  0.2659  0.1138  0.1456
21714SOL    HW166243   6.241   6.218   3.644  0.1290 -0.3551 -0.7248
21714SOL    HW266244   6.142   6.110   3.678 -0.0961  0.5255  1.6340
21715SOL     OW66245   1.290   4.303   6.451  0.0233 -0.0272 -0.6555
21715SOL    HW166246   1.315   4.211   6.438  2.6561  0.6931 -1.3355
21715SOL    HW266247   1.350   4.334   6.519 -1.8778  0.8298  0.6860
21716SOL     OW66248   7.420   1.904   8.859 -0.5732  0.1549  0.2166
21716SOL    HW166249   7.509   1.926   8.888 -0.4163 -1.4384  1.0778
21716SOL    HW266250   7.372   1.987   8.863  0.2635  0.6102  2.1133
21717SOL     OW66251   3.148   1.012   2.359 -0.5725 -0.0254  0.5735
21717SOL    HW166252   3.143   1.052   2.446 -0.7364  0.5186  0.3143
21717SOL    HW266253   3.241   1.016   2.336 -0.4508 -0.6357  0.9375
21718SOL     OW66254   7.011   3.219   0.430  0.2823 -0.1311  0.1043
21718SOL    HW166255   6.971   3.237   0.515  1.0129 -0.3629  0.5105
21718SOL    HW266256   6.976   3.286   0.372 -0.9620 -0.5352  0.3484
21719SOL     OW66257   7.808   4.167   7.258 -0.4910 -0.0218  0.2698
21719SOL    HW166258   7.732   4.110   7.248  0.2063 -0.7335 -1.4331
21719SOL    HW266259   7.792   4.240   7.199  0.5926 -0.7195 -0.9356
21720SOL     OW66260   4.224   8.658   3.233  0.3393  0.0611  0.3415
21720SOL    HW166261   4.182   8.587   3.283  1.1360 -1.1880 -0.7074
21720SOL    HW266262   4.245   8.724   3.299 -1.6973 -0.0073  1.1500
21721SOL     OW66263   3.625   1.673   4.126  0.3143 -0.1069 -0.2479
21721SOL    HW166264   3.686   1.690   4.198  0.0847  0.4864 -0.1837
21721SOL    HW266265   3.542   1.709   4.157 -0.6567 -2.8737  0.6020
21722SOL     OW66266   6.191   8.582   7.833 -0.0470  0.2454 -0.4461
21722SOL    HW166267   6.102   8.582   7.799 -0.5544 -1.4836  0.7795
21722SOL    HW266268   6.227   8.498   7.807  0.2867 -0.2039  1.3341
21723SOL     OW66269   2.094   5.770   4.701 -0.2708 -0.8226  0.0369
21723SOL    HW166270   2.126   5.683   4.725  0.4007 -0.1482  1.7648
21723SOL    HW266271   2.144   5.793   4.623  0.5470 -1.4366  0.3567
21724SOL     OW66272   6.456   0.152   5.326  0.1504  0.3589 -0.4622
21724SOL    HW166273   6.365   0.149   5.356  0.1675  0.3200 -0.4152
21724SOL    HW266274   6.452   0.199   5.242  0.2490  1.5283  0.1730
21725SOL     OW66275   7.898   0.035   1.957 -0.0811 -0.3296  0.1777
21725SOL    HW166276   7.959   0.107   1.973 -0.0916 -0.1160 -0.7073
21725SOL    HW266277   7.910   0.014   1.865  0.8480 -2.3076  0.6949
21726SOL     OW66278   0.684   2.673   5.223  0.2582  0.3125  0.2227
21726SOL    HW166279   0.595   2.663   5.256  0.4584  2.2283  1.5155
21726SOL    HW266280   0.718   2.583   5.218 -1.1221 -0.3292  1.4934
21727SOL     OW66281   4.014   7.947   6.861  0.3526 -0.0293  0.2133
21727SOL    HW166282   4.055   7.944   6.775  0.5704  0.7463  0.2811
21727SOL    HW266283   3.967   7.864   6.869  1.3391 -0.6320 -0.1535
21728SOL     OW66284   0.787   5.033   9.066  0.3672  0.1558 -0.0060
21728SOL    HW166285   0.836   5.074   9.137 -0.4718  4.2114 -1.4947
21728SOL    HW266286   0.841   5.046   8.988 -0.3060 -0.9900 -0.6920
21729SOL     OW66287   2.570   2.475   2.353  0.1269  0.2052 -0.1876
21729SOL    HW166288   2.608   2.525   2.426 -1.6131  0.5595  0.5214
21729SOL    HW266289   2.572   2.536   2.279 -1.9923  1.4276  0.6730
21730SOL     OW66290   7.974   0.852   2.665 -0.1240  0.6076  0.3651
21730SOL    HW166291   8.037   0.852   2.593 -0.9050 -0.4974 -0.3552
21730SOL    HW266292   8.027   0.866   2.743  1.0420 -0.3347 -0.2186
21731SOL     OW66293   8.148   3.608   1.721 -0.1429 -0.4567 -0.0159
21731SOL    HW166294   8.167   3.644   1.634  0.3148  1.6540  0.8866
21731SOL    HW266295   8.231   3.572   1.751  1.6498  4.5275  2.0007
21732SOL     OW66296   8.697   5.015   0.584 -0.0764 -0.6171  0.2178
21732SOL    HW166297   8.701   5.104   0.618 -0.2487 -0.7388  0.5529
21732SOL    HW266298   8.771   5.010   0.523 -0.2705 -0.1375 -0.0680
21733SOL     OW66299   1.668   0.238   0.954  0.0856 -0.2061 -0.0957
21733SOL    HW166300   1.596   0.188   0.917  0.3255 -0.4375 -0.2564
21733SOL    HW266301   1.627   0.297   1.018 -0.1932 -0.6246  0.1121
21734SOL     OW66302   1.620   4.674   4.643 -0.1372 -0.0146  0.0427
21734SOL    HW166303   1.667   4.673   4.559  0.8987  0.1307  0.6062
21734SOL    HW266304   1.572   4.592   4.645 -0.4382  0.1265 -0.8340
21735SOL     OW66305   8.968   6.314   4.566  0.2555  0.4060  0.5881
21735SOL    HW166306   9.005   6.259   4.636 -0.0990 -0.4873  0.0883
21735SOL    HW266307   8.980   6.262   4.487  0.4636  1.3269  0.0049
21736SOL     OW66308   5.196   4.111   3.489  0.0207  0.1354 -0.3022
21736SOL    HW166309   5.108   4.105   3.451 -0.4941 -0.6321  0.9349
21736SOL    HW266310   5.231   4.022   3.481  0.2685  0.1910  0.1288
21737SOL     OW66311   1.821   3.968   8.942  0.3050 -0.7647 -0.1612
21737SOL    HW166312   1.856   3.884   8.913 -0.0175 -0.5979 -1.0512
21737SOL    HW266313   1.727   3.952   8.956  0.1330 -0.4213 -0.8778
21738SOL     OW66314   8.412   9.112   8.918 -0.2716 -0.4622  0.3534
21738SOL    HW166315   8.322   9.100   8.949  0.0577 -0.5489  1.3279
21738SOL    HW266316   8.412   9.077   8.829 -1.5374  0.8559 -0.2086
21739SOL     OW66317   7.496   7.335   5.885  0.0917 -0.0616 -0.0790
21739SOL    HW166318   7.488   7.427   5.858 -2.7424 -0.2443 -0.1793
21739SOL    HW266319   7.461   7.286   5.812 -0.5123 -1.0645  0.8546
21740SOL     OW66320   5.930   4.279   4.075  0.1339 -0.2002  0.2843
21740SOL    HW166321   5.849   4.263   4.124 -0.3924 -3.1710 -1.3178
21740SOL    HW266322   5.999   4.240   4.130  0.2464  0.6781  0.7858
21741SOL     OW66323   6.775   6.156   3.225 -0.0431 -0.2206  0.2953
21741SOL    HW166324   6.861   6.119   3.204  0.0100  0.2551 -0.3370
21741SOL    HW266325   6.743   6.191   3.142 -1.1496 -0.9909  0.3806
21742SOL     OW66326   1.816   0.253   5.970 -0.3075 -0.1874 -0.5186
21742SOL    HW166327   1.838   0.295   5.887 -0.6834  0.9960 -0.0360
21742SOL    HW266328   1.755   0.183   5.945  0.5871 -0.6829 -1.3695
21743SOL     OW66329   4.795   6.358   3.608  0.0444 -0.3345  0.8934
21743SOL    HW166330   4.886   6.332   3.620  0.2853  0.1109  0.0930
21743SOL    HW266331   4.798   6.428   3.542 -0.8395 -0.0698  1.1156
21744SOL     OW66332   5.620   2.067   2.077  0.2525 -0.6412  0.1737
21744SOL    HW166333   5.685   2.002   2.052  0.2250 -0.4634 -0.3753
21744SOL    HW266334   5.652   2.149   2.040  0.3389 -0.3181  0.9438
21745SOL     OW66335   6.906   5.267   0.592  0.3081 -0.2426  0.3880
21745SOL    HW166336   6.835   5.239   0.649  0.4081  0.4727  0.8790
21745SOL    HW266337   6.908   5.203   0.522  1.1397 -2.0355  1.9602
21746SOL     OW66338   7.436   0.284   3.889 -0.3363 -0.1665 -0.4192
21746SOL    HW166339   7.384   0.363   3.900  0.1241  0.1271 -0.3615
21746SOL    HW266340   7.436   0.268   3.794  0.9020  0.8045 -0.5983
21747SOL     OW66341   1.431   6.155   1.190  0.7030 -0.2480 -0.1502
21747SOL    HW166342   1.457   6.208   1.115  1.5843  2.2594  1.7751
21747SOL    HW266343   1.335   6.162   1.192  0.6018 -0.9879 -1.4298
21748SOL     OW66344   4.997   1.567   2.318  0.0713  0.2852 -0.1459
21748SOL    HW166345   4.914   1.608   2.295  0.4624  0.5491 -1.1194
21748SOL    HW266346   5.016   1.508   2.244  0.4090 -0.2994  0.3944
21749SOL     OW66347   2.814   8.940   8.251  0.0298  0.1876 -0.2250
21749SOL    HW166348   2.792   8.847   8.249  1.5553 -0.1921 -0.6897
21749SOL    HW266349   2.903   8.943   8.287 -0.7179  1.6368  1.6905
21750SOL     OW66350   6.389   4.222   7.371 -0.5868  0.5037  0.2996
21750SOL    HW166351   6.367   4.304   7.325  1.4066  1.0288  0.1887
21750SOL    HW266352   6.477   4.238   7.407 -0.8038 -1.0501  1.6105
21751SOL     OW66353   1.769   2.494   7.614  0.2522  0.3219  0.5957
21751SOL    HW166354   1.805   2.452   7.535  1.4364  0.8411  0.8378
21751SOL    HW266355   1.721   2.570   7.581 -0.6800 -0.3895  0.2656
21752SOL     OW66356   8.978   4.537   8.492  0.0243  0.0135  0.5878
21752SOL    HW166357   9.001   4.448   8.467 -0.0183 -0.0839  0.8855
21752SOL    HW266358   8.914   4.565   8.427  0.2993 -0.0463  0.2915
21753SOL     OW66359   1.938   8.002   3.020  0.2723 -0.1183  0.2149
21753SOL    HW166360   2.001   8.022   2.951 -0.0552  0.2918  0.0304
21753SOL    HW266361   1.901   8.087   3.045  1.8392  0.0222  2.3275
21754SOL     OW66362   7.433   6.023   2.286 -0.2936  0.3911  0.5422
21754SOL    HW166363   7.454   6.087   2.354 -0.6973  0.3175  0.7375
21754SOL    HW266364   7.435   6.073   2.204  0.4428  0.4266  0.5708
21755SOL     OW66365   8.734   7.515   8.219  0.1737  0.3364  0.1913
21755SOL    HW166366   8.717   7.602   8.183 -0.7812 -0.0554 -0.3678
21755SOL    HW266367   8.785   7.530   8.298  2.0814  1.2708 -1.1343
21756SOL     OW66368   7.880   0.805   2.367  0.0561  0.3683 -1.0184
21756SOL    HW166369   7.813   0.755   2.414  2.9534 -0.9417  2.1669
21756SOL    HW266370   7.877   0.892   2.406  0.6718  0.0622 -0.2461
21757SOL     OW66371   3.441   3.516   6.535  0.4863 -0.2585 -0.2716
21757SOL    HW166372   3.347   3.511   6.555  0.3226 -2.2721 -1.3643
21757SOL    HW266373   3.477   3.433   6.566  1.1556 -1.2456 -3.3236
21758SOL     OW66374   4.290   6.675   2.941  0.2962 -0.1217  0.6052
21758SOL    HW166375   4.208   6.722   2.953 -0.7997 -2.1757  1.6186
21758SOL    HW266376   4.311   6.639   3.027  2.1729  0.1880  0.3243
21759SOL     OW66377   4.053   5.111   4.443  0.6374 -0.4115  0.3361
21759SOL    HW166378   4.116   5.182   4.456  1.7598 -1.1946 -0.5978
21759SOL    HW266379   3.973   5.142   4.485  1.3162  1.0863  0.5954
21760SOL     OW66380   6.805   8.693   2.498  0.6319  0.0616  0.5342
21760SOL    HW166381   6.803   8.728   2.409  2.0106  2.0672  1.2507
21760SOL    HW266382   6.716   8.659   2.511  0.2109  0.2989 -1.3622
21761SOL     OW66383   1.726   1.799   0.611 -0.4848  0.4371  0.0009
21761SOL    HW166384   1.694   1.723   0.562  1.6287  0.2519 -1.2103
21761SOL    HW266385   1.821   1.787   0.615 -0.2530  2.2591  1.1253
21762SOL     OW66386   7.348   6.424   1.600 -0.6287 -0.1039  0.0375
21762SOL    HW166387   7.351   6.480   1.523 -0.4014  0.2329  0.2850
21762SOL    HW266388   7.439   6.400   1.616 -0.7329 -0.6330 -0.1237
21763SOL     OW66389   5.995   0.716   3.738  0.5868 -1.1408  0.6412
21763SOL    HW166390   5.904   0.733   3.761  0.3571 -0.5062 -0.6726
21763SOL    HW266391   5.999   0.622   3.722 -0.0371 -1.0404 -0.1312
21764SOL     OW66392   5.735   1.510   7.014  0.4257 -0.1498  0.3138
21764SOL    HW166393   5.676   1.552   7.078 -0.4049 -0.3141 -0.3365
21764SOL    HW266394   5.792   1.581   6.985 -1.3371  0.7438 -1.2045
21765SOL     OW66395   2.408   3.028   4.822 -0.3851 -0.0409 -0.4062
21765SOL    HW166396   2.326   2.980   4.837 -1.5361  2.2091  1.0375
21765SOL    HW266397   2.418   3.083   4.900  0.5597  2.4496 -2.1713
21766SOL     OW66398   0.517   2.705   4.820 -0.7634  0.0934 -0.0757
21766SOL    HW166399   0.444   2.768   4.823 -1.7072 -0.9903  2.4978
21766SOL    HW266400   0.476   2.620   4.834  0.9735 -0.5612  1.3660
21767SOL     OW66401   7.692   1.771   8.817 -0.1404  0.4519  0.7259
21767SOL    HW166402   7.659   1.700   8.873 -2.0018  1.0477  0.4454
21767SOL    HW266403   7.695   1.848   8.874  0.1144  0.5644  0.5651
21768SOL     OW66404   6.075   1.938   2.683  0.0137  0.5959 -0.1321
21768SOL    HW166405   6.011   1.871   2.708 -2.3463  3.8309  3.7060
21768SOL    HW266406   6.159   1.902   2.710 -0.9545 -1.3572  0.4719
21769SOL     OW66407   9.012   7.120   3.290 -0.0002 -0.2458  0.7118
21769SOL    HW166408   9.003   7.193   3.228 -0.4656 -0.9587 -0.0959
21769SOL    HW266409   9.064   7.055   3.242 -0.9298 -1.0789  0.8094
21770SOL     OW66410   2.882   4.502   2.325  0.2524  0.1988 -0.2032
21770SOL    HW166411   2.945   4.436   2.355  0.7527  0.0347 -1.5347
21770SOL    HW266412   2.818   4.508   2.395  1.6701  0.2540  1.1395
21771SOL     OW66413   3.645   4.873   7.814 -0.3476 -0.1776 -0.1195
21771SOL    HW166414   3.739   4.888   7.805 -0.7920  2.2069 -1.9170
21771SOL    HW266415   3.618   4.929   7.887 -0.5859  0.4026 -0.6424
21772SOL     OW66416   0.139   2.639   8.164 -0.2782 -0.3086 -0.0267
21772SOL    HW166417   0.052   2.609   8.193  0.4386  0.4572  3.3507
21772SOL    HW266418   0.170   2.570   8.106 -2.5738 -1.2655 -0.2282
21773SOL     OW66419   1.997   8.887   0.235  0.1450 -0.1254  0.7103
21773SOL    HW166420   2.091   8.879   0.218 -0.4044 -3.4367 -1.6742
21773SOL    HW266421   1.985   8.845   0.320  0.5611 -2.5797 -0.3569
21774SOL     OW66422   7.993   6.459   1.001  0.0873 -0.4303  0.3252
21774SOL    HW166423   8.072   6.419   1.038  1.0857 -0.1577 -1.3644
21774SOL    HW266424   8.023   6.499   0.919 -1.5145  1.0308  0.3918
21775SOL     OW66425   0.241   2.361   1.419  0.3545 -0.3845  0.2888
21775SOL    HW166426   0.152   2.398   1.422  0.7735  0.6691 -0.0143
21775SOL    HW266427   0.244   2.302   1.494 -0.9741 -1.3005 -0.3372
21776SOL     OW66428   3.002   1.318   8.906 -0.1330  0.1291  0.5991
21776SOL    HW166429   2.963   1.236   8.877  0.2260 -0.0729  0.6779
21776SOL    HW266430   2.945   1.348   8.977 -0.8942  0.5223 -0.1647
21777SOL     OW66431   3.658   6.082   6.133 -0.2555 -0.5897 -0.8277
21777SOL    HW166432   3.731   6.142   6.150 -0.2499 -0.4563 -1.3033
21777SOL    HW266433   3.610   6.122   6.061 -1.9933  0.3764  0.7703
21778SOL     OW66434   8.130   2.478   8.784  0.8178 -0.3128 -0.0136
21778SOL    HW166435   8.118   2.504   8.692  0.0343  0.7807  0.3671
21778SOL    HW266436   8.143   2.561   8.830  1.8948 -0.8985  0.7840
21779SOL     OW66437   4.583   6.982   0.874 -0.3293  0.4183  0.3795
21779SOL    HW166438   4.498   7.022   0.856 -0.3121 -0.0961 -0.9794
21779SOL    HW266439   4.640   7.016   0.805  0.1720 -0.4206  0.3740
21780SOL     OW66440   5.901   5.912   0.677  0.8447 -0.2470 -0.0868
21780SOL    HW166441   5.916   5.948   0.764  0.8831 -1.6055  0.4938
21780SOL    HW266442   5.816   5.868   0.684 -0.4141  1.8191 -1.4903
21781SOL     OW66443   7.890   6.188   4.287 -0.2461 -0.1085 -0.2239
21781SOL    HW166444   7.882   6.178   4.193  1.1835 -0.3628 -0.3534
21781SOL    HW266445   7.899   6.282   4.301  2.1325 -0.1908 -0.6573
21782SOL     OW66446   6.468   3.676   8.188  0.5080 -0.5265  0.5212
21782SOL    HW166447   6.484   3.767   8.163 -0.9971  0.2132  2.0324
21782SOL    HW266448   6.391   3.680   8.244  0.0785 -2.8221  0.1903
21783SOL     OW66449   5.844   3.869   0.881  0.3973  0.6120  0.0596
21783SOL    HW166450   5.815   3.848   0.970 -0.6233 -1.5041 -0.7283
21783SOL    HW266451   5.785   3.939   0.853 -0.5862 -0.0949  0.3292
21784SOL     OW66452   0.120   8.207   5.645  0.0383  0.3531 -0.2368
21784SOL    HW166453   0.109   8.140   5.578  0.7021  0.5217 -0.5262
21784SOL    HW266454   0.034   8.248   5.653 -0.1331  0.0917 -0.7299
21785SOL     OW66455   7.867   3.076   4.951  0.3177  0.1574 -0.1187
21785SOL    HW166456   7.890   3.146   5.013 -0.4904  1.0523 -0.8016
21785SOL    HW266457   7.790   3.109   4.904  0.6342 -0.6856 -1.2896
21786SOL     OW66458   2.326   4.533   6.122  0.3026  0.2033  0.3451
21786SOL    HW166459   2.339   4.450   6.076  0.0563  0.3231  0.0533
21786SOL    HW266460   2.361   4.599   6.062 -1.3146  0.5099 -0.3395
21787SOL     OW66461   6.003   3.851   7.152 -0.4784  0.1379  0.8122
21787SOL    HW166462   5.925   3.840   7.207 -2.0228  2.1150 -0.8560
21787SOL    HW266463   6.048   3.927   7.189 -2.3910  2.5131 -1.4648
21788SOL     OW66464   0.350   1.426   0.208 -0.3576  0.1646  0.1339
21788SOL    HW166465   0.327   1.462   0.123 -1.2149  1.3186  0.8129
21788SOL    HW266466   0.306   1.341   0.211  1.4084 -0.8726 -1.3591
21789SOL     OW66467   6.291   0.866   3.203  0.3189  0.8151 -0.2642
21789SOL    HW166468   6.249   0.845   3.287  0.2690  0.1673 -0.4414
21789SOL    HW266469   6.220   0.858   3.139  0.9821 -1.9331 -0.7947
21790SOL     OW66470   0.462   3.494   6.606 -0.1546  0.1703  0.2196
21790SOL    HW166471   0.386   3.439   6.587 -0.0793  0.4186 -0.8566
21790SOL    HW266472   0.485   3.533   6.522  0.8435  0.5093  0.6349
21791SOL     OW66473   0.548   7.431   0.800 -0.4775 -0.5114  0.1588
21791SOL    HW166474   0.491   7.466   0.732 -2.6459 -2.1029  1.0442
21791SOL    HW266475   0.543   7.495   0.870 -1.0506 -0.5329  0.1457
21792SOL     OW66476   3.507   8.637   4.137  0.0819  0.1191 -0.2868
21792SOL    HW166477   3.561   8.610   4.063  0.1017 -1.3899  0.2529
21792SOL    HW266478   3.439   8.693   4.098  0.5101 -0.0782 -1.3362
21793SOL     OW66479   3.710   8.176   7.274  0.3505 -0.2983  0.0461
21793SOL    HW166480   3.773   8.187   7.345 -0.0736 -1.8976  0.7199
21793SOL    HW266481   3.760   8.194   7.194  1.5125 -0.9349  0.6045
21794SOL     OW66482   2.984   8.172   3.227  0.0243  0.0910  0.1654
21794SOL    HW166483   3.039   8.200   3.154  2.2059  1.2862  2.1588
21794SOL    HW266484   3.024   8.211   3.304 -2.5840 -0.5497  1.9800
21795SOL     OW66485   0.183   2.411   7.171 -0.2934  0.1202 -0.5046
21795SOL    HW166486   0.125   2.339   7.195 -0.7862  1.1960  1.8479
21795SOL    HW266487   0.181   2.469   7.247 -0.3489  2.8925 -2.4697
21796SOL     OW66488   2.273   5.736   6.338 -0.5502 -0.2740 -0.2271
21796SOL    HW166489   2.346   5.680   6.362 -2.4441 -2.5407  0.6662
21796SOL    HW266490   2.202   5.711   6.397 -1.9046  2.2728 -0.5948
21797SOL     OW66491   8.477   2.243   1.334  0.2595  0.4624 -0.3739
21797SOL    HW166492   8.385   2.220   1.322  0.0906 -0.0079  1.5200
21797SOL    HW266493   8.498   2.296   1.257 -1.6939  0.8958 -0.6833
21798SOL     OW66494   6.427   2.346   1.777 -0.9276 -0.4247  0.0590
21798SOL    HW166495   6.389   2.428   1.810 -1.9728 -1.2757  1.0627
21798SOL    HW266496   6.402   2.281   1.842 -0.4239 -1.6177 -0.9140
21799SOL     OW66497   3.825   7.946   5.092  0.6796  0.2455  0.0122
21799SOL    HW166498   3.841   7.853   5.108  1.1822  0.1195 -1.1362
21799SOL    HW266499   3.783   7.977   5.172  0.9886 -0.8473  0.6202
21800SOL     OW66500   6.245   7.196   6.655 -0.3056  0.0067  0.3555
21800SOL    HW166501   6.181   7.242   6.709 -0.3838 -0.6357  0.8283
21800SOL    HW266502   6.328   7.239   6.675 -0.1628 -0.8788  1.7887
21801SOL     OW66503   5.046   6.449   7.260  0.1254 -0.3315 -0.4416
21801SOL    HW166504   5.128   6.471   7.305 -0.8033  3.4845 -0.3322
21801SOL    HW266505   5.075   6.408   7.178  1.9549 -2.2740  1.0449
21802SOL     OW66506   7.843   6.846   6.526 -0.0167 -0.0983  0.1394
21802SOL    HW166507   7.901   6.798   6.468 -1.1577  0.3820 -1.4748
21802SOL    HW266508   7.901   6.905   6.575  0.8667  0.5773 -1.6221
21803SOL     OW66509   6.086   2.619   1.685  0.1283  0.4143 -0.2473
21803SOL    HW166510   6.064   2.698   1.733  0.3463  0.4202 -0.1534
21803SOL    HW266511   6.179   2.629   1.662  1.2716 -1.3672  2.9247
21804SOL     OW66512   0.731   4.284   2.555 -0.1924 -0.0066 -0.0657
21804SOL    HW166513   0.691   4.359   2.598 -1.1815 -0.1859 -0.6467
21804SOL    HW266514   0.700   4.208   2.605  1.7534 -0.0076  1.2696
21805SOL     OW66515   6.047   8.710   7.596  0.1334  0.2531  0.2816
21805SOL    HW166516   5.977   8.646   7.583  0.0219  0.2994  0.6307
21805SOL    HW266517   6.008   8.775   7.655  0.3648  0.4487  0.2173
21806SOL     OW66518   3.296   7.676   1.572  0.2222 -0.6024 -0.0138
21806SOL    HW166519   3.255   7.632   1.498 -1.2693  1.0325 -0.2406
21806SOL    HW266520   3.390   7.664   1.559  0.0062 -0.3029 -2.2008
21807SOL     OW66521   8.388   5.185   2.521 -0.2344 -0.1358 -0.0353
21807SOL    HW166522   8.416   5.096   2.546 -1.0918 -0.0258  1.4355
21807SOL    HW266523   8.412   5.239   2.597 -0.5814  0.7151 -0.5266
21808SOL     OW66524   1.027   1.155   3.600 -0.2843  0.3361  0.1396
21808SOL    HW166525   0.932   1.152   3.600 -0.2938  0.5528  0.1168
21808SOL    HW266526   1.048   1.241   3.637 -0.1204  0.6057 -0.5538
21809SOL     OW66527   1.871   8.556   2.955 -0.0831 -0.5009 -0.4272
21809SOL    HW166528   1.948   8.525   2.907  1.3069  1.7813  0.2027
21809SOL    HW266529   1.817   8.599   2.889  0.9943  1.1067 -0.3098
21810SOL     OW66530   6.337   2.198   3.586 -0.1764  0.1487  0.4363
21810SOL    HW166531   6.404   2.233   3.645 -0.2774 -1.1021  1.3294
21810SOL    HW266532   6.256   2.203   3.636 -0.1629 -1.4793  0.6807
21811SOL     OW66533   8.047   2.527   8.528 -0.1205 -0.5572 -0.2864
21811SOL    HW166534   7.966   2.489   8.563 -1.7609  0.8669 -2.2740
21811SOL    HW266535   8.040   2.515   8.433  2.3208 -0.8838 -0.4981
21812SOL     OW66536   8.999   0.267   0.182 -0.0911 -0.2082  0.2192
21812SOL    HW166537   9.053   0.309   0.249  0.6704 -0.8101 -0.0066
21812SOL    HW266538   8.936   0.214   0.231 -0.1068  0.0398  0.4691
21813SOL     OW66539   1.901   1.380   4.134 -0.4838 -0.1871  0.2961
21813SOL    HW166540   1.932   1.355   4.221  1.3895  1.2962  0.1309
21813SOL    HW266541   1.813   1.415   4.148 -0.7491 -1.2223  1.3652
21814SOL     OW66542   3.344   3.514   8.879 -0.2211  0.0746 -0.0775
21814SOL    HW166543   3.252   3.523   8.903 -0.2118 -0.4045  0.1490
21814SOL    HW266544   3.349   3.430   8.834  0.3061 -0.4497  0.9240
21815SOL     OW66545   0.981   5.011   5.180 -0.6886  0.2293 -0.0258
21815SOL    HW166546   1.023   5.054   5.106  0.6263 -0.6009  0.2087
21815SOL    HW266547   0.948   4.928   5.145 -3.7339  1.5457 -0.6198
21816SOL     OW66548   8.781   8.957   1.761  0.2675 -0.6128 -1.0023
21816SOL    HW166549   8.717   8.888   1.748 -0.4818 -0.3129  0.7644
21816SOL    HW266550   8.832   8.929   1.837  0.6044  0.3093 -0.8700
21817SOL     OW66551   0.813   6.762   4.905 -0.1838 -0.6524  0.2874
21817SOL    HW166552   0.718   6.754   4.892 -0.3822 -1.9334  2.1007
21817SOL    HW266553   0.821   6.819   4.981  0.6320  1.2666 -1.1645
21818SOL     OW66554   0.424   3.966   6.252 -0.5905 -0.3299  0.0564
21818SOL    HW166555   0.514   3.934   6.252 -0.7516 -0.8035 -0.3400
21818SOL    HW266556   0.374   3.895   6.293 -0.8644 -0.3282 -0.2673
21819SOL     OW66557   6.038   7.258   3.437  0.8476 -0.2135 -0.2925
21819SOL    HW166558   6.023   7.282   3.346 -0.1105 -0.0636 -0.1006
21819SOL    HW266559   6.126   7.290   3.456  1.1215 -0.3998 -1.2118
21820SOL     OW66560   5.178   7.030   4.895 -0.0594  0.7956  0.0161
21820SOL    HW166561   5.220   7.108   4.860  1.3182 -0.0778 -0.3732
21820SOL    HW266562   5.140   6.987   4.819  0.1487  0.5259  0.0632
21821SOL     OW66563   8.602   6.803   4.792 -0.2844 -0.1947 -0.0405
21821SOL    HW166564   8.610   6.819   4.886 -1.6974 -1.8055  0.4013
21821SOL    HW266565   8.693   6.804   4.760  0.1741  1.0571  1.1807
21822SOL     OW66566   3.014   7.705   1.675 -0.1294  0.0652  0.1157
21822SOL    HW166567   2.944   7.706   1.609 -1.4729  0.5195  1.4848
21822SOL    HW266568   3.094   7.695   1.624 -1.2785 -2.4094 -1.4483
21823SOL     OW66569   2.300   8.403   7.072  0.0475  0.0303 -0.4556
21823SOL    HW166570   2.382   8.405   7.022 -0.2932 -0.4327 -1.0389
21823SOL    HW266571   2.244   8.469   7.030  0.6457  1.4757  0.8987
21824SOL     OW66572   5.753   3.387   6.509 -0.3064 -0.4315  0.4254
21824SOL    HW166573   5.787   3.356   6.593 -0.3907 -0.4730  0.4448
21824SOL    HW266574   5.823   3.368   6.447 -0.4665 -0.9192  0.3901
21825SOL     OW66575   1.874   2.206   7.771  0.2543 -0.5067 -0.2011
21825SOL    HW166576   1.944   2.179   7.830 -0.8701 -1.5588  0.6921
21825SOL    HW266577   1.823   2.270   7.822  0.1626 -0.2555 -0.6010
21826SOL     OW66578   3.568   7.050   0.960  0.2005 -0.0589  0.1426
21826SOL    HW166579   3.609   7.035   1.045 -1.9579 -0.1907  1.2275
21826SOL    HW266580   3.639   7.082   0.904  1.8741 -0.8680  1.7110
21827SOL     OW66581   0.967   4.775   8.595  0.3908  0.2729 -0.1513
21827SOL    HW166582   1.032   4.781   8.526 -1.3380  0.4546 -1.8591
21827SOL    HW266583   0.905   4.845   8.576 -0.3822  0.0172  1.3094
21828SOL     OW66584   4.516   1.863   1.073 -0.0181 -0.2751  0.6258
21828SOL    HW166585   4.442   1.862   1.135 -0.1763 -1.5224  0.4369
21828SOL    HW266586   4.486   1.809   1.000 -0.1196  1.7478 -0.9225
21829SOL     OW66587   0.351   8.304   4.382 -0.2497 -0.1136 -0.3831
21829SOL    HW166588   0.424   8.322   4.440 -0.8052  0.5848  0.1238
21829SOL    HW266589   0.327   8.213   4.399 -1.4032  0.5182  1.6516
21830SOL     OW66590   1.097   6.648   1.403 -0.4237  0.2058  0.3464
21830SOL    HW166591   1.031   6.636   1.335 -0.4583 -2.0485  0.7271
21830SOL    HW266592   1.140   6.731   1.380  0.3905 -1.0008 -3.1269
21831SOL     OW66593   0.046   7.018   8.238 -0.1120 -0.6916 -0.1133
21831SOL    HW166594   0.016   7.109   8.234 -0.8716 -0.8606  1.1860
21831SOL    HW266595   0.022   6.981   8.153 -0.7271  0.0528 -0.2752
21832SOL     OW66596   1.784   7.239   7.193  0.4290  0.3327 -0.3546
21832SOL    HW166597   1.873   7.266   7.215  0.4712  0.3828 -0.5875
21832SOL    HW266598   1.728   7.289   7.253  0.4936  1.0417 -0.8829
21833SOL     OW66599   7.310   1.457   3.842 -0.0809  0.2463 -0.2024
21833SOL    HW166600   7.255   1.420   3.911 -1.5690 -0.6703 -1.8004
21833SOL    HW266601   7.248   1.492   3.778  1.2631  1.2494 -1.0123
21834SOL     OW66602   2.882   0.307   6.069  0.7643  0.0928  0.4990
21834SOL    HW166603   2.860   0.370   6.000  0.4771 -0.4777  0.0595
21834SOL    HW266604   2.972   0.328   6.093  0.8745  0.2838 -0.0668
21835SOL     OW66605   5.866   5.164   5.442 -0.5815 -0.0677  0.8874
21835SOL    HW166606   5.953   5.189   5.472 -0.1086 -2.4385  1.7643
21835SOL    HW266607   5.850   5.216   5.364  1.2347  1.0630  1.2306
21836SOL     OW66608   4.630   6.115   2.479 -0.2149 -0.1117  0.0304
21836SOL    HW166609   4.697   6.162   2.428 -0.3358 -0.5414 -0.5373
21836SOL    HW266610   4.588   6.184   2.532 -0.3343  0.4175 -0.7287
21837SOL     OW66611   8.280   2.575   3.813  0.0323 -0.1910 -0.2580
21837SOL    HW166612   8.347   2.508   3.803  0.0599 -0.0324 -1.2501
21837SOL    HW266613   8.305   2.623   3.892  0.1774 -1.1442  0.2861
21838SOL     OW66614   5.210   1.079   3.336  0.1562  0.3572  0.2734
21838SOL    HW166615   5.278   1.044   3.278  0.2814  3.5952 -1.8038
21838SOL    HW266616   5.128   1.059   3.292  0.1614  1.5030 -0.2855
21839SOL     OW66617   0.949   3.591   0.527  0.2619 -0.9864 -0.9598
21839SOL    HW166618   0.917   3.631   0.608  0.8912 -1.7476 -0.3260
21839SOL    HW266619   0.894   3.513   0.516  1.3134 -1.8424 -0.3118
21840SOL     OW66620   7.314   3.091   0.889  0.2779  0.3058  0.4913
21840SOL    HW166621   7.325   3.057   0.801 -1.5229  0.7003  0.0649
21840SOL    HW266622   7.329   3.185   0.880  2.2582  0.0715  1.0648
21841SOL     OW66623   5.469   5.337   3.879 -0.0685  0.3409 -0.2535
21841SOL    HW166624   5.450   5.388   3.958 -0.6245  0.5942 -0.5394
21841SOL    HW266625   5.444   5.248   3.902  1.5285  0.0461  0.4709
21842SOL     OW66626   8.625   5.618   7.376  0.2195 -0.4411 -0.7851
21842SOL    HW166627   8.607   5.661   7.460 -0.6128 -0.8029 -0.7718
21842SOL    HW266628   8.713   5.648   7.353 -0.0173  0.6259 -0.3845
21843SOL     OW66629   4.125   4.191   4.948 -0.0850  0.4802  0.2503
21843SOL    HW166630   4.157   4.145   5.025 -1.7291  0.7880  1.1614
21843SOL    HW266631   4.123   4.283   4.974 -2.3367  0.4171  0.5282
21844SOL     OW66632   6.901   1.831   7.827  0.1426 -0.2546 -0.3803
21844SOL    HW166633   6.952   1.906   7.798 -0.9565  0.2551 -1.0525
21844SOL    HW266634   6.910   1.832   7.923  1.5873 -0.3481 -0.4975
21845SOL     OW66635   4.404   6.821   0.408 -0.1531 -0.3449 -0.3629
21845SOL    HW166636   4.373   6.734   0.382 -1.1841 -0.6740  1.7249
21845SOL    HW266637   4.329   6.879   0.392  0.1903 -0.0277 -0.8267
21846SOL     OW66638   5.216   5.735   4.645  0.3160  0.4277  0.4368
21846SOL    HW166639   5.187   5.684   4.720  1.2130  1.4978  1.5631
21846SOL    HW266640   5.310   5.747   4.659  0.1252  2.4201  0.2914
21847SOL     OW66641   4.962   3.393   5.434 -0.2879  0.1739 -0.5751
21847SOL    HW166642   4.962   3.421   5.526  0.2612  3.0736 -1.3447
21847SOL    HW266643   5.048   3.353   5.421  0.2206  1.0725 -0.1301
21848SOL     OW66644   8.452   4.006   0.298 -0.1895 -0.3524  0.0944
21848SOL    HW166645   8.484   4.057   0.224 -3.3282  1.9739  0.1478
21848SOL    HW266646   8.508   4.031   0.371  1.1149 -0.4623 -0.8307
21849SOL     OW66647   2.583   4.938   7.835  0.1627  0.1433 -0.1952
21849SOL    HW166648   2.545   4.899   7.913 -0.3754 -0.6123 -0.8078
21849SOL    HW266649   2.666   4.975   7.864 -0.1168  0.0327  0.7616
21850SOL     OW66650   0.580   9.026   3.805  0.3530 -0.3218 -0.4577
21850SOL    HW166651   0.556   9.064   3.890 -3.5080  1.1504 -1.9904
21850SOL    HW266652   0.539   8.939   3.805 -0.1842 -0.0731 -1.0274
21851SOL     OW66653   0.185   8.330   3.171 -0.8339 -0.3705 -0.2723
21851SOL    HW166654   0.226   8.416   3.179 -0.8549 -0.3152 -0.7310
21851SOL    HW266655   0.114   8.332   3.235  0.1636 -0.6447  0.8681
21852SOL     OW66656   0.058   7.706   7.234  0.1528  0.6482 -0.1844
21852SOL    HW166657   0.033   7.616   7.256  1.4667  0.6259  1.4123
21852SOL    HW266658   0.077   7.703   7.140 -0.6539 -0.5277 -0.3368
21853SOL     OW66659   4.290   5.776   8.940  0.1843  0.4187  0.2358
21853SOL    HW166660   4.236   5.729   9.004  3.0240 -1.7127  1.2831
21853SOL    HW266661   4.288   5.721   8.862  0.6649  0.4181  0.2228
21854SOL     OW66662   7.551   7.855   0.440 -0.2394  0.5081  0.2857
21854SOL    HW166663   7.603   7.775   0.446  1.5765  1.4946 -1.1527
21854SOL    HW266664   7.555   7.893   0.527 -1.7449 -1.2597  1.2059
21855SOL     OW66665   0.589   0.330   4.388 -0.1170  0.3048 -0.5394
21855SOL    HW166666   0.614   0.243   4.356 -0.2276  0.2130 -0.3808
21855SOL    HW266667   0.514   0.355   4.335 -2.8660 -1.5408  2.1442
21856SOL     OW66668   1.344   5.537   6.686  0.2015 -0.3803 -0.0017
21856SOL    HW166669   1.435   5.564   6.696 -0.1222  0.7788 -0.1142
21856SOL    HW266670   1.323   5.561   6.596 -0.7857  1.1383  0.6047
21857SOL     OW66671   0.028   4.669   4.840 -0.4122 -0.2981  0.3258
21857SOL    HW166672   0.045   4.611   4.913  0.3645 -1.1289 -0.4830
21857SOL    HW266673   0.023   4.611   4.764 -0.8659  0.5691 -0.3257
21858SOL     OW66674   7.841   2.893   7.587  0.2793 -0.2569 -0.7531
21858SOL    HW166675   7.903   2.953   7.547 -1.0123  0.9618 -1.0282
21858SOL    HW266676   7.894   2.832   7.637  1.7572 -0.0609 -2.0183
21859SOL     OW66677   6.460   2.887   8.447  0.1581 -0.6388 -0.1432
21859SOL    HW166678   6.514   2.858   8.372 -1.9984 -0.5503 -1.8283
21859SOL    HW266679   6.450   2.981   8.433 -2.4128 -1.0099 -1.3257
21860SOL     OW66680   5.789   8.706   7.180 -0.4246  0.1127  0.1703
21860SOL    HW166681   5.882   8.711   7.158 -0.7732 -1.8528 -2.2045
21860SOL    HW266682   5.785   8.722   7.275  2.3396 -0.0609  0.3802
21861SOL     OW66683   2.162   4.731   4.786  0.0529  0.3084  0.0192
21861SOL    HW166684   2.154   4.766   4.875 -0.0129  0.7213 -0.1504
21861SOL    HW266685   2.077   4.689   4.769  0.8030 -1.7419  0.9847
21862SOL     OW66686   7.332   6.858   2.853  0.0479 -0.1072  0.1853
21862SOL    HW166687   7.237   6.848   2.845 -0.0169 -0.4655  1.2101
21862SOL    HW266688   7.345   6.909   2.933  0.7360 -1.1472  0.7724
21863SOL     OW66689   4.435   7.469   6.110  0.7096  0.1982  0.6271
21863SOL    HW166690   4.390   7.441   6.189 -0.5285 -2.0227 -0.7955
21863SOL    HW266691   4.411   7.561   6.100 -0.9566 -0.0996  1.6109
21864SOL     OW66692   8.149   0.067   7.416  0.6106 -1.0028 -0.8189
21864SOL    HW166693   8.191   0.134   7.471  0.6445 -1.3968 -0.3536
21864SOL    HW266694   8.102   0.117   7.349 -0.1114 -0.4811  0.0556
21865SOL     OW66695   0.291   5.601   4.911 -0.0755  0.2309 -0.1897
21865SOL    HW166696   0.307   5.681   4.861  0.9793 -0.4281 -0.9361
21865SOL    HW266697   0.195   5.593   4.912 -0.2269  1.7494  0.3334
21866SOL     OW66698   0.155   3.715   5.788  0.1624  0.0744 -0.4443
21866SOL    HW166699   0.248   3.737   5.793  0.5548 -1.6266  0.9118
21866SOL    HW266700   0.147   3.634   5.838 -2.0905  0.2399 -0.4258
21867SOL     OW66701   0.040   1.533   5.072 -0.2247  0.3341  0.1801
21867SOL    HW166702   0.046   1.629   5.072 -1.0511  0.3960 -0.1629
21867SOL    HW266703   0.104   1.504   5.008 -0.6960  0.7203 -0.4782
21868SOL     OW66704   0.400   7.483   0.582 -0.1454  0.1264  0.5715
21868SOL    HW166705   0.402   7.577   0.561  1.6290  0.0600  0.2321
21868SOL    HW266706   0.430   7.441   0.501  0.6354 -0.5997  1.2203
21869SOL     OW66707   7.690   2.025   1.933 -0.1203  0.0773 -0.0279
21869SOL    HW166708   7.702   2.119   1.922  1.0823 -0.1693 -1.0708
21869SOL    HW266709   7.597   2.015   1.951 -0.5319  1.3670 -1.2163
21870SOL     OW66710   3.112   6.892   8.351 -0.7420 -0.9043 -0.3389
21870SOL    HW166711   3.062   6.971   8.373 -2.1410 -1.5648 -1.0301
21870SOL    HW266712   3.076   6.863   8.268  0.9272 -1.3473 -0.9518
21871SOL     OW66713   7.438   5.331   1.042 -0.3556 -0.0376  0.2337
21871SOL    HW166714   7.410   5.414   1.081  1.0708  1.4121 -1.6766
21871SOL    HW266715   7.420   5.341   0.948 -1.1878 -2.3591  0.0827
21872SOL     OW66716   2.848   2.843   5.927 -0.5852 -0.0081  0.1150
21872SOL    HW166717   2.943   2.834   5.922 -0.6024  0.3927 -2.2011
21872SOL    HW266718   2.829   2.846   6.021  1.7021  0.3036  0.6344
21873SOL     OW66719   7.356   7.994   3.350  0.0543  0.7568 -0.2308
21873SOL    HW166720   7.404   7.955   3.422 -0.6315 -1.3422 -0.8543
21873SOL    HW266721   7.284   8.043   3.392 -0.6183 -0.8187  0.5221
21874SOL     OW66722   0.061   0.936   0.648 -0.4151  0.2404 -0.0564
21874SOL    HW166723   0.023   0.920   0.562  1.1832 -2.2867 -0.4111
21874SOL    HW266724   0.141   0.884   0.649 -0.5970 -0.2169  3.1360
21875SOL     OW66725   7.580   5.510   1.465 -0.0008 -0.5928  0.1521
21875SOL    HW166726   7.571   5.571   1.539 -0.9427  0.9219 -1.1555
21875SOL    HW266727   7.660   5.461   1.485  0.2541  0.3813  1.7363
21876SOL     OW66728   4.009   9.076   4.416  0.4575 -0.4535  0.3081
21876SOL    HW166729   3.935   9.016   4.418  0.2799 -0.2601 -0.2014
21876SOL    HW266730   4.084   9.020   4.394  0.5415 -0.7171  1.2192
21877SOL     OW66731   7.389   1.512   1.578 -0.5162 -0.3155  0.3529
21877SOL    HW166732   7.419   1.474   1.661 -3.0241 -0.0359  1.4597
21877SOL    HW266733   7.440   1.466   1.511  0.4886 -1.6297  1.9378
21878SOL     OW66734   3.511   1.315   2.344  0.0784 -0.2266  0.4628
21878SOL    HW166735   3.542   1.359   2.423 -1.0317  0.4487  0.5464
21878SOL    HW266736   3.589   1.273   2.308  0.8381  0.4456  1.2742
21879SOL     OW66737   1.954   6.907   1.386 -0.3667 -0.0996  0.0101
21879SOL    HW166738   2.037   6.860   1.389 -0.4579 -0.2532  0.1314
21879SOL    HW266739   1.970   6.981   1.328  0.1418  0.4137  0.7839
21880SOL     OW66740   6.416   5.287   8.269 -0.1739  0.3408  0.1490
21880SOL    HW166741   6.447   5.352   8.205 -0.6586 -0.5571 -1.0369
21880SOL    HW266742   6.329   5.262   8.238 -1.2014  1.1998  2.1997
21881SOL     OW66743   7.334   1.918   2.225  0.5405  0.1677 -0.2377
21881SOL    HW166744   7.341   2.004   2.185  2.2858 -0.4884 -1.4800
21881SOL    HW266745   7.364   1.931   2.315 -0.1570  1.0352 -0.1279
21882SOL     OW66746   3.141   4.167   8.055 -0.3422  0.0682  0.0718
21882SOL    HW166747   3.160   4.189   8.146 -1.9769 -0.5042  0.5865
21882SOL    HW266748   3.129   4.251   8.012 -0.8769  0.3297  0.7084
21883SOL     OW66749   7.038   6.587   4.400 -0.1058 -0.2615  0.0154
21883SOL    HW166750   7.087   6.559   4.323  0.9476 -0.4013  0.7225
21883SOL    HW266751   7.002   6.673   4.375 -0.4761 -0.6650 -0.9134
21884SOL     OW66752   2.315   8.810   4.092  0.2773 -0.7872  0.0679
21884SOL    HW166753   2.244   8.854   4.138 -2.9335 -3.1606 -2.1540
21884SOL    HW266754   2.304   8.717   4.114  1.2966 -1.4819 -2.0540
21885SOL     OW66755   0.031   2.733   1.681  0.4046  0.8583 -0.0395
21885SOL    HW166756   0.022   2.691   1.767  0.1057  0.3659 -0.3022
21885SOL    HW266757  -0.051   2.713   1.636  1.0857 -0.0661 -0.9392
21886SOL     OW66758   1.578   0.959   6.895  0.0708  0.1072 -0.6964
21886SOL    HW166759   1.566   1.041   6.847 -2.0815 -0.7971 -1.8745
21886SOL    HW266760   1.531   0.894   6.842  0.3897 -1.5878  1.0012
21887SOL     OW66761   5.263   1.208   0.235  0.5738 -0.0591 -0.1350
21887SOL    HW166762   5.291   1.293   0.202  1.3266  0.1333  0.9486
21887SOL    HW266763   5.345   1.158   0.245  0.3880 -0.0673  1.5133
21888SOL     OW66764   0.345   3.063   9.012 -0.2159  0.4274 -1.4568
21888SOL    HW166765   0.267   3.093   9.059 -0.4894 -0.6022 -1.2425
21888SOL    HW266766   0.311   3.033   8.927  0.1030  1.0263 -1.8035
21889SOL     OW66767   8.964   7.638   8.871  0.0465 -0.2948  0.2457
21889SOL    HW166768   9.004   7.651   8.957 -1.2619 -3.4534  1.4877
21889SOL    HW266769   8.899   7.709   8.865  1.7400  1.3964  0.7242
21890SOL     OW66770   1.683   1.759   5.566 -0.3972 -0.3205  0.6886
21890SOL    HW166771   1.681   1.671   5.604  2.7742 -0.4829  0.7967
21890SOL    HW266772   1.637   1.751   5.483 -0.0890 -2.1341  0.6473
21891SOL     OW66773   6.623   1.729   3.261 -0.3199 -0.3089 -0.8370
21891SOL    HW166774   6.674   1.803   3.228  0.9290 -1.1582 -0.8695
21891SOL    HW266775   6.573   1.765   3.335  0.0550  0.6242 -1.0343
21892SOL     OW66776   5.405   8.543   4.511 -0.5195 -0.1165 -0.4081
21892SOL    HW166777   5.346   8.534   4.586  2.0408  1.6481  2.0229
21892SOL    HW266778   5.369   8.617   4.462 -1.1915 -0.0662  0.1430
21893SOL     OW66779   1.562   5.276   5.948 -0.8001 -0.0840 -0.2279
21893SOL    HW166780   1.495   5.314   6.005 -0.3915  1.4832 -0.7558
21893SOL    HW266781   1.549   5.181   5.956 -1.1004  0.0938  2.0570
21894SOL     OW66782   7.675   6.493   5.567 -0.2115 -0.3225 -0.0550
21894SOL    HW166783   7.640   6.563   5.623 -0.1286 -0.0389 -0.3508
21894SOL    HW266784   7.639   6.512   5.481  0.0490 -0.4800 -0.1977
21895SOL     OW66785   3.108   8.869   7.414 -0.1825 -0.2700  0.2636
21895SOL    HW166786   3.162   8.897   7.488 -1.6002  0.4633  1.0614
21895SOL    HW266787   3.130   8.777   7.402  2.4029  0.3567 -0.4984
21896SOL     OW66788   2.965   4.921   2.487  0.1697  0.0761  0.2808
21896SOL    HW166789   3.023   4.995   2.472 -0.6395  0.7467  0.4101
21896SOL    HW266790   2.968   4.872   2.405 -1.1703  1.5799 -0.7126
21897SOL     OW66791   7.885   5.622   8.933 -0.2512 -0.2606  0.6075
21897SOL    HW166792   7.970   5.667   8.932 -1.1914  1.6264  0.0974
21897SOL    HW266793   7.886   5.567   8.855 -0.3268  1.5358 -0.7506
21898SOL     OW66794   8.750   5.469   3.105 -0.0300  0.8781  0.0984
21898SOL    HW166795   8.841   5.496   3.109  0.7642 -1.5665  0.4726
21898SOL    HW266796   8.729   5.470   3.011  1.7273 -2.2437 -0.4731
21899SOL     OW66797   7.119   8.154   4.432  0.4602  0.1397 -0.2109
21899SOL    HW166798   7.211   8.145   4.407  0.7637 -0.5764  1.0454
21899SOL    HW266799   7.121   8.157   4.528 -0.8682 -0.6822 -0.1327
21900SOL     OW66800   0.088   0.620   3.615 -0.1966  0.4164 -0.5653
21900SOL    HW166801   0.003   0.620   3.659  0.9368  0.4451  1.7596
21900SOL    HW266802   0.123   0.532   3.631  0.2088  0.3973 -1.5239
21901SOL     OW66803   8.762   1.312   1.684  0.5996  0.1008 -0.3668
21901SOL    HW166804   8.701   1.259   1.736  1.2444 -0.7638 -0.4679
21901SOL    HW266805   8.849   1.286   1.715  0.9476  0.5969 -0.9071
21902SOL     OW66806   0.539   3.308   3.165 -0.5359 -0.1033  0.1875
21902SOL    HW166807   0.629   3.324   3.192 -0.4546  1.5462 -0.9503
21902SOL    HW266808   0.488   3.376   3.210 -0.9434  0.1266 -0.5992
21903SOL     OW66809   1.130   0.916   0.266  0.3316 -0.0011  0.1199
21903SOL    HW166810   1.221   0.891   0.250  0.6674  1.8879 -1.2413
21903SOL    HW266811   1.135   1.005   0.300 -1.0121  0.5135 -0.9164
21904SOL     OW66812   4.796   3.859   2.635 -0.2086  0.5182 -0.4231
21904SOL    HW166813   4.815   3.889   2.723 -0.3318 -0.5179 -0.0322
21904SOL    HW266814   4.873   3.885   2.584  0.0389  0.7682  0.0724
21905SOL     OW66815   5.885   5.346   8.877  0.2487  0.0241  0.4896
21905SOL    HW166816   5.808   5.339   8.820  0.7358 -0.6119 -0.1052
21905SOL    HW266817   5.952   5.384   8.820 -0.3643  3.3602  1.7366
21906SOL     OW66818   7.920   3.524   5.873  0.2126 -0.2358 -0.3166
21906SOL    HW166819   7.988   3.526   5.805  1.6367  0.5704  1.0719
21906SOL    HW266820   7.898   3.616   5.887 -0.9690 -0.4727 -0.5194
21907SOL     OW66821   3.597   1.586   6.898 -0.0444  0.3845 -0.1557
21907SOL    HW166822   3.556   1.500   6.895  0.5216  0.1095 -0.0555
21907SOL    HW266823   3.555   1.635   6.827 -0.1238 -0.0812 -0.4339
21908SOL     OW66824   5.877   8.761   6.579 -0.2598 -0.0472 -0.0109
21908SOL    HW166825   5.860   8.825   6.648 -0.1590  0.5190 -0.4983
21908SOL    HW266826   5.802   8.771   6.519 -0.6453 -0.9400  0.3077
21909SOL     OW66827   7.437   6.140   0.333 -0.3078  0.1682 -0.3795
21909SOL    HW166828   7.394   6.189   0.403  0.7106  0.6240 -0.0586
21909SOL    HW266829   7.527   6.130   0.362  0.3844  1.2003 -2.0548
21910SOL     OW66830   6.945   6.870   8.442  0.0529  0.0422  0.0843
21910SOL    HW166831   6.904   6.954   8.462 -1.8548 -0.7913 -0.0849
21910SOL    HW266832   6.899   6.807   8.496 -0.6434 -1.3033 -1.9443
21911SOL     OW66833   5.833   7.878   6.574  0.0007 -0.0508  0.3648
21911SOL    HW166834   5.786   7.852   6.653 -0.9723  1.0014  0.1649
21911SOL    HW266835   5.888   7.803   6.552 -0.6464 -0.8252  1.3307
21912SOL     OW66836   5.376   2.004   1.803  0.4496  0.4413  0.7232
21912SOL    HW166837   5.376   2.002   1.899  0.6369  2.5494  0.8194
21912SOL    HW266838   5.466   1.980   1.779  0.1838 -0.9339  1.0033
21913SOL     OW66839   6.582   7.353   7.526  0.4142 -0.5541 -0.1513
21913SOL    HW166840   6.488   7.344   7.512  0.3710  0.8827 -0.9831
21913SOL    HW266841   6.612   7.405   7.452  2.0374 -1.7602 -0.4025
21914SOL     OW66842   3.601   0.798   4.937  0.3377  0.0500 -0.4853
21914SOL    HW166843   3.601   0.872   4.999  1.7600  0.1437 -0.5795
21914SOL    HW266844   3.681   0.809   4.886  1.4095 -2.4023  0.5192
21915SOL     OW66845   1.807   6.035   5.080 -0.3601  0.3367  0.2586
21915SOL    HW166846   1.818   5.940   5.088  1.6151  0.5025 -0.0132
21915SOL    HW266847   1.796   6.049   4.986 -0.5718  0.3959  0.2916
21916SOL     OW66848   1.914   6.516   1.470  0.3027 -0.6011 -0.1666
21916SOL    HW166849   1.929   6.480   1.558  0.5610 -1.1858 -0.4390
21916SOL    HW266850   1.976   6.468   1.415 -2.2954 -2.9306 -1.3138
21917SOL     OW66851   3.876   5.436   7.759  0.0007  0.1375  0.5322
21917SOL    HW166852   3.925   5.485   7.824  1.9042 -0.8683 -0.0767
21917SOL    HW266853   3.841   5.361   7.807  1.9626 -0.9664  0.3579
21918SOL     OW66854   2.231   7.556   3.400 -0.1638  0.1291  0.3934
21918SOL    HW166855   2.236   7.465   3.429  1.3921  0.1988  0.4350
21918SOL    HW266856   2.243   7.607   3.480 -0.5838  0.3742  0.3032
21919SOL     OW66857   8.209   8.629   5.171  0.1806 -0.0075 -0.3812
21919SOL    HW166858   8.255   8.545   5.180  0.2224  0.0748  0.2477
21919SOL    HW266859   8.175   8.628   5.082 -0.9105 -1.2651  0.0126
21920SOL     OW66860   8.819   6.654   6.298 -0.3067  0.1034  0.1400
21920SOL    HW166861   8.728   6.625   6.302  0.3279 -1.9776  0.6602
21920SOL    HW266862   8.867   6.578   6.264  1.1904  1.2791 -0.4822
21921SOL     OW66863   0.004   8.462   8.149 -0.2052 -0.4790 -0.3266
21921SOL    HW166864  -0.036   8.393   8.096  0.7681  0.1043 -1.8716
21921SOL    HW266865   0.042   8.415   8.224 -2.4432 -1.1939  0.4407
21922SOL     OW66866   3.761   7.417   4.944 -0.5405 -0.3007 -0.7623
21922SOL    HW166867   3.852   7.441   4.924  0.4573 -0.2135  3.1404
21922SOL    HW266868   3.757   7.323   4.926  0.5313 -0.4433 -0.3348
21923SOL     OW66869   6.954   5.079   7.809 -0.0447  0.3776  0.3781
21923SOL    HW166870   6.907   5.112   7.732  0.6387 -2.1462 -1.2359
21923SOL    HW266871   6.886   5.069   7.875 -0.7789  1.9192 -0.0904
21924SOL     OW66872   7.466   3.251   2.022 -0.3834 -0.1793 -0.3652
21924SOL    HW166873   7.418   3.196   2.085 -0.9566 -0.3284 -0.9235
21924SOL    HW266874   7.551   3.265   2.063 -1.9064  2.7636  2.1955
21925SOL     OW66875   3.230   8.564   8.700  0.0897  0.1517  0.4246
21925SOL    HW166876   3.159   8.523   8.750 -0.0763 -0.9010 -0.6359
21925SOL    HW266877   3.215   8.658   8.711 -1.8675 -0.0317 -0.2951
21926SOL     OW66878   3.650   6.837   7.079  0.8296  0.1064 -0.3190
21926SOL    HW166879   3.642   6.884   6.996 -1.1159  1.5163  0.5758
21926SOL    HW266880   3.743   6.819   7.087  1.1480  0.4310 -2.5170
21927SOL     OW66881   2.761   7.362   7.265  0.1100  0.4648  0.0633
21927SOL    HW166882   2.707   7.305   7.210 -0.3142  0.1399  0.8116
21927SOL    HW266883   2.782   7.309   7.341 -1.4226  1.7144  1.4408
21928SOL     OW66884   6.545   2.849   5.108  0.3807  0.4496  0.0494
21928SOL    HW166885   6.633   2.858   5.070  1.8046 -2.8551  2.1059
21928SOL    HW266886   6.496   2.798   5.043  1.2458 -0.9774  0.4824
21929SOL     OW66887   3.429   6.429   1.120 -0.3084  0.3805  0.0785
21929SOL    HW166888   3.475   6.367   1.064 -1.4005 -0.2256 -0.1826
21929SOL    HW266889   3.412   6.380   1.200  0.3264  0.9101  0.5493
21930SOL     OW66890   6.369   4.910   8.963  0.1167 -0.0133  0.7570
21930SOL    HW166891   6.367   4.816   8.983 -0.3032 -0.2898 -0.4657
21930SOL    HW266892   6.304   4.921   8.893  0.4255  1.1223  0.6294
21931SOL     OW66893   8.674   1.340   4.325  0.1426  0.4242 -0.4757
21931SOL    HW166894   8.665   1.333   4.420  0.0327  0.0912 -0.5122
21931SOL    HW266895   8.666   1.434   4.308 -1.8412  0.3111 -0.3639
21932SOL     OW66896   6.928   8.814   2.192  0.4833  0.0920  0.0234
21932SOL    HW166897   7.014   8.820   2.234  0.7011 -0.4886 -0.3273
21932SOL    HW266898   6.936   8.741   2.131  0.3385  1.2606 -1.4397
21933SOL     OW66899   0.944   7.021   8.329  0.1592  0.5691  0.0500
21933SOL    HW166900   0.955   7.114   8.305 -0.0069  1.1902  2.1763
21933SOL    HW266901   0.946   7.021   8.425  0.4846 -1.6895  0.0895
21934SOL     OW66902   2.397   6.585   1.964  0.0932 -0.1741 -0.1095
21934SOL    HW166903   2.306   6.612   1.977  0.5236  2.8048 -2.1711
21934SOL    HW266904   2.412   6.596   1.870  2.2804 -1.7333 -0.0104
21935SOL     OW66905   1.690   5.461   3.460 -0.1160 -0.7183  0.0755
21935SOL    HW166906   1.661   5.543   3.421 -1.5740 -0.7727  0.9623
21935SOL    HW266907   1.780   5.478   3.488 -0.3607  0.5353  0.1474
21936SOL     OW66908   6.520   7.806   4.313 -0.3509  0.8710 -0.1016
21936SOL    HW166909   6.588   7.871   4.298 -0.7497  1.3351  0.0643
21936SOL    HW266910   6.565   7.722   4.309  0.2496  1.1764  0.1308
21937SOL     OW66911   5.786   7.924   0.823 -0.1637  0.1499  0.6888
21937SOL    HW166912   5.858   7.931   0.885  1.2119 -2.3689 -0.4711
21937SOL    HW266913   5.806   7.987   0.754  0.2261  0.3969  1.0269
21938SOL     OW66914   5.919   2.114   6.740  0.2515 -0.4839  0.1466
21938SOL    HW166915   6.002   2.121   6.694  0.5517 -0.6839  0.6461
21938SOL    HW266916   5.942   2.127   6.832 -0.1769 -1.1465  0.3533
21939SOL     OW66917   8.984   7.470   8.678 -0.0452  0.2035 -0.1180
21939SOL    HW166918   8.981   7.544   8.739  0.9134 -1.3195  1.8724
21939SOL    HW266919   8.892   7.446   8.665 -0.2728  0.6128  0.6673
21940SOL     OW66920   3.875   6.889   8.322 -0.5111  0.1101 -0.6390
21940SOL    HW166921   3.927   6.965   8.351 -1.2416 -0.3057  2.0510
21940SOL    HW266922   3.938   6.832   8.279  1.2231 -0.1019  1.9883
21941SOL     OW66923   7.542   6.174   8.254  0.3182 -0.0737  0.5780
21941SOL    HW166924   7.608   6.170   8.323 -2.4036  0.7279  3.4553
21941SOL    HW266925   7.522   6.267   8.245 -0.2862 -0.2834 -0.3897
21942SOL     OW66926   7.339   8.110   3.105 -0.3317 -0.5215 -0.5474
21942SOL    HW166927   7.372   8.074   3.187  1.7190 -0.0526 -1.1050
21942SOL    HW266928   7.305   8.196   3.128 -0.8344 -0.8591 -0.0094
21943SOL     OW66929   8.074   4.028   2.805  0.1333  0.1116 -0.0447
21943SOL    HW166930   8.123   4.054   2.884  0.2295 -1.7973  0.5805
21943SOL    HW266931   8.051   3.936   2.821 -0.0072 -0.2697 -2.1764
21944SOL     OW66932   0.448   0.085   3.663  0.7142 -0.2524  0.3902
21944SOL    HW166933   0.376   0.109   3.722  1.6714 -0.3562  1.6323
21944SOL    HW266934   0.493   0.014   3.708  0.4289 -1.5781 -1.3148
21945SOL     OW66935   8.679   4.662   8.386 -1.1181  0.1952 -0.5425
21945SOL    HW166936   8.647   4.670   8.476 -1.5785  2.4306 -0.8468
21945SOL    HW266937   8.665   4.570   8.364 -1.4542 -0.2964  1.4896
21946SOL     OW66938   0.664   0.678   4.356  0.0357 -0.0545  0.2304
21946SOL    HW166939   0.719   0.754   4.337  1.3044 -0.4668  1.9720
21946SOL    HW266940   0.674   0.621   4.280  2.1774 -0.1794  0.5569
21947SOL     OW66941   6.366   7.692   0.718 -0.0813  0.5352  0.0335
21947SOL    HW166942   6.307   7.767   0.714  1.0625  1.4753  0.1980
21947SOL    HW266943   6.453   7.730   0.713  0.5502 -0.7354  0.8138
21948SOL     OW66944   9.122   8.554   4.402 -0.6925  0.4632  0.6278
21948SOL    HW166945   9.068   8.623   4.364 -0.9853  0.6911  1.4293
21948SOL    HW266946   9.162   8.595   4.479 -0.7277 -0.2074  1.0086
21949SOL     OW66947   1.975   3.135   5.238 -0.3655 -0.1761  0.0158
21949SOL    HW166948   1.904   3.129   5.303 -1.4755 -3.2018 -1.2842
21949SOL    HW266949   1.940   3.190   5.168 -0.5914  0.0472  0.3002
21950SOL     OW66950   5.372   4.281   3.976  0.3569  0.4703  0.1582
21950SOL    HW166951   5.432   4.321   4.039 -0.3204  0.0401  1.1087
21950SOL    HW266952   5.285   4.303   4.009 -0.0438  1.6635 -1.5627
21951SOL     OW66953   0.342   6.333   6.854  0.0194  0.1703  0.0718
21951SOL    HW166954   0.350   6.320   6.949  1.5639  0.9433  0.0776
21951SOL    HW266955   0.348   6.245   6.817  3.1078  0.1095  0.5126
21952SOL     OW66956   1.158   2.861   5.835  0.0208  0.0212  0.0161
21952SOL    HW166957   1.089   2.819   5.783 -1.5106  1.1382  1.0355
21952SOL    HW266958   1.154   2.954   5.810  2.1299 -0.0914 -0.9044
21953SOL     OW66959   7.391   4.266   0.747 -0.0777  0.2608 -0.4096
21953SOL    HW166960   7.457   4.279   0.679 -0.2292 -2.1877 -1.1074
21953SOL    HW266961   7.437   4.287   0.829  0.8498  0.8824 -1.0737
21954SOL     OW66962   8.091   0.829   4.418  0.2111  0.3236 -0.0439
21954SOL    HW166963   8.031   0.791   4.482  0.1268 -1.6728 -1.2195
21954SOL    HW266964   8.035   0.854   4.345  0.5241  0.8407 -0.1141
21955SOL     OW66965   2.785   0.384   2.959 -0.4839 -0.5032 -0.7503
21955SOL    HW166966   2.875   0.395   2.928 -0.1879 -0.2601  0.1691
21955SOL    HW266967   2.732   0.433   2.896  0.0825 -0.1928 -0.9893
21956SOL     OW66968   8.551   7.963   2.104  0.4519 -0.2908  0.4910
21956SOL    HW166969   8.496   7.986   2.179 -2.2341 -3.4770 -0.2570
21956SOL    HW266970   8.503   7.997   2.029  1.0112 -0.6490 -0.0300
21957SOL     OW66971   2.888   0.398   6.483 -0.0979 -0.3213 -0.3172
21957SOL    HW166972   2.824   0.332   6.455  0.5935 -1.4413  0.6395
21957SOL    HW266973   2.836   0.466   6.525 -0.6861 -1.1732  0.3714
21958SOL     OW66974   6.826   4.001   2.419 -0.7002  0.0990 -0.1453
21958SOL    HW166975   6.894   3.946   2.458 -1.6226  0.2638  1.7838
21958SOL    HW266976   6.834   3.986   2.325  2.3751  0.5443 -0.0656
21959SOL     OW66977   7.692   2.168   0.855  0.4413  0.3288  0.4229
21959SOL    HW166978   7.686   2.075   0.877 -0.3291  0.8752  2.8055
21959SOL    HW266979   7.640   2.212   0.922  0.2774  2.4630 -1.0023
21960SOL     OW66980   2.040   5.504   4.510 -0.2464 -0.4449  0.3289
21960SOL    HW166981   2.105   5.532   4.574 -1.6000 -1.5670  2.3208
21960SOL    HW266982   2.090   5.457   4.443  1.0269 -1.3793  1.8588
21961SOL     OW66983   6.888   0.942   5.627 -0.2518 -0.0642 -0.6993
21961SOL    HW166984   6.933   0.891   5.560  1.4498 -0.8788  0.9862
21961SOL    HW266985   6.832   0.879   5.673  0.1300  0.0440 -0.0684
21962SOL     OW66986   4.591   6.405   7.191 -0.4328  0.3282 -0.1942
21962SOL    HW166987   4.552   6.478   7.142  2.6270  1.2156 -1.5612
21962SOL    HW266988   4.557   6.415   7.280 -1.8113  2.0559 -0.8494
21963SOL     OW66989   5.223   2.888   1.576 -0.5652  0.1167  0.0642
21963SOL    HW166990   5.170   2.863   1.500 -0.5341 -0.7008  0.3011
21963SOL    HW266991   5.274   2.810   1.597  0.5868  0.8196 -0.0182
21964SOL     OW66992   1.393   6.155   4.793  0.0654  0.3378 -0.2145
21964SOL    HW166993   1.414   6.193   4.708 -1.3739  0.3062 -0.6150
21964SOL    HW266994   1.354   6.227   4.843 -0.5475 -0.0258 -0.1567
21965SOL     OW66995   1.293   4.019   6.418  0.3583 -0.1112 -0.3125
21965SOL    HW166996   1.301   3.977   6.503  0.1812 -0.7196 -0.5858
21965SOL    HW266997   1.204   3.998   6.389  0.1495  0.7465 -0.3068
21966SOL     OW66998   3.290   6.333   6.882 -0.2773 -0.3126  0.0695
21966SOL    HW166999   3.379   6.345   6.849  0.0921  0.5426  1.2969
21966SOL    HW267000   3.249   6.274   6.819 -0.3124  2.7338 -3.1227
21967SOL     OW67001   0.294   0.309   7.821 -0.1046 -0.5967  0.0188
21967SOL    HW167002   0.368   0.311   7.882 -0.1254  0.4018  0.0157
21967SOL    HW267003   0.219   0.283   7.874  0.1456 -1.1175  0.1237
21968SOL     OW67004   4.344   7.884   8.547  0.4463  0.4364  0.4582
21968SOL    HW167005   4.395   7.901   8.468 -0.5071 -0.4736 -0.3937
21968SOL    HW267006   4.406   7.843   8.608  0.9156  0.0423 -0.2735
21969SOL     OW67007   7.128   1.765   8.383  0.5569  0.0165  0.4438
21969SOL    HW167008   7.209   1.713   8.384  0.4596 -0.1504  2.0077
21969SOL    HW267009   7.063   1.709   8.425  0.0534  0.7888  0.7063
21970SOL     OW67010   7.812   6.184   7.462 -0.2619  0.4545 -0.5117
21970SOL    HW167011   7.783   6.212   7.549  0.3309  0.1705 -0.2145
21970SOL    HW267012   7.834   6.091   7.473  1.7917  0.8951 -0.4282
21971SOL     OW67013   3.240   2.512   2.222  0.0306 -0.6389 -0.2362
21971SOL    HW167014   3.163   2.503   2.167 -1.0668  0.2294  1.0820
21971SOL    HW267015   3.259   2.606   2.221 -1.1392 -0.3086  2.2589
21972SOL     OW67016   7.327   6.547   6.111  0.3645 -0.3291  0.4279
21972SOL    HW167017   7.372   6.565   6.194 -1.4070 -2.6946  2.0309
21972SOL    HW267018   7.394   6.510   6.054  1.8693  2.3056  0.2903
21973SOL     OW67019   0.528   2.397   5.330  0.4693 -0.1606 -0.3908
21973SOL    HW167020   0.568   2.373   5.247  0.0246  0.6735 -0.8615
21973SOL    HW267021   0.577   2.347   5.396 -0.2872 -2.1720 -1.2717
21974SOL     OW67022   1.568   8.181   6.407 -0.1806 -0.0404 -0.9092
21974SOL    HW167023   1.582   8.267   6.369  0.0049  0.0229 -0.7007
21974SOL    HW267024   1.501   8.140   6.352 -0.5958  0.4054 -0.7341
21975SOL     OW67025   8.334   4.691   0.416 -0.3892 -0.4245  0.0758
21975SOL    HW167026   8.274   4.649   0.478 -0.5045  0.9462  0.9446
21975SOL    HW267027   8.404   4.726   0.471 -1.5345  2.6567 -0.2252
21976SOL     OW67028   5.684   5.800   0.833  0.2458 -0.4357 -0.2289
21976SOL    HW167029   5.680   5.860   0.908 -1.1347 -0.8556  0.0586
21976SOL    HW267030   5.602   5.813   0.787 -0.3263 -2.4274  0.1161
21977SOL     OW67031   6.402   4.112   5.927  0.5433 -0.0423  0.2665
21977SOL    HW167032   6.423   4.152   5.843 -0.5535 -0.0440 -0.0284
21977SOL    HW267033   6.481   4.064   5.952  0.9624  0.1578 -0.6459
21978SOL     OW67034   4.392   0.392   1.177 -0.1383  0.0190 -0.7052
21978SOL    HW167035   4.348   0.476   1.166 -0.9030 -0.3144 -0.2478
21978SOL    HW267036   4.419   0.368   1.088  1.5604  1.5075 -0.6555
21979SOL     OW67037   1.114   8.527   8.327 -1.1086 -0.1562 -0.2017
21979SOL    HW167038   1.170   8.556   8.399 -1.8601  1.6047 -0.2708
21979SOL    HW267039   1.129   8.433   8.321  1.8298  0.2162 -0.2244
21980SOL     OW67040   4.935   3.386   7.588 -0.2168  0.1734  0.2090
21980SOL    HW167041   4.983   3.308   7.561 -0.3700  0.1231  0.0870
21980SOL    HW267042   5.002   3.443   7.627  0.3086  0.9525 -1.7220
21981SOL     OW67043   4.902   7.620   2.802  0.1923 -0.0424  0.1126
21981SOL    HW167044   4.992   7.632   2.771  0.7382 -0.6366  1.3764
21981SOL    HW267045   4.883   7.528   2.784 -0.7272  0.4174 -1.4784
21982SOL     OW67046   7.561   5.347   4.186  0.5132  0.3380 -0.2515
21982SOL    HW167047   7.643   5.382   4.151  0.4505  1.3935  0.6019
21982SOL    HW267048   7.549   5.393   4.269  1.3071 -2.9059  1.8696
21983SOL     OW67049   8.453   4.199   7.688 -0.1978 -0.8120  0.3841
21983SOL    HW167050   8.399   4.224   7.613 -0.4820 -1.9369  0.1941
21983SOL    HW267051   8.479   4.282   7.728  0.5513 -0.1393 -1.3701
21984SOL     OW67052   5.040   8.529   3.860  0.3707  0.3394 -1.0558
21984SOL    HW167053   5.009   8.617   3.840  3.5594  1.2434 -2.6433
21984SOL    HW267054   4.969   8.471   3.830 -1.1954  2.2892 -1.2940
21985SOL     OW67055   3.263   8.314   8.138  0.1443  0.2438 -0.0933
21985SOL    HW167056   3.253   8.365   8.218 -0.7126  1.2107 -0.7941
21985SOL    HW267057   3.317   8.369   8.081 -0.4718  0.2291 -0.7125
21986SOL     OW67058   8.529   8.417   3.818  0.4451  0.1265 -0.0095
21986SOL    HW167059   8.473   8.491   3.844 -0.7820 -1.1092  0.9979
21986SOL    HW267060   8.611   8.432   3.866 -0.8321 -0.6712  2.5896
21987SOL     OW67061   1.670   6.414   9.026 -1.0535 -0.4844 -0.0267
21987SOL    HW167062   1.709   6.338   8.983 -1.7715 -1.2988  0.7292
21987SOL    HW267063   1.592   6.380   9.069 -1.6832  0.7869 -0.1099
21988SOL     OW67064   6.167   6.984   6.499  0.8410 -0.8518  0.1257
21988SOL    HW167065   6.251   6.960   6.460  0.5182 -1.7359 -0.0578
21988SOL    HW267066   6.185   7.063   6.551  2.0543 -1.7462  1.1048
21989SOL     OW67067   5.925   8.453   5.507 -0.2790 -0.4863  0.1581
21989SOL    HW167068   5.932   8.360   5.528  2.6149  0.0756  2.3362
21989SOL    HW267069   5.862   8.487   5.571 -2.0763 -1.0016 -1.2464
21990SOL     OW67070   9.103   1.476   5.963 -0.0539 -0.0511  0.4489
21990SOL    HW167071   9.150   1.410   6.014 -0.7169  0.8519  2.3186
21990SOL    HW267072   9.163   1.551   5.959 -0.3802  0.2296  0.7497
21991SOL     OW67073   5.850   2.855   0.877 -0.6843 -0.0151  0.3355
21991SOL    HW167074   5.844   2.846   0.972 -0.3182  0.1692  0.3791
21991SOL    HW267075   5.762   2.883   0.850 -0.3855  1.5199  0.8127
21992SOL     OW67076   8.866   3.603   6.268 -0.2183  0.1299  0.0853
21992SOL    HW167077   8.799   3.628   6.331 -0.6804  1.5270 -0.9081
21992SOL    HW267078   8.857   3.508   6.258 -1.8000  0.2478  0.2360
21993SOL     OW67079   5.973   6.324   2.211 -0.3387 -0.6736  0.5892
21993SOL    HW167080   5.931   6.279   2.285  0.0179 -1.2350  0.4516
21993SOL    HW267081   5.955   6.269   2.135 -1.9534  0.6235 -0.0353
21994SOL     OW67082   9.126   2.007   3.628  0.5941 -0.2770 -0.2712
21994SOL    HW167083   9.123   2.057   3.547  1.0664 -0.4291 -0.3853
21994SOL    HW267084   9.206   2.035   3.671  0.7051 -0.7054 -0.1908
21995SOL     OW67085   3.368   3.954   1.438 -0.2492  0.3737 -0.0674
21995SOL    HW167086   3.346   4.047   1.428 -0.5196  0.1518 -1.8159
21995SOL    HW267087   3.423   3.934   1.363 -0.5588 -0.9940  0.0464
21996SOL     OW67088   4.798   2.792   0.164  0.2562  0.4515 -0.0168
21996SOL    HW167089   4.825   2.797   0.073 -1.2142 -0.9638 -0.5789
21996SOL    HW267090   4.766   2.880   0.185 -0.2943  0.5412 -1.1718
21997SOL     OW67091   4.328   4.728   6.111 -0.7121  0.7116 -0.0382
21997SOL    HW167092   4.353   4.814   6.144 -1.4363  1.1513 -0.5900
21997SOL    HW267093   4.292   4.682   6.187 -0.2954  0.8816  0.2640
21998SOL     OW67094   4.962   6.470   5.062 -0.0431  0.0839 -0.5785
21998SOL    HW167095   5.056   6.476   5.078  0.2232 -1.7312 -1.2185
21998SOL    HW267096   4.953   6.475   4.967 -0.5285 -0.3187 -0.5593
21999SOL     OW67097   5.333   4.678   2.366 -0.2360 -0.0863  0.0216
21999SOL    HW167098   5.357   4.726   2.287  0.8592  0.2833  0.5550
21999SOL    HW267099   5.262   4.729   2.405  0.2242  0.5553  0.0408
22000SOL     OW67100   4.494   7.525   4.942  0.6376 -0.3209  0.0685
22000SOL    HW167101   4.533   7.481   4.867  0.6920 -1.0069  0.4935
22000SOL    HW267102   4.437   7.592   4.903  0.8449 -0.5115 -0.5771
22001SOL     OW67103   4.196   4.633   0.726 -0.1135  0.1947  0.3669
22001SOL    HW167104   4.267   4.582   0.764  1.4827  0.9131 -1.4588
22001SOL    HW267105   4.176   4.588   0.643  2.2649  3.0235 -1.9790
22002SOL     OW67106   2.143   0.354   0.231  0.5525 -0.0961 -0.1418
22002SOL    HW167107   2.221   0.364   0.286  1.1308 -0.9639 -0.7769
22002SOL    HW267108   2.143   0.261   0.206  1.0465  0.5078 -2.6706
22003SOL     OW67109   4.681   5.199   6.627  0.3309  0.1784 -0.4176
22003SOL    HW167110   4.621   5.156   6.567  0.7604  0.1794 -0.8569
22003SOL    HW267111   4.758   5.219   6.574  1.4752 -1.4412  0.5366
22004SOL     OW67112   3.388   8.641   0.217 -0.5052 -0.8025 -0.5868
22004SOL    HW167113   3.380   8.697   0.294  1.2308 -1.7177  0.3236
22004SOL    HW267114   3.467   8.671   0.173 -0.7414 -1.1617 -1.2744
22005SOL     OW67115   2.224   4.229   5.080  0.3693 -0.4366  0.3075
22005SOL    HW167116   2.190   4.176   5.152 -0.0114  0.8921  1.1507
22005SOL    HW267117   2.198   4.319   5.102  1.1153  0.1288 -0.9857
22006SOL     OW67118   1.466   0.919   1.060 -0.3290  0.4864  0.4060
22006SOL    HW167119   1.477   0.828   1.087 -1.6008  0.4179  0.7416
22006SOL    HW267120   1.548   0.941   1.016 -0.4132 -1.1505 -0.6426
22007SOL     OW67121   4.745   8.132   7.056 -0.1380  0.8940 -0.3953
22007SOL    HW167122   4.665   8.083   7.078  1.6820 -1.6241  1.1728
22007SOL    HW267123   4.744   8.206   7.116 -0.7685  0.2755  0.3946
22008SOL     OW67124   7.706   5.429   5.913  0.4180 -0.1351 -0.5069
22008SOL    HW167125   7.660   5.508   5.943  2.4424  1.1035 -0.5205
22008SOL    HW267126   7.700   5.368   5.988 -0.4221  0.3346 -0.1771
22009SOL     OW67127   5.687   2.302   6.741  0.4920  0.3863 -0.0647
22009SOL    HW167128   5.713   2.214   6.713 -0.3356 -0.4174  1.5257
22009SOL    HW267129   5.768   2.352   6.742  1.5591 -1.1901  1.7884
22010SOL     OW67130   5.519   9.045   5.606 -0.2686 -0.4802 -0.6435
22010SOL    HW167131   5.589   8.986   5.581 -0.2134 -0.5901 -0.2307
22010SOL    HW267132   5.516   9.040   5.702  1.2449  1.8687 -0.3864
22011SOL     OW67133   4.498   8.738   3.916 -0.0918  0.2681  0.0720
22011SOL    HW167134   4.583   8.696   3.931 -0.2507 -0.4237 -0.8574
22011SOL    HW267135   4.476   8.778   4.000  0.8170 -0.1540  0.5302
22012SOL     OW67136   1.827   0.358   3.300 -0.2213 -0.2212  0.1269
22012SOL    HW167137   1.893   0.379   3.234  0.0070  0.3885  0.5399
22012SOL    HW267138   1.745   0.388   3.263 -0.2421 -0.7941 -0.3025
22013SOL     OW67139   1.865   2.487   1.133  0.6176  0.2367  0.1947
22013SOL    HW167140   1.785   2.537   1.151  1.3348  1.0398  1.2625
22013SOL    HW267141   1.898   2.462   1.219  0.3792 -1.9972 -0.2950
22014SOL     OW67142   7.594   1.413   3.758 -0.2644 -0.4658 -0.0666
22014SOL    HW167143   7.502   1.395   3.776 -0.5719  0.8736 -0.1675
22014SOL    HW267144   7.614   1.491   3.811  0.2872  0.3357 -1.3977
22015SOL     OW67145   1.004   8.524   6.120 -0.3509 -0.4230 -0.3262
22015SOL    HW167146   1.062   8.534   6.045  0.0881 -0.4513  0.0075
22015SOL    HW267147   1.056   8.477   6.185  0.2395  1.9363  1.0313
22016SOL     OW67148   7.941   7.874   4.300 -0.2700 -0.1515  0.8442
22016SOL    HW167149   7.947   7.950   4.243 -0.5958 -0.4061  0.4601
22016SOL    HW267150   7.859   7.832   4.275  1.7924 -3.0103 -1.9911
22017SOL     OW67151   8.297   4.616   4.285  0.2173  0.6078 -0.1527
22017SOL    HW167152   8.268   4.670   4.358  1.3206  1.9442 -0.6579
22017SOL    HW267153   8.379   4.577   4.316 -0.1174 -0.0780 -0.1174
22018SOL     OW67154   2.486   4.866   7.015  0.5636  0.5828  0.0571
22018SOL    HW167155   2.495   4.800   6.946  0.1836  0.0177  0.5351
22018SOL    HW267156   2.544   4.836   7.085  0.2271  0.6328  0.3634
22019SOL     OW67157   7.967   4.446   3.468 -0.5374  0.0594 -0.6809
22019SOL    HW167158   7.897   4.418   3.527 -0.3816 -0.1394 -0.5849
22019SOL    HW267159   7.946   4.405   3.384 -1.2898  1.1405 -1.0376
22020SOL     OW67160   7.335   0.628   7.694  0.0264 -0.0391 -0.0080
22020SOL    HW167161   7.320   0.625   7.789  3.3016  0.2759  0.6134
22020SOL    HW267162   7.334   0.721   7.673  0.2256 -0.0572 -0.0989
22021SOL     OW67163   5.292   8.594   4.971  0.2840 -0.2255  0.6914
22021SOL    HW167164   5.328   8.506   4.969  0.2818 -0.2155 -0.0391
22021SOL    HW267165   5.197   8.581   4.976  0.2388 -0.2764 -0.1982
22022SOL     OW67166   8.356   4.113   7.305  0.1605  0.3906  0.4278
22022SOL    HW167167   8.325   4.025   7.326  1.7372 -0.2378  0.3005
22022SOL    HW267168   8.316   4.169   7.372 -1.9817 -0.1669 -0.3203
22023SOL     OW67169   6.781   4.998   2.756 -0.5417 -0.4062 -0.2076
22023SOL    HW167170   6.810   5.088   2.769 -2.3628  0.3953 -1.4124
22023SOL    HW267171   6.853   4.957   2.708  0.2520  0.4171  0.2461
22024SOL     OW67172   5.180   1.909   7.195 -0.1717  0.1263 -0.0210
22024SOL    HW167173   5.258   1.958   7.219 -0.1678  1.4821 -2.4077
22024SOL    HW267174   5.151   1.950   7.113 -1.1083 -2.8658 -1.3181
22025SOL     OW67175   8.094   2.329   6.213 -0.5341 -0.1323  0.3268
22025SOL    HW167176   8.029   2.399   6.204 -2.1481 -1.4829  1.0611
22025SOL    HW267177   8.074   2.288   6.297  1.2423 -0.6663  0.5456
22026SOL     OW67178   8.912   6.059   8.790  0.4282  0.4824  0.3216
22026SOL    HW167179   9.006   6.067   8.772  0.5846  0.9992  1.2857
22026SOL    HW267180   8.889   6.141   8.833 -0.2763  0.0061  0.8650
22027SOL     OW67181   3.212   5.358   1.883 -0.1231  0.5074 -0.4334
22027SOL    HW167182   3.195   5.277   1.931 -1.9199 -0.1658 -2.0808
22027SOL    HW267183   3.219   5.331   1.792 -0.1586  2.1316 -0.9458
22028SOL     OW67184   5.506   6.114   7.201  0.2429 -1.0723 -0.5311
22028SOL    HW167185   5.571   6.137   7.267  0.1120  0.4921 -0.9017
22028SOL    HW267186   5.543   6.145   7.118 -1.1559  0.3411 -0.6860
22029SOL     OW67187   0.347   8.489   6.793  0.2933  0.2730 -0.6310
22029SOL    HW167188   0.281   8.451   6.736  0.7885 -0.2614 -0.8553
22029SOL    HW267189   0.357   8.425   6.864  0.6557  0.2926 -0.6633
22030SOL     OW67190   1.044   3.143   2.341 -0.5494 -0.6387  0.4706
22030SOL    HW167191   1.027   3.204   2.270 -0.5305 -1.8581 -0.6072
22030SOL    HW267192   1.047   3.199   2.419  2.7321  1.2509 -0.7881
22031SOL     OW67193   5.705   3.192   7.363  0.1537 -0.0028  0.0425
22031SOL    HW167194   5.621   3.150   7.346 -0.5343  1.2117  0.3426
22031SOL    HW267195   5.685   3.262   7.425  1.5145 -0.1564  0.6862
22032SOL     OW67196   4.192   6.997   7.747 -0.1177  0.1617  0.2650
22032SOL    HW167197   4.103   7.027   7.768 -1.0620 -0.2254 -2.7433
22032SOL    HW267198   4.187   6.901   7.754  0.5611  0.1984  1.6238
22033SOL     OW67199   6.267   6.703   8.507  0.2379  0.2777 -0.1124
22033SOL    HW167200   6.235   6.794   8.509  1.1156  0.6257  3.0919
22033SOL    HW267201   6.267   6.676   8.599  1.9336 -2.2987 -0.7874
22034SOL     OW67202   6.516   4.719   7.846 -0.1272 -0.3898  0.6075
22034SOL    HW167203   6.589   4.708   7.907  0.5338 -2.6795 -0.4785
22034SOL    HW267204   6.558   4.741   7.763 -0.8519  0.4425  0.4482
22035SOL     OW67205   4.525   0.379   1.507 -0.3343 -0.1541 -0.8513
22035SOL    HW167206   4.458   0.394   1.441 -0.2889 -2.6408 -1.5861
22035SOL    HW267207   4.590   0.323   1.464  0.1327 -1.1532  1.0121
22036SOL     OW67208   2.415   3.684   6.081 -0.3997 -0.6502 -0.4173
22036SOL    HW167209   2.330   3.657   6.047 -0.5972  1.3671 -1.6621
22036SOL    HW267210   2.396   3.723   6.166 -0.9000  0.6265 -1.0797
22037SOL     OW67211   4.337   2.314   3.165  0.1247  0.1967 -1.1436
22037SOL    HW167212   4.296   2.232   3.191  0.2808  0.5744  0.4428
22037SOL    HW267213   4.417   2.318   3.218 -0.3348  1.7711 -0.5067
22038SOL     OW67214   5.889   0.462   0.143 -0.1837  0.0340 -0.0647
22038SOL    HW167215   5.909   0.547   0.183 -0.4518 -0.2077  0.5927
22038SOL    HW267216   5.834   0.484   0.068 -0.5548  0.4212  0.3141
22039SOL     OW67217   8.029   4.338   7.387  0.4986 -0.3172 -0.1437
22039SOL    HW167218   7.978   4.259   7.365 -4.0042  2.8365 -2.7322
22039SOL    HW267219   8.074   4.361   7.306  0.7789  0.4257  0.2170
22040SOL     OW67220   3.617   6.637   2.742  0.5822  0.0547 -0.6077
22040SOL    HW167221   3.575   6.614   2.659 -0.3690 -1.4626  0.2544
22040SOL    HW267222   3.710   6.631   2.724  0.3858 -0.5685 -1.4799
22041SOL     OW67223   8.629   5.297   1.085  0.2743 -0.7383  0.0233
22041SOL    HW167224   8.570   5.371   1.100 -0.3342 -1.3763  0.7856
22041SOL    HW267225   8.698   5.309   1.150 -0.6124 -1.6516  1.1682
22042SOL     OW67226   2.257   2.613   3.886  0.3700  0.1727  0.0206
22042SOL    HW167227   2.166   2.636   3.867  0.5814  1.2918  0.2759
22042SOL    HW267228   2.308   2.689   3.859  1.2212 -0.3659  0.0400
22043SOL     OW67229   1.697   2.165   3.497  0.2019  0.4717  0.1284
22043SOL    HW167230   1.726   2.164   3.588 -2.4157  1.7611  1.0853
22043SOL    HW267231   1.659   2.079   3.482 -0.8687  0.8009  0.8447
22044SOL     OW67232   1.798   0.538   2.964 -0.2898 -0.4346  0.3940
22044SOL    HW167233   1.827   0.604   3.027 -2.8472  0.0973  1.1324
22044SOL    HW267234   1.864   0.540   2.895  2.0194 -0.2316  2.4696
22045SOL     OW67235   2.436   4.587   2.263  0.2068  0.2049 -0.0704
22045SOL    HW167236   2.501   4.549   2.204  0.3907  0.7007 -0.2006
22045SOL    HW267237   2.476   4.580   2.350  0.1558 -0.0681 -0.0687
22046SOL     OW67238   7.804   8.716   3.873 -0.1953  0.4444 -0.1403
22046SOL    HW167239   7.796   8.621   3.879 -1.1529  0.5052 -0.1919
22046SOL    HW267240   7.829   8.733   3.782  2.9044  0.1203  0.5484
22047SOL     OW67241   4.351   1.080   5.326  0.0117  0.0293  0.2034
22047SOL    HW167242   4.369   0.997   5.283 -1.2217  0.2142 -0.7236
22047SOL    HW267243   4.398   1.145   5.272 -1.1106  0.2017 -0.5994
22048SOL     OW67244   3.714   4.471   5.856  0.2243 -0.1319  0.2392
22048SOL    HW167245   3.635   4.510   5.818  0.0744 -0.3783  0.2890
22048SOL    HW267246   3.749   4.415   5.786  0.9419  0.7811 -0.1442
22049SOL     OW67247   7.864   5.570   1.538  0.2273  0.1615  0.3978
22049SOL    HW167248   7.890   5.544   1.626  1.3954 -1.3423 -0.3538
22049SOL    HW267249   7.892   5.498   1.482  1.5567  2.0332 -1.5184
22050SOL     OW67250   3.597   7.116   3.939  0.2046  0.4527 -0.2819
22050SOL    HW167251   3.628   7.062   3.866 -0.0040 -0.5292  0.3274
22050SOL    HW267252   3.541   7.182   3.899  0.2232  0.0297 -1.0239
22051SOL     OW67253   7.466   8.396   5.863  0.1588 -0.8775 -0.1441
22051SOL    HW167254   7.504   8.461   5.803  1.1179  1.1716  2.5067
22051SOL    HW267255   7.374   8.420   5.869 -0.0344 -1.3460 -1.0499
22052SOL     OW67256   0.103   6.173   0.012 -0.4103 -1.0394  0.1816
22052SOL    HW167257   0.075   6.260  -0.018 -1.5462 -1.6439 -0.6155
22052SOL    HW267258   0.133   6.187   0.102  0.1634  0.2991 -0.1927
22053SOL     OW67259   3.640   0.408   3.303  0.2670 -0.0718  0.1595
22053SOL    HW167260   3.715   0.348   3.305  0.4915  0.2158  1.1282
22053SOL    HW267261   3.581   0.371   3.238  0.9183 -0.7161 -0.0758
22054SOL     OW67262   0.869   4.785   3.720  0.5790 -0.3294 -0.5192
22054SOL    HW167263   0.825   4.747   3.644  0.1513  0.0162 -0.4488
22054SOL    HW267264   0.905   4.710   3.767 -0.2551 -0.6557 -0.3802
22055SOL     OW67265   6.841   5.478   7.055 -0.1555  0.0439  0.3821
22055SOL    HW167266   6.819   5.567   7.026 -1.7840 -0.6913 -0.8352
22055SOL    HW267267   6.920   5.488   7.107 -0.6724  2.2951  0.8396
22056SOL     OW67268   0.396   0.719   0.105 -0.1943  0.3824  0.1280
22056SOL    HW167269   0.396   0.634   0.062  0.1243 -0.8464  2.4063
22056SOL    HW267270   0.445   0.705   0.186  0.8124  3.0315  0.0640
22057SOL     OW67271   3.880   6.493   2.689 -0.4028  0.8565  0.1894
22057SOL    HW167272   3.841   6.428   2.632 -0.3545 -0.3708  1.4922
22057SOL    HW267273   3.872   6.456   2.777 -0.0736  2.4638  0.9432
22058SOL     OW67274   0.089   6.308   7.886  0.5921 -0.1343 -0.6495
22058SOL    HW167275   0.174   6.351   7.875  0.6496 -0.4819 -1.6675
22058SOL    HW267276   0.097   6.227   7.836  0.5363 -1.4429  1.3293
22059SOL     OW67277   6.641   6.106   1.124  0.0315 -0.0411  0.0610
22059SOL    HW167278   6.705   6.088   1.192 -0.2671  0.8209  0.5797
22059SOL    HW267279   6.693   6.121   1.045  0.3684 -1.1792  0.0510
22060SOL     OW67280   1.962   8.484   3.224  0.2930  0.1138 -0.4226
22060SOL    HW167281   2.055   8.503   3.241  0.6293 -1.8638  0.1467
22060SOL    HW267282   1.947   8.519   3.136  1.9480 -0.6952 -1.0735
22061SOL     OW67283   7.721   3.866   1.612 -0.5519 -0.0551 -0.1000
22061SOL    HW167284   7.688   3.835   1.697 -0.4943 -0.5631 -0.2604
22061SOL    HW267285   7.642   3.894   1.565 -0.7300 -0.8886 -0.3263
22062SOL     OW67286   1.710   9.068   6.922  0.4144  0.0267  0.0738
22062SOL    HW167287   1.727   9.082   7.015 -0.8616  1.2462  0.1505
22062SOL    HW267288   1.703   9.156   6.885 -1.3160 -0.4120 -0.7439
22063SOL     OW67289   1.408   5.302   6.501  0.2223 -0.7110  0.0304
22063SOL    HW167290   1.415   5.238   6.430  1.3354  0.6562 -1.1780
22063SOL    HW267291   1.498   5.333   6.514 -0.4468  1.7851 -0.6337
22064SOL     OW67292   7.369   0.748   8.846  0.3804 -0.2439  0.2720
22064SOL    HW167293   7.443   0.804   8.821 -0.5950  1.5494  1.1939
22064SOL    HW267294   7.292   0.802   8.830 -0.5566 -0.9214  2.1964
22065SOL     OW67295   5.604   6.126   3.606  0.2811 -0.3162 -0.0456
22065SOL    HW167296   5.524   6.077   3.586 -0.3712  0.6825  0.0404
22065SOL    HW267297   5.585   6.216   3.577  1.9198 -0.3632 -1.4141
22066SOL     OW67298   3.198   5.721   2.624  0.2548 -0.5317 -0.3632
22066SOL    HW167299   3.233   5.733   2.712  0.9436 -0.0969 -0.6865
22066SOL    HW267300   3.232   5.795   2.574 -1.0116 -0.1863 -0.7450
22067SOL     OW67301   5.875   0.325   5.613  0.1809 -0.5315 -0.2766
22067SOL    HW167302   5.836   0.355   5.530 -0.3475  0.7302  0.4021
22067SOL    HW267303   5.820   0.251   5.639 -0.4700 -0.1108 -0.4119
22068SOL     OW67304   0.245   1.166   6.319  0.0834  0.3214  0.2823
22068SOL    HW167305   0.332   1.196   6.347 -0.4905  2.2227  0.1425
22068SOL    HW267306   0.210   1.120   6.395  0.3069  1.5799  1.1752
22069SOL     OW67307   2.730   7.130   2.970 -0.7536  0.2445  0.3926
22069SOL    HW167308   2.729   7.208   3.025 -0.2895  0.6040 -0.0927
22069SOL    HW267309   2.737   7.163   2.880 -0.6173 -0.3481  0.1725
22070SOL     OW67310   1.387   0.509   0.918  0.4538 -0.1157 -0.5671
22070SOL    HW167311   1.406   0.451   0.844  2.2379 -0.5554  0.1618
22070SOL    HW267312   1.464   0.501   0.974  0.0133  1.6985  0.3843
22071SOL     OW67313   7.710   1.996   6.259  0.1570 -0.1255 -0.4645
22071SOL    HW167314   7.772   1.971   6.191 -2.3966 -0.3867 -2.8777
22071SOL    HW267315   7.654   1.919   6.270  0.7113 -0.2375  2.3046
22072SOL     OW67316   0.764   8.252   4.777  0.4146  0.3383  0.3193
22072SOL    HW167317   0.826   8.179   4.772  0.2392  0.1619  0.7439
22072SOL    HW267318   0.789   8.309   4.704  0.7836  0.0371  0.2075
22073SOL     OW67319   6.751   2.883   5.987 -0.2625  0.4051  0.0895
22073SOL    HW167320   6.732   2.830   6.065  1.6417 -0.0482  0.3190
22073SOL    HW267321   6.842   2.910   5.999 -0.6755  2.3698 -0.8415
22074SOL     OW67322   0.436   4.349   3.912 -0.5120 -0.1800  0.1539
22074SOL    HW167323   0.386   4.419   3.870 -0.6414 -0.6289 -0.4557
22074SOL    HW267324   0.370   4.283   3.935 -0.4629  0.1245  1.2147
22075SOL     OW67325   6.081   8.142   3.356  0.3220  0.2280 -0.2049
22075SOL    HW167326   6.089   8.048   3.345 -0.6703  0.0168  0.7047
22075SOL    HW267327   6.138   8.179   3.288  3.0470 -1.0174  1.2388
22076SOL     OW67328   5.151   5.499   0.590  0.0726 -1.1266 -0.5081
22076SOL    HW167329   5.211   5.555   0.541  1.3632 -1.2482  0.8764
22076SOL    HW267330   5.108   5.446   0.523  0.7096 -0.2837 -1.6139
22077SOL     OW67331   0.217   5.642   7.691  0.1295  0.8048 -0.1718
22077SOL    HW167332   0.270   5.562   7.690  0.5055  1.0520 -0.4913
22077SOL    HW267333   0.167   5.637   7.773  1.8427  1.3264  0.9731
22078SOL     OW67334   8.171   2.532   7.835 -1.0207 -0.4801  0.0615
22078SOL    HW167335   8.086   2.494   7.811 -2.2353  2.0441 -0.0237
22078SOL    HW267336   8.149   2.621   7.864  1.3998 -0.4484  2.0533
22079SOL     OW67337   2.480   1.659   5.002  0.4922  0.0487 -0.5407
22079SOL    HW167338   2.542   1.596   4.965  1.8631  0.9016  0.1914
22079SOL    HW267339   2.497   1.657   5.096  0.0987  1.0180 -0.4334
22080SOL     OW67340   2.483   3.882   4.301 -0.1420 -0.5086 -0.1539
22080SOL    HW167341   2.451   3.825   4.231  1.3586 -1.4017 -0.1734
22080SOL    HW267342   2.559   3.835   4.336 -1.9100 -1.0019  3.3698
22081SOL     OW67343   4.096   6.713   7.682 -0.7740 -0.7247  0.0662
22081SOL    HW167344   4.057   6.708   7.770  0.4108 -1.8663  0.5566
22081SOL    HW267345   4.021   6.713   7.623 -1.9636  4.7356  1.0426
22082SOL     OW67346   8.696   1.912   3.976 -0.0099  0.2797 -0.1460
22082SOL    HW167347   8.712   1.977   3.907 -3.7600  1.3298 -0.2237
22082SOL    HW267348   8.669   1.964   4.051 -0.9096 -1.0939  0.5043
22083SOL     OW67349   6.483   0.501   4.065  0.4465  0.5210  0.0421
22083SOL    HW167350   6.476   0.590   4.031  2.1676  0.7256  0.1545
22083SOL    HW267351   6.551   0.460   4.012 -0.1974 -0.6785  0.1153
22084SOL     OW67352   7.184   8.712   7.454 -0.6201  0.1097 -0.4371
22084SOL    HW167353   7.219   8.791   7.496  0.5364 -0.6122 -0.0046
22084SOL    HW267354   7.210   8.640   7.512 -1.3109 -0.6381 -1.0263
22085SOL     OW67355   6.634   2.360   6.120  0.0223  0.3226  0.0598
22085SOL    HW167356   6.702   2.372   6.187  0.8755 -0.0665 -0.7151
22085SOL    HW267357   6.599   2.448   6.106  1.2573  0.7622 -0.4288
22086SOL     OW67358   7.210   7.205   6.796  0.1860 -0.2802  0.2035
22086SOL    HW167359   7.152   7.268   6.839 -2.7820 -1.7860 -1.3045
22086SOL    HW267360   7.240   7.250   6.717  0.1817  0.0874  0.4061
22087SOL     OW67361   5.205   1.930   3.250  0.0097  0.4439  0.2408
22087SOL    HW167362   5.160   2.013   3.263 -1.1812 -0.2699  0.8228
22087SOL    HW267363   5.144   1.877   3.199 -0.1496 -0.7911  1.6407
22088SOL     OW67364   0.590   4.822   8.443  0.4488 -0.0874 -0.2841
22088SOL    HW167365   0.562   4.732   8.428  0.1909 -0.1890  0.7628
22088SOL    HW267366   0.681   4.825   8.414  0.1959 -0.4604 -1.1314
22089SOL     OW67367   1.111   3.945   0.137 -0.4423 -0.6334  0.9425
22089SOL    HW167368   1.019   3.921   0.149 -0.8223 -0.5224 -1.3537
22089SOL    HW267369   1.109   4.036   0.110 -0.3378 -1.9714 -4.8906
22090SOL     OW67370   1.948   8.296   1.280  0.0268  0.3433  0.0872
22090SOL    HW167371   1.881   8.268   1.342 -0.0426  0.2317 -0.0376
22090SOL    HW267372   2.007   8.351   1.332 -1.1947  2.0200 -0.2435
22091SOL     OW67373   8.404   6.904   1.539 -0.1207  0.2054 -1.2115
22091SOL    HW167374   8.397   6.809   1.533 -1.1069  0.1508  0.3878
22091SOL    HW267375   8.315   6.936   1.523 -0.4740  0.6301  1.1885
22092SOL     OW67376   3.793   0.125   5.472  0.1791  0.1167 -0.5890
22092SOL    HW167377   3.829   0.200   5.425  2.2061 -0.6994 -0.4384
22092SOL    HW267378   3.700   0.124   5.448  0.8197  0.5291 -3.5222
22093SOL     OW67379   5.586   0.727   5.341 -0.1454  0.2003 -0.1049
22093SOL    HW167380   5.596   0.633   5.331 -2.6848 -0.0240 -1.3243
22093SOL    HW267381   5.639   0.765   5.271  0.2952 -0.3425 -0.0670
22094SOL     OW67382   5.348   0.761   2.405 -0.4412  0.1034  0.0225
22094SOL    HW167383   5.334   0.707   2.482 -2.7509  2.2985  1.2853
22094SOL    HW267384   5.372   0.847   2.439  0.4008  0.6584 -1.8028
22095SOL     OW67385   7.763   2.268   4.638  0.2008 -0.2685  0.0276
22095SOL    HW167386   7.846   2.299   4.673  0.2295 -0.9449  0.5697
22095SOL    HW267387   7.745   2.187   4.686 -1.2817  0.4061  0.6454
22096SOL     OW67388   1.379   0.185   0.791 -0.4129  0.1046 -0.2198
22096SOL    HW167389   1.295   0.144   0.811  0.3916 -0.6211  1.9592
22096SOL    HW267390   1.433   0.114   0.757 -0.2453  0.2561 -0.2736
22097SOL     OW67391   7.964   1.783   6.445  0.5214  0.3107  0.1595
22097SOL    HW167392   7.986   1.873   6.469  1.4671 -0.1415  1.1155
22097SOL    HW267393   7.923   1.747   6.524  0.0404 -0.0561 -0.2542
22098SOL     OW67394   1.683   2.083   6.119  0.1904 -0.3525  0.7049
22098SOL    HW167395   1.600   2.125   6.096  1.2902  0.9408 -1.2920
22098SOL    HW267396   1.675   1.994   6.086  0.2347  0.3223 -1.2948
22099SOL     OW67397   2.594   2.009   7.336  0.3945 -0.1497  0.3314
22099SOL    HW167398   2.541   1.945   7.385  1.1582 -0.8227  0.3018
22099SOL    HW267399   2.539   2.034   7.262  0.4789 -1.6021 -0.2581
22100SOL     OW67400   3.380   7.652   1.881  0.1691 -0.0370 -0.0095
22100SOL    HW167401   3.445   7.659   1.812  0.1861 -0.8181 -0.0866
22100SOL    HW267402   3.431   7.650   1.962  0.0814  2.6078  0.1985
22101SOL     OW67403   7.096   5.239   4.372 -0.2569  0.1695 -0.1196
22101SOL    HW167404   7.168   5.294   4.342  1.8454 -1.2023  2.1017
22101SOL    HW267405   7.130   5.150   4.368 -1.6868 -0.4889  1.3228
22102SOL     OW67406   2.655   2.670   1.161  0.9814 -0.5015  0.1607
22102SOL    HW167407   2.708   2.747   1.182  0.1671  0.2221 -0.4018
22102SOL    HW267408   2.675   2.651   1.070 -1.3496  1.1232 -0.7479
22103SOL     OW67409   1.817   0.740   1.369  0.5375  0.0937  0.1472
22103SOL    HW167410   1.736   0.746   1.420  1.4128  1.7951  1.4516
22103SOL    HW267411   1.886   0.739   1.434  1.6423  0.8527 -0.9640
22104SOL     OW67412   3.731   1.129   6.732 -0.1123  0.0937 -0.2198
22104SOL    HW167413   3.789   1.204   6.721  0.2136 -0.2873 -1.2138
22104SOL    HW267414   3.785   1.062   6.773 -0.4771  0.4740  0.9199
22105SOL     OW67415   7.565   4.248   0.227  0.3903  0.0832 -0.4550
22105SOL    HW167416   7.595   4.295   0.304 -1.3249  0.0451  0.2790
22105SOL    HW267417   7.556   4.315   0.159 -0.9795  0.6799  0.2699
22106SOL     OW67418   6.678   3.275   8.592 -0.1145  0.6464  0.0199
22106SOL    HW167419   6.736   3.199   8.586  0.6099  1.0330  1.5589
22106SOL    HW267420   6.602   3.252   8.539  0.4126 -0.8602 -0.1208
22107SOL     OW67421   6.294   8.609   0.425 -0.0284 -0.3483  0.0954
22107SOL    HW167422   6.382   8.575   0.442 -0.0669 -1.6451 -1.9069
22107SOL    HW267423   6.285   8.605   0.330 -1.7744  1.0470  0.1586
22108SOL     OW67424   6.468   3.420   1.529  0.0337 -0.0062  0.1410
22108SOL    HW167425   6.516   3.368   1.593  0.7842 -0.8653 -1.0835
22108SOL    HW267426   6.380   3.382   1.527  0.4566 -0.9959 -0.4425
22109SOL     OW67427   8.877   3.080   6.849 -0.1927  0.3625 -0.6686
22109SOL    HW167428   8.817   3.112   6.782 -0.1699 -2.2398 -2.0815
22109SOL    HW267429   8.820   3.045   6.917 -0.2135  2.5182  0.4840
22110SOL     OW67430   1.713   5.871   0.042  0.1734  0.3861 -0.0863
22110SOL    HW167431   1.689   5.823   0.121 -1.4019  0.7829 -0.3064
22110SOL    HW267432   1.797   5.912   0.064  0.3876 -0.5374  0.9170
22111SOL     OW67433   3.023   5.040   5.765 -0.5658  0.4551  0.0330
22111SOL    HW167434   3.065   4.983   5.701  0.4825  0.7391  0.4480
22111SOL    HW267435   2.932   5.012   5.766 -0.1279 -1.0668  0.0646
22112SOL     OW67436   6.103   8.007   0.638 -0.3403 -0.0805  0.0600
22112SOL    HW167437   6.161   8.079   0.664  0.5849 -0.7361 -0.1080
22112SOL    HW267438   6.160   7.948   0.589 -1.2556 -0.5688 -0.4381
22113SOL     OW67439   5.284   1.005   6.146  0.6465 -0.1144  0.2400
22113SOL    HW167440   5.372   1.042   6.141 -0.3678  2.4250 -1.1625
22113SOL    HW267441   5.274   0.958   6.063  0.3414  0.5567 -0.1153
22114SOL     OW67442   7.489   7.826   1.747 -0.1716 -0.0828 -0.2122
22114SOL    HW167443   7.562   7.799   1.803  0.3887  0.5399 -0.6210
22114SOL    HW267444   7.430   7.873   1.806 -0.1876 -0.4877  0.0991
22115SOL     OW67445   2.899   2.248   3.428 -0.1824 -0.2095 -0.0017
22115SOL    HW167446   2.945   2.227   3.509 -0.0179  0.8234  0.1888
22115SOL    HW267447   2.941   2.193   3.362  0.4313 -0.2624  0.4181
22116SOL     OW67448   0.864   6.354   1.174 -0.1024 -0.0981  0.1277
22116SOL    HW167449   0.907   6.435   1.146 -0.9856 -0.6267 -3.1234
22116SOL    HW267450   0.784   6.384   1.217  0.4747  0.7658  0.6389
22117SOL     OW67451   7.048   5.745   1.505  0.2075 -0.4586 -0.2821
22117SOL    HW167452   7.109   5.681   1.465  0.8165  0.3922 -0.7514
22117SOL    HW267453   7.010   5.791   1.430  1.5334  1.3271  0.0764
22118SOL     OW67454   8.523   0.514   0.398 -0.1023  0.0310 -0.3956
22118SOL    HW167455   8.594   0.449   0.404 -0.3012 -0.0608  1.6672
22118SOL    HW267456   8.447   0.470   0.436 -0.6780  0.9397 -0.4560
22119SOL     OW67457   2.510   1.669   3.319  0.1983 -0.5902  0.2972
22119SOL    HW167458   2.563   1.658   3.240  2.2299  0.5001  1.4262
22119SOL    HW267459   2.513   1.584   3.362  0.7254 -0.6506  0.1511
22120SOL     OW67460   7.862   0.471   8.278 -0.9306  0.5294 -0.5395
22120SOL    HW167461   7.952   0.499   8.258 -0.5975 -0.2040 -0.1340
22120SOL    HW267462   7.832   0.532   8.345 -0.1615 -0.1429  0.4449
22121SOL     OW67463   6.228   6.955   5.404  0.2938 -0.4694 -0.1119
22121SOL    HW167464   6.166   6.882   5.391 -0.7655  0.0169  1.9268
22121SOL    HW267465   6.297   6.918   5.459  0.8047 -0.4597 -0.7371
22122SOL     OW67466   2.001   1.263   2.993 -0.6392  0.2949  0.2606
22122SOL    HW167467   1.925   1.319   2.981 -0.0556  0.8315 -1.2638
22122SOL    HW267468   2.052   1.305   3.062 -0.2668  1.6256 -0.7812
22123SOL     OW67469   4.883   3.958   0.080 -0.4043 -0.5870  0.5353
22123SOL    HW167470   4.927   3.995   0.003 -0.1995 -2.0605 -0.0951
22123SOL    HW267471   4.954   3.923   0.133 -0.7018 -2.2036 -0.0669
22124SOL     OW67472   1.246   6.406   0.905  0.2262 -0.0495 -0.3221
22124SOL    HW167473   1.328   6.388   0.953  0.2167 -1.0514 -0.6459
22124SOL    HW267474   1.270   6.393   0.813 -0.3303 -0.5309 -0.4049
22125SOL     OW67475   8.835   2.020   1.419 -0.5899  0.4622  0.1312
22125SOL    HW167476   8.855   1.973   1.338 -3.0242  0.0904 -0.3339
22125SOL    HW267477   8.842   1.954   1.488 -0.5942  0.2642 -0.0589
22126SOL     OW67478   4.384   5.322   5.263  0.3613 -0.2769 -0.9040
22126SOL    HW167479   4.474   5.316   5.231  0.7520 -1.3698  0.2743
22126SOL    HW267480   4.372   5.242   5.314 -0.8379  0.4836  0.0669
22127SOL     OW67481   6.106   7.112   1.345  0.3245 -0.3201 -0.1400
22127SOL    HW167482   6.097   7.140   1.254  0.1200 -0.5486 -0.1920
22127SOL    HW267483   6.150   7.185   1.389 -1.8743  0.9024  0.1489
22128SOL     OW67484   0.304   4.272   6.619  0.3601  0.2482  0.0359
22128SOL    HW167485   0.285   4.346   6.561 -1.7570  1.4994  2.1579
22128SOL    HW267486   0.397   4.282   6.640  0.3085  1.8378 -0.3455
22129SOL     OW67487   2.652   7.051   5.597 -0.0900 -0.1430  0.1371
22129SOL    HW167488   2.680   7.035   5.687  0.4348 -0.2567 -0.0457
22129SOL    HW267489   2.556   7.050   5.601 -0.0659 -0.3016  0.6655
22130SOL     OW67490   4.950   6.399   2.948  0.5734 -0.1860 -0.1695
22130SOL    HW167491   4.981   6.471   2.894  0.5751 -0.4741 -0.5607
22130SOL    HW267492   4.990   6.321   2.909  1.3550 -0.3035  0.8427
22131SOL     OW67493   6.151   5.901   1.725 -0.2362  0.0189  0.3051
22131SOL    HW167494   6.152   5.992   1.753  2.0221 -0.5733  2.5468
22131SOL    HW267495   6.111   5.854   1.799 -0.2413 -0.9458 -0.2873
22132SOL     OW67496   6.788   6.234   1.576 -0.3878  0.4852 -0.4398
22132SOL    HW167497   6.784   6.329   1.582  1.5116  0.5271  0.8240
22132SOL    HW267498   6.791   6.205   1.667 -0.8082 -0.7919 -0.8149
22133SOL     OW67499   0.747   3.029   1.884  0.5866  0.0964  0.2768
22133SOL    HW167500   0.741   2.954   1.825 -0.5728  0.8758 -0.6467
22133SOL    HW267501   0.664   3.030   1.931  0.4655  0.9482  0.0692
22134SOL     OW67502   7.327   7.524   7.428  0.2849  0.1301  0.4668
22134SOL    HW167503   7.375   7.459   7.479 -0.4013 -0.8492 -0.0997
22134SOL    HW267504   7.330   7.490   7.338 -0.1283  0.8680  0.1653
22135SOL     OW67505   6.878   4.674   3.657 -0.6124 -0.1060  0.2223
22135SOL    HW167506   6.794   4.721   3.663 -0.5257  0.1252 -0.3178
22135SOL    HW267507   6.862   4.606   3.591 -0.5314 -0.4014  0.5061
22136SOL     OW67508   7.138   6.705   0.368 -0.5443 -0.6421 -0.1965
22136SOL    HW167509   7.056   6.656   0.367 -0.4353 -0.8256 -0.1956
22136SOL    HW267510   7.111   6.797   0.375 -0.7255 -0.7745  1.3313
22137SOL     OW67511   2.321   7.666   1.968 -0.3418  0.3730  0.3704
22137SOL    HW167512   2.316   7.587   1.914 -1.3654  1.2942 -0.9476
22137SOL    HW267513   2.240   7.665   2.019 -1.5040  1.6276 -1.2880
22138SOL     OW67514   4.236   2.039   3.257  0.2658  0.0146  0.4791
22138SOL    HW167515   4.180   1.985   3.200 -1.7763  0.7779  1.6292
22138SOL    HW267516   4.314   1.985   3.272 -0.4438 -1.4114 -0.6701
22139SOL     OW67517   6.962   7.675   1.715  0.6350 -0.2411 -0.1157
22139SOL    HW167518   6.956   7.714   1.627  0.5320  0.1009  0.0389
22139SOL    HW267519   7.056   7.666   1.730  0.6549 -2.1974 -1.0688
22140SOL     OW67520   7.526   0.187   7.634  0.1050  0.1386 -0.2470
22140SOL    HW167521   7.563   0.189   7.545 -1.6665  0.5921 -1.0131
22140SOL    HW267522   7.539   0.277   7.666  2.0784 -0.3809  0.5864
22141SOL     OW67523   8.944   7.901   4.164  0.1176 -0.0081 -0.1703
22141SOL    HW167524   8.899   7.970   4.213  1.5044  1.7396 -1.1999
22141SOL    HW267525   9.034   7.905   4.196  0.3430 -0.9621 -0.6546
22142SOL     OW67526   1.803   4.511   1.862  0.7150  0.0446  0.5001
22142SOL    HW167527   1.713   4.501   1.832  0.7923  1.6655 -0.3742
22142SOL    HW267528   1.853   4.446   1.813  0.2167 -0.0108  0.0641
22143SOL     OW67529   4.036   5.005   7.435  0.6320 -0.4481  0.2391
22143SOL    HW167530   4.130   5.013   7.419  0.3394 -0.1998 -1.6438
22143SOL    HW267531   3.996   5.071   7.378 -0.7378 -1.4849 -0.0684
22144SOL     OW67532   1.279   3.133   7.114 -0.2312 -0.3209  0.0088
22144SOL    HW167533   1.202   3.116   7.059 -0.4351 -0.2171  0.2656
22144SOL    HW267534   1.275   3.066   7.182 -0.3998  0.0357  0.3487
22145SOL     OW67535   7.359   4.681   3.578  0.8768 -0.4707 -0.0275
22145SOL    HW167536   7.304   4.702   3.654 -0.2061  0.5675 -1.0329
22145SOL    HW267537   7.379   4.766   3.539  1.8044 -0.9559 -0.6503
22146SOL     OW67538   6.102   6.023   7.272  0.7040  0.3098 -0.4073
22146SOL    HW167539   6.078   6.108   7.309  0.8826  0.7365 -1.2493
22146SOL    HW267540   6.079   5.960   7.340 -0.4190  0.9347 -0.1846
22147SOL     OW67541   1.061   6.760   3.700  0.0072 -0.0185  0.5772
22147SOL    HW167542   1.136   6.706   3.675  0.2575  0.7695 -0.4430
22147SOL    HW267543   1.064   6.761   3.795  1.0322 -0.3622  0.5695
22148SOL     OW67544   5.204   6.431   7.005  1.0010  0.0265 -0.0271
22148SOL    HW167545   5.196   6.521   6.974  0.0407 -0.0768 -0.1138
22148SOL    HW267546   5.125   6.388   6.973  0.8238 -0.5195  1.0982
22149SOL     OW67547   8.031   6.592   0.723 -0.0203  0.5289 -0.4001
22149SOL    HW167548   8.035   6.679   0.763 -0.4458  0.7175 -0.7596
22149SOL    HW267549   7.998   6.607   0.635  2.1265  0.2538 -1.3040
22150SOL     OW67550   7.817   5.691   3.671  0.0647 -0.2343  0.2842
22150SOL    HW167551   7.735   5.680   3.719  0.3525  0.4875  0.9579
22150SOL    HW267552   7.793   5.748   3.598 -0.2331 -0.8087 -0.0760
22151SOL     OW67553   2.346   0.030   8.669  0.2626 -0.3832  0.6935
22151SOL    HW167554   2.296   0.004   8.746  1.0838  0.1824  1.4506
22151SOL    HW267555   2.358   0.125   8.679  0.9296 -0.4047  0.2126
22152SOL     OW67556   6.024   7.784   8.340  0.0715 -0.1482 -0.2096
22152SOL    HW167557   5.968   7.859   8.363  1.0958  0.5272  0.1685
22152SOL    HW267558   6.110   7.823   8.323  0.2628 -1.0860 -1.4951
22153SOL     OW67559   7.600   6.656   1.343 -0.2493  0.0266  0.3822
22153SOL    HW167560   7.664   6.684   1.278  0.5007  0.2583  1.2040
22153SOL    HW267561   7.596   6.560   1.334 -0.4314  0.0906 -0.2493
22154SOL     OW67562   5.643   8.783   0.053 -0.1443  0.6647  0.1628
22154SOL    HW167563   5.629   8.819  -0.035  0.7798 -1.3552 -0.8629
22154SOL    HW267564   5.624   8.690   0.044 -0.2631  0.4570  2.1881
22155SOL     OW67565   1.191   0.765   3.270 -0.7638  0.1849 -0.4117
22155SOL    HW167566   1.282   0.775   3.243 -0.1832  2.7367  2.0553
22155SOL    HW267567   1.193   0.692   3.333 -0.2684  0.6776  0.1553
22156SOL     OW67568   6.585   8.092   0.536  0.2467  0.4777 -0.2168
22156SOL    HW167569   6.663   8.044   0.563  0.1873  0.5871  0.1496
22156SOL    HW267570   6.533   8.028   0.487 -0.6007 -0.3398  1.6341
22157SOL     OW67571   7.059   1.871   7.349  0.1697 -0.3721  0.0263
22157SOL    HW167572   7.107   1.806   7.402 -0.0316 -2.6825 -2.4409
22157SOL    HW267573   7.126   1.932   7.320  1.1119 -1.6845 -0.6786
22158SOL     OW67574   0.431   5.589   4.584  0.1696 -0.1522  0.2711
22158SOL    HW167575   0.386   5.546   4.511 -0.5291 -0.5451  0.9109
22158SOL    HW267576   0.445   5.518   4.648  0.8396  0.1669  0.4851
22159SOL     OW67577   2.520   6.940   2.937  0.2350 -0.9232 -0.3943
22159SOL    HW167578   2.602   6.988   2.925 -1.7249  2.6786 -0.8187
22159SOL    HW267579   2.487   6.925   2.848 -0.4368 -0.6001 -0.2113
22160SOL     OW67580   4.068   0.716   1.815 -0.3806 -0.3072 -0.2994
22160SOL    HW167581   4.080   0.627   1.783 -3.8749 -0.9140 -0.3179
22160SOL    HW267582   4.106   0.771   1.746 -0.7607 -1.7530 -1.7251
22161SOL     OW67583   8.799   4.292   0.726 -0.3764 -0.4897 -0.0262
22161SOL    HW167584   8.781   4.370   0.674 -1.5464  0.0308  1.1277
22161SOL    HW267585   8.735   4.228   0.696  0.8238 -1.1908 -1.2435
22162SOL     OW67586   7.923   7.579   5.124 -0.3748 -0.3484  0.4843
22162SOL    HW167587   7.979   7.609   5.052  0.9309 -0.2747  1.4861
22162SOL    HW267588   7.979   7.518   5.173 -1.3872 -0.7191  1.1926
22163SOL     OW67589   2.819   2.912   1.852 -0.3494  0.2704 -0.0128
22163SOL    HW167590   2.839   2.827   1.891 -0.8767  0.4239  0.6088
22163SOL    HW267591   2.897   2.965   1.872  0.5527 -0.4062 -1.5204
22164SOL     OW67592   5.436   0.426   0.437 -0.0552  0.5132  0.3562
22164SOL    HW167593   5.514   0.403   0.487 -0.3141  0.3098  0.6673
22164SOL    HW267594   5.367   0.436   0.503 -0.3295  0.5322  0.0686
22165SOL     OW67595   4.991   6.493   7.613  0.0251  0.0584 -0.0577
22165SOL    HW167596   5.017   6.521   7.701  2.1756 -1.0809 -0.2633
22165SOL    HW267597   4.984   6.398   7.618 -1.3303  0.0840 -0.7885
22166SOL     OW67598   8.218   1.193   0.900 -0.3678  0.0977 -0.3940
22166SOL    HW167599   8.266   1.144   0.967  0.1872 -0.9012 -1.4592
22166SOL    HW267600   8.237   1.145   0.818 -1.9010  0.6148 -1.0971
22167SOL     OW67601   6.722   7.025   6.329  0.0950  0.2157  0.0699
22167SOL    HW167602   6.653   7.090   6.317  0.7610  0.9185  0.0169
22167SOL    HW267603   6.784   7.066   6.389  2.0216  0.8459 -2.1858
22168SOL     OW67604   2.294   8.814   0.863  0.4739  0.4753 -0.0967
22168SOL    HW167605   2.314   8.726   0.896  0.4704  0.6449  0.3647
22168SOL    HW267606   2.237   8.852   0.930  0.8554  1.0033 -0.0682
22169SOL     OW67607   6.509   4.396   6.569 -0.0981 -0.3048 -0.1541
22169SOL    HW167608   6.428   4.426   6.609  0.0427 -1.9604  1.5051
22169SOL    HW267609   6.502   4.301   6.570  1.7581 -0.4730 -0.1721
22170SOL     OW67610   2.880   9.011   2.240  0.2776  0.3711 -0.3431
22170SOL    HW167611   2.943   8.978   2.304 -0.5769 -0.6324  0.0303
22170SOL    HW267612   2.907   9.101   2.223  1.8750 -0.0656 -0.3064
22171SOL     OW67613   6.999   2.142   4.861 -0.0086 -0.5883  0.0244
22171SOL    HW167614   6.905   2.126   4.852 -0.0475 -0.4964  0.2532
22171SOL    HW267615   7.008   2.237   4.847  0.0545 -0.6020 -0.0275
22172SOL     OW67616   7.091   3.182   3.551  0.4084  0.1072  0.4775
22172SOL    HW167617   7.073   3.201   3.459  0.8406  0.8741  0.5473
22172SOL    HW267618   7.173   3.227   3.570  0.4838 -0.2966  1.1607
22173SOL     OW67619   5.245   0.523   6.234  0.2122 -0.0606  0.0100
22173SOL    HW167620   5.171   0.535   6.175 -0.0895 -1.0012  0.1844
22173SOL    HW267621   5.303   0.597   6.215 -0.8973  0.8592  0.0736
22174SOL     OW67622   4.945   8.880   0.182  0.1706  0.1963 -0.5451
22174SOL    HW167623   4.888   8.905   0.254  0.8462  1.3539 -0.4032
22174SOL    HW267624   4.902   8.916   0.104 -0.2783 -0.5941 -0.6761
22175SOL     OW67625   6.213   5.032   1.440  0.2119  0.3208 -0.0872
22175SOL    HW167626   6.176   5.019   1.527 -0.1925 -0.4759 -0.3680
22175SOL    HW267627   6.306   5.047   1.455  0.0279  0.8981  0.5248
22176SOL     OW67628   6.542   4.207   8.518 -0.3200  0.5916  0.5800
22176SOL    HW167629   6.636   4.211   8.504 -0.4937  3.3833 -0.4591
22176SOL    HW267630   6.516   4.121   8.485  1.7186  0.1159  0.0868
22177SOL     OW67631   4.894   6.620   3.396 -0.2031  0.0691  0.6031
22177SOL    HW167632   4.920   6.556   3.330 -3.4487 -0.1279 -0.6766
22177SOL    HW267633   4.955   6.692   3.385  0.8623 -0.9957 -0.9370
22178SOL     OW67634   0.515   3.254   4.037 -0.3778  0.4522 -0.2622
22178SOL    HW167635   0.431   3.298   4.052  0.7043  2.1531  1.0917
22178SOL    HW267636   0.564   3.267   4.118  1.4192 -0.0601 -1.2132
22179SOL     OW67637   7.349   2.724   5.068 -0.1637  0.1270 -0.4300
22179SOL    HW167638   7.428   2.671   5.065  0.5895  1.1105  0.7391
22179SOL    HW267639   7.366   2.796   5.007 -0.0015  0.5285  0.0830
22180SOL     OW67640   8.371   5.853   0.001 -0.3534 -0.2428  0.0293
22180SOL    HW167641   8.299   5.809   0.046 -0.3383  1.1865  1.5680
22180SOL    HW267642   8.416   5.902   0.070  1.6037 -0.4212 -1.0368
22181SOL     OW67643   8.091   8.613   7.275  0.0534  0.3166 -0.0272
22181SOL    HW167644   8.097   8.708   7.289 -0.0221  0.6376 -1.9510
22181SOL    HW267645   8.164   8.577   7.325 -0.8698  1.1829  2.1033
22182SOL     OW67646   4.113   4.766   5.765 -0.1562 -0.1456  0.4304
22182SOL    HW167647   4.094   4.808   5.848  0.7397 -0.3936  0.7690
22182SOL    HW267648   4.209   4.761   5.761 -0.2184 -1.8518  0.2670
22183SOL     OW67649   8.832   8.521   0.758 -0.0751  0.7194  0.2937
22183SOL    HW167650   8.740   8.494   0.753  0.8467 -2.9607  0.2272
22183SOL    HW267651   8.843   8.553   0.848 -0.6706 -2.6245  1.7152
22184SOL     OW67652   3.545   0.125   0.664  0.2298  0.0420  0.9356
22184SOL    HW167653   3.617   0.099   0.721  1.0806 -0.6283 -0.3853
22184SOL    HW267654   3.587   0.164   0.587 -0.8752  0.9031  0.7375
22185SOL     OW67655   2.452   6.401   0.260  0.0562 -0.5901  0.2995
22185SOL    HW167656   2.462   6.492   0.233 -1.3945 -0.1007  1.3059
22185SOL    HW267657   2.381   6.402   0.323  0.3405 -2.3640  0.7101
22186SOL     OW67658   7.158   6.352   7.765 -0.3008 -0.1401 -0.0019
22186SOL    HW167659   7.214   6.298   7.710  1.8594  0.6194  1.3071
22186SOL    HW267660   7.090   6.292   7.797 -0.2967 -1.0829 -1.6898
22187SOL     OW67661   7.395   7.461   1.698 -0.5479 -0.1557 -0.2401
22187SOL    HW167662   7.454   7.402   1.746 -0.7407 -0.2673 -0.1382
22187SOL    HW267663   7.386   7.420   1.612 -0.8628 -0.3955 -0.0929
22188SOL     OW67664   0.256   8.389   2.826  0.2731  0.1867 -0.5544
22188SOL    HW167665   0.307   8.324   2.875  0.4093  0.4288 -0.3686
22188SOL    HW267666   0.201   8.431   2.892 -0.2180 -0.1201 -0.7686
22189SOL     OW67667   2.882   6.162   3.004  0.3209  0.4592 -0.0339
22189SOL    HW167668   2.952   6.127   3.060  0.6539  1.4924  0.2313
22189SOL    HW267669   2.903   6.130   2.916  0.2910 -0.4496  0.2777
22190SOL     OW67670   6.734   8.125   0.949  0.3630 -0.0393  0.1772
22190SOL    HW167671   6.675   8.185   0.994  0.7604 -1.3542  2.6300
22190SOL    HW267672   6.723   8.146   0.856 -1.4518  1.9825  0.7605
22191SOL     OW67673   1.900   5.528   8.842  0.5077  0.2379 -0.4461
22191SOL    HW167674   1.815   5.513   8.884  0.0601 -1.0166 -1.7078
22191SOL    HW267675   1.895   5.618   8.809  0.1187  0.5638  0.4679
22192SOL     OW67676   1.110   8.380   7.104  0.3020  0.2663 -0.2395
22192SOL    HW167677   1.131   8.433   7.027  2.7235  0.3057  0.3775
22192SOL    HW267678   1.185   8.391   7.162 -0.7124 -1.0944  1.4209
22193SOL     OW67679   8.811   2.774   4.070 -0.4840 -0.0836 -0.2557
22193SOL    HW167680   8.884   2.831   4.047 -0.1384 -0.5594 -0.3551
22193SOL    HW267681   8.733   2.822   4.043 -0.1222 -0.4604 -2.1516
22194SOL     OW67682   7.062   8.797   6.787  0.6928  0.4922  0.3858
22194SOL    HW167683   7.046   8.717   6.736  1.1453 -0.2505  1.3627
22194SOL    HW267684   7.137   8.838   6.746  0.2616  0.5827 -0.3176
22195SOL     OW67685   7.085   5.704   7.868  0.4425 -0.0126  0.5247
22195SOL    HW167686   7.002   5.744   7.839  0.5377 -0.3363 -0.2173
22195SOL    HW267687   7.148   5.728   7.800  0.0790 -3.0352 -1.0644
22196SOL     OW67688   2.981   8.424   1.395  0.0532 -0.3194  0.3056
22196SOL    HW167689   3.041   8.499   1.390 -0.0702 -0.1219  1.5110
22196SOL    HW267690   3.002   8.382   1.478 -0.9509 -0.7058  0.3795
22197SOL     OW67691   7.535   4.065   7.827  0.1533 -0.4566  0.4805
22197SOL    HW167692   7.577   4.147   7.852  0.4388 -0.2906 -0.4911
22197SOL    HW267693   7.545   4.061   7.732 -1.1023 -0.9205  0.3386
22198SOL     OW67694   1.273   4.522   7.847  0.3691 -0.5208 -0.2607
22198SOL    HW167695   1.182   4.494   7.839  0.0461  0.2405  0.5430
22198SOL    HW267696   1.322   4.462   7.791 -0.4999 -1.5724  0.0662
22199SOL     OW67697   5.097   0.092   6.082 -0.3883 -0.3499 -0.5174
22199SOL    HW167698   5.152   0.035   6.028  0.9179  0.5727 -0.1859
22199SOL    HW267699   5.153   0.118   6.155 -1.3371  0.4378 -0.0412
22200SOL     OW67700   3.383   8.435   5.346  0.2512  0.4178 -0.2980
22200SOL    HW167701   3.474   8.405   5.354  0.2698 -0.2468 -2.3279
22200SOL    HW267702   3.390   8.525   5.316  0.2840  0.0784 -1.3611
22201SOL     OW67703   8.872   5.043   4.297 -0.0440 -0.3633  0.2997
22201SOL    HW167704   8.815   5.039   4.374  0.3517 -1.8345  0.5554
22201SOL    HW267705   8.957   5.011   4.327  0.6258  0.7545 -0.3386
22202SOL     OW67706   1.954   5.661   0.721 -0.3944 -0.6030 -0.6575
22202SOL    HW167707   2.045   5.682   0.740 -0.4464 -0.7381 -0.2556
22202SOL    HW267708   1.956   5.569   0.695 -0.3998 -0.5664 -0.7918
22203SOL     OW67709   5.107   5.410   1.086  0.2870  0.3117  0.1901
22203SOL    HW167710   5.181   5.354   1.109  0.8067  1.3998  1.2780
22203SOL    HW267711   5.085   5.385   0.996  4.4259  2.4571 -1.7037
22204SOL     OW67712   3.395   1.729   7.918  0.3094 -0.1674 -0.0256
22204SOL    HW167713   3.466   1.701   7.861 -0.5987  1.1954 -1.9296
22204SOL    HW267714   3.318   1.732   7.861 -0.4573  2.2036  1.0129
22205SOL     OW67715   5.251   0.535   4.631 -0.1319  0.0889 -0.3248
22205SOL    HW167716   5.272   0.628   4.630 -1.4813  0.4405  0.4180
22205SOL    HW267717   5.166   0.529   4.587 -1.5291 -0.3170  2.1987
22206SOL     OW67718   0.996   4.441   5.923 -0.5625  0.1040 -0.2055
22206SOL    HW167719   0.931   4.502   5.889  1.0417  1.4592 -1.0197
22206SOL    HW267720   0.980   4.439   6.017 -1.3667  0.8970 -0.3123
22207SOL     OW67721   2.593   6.098   6.099  0.1401  0.3352  0.7535
22207SOL    HW167722   2.598   6.103   6.195  0.5837 -1.7084  0.8877
22207SOL    HW267723   2.648   6.170   6.069  0.0184  1.0024  2.0203
22208SOL     OW67724   7.551   2.694   7.107 -0.2587  0.1929  0.5597
22208SOL    HW167725   7.607   2.731   7.174  1.2456  0.5304 -0.8230
22208SOL    HW267726   7.502   2.769   7.072  1.1908  0.5940 -0.7430
22209SOL     OW67727   5.010   0.568   6.718 -0.2860 -0.7107 -0.8431
22209SOL    HW167728   5.050   0.548   6.634 -2.2372 -2.3601 -1.4772
22209SOL    HW267729   4.992   0.482   6.756 -2.2433 -0.0509 -0.1745
22210SOL     OW67730   3.726   5.199   6.409 -0.0950 -0.3873  0.4304
22210SOL    HW167731   3.758   5.284   6.380  1.2458 -1.1087 -0.3295
22210SOL    HW267732   3.721   5.206   6.504  1.0063  0.2253  0.4552
22211SOL     OW67733   4.540   6.921   7.677  0.5898 -0.3150 -0.4072
22211SOL    HW167734   4.483   6.844   7.678  0.4210 -0.1883 -0.1447
22211SOL    HW267735   4.537   6.951   7.586  1.7858 -1.4426 -0.8538
22212SOL     OW67736   0.231   8.309   5.906 -0.0046 -0.2305 -0.2363
22212SOL    HW167737   0.152   8.282   5.952 -0.0387 -1.4825 -0.9672
22212SOL    HW267738   0.222   8.272   5.818  1.0959  0.1463 -0.5320
22213SOL     OW67739   3.560   6.835   4.925 -0.1172  0.6036 -1.1269
22213SOL    HW167740   3.605   6.829   5.010 -0.6897 -1.1319 -0.9138
22213SOL    HW267741   3.630   6.830   4.860  0.1265 -1.3316 -0.7861
22214SOL     OW67742   7.660   3.940   2.124  0.2441  0.0001 -0.3089
22214SOL    HW167743   7.612   4.016   2.089  0.6306  0.2277 -0.3619
22214SOL    HW267744   7.609   3.911   2.199  0.4086  0.6939  0.0800
22215SOL     OW67745   0.315   3.728   0.104  0.0826  0.5518 -0.0016
22215SOL    HW167746   0.335   3.715   0.197 -0.2178  1.7857  0.2497
22215SOL    HW267747   0.249   3.797   0.103 -0.4211  0.0685 -1.1046
22216SOL     OW67748   3.297   2.588   8.085  0.8900  0.0664  0.4040
22216SOL    HW167749   3.356   2.566   8.157  0.7656  0.1881  0.5431
22216SOL    HW267750   3.299   2.511   8.028 -1.8228 -1.6683  2.3683
22217SOL     OW67751   6.003   2.086   6.469 -0.0558 -0.5947  0.5644
22217SOL    HW167752   5.941   2.013   6.475 -0.8272 -0.0073 -0.0475
22217SOL    HW267753   5.957   2.152   6.417  2.1614 -1.2639 -2.5123
22218SOL     OW67754   4.846   5.595   4.777  0.5145 -0.8140  0.3169
22218SOL    HW167755   4.795   5.676   4.774  0.2108 -1.0265 -0.6263
22218SOL    HW267756   4.872   5.586   4.869 -2.3965 -1.4529  1.1838
22219SOL     OW67757   5.047   8.898   4.169  0.0742  0.3734  0.1646
22219SOL    HW167758   4.985   8.860   4.231  0.0068 -1.3526 -0.8986
22219SOL    HW267759   5.000   8.971   4.130 -0.8994 -0.2426  0.1515
22220SOL     OW67760   8.203   1.913   1.006  0.0218 -0.4796 -0.2654
22220SOL    HW167761   8.134   1.951   0.952 -0.3827  0.6925  1.0190
22220SOL    HW267762   8.157   1.857   1.068  0.1323  0.6376  0.8766
22221SOL     OW67763   8.462   8.339   2.732  0.4538 -0.5846  0.3927
22221SOL    HW167764   8.481   8.422   2.774 -0.2492 -0.9160  1.4324
22221SOL    HW267765   8.480   8.353   2.639  0.2511  0.7447  0.5431
22222SOL     OW67766   0.155   7.524   1.390  0.0444  0.0403 -0.7889
22222SOL    HW167767   0.190   7.529   1.479  0.4573  1.1207 -1.0033
22222SOL    HW267768   0.230   7.540   1.333 -0.2974 -0.2167 -1.3269
22223SOL     OW67769   6.383   1.498   3.515 -0.3455  0.0283  0.4750
22223SOL    HW167770   6.389   1.493   3.611 -1.8167 -1.2057  0.5441
22223SOL    HW267771   6.321   1.430   3.492  0.5577 -0.1983 -1.4525
22224SOL     OW67772   0.267   1.235   5.785 -0.1439 -0.1386  0.2389
22224SOL    HW167773   0.294   1.210   5.873  1.5188  1.1988  0.1657
22224SOL    HW267774   0.342   1.283   5.749 -1.7561  1.6986 -0.9000
22225SOL     OW67775   7.219   8.976   3.627  0.0274  0.6424  0.1249
22225SOL    HW167776   7.290   9.040   3.624 -0.8955  1.6671 -1.0903
22225SOL    HW267777   7.173   8.995   3.709 -0.7382  2.1686 -0.5980
22226SOL     OW67778   6.037   4.703   0.741 -0.4978 -0.1729 -0.4600
22226SOL    HW167779   6.048   4.695   0.836  0.4817  0.6705 -0.4804
22226SOL    HW267780   5.944   4.687   0.726 -0.4356 -1.5988  0.4893
22227SOL     OW67781   4.873   4.498   3.604 -0.2192  0.3082 -0.1444
22227SOL    HW167782   4.871   4.404   3.586 -1.7476 -0.0754  1.6875
22227SOL    HW267783   4.839   4.539   3.524 -0.3088 -0.7710 -0.6680
22228SOL     OW67784   7.962   4.251   1.619  0.0703 -0.0712 -0.3721
22228SOL    HW167785   7.963   4.214   1.531  2.0593  0.5542 -0.6575
22228SOL    HW267786   7.896   4.199   1.666 -0.4143 -0.9761 -1.9748
22229SOL     OW67787   2.462   7.115   9.092 -0.1957 -0.6664 -0.5073
22229SOL    HW167788   2.382   7.122   9.144 -0.5624 -1.3441 -0.9774
22229SOL    HW267789   2.442   7.052   9.024 -0.0060  0.8756 -2.0568
22230SOL     OW67790   0.374   8.320   0.395 -0.1606  0.3670  0.6139
22230SOL    HW167791   0.382   8.378   0.470 -1.2411  1.4043 -0.0491
22230SOL    HW267792   0.286   8.336   0.361 -1.1029 -2.7130  1.2690
22231SOL     OW67793   1.405   4.150   2.272  0.1905  0.1001  0.1271
22231SOL    HW167794   1.406   4.135   2.367  1.3813  0.1311  0.1336
22231SOL    HW267795   1.488   4.114   2.241  2.1853  4.4672 -0.2265
22232SOL     OW67796   2.483   6.122   7.324 -0.1533 -0.1670 -0.4502
22232SOL    HW167797   2.569   6.083   7.341 -0.0913 -0.3978 -1.2641
22232SOL    HW267798   2.445   6.067   7.256 -1.0334 -0.1841  0.0425
22233SOL     OW67799   6.385   2.249   6.128  0.4605  0.0769 -0.5264
22233SOL    HW167800   6.467   2.297   6.141  1.1565 -1.1604 -0.1626
22233SOL    HW267801   6.365   2.262   6.035  0.7446  0.8870 -0.4799
22234SOL     OW67802   8.726   8.955   1.362  0.5146 -0.4402 -0.3726
22234SOL    HW167803   8.762   9.009   1.433 -0.7382  2.0501 -1.5149
22234SOL    HW267804   8.772   8.984   1.284 -2.6939  1.7678 -1.6236
22235SOL     OW67805   8.496   2.327   0.922  0.5185  0.3675  0.1266
22235SOL    HW167806   8.438   2.260   0.957  0.2351  1.1652  1.2145
22235SOL    HW267807   8.561   2.341   0.990 -0.0709  1.9750  0.4093
22236SOL     OW67808   5.111   7.395   8.138 -0.2699  0.2887  0.2249
22236SOL    HW167809   5.175   7.370   8.205 -0.2607 -2.6824 -0.7630
22236SOL    HW267810   5.158   7.456   8.082  0.9033  0.0322  0.8977
22237SOL     OW67811   6.618   2.896   3.771 -0.3056  0.0120 -0.3347
22237SOL    HW167812   6.591   2.854   3.689  1.0663 -0.9274 -0.3322
22237SOL    HW267813   6.636   2.823   3.830 -0.5436  0.6740  0.5746
22238SOL     OW67814   0.492   0.941   1.602  0.0207  0.3599 -0.5336
22238SOL    HW167815   0.549   0.971   1.532 -1.9238 -0.0862 -2.4277
22238SOL    HW267816   0.517   0.992   1.678  1.8781  1.2379 -1.6818
22239SOL     OW67817   5.191   4.535   3.457 -0.5485  0.5637  0.0304
22239SOL    HW167818   5.225   4.474   3.523  0.3041 -0.4738 -1.3266
22239SOL    HW267819   5.269   4.571   3.415 -1.0827  0.7663 -0.8089
22240SOL     OW67820   7.947   4.022   3.304 -0.3736 -0.1414  0.1227
22240SOL    HW167821   7.962   4.014   3.399 -0.6279  0.3961  0.2123
22240SOL    HW267822   7.901   4.105   3.294  1.0523  0.5788 -0.6325
22241SOL     OW67823   4.475   4.005   1.053  0.0065 -0.2145 -0.3973
22241SOL    HW167824   4.456   3.961   1.136 -0.8427  0.1010 -0.4231
22241SOL    HW267825   4.545   4.067   1.075 -0.0294 -0.3170  0.0254
22242SOL     OW67826   0.003   3.705   6.254  0.2016  0.2053  0.7673
22242SOL    HW167827  -0.060   3.758   6.204  0.0837  0.3411  1.0607
22242SOL    HW267828  -0.050   3.658   6.318  0.2558 -0.6151  0.2153
22243SOL     OW67829   7.344   4.943   6.128  0.6328  0.6940 -0.0217
22243SOL    HW167830   7.283   4.961   6.200 -1.3066  0.1219 -1.4476
22243SOL    HW267831   7.346   5.024   6.077  0.6240  0.5357 -0.2758
22244SOL     OW67832   2.257   4.576   3.341 -0.4264  1.1600  0.4239
22244SOL    HW167833   2.275   4.583   3.247 -0.5861 -0.9593  0.1925
22244SOL    HW267834   2.235   4.665   3.368 -0.3468  1.8152 -1.5332
22245SOL     OW67835   1.500   0.735   7.618 -0.0718 -0.4170 -0.1980
22245SOL    HW167836   1.518   0.783   7.537 -0.8608 -0.7035 -0.5513
22245SOL    HW267837   1.408   0.707   7.610  0.1180 -1.2537  0.3781
22246SOL     OW67838   4.798   3.305   1.995  0.4620  0.5257  0.3146
22246SOL    HW167839   4.789   3.314   1.900  0.4499  0.6371  0.3263
22246SOL    HW267840   4.771   3.215   2.013 -1.7394  1.1710  0.4845
22247SOL     OW67841   7.841   1.226   8.745  0.1613 -0.1968 -0.1561
22247SOL    HW167842   7.928   1.221   8.707 -0.0609  2.7056 -1.2463
22247SOL    HW267843   7.850   1.286   8.819 -0.7978 -0.3193  0.0786
22248SOL     OW67844   5.080   7.816   1.438 -0.0612  0.0366 -0.0079
22248SOL    HW167845   5.101   7.908   1.423  1.9124 -0.3898 -0.1390
22248SOL    HW267846   5.066   7.810   1.533  0.6168  0.3320  0.1138
22249SOL     OW67847   8.477   0.650   9.132  0.4539 -0.8799 -0.7171
22249SOL    HW167848   8.448   0.720   9.191  1.5288 -1.5679  0.6983
22249SOL    HW267849   8.406   0.641   9.068 -1.9019 -1.6143  1.7796
22250SOL     OW67850   5.507   1.229   5.713  0.4799  0.1019  1.2646
22250SOL    HW167851   5.479   1.141   5.687  3.3323 -0.1384 -1.6533
22250SOL    HW267852   5.472   1.240   5.802 -1.6933 -3.1146  0.9821
22251SOL     OW67853   7.963   4.773   3.294 -0.9430 -0.5627  0.6566
22251SOL    HW167854   7.877   4.786   3.333 -0.8813 -0.1288  0.6579
22251SOL    HW267855   8.004   4.705   3.347 -1.0329 -0.2963  1.0737
22252SOL     OW67856   7.535   3.823   0.815 -0.3554  0.0378 -0.0498
22252SOL    HW167857   7.567   3.735   0.831  0.3185  0.1071 -0.9210
22252SOL    HW267858   7.602   3.864   0.761 -0.5356  1.1741  0.5426
22253SOL     OW67859   0.837   1.766   0.600 -0.2367  0.1182 -0.1368
22253SOL    HW167860   0.764   1.808   0.647 -0.6277 -0.2508 -0.4134
22253SOL    HW267861   0.845   1.817   0.520 -1.4887 -1.0223 -1.0366
22254SOL     OW67862   1.266   6.605   2.312 -0.0250  0.2841 -0.1645
22254SOL    HW167863   1.249   6.655   2.392  1.0215  0.2102  0.1204
22254SOL    HW267864   1.358   6.580   2.319  0.5341  1.6392 -2.1558
22255SOL     OW67865   1.946   6.034   0.131 -1.2105  0.8800 -0.2056
22255SOL    HW167866   1.955   6.125   0.105 -0.3250  0.6141 -0.8626
22255SOL    HW267867   2.015   5.988   0.083 -0.3993  0.1568  1.5920
22256SOL     OW67868   1.028   1.457   1.435  0.0306  0.3536 -0.1139
22256SOL    HW167869   1.034   1.552   1.422 -0.4872  0.5027  0.6310
22256SOL    HW267870   0.952   1.446   1.493 -1.0000 -0.6494 -1.5724
22257SOL     OW67871   4.584   2.716   7.230 -0.3918  0.0855  0.4511
22257SOL    HW167872   4.644   2.748   7.298  1.3262 -2.3480  0.1939
22257SOL    HW267873   4.596   2.777   7.157 -2.9127  3.2901  2.4387
22258SOL     OW67874   4.674   5.758   1.405  0.0984 -0.0403 -0.3363
22258SOL    HW167875   4.613   5.832   1.405  1.0586  0.8974  2.6717
22258SOL    HW267876   4.743   5.784   1.344 -0.5159  0.6691 -0.7493
22259SOL     OW67877   7.086   1.380   6.881 -0.3073  0.2116  0.3030
22259SOL    HW167878   7.148   1.369   6.953 -0.1280  0.3552  0.1728
22259SOL    HW267879   7.127   1.334   6.808  0.1611  1.2225 -0.0834
22260SOL     OW67880   8.746   3.833   4.075 -0.6001 -0.3863  0.6124
22260SOL    HW167881   8.724   3.855   4.166  1.3582  0.3172  0.9589
22260SOL    HW267882   8.692   3.892   4.022 -0.7060  0.1925  1.3471
22261SOL     OW67883   3.820   2.589   4.309 -0.3003  0.1573 -0.3551
22261SOL    HW167884   3.763   2.542   4.370  1.3760 -0.5669  0.7422
22261SOL    HW267885   3.803   2.682   4.327  0.0489 -0.0407  1.1563
22262SOL     OW67886   0.672   7.264   5.271 -0.4455  0.1216  0.3486
22262SOL    HW167887   0.709   7.334   5.324 -0.0364 -0.1947  0.4859
22262SOL    HW267888   0.734   7.250   5.200  0.1519 -0.9859  1.0570
22263SOL     OW67889   1.477   1.754   9.098 -0.4580 -0.4611  0.0419
22263SOL    HW167890   1.483   1.824   9.032  1.9091 -0.7869 -0.2006
22263SOL    HW267891   1.395   1.771   9.144 -1.3482  0.7873 -1.8621
22264SOL     OW67892   7.449   3.444   7.940  0.3761  0.1803  0.3073
22264SOL    HW167893   7.356   3.460   7.955 -0.4584 -0.8044 -3.0544
22264SOL    HW267894   7.486   3.531   7.923 -0.0779  0.4949  0.9093
22265SOL     OW67895   5.544   7.355   0.207 -0.2090 -0.4544 -0.4125
22265SOL    HW167896   5.501   7.404   0.277 -0.5936  0.8935 -1.5521
22265SOL    HW267897   5.637   7.361   0.227 -0.3934 -1.7362  1.0109
22266SOL     OW67898   5.507   0.207   8.982 -0.3179  0.7995  0.0946
22266SOL    HW167899   5.513   0.253   9.066  1.0287  3.2924 -1.2611
22266SOL    HW267900   5.565   0.131   8.993  0.0418  1.2203  1.3445
22267SOL     OW67901   3.519   7.214   2.238 -0.5643 -0.1286 -0.5729
22267SOL    HW167902   3.431   7.244   2.215 -0.5142  1.6156  1.1537
22267SOL    HW267903   3.577   7.270   2.187 -0.4714  0.3269  0.0229
22268SOL     OW67904   6.927   4.711   7.009 -0.3508 -0.0881  0.5377
22268SOL    HW167905   6.949   4.631   7.056  1.5246  0.0482 -0.0124
22268SOL    HW267906   6.871   4.682   6.937 -0.7238 -0.7160  1.0702
22269SOL     OW67907   6.721   1.946   6.178  0.9565  0.6601  0.1057
22269SOL    HW167908   6.769   1.913   6.254  1.8823  1.4978 -0.0957
22269SOL    HW267909   6.694   1.867   6.131  1.1608  0.1534  0.8178
22270SOL     OW67910   7.662   2.220   5.744  0.6821 -0.4206  0.0979
22270SOL    HW167911   7.586   2.238   5.689  1.0848  2.2659  0.2672
22270SOL    HW267912   7.730   2.191   5.683 -0.3098 -2.5756 -0.0870
22271SOL     OW67913   6.950   2.678   6.266 -0.1266  0.1657 -0.5521
22271SOL    HW167914   6.937   2.591   6.228  0.0971  0.0410 -0.3464
22271SOL    HW267915   7.020   2.666   6.330  0.4958  0.6690 -1.1156
22272SOL     OW67916   4.470   2.309   3.963 -0.1758 -0.1726  0.2875
22272SOL    HW167917   4.525   2.330   3.888 -1.6345 -0.7653 -0.9923
22272SOL    HW267918   4.462   2.214   3.962 -1.0127 -0.1137  0.5929
22273SOL     OW67919   1.775   7.001   3.131  0.0732 -0.6488  0.4044
22273SOL    HW167920   1.737   7.034   3.212  1.0889 -0.2252  0.7156
22273SOL    HW267921   1.869   7.000   3.147  0.2742 -0.6934 -0.7177
22274SOL     OW67922   0.347   3.039   7.803 -0.4754  0.5973  0.2330
22274SOL    HW167923   0.369   3.077   7.718 -0.6219 -0.8584 -0.4898
22274SOL    HW267924   0.259   3.072   7.822 -1.1869 -0.4583 -1.0618
22275SOL     OW67925   5.508   2.050   5.414 -0.1093 -0.1345 -0.2170
22275SOL    HW167926   5.422   2.061   5.374 -0.8341 -1.6215  0.8204
22275SOL    HW267927   5.545   1.973   5.370  0.0050 -0.4655  0.4516
22276SOL     OW67928   4.569   1.167   2.501 -0.4205 -0.4592 -0.2721
22276SOL    HW167929   4.643   1.227   2.489  1.1023 -1.4824  2.8509
22276SOL    HW267930   4.494   1.214   2.465  0.7943  3.0951  1.3790
22277SOL     OW67931   8.817   3.518   0.741 -0.3309  0.1499  0.2344
22277SOL    HW167932   8.802   3.490   0.831  0.7659  0.9140  0.6745
22277SOL    HW267933   8.903   3.561   0.743 -0.8200  1.2463 -0.9284
22278SOL     OW67934   5.566   7.976   4.938  0.3537  0.4253  0.6599
22278SOL    HW167935   5.577   7.996   5.031  0.4166 -1.4825  1.0911
22278SOL    HW267936   5.472   7.960   4.928  0.4634 -0.1574  0.5624
22279SOL     OW67937   2.283   7.257   7.316  0.5738  0.2759 -0.1235
22279SOL    HW167938   2.284   7.318   7.243  1.0220  1.6080  0.9481
22279SOL    HW267939   2.339   7.298   7.382 -1.1076 -0.0700  1.6093
22280SOL     OW67940   7.236   7.747   5.901  0.6835 -0.0993  0.1686
22280SOL    HW167941   7.223   7.779   5.811 -1.0142 -0.4270  0.2616
22280SOL    HW267942   7.225   7.652   5.894  2.1992 -0.3326  0.4851
22281SOL     OW67943   3.678   6.087   4.523 -0.3217  0.3774  0.2553
22281SOL    HW167944   3.689   5.992   4.534  0.9576  0.6959  2.2041
22281SOL    HW267945   3.704   6.104   4.432  0.9032 -0.9573  0.3231
22282SOL     OW67946   2.507   8.562   8.422  0.0203  0.5133  0.4676
22282SOL    HW167947   2.422   8.605   8.421  0.6209  1.7255 -0.3304
22282SOL    HW267948   2.524   8.545   8.515 -1.3915 -0.4177  0.5927
22283SOL     OW67949   5.248   8.996   8.547  0.4467  0.3737  0.1368
22283SOL    HW167950   5.158   8.965   8.558  0.9458 -1.3316 -0.3004
22283SOL    HW267951   5.239   9.088   8.524 -1.1584  0.3700  0.6146
22284SOL     OW67952   8.790   5.198   2.398 -0.2758 -0.0395  0.1247
22284SOL    HW167953   8.785   5.177   2.491  0.9691  0.0749  0.2310
22284SOL    HW267954   8.873   5.160   2.369  1.5307  3.5989  0.0565
22285SOL     OW67955   5.316   2.460   7.582 -0.1325  0.4978  0.3917
22285SOL    HW167956   5.236   2.490   7.627 -0.5504 -1.8172  1.3549
22285SOL    HW267957   5.385   2.471   7.647 -0.5145 -1.6333  1.2619
22286SOL     OW67958   2.869   6.112   4.006  0.4611 -0.3411 -0.2451
22286SOL    HW167959   2.877   6.018   4.018  0.0402 -0.4853 -1.0546
22286SOL    HW267960   2.848   6.145   4.094  1.7841 -0.8470  0.2898
22287SOL     OW67961   3.600   6.787   2.282  0.0816 -0.6513  0.5233
22287SOL    HW167962   3.650   6.855   2.327  0.4830 -2.2958  2.7460
22287SOL    HW267963   3.667   6.735   2.237 -0.2566  0.5632 -1.4830
22288SOL     OW67964   7.982   5.626   6.868 -0.3800 -0.2003  0.0844
22288SOL    HW167965   7.912   5.570   6.835 -0.1138 -0.1708 -0.5350
22288SOL    HW267966   7.995   5.596   6.958 -1.7614  0.3613  0.4930
22289SOL     OW67967   3.836   3.609   1.679 -0.1316 -0.5159 -0.4245
22289SOL    HW167968   3.740   3.611   1.682 -0.0951  0.7173  1.1478
22289SOL    HW267969   3.857   3.518   1.657 -1.6495 -1.0400  0.1075
22290SOL     OW67970   7.513   2.567   5.881 -0.4286 -0.3358  0.0498
22290SOL    HW167971   7.554   2.653   5.874 -0.7694 -0.2524 -1.2348
22290SOL    HW267972   7.536   2.523   5.800 -1.0122 -1.1180  0.2987
22291SOL     OW67973   9.085   4.735   1.734 -0.1821 -0.2117 -0.7223
22291SOL    HW167974   9.116   4.813   1.688  1.4308 -0.3700  0.0306
22291SOL    HW267975   9.021   4.696   1.674  0.1030  0.8749 -1.7704
22292SOL     OW67976   4.667   3.278   7.582  0.0012 -1.1119  0.5850
22292SOL    HW167977   4.624   3.317   7.658  0.5585 -0.6719  0.6908
22292SOL    HW267978   4.748   3.328   7.573 -0.0384 -1.1846 -0.2765
22293SOL     OW67979   0.227   8.775   4.249 -0.5926  0.2833  0.7658
22293SOL    HW167980   0.306   8.779   4.303 -0.3823 -0.4116  0.5218
22293SOL    HW267981   0.217   8.682   4.228 -1.2708  0.4128  0.4896
22294SOL     OW67982   1.738   8.655   3.753  0.5726  0.3445  0.3393
22294SOL    HW167983   1.811   8.605   3.718  2.3165  1.4789  2.1396
22294SOL    HW267984   1.733   8.733   3.697  0.8029  0.3083  0.2694
22295SOL     OW67985   3.528   3.112   6.847  0.3079  0.1693 -0.2294
22295SOL    HW167986   3.480   3.068   6.777 -0.5257 -2.3166  1.7663
22295SOL    HW267987   3.591   3.047   6.877 -1.2193  0.0110  3.0880
22296SOL     OW67988   2.926   6.556   5.196 -0.1446 -0.2736 -0.7064
22296SOL    HW167989   2.906   6.554   5.102  1.0831  1.4389 -1.0645
22296SOL    HW267990   2.850   6.517   5.238 -1.0199 -0.4656 -2.3787
22297SOL     OW67991   2.663   0.211   8.119  0.1465  0.0434 -0.2122
22297SOL    HW167992   2.649   0.228   8.212 -3.2165 -0.7780 -0.4560
22297SOL    HW267993   2.646   0.295   8.076 -1.6035 -0.3181 -0.2854
22298SOL     OW67994   5.302   7.419   7.543  0.2320  0.2182 -0.5351
22298SOL    HW167995   5.328   7.360   7.472  2.4523  1.4364 -0.8387
22298SOL    HW267996   5.383   7.464   7.566 -1.1996  2.5166  0.2689
22299SOL     OW67997   2.970   7.102   8.420 -0.0674 -0.4698 -0.1009
22299SOL    HW167998   2.992   7.179   8.472 -0.3883 -0.3311 -0.1675
22299SOL    HW267999   2.902   7.057   8.470 -0.8475  0.0110 -0.6974
22300SOL     OW68000   3.693   6.252   4.958 -0.2456  0.0336 -0.2916
22300SOL    HW168001   3.788   6.242   4.965 -0.3192 -0.5735 -0.1016
22300SOL    HW268002   3.672   6.221   4.870 -0.3167 -0.2522 -0.1759
22301SOL     OW68003   0.037   9.119   1.712 -0.2372  0.3243  0.1952
22301SOL    HW168004   0.119   9.165   1.729  0.7352 -1.0466 -0.6014
22301SOL    HW268005   0.048   9.033   1.751 -1.4447  0.2249  0.3679
22302SOL     OW68006   1.676   4.403   1.357  0.3231  0.4660 -0.0066
22302SOL    HW168007   1.669   4.322   1.407  0.1116 -0.7686 -1.9110
22302SOL    HW268008   1.613   4.462   1.398 -2.6347 -1.7498 -0.9960
22303SOL     OW68009   8.321   1.739   7.617  0.5371  0.2339 -0.5773
22303SOL    HW168010   8.242   1.738   7.564 -0.2718 -2.6553  0.4856
22303SOL    HW268011   8.388   1.701   7.561 -0.0459 -1.7522 -0.0170
22304SOL     OW68012   0.894   6.666   1.220 -0.2939 -0.0784 -0.2198
22304SOL    HW168013   0.807   6.671   1.182  1.0267  2.2035 -3.4137
22304SOL    HW268014   0.951   6.642   1.146  1.7126 -3.3367  2.0853
22305SOL     OW68015   8.625   4.943   0.306 -0.2089  0.0052 -0.5449
22305SOL    HW168016   8.610   4.876   0.240  2.8561 -1.2507 -0.1442
22305SOL    HW268017   8.663   4.896   0.380  0.7368  1.9825  0.3195
22306SOL     OW68018   5.496   3.319   3.957 -0.2982  0.0311  0.7501
22306SOL    HW168019   5.406   3.291   3.975 -0.8712  1.5130  0.3974
22306SOL    HW268020   5.498   3.411   3.983  0.5865  0.5293 -0.9237
22307SOL     OW68021   1.099   0.315   2.386  0.3803  0.1625  0.7080
22307SOL    HW168022   1.058   0.363   2.315  0.5585  0.1777  0.6142
22307SOL    HW268023   1.028   0.262   2.424  0.1222  0.6993  0.9886
22308SOL     OW68024   8.870   0.790   5.500  0.2939  0.0326 -0.5425
22308SOL    HW168025   8.827   0.845   5.566 -0.7018 -1.7994  0.3879
22308SOL    HW268026   8.809   0.788   5.426 -0.3935 -1.0505  0.0391
22309SOL     OW68027   1.408   4.656   3.335 -0.0948  0.2407 -0.0985
22309SOL    HW168028   1.414   4.750   3.354  3.0428  0.0682  0.3623
22309SOL    HW268029   1.375   4.651   3.246 -2.0877  1.6455  0.4797
22310SOL     OW68030   8.851   7.138   3.519  0.5357 -0.2618 -0.2875
22310SOL    HW168031   8.914   7.134   3.447  1.9820  0.0758  0.9257
22310SOL    HW268032   8.864   7.224   3.558 -0.3288 -0.3879  0.3048
22311SOL     OW68033   8.175   6.241   2.138  0.1798 -0.7880  0.1727
22311SOL    HW168034   8.206   6.293   2.064 -0.1550  1.6681  1.6604
22311SOL    HW268035   8.242   6.251   2.206 -0.9668 -0.3934  1.2958
22312SOL     OW68036   2.111   5.682   8.428  0.2547 -0.4407 -0.1947
22312SOL    HW168037   2.161   5.618   8.377 -0.2444 -0.3622 -0.7823
22312SOL    HW268038   2.096   5.755   8.368 -0.6996 -0.5281 -0.0833
22313SOL     OW68039   6.310   6.695   0.092  0.2090 -0.0358 -0.9127
22313SOL    HW168040   6.401   6.685   0.063 -0.2802 -1.4799 -2.0736
22313SOL    HW268041   6.294   6.789   0.088  2.1771  0.4771  1.1168
22314SOL     OW68042   1.890   4.614   2.130  0.8426  0.2113  0.2418
22314SOL    HW168043   1.831   4.687   2.144 -0.2425 -0.7936  1.0492
22314SOL    HW268044   1.854   4.568   2.054 -0.0615 -0.9937  1.3605
22315SOL     OW68045   2.741   7.368   3.124 -0.0743  0.1156  0.0620
22315SOL    HW168046   2.805   7.347   3.193  0.3902  1.4318  0.0608
22315SOL    HW268047   2.675   7.421   3.167 -0.3957 -0.0161 -0.2613
22316SOL     OW68048   4.650   0.128   6.491 -0.3444 -0.2878  0.1431
22316SOL    HW168049   4.642   0.046   6.442  2.0889 -0.3502 -0.2630
22316SOL    HW268050   4.643   0.196   6.424 -2.2983 -0.1139  0.4723
22317SOL     OW68051   3.376   2.576   7.773 -0.0437 -0.6679  0.7260
22317SOL    HW168052   3.470   2.571   7.757  0.0789 -1.7783  1.6157
22317SOL    HW268053   3.355   2.492   7.814 -1.6365 -0.9344 -0.5175
22318SOL     OW68054   6.714   2.430   3.557 -0.0732  0.7670  0.1957
22318SOL    HW168055   6.809   2.441   3.568  0.0072  0.5636 -0.2637
22318SOL    HW268056   6.687   2.380   3.635  0.1511  1.0512  0.4596
22319SOL     OW68057   5.698   2.261   1.098  1.0053  0.3690 -0.5333
22319SOL    HW168058   5.606   2.240   1.114  0.9554  0.8236 -0.2007
22319SOL    HW268059   5.699   2.301   1.012  1.1093 -1.0123 -1.2002
22320SOL     OW68060   0.047   4.398   2.860 -0.4329  0.0568 -0.2776
22320SOL    HW168061  -0.022   4.337   2.836 -1.5064 -0.2735  3.1111
22320SOL    HW268062   0.014   4.441   2.939  2.6355  0.9564  0.6482
22321SOL     OW68063   1.839   7.317   2.146 -0.3550  0.1201  0.0140
22321SOL    HW168064   1.845   7.358   2.060  0.4100 -1.2966 -0.6479
22321SOL    HW268065   1.746   7.322   2.169 -0.5419  0.6540 -0.8186
22322SOL     OW68066   6.308   7.130   7.238 -0.0929  0.1326 -0.2366
22322SOL    HW168067   6.232   7.153   7.292  0.0345  0.2252 -0.0969
22322SOL    HW268068   6.339   7.048   7.275  1.8950  1.6997  1.8741
22323SOL     OW68069   8.190   1.701   0.316 -0.2321  0.4658  0.1672
22323SOL    HW168070   8.215   1.721   0.226 -0.4573  1.9421  0.4051
22323SOL    HW268071   8.101   1.667   0.309  0.4725 -1.3549 -0.3354
22324SOL     OW68072   0.559   4.066   5.359 -0.7637  0.6630  0.4884
22324SOL    HW168073   0.624   3.999   5.337  0.7334  2.6720 -1.7849
22324SOL    HW268074   0.605   4.123   5.421 -2.4088 -0.8760  3.3083
22325SOL     OW68075   5.767   4.293   4.678 -0.2561 -0.0676 -0.1628
22325SOL    HW168076   5.709   4.278   4.752 -0.6466 -0.5145 -0.5497
22325SOL    HW268077   5.855   4.278   4.712 -0.5146 -1.6943 -0.1263
22326SOL     OW68078   5.862   2.433   7.240  0.3452 -0.2283  0.0578
22326SOL    HW168079   5.901   2.349   7.263 -1.2397 -0.4356  2.2774
22326SOL    HW268080   5.920   2.498   7.281  0.4347 -0.3261  0.0868
22327SOL     OW68081   7.813   0.356   1.219  0.1114  0.3554  0.4862
22327SOL    HW168082   7.823   0.393   1.131  2.1737  0.1480  0.5780
22327SOL    HW268083   7.721   0.330   1.224  0.0164  0.0748 -1.7118
22328SOL     OW68084   6.868   0.310   4.134  0.7989 -0.0875 -0.2300
22328SOL    HW168085   6.890   0.276   4.221 -2.1338  1.7694  1.3986
22328SOL    HW268086   6.907   0.398   4.133 -0.9350  0.7220  0.1279
22329SOL     OW68087   1.432   0.657   3.542  0.3397 -0.2236 -0.1675
22329SOL    HW168088   1.500   0.627   3.602 -0.9461  0.2856  1.6046
22329SOL    HW268089   1.473   0.731   3.495  2.1666 -2.0953 -1.7376
22330SOL     OW68090   9.095   2.149   3.941  0.0382  0.2137 -0.6828
22330SOL    HW168091   9.128   2.231   3.904  0.0896  0.1360 -0.8124
22330SOL    HW268092   9.171   2.090   3.941 -0.2845 -0.2305 -1.7583
22331SOL     OW68093   7.515   7.895   8.419  0.2183 -0.3123  0.6135
22331SOL    HW168094   7.478   7.841   8.348 -0.1149 -0.4361  0.8792
22331SOL    HW268095   7.488   7.851   8.499 -0.0479  0.2495  0.8347
22332SOL     OW68096   5.724   7.562   5.622  0.0535  0.2078  0.5019
22332SOL    HW168097   5.795   7.522   5.671  0.9327  1.3673  0.2057
22332SOL    HW268098   5.716   7.651   5.657 -1.6801 -0.0702  0.9555
22333SOL     OW68099   7.356   4.565   5.161  0.0700 -0.1311 -0.0978
22333SOL    HW168100   7.284   4.506   5.182  0.3829 -0.9997 -1.3540
22333SOL    HW268101   7.367   4.618   5.240 -1.6011 -0.3122  0.3054
22334SOL     OW68102   2.882   8.480   9.051 -0.8099  0.2241 -0.2774
22334SOL    HW168103   2.824   8.513   9.119  0.6236  1.6901  0.3087
22334SOL    HW268104   2.936   8.414   9.096 -1.5459 -0.6457 -0.6508
22335SOL     OW68105   3.271   2.982   2.751  0.2467  0.2731  0.4873
22335SOL    HW168106   3.304   3.054   2.697  1.4533 -0.3949  0.2853
22335SOL    HW268107   3.317   2.992   2.835  2.8976 -1.9934 -0.5374
22336SOL     OW68108   0.037   6.036   5.033 -0.2176 -0.6367 -0.2579
22336SOL    HW168109   0.037   5.967   5.100  0.6851 -0.6968 -0.3072
22336SOL    HW268110   0.130   6.055   5.019 -0.4001 -0.5891 -1.4539
22337SOL     OW68111   6.111   5.028   2.577 -0.4643  0.2734  0.1198
22337SOL    HW168112   6.049   4.955   2.583 -2.5054  1.8948 -0.0453
22337SOL    HW268113   6.194   4.987   2.553 -0.9779 -2.2214  2.1537
22338SOL     OW68114   1.287   7.255   7.396 -0.0365  0.1302  0.0694
22338SOL    HW168115   1.311   7.175   7.442  1.5249  0.3305 -0.3468
22338SOL    HW268116   1.204   7.234   7.353 -0.2945 -0.8331  0.9892
22339SOL     OW68117   8.640   7.903   6.538 -0.3608  0.5416 -0.3386
22339SOL    HW168118   8.620   7.963   6.465 -1.9917 -0.5022 -0.8077
22339SOL    HW268119   8.733   7.917   6.555 -0.1221  1.4291 -2.0775
22340SOL     OW68120   6.881   2.696   3.498 -0.3745 -0.5045  0.2981
22340SOL    HW168121   6.842   2.752   3.566 -0.0699 -0.6880  0.6278
22340SOL    HW268122   6.933   2.756   3.445  1.0022 -0.6437  1.4161
22341SOL     OW68123   8.064   0.924   2.942 -0.5181 -0.1974 -0.1849
22341SOL    HW168124   8.072   1.016   2.968 -0.1607 -0.7889  1.9451
22341SOL    HW268125   7.996   0.888   2.999 -0.7869 -1.2259 -1.1238
22342SOL     OW68126   6.374   2.650   6.800  0.0566  0.5701  0.4574
22342SOL    HW168127   6.389   2.581   6.735 -1.9547 -0.8849  1.4451
22342SOL    HW268128   6.438   2.632   6.869 -1.0641 -0.9778  1.1620
22343SOL     OW68129   1.354   7.488   3.841 -0.1227 -0.0103  0.1794
22343SOL    HW168130   1.298   7.417   3.811  0.3030 -0.1650 -0.2565
22343SOL    HW268131   1.357   7.549   3.767  1.6265 -0.8001 -0.4582
22344SOL     OW68132   1.903   5.784   0.435  0.3152  0.1208  0.3817
22344SOL    HW168133   1.967   5.855   0.440  0.5271 -0.0926  0.8271
22344SOL    HW268134   1.915   5.736   0.517  0.1861 -0.4400  0.0768
22345SOL     OW68135   0.289   0.160   5.703  0.0456 -0.3165  0.0959
22345SOL    HW168136   0.352   0.182   5.771 -0.0715 -1.4168  0.5976
22345SOL    HW268137   0.293   0.064   5.698 -0.1995 -0.2689 -1.2099
22346SOL     OW68138   7.740   8.589   0.770 -0.3114  0.7013 -0.3897
22346SOL    HW168139   7.763   8.508   0.816 -3.2968 -0.4443 -0.6859
22346SOL    HW268140   7.811   8.602   0.707  0.3469 -1.6032 -0.2103
22347SOL     OW68141   7.384   6.874   7.116  0.8019  0.7187 -0.5079
22347SOL    HW168142   7.344   6.885   7.030  0.9902  0.2851 -0.6521
22347SOL    HW268143   7.327   6.813   7.162  0.8689  0.7108 -0.4353
22348SOL     OW68144   8.055   1.514   2.949 -0.2821  0.0660 -0.3972
22348SOL    HW168145   7.995   1.454   2.993 -1.1385 -0.3019 -2.0144
22348SOL    HW268146   8.075   1.580   3.016 -0.5864 -1.1203  0.9065
22349SOL     OW68147   1.763   6.838   7.649 -0.0955  0.1699  0.3230
22349SOL    HW168148   1.711   6.810   7.574 -0.6079  0.7796  0.4478
22349SOL    HW268149   1.842   6.877   7.610 -0.5101  0.7893  0.0847
22350SOL     OW68150   8.132   8.031   8.711 -0.4396 -0.2073  0.0549
22350SOL    HW168151   8.177   7.963   8.660 -1.7334 -2.3838  1.6704
22350SOL    HW268152   8.128   8.106   8.651 -0.6475 -2.1501 -2.5476
22351SOL     OW68153   6.292   8.088   7.711 -0.2936 -0.1480 -0.5486
22351SOL    HW168154   6.383   8.064   7.693  0.1453  0.8955  0.1407
22351SOL    HW268155   6.240   8.017   7.674  0.8693 -1.7040  0.6557
22352SOL     OW68156   6.309   1.154   3.409  0.2823 -0.5303 -0.7293
22352SOL    HW168157   6.245   1.220   3.437  0.4115 -1.2354  1.4300
22352SOL    HW268158   6.256   1.082   3.375  0.1356  0.5515 -2.9855
22353SOL     OW68159   5.574   2.412   2.472 -0.2626 -0.3796 -0.0339
22353SOL    HW168160   5.501   2.454   2.427  0.3589 -1.4745 -2.1686
22353SOL    HW268161   5.642   2.480   2.476 -0.0856 -0.4574 -1.3895
22354SOL     OW68162   4.341   1.003   7.822  0.2215 -0.0731  0.2938
22354SOL    HW168163   4.286   0.963   7.754  0.9292 -0.3146 -0.1388
22354SOL    HW268164   4.430   0.989   7.793  0.5711  3.5390 -0.9425
22355SOL     OW68165   1.151   5.365   2.018  0.1363  0.1698 -1.0217
22355SOL    HW168166   1.061   5.397   2.011  0.4918  1.9114  1.2253
22355SOL    HW268167   1.195   5.431   2.071  2.1268 -1.8826 -0.0005
22356SOL     OW68168   0.597   8.449   6.557  0.3029 -0.3868  0.1313
22356SOL    HW168169   0.666   8.484   6.614  1.1405 -0.7738 -0.6217
22356SOL    HW268170   0.638   8.442   6.471 -0.7025 -0.5691 -0.3511
22357SOL     OW68171   5.046   6.853   2.255 -0.4356 -0.4100  0.4273
22357SOL    HW168172   5.128   6.814   2.223 -0.9522 -0.8775 -0.3562
22357SOL    HW268173   5.069   6.890   2.340  0.9616  0.6989 -0.3621
22358SOL     OW68174   2.219   1.114   3.848 -0.1461 -0.1434  0.1326
22358SOL    HW168175   2.212   1.199   3.804  1.6576  0.6339  1.2158
22358SOL    HW268176   2.208   1.135   3.941 -2.2828 -1.5142  0.2504
22359SOL     OW68177   5.678   0.448   1.316 -0.2567  0.1215 -0.1167
22359SOL    HW168178   5.746   0.423   1.253  0.5941 -0.0830  0.8591
22359SOL    HW268179   5.722   0.446   1.401 -1.0484  1.6490  0.3602
22360SOL     OW68180   7.349   6.668   0.518  0.2059  0.3944 -0.4570
22360SOL    HW168181   7.412   6.740   0.518 -1.2214  1.6854 -0.1587
22360SOL    HW268182   7.293   6.685   0.443  0.3305 -0.8754 -0.8594
22361SOL     OW68183   3.594   6.466   2.256 -0.2399 -0.4125 -0.5892
22361SOL    HW168184   3.606   6.371   2.245 -0.9459 -0.5394 -0.2829
22361SOL    HW268185   3.666   6.504   2.206  1.0937 -1.1381  0.7008
22362SOL     OW68186   3.175   6.512   7.083 -0.5334  0.1998  0.0133
22362SOL    HW168187   3.226   6.503   7.164  0.7348  2.3345 -0.4608
22362SOL    HW268188   3.220   6.457   7.020 -1.4828 -1.4169  0.6922
22363SOL     OW68189   7.061   0.965   3.921  0.1778 -0.1509 -0.7399
22363SOL    HW168190   7.099   0.936   4.004  0.4791  0.5729 -0.6135
22363SOL    HW268191   7.102   1.050   3.904 -1.0895  0.4917 -0.7807
22364SOL     OW68192   6.663   6.040   5.748 -0.8902  0.4346  0.7203
22364SOL    HW168193   6.670   6.111   5.811  0.9762  0.6250  0.3782
22364SOL    HW268194   6.595   5.982   5.783 -1.9819  2.0406  1.3323
22365SOL     OW68195   6.024   6.496   5.719 -0.3220  0.1031 -0.3230
22365SOL    HW168196   6.037   6.563   5.786  0.7117 -1.6272  1.3033
22365SOL    HW268197   6.092   6.513   5.654  0.9799 -0.2704  0.8890
22366SOL     OW68198   2.599   2.950   1.665  0.7342 -0.0203 -0.2029
22366SOL    HW168199   2.664   2.922   1.729 -1.5490 -1.5100  1.6228
22366SOL    HW268200   2.568   2.869   1.625 -0.3309  0.6041 -0.6927
22367SOL     OW68201   6.198   1.768   1.353 -0.0045 -0.2177  1.2690
22367SOL    HW168202   6.211   1.674   1.345 -0.4513 -0.2226  0.5055
22367SOL    HW268203   6.257   1.806   1.288 -0.3314 -0.0132  1.0895
22368SOL     OW68204   8.394   0.200   6.024  0.2955  0.2816  0.4445
22368SOL    HW168205   8.438   0.227   5.943  1.2631  0.1117  0.8939
22368SOL    HW268206   8.319   0.149   5.995 -0.5003  1.8302 -0.3871
22369SOL     OW68207   3.302   3.964   5.126 -0.0319 -0.6416  0.4407
22369SOL    HW168208   3.293   3.984   5.219  0.8176 -1.9652  0.8368
22369SOL    HW268209   3.376   4.019   5.097 -0.1311 -0.4193  0.6098
22370SOL     OW68210   2.702   4.346   1.196  0.3401  0.2435 -0.7136
22370SOL    HW168211   2.792   4.372   1.214 -0.0838  1.1330  0.2740
22370SOL    HW268212   2.651   4.426   1.209 -0.8692 -0.7377  1.1283
22371SOL     OW68213   1.753   5.389   9.089 -0.0024  0.1827  0.1620
22371SOL    HW168214   1.814   5.333   9.041 -1.6248 -0.5625 -1.1131
22371SOL    HW268215   1.803   5.419   9.165  2.1585  0.1526 -1.1669
22372SOL     OW68216   0.082   4.589   1.139  0.1666 -0.2448 -0.4074
22372SOL    HW168217   0.123   4.666   1.098  2.4717 -0.8276  0.6330
22372SOL    HW268218   0.118   4.515   1.091  0.0154 -0.7750  0.2830
22373SOL     OW68219   5.717   0.303   6.062 -0.1445  0.1108  0.3503
22373SOL    HW168220   5.716   0.372   5.996  0.8733  1.1513  1.3775
22373SOL    HW268221   5.747   0.225   6.015  0.3554  0.7794 -0.4650
22374SOL     OW68222   6.925   7.750   1.098 -0.3175 -0.0612 -0.3864
22374SOL    HW168223   6.841   7.730   1.055 -0.8427  1.6780 -0.2435
22374SOL    HW268224   6.910   7.834   1.142  1.2090 -0.2132  0.4914
22375SOL     OW68225   0.956   3.283   6.576  0.1825 -0.0870  0.1143
22375SOL    HW168226   1.021   3.271   6.645 -0.0690  0.1854  0.4037
22375SOL    HW268227   0.892   3.213   6.591 -1.4953  1.7056  2.0434
22376SOL     OW68228   4.151   3.458   8.440  0.0409  0.2413  0.2313
22376SOL    HW168229   4.121   3.429   8.526 -0.5984 -0.3203 -0.1799
22376SOL    HW268230   4.151   3.379   8.386  2.8028  0.0696  0.3422
22377SOL     OW68231   2.654   6.195   3.842  0.5861  0.2718  0.2336
22377SOL    HW168232   2.683   6.148   3.764 -0.5385  2.1076 -1.3851
22377SOL    HW268233   2.716   6.169   3.910  1.4421 -1.6101 -1.1850
22378SOL     OW68234   2.834   4.368   3.839  0.1145 -0.7069 -0.1499
22378SOL    HW168235   2.739   4.356   3.831 -0.1543  0.3091  1.1233
22378SOL    HW268236   2.870   4.280   3.828 -1.1173 -1.4064  1.0552
22379SOL     OW68237   7.781   2.608   6.929 -0.1768 -0.0073  0.0927
22379SOL    HW168238   7.700   2.629   6.977 -1.0300 -0.3775 -1.1277
22379SOL    HW268239   7.801   2.688   6.881  1.3466  0.7738  1.8967
22380SOL     OW68240   1.621   4.439   4.389  0.2297  0.0269 -0.3765
22380SOL    HW168241   1.689   4.381   4.421 -1.2221  0.1074  3.4033
22380SOL    HW268242   1.666   4.522   4.372  1.3766 -0.5095 -0.0511
22381SOL     OW68243   8.014   0.295   3.253 -0.2695 -0.9427  0.6725
22381SOL    HW168244   8.055   0.264   3.172 -1.9016  1.3380 -1.1690
22381SOL    HW268245   8.072   0.266   3.323  2.2057 -1.3957 -1.4440
22382SOL     OW68246   1.427   3.697   0.592 -0.0322  0.4712 -0.3963
22382SOL    HW168247   1.359   3.751   0.551  0.8547  1.1293 -1.0529
22382SOL    HW268248   1.506   3.717   0.542  0.2468 -1.8173 -0.9898
22383SOL     OW68249   4.630   4.407   0.618  0.2014  0.7346  0.2474
22383SOL    HW168250   4.660   4.498   0.616 -1.1115  1.1798 -1.3816
22383SOL    HW268251   4.710   4.355   0.612  0.9121  1.7794  0.3297
22384SOL     OW68252   0.638   5.586   3.790 -0.2871 -0.5445 -0.1201
22384SOL    HW168253   0.644   5.509   3.846 -1.2047 -0.2658  0.3895
22384SOL    HW268254   0.683   5.562   3.710  1.2618 -0.8821  0.8153
22385SOL     OW68255   0.126   0.635   7.520  0.8140 -0.4927 -0.6653
22385SOL    HW168256   0.162   0.652   7.433  0.1719 -1.6324 -1.1826
22385SOL    HW268257   0.036   0.605   7.503  0.7338 -0.8792  0.3787
22386SOL     OW68258   1.549   2.490   3.646 -0.0850  0.0551 -0.0794
22386SOL    HW168259   1.473   2.541   3.616 -0.9942 -0.5270  1.1524
22386SOL    HW268260   1.554   2.508   3.740  0.2071 -1.3385  0.1824
22387SOL     OW68261   8.077   1.878   4.530 -0.2917 -0.5122 -0.0707
22387SOL    HW168262   8.058   1.894   4.437 -0.1184  0.0574 -0.0108
22387SOL    HW268263   8.048   1.788   4.545 -1.5716 -0.1602 -0.3485
22388SOL     OW68264   3.098   0.678   4.787  0.0350  0.4513  0.3591
22388SOL    HW168265   3.088   0.696   4.693 -0.6166  0.0575  0.3421
22388SOL    HW268266   3.187   0.706   4.808  0.3453  0.1211 -0.4774
22389SOL     OW68267   8.251   0.730   7.918  0.2597 -0.0474  0.1617
22389SOL    HW168268   8.221   0.801   7.863 -0.2360  0.4897  1.1021
22389SOL    HW268269   8.173   0.702   7.967  0.6806 -0.5087  0.5892
22390SOL     OW68270   3.471   2.083   7.470  0.0984  0.3187 -0.5364
22390SOL    HW168271   3.553   2.082   7.519 -0.2702  0.1016  0.0984
22390SOL    HW268272   3.446   1.990   7.463 -0.6659  0.4440  0.2939
22391SOL     OW68273   4.334   7.625   0.609  0.3528 -0.4356  0.7673
22391SOL    HW168274   4.367   7.598   0.694 -1.7042  0.6579  1.9812
22391SOL    HW268275   4.259   7.568   0.593  1.0984 -1.0629 -0.6399
22392SOL     OW68276   8.660   4.784   8.808  0.1803 -0.0816 -0.0156
22392SOL    HW168277   8.666   4.691   8.831 -0.4545 -0.0971  0.0889
22392SOL    HW268278   8.672   4.830   8.891  1.4496 -0.0352 -0.2080
22393SOL     OW68279   4.238   3.359   1.091  0.2354 -0.5037 -0.2632
22393SOL    HW168280   4.189   3.441   1.099  0.4028 -0.2531 -1.5068
22393SOL    HW268281   4.283   3.350   1.175  0.1439  0.6389 -0.0664
22394SOL     OW68282   4.748   0.538   0.914  0.3598 -0.5447  0.7217
22394SOL    HW168283   4.800   0.464   0.945  0.5722  0.0493  1.8251
22394SOL    HW268284   4.804   0.614   0.929  0.0118 -0.1158 -0.0987
22395SOL     OW68285   8.490   1.692   3.543 -0.2835 -0.2237 -0.1655
22395SOL    HW168286   8.472   1.766   3.601 -1.4923 -0.1654 -0.5825
22395SOL    HW268287   8.438   1.709   3.465 -1.8830 -2.2918  0.3577
22396SOL     OW68288   7.584   8.750   7.150 -0.2016 -0.1342 -0.6923
22396SOL    HW168289   7.518   8.713   7.208  2.1738 -2.0103  1.0014
22396SOL    HW268290   7.562   8.716   7.063 -2.0361  0.2058 -0.4056
22397SOL     OW68291   7.998   3.600   4.766 -0.5528  0.1876  0.1998
22397SOL    HW168292   8.029   3.528   4.711  0.5947  2.1346 -1.8557
22397SOL    HW268293   7.946   3.655   4.706  0.9394  2.5180  0.9268
22398SOL     OW68294   4.166   6.312   1.355  0.5303 -0.1210 -0.1346
22398SOL    HW168295   4.174   6.390   1.409  2.9811 -1.3995  1.5622
22398SOL    HW268296   4.239   6.319   1.293  0.8107 -1.0662  0.0737
22399SOL     OW68297   0.370   7.655   2.076 -0.0154  0.6275 -0.1253
22399SOL    HW168298   0.344   7.690   1.990 -0.6912  2.3304  0.7272
22399SOL    HW268299   0.357   7.728   2.136  1.6140 -0.1487  1.2500
22400SOL     OW68300   3.709   8.271   1.225 -0.1844 -0.1823  0.3405
22400SOL    HW168301   3.692   8.178   1.242 -0.6346 -0.0705  0.5217
22400SOL    HW268302   3.629   8.315   1.255  0.1576  0.2913  0.5541
22401SOL     OW68303   1.533   8.652   2.554 -0.3437  0.0768  0.2756
22401SOL    HW168304   1.565   8.602   2.478  0.4371 -0.2494  0.8048
22401SOL    HW268305   1.512   8.739   2.518 -0.6589 -0.2856 -0.4434
22402SOL     OW68306   5.507   3.300   5.189 -0.4526  0.0528  0.0362
22402SOL    HW168307   5.490   3.220   5.139  1.3899 -0.1741 -0.2646
22402SOL    HW268308   5.542   3.269   5.272 -0.5649  0.5383  0.2703
22403SOL     OW68309   1.664   6.781   7.400 -0.6484  0.0580  0.3715
22403SOL    HW168310   1.602   6.742   7.338 -1.1133  0.7342  0.3953
22403SOL    HW268311   1.742   6.799   7.348 -0.5979 -0.4668  0.2569
22404SOL     OW68312   6.206   0.636   6.048  0.4653  0.2643 -0.0427
22404SOL    HW168313   6.184   0.554   6.004 -2.4676  0.2838  1.2020
22404SOL    HW268314   6.148   0.701   6.008  1.3484  1.3422  0.3830
22405SOL     OW68315   3.824   1.880   9.091 -0.3445  0.6472 -0.4422
22405SOL    HW168316   3.738   1.916   9.072  1.0284  3.0800 -2.6872
22405SOL    HW268317   3.880   1.956   9.104  1.6406 -0.8312  0.1841
22406SOL     OW68318   5.363   5.186   3.491 -0.7490 -0.1729  0.5634
22406SOL    HW168319   5.277   5.156   3.461 -0.1202 -1.2895 -0.1898
22406SOL    HW268320   5.418   5.108   3.488  0.2001  0.4335  1.4427
22407SOL     OW68321   4.122   1.111   6.277 -0.1869  0.4743 -0.4352
22407SOL    HW168322   4.171   1.041   6.232  0.7207 -0.5096  1.9385
22407SOL    HW268323   4.117   1.181   6.212  0.8744 -0.9333 -2.1381
22408SOL     OW68324   3.985   3.457   8.071  0.6611 -0.4576 -0.1198
22408SOL    HW168325   3.953   3.370   8.095  2.7624 -0.8122  1.6744
22408SOL    HW268326   3.959   3.513   8.144  0.3326  0.1880 -0.7200
22409SOL     OW68327   8.517   3.672   8.534  0.4647  0.1927 -0.5078
22409SOL    HW168328   8.567   3.592   8.528 -2.4099 -1.6527 -2.5013
22409SOL    HW268329   8.498   3.696   8.444 -0.9450  1.6401  0.1106
22410SOL     OW68330   7.759   2.841   3.373  0.0763 -0.3219  0.0350
22410SOL    HW168331   7.787   2.914   3.318 -0.4960  0.2680  0.5089
22410SOL    HW268332   7.663   2.842   3.367 -0.0278  0.0933  1.4646
22411SOL     OW68333   7.063   7.758   1.996  0.2313  0.0719  0.5335
22411SOL    HW168334   7.103   7.762   1.909 -0.3226  0.0319  0.2668
22411SOL    HW268335   7.088   7.672   2.031  1.1091  0.4074  0.7438
22412SOL     OW68336   1.972   6.281   0.058  0.5340 -0.6596  0.0575
22412SOL    HW168337   1.994   6.316  -0.028  1.1360 -0.9181  0.0981
22412SOL    HW268338   2.001   6.349   0.119  0.0810 -0.4637  0.0559
22413SOL     OW68339   7.231   8.074   8.398 -0.1574 -0.3445 -0.3197
22413SOL    HW168340   7.205   8.118   8.318 -0.1764  1.0944  0.4507
22413SOL    HW268341   7.327   8.068   8.392 -0.1259  0.1087 -0.2794
22414SOL     OW68342   3.879   6.474   0.019  0.9400  0.1278 -0.4774
22414SOL    HW168343   3.941   6.445   0.086 -0.8092 -1.9852  0.3588
22414SOL    HW268344   3.793   6.454   0.056 -0.1877  1.1960 -2.3680
22415SOL     OW68345   2.053   3.840   1.537  0.3018 -0.0683 -0.3317
22415SOL    HW168346   2.012   3.914   1.494 -0.3899  0.3103  0.9192
22415SOL    HW268347   2.121   3.879   1.593 -1.1405 -0.1445  1.5934
22416SOL     OW68348   6.615   6.394   4.112 -0.0606  0.0442  0.0400
22416SOL    HW168349   6.619   6.327   4.181  0.4916 -0.4415 -0.4508
22416SOL    HW268350   6.630   6.477   4.158  0.7833 -0.3220  0.4506
22417SOL     OW68351   2.680   4.672   5.077  0.1897 -0.3062  0.1945
22417SOL    HW168352   2.657   4.765   5.086  0.4605 -0.2376  0.1835
22417SOL    HW268353   2.761   4.662   5.128  1.7481  0.0834 -2.0571
22418SOL     OW68354   7.715   2.906   3.934  0.3761  0.3239 -0.0300
22418SOL    HW168355   7.786   2.958   3.972  1.3913  0.7294 -2.3029
22418SOL    HW268356   7.754   2.820   3.918  0.0114  0.2015 -0.2863
22419SOL     OW68357   7.044   1.180   9.108 -1.0378  0.7107  0.4308
22419SOL    HW168358   7.125   1.200   9.155  0.3637 -2.3630 -0.4397
22419SOL    HW268359   7.065   1.197   9.016 -1.4914  0.2692  0.2418
22420SOL     OW68360   3.043   0.569   6.307  0.2378  0.7892 -0.1029
22420SOL    HW168361   2.980   0.500   6.330  0.0194  0.2924 -1.9835
22420SOL    HW268362   3.115   0.522   6.266 -0.1741  1.6801 -1.9494
22421SOL     OW68363   6.703   6.628   4.222 -0.3943  0.0361 -0.8898
22421SOL    HW168364   6.783   6.640   4.273 -0.7711  0.3454 -0.3725
22421SOL    HW268365   6.636   6.677   4.269 -1.4101 -2.0293 -0.0896
22422SOL     OW68366   1.213   4.898   1.678  0.4667  0.5137  0.4695
22422SOL    HW168367   1.259   4.978   1.654  0.5647  0.5623  0.8228
22422SOL    HW268368   1.121   4.917   1.658  0.8369 -0.4856 -2.7516
22423SOL     OW68369   3.823   4.870   6.523  0.3763 -0.1678  0.4416
22423SOL    HW168370   3.902   4.918   6.547 -0.9611  1.9329  0.8162
22423SOL    HW268371   3.760   4.891   6.592 -1.3569  0.3784 -1.2254
22424SOL     OW68372   3.266   7.108   6.961  0.3794  0.2480  0.2709
22424SOL    HW168373   3.270   7.191   6.914  1.8711  0.0697  0.0544
22424SOL    HW268374   3.336   7.055   6.922 -0.2539 -0.9547  0.7136
22425SOL     OW68375   6.355   7.387   4.838  0.0105 -0.6157  0.4963
22425SOL    HW168376   6.349   7.291   4.845  1.7113 -0.7687  0.2457
22425SOL    HW268377   6.432   7.410   4.891  0.9524  0.3591 -1.2173
22426SOL     OW68378   1.462   5.788   0.916  0.8990  0.2276 -0.7672
22426SOL    HW168379   1.402   5.722   0.950  0.0944  1.5191  0.4546
22426SOL    HW268380   1.542   5.778   0.968  0.7941  0.1708 -0.6165
22427SOL     OW68381   5.549   1.713   7.472  0.6165  0.3757  0.5740
22427SOL    HW168382   5.508   1.662   7.403  3.5827 -1.0666 -0.2788
22427SOL    HW268383   5.532   1.663   7.552 -1.7303  1.3935  0.7989
22428SOL     OW68384   4.149   3.318   6.301 -0.1785  0.4501 -0.2723
22428SOL    HW168385   4.234   3.347   6.333  1.6966 -2.7046 -1.9403
22428SOL    HW268386   4.152   3.333   6.206 -1.0412 -0.6152 -0.4901
22429SOL     OW68387   8.523   7.166   5.128 -0.0453 -0.0758  0.1454
22429SOL    HW168388   8.534   7.220   5.049 -0.3693  1.0337  0.8438
22429SOL    HW268389   8.556   7.079   5.102 -0.4008  0.1941 -1.2861
22430SOL     OW68390   9.104   5.263   1.845  0.2726 -0.0195 -0.2028
22430SOL    HW168391   9.030   5.203   1.850  1.4442 -1.4570  1.0797
22430SOL    HW268392   9.176   5.215   1.887  1.5616  1.8555 -0.1686
22431SOL     OW68393   4.061   4.942   6.005  0.0465  0.1600  0.3078
22431SOL    HW168394   3.993   5.003   6.036 -0.6776 -1.6128  2.4350
22431SOL    HW268395   4.125   4.940   6.076 -0.8304 -2.8261  1.1239
22432SOL     OW68396   3.046   0.716   4.534 -0.6032 -0.4540  0.5248
22432SOL    HW168397   2.963   0.708   4.487 -0.7438  2.2693  0.1375
22432SOL    HW268398   3.113   0.720   4.466 -0.3989 -0.4072  0.7251
22433SOL     OW68399   7.893   2.487   6.124  0.0984 -0.1378  0.4923
22433SOL    HW168400   7.851   2.411   6.167  0.8849 -1.8063 -1.5212
22433SOL    HW268401   7.874   2.475   6.031 -1.1479  3.0979  0.2006
22434SOL     OW68402   2.663   1.626   1.591  0.1390 -0.0299 -0.0706
22434SOL    HW168403   2.589   1.681   1.568 -0.1174  1.0032  2.7951
22434SOL    HW268404   2.644   1.596   1.680  1.8491 -2.0716 -0.3056
22435SOL     OW68405   3.204   5.214   3.663  0.0471 -0.3334  0.2688
22435SOL    HW168406   3.297   5.203   3.683 -0.1562 -2.2589  0.2647
22435SOL    HW268407   3.159   5.179   3.740 -0.6991  0.0854  0.0301
22436SOL     OW68408   3.356   4.220   1.430  0.3289  0.0758  0.3855
22436SOL    HW168409   3.300   4.293   1.457  0.5738 -0.0946  1.3645
22436SOL    HW268410   3.441   4.261   1.414  0.4916 -0.0070  1.0292
22437SOL     OW68411   8.251   3.541   0.206 -0.5374  0.7976 -0.4642
22437SOL    HW168412   8.297   3.460   0.187 -0.4742  0.5421  0.7194
22437SOL    HW268413   8.320   3.603   0.231 -0.7642  0.5801  0.7476
22438SOL     OW68414   6.131   1.046   7.944  0.1722 -0.2897 -0.7326
22438SOL    HW168415   6.066   1.113   7.924 -1.3324 -1.3104  0.4957
22438SOL    HW268416   6.147   1.002   7.861  1.3109  1.6332 -1.5928
22439SOL     OW68417   0.437   6.092   4.743  0.1692  0.1244  0.2312
22439SOL    HW168418   0.493   6.072   4.818  0.8911 -0.5223 -0.4594
22439SOL    HW268419   0.493   6.077   4.667 -0.9653 -0.6225 -0.4859
22440SOL     OW68420   5.801   5.306   2.183  0.0698  0.8719 -0.3332
22440SOL    HW168421   5.815   5.227   2.235 -1.4188  1.1661  0.5871
22440SOL    HW268422   5.851   5.374   2.228 -0.7077  0.9887  0.3753
22441SOL     OW68423   5.730   1.546   8.408 -0.3155  0.5138 -0.3095
22441SOL    HW168424   5.770   1.579   8.328  0.7499 -0.2837 -0.1431
22441SOL    HW268425   5.737   1.450   8.400 -2.1896  0.3450 -0.2444
22442SOL     OW68426   3.183   5.698   4.517  0.0093  0.1116  0.1496
22442SOL    HW168427   3.110   5.720   4.459  0.9833 -0.2638 -1.2778
22442SOL    HW268428   3.164   5.745   4.598 -1.7595  0.0941 -0.2109
22443SOL     OW68429   3.987   1.001   4.582 -0.0407  0.0584  0.1933
22443SOL    HW168430   3.963   1.094   4.580  1.4945  0.4996 -2.6746
22443SOL    HW268431   3.903   0.955   4.589 -0.8882  1.6256  0.8761
22444SOL     OW68432   5.462   4.362   5.186  0.1248 -0.1687 -0.1606
22444SOL    HW168433   5.435   4.446   5.223 -0.4409 -0.1637 -0.5609
22444SOL    HW268434   5.393   4.340   5.123  1.8996  0.6747 -2.5633
22445SOL     OW68435   0.581   3.461   2.152 -0.0961 -0.0588 -0.4335
22445SOL    HW168436   0.660   3.510   2.131 -0.3445  0.4325 -0.2448
22445SOL    HW268437   0.532   3.519   2.210 -1.3884  0.3339 -1.8895
22446SOL     OW68438   6.225   4.420   8.708 -0.2476 -0.0485  0.3218
22446SOL    HW168439   6.317   4.402   8.728  0.1391  1.8072  0.3720
22446SOL    HW268440   6.213   4.388   8.619  0.7668  0.6878 -0.0942
22447SOL     OW68441   2.098   4.662   4.001  0.1776 -0.2548  0.5917
22447SOL    HW168442   2.003   4.673   4.007  0.3747  1.3662  1.1132
22447SOL    HW268443   2.131   4.686   4.087  1.0349 -1.4274  0.6179
22448SOL     OW68444   6.506   4.432   1.749 -0.2416  0.0420  0.1968
22448SOL    HW168445   6.419   4.457   1.778  0.0227 -0.3592  1.4120
22448SOL    HW268446   6.504   4.337   1.745 -0.0037  0.0518 -0.2781
22449SOL     OW68447   5.591   4.569   8.745 -0.2046  0.4055  0.0384
22449SOL    HW168448   5.553   4.576   8.832  0.4468 -0.4828  0.4140
22449SOL    HW268449   5.578   4.655   8.705 -1.6985  0.4146  0.5077
22450SOL     OW68450   6.544   5.171   8.498  0.0691  0.1377  0.1954
22450SOL    HW168451   6.510   5.204   8.415 -0.9407 -0.5078  0.3371
22450SOL    HW268452   6.560   5.078   8.483  2.4914  0.5353 -0.0727
22451SOL     OW68453   0.028   1.288   7.105 -0.0259 -0.3727  0.3601
22451SOL    HW168454   0.007   1.373   7.143 -0.4911 -0.3600  0.0877
22451SOL    HW268455   0.105   1.304   7.050  0.1571 -0.2238  0.6586
22452SOL     OW68456   1.666   4.865   5.317  0.0354 -0.0138 -0.2948
22452SOL    HW168457   1.726   4.910   5.256 -0.0749 -0.9022 -1.0847
22452SOL    HW268458   1.683   4.906   5.402 -0.4351  1.8956 -1.0610
22453SOL     OW68459   7.864   4.352   4.544  0.1046 -0.2492  0.2631
22453SOL    HW168460   7.900   4.353   4.455  2.0347 -0.1124  0.9860
22453SOL    HW268461   7.871   4.443   4.574 -1.3816 -0.1118  0.2739
22454SOL     OW68462   7.432   2.854   2.453 -0.1300  0.4893 -0.0327
22454SOL    HW168463   7.343   2.888   2.447  0.4665  2.1974  0.2293
22454SOL    HW268464   7.454   2.862   2.546  0.0266 -0.6876  0.0453
22455SOL     OW68465   8.908   1.366   7.310  0.2862 -0.1182 -0.2340
22455SOL    HW168466   8.990   1.416   7.310  0.2594  0.2005 -4.1481
22455SOL    HW268467   8.922   1.297   7.375  2.3352  1.8463  1.5748
22456SOL     OW68468   9.130   6.181   4.790  0.0501 -0.5812  0.1176
22456SOL    HW168469   9.166   6.151   4.874 -0.8638  2.0444  1.5474
22456SOL    HW268470   9.038   6.157   4.793  0.0868 -0.7908 -0.3111
22457SOL     OW68471   7.032   6.474   3.638 -0.2783 -0.5230  0.5118
22457SOL    HW168472   6.949   6.456   3.682 -0.5559  1.7733  1.0402
22457SOL    HW268473   7.025   6.564   3.609  1.6118 -0.6401 -0.4581
22458SOL     OW68474   1.555   5.794   7.386 -0.1447  0.0034 -0.4060
22458SOL    HW168475   1.573   5.867   7.327  0.3453  0.5278  0.3532
22458SOL    HW268476   1.621   5.804   7.456 -0.3451 -0.9179 -0.0706
22459SOL     OW68477   0.395   4.062   8.191  0.6610 -0.2317 -0.2535
22459SOL    HW168478   0.464   4.011   8.149  0.6237 -0.8315  0.3872
22459SOL    HW268479   0.438   4.102   8.267  0.6638  0.6138 -0.6911
22460SOL     OW68480   2.739   0.684   6.980 -0.3803  0.5032 -0.6363
22460SOL    HW168481   2.790   0.712   6.904 -0.1296 -0.0180 -0.6574
22460SOL    HW268482   2.713   0.766   7.023  1.9728  0.7799  0.3868
22461SOL     OW68483   6.193   1.724   1.835 -0.1997  0.6436  0.4081
22461SOL    HW168484   6.101   1.702   1.820  0.0211  0.6294 -1.0646
22461SOL    HW268485   6.196   1.753   1.926 -1.6402  0.5655  0.5068
22462SOL     OW68486   6.424   5.568   8.806 -0.2371  0.2096 -0.0127
22462SOL    HW168487   6.473   5.515   8.743 -1.2473  0.5777 -1.1589
22462SOL    HW268488   6.482   5.640   8.828  1.1949 -1.3718  1.6429
22463SOL     OW68489   7.674   1.022   2.682  0.7112 -0.3125 -0.6095
22463SOL    HW168490   7.611   1.091   2.702  0.8337 -0.5089  0.5402
22463SOL    HW268491   7.718   1.051   2.602  0.4844  0.7440 -0.3616
22464SOL     OW68492   6.833   8.711   8.735 -0.1782  0.1181 -0.4314
22464SOL    HW168493   6.887   8.783   8.703  0.9829  0.5581  2.3342
22464SOL    HW268494   6.769   8.752   8.793  0.4661 -1.0244  1.1567
22465SOL     OW68495   8.398   5.035   8.197 -0.4556 -0.4819 -0.0315
22465SOL    HW168496   8.319   5.032   8.143 -0.4593 -0.5114 -0.0244
22465SOL    HW268497   8.431   4.945   8.196 -0.5150 -0.5062  0.1028
22466SOL     OW68498   6.069   9.125   5.037  0.1988 -0.1245 -0.1075
22466SOL    HW168499   6.051   9.148   4.946 -1.2967 -0.3260  0.1242
22466SOL    HW268500   6.058   9.030   5.040  0.6624 -0.1725  0.2023
22467SOL     OW68501   1.243   6.857   0.600  0.4262 -0.3993 -0.4766
22467SOL    HW168502   1.147   6.858   0.600  0.3068  0.1575 -3.7691
22467SOL    HW268503   1.266   6.774   0.642 -1.3563  0.2939  2.0897
22468SOL     OW68504   0.860   6.738   7.761  0.5092 -0.3040  0.1089
22468SOL    HW168505   0.943   6.760   7.718  0.3053  2.2137  0.8397
22468SOL    HW268506   0.884   6.725   7.853  0.2023 -0.4051  0.1767
22469SOL     OW68507   8.923   1.593   4.373  0.3157 -0.1085  0.9385
22469SOL    HW168508   8.898   1.501   4.382  0.2474 -0.3205 -0.9672
22469SOL    HW268509   8.937   1.623   4.463  0.5610 -2.0277  1.5896
22470SOL     OW68510   0.581   5.799   5.473  0.0137  0.0209  0.5004
22470SOL    HW168511   0.543   5.728   5.422  2.8770 -0.4405 -1.2404
22470SOL    HW268512   0.563   5.878   5.421  0.2032 -0.0054  0.3928
22471SOL     OW68513   3.002   0.058   6.484  0.0097  0.2085 -0.5698
22471SOL    HW168514   3.076   0.096   6.437 -1.5947  2.0476 -1.7647
22471SOL    HW268515   2.994   0.111   6.564  0.4979 -0.5871  0.0313
22472SOL     OW68516   0.564   3.375   0.007 -0.0804 -0.0671 -1.1925
22472SOL    HW168517   0.605   3.343  -0.073  1.2545  0.9002 -0.9494
22472SOL    HW268518   0.635   3.421   0.053 -1.9041  3.9005 -1.8721
22473SOL     OW68519   4.852   1.555   7.860  0.3972 -0.2163  0.1889
22473SOL    HW168520   4.901   1.630   7.893  0.2794 -0.1839  0.2935
22473SOL    HW268521   4.912   1.511   7.801 -0.4451  1.6126 -2.2179
22474SOL     OW68522   6.879   5.240   2.758  0.0689 -0.6823  0.1759
22474SOL    HW168523   6.889   5.280   2.671  0.2572 -0.8189  0.1343
22474SOL    HW268524   6.965   5.247   2.798 -0.4350  1.0768  1.0978
22475SOL     OW68525   5.638   5.461   0.344  0.0305 -0.2544 -0.4378
22475SOL    HW168526   5.576   5.454   0.417  0.6774  1.9891  0.4179
22475SOL    HW268527   5.717   5.417   0.375 -0.1486 -0.4992 -0.3309
22476SOL     OW68528   4.956   2.237   2.266 -0.0582  0.5925 -0.3566
22476SOL    HW168529   5.015   2.229   2.191  0.5686  3.0291 -0.2119
22476SOL    HW268530   4.903   2.315   2.247 -1.3382  0.0503  0.8036
22477SOL     OW68531   1.280   1.706   5.056  0.0417 -0.0955 -0.5347
22477SOL    HW168532   1.259   1.630   5.111  1.1122 -0.1340 -0.1529
22477SOL    HW268533   1.203   1.763   5.064 -0.3196 -0.6471  0.0481
22478SOL     OW68534   2.388   5.042   7.669  0.2095 -0.3166  0.5416
22478SOL    HW168535   2.458   5.014   7.728 -1.4039 -2.1364  1.7226
22478SOL    HW268536   2.345   5.114   7.716  0.9203  0.4532  0.0473
22479SOL     OW68537   2.182   7.739   5.785  0.1703 -0.5023  0.1556
22479SOL    HW168538   2.098   7.718   5.746  0.1670 -0.7121  0.2733
22479SOL    HW268539   2.193   7.674   5.855  0.6432 -0.7763 -0.1633
22480SOL     OW68540   0.549   8.472   1.326  0.3374  0.3080  0.2336
22480SOL    HW168541   0.558   8.383   1.293  0.1844  0.1217  0.6906
22480SOL    HW268542   0.595   8.526   1.262  0.3721 -0.0915 -0.0793
22481SOL     OW68543   3.081   4.921   7.721 -0.4680 -0.5276  0.8222
22481SOL    HW168544   3.105   4.948   7.810 -1.0596  1.9736  0.2939
22481SOL    HW268545   2.992   4.953   7.708  0.0567  0.3497 -1.0866
22482SOL     OW68546   0.110   5.672   8.948 -0.2109 -0.0744  0.1918
22482SOL    HW168547   0.056   5.701   9.022 -0.7545  1.6002 -0.7873
22482SOL    HW268548   0.094   5.738   8.881  0.4566 -1.4176 -1.3387
22483SOL     OW68549   7.058   4.911   5.126 -0.1933  0.3570 -0.0635
22483SOL    HW168550   7.074   4.859   5.048  0.7535  0.0254  0.3374
22483SOL    HW268551   7.022   4.848   5.190  0.4812  0.2891  0.2583
22484SOL     OW68552   2.088   5.916   8.307 -0.2697  0.3647 -0.3585
22484SOL    HW168553   2.090   5.956   8.219 -0.2923 -1.4081 -1.2107
22484SOL    HW268554   2.164   5.953   8.351  0.3493  0.5087 -1.4917
22485SOL     OW68555   4.174   3.953   9.027 -0.0474 -0.1687  0.7057
22485SOL    HW168556   4.192   4.022   8.964 -0.1805  0.0499  0.9049
22485SOL    HW268557   4.096   3.982   9.074 -0.1903 -0.5236  0.6930
22486SOL     OW68558   2.256   7.731   9.085  0.2103  0.2746 -0.6366
22486SOL    HW168559   2.226   7.739   9.176 -0.3038 -0.4644 -0.7304
22486SOL    HW268560   2.325   7.665   9.088 -0.7436 -0.7895 -0.9605
22487SOL     OW68561   1.910   1.793   8.529  0.2036 -0.0191  0.3876
22487SOL    HW168562   1.925   1.875   8.575  1.2844  0.0655 -0.0952
22487SOL    HW268563   1.815   1.788   8.520  0.1466  1.5030 -0.1608
22488SOL     OW68564   8.116   2.720   4.711  0.2155  0.1663  0.1091
22488SOL    HW168565   8.163   2.786   4.660 -0.9129  0.4898 -0.5379
22488SOL    HW268566   8.127   2.748   4.802  0.8307  0.5230 -0.0755
22489SOL     OW68567   8.746   5.678   9.116 -0.5752 -0.1580 -0.6354
22489SOL    HW168568   8.740   5.664   9.211  0.1002  0.4279 -0.4936
22489SOL    HW268569   8.807   5.751   9.107  0.6462 -1.2549 -1.5913
22490SOL     OW68570   4.181   4.379   8.214  0.0773 -0.6243 -0.0675
22490SOL    HW168571   4.115   4.419   8.157 -0.5925  1.5299  2.0648
22490SOL    HW268572   4.134   4.308   8.259 -0.2304 -0.3807  0.0003
22491SOL     OW68573   2.112   2.388   0.969 -0.5126  0.1862 -0.1615
22491SOL    HW168574   2.046   2.414   1.033  0.1604 -0.2528  0.7473
22491SOL    HW268575   2.086   2.300   0.941  0.4010 -0.5794  1.2542
22492SOL     OW68576   1.426   1.558   3.739 -0.2961 -0.3564  1.1369
22492SOL    HW168577   1.520   1.573   3.742 -0.4342  0.4755  1.4786
22492SOL    HW268578   1.393   1.621   3.676 -0.6873 -0.3005  1.3926
22493SOL     OW68579   3.732   0.383   7.413  0.8738 -0.1884  0.2020
22493SOL    HW168580   3.695   0.306   7.369  0.5361 -0.7449  1.4200
22493SOL    HW268581   3.715   0.368   7.506  0.8453  1.3385  0.4739
22494SOL     OW68582   6.002   7.501   7.406 -0.3767 -0.1028  0.6328
22494SOL    HW168583   6.087   7.544   7.401 -0.0770 -0.8162 -1.4613
22494SOL    HW268584   6.016   7.423   7.458  0.8656 -1.3963 -1.5007
22495SOL     OW68585   2.657   7.829   6.950  0.3461  0.3559 -0.4488
22495SOL    HW168586   2.647   7.906   7.006  1.6357 -0.3714  0.8340
22495SOL    HW268587   2.633   7.755   7.006  0.7169 -0.3200 -1.1558
22496SOL     OW68588   0.949   2.721   5.710 -0.5284  0.1707 -0.2362
22496SOL    HW168589   0.958   2.656   5.640 -0.9874  0.2291 -0.3509
22496SOL    HW268590   0.920   2.801   5.666  2.4706  1.2577 -0.4856
22497SOL     OW68591   5.998   5.671   7.656 -0.1493 -0.0177  0.2498
22497SOL    HW168592   6.071   5.617   7.623 -0.4937  1.0602 -2.5601
22497SOL    HW268593   6.037   5.757   7.672 -0.5586  0.2441 -0.1329
22498SOL     OW68594   0.335   8.262   3.852 -0.2075 -0.3940  0.0259
22498SOL    HW168595   0.248   8.281   3.817 -0.0619  0.7661  0.2627
22498SOL    HW268596   0.392   8.326   3.809  0.5755 -1.2621 -0.2757
22499SOL     OW68597   0.013   1.759   7.861 -0.5298 -0.5961  0.0007
22499SOL    HW168598   0.017   1.798   7.948 -2.2801 -1.9334  0.7125
22499SOL    HW268599   0.088   1.699   7.858  1.2121  1.4668 -0.5146
22500SOL     OW68600   7.677   0.213   4.249 -0.2660 -0.3058  0.0835
22500SOL    HW168601   7.741   0.229   4.318 -0.5844 -1.7956  0.7713
22500SOL    HW268602   7.601   0.177   4.295 -0.0091 -2.5793 -1.1063
22501SOL     OW68603   3.495   7.995   8.724  0.1160  0.3386 -0.3471
22501SOL    HW168604   3.478   7.981   8.817  1.2100  1.0401 -0.0276
22501SOL    HW268605   3.554   7.923   8.700 -1.1905 -0.6104 -0.8398
22502SOL     OW68606   1.321   6.710   7.262  0.3821  0.6891  0.1856
22502SOL    HW168607   1.336   6.667   7.347 -0.0083 -0.4928 -0.3128
22502SOL    HW268608   1.407   6.713   7.221  0.3353 -0.1672 -0.0028
22503SOL     OW68609   2.187   7.667   4.411 -0.3427  0.1813  0.1534
22503SOL    HW168610   2.214   7.623   4.491 -0.1267 -1.0623 -0.5776
22503SOL    HW268611   2.202   7.760   4.428 -0.6866 -0.0211  1.6899
22504SOL     OW68612   9.074   0.398   8.059 -0.0245  0.0165 -0.8488
22504SOL    HW168613   9.032   0.479   8.089  0.5113 -0.1132  0.2966
22504SOL    HW268614   9.166   0.408   8.085 -0.1238 -1.3319  0.0860
22505SOL     OW68615   8.786   8.333   2.175  0.5667 -0.4456  0.1257
22505SOL    HW168616   8.745   8.280   2.244  0.2501 -0.5185 -0.1173
22505SOL    HW268617   8.753   8.296   2.093  1.5567 -0.8680 -0.0989
22506SOL     OW68618   0.843   8.356   4.544  0.3148 -0.1842 -0.1327
22506SOL    HW168619   0.813   8.392   4.461  0.0323 -0.0946  0.0068
22506SOL    HW268620   0.934   8.387   4.552  0.0786  0.5030 -0.0188
22507SOL     OW68621   5.921   5.046   3.786 -0.0430  0.3845 -0.0882
22507SOL    HW168622   5.922   5.081   3.697  0.4597  0.3034 -0.1190
22507SOL    HW268623   5.859   5.102   3.833 -0.7731  0.0509 -0.6311
22508SOL     OW68624   6.981   7.245   2.791 -0.6303  0.3363  0.0267
22508SOL    HW168625   6.995   7.289   2.874 -1.1944 -1.0282  0.8822
22508SOL    HW268626   7.069   7.229   2.757 -0.3417 -0.3037  1.0412
22509SOL     OW68627   3.567   5.604   0.285  0.2654 -0.0275  0.1751
22509SOL    HW168628   3.594   5.679   0.337 -1.4244  1.1970 -0.6276
22509SOL    HW268629   3.624   5.605   0.209  0.9733 -0.2405  0.6921
22510SOL     OW68630   5.575   1.127   3.294  0.2035  0.6198 -0.0278
22510SOL    HW168631   5.579   1.036   3.265 -0.4309  0.7640 -0.5930
22510SOL    HW268632   5.525   1.125   3.375  0.0639  0.4771 -0.1174
22511SOL     OW68633   6.723   4.674   8.009 -0.2064 -0.3409 -0.0798
22511SOL    HW168634   6.793   4.732   8.039  0.2779 -1.0109  0.1224
22511SOL    HW268635   6.765   4.588   8.003 -0.6303 -0.4750 -1.4088
22512SOL     OW68636   1.122   7.691   5.566 -0.4235 -0.0120  0.6788
22512SOL    HW168637   1.174   7.628   5.516 -1.8099  0.6395 -1.7328
22512SOL    HW268638   1.169   7.773   5.559  0.4974 -0.3597  2.3678
22513SOL     OW68639   4.623   1.240   2.899  0.8626 -0.1493  0.3765
22513SOL    HW168640   4.642   1.229   2.992 -0.9477  1.0844  0.9479
22513SOL    HW268641   4.533   1.272   2.896 -0.0062 -2.4514 -1.9311
22514SOL     OW68642   5.809   1.531   6.661 -0.4385  0.5560 -0.1317
22514SOL    HW168643   5.736   1.584   6.692 -0.3296  0.9780 -0.5862
22514SOL    HW268644   5.872   1.594   6.626  0.1342  0.1932  0.2346
22515SOL     OW68645   2.245   7.118   2.645  0.1260 -0.5308 -0.0126
22515SOL    HW168646   2.306   7.186   2.674  0.4536 -1.2977  1.1864
22515SOL    HW268647   2.233   7.135   2.552 -0.2600  1.5153  0.3655
22516SOL     OW68648   2.797   8.125   6.812  0.4531  0.3711  0.1129
22516SOL    HW168649   2.854   8.073   6.869 -0.1998 -0.8984 -0.3593
22516SOL    HW268650   2.777   8.203   6.864  2.9478  1.0868  0.1164
22517SOL     OW68651   2.077   1.864   2.837  0.3180  0.0920 -0.2028
22517SOL    HW168652   2.168   1.888   2.853  1.0269 -2.5955  0.4072
22517SOL    HW268653   2.058   1.896   2.749  2.2635 -0.3123 -0.8159
22518SOL     OW68654   5.103   6.722   7.408 -0.1164 -0.6663  0.0731
22518SOL    HW168655   5.060   6.663   7.469 -1.2628  0.4943  0.4265
22518SOL    HW268656   5.151   6.784   7.463 -0.5169 -0.0910 -0.2142
22519SOL     OW68657   3.771   4.301   3.029  0.0582  0.1118  0.5676
22519SOL    HW168658   3.833   4.233   3.005  1.0480  1.6856 -1.7773
22519SOL    HW268659   3.697   4.254   3.068 -0.0698 -2.5134 -2.4299
22520SOL     OW68660   6.025   8.843   0.091 -0.1427 -0.1514  0.9680
22520SOL    HW168661   5.956   8.890   0.044 -0.2889 -2.0588 -0.8884
22520SOL    HW268662   5.981   8.770   0.133  0.6661 -1.3909 -0.2277
22521SOL     OW68663   8.777   2.994   0.917 -0.2230  0.6707 -0.1781
22521SOL    HW168664   8.749   2.907   0.944  1.2933 -1.1381 -3.6782
22521SOL    HW268665   8.847   3.017   0.978 -0.4037 -0.7503  0.6111
22522SOL     OW68666   0.432   0.358   0.482 -0.0182  0.1242  0.5486
22522SOL    HW168667   0.518   0.323   0.460  0.8709  2.9101 -0.8005
22522SOL    HW268668   0.431   0.361   0.578  1.0518 -0.7061  0.5988
22523SOL     OW68669   4.185   0.036   0.681 -0.0170 -0.7328 -0.7016
22523SOL    HW168670   4.099   0.057   0.643  0.3534 -0.8339 -1.6256
22523SOL    HW268671   4.177  -0.054   0.711 -0.4715 -0.4902 -0.0528
22524SOL     OW68672   0.795   0.475   4.567 -0.1875 -0.2042 -0.2866
22524SOL    HW168673   0.738   0.407   4.530  1.4504 -0.9516 -1.5799
22524SOL    HW268674   0.773   0.555   4.520 -0.6118 -0.3439 -0.3217
22525SOL     OW68675   4.651   1.923   2.090 -0.0123  0.3937  0.5484
22525SOL    HW168676   4.742   1.906   2.114 -0.2285  0.1661  1.2197
22525SOL    HW268677   4.616   1.972   2.164 -0.5890 -0.0005  0.5379
22526SOL     OW68678   6.586   6.787   1.986 -0.0182 -0.6060  0.1225
22526SOL    HW168679   6.560   6.708   2.033  0.0111 -1.3149 -1.0016
22526SOL    HW268680   6.642   6.755   1.915 -0.0915  0.4235 -0.4148
22527SOL     OW68681   2.822   3.123   3.958  0.0937  0.0790 -0.4204
22527SOL    HW168682   2.769   3.203   3.962  0.3843  0.3208 -1.1531
22527SOL    HW268683   2.760   3.053   3.979 -0.2085  0.4742  0.0482
22528SOL     OW68684   4.110   1.384   8.111 -0.3559  0.1657 -0.4497
22528SOL    HW168685   4.170   1.331   8.163  1.8898  2.6483 -0.3393
22528SOL    HW268686   4.027   1.381   8.160  0.7340 -0.3058  1.4598
22529SOL     OW68687   8.296   4.202   3.086 -0.0466  0.1804 -0.0473
22529SOL    HW168688   8.260   4.122   3.124  0.2022  0.7087  1.3417
22529SOL    HW268689   8.224   4.265   3.091 -0.1427  0.1463 -0.8530
22530SOL     OW68690   8.932   3.529   0.161 -0.2039 -0.2082 -0.0832
22530SOL    HW168691   8.892   3.556   0.244  1.7216  1.5226  0.3743
22530SOL    HW268692   8.935   3.434   0.165 -1.9621 -0.2687  0.9105
22531SOL     OW68693   2.180   8.243   2.437 -0.2910  0.2436 -0.9141
22531SOL    HW168694   2.116   8.199   2.493 -0.5029 -0.8559 -1.9836
22531SOL    HW268695   2.216   8.313   2.492  0.0208 -1.2168  0.8383
22532SOL     OW68696   5.798   0.213   3.685 -0.3687 -0.5054 -0.0819
22532SOL    HW168697   5.753   0.142   3.638 -0.3756 -1.5491  1.4088
22532SOL    HW268698   5.732   0.247   3.745 -0.4430  0.9884 -0.9712
22533SOL     OW68699   4.479   2.609   4.102  0.1503  0.4266  0.1839
22533SOL    HW168700   4.463   2.573   4.015  0.3246  0.9276 -0.0623
22533SOL    HW268701   4.450   2.541   4.162  3.0047 -1.3197 -0.2314
22534SOL     OW68702   4.314   0.237   7.699  0.1223  0.2411  0.1225
22534SOL    HW168703   4.287   0.165   7.755  0.0390  0.3811  0.2602
22534SOL    HW268704   4.406   0.252   7.722 -0.0791  0.6894  0.6369
22535SOL     OW68705   2.242   0.300   1.476  0.2266 -0.1754 -0.2565
22535SOL    HW168706   2.317   0.303   1.416 -0.6613 -0.7175 -1.4384
22535SOL    HW268707   2.219   0.207   1.479  1.5529 -0.5026  2.6514
22536SOL     OW68708   5.684   3.678   5.027  0.2649  0.1264 -0.5954
22536SOL    HW168709   5.698   3.621   5.103  1.9773 -0.0016 -0.9651
22536SOL    HW268710   5.655   3.618   4.958  2.1502 -0.3654 -1.0083
22537SOL     OW68711   1.125   2.890   2.471 -0.1044  0.1876 -0.1138
22537SOL    HW168712   1.042   2.855   2.502  0.1461  1.5120  2.2999
22537SOL    HW268713   1.106   2.981   2.449  0.0716 -0.3106 -2.7099
22538SOL     OW68714   8.325   7.074   6.646 -0.8047  0.6966  0.1183
22538SOL    HW168715   8.289   6.986   6.659  2.0337 -0.6448 -0.2968
22538SOL    HW268716   8.403   7.077   6.701  0.2318  2.2468 -1.3229
22539SOL     OW68717   0.821   0.325   5.434 -0.3266  0.2092  0.2953
22539SOL    HW168718   0.888   0.380   5.393 -1.3246  0.6620 -0.7747
22539SOL    HW268719   0.781   0.382   5.500 -0.2729  0.2417  0.2998
22540SOL     OW68720   1.272   5.532   6.052 -0.5185  0.0278 -0.1762
22540SOL    HW168721   1.180   5.550   6.032 -1.0036 -1.2704  0.7505
22540SOL    HW268722   1.278   5.437   6.054  1.1168  0.0768 -1.3110
22541SOL     OW68723   0.688   0.649   0.943  0.5627  0.3949 -0.0083
22541SOL    HW168724   0.600   0.614   0.957  0.2941  1.6548  1.8889
22541SOL    HW268725   0.688   0.681   0.853 -0.8107  0.0596 -0.1399
22542SOL     OW68726   2.887   5.548   5.662 -0.3288 -0.4897  0.1898
22542SOL    HW168727   2.963   5.601   5.639 -0.2459  0.6153  2.6496
22542SOL    HW268728   2.913   5.458   5.641  0.8535  0.0903 -0.9061
22543SOL     OW68729   3.007   5.139   8.780  0.0551 -0.4313 -0.6988
22543SOL    HW168730   3.028   5.123   8.687  0.9718 -0.2232 -0.5344
22543SOL    HW268731   2.922   5.096   8.792 -0.8577  0.8634 -2.0255
22544SOL     OW68732   3.164   8.813   4.982  0.3945 -0.3951  0.0177
22544SOL    HW168733   3.184   8.899   4.947  1.8850 -1.3422 -1.6246
22544SOL    HW268734   3.244   8.786   5.028 -0.3206 -0.6127  1.1749
22545SOL     OW68735   6.363   0.401   1.401  0.7029  0.4329 -0.0158
22545SOL    HW168736   6.303   0.365   1.336  1.6909 -1.5131  0.0710
22545SOL    HW268737   6.307   0.433   1.471 -0.2707 -0.2088 -0.4793
22546SOL     OW68738   5.994   3.112   5.422 -0.1349  0.7243  0.3222
22546SOL    HW168739   6.080   3.077   5.397 -0.3139 -0.4977  1.3043
22546SOL    HW268740   5.937   3.092   5.348  0.5777  2.2253 -0.6631
22547SOL     OW68741   8.692   7.110   7.807 -0.1152 -0.2360  0.1075
22547SOL    HW168742   8.651   7.024   7.817  0.3127 -0.5841 -0.9580
22547SOL    HW268743   8.709   7.139   7.896  0.1427 -1.4597  0.4734
22548SOL     OW68744   6.298   0.389   7.767  0.3288  0.1996 -0.2964
22548SOL    HW168745   6.281   0.394   7.673 -0.7416  0.5321 -0.1021
22548SOL    HW268746   6.286   0.479   7.798  1.9904  0.3547 -0.0363
22549SOL     OW68747   6.178   2.395   5.420  0.2372 -0.1201 -0.5356
22549SOL    HW168748   6.249   2.435   5.370 -0.3437  1.1545 -0.3609
22549SOL    HW268749   6.215   2.313   5.453  1.4583  0.2949 -0.8470
22550SOL     OW68750   0.701   3.572   8.070 -0.7533  0.2967  0.2868
22550SOL    HW168751   0.716   3.478   8.057 -1.2569  0.2964 -0.3858
22550SOL    HW268752   0.774   3.601   8.125  2.4327  0.5207 -3.5897
22551SOL     OW68753   6.702   2.348   8.899 -0.6498  0.0189  0.1009
22551SOL    HW168754   6.760   2.395   8.838  0.7322 -2.7133 -0.8380
22551SOL    HW268755   6.631   2.315   8.843  0.2959 -1.9750  0.0282
22552SOL     OW68756   1.403   3.669   3.235  0.5526 -0.1163 -0.2055
22552SOL    HW168757   1.318   3.703   3.208 -0.7333 -2.3323  0.7493
22552SOL    HW268758   1.463   3.744   3.227 -0.8088  0.8071 -3.6369
22553SOL     OW68759   3.635   4.060   0.420  0.0905  0.2771  0.4913
22553SOL    HW168760   3.565   4.038   0.359  1.7586 -1.3888 -0.9571
22553SOL    HW268761   3.592   4.108   0.490 -2.0616  1.6326 -1.5976
22554SOL     OW68762   1.988   0.509   1.078 -0.2772 -0.7275  0.6494
22554SOL    HW168763   2.082   0.523   1.067 -0.0440 -1.1975  1.9013
22554SOL    HW268764   1.971   0.425   1.037 -0.6367  0.4303 -1.7619
22555SOL     OW68765   6.130   2.866   1.016  0.2378 -0.1952 -0.1064
22555SOL    HW168766   6.062   2.897   0.955  1.0252  0.0219 -0.8976
22555SOL    HW268767   6.094   2.883   1.103 -1.0839 -0.8676 -0.4962
22556SOL     OW68768   7.811   2.924   2.693  0.5008  0.0985  0.1390
22556SOL    HW168769   7.868   2.946   2.619 -1.0126  1.8827 -0.5531
22556SOL    HW268770   7.745   2.865   2.655  0.1796  0.3889  0.2468
22557SOL     OW68771   5.463   4.389   3.261 -0.3451  0.1220  0.1473
22557SOL    HW168772   5.473   4.297   3.285  1.6576  0.2159 -0.1353
22557SOL    HW268773   5.441   4.387   3.168  2.6071 -0.1204 -0.6715
22558SOL     OW68774   3.487   5.215   4.225 -0.3142  0.1427 -0.6736
22558SOL    HW168775   3.477   5.244   4.134 -2.9674 -0.9053 -0.7950
22558SOL    HW268776   3.470   5.293   4.277  0.1810  0.5031 -1.0394
22559SOL     OW68777   8.955   4.210   4.934  0.4592  0.0964  0.0352
22559SOL    HW168778   8.890   4.246   4.875  0.2960  0.8998  0.6932
22559SOL    HW268779   8.980   4.127   4.894  0.4343  0.6730 -1.2163
22560SOL     OW68780   6.931   8.186   4.213  0.0250  0.2907  0.1853
22560SOL    HW168781   6.984   8.178   4.292  1.0529  1.2358 -0.3865
22560SOL    HW268782   6.976   8.131   4.148 -0.1544  0.4494 -0.0752
22561SOL     OW68783   6.321   8.193   0.664  0.2480 -0.1856 -0.1385
22561SOL    HW168784   6.295   8.210   0.573 -0.3099  0.6616  0.1588
22561SOL    HW268785   6.415   8.179   0.660  0.2707  0.1094 -0.8238
22562SOL     OW68786   3.755   2.811   8.252 -0.0963 -0.3661 -0.2620
22562SOL    HW168787   3.717   2.826   8.165 -0.4438  1.0259  0.0986
22562SOL    HW268788   3.827   2.750   8.236 -0.0249  0.0109 -1.5716
22563SOL     OW68789   6.815   4.988   8.028 -0.0499  0.3108  0.2274
22563SOL    HW168790   6.744   5.021   8.083 -0.8482 -0.8475 -0.0663
22563SOL    HW268791   6.857   4.920   8.080 -1.0868 -1.0997 -0.7048
22564SOL     OW68792   1.091   6.186   0.364 -0.5788 -0.0219  0.1771
22564SOL    HW168793   1.168   6.241   0.350 -1.0499  0.0654 -2.6988
22564SOL    HW268794   1.016   6.246   0.355 -1.0335 -0.5383  0.4256
22565SOL     OW68795   6.995   0.499   6.107  0.2919  0.4851 -0.3321
22565SOL    HW168796   7.038   0.444   6.042  0.2572  0.4939 -0.3621
22565SOL    HW268797   6.925   0.542   6.060  1.0448  1.4649 -0.5922
22566SOL     OW68798   6.714   5.893   1.508  0.3044  0.1903 -0.1906
22566SOL    HW168799   6.691   5.894   1.601 -2.9478  2.6358 -0.8242
22566SOL    HW268800   6.725   5.985   1.485  1.6281 -0.4000 -2.1479
22567SOL     OW68801   6.632   4.400   5.229 -0.5301 -0.0049 -0.4319
22567SOL    HW168802   6.714   4.390   5.278 -0.6563  0.5356 -0.1002
22567SOL    HW268803   6.650   4.361   5.143 -0.2422 -0.7882 -0.0293
22568SOL     OW68804   8.912   4.361   3.921 -0.1166  0.3066  0.4589
22568SOL    HW168805   8.939   4.280   3.964 -0.5065  1.1319  2.3690
22568SOL    HW268806   8.967   4.367   3.843 -0.0174 -1.7261  0.3187
22569SOL     OW68807   1.517   5.575   7.919 -0.4911  0.0870  0.2159
22569SOL    HW168808   1.444   5.526   7.880 -0.9559  0.1635  0.9763
22569SOL    HW268809   1.492   5.667   7.907 -0.1083  0.1318 -0.2806
22570SOL     OW68810   4.766   7.002   4.084 -0.3497  0.0035  0.1772
22570SOL    HW168811   4.760   6.954   4.002 -0.3580 -2.4341  1.5036
22570SOL    HW268812   4.854   6.983   4.117 -0.3226  0.9850  0.6994
22571SOL     OW68813   8.454   1.745   6.797 -0.3224  0.1985  0.1731
22571SOL    HW168814   8.537   1.786   6.819 -0.0715 -0.0745 -0.2588
22571SOL    HW268815   8.473   1.692   6.720 -0.6099 -0.8131  0.7782
22572SOL     OW68816   6.524   6.538   6.436  0.5484  0.1457  0.0975
22572SOL    HW168817   6.586   6.582   6.378 -2.3120  1.0087 -2.5796
22572SOL    HW268818   6.518   6.595   6.512  1.7781  0.9065 -0.3483
22573SOL     OW68819   2.831   3.579   9.103 -0.3445 -0.0039 -0.5019
22573SOL    HW168820   2.840   3.617   9.190 -0.0649  2.1047 -1.3760
22573SOL    HW268821   2.740   3.596   9.079  0.0669  1.1716 -1.3284
22574SOL     OW68822   3.200   8.355   4.912  0.0216  0.3275  0.2810
22574SOL    HW168823   3.285   8.320   4.936 -0.6317 -1.6809 -0.1479
22574SOL    HW268824   3.183   8.423   4.977  1.4720  0.0291  1.0089
22575SOL     OW68825   3.841   0.433   5.085  0.6651 -0.2564  0.3016
22575SOL    HW168826   3.844   0.526   5.107 -1.0975  0.5570 -2.3654
22575SOL    HW268827   3.859   0.430   4.991 -3.1589 -2.1130 -0.5535
22576SOL     OW68828   8.247   7.692   5.179 -0.1406  0.2364  0.2813
22576SOL    HW168829   8.320   7.748   5.206  0.8819 -0.4630 -0.9314
22576SOL    HW268830   8.272   7.661   5.092 -2.8414  1.6677 -1.1317
22577SOL     OW68831   9.096   8.708   1.746  0.4902 -0.3835  1.1639
22577SOL    HW168832   9.113   8.618   1.775  2.4526  0.0696  1.5079
22577SOL    HW268833   9.039   8.697   1.670  1.2734 -1.9758  0.7619
22578SOL     OW68834   3.147   4.905   0.939 -0.3832 -0.2716 -0.1556
22578SOL    HW168835   3.073   4.962   0.918  0.5642  1.2797  0.5131
22578SOL    HW268836   3.207   4.914   0.865 -0.9578 -1.7521 -0.8331
22579SOL     OW68837   3.334   8.172   4.262 -0.0371  0.4196  0.0994
22579SOL    HW168838   3.371   8.258   4.241 -2.0937  0.7325 -2.8899
22579SOL    HW268839   3.396   8.109   4.226  0.2644  0.7415  0.0595
22580SOL     OW68840   6.214   6.958   0.014 -0.2050  0.7882 -0.4548
22580SOL    HW168841   6.164   6.899  -0.042  0.9416 -1.0056  0.3013
22580SOL    HW268842   6.153   6.985   0.083 -0.6908  0.2946 -0.6930
22581SOL     OW68843   6.648   8.352   5.684  0.3731  0.2083 -0.6556
22581SOL    HW168844   6.617   8.274   5.638 -2.1457 -0.0028  1.1775
22581SOL    HW268845   6.689   8.406   5.617  0.5315 -1.8598 -2.3069
22582SOL     OW68846   0.471   6.533   1.997 -0.4331 -0.5969 -0.0785
22582SOL    HW168847   0.476   6.438   1.986 -0.0384 -0.5592 -0.2785
22582SOL    HW268848   0.382   6.556   1.972 -1.0289 -1.1001  1.5173
22583SOL     OW68849   5.927   3.792   3.032 -0.6238 -0.0477 -0.2185
22583SOL    HW168850   5.943   3.778   3.126  3.1323 -0.8275 -0.7869
22583SOL    HW268851   5.895   3.882   3.026  0.1780  0.4324  1.7575
22584SOL     OW68852   3.456   6.800   3.247  0.4807 -0.0872 -0.2346
22584SOL    HW168853   3.466   6.877   3.303  0.1799 -0.2436  0.0393
22584SOL    HW268854   3.389   6.824   3.184 -1.4442 -0.9594  1.3726
22585SOL     OW68855   4.280   3.754   1.863 -0.1196 -0.3832 -0.1226
22585SOL    HW168856   4.345   3.683   1.869  1.8049  1.2394 -0.8207
22585SOL    HW268857   4.318   3.817   1.803 -1.7782  1.2793  0.4646
22586SOL     OW68858   7.219   2.209   7.348 -0.4223  0.6740  0.2089
22586SOL    HW168859   7.138   2.235   7.304 -0.5349 -1.0168 -0.6692
22586SOL    HW268860   7.282   2.278   7.325 -1.1949  1.1873 -0.4089
22587SOL     OW68861   1.602   1.938   1.723  0.2412  0.3611 -0.2089
22587SOL    HW168862   1.692   1.906   1.712  0.5345  0.0181  2.5232
22587SOL    HW268863   1.548   1.874   1.676  1.2758 -0.5184 -0.2394
22588SOL     OW68864   6.558   7.379   1.320 -0.4049 -0.1390  0.3090
22588SOL    HW168865   6.545   7.325   1.242 -0.5606  1.4579 -0.8250
22588SOL    HW268866   6.507   7.458   1.303  0.3324  0.6596  1.6129
22589SOL     OW68867   5.476   4.158   1.331  0.1607 -0.0587 -0.0834
22589SOL    HW168868   5.385   4.134   1.347  0.0371 -0.0894 -0.8281
22589SOL    HW268869   5.525   4.077   1.342 -0.0288 -0.2621 -0.7087
22590SOL     OW68870   7.026   7.360   3.324 -0.5432  0.0465  0.4660
22590SOL    HW168871   6.948   7.415   3.335 -0.1885  0.4151  1.2622
22590SOL    HW268872   7.004   7.279   3.371  0.3051  0.9488  2.5731
22591SOL     OW68873   8.035   1.111   3.686  0.1973  0.1728 -0.0516
22591SOL    HW168874   8.130   1.121   3.689  0.3160 -0.5102 -1.0542
22591SOL    HW268875   8.001   1.200   3.700  1.0049  0.6358 -0.9390
22592SOL     OW68876   6.167   5.751   2.338  0.3772  0.0734  0.6628
22592SOL    HW168877   6.081   5.710   2.342  0.2117  0.3666  0.2088
22592SOL    HW268878   6.149   5.845   2.339  0.6395  0.1471 -0.2291
22593SOL     OW68879   5.046   6.183   8.644  0.3322  0.3208 -0.6174
22593SOL    HW168880   5.042   6.137   8.728  1.6360 -1.6962 -1.5860
22593SOL    HW268881   5.137   6.212   8.636 -0.0060  1.3698 -0.9337
22594SOL     OW68882   4.595   7.141   5.828 -0.3056  0.0521  0.4894
22594SOL    HW168883   4.633   7.055   5.849  1.2479  0.8365  1.0675
22594SOL    HW268884   4.524   7.152   5.891 -2.1966 -1.8308 -1.1712
22595SOL     OW68885   8.425   2.429   0.205  0.2613 -0.0649 -0.3049
22595SOL    HW168886   8.487   2.370   0.248 -0.0349 -1.0877 -1.2202
22595SOL    HW268887   8.460   2.438   0.116  0.9210  2.0758  0.1199
22596SOL     OW68888   2.841   3.525   7.587  0.0800 -0.4819 -0.0395
22596SOL    HW168889   2.903   3.570   7.644  0.1842  1.0049 -1.2686
22596SOL    HW268890   2.894   3.460   7.540 -0.1180 -2.1563  1.9206
22597SOL     OW68891   4.076   6.186   8.393  0.0785  0.4160 -0.0043
22597SOL    HW168892   4.153   6.224   8.434  0.0042  0.9111 -0.3146
22597SOL    HW268893   4.105   6.101   8.361 -0.0899 -0.3567  1.8114
22598SOL     OW68894   3.538   9.049   8.254 -0.1480 -0.6494 -0.4542
22598SOL    HW168895   3.535   8.958   8.224  0.9649 -0.9715  0.3453
22598SOL    HW268896   3.446   9.075   8.259 -0.4388 -1.2060 -2.1923
22599SOL     OW68897   0.700   3.950   1.811 -0.0676  0.6656 -0.2783
22599SOL    HW168898   0.791   3.929   1.794 -0.2207 -0.1041 -0.2035
22599SOL    HW268899   0.657   3.865   1.819 -0.5500  1.0087  0.9882
22600SOL     OW68900   7.447   5.525   1.786 -0.4501 -0.4335 -0.2756
22600SOL    HW168901   7.477   5.601   1.736  1.1814  0.1162  1.4319
22600SOL    HW268902   7.507   5.520   1.860 -1.2974 -2.6683  0.3259
22601SOL     OW68903   5.707   1.351   6.079 -0.3480 -0.6868  0.4864
22601SOL    HW168904   5.795   1.336   6.045 -0.1952 -3.1651  1.7465
22601SOL    HW268905   5.658   1.387   6.005  1.6884  0.8302 -0.2175
22602SOL     OW68906   2.271   5.298   1.262 -0.1045  0.3098  0.3016
22602SOL    HW168907   2.182   5.297   1.296 -0.1909 -0.3718  0.0669
22602SOL    HW268908   2.260   5.318   1.169  0.0812  1.4729  0.5182
22603SOL     OW68909   4.463   5.079   7.219  0.0464 -0.7245  0.3302
22603SOL    HW168910   4.479   5.149   7.282 -1.0158 -1.2862  1.2557
22603SOL    HW268911   4.397   5.115   7.159 -0.5865 -0.9468  0.8749
22604SOL     OW68912   7.013   6.053   4.812  0.2813  0.3346  0.0971
22604SOL    HW168913   7.106   6.040   4.794  0.4970  2.2831 -0.4640
22604SOL    HW268914   7.007   6.058   4.907  0.4190 -1.7133  0.2524
22605SOL     OW68915   2.897   1.097   8.798  0.4488  0.2545  0.5246
22605SOL    HW168916   2.917   1.067   8.709  0.8422 -0.4185  0.8250
22605SOL    HW268917   2.849   1.024   8.838  0.2374  0.5666  0.8490
22606SOL     OW68918   5.628   4.085   7.273  0.2169 -0.5028  0.0261
22606SOL    HW168919   5.698   4.055   7.331  1.5787  1.6124 -0.4112
22606SOL    HW268920   5.562   4.120   7.332  2.3815  3.3450  0.5030
22607SOL     OW68921   7.191   3.141   5.254 -0.4433  0.1674  0.3651
22607SOL    HW168922   7.271   3.094   5.230 -0.0026  0.2454  1.6249
22607SOL    HW268923   7.200   3.159   5.348 -2.3711 -0.6945  0.7826
22608SOL     OW68924   3.722   8.700   1.354  0.2099  0.3106 -0.1548
22608SOL    HW168925   3.760   8.661   1.433 -0.3699  2.0175  1.0288
22608SOL    HW268926   3.656   8.636   1.326 -0.3770  0.1444  1.4396
22609SOL     OW68927   3.146   1.293   3.091  0.4617 -0.0693  0.6576
22609SOL    HW168928   3.093   1.334   3.022 -1.7162 -1.6390  1.2996
22609SOL    HW268929   3.234   1.291   3.055  0.1606  2.6778 -0.4753
22610SOL     OW68930   4.453   3.386   8.165  0.3665  0.1584  0.0115
22610SOL    HW168931   4.434   3.480   8.165  0.6564  0.2179 -0.3086
22610SOL    HW268932   4.526   3.377   8.227  0.5566  0.1871 -0.2100
22611SOL     OW68933   6.291   6.455   8.181 -0.2323 -0.1073 -0.2302
22611SOL    HW168934   6.335   6.533   8.216 -1.8141  0.0871  1.4954
22611SOL    HW268935   6.253   6.485   8.098 -0.9469  1.0342  0.4794
22612SOL     OW68936   6.457   8.698   4.245  0.1435 -0.1231  0.4872
22612SOL    HW168937   6.534   8.741   4.282 -0.0615  0.7923 -0.1026
22612SOL    HW268938   6.449   8.734   4.157 -0.4518 -0.8678  0.2216
22613SOL     OW68939   3.492   2.368   6.887 -0.1456  0.4445  0.1665
22613SOL    HW168940   3.524   2.353   6.975 -1.3955 -0.2214  0.5275
22613SOL    HW268941   3.416   2.425   6.898 -0.5891 -0.0088 -0.4249
22614SOL     OW68942   0.158   1.743   8.379  0.4112  0.1231  0.3077
22614SOL    HW168943   0.112   1.665   8.348  0.6589 -0.7171  1.9527
22614SOL    HW268944   0.232   1.753   8.318 -1.0072  0.5889 -1.4279
22615SOL     OW68945   2.734   2.687   6.542 -0.2619 -0.1765  0.6613
22615SOL    HW168946   2.732   2.700   6.637 -0.9519  0.4879  0.5632
22615SOL    HW268947   2.644   2.665   6.519 -0.2831  0.5235  0.0486
22616SOL     OW68948   7.373   8.229   7.594  0.1977 -0.1292 -0.2760
22616SOL    HW168949   7.279   8.243   7.585  0.5399  1.4602 -1.8043
22616SOL    HW268950   7.389   8.146   7.548 -0.4760 -0.5264  0.1944
22617SOL     OW68951   2.845   8.925   7.886  0.4101 -0.1913  0.3571
22617SOL    HW168952   2.802   8.983   7.949 -0.1944 -2.6733  2.4039
22617SOL    HW268953   2.836   8.970   7.802  0.0218  2.6308  1.7982
22618SOL     OW68954   7.425   1.048   0.576 -0.0423 -0.1549 -0.3750
22618SOL    HW168955   7.398   1.117   0.638  1.6225  1.3186 -1.1923
22618SOL    HW268956   7.358   1.050   0.508 -2.4039 -2.4131  1.6706
22619SOL     OW68957   0.995   8.997   3.984 -0.4641  0.4732  0.1867
22619SOL    HW168958   1.035   9.078   4.014  0.9130 -0.0875 -0.0506
22619SOL    HW268959   0.944   8.965   4.059  0.1795  0.7962  0.7665
22620SOL     OW68960   2.429   7.990   3.463 -0.0920  0.5814  0.2689
22620SOL    HW168961   2.358   8.027   3.410 -0.7701  0.7643  1.2747
22620SOL    HW268962   2.384   7.947   3.536  0.8429  1.8127  1.6221
22621SOL     OW68963   0.310   9.065   0.589  0.1784 -0.3310 -0.3058
22621SOL    HW168964   0.243   9.118   0.547  0.6141 -0.3384 -1.0233
22621SOL    HW268965   0.364   9.128   0.637  0.5774 -0.1374 -0.9945
22622SOL     OW68966   2.749   6.283   1.910 -0.4342 -0.0220  0.6837
22622SOL    HW168967   2.696   6.329   1.976 -0.1217  0.7568  0.4038
22622SOL    HW268968   2.734   6.190   1.928 -0.4841  0.1786  1.7534
22623SOL     OW68969   3.005   3.688   4.202  0.3743 -0.2500  0.2033
22623SOL    HW168970   3.070   3.680   4.133  0.4770  0.6016  0.1839
22623SOL    HW268971   2.996   3.600   4.238  0.6967 -0.5934 -0.5517
22624SOL     OW68972   1.750   3.690   6.387 -0.5988  0.0868  1.0899
22624SOL    HW168973   1.763   3.742   6.466 -0.5226 -1.2625  1.9955
22624SOL    HW268974   1.803   3.611   6.401 -0.5882 -0.1850 -0.3059
22625SOL     OW68975   1.496   0.403   7.262 -0.6199 -0.6257 -0.4872
22625SOL    HW168976   1.537   0.413   7.348  0.6857 -0.1729 -1.1249
22625SOL    HW268977   1.414   0.451   7.269  0.8037  1.9935 -0.3219
22626SOL     OW68978   8.025   6.314   7.878  0.2433  0.2817  0.2754
22626SOL    HW168979   8.038   6.385   7.815 -3.2599  0.8313 -0.0048
22626SOL    HW268980   7.963   6.350   7.942 -1.9027 -2.5458 -0.0555
22627SOL     OW68981   1.911   2.205   5.484 -0.2374 -0.4041  0.5143
22627SOL    HW168982   1.984   2.150   5.512  0.7174 -0.4709 -1.8465
22627SOL    HW268983   1.837   2.145   5.477  0.0644 -0.8013  0.7222
22628SOL     OW68984   2.086   8.342   6.064 -0.0844 -0.2748  0.2308
22628SOL    HW168985   2.088   8.318   6.157 -0.6445  1.0547  0.5935
22628SOL    HW268986   1.994   8.333   6.038 -0.3956  1.7513  0.4767
22629SOL     OW68987   0.505   4.604   6.493  0.0070  0.3983  0.2048
22629SOL    HW168988   0.466   4.600   6.406  1.3195 -1.9013 -0.3846
22629SOL    HW268989   0.539   4.693   6.500 -0.2009  0.6647 -1.6124
22630SOL     OW68990   1.872   1.616   4.510 -0.4632 -0.0463 -0.0736
22630SOL    HW168991   1.827   1.628   4.427 -0.6876 -0.8683 -0.0797
22630SOL    HW268992   1.962   1.643   4.494 -0.2519 -1.1724 -0.8731
22631SOL     OW68993   8.621   9.002   0.019  0.1012  0.2456 -0.5307
22631SOL    HW168994   8.584   8.985  -0.068 -1.4333 -0.5901  0.2381
22631SOL    HW268995   8.711   9.029   0.002  0.2415 -1.1613 -2.3211
22632SOL     OW68996   7.169   1.451   5.063 -0.1517  0.5677  0.7094
22632SOL    HW168997   7.086   1.490   5.090  0.4490  1.4000  1.3970
22632SOL    HW268998   7.158   1.435   4.969 -1.4549 -0.2884  0.9853
22633SOL     OW68999   7.277   1.218   7.536 -0.2523  0.0821  0.3725
22633SOL    HW169000   7.317   1.271   7.605  0.7450  0.6424 -0.6092
22633SOL    HW269001   7.221   1.157   7.583  0.0644  0.7353  1.6541
22634SOL     OW69002   7.479   0.665   5.329  0.0577  0.1606  0.0263
22634SOL    HW169003   7.498   0.753   5.297  1.7775 -0.9802 -2.4332
22634SOL    HW269004   7.400   0.639   5.281  1.6388 -0.9063 -2.1323
22635SOL     OW69005   4.964   4.907   5.562  0.3790  0.3231  0.4078
22635SOL    HW169006   4.889   4.961   5.536  0.3837  0.9526  1.6297
22635SOL    HW269007   4.974   4.844   5.491  0.9504  2.4854 -1.5844
22636SOL     OW69008   1.076   4.118   1.869 -0.3208  0.0433 -0.1864
22636SOL    HW169009   1.162   4.118   1.912 -0.6766 -1.4318  0.6058
22636SOL    HW269010   1.017   4.154   1.934 -0.5523 -0.4324 -0.1263
22637SOL     OW69011   7.123   1.469   4.700  0.0826 -0.3740  0.0337
22637SOL    HW169012   7.194   1.466   4.635  1.3057  0.2154  1.2751
22637SOL    HW269013   7.100   1.377   4.715  2.1533 -0.7938  1.1703
22638SOL     OW69014   1.851   5.411   5.212 -0.1260  0.4345 -0.7549
22638SOL    HW169015   1.795   5.467   5.266 -1.3100 -0.8700 -0.5616
22638SOL    HW269016   1.923   5.386   5.270  0.3935  1.6869 -0.8322
22639SOL     OW69017   0.975   0.298   3.946  0.2195  0.0876  0.5035
22639SOL    HW169018   0.902   0.344   3.987  1.1786  0.9992  1.2492
22639SOL    HW269019   0.935   0.243   3.878 -1.1570  0.4083  1.0401
22640SOL     OW69020   3.567   5.949   6.892 -0.0081 -0.6046 -0.0471
22640SOL    HW169021   3.511   5.973   6.966  1.0467  0.6984  0.3827
22640SOL    HW269022   3.656   5.958   6.926  0.4834 -1.5464 -1.0273
22641SOL     OW69023   2.057   4.428   3.495 -0.1205  0.0272 -0.1605
22641SOL    HW169024   2.117   4.477   3.440 -0.4961  1.1800  0.4215
22641SOL    HW269025   2.112   4.386   3.561 -0.0632  3.0851  1.9106
22642SOL     OW69026   8.496   8.708   5.869  0.0579 -0.5274 -0.0564
22642SOL    HW169027   8.553   8.656   5.812 -0.5264 -1.1679 -0.0659
22642SOL    HW269028   8.552   8.729   5.944  0.8974  0.5009 -0.9288
22643SOL     OW69029   5.450   1.496   1.936 -0.3210 -0.0281  0.1554
22643SOL    HW169030   5.474   1.405   1.953  3.3297  0.8070  0.1844
22643SOL    HW269031   5.413   1.494   1.847  3.0929 -1.1572 -1.3999
22644SOL     OW69032   4.826   3.902   6.425 -0.1318 -0.3435  0.3971
22644SOL    HW169033   4.739   3.912   6.386 -0.3846  0.2134  1.0916
22644SOL    HW269034   4.881   3.962   6.376  0.0362 -1.2024 -0.5134
22645SOL     OW69035   2.958   7.624   3.944  0.2097  0.1364 -0.5184
22645SOL    HW169036   2.930   7.715   3.949 -1.4168 -0.3616  0.2848
22645SOL    HW269037   2.977   7.599   4.034 -3.3141 -1.3965 -0.0447
22646SOL     OW69038   2.062   6.006   8.846  0.2661 -0.8407 -0.3360
22646SOL    HW169039   2.139   6.056   8.872 -0.5727 -0.0113  0.6454
22646SOL    HW269040   2.033   6.048   8.765  0.0718 -0.2826  0.0172
22647SOL     OW69041   8.989   9.104   0.511 -0.0808 -0.1285 -0.0455
22647SOL    HW169042   8.935   9.144   0.443 -1.4697 -0.2972  0.9175
22647SOL    HW269043   9.059   9.060   0.463 -1.4507 -0.8891 -1.4488
22648SOL     OW69044   0.860   0.564   8.435 -0.1486  0.1318  0.6294
22648SOL    HW169045   0.879   0.592   8.525  0.9580 -0.5080  0.6083
22648SOL    HW269046   0.768   0.588   8.422 -0.3420  0.1943  1.9454
22649SOL     OW69047   0.553   1.508   0.926  0.4647 -0.4447  0.0990
22649SOL    HW169048   0.475   1.467   0.890 -0.9025  0.4169  1.8948
22649SOL    HW269049   0.525   1.541   1.012  2.2067  1.7930 -0.0949
22650SOL     OW69050   6.522   0.032   1.346 -0.2526  0.5131 -0.7164
22650SOL    HW169051   6.433  -0.002   1.347 -0.3916  0.8406  0.9836
22650SOL    HW269052   6.536   0.061   1.256 -0.7217 -2.3968 -1.8181
22651SOL     OW69053   0.219   7.112   7.455 -0.5066 -0.4079  0.2685
22651SOL    HW169054   0.284   7.088   7.522 -2.2055  0.0614  2.1604
22651SOL    HW269055   0.257   7.188   7.412  1.6536 -2.0307 -0.9297
22652SOL     OW69056   5.955   2.172   7.283  0.2259 -0.5922 -0.1178
22652SOL    HW169057   5.928   2.082   7.265  0.8389 -0.8555  0.2535
22652SOL    HW269058   6.015   2.165   7.357  1.6701 -0.0899 -1.1848
22653SOL     OW69059   8.460   7.374   5.513 -0.0243  0.0911 -0.5094
22653SOL    HW169060   8.527   7.442   5.521  0.0794 -0.0179 -0.4375
22653SOL    HW269061   8.397   7.409   5.450  0.2472  0.0767 -0.7908
22654SOL     OW69062   2.928   6.561   1.878 -0.4325  0.1223  0.1715
22654SOL    HW169063   2.923   6.642   1.828 -0.9249 -0.4618 -0.7631
22654SOL    HW269064   3.020   6.555   1.905 -0.1185  0.3682 -0.8180
22655SOL     OW69065   6.713   5.950   0.758 -0.2570  0.2596 -0.6144
22655SOL    HW169066   6.631   5.912   0.790 -0.4581  0.4110 -0.9520
22655SOL    HW269067   6.730   6.023   0.818 -0.0343 -0.1639 -0.1570
22656SOL     OW69068   1.691   5.424   0.460 -0.1279 -0.1294  0.0416
22656SOL    HW169069   1.680   5.339   0.418 -0.0457 -0.9769  1.6902
22656SOL    HW269070   1.658   5.413   0.548  1.5646  1.0105  0.8876
22657SOL     OW69071   2.578   0.889   5.529  0.0402 -0.0205 -0.5858
22657SOL    HW169072   2.559   0.829   5.601  1.3642  1.6192  1.2544
22657SOL    HW269073   2.501   0.946   5.525 -0.4823 -0.7515 -1.1966
22658SOL     OW69074   5.382   7.350   6.142 -0.0904 -0.2095 -0.1988
22658SOL    HW169075   5.399   7.420   6.079 -1.8303  1.4247  1.0470
22658SOL    HW269076   5.453   7.358   6.206 -0.8300  1.1358  0.4902
22659SOL     OW69077   7.827   6.805   8.100  0.5580 -0.0494  0.5614
22659SOL    HW169078   7.786   6.876   8.050 -0.3498 -0.0360  1.3192
22659SOL    HW269079   7.761   6.736   8.103  1.1424 -0.6160  0.5180
22660SOL     OW69080   1.872   0.733   0.277 -0.3003 -0.4301  0.0724
22660SOL    HW169081   1.835   0.653   0.240  1.1858 -0.4859 -1.3894
22660SOL    HW269082   1.850   0.729   0.370 -1.2932 -1.9237 -0.1917
22661SOL     OW69083   3.546   1.004   7.285 -0.1326  0.1188 -0.3279
22661SOL    HW169084   3.641   0.992   7.289 -0.0372  0.7785 -0.4951
22661SOL    HW269085   3.534   1.095   7.257 -0.7987 -0.5697 -2.4870
22662SOL     OW69086   0.008   3.663   1.886  0.0846  0.4019 -0.1936
22662SOL    HW169087  -0.061   3.728   1.903 -1.7089 -1.6306  0.7604
22662SOL    HW269088   0.030   3.627   1.972  1.2346 -0.0817 -0.6675
22663SOL     OW69089   2.588   2.369   6.217 -0.2284 -0.0302  0.6960
22663SOL    HW169090   2.651   2.302   6.194 -0.9813 -0.0834 -1.4599
22663SOL    HW269091   2.577   2.361   6.312  0.8184 -1.9217  0.7008
22664SOL     OW69092   7.540   4.191   1.992 -0.3397  0.1559 -0.1833
22664SOL    HW169093   7.530   4.286   1.984  0.3081  0.3241  0.7890
22664SOL    HW269094   7.457   4.156   1.961 -1.5879  1.1657  1.8257
22665SOL     OW69095   5.875   0.447   3.975  0.3913  0.0828  0.3222
22665SOL    HW169096   5.913   0.426   3.890 -1.5737 -1.4812 -0.2360
22665SOL    HW269097   5.811   0.516   3.957 -0.3400 -0.5544  0.4465
22666SOL     OW69098   3.199   9.067   4.915  0.3176 -0.1504 -0.0086
22666SOL    HW169099   3.185   9.118   4.995  1.3182  0.4817 -0.2304
22666SOL    HW269100   3.282   9.098   4.880  0.8057 -1.7007 -0.3289
22667SOL     OW69101   3.271   2.856   1.297 -0.0694 -0.3376 -0.0222
22667SOL    HW169102   3.212   2.837   1.224 -0.3354  1.3630 -0.2905
22667SOL    HW269103   3.341   2.791   1.288 -1.2280 -1.5808 -0.4445
22668SOL     OW69104   4.843   6.656   4.035 -0.1274 -0.4715  0.0011
22668SOL    HW169105   4.781   6.655   3.962  0.7735  1.7685 -0.8913
22668SOL    HW269106   4.900   6.581   4.019 -0.8439 -0.8668 -0.7687
22669SOL     OW69107   5.139   8.333   4.031  0.1765  0.6975 -0.2871
22669SOL    HW169108   5.134   8.413   3.979  0.3990  1.5360  0.9624
22669SOL    HW269109   5.121   8.360   4.120  1.6381 -0.4061  0.3934
22670SOL     OW69110   5.975   6.451   4.375 -0.7856 -0.3483 -0.4446
22670SOL    HW169111   5.963   6.468   4.469 -2.5410  1.1614 -0.8685
22670SOL    HW269112   5.972   6.538   4.335 -2.6596 -1.1129 -2.1228
22671SOL     OW69113   5.919   2.294   6.304  0.0176 -0.4910 -0.7703
22671SOL    HW169114   5.883   2.376   6.338 -1.5000 -1.3940 -0.1366
22671SOL    HW269115   5.942   2.315   6.213  0.1099  0.7510 -0.4849
22672SOL     OW69116   4.876   0.043   4.188 -0.3076  0.5941 -0.1779
22672SOL    HW169117   4.799   0.014   4.237 -0.3250  1.7040  0.5023
22672SOL    HW269118   4.845   0.051   4.098 -0.4110 -0.9933 -0.3081
22673SOL     OW69119   3.958   6.648   3.301  0.1667  0.5307  0.1117
22673SOL    HW169120   3.997   6.571   3.343 -0.2264  0.4232  0.2822
22673SOL    HW269121   3.940   6.619   3.211 -0.6877  0.1741  0.3887
22674SOL     OW69122   5.968   2.225   2.025  0.0371 -0.2042 -0.1140
22674SOL    HW169123   5.903   2.291   2.051  1.6032  1.5668 -0.4756
22674SOL    HW269124   5.926   2.176   1.955 -1.2974  0.1610  0.3913
22675SOL     OW69125   0.270   7.836   7.718 -0.2754 -0.0403 -0.0327
22675SOL    HW169126   0.240   7.802   7.633  0.5427 -0.9597  0.0364
22675SOL    HW269127   0.189   7.853   7.766 -0.7435  0.2063 -0.8882
22676SOL     OW69128   3.279   5.854   8.193  0.3449  0.5478 -0.6595
22676SOL    HW169129   3.214   5.923   8.179 -0.1122  0.6466  1.6416
22676SOL    HW269130   3.290   5.814   8.107 -3.1280  0.1885 -1.0692
22677SOL     OW69131   1.897   6.953   5.647  0.2084  0.2484  0.0406
22677SOL    HW169132   1.950   7.010   5.703  0.1075 -1.8900  2.5219
22677SOL    HW269133   1.809   6.991   5.651  0.4653  0.8188  0.3311
22678SOL     OW69134   7.789   3.574   0.881  0.0925  0.2088  0.5266
22678SOL    HW169135   7.824   3.656   0.916 -0.1221  0.3999  0.2927
22678SOL    HW269136   7.832   3.564   0.797  1.4889 -0.8387  1.3239
22679SOL     OW69137   7.912   4.561   8.738 -0.1494 -0.0349  0.1536
22679SOL    HW169138   7.823   4.552   8.705 -0.0933 -2.6724  0.5031
22679SOL    HW269139   7.966   4.569   8.659 -0.5952  0.7186 -0.0865
22680SOL     OW69140   3.681   5.902   6.511 -0.6243  0.0112  0.2728
22680SOL    HW169141   3.673   5.872   6.420  2.4553 -0.1107 -0.0552
22680SOL    HW269142   3.686   5.997   6.504  2.5863 -0.0673 -0.1395
22681SOL     OW69143   5.118   2.486   7.892  0.2609 -0.2473 -0.1020
22681SOL    HW169144   5.124   2.558   7.954  1.6618  0.2439 -0.7469
22681SOL    HW269145   5.178   2.420   7.926 -1.1764 -1.2388  0.6007
22682SOL     OW69146   5.994   2.539   3.232 -0.8183  0.0009  0.0710
22682SOL    HW169147   5.989   2.517   3.139 -0.5560  0.4281 -0.0477
22682SOL    HW269148   6.052   2.473   3.269 -0.9627 -0.2001 -0.0591
22683SOL     OW69149   6.893   8.078   3.533 -0.1479 -0.2791  0.0468
22683SOL    HW169150   6.867   8.052   3.444 -2.0536  0.9799  0.1902
22683SOL    HW269151   6.840   8.155   3.552  0.8042 -0.0520  2.0050
22684SOL     OW69152   4.349   2.225   2.887 -0.5848 -1.1063 -0.0836
22684SOL    HW169153   4.423   2.230   2.826 -1.0140 -1.1750 -0.6164
22684SOL    HW269154   4.378   2.275   2.963  0.2620 -1.6594 -0.0242
22685SOL     OW69155   3.438   0.480   6.879  0.5542 -0.3855  0.0292
22685SOL    HW169156   3.411   0.571   6.870 -0.0210 -0.3955  1.3610
22685SOL    HW269157   3.513   0.483   6.938 -1.1804 -0.9343  2.4503
22686SOL     OW69158   8.425   3.336   0.473 -0.1331  0.5104 -0.1137
22686SOL    HW169159   8.345   3.387   0.485 -1.2529 -0.9642 -0.8997
22686SOL    HW269160   8.493   3.386   0.518 -1.3785  2.0927  0.0876
22687SOL     OW69161   3.910   1.804   2.651 -0.0987  0.1730  0.2737
22687SOL    HW169162   3.822   1.790   2.686 -0.2777 -1.0912 -0.6231
22687SOL    HW269163   3.911   1.896   2.626 -1.4506  0.0420 -0.4094
22688SOL     OW69164   1.028   4.450   8.352 -0.0068 -0.3180  0.2594
22688SOL    HW169165   0.974   4.373   8.370 -2.1304  0.7540 -1.1054
22688SOL    HW269166   0.966   4.517   8.323  1.9088  1.5159  0.1364
22689SOL     OW69167   7.853   4.951   1.077  0.0031  0.0426  0.6017
22689SOL    HW169168   7.854   4.985   1.167 -0.0249 -0.7254  0.8978
22689SOL    HW269169   7.807   4.867   1.084 -2.3200  1.1213 -0.5459
22690SOL     OW69170   0.782   3.852   5.588 -0.4414  0.2147  0.7575
22690SOL    HW169171   0.756   3.919   5.651  0.4966  0.9434  0.4063
22690SOL    HW269172   0.787   3.771   5.639 -0.9327  0.5389  1.3353
22691SOL     OW69173   4.992   0.678   7.000 -0.3742 -0.8882 -0.4678
22691SOL    HW169174   4.964   0.660   6.910 -1.0364 -2.6123  0.0398
22691SOL    HW269175   4.936   0.621   7.054  0.5451 -0.4717  0.9744
22692SOL     OW69176   0.794   2.445   6.027  0.5946 -0.3275  0.6852
22692SOL    HW169177   0.831   2.401   5.952  1.8586 -1.5234  1.9608
22692SOL    HW269178   0.777   2.535   5.997  1.9119 -0.5320 -0.7431
22693SOL     OW69179   4.248   0.334   8.474 -0.1780  0.4361 -0.0768
22693SOL    HW169180   4.169   0.283   8.492  0.7242 -1.0837 -0.2032
22693SOL    HW269181   4.218   0.410   8.425 -1.4610 -0.6087 -0.9809
22694SOL     OW69182   6.025   8.446   3.368  0.4398  0.2885  1.0389
22694SOL    HW169183   6.060   8.464   3.281 -0.0466 -1.1666  0.5121
22694SOL    HW269184   6.063   8.362   3.392 -2.3362 -1.2080  0.5953
22695SOL     OW69185   0.393   2.591   2.885  0.8876 -0.1748 -0.1586
22695SOL    HW169186   0.473   2.604   2.835  0.0187  0.6304 -1.4117
22695SOL    HW269187   0.397   2.656   2.955  1.3761 -0.2204 -0.1416
22696SOL     OW69188   2.156   3.901   7.473 -0.1798  0.0849 -0.1637
22696SOL    HW169189   2.119   3.813   7.461  1.2385 -0.5988  0.2666
22696SOL    HW269190   2.173   3.932   7.384 -1.4892  0.2967 -0.3546
22697SOL     OW69191   4.520   3.900   0.248  0.1367 -0.2743  0.7397
22697SOL    HW169192   4.545   3.967   0.311 -1.3149 -0.1262  1.2091
22697SOL    HW269193   4.512   3.820   0.300  0.1372 -0.4163  0.5229
22698SOL     OW69194   1.499   3.646   7.375 -0.0727 -0.0892  0.3495
22698SOL    HW169195   1.440   3.573   7.357 -0.1395  0.2329 -0.8321
22698SOL    HW269196   1.491   3.703   7.298 -1.6402  2.2703  2.1065
22699SOL     OW69197   4.578   0.021   2.727 -0.4536  0.4249 -0.2204
22699SOL    HW169198   4.580  -0.065   2.768 -1.6323  1.1774  1.5220
22699SOL    HW269199   4.604   0.005   2.636 -0.0818 -1.6602  0.2089
22700SOL     OW69200   6.898   1.389   7.112  0.5011 -0.5780  0.2143
22700SOL    HW169201   6.807   1.369   7.088  0.3855  0.8906 -0.7019
22700SOL    HW269202   6.947   1.381   7.031  0.6502  1.4778  0.0536
22701SOL     OW69203   4.346   2.224   9.106  0.0270  0.3187 -0.0969
22701SOL    HW169204   4.291   2.282   9.053  0.4003  1.3347  0.6083
22701SOL    HW269205   4.435   2.240   9.074  0.4206  1.8659  1.6182
22702SOL     OW69206   4.636   8.319   1.418  0.1097  0.3935  0.8711
22702SOL    HW169207   4.673   8.375   1.350 -3.5147  0.7493 -1.0420
22702SOL    HW269208   4.618   8.380   1.491 -2.7948  1.7184 -0.7800
22703SOL     OW69209   6.483   3.916   8.977 -0.3568 -0.2032 -0.0682
22703SOL    HW169210   6.406   3.956   8.936  0.0482  0.2893 -0.3638
22703SOL    HW269211   6.552   3.924   8.911 -0.8723 -3.7562 -1.2386
22704SOL     OW69212   7.832   3.566   4.953 -0.6717  0.1464  0.5901
22704SOL    HW169213   7.863   3.628   5.018  1.2555 -0.3916  0.2462
22704SOL    HW269214   7.887   3.581   4.877 -2.4477  0.3125 -0.7267
22705SOL     OW69215   3.333   8.210   0.883 -0.4520  0.0200  1.0890
22705SOL    HW169216   3.375   8.152   0.947 -0.4933  0.8075  1.8472
22705SOL    HW269217   3.239   8.199   0.899 -0.4549  0.4561  1.3844
22706SOL     OW69218   4.697   8.776   3.192 -0.6486  0.4096 -0.1633
22706SOL    HW169219   4.772   8.834   3.209 -1.3412  1.0552  0.8431
22706SOL    HW269220   4.713   8.740   3.105  1.5285 -0.5554  0.5800
22707SOL     OW69221   2.451   8.427   2.713  0.0373  0.0053  0.0979
22707SOL    HW169222   2.493   8.486   2.776  0.2996 -0.5860  0.4802
22707SOL    HW269223   2.522   8.401   2.654 -0.1405  0.3005 -0.2507
22708SOL     OW69224   8.943   2.397   5.409 -0.0806 -0.2031  0.2708
22708SOL    HW169225   8.977   2.313   5.440 -1.4640 -0.5976  0.8071
22708SOL    HW269226   8.957   2.457   5.483  2.2712  0.4635 -0.6433
22709SOL     OW69227   0.758   8.032   5.891 -0.0552 -0.1341 -0.5593
22709SOL    HW169228   0.794   8.119   5.877 -0.9267  0.5539  1.1779
22709SOL    HW269229   0.831   7.980   5.924  1.0389 -0.7456 -3.6035
22710SOL     OW69230   6.965   6.688   9.109 -0.0762 -0.7247  0.2139
22710SOL    HW169231   6.888   6.733   9.075  0.6338 -2.0084 -3.5461
22710SOL    HW269232   6.945   6.595   9.098  0.6408 -1.2343  2.6656
22711SOL     OW69233   7.543   1.346   0.752 -0.3253  0.0984 -0.3926
22711SOL    HW169234   7.495   1.269   0.781  2.1453 -1.2686  0.4245
22711SOL    HW269235   7.571   1.388   0.834  0.9980  0.0512 -0.8013
22712SOL     OW69236   1.689   3.287   6.540  0.1675 -0.0231 -0.1534
22712SOL    HW169237   1.615   3.328   6.495  0.3591 -1.2812 -1.6978
22712SOL    HW269238   1.752   3.269   6.471  2.8521  2.7277  1.3401
22713SOL     OW69239   3.107   6.554   2.832  0.2058  0.1671  0.0772
22713SOL    HW169240   3.037   6.572   2.895  0.7633 -0.1773  0.8120
22713SOL    HW269241   3.064   6.504   2.763 -0.1212 -0.7388  0.9101
22714SOL     OW69242   1.305   7.625   1.294 -0.3924 -0.2831  0.1357
22714SOL    HW169243   1.319   7.545   1.243 -0.3561 -0.5537  0.5722
22714SOL    HW269244   1.327   7.695   1.233  0.0656 -0.6161 -0.0932
22715SOL     OW69245   7.152   3.059   4.338 -0.7279  0.1798 -0.0508
22715SOL    HW169246   7.184   3.130   4.282  0.7772 -0.9963 -0.7444
22715SOL    HW269247   7.064   3.041   4.305 -0.1042 -0.0703 -1.6827
22716SOL     OW69248   0.027   5.573   4.669 -0.0723 -0.3495 -0.0543
22716SOL    HW169249   0.055   5.658   4.702  1.2619 -1.1290  0.9245
22716SOL    HW269250  -0.045   5.593   4.609  0.4591  1.4892 -0.1453
22717SOL     OW69251   6.474   6.327   3.617 -0.1812 -0.2787  0.0276
22717SOL    HW169252   6.534   6.256   3.594 -0.0249 -0.8902  2.0984
22717SOL    HW269253   6.508   6.361   3.700 -1.0257  1.3435 -0.2543
22718SOL     OW69254   2.155   2.087   5.510  0.2367 -0.9051 -0.3680
22718SOL    HW169255   2.187   1.998   5.497  1.7547 -0.3000 -0.9796
22718SOL    HW269256   2.218   2.127   5.570 -0.1197 -0.0929 -0.5228
22719SOL     OW69257   7.964   2.668   3.432 -0.5422 -0.7389 -0.3152
22719SOL    HW169258   8.050   2.710   3.421 -1.1440  1.2297  1.5788
22719SOL    HW269259   7.902   2.741   3.425 -1.7515 -1.4560  1.9238
22720SOL     OW69260   5.891   0.332   1.180  0.7095  0.2297  0.5804
22720SOL    HW169261   5.943   0.307   1.103 -0.4284  1.1335 -0.5281
22720SOL    HW269262   5.891   0.254   1.235 -0.2319 -1.2202 -1.3445
22721SOL     OW69263   5.356   2.016   2.068 -0.3102 -0.1176  0.0291
22721SOL    HW169264   5.324   1.927   2.078 -0.2599  0.0029  1.4269
22721SOL    HW269265   5.449   2.011   2.090 -0.1403  0.1632 -0.5910
22722SOL     OW69266   0.861   4.147   7.160  0.0726  0.1472  0.0857
22722SOL    HW169267   0.938   4.096   7.184  0.1141  1.2841  2.6913
22722SOL    HW269268   0.893   4.237   7.152 -1.2815  1.2559  4.3422
22723SOL     OW69269   7.063   8.197   2.185  0.1331  0.0398  0.4392
22723SOL    HW169270   7.094   8.109   2.207  3.7709  0.9002 -0.5529
22723SOL    HW269271   7.023   8.229   2.266  1.7375 -1.3930  1.8861
22724SOL     OW69272   3.482   5.438   4.394 -0.2195  0.0619 -0.3087
22724SOL    HW169273   3.408   5.477   4.442  1.0049  1.0164  0.8786
22724SOL    HW269274   3.492   5.495   4.318  0.2416  0.8490  0.3282
22725SOL     OW69275   0.303   4.311   0.724 -0.8835 -0.6069  0.6964
22725SOL    HW169276   0.241   4.313   0.797 -2.6980 -0.9135 -0.7873
22725SOL    HW269277   0.258   4.264   0.655  1.0424 -0.8834 -0.4389
22726SOL     OW69278   4.872   2.094   7.577  1.1335  0.3627  0.1939
22726SOL    HW169279   4.905   2.129   7.494 -1.0859  1.1704 -0.4144
22726SOL    HW269280   4.915   2.147   7.644  2.2692  0.2939 -0.4546
22727SOL     OW69281   3.578   5.749   3.244 -0.0158 -0.0433  0.2366
22727SOL    HW169282   3.636   5.731   3.318 -0.0920 -1.0344  0.0660
22727SOL    HW269283   3.550   5.663   3.214  1.2907  0.2173 -1.9608
22728SOL     OW69284   3.159   5.724   0.918 -0.5769  0.0405 -0.0706
22728SOL    HW169285   3.195   5.800   0.874 -0.7832  0.1300 -0.0861
22728SOL    HW269286   3.133   5.665   0.847  0.2775 -0.3752 -0.0528
22729SOL     OW69287   4.180   7.474   3.343 -0.3234 -0.6202  0.1967
22729SOL    HW169288   4.088   7.491   3.363  0.0685  0.7590  0.9847
22729SOL    HW269289   4.207   7.408   3.407 -0.7280 -0.9281  0.0506
22730SOL     OW69290   8.185   1.874   2.935  0.0149 -0.5358 -0.2057
22730SOL    HW169291   8.277   1.872   2.960  0.1165  1.3879 -0.2491
22730SOL    HW269292   8.185   1.849   2.842  0.2142 -2.5843  0.2950
22731SOL     OW69293   0.036   0.998   6.976  0.0843 -0.6091 -0.5142
22731SOL    HW169294   0.041   1.078   7.028 -1.8220 -0.6267 -0.2299
22731SOL    HW269295   0.064   0.928   7.035 -1.5846 -0.5647  0.3984
22732SOL     OW69296   7.291   2.148   6.803 -0.0583  0.0448 -0.8268
22732SOL    HW169297   7.350   2.116   6.871  0.4968 -1.1748 -1.8505
22732SOL    HW269298   7.296   2.082   6.734 -1.1469  0.9019 -1.7565
22733SOL     OW69299   1.170   4.591   7.472  0.1321  0.2550 -0.5386
22733SOL    HW169300   1.088   4.568   7.516  0.2016  0.0341 -0.5261
22733SOL    HW269301   1.235   4.533   7.510 -0.1243 -1.2001 -2.1744
22734SOL     OW69302   1.569   6.032   7.216 -0.1945 -0.5917  0.7173
22734SOL    HW169303   1.574   6.113   7.268  0.8744  1.5947 -2.4394
22734SOL    HW269304   1.495   6.046   7.157  0.9086 -1.2203 -0.8830
22735SOL     OW69305   7.165   0.589   8.935 -0.0496 -0.1930 -0.2032
22735SOL    HW169306   7.242   0.639   8.906  0.4558 -0.4147  0.7108
22735SOL    HW269307   7.133   0.637   9.012 -0.1973 -0.6742  0.0433
22736SOL     OW69308   5.751   7.342   8.513  0.6855 -0.0657  0.4813
22736SOL    HW169309   5.662   7.374   8.522  1.0227  1.3930 -0.8108
22736SOL    HW269310   5.742   7.249   8.491 -0.4633 -0.1603  1.2950
22737SOL     OW69311   2.410   5.061   1.271 -0.2080  0.3433  0.1621
22737SOL    HW169312   2.355   5.131   1.236 -1.2538 -0.6520 -0.2937
22737SOL    HW269313   2.481   5.105   1.316 -1.4250  1.6979  0.8340
22738SOL     OW69314   2.561   1.393   6.019 -0.1288  0.6236  0.0781
22738SOL    HW169315   2.553   1.393   6.114  0.8493 -1.5480  0.2315
22738SOL    HW269316   2.476   1.422   5.987 -0.6921  0.7134  1.6042
22739SOL     OW69317   6.124   2.739   4.423  0.1477  0.2811 -0.4203
22739SOL    HW169318   6.032   2.717   4.404 -0.5359  2.1835  0.4801
22739SOL    HW269319   6.174   2.679   4.367 -1.6311 -0.5707 -1.2018
22740SOL     OW69320   1.191   0.367   3.788  0.1335  1.1130  0.2584
22740SOL    HW169321   1.132   0.382   3.862 -1.8086 -0.5851 -0.8411
22740SOL    HW269322   1.238   0.287   3.812  1.2180  1.8504  0.6412
22741SOL     OW69323   5.004   7.278   7.884 -0.3395  0.4011  0.1483
22741SOL    HW169324   5.023   7.367   7.856 -2.8042  1.6707  2.0846
22741SOL    HW269325   5.037   7.274   7.974 -0.5255 -0.5402  0.1835
22742SOL     OW69326   2.209   4.472   0.860 -0.1084 -0.0713  0.1323
22742SOL    HW169327   2.266   4.497   0.934 -1.4302 -0.0804  1.1987
22742SOL    HW269328   2.145   4.543   0.855 -0.0159 -0.0620 -1.0421
22743SOL     OW69329   3.944   5.785   6.285 -0.5074  0.2892 -0.1485
22743SOL    HW169330   3.967   5.829   6.367 -1.9843 -1.2447  1.1704
22743SOL    HW269331   3.955   5.853   6.218  1.0175  1.5224  1.2379
22744SOL     OW69332   5.320   2.909   7.566  0.1214  0.1205 -0.2767
22744SOL    HW169333   5.365   2.843   7.513  2.8931 -0.6594  2.6798
22744SOL    HW269334   5.248   2.861   7.607  1.2313 -0.7835  0.7073
22745SOL     OW69335   1.924   8.680   6.524 -0.0744 -0.4308 -0.0533
22745SOL    HW169336   2.012   8.709   6.549 -0.5524  1.6440 -0.5763
22745SOL    HW269337   1.939   8.614   6.456  1.1136  1.3903 -1.6746
22746SOL     OW69338   8.173   7.977   4.912  0.0945 -0.0149  0.6758
22746SOL    HW169339   8.266   7.994   4.926 -0.1098  0.7544  1.1566
22746SOL    HW269340   8.148   7.920   4.984  0.5289 -1.5348 -0.3234
22747SOL     OW69341   6.988   5.933   0.772  0.1044  0.6034 -0.0464
22747SOL    HW169342   7.047   5.992   0.819  0.6808  0.0712 -0.0849
22747SOL    HW269343   6.901   5.971   0.785  0.5395  1.9288 -0.7531
22748SOL     OW69344   7.088   7.558   3.647 -0.3031  0.1859  0.1171
22748SOL    HW169345   7.136   7.487   3.691  0.8403  0.5146 -0.5452
22748SOL    HW269346   7.100   7.634   3.704 -1.1349 -0.0350  0.5938
22749SOL     OW69347   2.660   0.107   6.675  0.1182  0.7458 -0.0046
22749SOL    HW169348   2.702   0.024   6.699 -1.2720  0.2255  0.7741
22749SOL    HW269349   2.673   0.114   6.581 -1.6068 -1.5340 -0.5067
22750SOL     OW69350   8.817   6.686   2.147  0.0547 -0.0531  0.1035
22750SOL    HW169351   8.841   6.660   2.058 -0.9226  0.8381 -0.4350
22750SOL    HW269352   8.819   6.604   2.197 -1.9723 -1.0622 -1.3372
22751SOL     OW69353   1.193   4.819   1.932  0.6532  0.0279  0.0441
22751SOL    HW169354   1.231   4.732   1.940  2.3916  0.8183  0.9006
22751SOL    HW269355   1.220   4.850   1.846 -0.5755 -0.5153 -0.5673
22752SOL     OW69356   6.050   1.449   6.918 -0.0398 -0.0101 -0.5688
22752SOL    HW169357   6.109   1.424   6.989  1.2153 -0.0806 -1.6080
22752SOL    HW269358   5.969   1.401   6.937  0.4610 -0.4763  0.4913
22753SOL     OW69359   6.952   5.460   5.953  0.2872 -0.3764 -0.1794
22753SOL    HW169360   7.044   5.437   5.938  0.0546 -1.9257  0.4753
22753SOL    HW269361   6.903   5.384   5.921 -0.6118 -0.5268  1.4475
22754SOL     OW69362   0.100   5.710   1.798 -0.0184  0.3238 -0.0350
22754SOL    HW169363   0.192   5.713   1.770 -0.1836  3.9110 -0.7200
22754SOL    HW269364   0.077   5.617   1.796  2.7802 -0.4853 -2.5316
22755SOL     OW69365   0.925   1.877   3.067  0.0591 -0.1132  0.6518
22755SOL    HW169366   0.917   1.790   3.107 -0.1404 -0.2281  0.3700
22755SOL    HW269367   0.858   1.877   2.998  0.8525 -0.1779 -0.1441
22756SOL     OW69368   6.000   7.683   0.702 -0.1540  0.1941  0.3382
22756SOL    HW169369   5.907   7.663   0.705  0.0342 -1.0288 -0.9648
22756SOL    HW269370   6.005   7.778   0.702 -1.3531  0.2738  1.1290
22757SOL     OW69371   3.276   3.644   4.982  0.6853  0.2121  0.2341
22757SOL    HW169372   3.354   3.598   5.012  1.0742  0.1299 -0.8487
22757SOL    HW269373   3.309   3.728   4.948  0.6240 -0.6299 -2.1088
22758SOL     OW69374   5.362   2.520   0.552 -0.0101 -0.3461 -0.6224
22758SOL    HW169375   5.446   2.500   0.511 -1.3486 -1.6573 -2.9381
22758SOL    HW269376   5.328   2.595   0.503 -0.2194  0.1813  0.2976
22759SOL     OW69377   1.825   1.083   7.612 -0.3650 -0.8742  0.7829
22759SOL    HW169378   1.740   1.043   7.627 -0.6195 -0.4025  0.6217
22759SOL    HW269379   1.886   1.009   7.604 -0.8912 -1.2420  0.0784
22760SOL     OW69380   3.910   6.446   1.233 -0.2805 -0.0053  0.1336
22760SOL    HW169381   3.885   6.447   1.325 -1.1565  2.2987 -0.0439
22760SOL    HW269382   3.972   6.519   1.224 -1.3113  0.7604 -1.3165
22761SOL     OW69383   7.789   0.268   3.718  0.2461  0.2055  0.0228
22761SOL    HW169384   7.786   0.224   3.803  0.7821  4.0110  2.2783
22761SOL    HW269385   7.873   0.243   3.681 -0.8516 -3.1718 -0.5424
22762SOL     OW69386   6.424   1.083   8.892  0.5135 -0.0530  0.1774
22762SOL    HW169387   6.419   1.168   8.937  2.1400  0.4168 -0.4625
22762SOL    HW269388   6.484   1.098   8.819 -0.5440 -1.3233 -0.9972
22763SOL     OW69389   0.401   3.844   0.343 -0.3852 -0.5959  0.2462
22763SOL    HW169390   0.470   3.781   0.366  0.1445  0.6874  2.4174
22763SOL    HW269391   0.441   3.900   0.276  0.7654  0.1859  1.5378
22764SOL     OW69392   4.701   7.081   1.931  0.0327 -0.3294  0.1165
22764SOL    HW169393   4.708   7.104   1.839  3.2420  0.3045  0.4238
22764SOL    HW269394   4.775   7.023   1.948 -1.1753 -1.4448  2.0831
22765SOL     OW69395   8.470   4.719   0.148 -0.4037  0.1740 -0.8589
22765SOL    HW169396   8.447   4.642   0.097 -2.8371 -0.0936  0.4535
22765SOL    HW269397   8.446   4.696   0.238 -0.0704  2.0339 -0.2383
22766SOL     OW69398   5.347   8.665   6.257  0.2236  0.4944  0.1762
22766SOL    HW169399   5.439   8.670   6.232  0.0692  0.8094 -0.3590
22766SOL    HW269400   5.309   8.600   6.196  0.1287  0.2405  0.5044
22767SOL     OW69401   4.116   7.207   8.633 -0.7415  0.1511  0.4541
22767SOL    HW169402   4.190   7.268   8.623 -0.0447 -0.4223  1.7610
22767SOL    HW269403   4.039   7.263   8.639 -0.4711  0.7522 -1.2223
22768SOL     OW69404   3.404   7.074   4.950  0.5984  0.7910 -0.5342
22768SOL    HW169405   3.452   6.992   4.948  0.4984  0.7398 -1.3176
22768SOL    HW269406   3.456   7.134   4.896  0.3813  1.0716 -0.4344
22769SOL     OW69407   1.749   4.206   9.019  0.1672 -0.8009 -0.2156
22769SOL    HW169408   1.806   4.130   9.005  1.8580  0.4778 -0.5802
22769SOL    HW269409   1.725   4.234   8.931  2.7875  1.3730 -0.3688
22770SOL     OW69410   4.477   7.892   0.608  0.2701 -0.1106  0.3252
22770SOL    HW169411   4.459   7.847   0.691  0.0169  0.0802  0.3753
22770SOL    HW269412   4.491   7.983   0.634  0.1371 -0.0415  0.1526
22771SOL     OW69413   1.731   2.517   5.953  0.3835 -0.2444  0.3084
22771SOL    HW169414   1.759   2.425   5.954 -2.1442 -1.1803 -1.6384
22771SOL    HW269415   1.757   2.549   5.867  0.1565  0.4657  0.5015
22772SOL     OW69416   6.875   0.541   1.841 -0.2743  0.5150 -0.0554
22772SOL    HW169417   6.882   0.507   1.751  0.2574  1.6770 -0.4825
22772SOL    HW269418   6.800   0.495   1.878  0.0988 -0.7206 -0.7617
22773SOL     OW69419   4.009   1.450   9.073 -0.2954  0.2060 -0.3569
22773SOL    HW169420   4.063   1.450   9.152 -1.5276 -0.6570  0.5308
22773SOL    HW269421   4.032   1.531   9.028  0.3499  0.7793  0.9556
22774SOL     OW69422   1.815   6.458   5.596 -0.1292  0.3757  0.3186
22774SOL    HW169423   1.744   6.399   5.572  0.6320 -0.4374  0.0551
22774SOL    HW269424   1.794   6.483   5.686  0.1657 -1.2505  0.8738
22775SOL     OW69425   3.595   4.398   3.886  0.5706  0.5067 -0.1085
22775SOL    HW169426   3.512   4.439   3.910 -0.0517 -0.8843  0.1987
22775SOL    HW269427   3.605   4.416   3.793  0.7066  1.9930  0.1717
22776SOL     OW69428   1.642   5.394   4.344 -0.1021 -0.5143  0.1626
22776SOL    HW169429   1.699   5.415   4.417  0.7196 -1.1171 -0.2826
22776SOL    HW269430   1.684   5.434   4.268 -0.1223 -1.1689 -0.2078
22777SOL     OW69431   2.308   8.774   1.690 -0.3401  0.3086  0.0064
22777SOL    HW169432   2.375   8.769   1.758 -0.8816 -1.6880  0.4457
22777SOL    HW269433   2.239   8.828   1.727  1.2706  3.0861 -0.7488
22778SOL     OW69434   3.108   7.908   1.255 -0.3282  0.4630  0.0636
22778SOL    HW169435   3.078   7.959   1.331 -0.2810  1.2476 -0.4273
22778SOL    HW269436   3.028   7.865   1.223 -0.3581  0.1748  0.5261
22779SOL     OW69437   6.191   8.169   3.996  0.2841 -0.6070  0.2117
22779SOL    HW169438   6.166   8.097   3.938 -0.3136  0.2221 -0.6063
22779SOL    HW269439   6.109   8.194   4.040  0.6839 -1.0625  1.2314
22780SOL     OW69440   4.302   3.683   6.603 -0.4559 -0.2324 -0.2346
22780SOL    HW169441   4.327   3.757   6.659  0.4346 -1.8628  1.6715
22780SOL    HW269442   4.383   3.657   6.560 -0.7033 -0.3034 -0.6633
22781SOL     OW69443   2.685   3.612   6.572  0.1234 -0.5047 -0.7013
22781SOL    HW169444   2.708   3.671   6.500  0.8226  2.8666  2.0375
22781SOL    HW269445   2.590   3.621   6.580  0.4041  2.2876  1.0640
22782SOL     OW69446   2.784   0.001   0.610  0.5417  0.4255  0.0238
22782SOL    HW169447   2.746  -0.053   0.679  1.3846 -0.0636  0.1308
22782SOL    HW269448   2.710   0.044   0.568 -0.0737 -0.1655  0.4924
22783SOL     OW69449   4.733   3.984   8.807  0.7509  0.1248 -0.3629
22783SOL    HW169450   4.716   3.979   8.713 -0.6911  1.7619 -0.2335
22783SOL    HW269451   4.771   3.899   8.829  1.6341 -0.1036 -2.5058
22784SOL     OW69452   1.905   5.910   8.514 -0.4074  0.2187 -0.0134
22784SOL    HW169453   1.970   5.912   8.444  0.2929 -0.5874  0.5967
22784SOL    HW269454   1.833   5.859   8.478 -0.1428 -0.0122 -0.2227
22785SOL     OW69455   4.462   3.686   6.369  0.2317  0.4632 -0.2255
22785SOL    HW169456   4.425   3.703   6.282  1.1699  0.7218 -0.5843
22785SOL    HW269457   4.443   3.764   6.419 -0.5462  0.2082 -0.1116
22786SOL     OW69458   0.010   4.206   1.722  0.0830  0.5387  0.0470
22786SOL    HW169459   0.104   4.194   1.735 -0.0865  0.8758  1.8486
22786SOL    HW269460  -0.007   4.296   1.750 -0.4707  1.2591 -2.3407
22787SOL     OW69461   0.949   1.185   5.414  0.4609 -0.5808 -0.0777
22787SOL    HW169462   1.010   1.141   5.356  0.2995 -0.5256 -0.2923
22787SOL    HW269463   0.862   1.161   5.380  0.3018 -2.1510  1.2946
22788SOL     OW69464   4.830   8.773   5.187  0.8928 -0.8035 -0.1107
22788SOL    HW169465   4.876   8.743   5.266  2.1367  0.3558 -0.3617
22788SOL    HW269466   4.741   8.739   5.196  1.3614 -1.7451  1.1810
22789SOL     OW69467   0.237   7.285   2.754  0.3910 -0.1541  0.0684
22789SOL    HW169468   0.208   7.288   2.662 -0.2757 -1.5953  0.2019
22789SOL    HW269469   0.319   7.237   2.752  0.6131  0.2138  0.1891
22790SOL     OW69470   1.051   5.723   2.775 -0.0581 -0.5964 -0.0573
22790SOL    HW169471   0.989   5.684   2.836  0.7613 -1.4325  0.2635
22790SOL    HW269472   1.113   5.771   2.830  1.0170 -1.8214 -0.1467
22791SOL     OW69473   0.196   4.453   6.442 -0.5290  0.2001 -0.0984
22791SOL    HW169474   0.246   4.417   6.368  1.8557 -2.4955  2.5303
22791SOL    HW269475   0.105   4.427   6.424  0.2501 -2.0339 -1.2701
22792SOL     OW69476   6.488   5.600   7.138  0.1353  0.2691 -0.7024
22792SOL    HW169477   6.547   5.671   7.111  0.0848  0.5785 -0.0112
22792SOL    HW269478   6.423   5.595   7.067  0.7303  0.2226 -1.2536
22793SOL     OW69479   6.510   5.073   0.033 -0.1966  0.2557 -0.5913
22793SOL    HW169480   6.522   5.157  -0.012  2.9363 -0.9871 -2.4202
22793SOL    HW269481   6.464   5.018  -0.031 -3.9106  0.8682  1.2419
22794SOL     OW69482   5.271   1.289   2.711 -0.1789 -0.2907 -0.3458
22794SOL    HW169483   5.204   1.334   2.762 -0.5920 -1.6109  0.3225
22794SOL    HW269484   5.225   1.215   2.671  0.3172  0.2631 -2.0224
22795SOL     OW69485   7.732   5.109   4.603 -0.3975  0.4535  0.1546
22795SOL    HW169486   7.708   5.191   4.645 -1.6732 -0.0047  0.3552
22795SOL    HW269487   7.813   5.082   4.648 -0.3267  1.2682  0.5282
22796SOL     OW69488   8.498   4.105   2.938 -0.2550 -0.1801 -0.5222
22796SOL    HW169489   8.503   4.145   2.852 -0.7205  1.8704  0.3400
22796SOL    HW269490   8.416   4.138   2.975  1.1147  1.0498  1.6297
22797SOL     OW69491   1.386   3.531   8.042  0.0398 -0.7255  0.3306
22797SOL    HW169492   1.457   3.586   8.075  0.6541 -1.1905 -0.2004
22797SOL    HW269493   1.307   3.584   8.055  0.4934 -0.1427  0.7822
22798SOL     OW69494   8.930   3.165   8.994  0.2597 -0.2212 -0.2481
22798SOL    HW169495   8.891   3.170   8.907  1.0206 -0.8936 -0.6390
22798SOL    HW269496   8.948   3.072   9.007  0.0501 -0.1426  0.6788
22799SOL     OW69497   7.583   1.784   2.871  0.3375 -0.1689  0.5621
22799SOL    HW169498   7.591   1.879   2.879 -0.4573 -0.0677  0.1625
22799SOL    HW269499   7.564   1.768   2.779  2.4675 -0.8717  0.1849
22800SOL     OW69500   7.460   2.636   0.505  0.5185 -0.1711  0.6239
22800SOL    HW169501   7.389   2.647   0.441  0.7495  2.8082  0.7346
22800SOL    HW269502   7.432   2.562   0.559 -2.0143  0.2511  0.0268
22801SOL     OW69503   8.212   8.034   8.140 -0.2016 -0.1345  0.1850
22801SOL    HW169504   8.266   7.973   8.191 -0.2623 -0.2988  0.0543
22801SOL    HW269505   8.166   7.978   8.077 -0.1009  0.0715 -0.0715
22802SOL     OW69506   8.078   7.775   5.830  0.0995 -0.1966 -0.3646
22802SOL    HW169507   8.111   7.849   5.779  1.1306  0.4720  1.2407
22802SOL    HW269508   7.984   7.793   5.840 -0.5186 -1.1635 -3.3336
22803SOL     OW69509   6.290   5.332   6.092 -0.3303 -0.0199 -0.0013
22803SOL    HW169510   6.331   5.278   6.159  1.4361  1.1716 -0.0785
22803SOL    HW269511   6.244   5.400   6.140 -0.4122 -0.1014  0.0351
22804SOL     OW69512   5.282   7.409   7.032 -0.1234  0.4320 -0.0088
22804SOL    HW169513   5.218   7.341   7.049  0.5153 -0.9244 -2.5540
22804SOL    HW269514   5.241   7.465   6.966  0.4179  0.9022  0.0414
22805SOL     OW69515   8.958   5.176   6.830  0.6059 -0.5378 -0.1132
22805SOL    HW169516   8.870   5.148   6.805  0.7457 -0.5345 -0.6303
22805SOL    HW269517   8.954   5.188   6.925 -0.1736  0.2693 -0.2407
22806SOL     OW69518   8.354   8.106   7.483 -0.1263 -0.4309 -0.0493
22806SOL    HW169519   8.414   8.033   7.500  0.2247 -0.7275 -2.2220
22806SOL    HW269520   8.269   8.076   7.514 -0.1951 -2.2326 -1.7775
22807SOL     OW69521   8.052   4.760   8.228  0.5160  0.1114 -0.1682
22807SOL    HW169522   8.044   4.801   8.141 -0.0604  1.2470  0.3944
22807SOL    HW269523   7.990   4.808   8.282  0.7801 -0.6749  0.8458
22808SOL     OW69524   1.185   7.275   4.747 -0.1989  0.2935  0.7773
22808SOL    HW169525   1.127   7.317   4.683  0.0122 -0.0617  0.3440
22808SOL    HW269526   1.256   7.238   4.694  0.1776  0.3199  1.2583
22809SOL     OW69527   1.920   5.469   4.967 -1.2135  1.0646  0.2155
22809SOL    HW169528   1.892   5.429   5.050 -1.6920 -0.1022 -0.4778
22809SOL    HW269529   1.841   5.466   4.912 -0.3990 -0.0692 -0.9608
22810SOL     OW69530   2.713   8.714   6.259  0.0176 -0.2740  0.1231
22810SOL    HW169531   2.723   8.769   6.181 -0.2784 -0.6854 -0.2068
22810SOL    HW269532   2.750   8.630   6.234 -1.3623 -0.8476 -0.0524
22811SOL     OW69533   5.986   2.382   5.202 -0.0986  0.1674 -0.2034
22811SOL    HW169534   6.054   2.361   5.266 -1.5288 -1.7943  0.7668
22811SOL    HW269535   5.918   2.427   5.253 -0.2999  0.5582 -0.8037
22812SOL     OW69536   3.420   6.111   9.051  0.1176 -0.1180 -0.3502
22812SOL    HW169537   3.454   6.028   9.085  0.3629 -0.3763 -1.2055
22812SOL    HW269538   3.495   6.150   9.005 -0.0144  0.5540 -0.0105
22813SOL     OW69539   1.631   3.156   7.223  0.0341  0.0171 -0.2858
22813SOL    HW169540   1.627   3.086   7.158 -1.1566  0.0656 -0.2968
22813SOL    HW269541   1.560   3.135   7.284  0.5627  0.4622  0.4922
22814SOL     OW69542   6.608   4.401   6.334 -0.8156 -0.1930 -0.1477
22814SOL    HW169543   6.564   4.408   6.419  1.1928 -2.3630  1.2205
22814SOL    HW269544   6.572   4.322   6.294 -1.9125  0.9405 -1.4771
22815SOL     OW69545   3.529   8.657   4.771  0.2298  0.2193 -0.3497
22815SOL    HW169546   3.624   8.661   4.784  0.0637  0.8052  0.7865
22815SOL    HW269547   3.509   8.564   4.771  0.6194  0.1249  0.8669
22816SOL     OW69548   5.745   7.383   2.033  0.6648  0.7122 -0.0713
22816SOL    HW169549   5.800   7.460   2.021  0.7389  0.3545 -2.6862
22816SOL    HW269550   5.787   7.333   2.102  1.8747  1.9439  0.1064
22817SOL     OW69551   8.293   4.673   8.191  0.0879  0.6072 -0.0914
22817SOL    HW169552   8.284   4.578   8.183 -0.8136  0.6587  0.2044
22817SOL    HW269553   8.207   4.703   8.221  0.4021  1.5034 -0.0527
22818SOL     OW69554   4.113   4.717   1.223 -0.2558  0.0813 -0.0020
22818SOL    HW169555   4.114   4.646   1.158  2.0118  1.0716 -1.1539
22818SOL    HW269556   4.170   4.686   1.293  0.1116  0.4371 -0.1412
22819SOL     OW69557   3.791   3.063   4.381 -0.7944  0.3538  0.4804
22819SOL    HW169558   3.761   3.063   4.290 -1.4277 -1.1495  0.6653
22819SOL    HW269559   3.846   3.141   4.388  0.0577 -0.0230 -1.4389
22820SOL     OW69560   5.959   2.286   1.072  0.6757  0.1537 -0.2047
22820SOL    HW169561   5.876   2.253   1.108  0.4808 -0.3896 -1.1238
22820SOL    HW269562   5.987   2.219   1.010  1.2975  0.7959 -0.6335
22821SOL     OW69563   2.647   7.772   3.419  0.3703  0.0812  0.0897
22821SOL    HW169564   2.580   7.834   3.446  1.1418  0.7726  0.4645
22821SOL    HW269565   2.721   7.827   3.391  1.3856 -0.6422  1.2338
22822SOL     OW69566   1.980   2.049   6.043  0.0077 -0.0709  0.2732
22822SOL    HW169567   1.891   2.039   6.075 -0.3267  1.5563 -0.0628
22822SOL    HW269568   1.980   2.008   5.957 -0.5084  0.1701  0.1555
22823SOL     OW69569   1.521   8.094   5.135 -0.0927 -0.1150  0.3079
22823SOL    HW169570   1.518   8.017   5.191  0.3462  1.5320  2.7691
22823SOL    HW269571   1.550   8.061   5.050  2.4115 -2.3690  1.8563
22824SOL     OW69572   1.987   5.258   7.747 -0.3311 -0.2163 -0.1174
22824SOL    HW169573   1.926   5.212   7.689 -0.1638 -0.8032  0.1648
22824SOL    HW269574   1.980   5.350   7.721  0.6172 -0.5941 -1.9028
22825SOL     OW69575   4.736   7.702   7.033  0.6079  0.1152  0.0073
22825SOL    HW169576   4.674   7.726   7.102  1.6082  0.2069  0.9190
22825SOL    HW269577   4.768   7.615   7.059 -0.6922 -0.8899 -1.5979
22826SOL     OW69578   4.353   8.465   8.262 -0.2264  0.0376 -0.1217
22826SOL    HW169579   4.394   8.480   8.177 -0.9735 -1.8523 -0.8687
22826SOL    HW269580   4.264   8.498   8.251 -0.7486 -1.4557 -0.5657
22827SOL     OW69581   5.834   5.581   3.068 -0.6045  0.4759  0.0270
22827SOL    HW169582   5.741   5.557   3.064 -0.4300 -0.2731  0.2138
22827SOL    HW269583   5.835   5.676   3.062 -1.5927  0.7917  3.0485
22828SOL     OW69584   5.726   7.311   6.023 -0.1469  0.9343  0.2097
22828SOL    HW169585   5.811   7.290   6.061  0.2651  1.6704 -0.2787
22828SOL    HW269586   5.732   7.280   5.932  0.1559  2.2987 -0.2608
22829SOL     OW69587   0.198   7.685   6.387  0.0268  0.2536  0.0085
22829SOL    HW169588   0.135   7.628   6.343  0.4970 -0.2804  0.0295
22829SOL    HW269589   0.251   7.722   6.316 -0.7848  1.3116 -0.0861
22830SOL     OW69590   8.920   8.168   5.649  0.1497 -0.0019 -0.6331
22830SOL    HW169591   8.947   8.082   5.681 -0.2805  0.1632  0.2078
22830SOL    HW269592   8.835   8.152   5.607 -0.1838  0.0873 -0.0106
22831SOL     OW69593   6.251   7.844   7.206  0.1782 -0.4958  0.2010
22831SOL    HW169594   6.256   7.936   7.182  0.1163 -0.1258  1.5336
22831SOL    HW269595   6.197   7.804   7.138 -0.3025  0.5730 -0.0622
22832SOL     OW69596   0.899   2.472   1.960  0.0154 -0.0736  0.0407
22832SOL    HW169597   0.837   2.424   2.015 -1.3208  0.6468 -0.7526
22832SOL    HW269598   0.891   2.563   1.990 -0.1612  0.2005 -0.8092
22833SOL     OW69599   8.193   5.686   0.127  0.7554 -0.0066  0.5559
22833SOL    HW169600   8.103   5.702   0.097  1.2937  2.1041 -0.0863
22833SOL    HW269601   8.192   5.595   0.156 -1.6603  0.0383  0.8396
22834SOL     OW69602   3.729   7.796   7.738  0.0090 -0.2687  0.3817
22834SOL    HW169603   3.758   7.706   7.727 -0.5318 -0.5598  1.2326
22834SOL    HW269604   3.649   7.789   7.792 -0.3048  0.6743  0.0593
22835SOL     OW69605   8.810   7.461   1.151  0.3511 -0.0877 -0.3580
22835SOL    HW169606   8.866   7.493   1.222  0.1840  0.0724 -0.2953
22835SOL    HW269607   8.727   7.507   1.165  0.7577  1.0477 -1.5094
22836SOL     OW69608   3.017   7.615   6.521 -0.1581  0.1214  0.1825
22836SOL    HW169609   2.944   7.640   6.578  2.0339  3.6988  1.7260
22836SOL    HW269610   3.002   7.664   6.440  0.3929  0.7328  0.4407
22837SOL     OW69611   6.792   5.074   8.313 -0.1757  0.2930 -0.3091
22837SOL    HW169612   6.865   5.014   8.329 -0.1582  0.2640 -0.4940
22837SOL    HW269613   6.821   5.129   8.240 -0.8188 -0.5554 -1.2380
22838SOL     OW69614   8.396   3.140   3.836  0.3612  0.9352 -0.3969
22838SOL    HW169615   8.334   3.101   3.775 -0.4272 -0.2283  1.0619
22838SOL    HW269616   8.467   3.076   3.843  0.6723  1.2722 -0.4380
22839SOL     OW69617   5.016   6.510   8.086  0.3197 -0.2751  0.2998
22839SOL    HW169618   4.954   6.583   8.085 -0.1928 -0.6319  1.8361
22839SOL    HW269619   5.059   6.513   8.001 -0.0579  1.4904  0.1320
22840SOL     OW69620   2.378   2.253   3.169  0.3167 -0.0605  0.0559
22840SOL    HW169621   2.442   2.257   3.098 -1.8650  2.1007 -1.9539
22840SOL    HW269622   2.367   2.344   3.197 -0.3456 -0.6410  1.8302
22841SOL     OW69623   8.995   5.235   8.122 -0.6022 -0.1418 -0.0004
22841SOL    HW169624   8.986   5.275   8.035 -0.6193  0.6141  0.3382
22841SOL    HW269625   8.907   5.204   8.143 -0.8994  0.8648  0.2997
22842SOL     OW69626   5.034   0.781   5.466  0.0764  0.2565 -0.0605
22842SOL    HW169627   5.053   0.731   5.387  0.8039 -1.5237  1.1587
22842SOL    HW269628   4.982   0.855   5.436 -0.3821 -0.8017 -2.0847
22843SOL     OW69629   8.687   4.953   3.035 -0.2235 -0.0522  0.1400
22843SOL    HW169630   8.610   4.958   2.978  0.3020  0.2798 -0.5527
22843SOL    HW269631   8.652   4.927   3.120 -1.0671 -0.1777 -0.2373
22844SOL     OW69632   7.870   5.382   8.417  0.0464  0.1528 -0.1777
22844SOL    HW169633   7.794   5.435   8.392  0.3131  0.3302 -0.6152
22844SOL    HW269634   7.898   5.340   8.335 -0.9214 -1.6655  0.3551
22845SOL     OW69635   1.011   2.091   7.922  0.3483 -0.1829  0.1564
22845SOL    HW169636   1.094   2.054   7.951  0.2691 -1.5964 -1.2570
22845SOL    HW269637   0.950   2.017   7.923 -0.6035  0.5825  0.0939
22846SOL     OW69638   6.580   5.718   1.194 -0.1940 -0.9012  0.2503
22846SOL    HW169639   6.674   5.732   1.207 -0.4550  0.2539  0.9429
22846SOL    HW269640   6.575   5.636   1.143  1.2168 -0.5171 -0.5472
22847SOL     OW69641   7.365   7.028   3.070  0.6230  0.4858 -0.4562
22847SOL    HW169642   7.274   7.034   3.098  0.7795  2.0921 -0.2026
22847SOL    HW269643   7.390   7.118   3.051  2.3505  0.1611  0.1152
22848SOL     OW69644   5.134   3.876   5.370  0.5289  0.1668  0.3240
22848SOL    HW169645   5.046   3.870   5.406  0.0659  1.2373 -0.5769
22848SOL    HW269646   5.164   3.785   5.365  0.1224 -0.1003  2.1585
22849SOL     OW69647   4.937   0.531   5.526  0.2408  0.3908 -0.3139
22849SOL    HW169648   5.007   0.595   5.515 -1.1825  2.6102  2.2646
22849SOL    HW269649   4.964   0.480   5.603 -0.4931  0.6659  0.1398
22850SOL     OW69650   6.681   3.429   4.100  0.4223 -0.2627 -0.2545
22850SOL    HW169651   6.768   3.410   4.135 -0.1394 -0.7007  0.9380
22850SOL    HW269652   6.621   3.378   4.154 -0.9154  2.6316  1.2064
22851SOL     OW69653   6.740   1.819   4.011 -0.1859  0.7997 -0.0091
22851SOL    HW169654   6.713   1.873   4.085 -0.8195  0.9911 -0.3781
22851SOL    HW269655   6.737   1.729   4.045 -0.3741  0.8961  0.2288
22852SOL     OW69656   7.849   5.537   6.606  0.2266 -0.0653  0.3930
22852SOL    HW169657   7.815   5.616   6.649 -1.6385 -0.8843  0.5376
22852SOL    HW269658   7.927   5.567   6.559  0.9469  1.3476  2.3580
22853SOL     OW69659   9.128   0.533   8.928  0.1611  0.0145  0.0906
22853SOL    HW169660   9.164   0.550   9.015  1.5753  0.9836 -0.6407
22853SOL    HW269661   9.205   0.513   8.874 -0.4661  1.2847 -1.3468
22854SOL     OW69662   3.327   3.151   2.144  0.3009  0.1253  0.1278
22854SOL    HW169663   3.313   3.214   2.073 -1.8248 -0.5381 -0.1262
22854SOL    HW269664   3.368   3.076   2.101  0.8169  0.4878 -0.0122
22855SOL     OW69665   2.565   0.374   6.200 -0.0422 -0.1497 -0.3762
22855SOL    HW169666   2.488   0.354   6.254  0.9485  1.9760  2.0276
22855SOL    HW269667   2.639   0.337   6.249  0.8007  1.0545 -0.7011
22856SOL     OW69668   0.884   0.042   7.263  0.3525  0.4366  0.1695
22856SOL    HW169669   0.899   0.059   7.356  1.2508 -0.4819  0.2208
22856SOL    HW269670   0.963   0.075   7.221 -0.4719  1.7454 -0.3999
22857SOL     OW69671   5.254   3.676   6.543  0.3452 -0.3724  0.0259
22857SOL    HW169672   5.296   3.759   6.522  0.1290 -0.4708 -0.8367
22857SOL    HW269673   5.325   3.611   6.535  0.6313 -0.2266  1.1895
22858SOL     OW69674   3.961   6.790   8.955 -0.4881 -0.5415 -0.5502
22858SOL    HW169675   3.911   6.766   9.032 -0.1921 -1.8249 -0.7328
22858SOL    HW269676   3.951   6.885   8.948  0.3780 -0.2244  1.6939
22859SOL     OW69677   7.958   6.895   5.985 -0.2411  0.5189 -0.3435
22859SOL    HW169678   8.038   6.944   6.004  1.3376 -1.7405 -0.8364
22859SOL    HW269679   7.954   6.828   6.053 -0.8519 -0.3964 -1.2637
22860SOL     OW69680   1.586   5.421   1.542 -0.8411  0.3461 -0.4275
22860SOL    HW169681   1.493   5.434   1.562 -0.8716 -2.5472  2.0927
22860SOL    HW269682   1.632   5.466   1.613 -0.4051 -0.2113 -0.3562
22861SOL     OW69683   7.803   7.405   1.800 -0.2510 -0.4004 -0.0743
22861SOL    HW169684   7.866   7.361   1.857  0.0128 -0.9551 -0.7821
22861SOL    HW269685   7.759   7.334   1.754 -0.4701  0.0429 -0.5501
22862SOL     OW69686   3.793   4.389   2.644  0.0032 -0.0789  0.3554
22862SOL    HW169687   3.822   4.300   2.667 -0.5778 -0.1590  0.8152
22862SOL    HW269688   3.819   4.443   2.718 -0.9642 -0.1490  0.7723
22863SOL     OW69689   6.602   7.445   5.891 -0.5054 -0.7555 -0.2014
22863SOL    HW169690   6.579   7.389   5.817 -1.1563 -0.3860 -0.2747
22863SOL    HW269691   6.690   7.478   5.869 -0.0689 -1.8088 -0.1178
22864SOL     OW69692   0.672   7.881   5.079  0.1950 -0.6065 -0.1434
22864SOL    HW169693   0.620   7.802   5.089 -1.6157  0.0359 -3.0401
22864SOL    HW269694   0.620   7.949   5.121 -0.2109 -0.3595 -1.0111
22865SOL     OW69695   8.177   3.428   5.703  0.0776  0.1321  0.1928
22865SOL    HW169696   8.244   3.474   5.653  1.6357 -0.7319  1.4085
22865SOL    HW269697   8.209   3.428   5.793 -1.8886  0.2581  0.9514
22866SOL     OW69698   4.449   8.260   6.467  0.0064  0.7774  0.6563
22866SOL    HW169699   4.527   8.291   6.513 -0.3917  2.2878  0.3560
22866SOL    HW269700   4.401   8.339   6.444 -1.3849 -0.1009  0.4008
22867SOL     OW69701   5.054   1.326   3.129 -0.3803  0.2054 -0.0856
22867SOL    HW169702   5.032   1.234   3.115 -0.0832  0.4294 -2.3481
22867SOL    HW269703   5.008   1.349   3.210 -1.4102 -1.6014 -0.0948
22868SOL     OW69704   8.266   7.482   7.629 -0.7145 -0.0456 -0.0557
22868SOL    HW169705   8.190   7.466   7.573 -0.2944 -1.7625 -0.2105
22868SOL    HW269706   8.321   7.405   7.615  1.0149  1.1118  0.1220
22869SOL     OW69707   6.590   7.286   7.212  0.3413  0.2371 -0.6160
22869SOL    HW169708   6.504   7.256   7.242  0.8700  0.0662  0.8228
22869SOL    HW269709   6.603   7.370   7.256  0.8097  0.3733 -1.0080
22870SOL     OW69710   2.184   8.771   2.583  0.7284  0.0093  0.0668
22870SOL    HW169711   2.111   8.822   2.548  0.2824  1.5784  2.9758
22870SOL    HW269712   2.261   8.826   2.571  0.9496 -0.3605 -0.2714
22871SOL     OW69713   7.145   0.885   8.816 -0.1875 -0.1776 -0.1259
22871SOL    HW169714   7.082   0.869   8.746 -0.2243 -1.2285  0.1287
22871SOL    HW269715   7.092   0.883   8.896  0.0480 -0.2617  0.0275
22872SOL     OW69716   3.121   7.090   8.754  0.3281  0.3827  0.3509
22872SOL    HW169717   3.154   7.158   8.695  1.5515 -0.4188  0.0894
22872SOL    HW269718   3.028   7.112   8.765  0.4359  1.4385 -0.6370
22873SOL     OW69719   7.080   4.546   8.984 -0.5250 -0.2164  0.3467
22873SOL    HW169720   7.136   4.622   9.000 -0.3462 -0.1976 -0.3505
22873SOL    HW269721   6.997   4.583   8.953 -0.3926 -0.3044 -0.1217
22874SOL     OW69722   4.915   3.300   7.905 -0.2149  0.2861 -0.5643
22874SOL    HW169723   4.937   3.310   7.813  2.3443  1.4170  0.0825
22874SOL    HW269724   4.998   3.310   7.951 -1.6469  1.6583  1.9798
22875SOL     OW69725   1.825   8.415   4.578 -0.3340  0.4634  0.1694
22875SOL    HW169726   1.914   8.379   4.574  0.1205  1.2098  2.4445
22875SOL    HW269727   1.785   8.371   4.653 -1.9294  0.1454 -0.8175
22876SOL     OW69728   6.019   4.315   6.531 -0.0402 -0.2370 -0.1202
22876SOL    HW169729   6.016   4.330   6.436  1.8538 -0.3183 -0.2243
22876SOL    HW269730   6.041   4.222   6.539  0.1264 -0.1550  0.3938
22877SOL     OW69731   1.892   2.747   1.594  0.2738  0.0740 -0.3526
22877SOL    HW169732   1.871   2.827   1.641  1.3929  1.1430 -1.5764
22877SOL    HW269733   1.876   2.677   1.657  1.0304  1.3729  1.3663
22878SOL     OW69734   4.357   8.579   5.843  0.1966 -0.3377 -0.2958
22878SOL    HW169735   4.381   8.491   5.873 -0.6255 -0.7928 -0.9360
22878SOL    HW269736   4.267   8.590   5.873  0.1343  0.0957 -0.6410
22879SOL     OW69737   5.268   0.837   1.709  0.2865  0.0456  0.8077
22879SOL    HW169738   5.193   0.894   1.696  1.1730  1.0728  0.0179
22879SOL    HW269739   5.230   0.752   1.733 -1.0783  0.7653  1.3038
22880SOL     OW69740   4.151   8.872   3.807 -0.5619  0.5517 -0.1086
22880SOL    HW169741   4.120   8.961   3.823 -1.2944  0.0993  1.1030
22880SOL    HW269742   4.081   8.816   3.841 -0.0099 -0.4948 -0.6502
22881SOL     OW69743   4.855   5.707   3.532 -0.1970 -0.1791 -0.2662
22881SOL    HW169744   4.853   5.786   3.479  0.6922 -0.1977 -0.3532
22881SOL    HW269745   4.903   5.643   3.479 -1.1669 -0.8811 -0.3222
22882SOL     OW69746   3.159   9.032   2.960  0.2694 -0.3295 -0.3139
22882SOL    HW169747   3.069   9.064   2.964 -0.0611 -1.3026  0.4153
22882SOL    HW269748   3.205   9.098   2.908 -1.0282 -0.2212 -1.4010
22883SOL     OW69749   0.581   4.619   6.828  0.3777  0.3073 -0.3531
22883SOL    HW169750   0.489   4.631   6.805 -0.6334 -0.5348  2.7538
22883SOL    HW269751   0.623   4.700   6.801 -1.6212  1.4366 -0.2817
22884SOL     OW69752   6.402   7.541   5.171 -0.2476  0.4411  0.4176
22884SOL    HW169753   6.460   7.504   5.105 -0.0110  0.1895  0.7636
22884SOL    HW269754   6.460   7.591   5.229 -0.2114 -0.6601  1.3688
22885SOL     OW69755   4.426   6.641   3.469 -0.0271 -0.6222 -0.8952
22885SOL    HW169756   4.388   6.641   3.381 -0.4713 -1.4390 -0.7195
22885SOL    HW269757   4.444   6.548   3.487  0.3206 -0.4353 -0.2411
22886SOL     OW69758   0.122   8.560   5.448 -0.1620 -0.8914 -0.2069
22886SOL    HW169759   0.204   8.610   5.456  0.1459 -1.5528  0.8593
22886SOL    HW269760   0.121   8.503   5.524 -2.0825 -0.2459  0.2943
22887SOL     OW69761   7.725   2.241   3.241  0.2338  0.1794 -0.0674
22887SOL    HW169762   7.768   2.325   3.256 -0.1649  0.2920  0.4748
22887SOL    HW269763   7.747   2.189   3.318 -2.1856  0.9037  1.1950
22888SOL     OW69764   7.994   2.301   4.445 -0.4992 -0.7122  0.4030
22888SOL    HW169765   7.967   2.307   4.354  0.4527  1.1800  0.1893
22888SOL    HW269766   7.913   2.287   4.494 -1.0659 -1.3148 -0.6983
22889SOL     OW69767   2.931   6.805   0.341 -0.0805 -0.0960 -0.0228
22889SOL    HW169768   3.013   6.813   0.293  0.5523 -0.1143  1.0109
22889SOL    HW269769   2.958   6.794   0.432 -1.1841 -1.8360  0.1414
22890SOL     OW69770   5.963   5.682   0.971 -0.4517  0.1182  0.3812
22890SOL    HW169771   6.019   5.661   1.047  0.5741 -0.1988 -0.4420
22890SOL    HW269772   5.885   5.721   1.010 -0.1284 -0.4156  1.6357
22891SOL     OW69773   1.622   5.440   7.513 -0.0499 -0.1221 -0.5280
22891SOL    HW169774   1.624   5.345   7.504  1.5011 -0.2636  0.7387
22891SOL    HW269775   1.714   5.466   7.511 -0.1155  0.8852  2.8833
22892SOL     OW69776   5.194   6.780   2.472 -0.1491 -0.3213  0.3114
22892SOL    HW169777   5.183   6.689   2.446 -2.1176 -0.0847  0.1493
22892SOL    HW269778   5.289   6.795   2.469  0.0922 -1.8585 -1.3635
22893SOL     OW69779   8.381   5.392   5.823  0.2896  0.2604  0.4828
22893SOL    HW169780   8.465   5.437   5.827 -0.2729  1.5003 -0.8537
22893SOL    HW269781   8.381   5.348   5.738 -0.3449  0.1560  0.5286
22894SOL     OW69782   4.069   8.177   0.407 -0.1200 -0.0332 -0.4318
22894SOL    HW169783   4.094   8.262   0.370 -2.2659  1.6994  1.7857
22894SOL    HW269784   4.069   8.191   0.502 -0.0252 -2.7074  0.0294
22895SOL     OW69785   0.909   0.156   2.504 -0.4447  0.0435 -0.0744
22895SOL    HW169786   0.954   0.074   2.523 -0.5726  0.0678  0.3539
22895SOL    HW269787   0.879   0.187   2.590 -0.6798  0.3716 -0.2722
22896SOL     OW69788   7.561   1.544   4.713 -0.3932  0.4060 -0.1914
22896SOL    HW169789   7.604   1.562   4.630 -2.3122 -0.6273 -1.4982
22896SOL    HW269790   7.468   1.559   4.696 -1.0044 -1.1992  1.3334
22897SOL     OW69791   3.477   0.632   2.697 -0.1749  0.1961 -0.2866
22897SOL    HW169792   3.473   0.718   2.654 -1.3488  0.8824  1.1212
22897SOL    HW269793   3.553   0.638   2.754 -1.1232  0.9018  0.9563
22898SOL     OW69794   1.832   5.048   6.147 -0.0505 -0.3468  0.1287
22898SOL    HW169795   1.853   5.141   6.139 -0.0419 -0.4155 -0.7812
22898SOL    HW269796   1.892   5.005   6.086  1.1406 -1.1380  1.7937
22899SOL     OW69797   8.711   5.603   0.907  0.4597  0.2828  0.0839
22899SOL    HW169798   8.788   5.577   0.957  0.2581 -0.7120 -0.1131
22899SOL    HW269799   8.745   5.630   0.822  1.1144  4.3622  1.4163
22900SOL     OW69800   6.703   6.306   4.708 -0.2229 -0.5504  0.1707
22900SOL    HW169801   6.624   6.335   4.754 -0.1323  0.0714 -0.0596
22900SOL    HW269802   6.719   6.374   4.643 -0.1960 -1.2893 -0.6068
22901SOL     OW69803   1.852   6.401   8.222 -0.2221  0.1701  0.8568
22901SOL    HW169804   1.939   6.419   8.259 -0.2816 -1.2300  1.7333
22901SOL    HW269805   1.871   6.357   8.139 -0.1004  0.4183  0.7503
22902SOL     OW69806   6.701   1.281   0.700  0.3414  0.0807 -0.2906
22902SOL    HW169807   6.676   1.220   0.769  0.9040 -0.6309 -0.7036
22902SOL    HW269808   6.769   1.336   0.739 -1.1117  1.3875  0.5249
22903SOL     OW69809   2.678   2.180   0.344 -0.3882 -0.1778 -0.4872
22903SOL    HW169810   2.608   2.219   0.292  0.6307  0.1282 -1.6798
22903SOL    HW269811   2.729   2.129   0.281  2.6371  2.5761 -0.4873
22904SOL     OW69812   2.312   6.502   5.521  0.4104 -0.1168 -0.1804
22904SOL    HW169813   2.404   6.484   5.544  1.2016  1.2916 -1.9518
22904SOL    HW269814   2.278   6.551   5.596  1.5335  0.5525 -0.0833
22905SOL     OW69815   6.640   2.453   4.901 -0.2879  0.4125  0.0405
22905SOL    HW169816   6.735   2.458   4.913 -0.1811  0.5489 -0.8204
22905SOL    HW269817   6.604   2.462   4.990  0.5301 -0.5102  0.4850
22906SOL     OW69818   8.388   6.976   8.530 -0.1968 -0.3041  0.4453
22906SOL    HW169819   8.325   6.904   8.542 -0.4543 -0.2526 -0.5569
22906SOL    HW269820   8.349   7.049   8.579  0.2660 -0.9336  1.8243
22907SOL     OW69821   8.790   7.539   4.573  0.4970 -0.0575  0.4436
22907SOL    HW169822   8.722   7.603   4.552 -0.1020 -1.0746 -0.8730
22907SOL    HW269823   8.742   7.463   4.608  1.1986  0.2061  2.0859
22908SOL     OW69824   6.399   0.812   5.136 -0.0951  0.1462  0.1243
22908SOL    HW169825   6.424   0.859   5.057 -0.6981  0.2499 -0.0085
22908SOL    HW269826   6.319   0.765   5.112  0.6017 -1.1136  0.1929
22909SOL     OW69827   5.135   6.000   2.310  0.3234 -0.1212 -0.0561
22909SOL    HW169828   5.085   6.045   2.242  0.7595 -1.0893 -1.0508
22909SOL    HW269829   5.223   6.037   2.302  0.5041 -0.6157 -0.3878
22910SOL     OW69830   0.239   3.806   0.749 -0.1275 -0.1555  0.4339
22910SOL    HW169831   0.324   3.826   0.790 -0.0052 -1.3414  0.7953
22910SOL    HW269832   0.194   3.751   0.813 -0.6625 -0.5690 -0.2844
22911SOL     OW69833   1.254   6.206   8.342  0.4251  0.7045  0.6347
22911SOL    HW169834   1.160   6.196   8.360  0.2300 -0.6400 -0.9311
22911SOL    HW269835   1.264   6.298   8.319 -0.9337  0.4187 -1.3340
22912SOL     OW69836   6.031   1.355   8.452  0.0181 -0.4153  0.0763
22912SOL    HW169837   6.063   1.389   8.368 -0.1966 -0.5932 -0.0807
22912SOL    HW269838   6.051   1.423   8.515 -0.1835 -0.1043 -0.1938
22913SOL     OW69839   8.255   2.959   7.400  0.1834  0.1465  0.4970
22913SOL    HW169840   8.257   2.874   7.355 -1.3718  0.4566 -0.2075
22913SOL    HW269841   8.345   2.971   7.431  0.3496 -1.9877  1.0726
22914SOL     OW69842   4.747   6.719   4.749 -0.9263  0.4729  0.0257
22914SOL    HW169843   4.683   6.729   4.678 -0.1284  3.1273 -0.4365
22914SOL    HW269844   4.740   6.800   4.799 -0.2883 -0.6464  2.0388
22915SOL     OW69845   5.369   7.134   2.756  0.6398  1.1462  0.0977
22915SOL    HW169846   5.288   7.135   2.807  1.5390 -0.3348  1.6769
22915SOL    HW269847   5.431   7.086   2.811  1.5223 -1.1324 -2.6669
22916SOL     OW69848   1.782   0.976   0.176  0.2584 -0.2213 -0.1213
22916SOL    HW169849   1.734   0.987   0.258  1.9420  0.9227  0.7660
22916SOL    HW269850   1.797   0.881   0.169  0.4127 -0.2992  1.1042
22917SOL     OW69851   2.893   5.193   7.722 -0.9835 -0.5473 -0.4295
22917SOL    HW169852   2.980   5.228   7.740 -1.5547  0.4174  0.5861
22917SOL    HW269853   2.833   5.250   7.771 -1.9840 -2.7675  1.1468
22918SOL     OW69854   5.257   6.842   2.088  0.3649  0.2291  0.1875
22918SOL    HW169855   5.224   6.893   2.014 -0.1844  2.5956  1.9492
22918SOL    HW269856   5.339   6.885   2.113  0.8880 -0.9395  0.5737
22919SOL     OW69857   5.968   2.394   4.488 -0.1286  0.2326 -0.6870
22919SOL    HW169858   6.017   2.461   4.440  0.8931 -0.1937 -0.2809
22919SOL    HW269859   5.921   2.345   4.421  1.0501 -0.1787 -1.2301
22920SOL     OW69860   7.134   1.228   6.263 -0.2821  0.0500  0.3582
22920SOL    HW169861   7.133   1.172   6.185 -0.2886 -1.0227  1.1110
22920SOL    HW269862   7.223   1.263   6.266 -0.3621  0.3266 -0.2824
22921SOL     OW69863   0.153   6.693   5.294  0.2503  0.8518  0.0909
22921SOL    HW169864   0.172   6.760   5.359 -1.4724  0.4045  1.1012
22921SOL    HW269865   0.138   6.614   5.344 -0.4600  0.3399 -0.8961
22922SOL     OW69866   0.902   3.393   5.863 -0.1679 -0.4243  0.1312
22922SOL    HW169867   0.989   3.405   5.825 -0.3718 -4.5161 -2.0977
22922SOL    HW269868   0.918   3.380   5.956  1.5417 -0.5922 -0.1660
22923SOL     OW69869   3.463   4.694   7.719  0.1809 -0.3071  0.1461
22923SOL    HW169870   3.427   4.711   7.632 -0.9312  0.1811  0.6752
22923SOL    HW269871   3.538   4.753   7.726  0.5883 -0.7087 -0.6567
22924SOL     OW69872   2.028   7.016   7.676 -0.2496  0.0203 -0.2287
22924SOL    HW169873   2.080   6.989   7.751 -0.1741  0.3387 -0.1628
22924SOL    HW269874   2.040   7.111   7.672 -0.7633  0.0889 -0.2552
22925SOL     OW69875   1.864   6.209   5.787 -0.1928 -0.2772  0.2566
22925SOL    HW169876   1.803   6.283   5.777  0.1748  0.1762  1.2211
22925SOL    HW269877   1.939   6.232   5.732 -1.0039 -0.9986 -1.2124
22926SOL     OW69878   5.534   9.132   0.285  0.1489  0.5158  0.4125
22926SOL    HW169879   5.602   9.065   0.298 -0.2361 -0.2402 -1.1692
22926SOL    HW269880   5.572   9.191   0.220 -0.9916 -0.4211 -1.1809
22927SOL     OW69881   9.041   7.408   7.568 -0.3136 -0.1851 -0.2480
22927SOL    HW169882   8.987   7.330   7.561 -0.1258 -0.1921 -2.3245
22927SOL    HW269883   9.009   7.453   7.646 -1.5924 -1.4622 -0.0039
22928SOL     OW69884   1.949   4.391   4.802  0.0693  0.0114 -0.0149
22928SOL    HW169885   1.890   4.333   4.850 -0.2320 -1.2932 -1.8582
22928SOL    HW269886   2.004   4.332   4.750  1.3463  1.2969 -0.2056
22929SOL     OW69887   3.886   6.747   1.901  0.1180  0.2354 -0.4472
22929SOL    HW169888   3.866   6.820   1.959  1.3101  1.4573 -1.5118
22929SOL    HW269889   3.960   6.777   1.849  0.0391 -1.3840 -1.5666
22930SOL     OW69890   3.010   7.894   4.426 -0.1793 -0.3393 -0.3563
22930SOL    HW169891   3.067   7.821   4.449  0.5340  0.2733 -0.1035
22930SOL    HW269892   2.940   7.893   4.491  0.6952  0.1448  0.6160
22931SOL     OW69893   5.955   7.265   6.171 -0.3008 -0.1274  0.5206
22931SOL    HW169894   6.025   7.310   6.125 -0.4573  0.0016  0.4073
22931SOL    HW269895   5.953   7.305   6.258 -0.1673 -0.2019  0.5579
22932SOL     OW69896   6.276   2.515   6.371  0.1252 -0.2822 -0.0468
22932SOL    HW169897   6.237   2.458   6.437  1.9079 -1.1743  0.3072
22932SOL    HW269898   6.368   2.521   6.396  0.1634  2.0988 -0.5788
22933SOL     OW69899   4.661   4.906   7.267 -0.6088  0.2756  0.2224
22933SOL    HW169900   4.579   4.955   7.269 -0.4196  0.6001  1.9166
22933SOL    HW269901   4.728   4.971   7.245 -0.9112 -0.2871 -2.8121
22934SOL     OW69902   8.501   3.190   5.601 -0.3468 -0.3591  0.4488
22934SOL    HW169903   8.437   3.189   5.530 -0.4994 -1.0047  0.5844
22934SOL    HW269904   8.586   3.191   5.556 -0.4327  1.3017  0.2703
22935SOL     OW69905   7.435   6.334   2.061  1.0368 -0.3360  0.0891
22935SOL    HW169906   7.367   6.376   2.008  0.5392 -0.8435  0.3113
22935SOL    HW269907   7.454   6.397   2.130  1.4559  0.1921 -0.4957
22936SOL     OW69908   3.474   6.615   7.032 -0.6525  0.0710 -0.7249
22936SOL    HW169909   3.525   6.692   7.055 -1.0933  0.3494 -0.6647
22936SOL    HW269910   3.383   6.643   7.042 -0.8378 -0.1271 -1.7344
22937SOL     OW69911   1.865   5.562   8.389 -0.1673  0.0203  0.2171
22937SOL    HW169912   1.837   5.652   8.407  1.1240  0.3567  0.6550
22937SOL    HW269913   1.959   5.570   8.372 -0.3983 -0.9896 -1.7052
22938SOL     OW69914   9.117   1.167   8.005 -0.4477  0.0414  0.1017
22938SOL    HW169915   9.190   1.106   8.009 -1.0313 -0.6400  0.6980
22938SOL    HW269916   9.095   1.173   7.912  0.9623  1.0006 -0.1909
22939SOL     OW69917   1.549   8.164   0.261  0.0587 -0.5374 -0.9652
22939SOL    HW169918   1.534   8.077   0.225 -0.4907 -0.5467 -0.7326
22939SOL    HW269919   1.599   8.149   0.341  0.7057 -0.5681 -1.3717
22940SOL     OW69920   8.919   6.924   2.165 -0.4271 -0.0301 -0.3316
22940SOL    HW169921   8.971   6.934   2.086  0.5589 -0.8064  0.1932
22940SOL    HW269922   8.876   6.839   2.155 -0.0338 -0.2887  0.0902
22941SOL     OW69923   5.233   7.108   8.843 -1.1876 -0.7707  0.4924
22941SOL    HW169924   5.168   7.043   8.872 -0.5596 -0.9178  1.6417
22941SOL    HW269925   5.268   7.144   8.925  0.5703 -1.1008 -0.0749
22942SOL     OW69926   3.773   2.539   9.108 -0.3546 -0.4239 -0.1434
22942SOL    HW169927   3.858   2.579   9.086 -1.0566  0.4664 -1.4029
22942SOL    HW269928   3.709   2.591   9.059 -1.5969 -1.3371  0.4536
22943SOL     OW69929   3.490   7.637   5.452  0.1503  0.6959  0.4022
22943SOL    HW169930   3.474   7.546   5.477  0.4165  0.3662 -0.5813
22943SOL    HW269931   3.406   7.680   5.464 -0.3472 -0.0095 -0.4929
22944SOL     OW69932   3.407   3.374   8.400  0.0391 -0.2264  0.0856
22944SOL    HW169933   3.408   3.469   8.390 -1.5243 -0.2880 -1.0874
22944SOL    HW269934   3.498   3.351   8.419  0.7481  1.3427 -1.1787
22945SOL     OW69935   0.226   6.556   1.895  0.2537 -0.5563  0.1758
22945SOL    HW169936   0.155   6.613   1.926  1.3148  0.8621  0.1426
22945SOL    HW269937   0.182   6.486   1.848 -1.0975  0.9248 -0.8851
22946SOL     OW69938   2.800   0.560   5.922 -0.0792  0.4514  0.8413
22946SOL    HW169939   2.747   0.586   5.998 -1.0649  0.2762  0.2197
22946SOL    HW269940   2.828   0.643   5.883 -1.4797  0.5812  0.0758
22947SOL     OW69941   2.209   3.504   3.579  0.1478  0.2483 -0.3605
22947SOL    HW169942   2.127   3.520   3.626  1.5016  0.7578  1.9632
22947SOL    HW269943   2.197   3.417   3.541 -1.2927  0.1148  0.3104
22948SOL     OW69944   4.346   1.249   2.881  0.0900  0.5429  0.0367
22948SOL    HW169945   4.272   1.286   2.833 -0.3757  0.0064  0.3284
22948SOL    HW269946   4.382   1.183   2.822 -1.0631 -0.7889  0.7477
22949SOL     OW69947   2.684   5.330   1.195 -0.3442  0.1930 -0.1360
22949SOL    HW169948   2.674   5.362   1.105 -0.2694 -2.2789 -1.1075
22949SOL    HW269949   2.766   5.281   1.195  0.1268  0.8929  1.5657
22950SOL     OW69950   7.992   7.294   8.779  0.0615 -0.5465 -0.1047
22950SOL    HW169951   7.963   7.385   8.777 -0.8967 -0.8287  0.4719
22950SOL    HW269952   8.022   7.280   8.869 -0.2560 -0.9344 -0.0562
22951SOL     OW69953   8.206   5.832   6.031 -0.3920 -0.1453 -0.8352
22951SOL    HW169954   8.230   5.893   6.101 -1.2502 -1.5672  0.7859
22951SOL    HW269955   8.125   5.867   5.994 -1.2262 -0.5807  0.5113
22952SOL     OW69956   0.712   4.531   0.764  0.3115  0.4163  0.7214
22952SOL    HW169957   0.796   4.519   0.720 -0.3470  0.0685 -0.4999
22952SOL    HW269958   0.662   4.452   0.743 -0.3187  0.6092  1.4434
22953SOL     OW69959   7.486   7.104   3.998 -0.6647 -0.1117  0.2083
22953SOL    HW169960   7.558   7.044   4.017 -0.5957 -0.1134 -0.0636
22953SOL    HW269961   7.495   7.125   3.905 -0.5859  0.4487  0.3376
22954SOL     OW69962   2.092   3.188   2.531 -0.4402 -0.0570  0.8825
22954SOL    HW169963   2.171   3.222   2.490 -0.9489  1.0594  0.7974
22954SOL    HW269964   2.091   3.095   2.507  0.4951  0.0521  0.3489
22955SOL     OW69965   6.432   0.688   1.332  0.2657  0.1938  0.3054
22955SOL    HW169966   6.478   0.729   1.405  0.8267  0.1410 -0.0061
22955SOL    HW269967   6.419   0.597   1.359  1.7274 -0.1978 -0.2001
22956SOL     OW69968   5.913   6.991   6.177 -0.0234  0.1832  0.2407
22956SOL    HW169969   5.906   7.086   6.187  1.2358  0.1659  1.4354
22956SOL    HW269970   5.883   6.956   6.261 -1.5608 -0.5649 -0.5671
22957SOL     OW69971   6.293   1.421   4.669  0.2912 -0.1906  0.4689
22957SOL    HW169972   6.231   1.393   4.737 -0.4610  0.4797  0.0777
22957SOL    HW269973   6.327   1.339   4.632  0.2281 -0.5630  1.2152
22958SOL     OW69974   0.532   5.946   3.811  0.2748 -0.4418  0.5413
22958SOL    HW169975   0.570   6.009   3.751 -0.5027  0.2635  0.7752
22958SOL    HW269976   0.522   5.866   3.759 -0.6671  0.2474 -0.3745
22959SOL     OW69977   5.722   8.861   8.432 -0.2520 -0.3651 -0.3781
22959SOL    HW169978   5.744   8.954   8.425  1.5888 -0.5328  1.8717
22959SOL    HW269979   5.638   8.859   8.478 -0.4624  0.1925 -0.7409
22960SOL     OW69980   0.424   0.794   6.178  0.1918  0.4499  0.3278
22960SOL    HW169981   0.469   0.778   6.095 -0.7437 -3.2804  0.3592
22960SOL    HW269982   0.336   0.822   6.153  0.5429  1.4275  0.1469
22961SOL     OW69983   7.635   6.786   4.374 -0.6995 -0.0851 -0.0073
22961SOL    HW169984   7.705   6.755   4.431 -1.2395  1.5893  1.6990
22961SOL    HW269985   7.680   6.822   4.298  0.1984 -0.3613  0.3803
22962SOL     OW69986   8.331   1.828   1.942 -0.7771 -0.3392  0.2491
22962SOL    HW169987   8.383   1.787   2.012  0.2512 -1.1091 -0.9268
22962SOL    HW269988   8.383   1.903   1.914 -0.2561 -1.1092 -0.9301
22963SOL     OW69989   2.112   1.713   7.150  0.9686 -0.5079 -0.1068
22963SOL    HW169990   2.065   1.638   7.185 -0.2929 -0.2372 -1.1186
22963SOL    HW269991   2.054   1.788   7.168  1.1065 -0.1253 -1.1922
22964SOL     OW69992   2.336   1.300   7.518 -0.4662 -0.1624 -0.1244
22964SOL    HW169993   2.273   1.274   7.450  0.2312  0.0532 -0.8677
22964SOL    HW269994   2.421   1.271   7.484 -0.1210 -0.1542  0.7141
22965SOL     OW69995   6.172   5.104   9.084 -0.8547 -0.0218  0.3957
22965SOL    HW169996   6.154   5.050   9.006 -0.7222  0.5896 -0.0662
22965SOL    HW269997   6.205   5.042   9.149  0.3421 -0.3591 -0.4904
22966SOL     OW69998   5.816   4.341   2.013 -0.2021  0.3759  0.8727
22966SOL    HW169999   5.794   4.304   1.927 -1.6495  0.4803  1.1656
22966SOL    HW270000   5.785   4.431   2.010  1.2755  0.9090  0.9424
22967SOL     OW70001   3.537   5.435   2.535 -0.2694 -0.3877  0.1052
22967SOL    HW170002   3.607   5.482   2.581 -0.4629 -0.8717  0.9085
22967SOL    HW270003   3.492   5.503   2.485  0.6090 -0.0256 -0.2164
22968SOL     OW70004   3.151   1.670   3.262  0.3892  0.0646  0.3726
22968SOL    HW170005   3.133   1.761   3.234 -0.0678  0.8714  3.0237
22968SOL    HW270006   3.218   1.639   3.201 -0.5830  1.6042 -1.6059
22969SOL     OW70007   7.597   8.707   8.943  0.3063  0.1235 -0.8363
22969SOL    HW170008   7.543   8.639   8.983  1.3624 -0.9453 -1.1533
22969SOL    HW270009   7.591   8.781   9.003  0.4289 -0.8138  0.3705
22970SOL     OW70010   9.027   5.887   7.128 -0.0259 -0.1022  0.6542
22970SOL    HW170011   8.990   5.956   7.183 -1.7279 -1.5191  1.4042
22970SOL    HW270012   9.109   5.923   7.096  0.9693  0.9494  3.9384
22971SOL     OW70013   8.413   6.797   5.941  0.1076 -0.0390 -0.7263
22971SOL    HW170014   8.380   6.849   6.015 -1.2394 -0.1040 -1.2482
22971SOL    HW270015   8.336   6.784   5.885  0.7680 -1.2764 -1.3834
22972SOL     OW70016   3.697   2.567   7.779  0.2085  0.3969  0.2761
22972SOL    HW170017   3.785   2.584   7.813  1.0782 -0.1259 -1.5914
22972SOL    HW270018   3.698   2.603   7.690 -0.4963 -2.0779 -0.8158
22973SOL     OW70019   8.735   0.563   4.565  0.0876  0.5330 -0.0552
22973SOL    HW170020   8.762   0.600   4.481  0.8937 -0.3111 -0.1774
22973SOL    HW270021   8.657   0.510   4.544  0.8220 -0.4231 -0.4523
22974SOL     OW70022   4.817   6.655   8.481  0.0480  0.2321  0.0818
22974SOL    HW170023   4.836   6.587   8.545 -0.6222 -0.3342 -0.2955
22974SOL    HW270024   4.812   6.608   8.397 -1.0037  0.6291 -0.1025
22975SOL     OW70025   4.723   8.142   8.613 -0.2910 -0.7770  0.4634
22975SOL    HW170026   4.713   8.110   8.703  0.0767 -0.9251  0.4545
22975SOL    HW270027   4.662   8.215   8.606  1.1477  0.5898  1.4930
22976SOL     OW70028   0.288   6.252   8.244 -0.0902  0.0575  0.1045
22976SOL    HW170029   0.291   6.347   8.246  1.7612  0.0479  2.4737
22976SOL    HW270030   0.365   6.226   8.193 -1.2693 -0.2262 -1.6123
22977SOL     OW70031   0.445   5.828   3.532 -0.1011 -0.0883 -0.3501
22977SOL    HW170032   0.426   5.904   3.478 -0.6120 -0.2008 -0.3321
22977SOL    HW270033   0.429   5.753   3.475  0.3797 -0.1852 -0.3607
22978SOL     OW70034   2.476   4.060   8.913 -0.0934  0.0744  0.3345
22978SOL    HW170035   2.496   4.077   9.005  1.0456  2.2211 -0.2468
22978SOL    HW270036   2.382   4.076   8.906 -0.0982  0.4057  1.0278
22979SOL     OW70037   2.990   8.788   0.998 -0.7296 -0.0387  0.1772
22979SOL    HW170038   2.946   8.778   0.914 -0.0655 -1.8950 -0.0038
22979SOL    HW270039   3.084   8.789   0.976 -0.5771  1.4498  0.7574
22980SOL     OW70040   4.250   4.684   6.399 -0.2392  0.0855 -0.2079
22980SOL    HW170041   4.289   4.746   6.460  0.2359 -0.2997 -0.1203
22980SOL    HW270042   4.156   4.702   6.404 -0.0247  1.6163 -1.0681
22981SOL     OW70043   4.046   7.386   8.933  0.0413 -0.2837 -0.6970
22981SOL    HW170044   4.058   7.292   8.921  0.5878 -0.3599  0.3758
22981SOL    HW270045   4.096   7.407   9.012 -0.4433  0.8310 -0.6695
22982SOL     OW70046   4.513   5.944   6.345  0.1447 -0.0239  0.2937
22982SOL    HW170047   4.608   5.942   6.356  0.3986 -0.9899 -1.7516
22982SOL    HW270048   4.479   5.932   6.434  1.9294 -0.4606  0.9610
22983SOL     OW70049   1.133   0.988   4.666  0.4474 -0.1675 -0.0159
22983SOL    HW170050   1.185   0.941   4.601 -1.3170 -2.0307 -0.1519
22983SOL    HW270051   1.121   0.926   4.737 -0.2678  0.7730  0.7139
22984SOL     OW70052   5.453   1.702   0.541  0.6406 -0.3386 -0.0632
22984SOL    HW170053   5.410   1.760   0.477  1.5394 -1.4602 -1.7816
22984SOL    HW270054   5.440   1.745   0.625 -3.5952 -0.4065 -0.4304
22985SOL     OW70055   8.911   7.870   0.088 -0.5483 -0.5118  0.0266
22985SOL    HW170056   8.844   7.832   0.144  0.4273 -0.7882  1.0407
22985SOL    HW270057   8.981   7.895   0.148  0.3203 -0.3496 -1.0229
22986SOL     OW70058   6.417   3.094   2.642  0.3343 -0.2988 -0.0214
22986SOL    HW170059   6.449   3.177   2.607 -1.9642  0.9229  0.5441
22986SOL    HW270060   6.434   3.030   2.574  1.1762  0.8562 -0.9293
22987SOL     OW70061   7.284   2.546   8.612 -0.8228  0.2878  0.0227
22987SOL    HW170062   7.355   2.571   8.554 -1.8674 -0.0697 -1.4676
22987SOL    HW270063   7.279   2.451   8.605  0.6054 -0.0633  2.6410
22988SOL     OW70064   2.917   2.900   3.460  0.0769  0.0859 -0.0446
22988SOL    HW170065   2.850   2.909   3.392  1.2729 -0.3943 -1.3436
22988SOL    HW270066   2.901   2.973   3.519 -2.9998 -1.2774  1.0007
22989SOL     OW70067   5.338   7.366   8.307 -0.1306 -0.4916 -0.5699
22989SOL    HW170068   5.321   7.274   8.330  0.9211 -0.9491 -1.5085
22989SOL    HW270069   5.373   7.404   8.388  0.3337 -1.1718 -0.4393
22990SOL     OW70070   1.450   0.524   6.955  0.4926 -0.1044  0.1406
22990SOL    HW170071   1.386   0.515   7.026 -1.5843  1.3134 -1.4268
22990SOL    HW270072   1.496   0.606   6.974 -0.6502  0.7251 -0.5067
22991SOL     OW70073   1.447   5.236   9.025  1.2702  0.0717 -0.2615
22991SOL    HW170074   1.384   5.239   8.953  0.8458  0.1001  0.1124
22991SOL    HW270075   1.444   5.145   9.056 -0.7069  0.7072  1.6262
22992SOL     OW70076   2.564   4.682   2.965 -0.2680  0.4665  0.2114
22992SOL    HW170077   2.553   4.676   2.870 -1.5127 -1.8605  0.4139
22992SOL    HW270078   2.648   4.639   2.982 -1.2859 -1.6436  0.2940
22993SOL     OW70079   4.113   4.002   6.531  0.6407  0.2230 -0.0794
22993SOL    HW170080   4.127   3.987   6.437  0.4077  0.5415 -0.1663
22993SOL    HW270081   4.078   3.919   6.564 -0.4276  0.4897 -0.5092
22994SOL     OW70082   7.280   6.786   3.630  0.0650 -0.1522 -0.2483
22994SOL    HW170083   7.186   6.768   3.632  0.3406 -1.6926  1.6212
22994SOL    HW270084   7.314   6.742   3.708  2.4035  0.0524 -1.0979
22995SOL     OW70085   5.515   1.391   3.191 -0.5880  0.1347  0.0372
22995SOL    HW170086   5.511   1.348   3.105 -0.3716  1.0993 -0.4722
22995SOL    HW270087   5.531   1.321   3.253 -0.2681 -0.5141 -0.7727
22996SOL     OW70088   3.379   5.681   5.763 -0.0161  0.0377  1.0427
22996SOL    HW170089   3.296   5.704   5.721 -1.2974 -0.8529  2.9413
22996SOL    HW270090   3.445   5.698   5.696 -1.5592  2.1369 -0.0643
22997SOL     OW70091   7.187   5.086   7.970 -0.7840  0.4556  0.0953
22997SOL    HW170092   7.105   5.089   7.921 -0.7563  0.6989  0.0627
22997SOL    HW270093   7.250   5.050   7.908 -1.5762 -3.1228  1.1359
22998SOL     OW70094   6.390   0.733   3.649  0.3747 -0.6883 -0.4686
22998SOL    HW170095   6.304   0.776   3.645 -0.1363 -0.9399  3.5484
22998SOL    HW270096   6.453   0.802   3.628 -0.6213  1.0491  1.8806
22999SOL     OW70097   3.162   2.945   7.447  0.3912  0.1675 -0.5554
22999SOL    HW170098   3.076   2.964   7.410  0.7486  0.6743 -1.1288
22999SOL    HW270099   3.155   2.855   7.479  0.3885 -0.6882 -2.8087
23000SOL     OW70100   6.388   1.665   6.332 -0.1512 -0.2876  0.4573
23000SOL    HW170101   6.432   1.712   6.403  0.0811 -0.2988  0.3207
23000SOL    HW270102   6.298   1.699   6.334  0.4890  1.6661 -0.9169
23001SOL     OW70103   3.588   2.914   8.933 -0.5525 -0.6805 -0.1556
23001SOL    HW170104   3.626   2.941   9.016  0.2984 -1.0054 -0.4340
23001SOL    HW270105   3.575   2.995   8.884  2.6087 -0.7181 -1.2627
23002SOL     OW70106   4.757   1.439   1.117 -0.0177  0.1315 -0.5247
23002SOL    HW170107   4.696   1.383   1.069 -0.5355  0.2207  0.0154
23002SOL    HW270108   4.702   1.486   1.180  0.6239  0.1131  0.0670
23003SOL     OW70109   2.800   1.295   2.275 -0.4718  0.1350  0.3223
23003SOL    HW170110   2.747   1.294   2.355  2.0813  0.1841  2.1533
23003SOL    HW270111   2.804   1.203   2.248 -1.5621  0.1508  0.0616
23004SOL     OW70112   3.796   3.497   8.653  0.6366 -0.1030  0.4574
23004SOL    HW170113   3.766   3.504   8.744  1.5987 -1.7089  0.9538
23004SOL    HW270114   3.828   3.407   8.646  0.2383 -0.1242 -1.5966
23005SOL     OW70115   5.721   1.286   7.178 -0.4078  0.3371  0.1775
23005SOL    HW170116   5.690   1.374   7.158 -1.1791  0.4571  1.7613
23005SOL    HW270117   5.808   1.281   7.138 -0.2519  1.8930  0.2642
23006SOL     OW70118   2.802   8.220   1.777 -0.8822 -0.1898  0.8296
23006SOL    HW170119   2.728   8.236   1.835 -0.8441 -1.1295  1.1607
23006SOL    HW270120   2.773   8.148   1.721 -0.8655  0.6101 -0.2336
23007SOL     OW70121   7.607   8.216   2.674 -0.1069  0.2514 -0.3187
23007SOL    HW170122   7.666   8.283   2.639  1.3934 -0.2314  1.1639
23007SOL    HW270123   7.607   8.147   2.608  1.1202  0.2049 -0.2877
23008SOL     OW70124   6.130   1.602   0.960  0.2648  0.1110  0.7638
23008SOL    HW170125   6.063   1.561   0.905 -0.2753  1.0193  0.7304
23008SOL    HW270126   6.083   1.629   1.039  0.3323  1.7614  0.2726
23009SOL     OW70127   1.884   8.718   8.791 -0.3288 -0.5899  0.2298
23009SOL    HW170128   1.944   8.665   8.844 -0.2461  0.1331  0.8740
23009SOL    HW270129   1.831   8.766   8.855 -2.5577 -2.1996 -0.2681
23010SOL     OW70130   7.189   7.864   4.074 -0.2991  0.0910 -0.3604
23010SOL    HW170131   7.123   7.924   4.039  0.4134  0.9523 -0.2885
23010SOL    HW270132   7.266   7.920   4.088 -0.0604 -0.5478  1.0763
23011SOL     OW70133   3.684   6.309   0.141 -0.1979  0.3926  0.4785
23011SOL    HW170134   3.597   6.276   0.162 -0.5807  0.5648 -0.7865
23011SOL    HW270135   3.741   6.271   0.208 -1.0999 -0.4317  0.7892
23012SOL     OW70136   7.470   4.878   6.559 -0.1231 -0.1745  0.1029
23012SOL    HW170137   7.398   4.857   6.500 -0.5847 -0.8027  0.8786
23012SOL    HW270138   7.459   4.972   6.577 -1.0653 -0.3797  0.6360
23013SOL     OW70139   0.080   8.147   2.062  0.4928  0.2545  0.3119
23013SOL    HW170140   0.042   8.061   2.081 -0.0918  0.7675  1.6197
23013SOL    HW270141   0.006   8.201   2.035  1.0907 -0.0356 -2.1039
23014SOL     OW70142   7.460   4.996   1.356 -0.5473 -0.1927 -0.5674
23014SOL    HW170143   7.452   5.060   1.427 -1.1579 -0.4198 -0.4206
23014SOL    HW270144   7.474   5.049   1.277 -2.4086  0.2371 -0.6628
23015SOL     OW70145   9.119   7.129   7.742  0.4942  0.2774  0.1560
23015SOL    HW170146   9.033   7.152   7.708 -0.5851 -1.0825  1.8388
23015SOL    HW270147   9.156   7.070   7.677  0.1831  0.8756 -0.5790
23016SOL     OW70148   3.197   6.108   0.656 -0.1829  0.3105 -0.1966
23016SOL    HW170149   3.198   6.174   0.725 -1.9338  3.3307 -2.8124
23016SOL    HW270150   3.234   6.152   0.579 -1.9026 -1.5468 -2.2318
23017SOL     OW70151   4.028   5.088   3.832  0.0459 -0.7758  0.1169
23017SOL    HW170152   4.027   5.070   3.926 -2.2466  2.2944  0.8414
23017SOL    HW270153   3.979   5.170   3.823  0.0683 -1.0164 -3.7931
23018SOL     OW70154   3.511   3.039   3.760 -0.5389 -0.4589  0.1216
23018SOL    HW170155   3.590   3.090   3.776 -0.5061 -0.1152 -1.0680
23018SOL    HW270156   3.441   3.103   3.755 -0.4181 -0.4366 -1.9278
23019SOL     OW70157   0.612   5.537   2.528  0.2076 -0.4757  0.1122
23019SOL    HW170158   0.653   5.451   2.530 -0.2587 -0.6956  0.2605
23019SOL    HW270159   0.540   5.528   2.466 -1.0579 -0.7525  1.5677
23020SOL     OW70160   3.786   3.607   2.586 -0.3418  0.1859  0.1445
23020SOL    HW170161   3.844   3.559   2.645 -1.9116 -1.1528  0.6507
23020SOL    HW270162   3.795   3.561   2.502  0.7013  1.1330 -0.2935
23021SOL     OW70163   6.882   8.807   5.635  0.2346 -0.8414  0.0670
23021SOL    HW170164   6.855   8.746   5.703  0.0812  1.0167  1.7993
23021SOL    HW270165   6.800   8.849   5.606  0.4218 -0.8187 -0.4445
23022SOL     OW70166   8.203   2.642   4.102  0.1549 -0.5470 -0.3602
23022SOL    HW170167   8.253   2.560   4.108 -0.4789 -0.9741 -0.8214
23022SOL    HW270168   8.146   2.630   4.027  0.0266  0.3156 -0.4133
23023SOL     OW70169   2.814   0.830   8.914  0.6080  0.2069 -0.0754
23023SOL    HW170170   2.765   0.785   8.983  0.1041  1.3935  0.3725
23023SOL    HW270171   2.753   0.835   8.840  0.4761  0.5889  0.0545
23024SOL     OW70172   6.702   6.537   7.549 -0.0254 -0.2909 -0.2603
23024SOL    HW170173   6.706   6.501   7.638 -1.0381  2.1514  0.8362
23024SOL    HW270174   6.793   6.560   7.529  0.1534 -0.4773  0.3134
23025SOL     OW70175   9.077   5.676   0.038  0.2275  0.1373 -0.3663
23025SOL    HW170176   8.988   5.659   0.069  0.0221 -1.2758 -1.6084
23025SOL    HW270177   9.103   5.757   0.083 -0.9480 -0.4478  1.4890
23026SOL     OW70178   4.693   2.000   8.420 -0.0641 -0.2740  0.0110
23026SOL    HW170179   4.732   2.017   8.334  0.4052 -1.5836 -0.0649
23026SOL    HW270180   4.652   1.913   8.411 -2.2812  0.6667  0.3547
23027SOL     OW70181   5.096   2.502   3.337  0.3649  0.4545 -0.1416
23027SOL    HW170182   5.177   2.525   3.292  0.9861 -1.1422  0.1152
23027SOL    HW270183   5.046   2.452   3.272  0.3161  0.0071  0.2379
23028SOL     OW70184   7.549   4.397   0.486 -0.5137  0.2736  0.2010
23028SOL    HW170185   7.600   4.469   0.450 -0.0920 -1.0688 -2.1443
23028SOL    HW270186   7.457   4.423   0.473 -0.4172  1.2433  1.3161
23029SOL     OW70187   4.478   3.584   2.843 -0.2451  0.0961  0.6188
23029SOL    HW170188   4.515   3.664   2.805  0.4721 -0.2595  0.5507
23029SOL    HW270189   4.395   3.611   2.880  0.5129  1.1349  1.6289
23030SOL     OW70190   8.252   7.507   1.733 -0.0968  0.3862  0.3907
23030SOL    HW170191   8.320   7.569   1.706 -0.8995  1.4623  0.8200
23030SOL    HW270192   8.233   7.458   1.653 -0.7011  1.8857 -0.4183
23031SOL     OW70193   1.718   3.809   7.801  0.3846  0.0305  0.6656
23031SOL    HW170194   1.720   3.832   7.708  0.5177 -3.0603 -0.2164
23031SOL    HW270195   1.807   3.829   7.832 -0.6120  4.7262  1.3433
23032SOL     OW70196   3.865   3.931   0.286  0.1940  0.4586  0.0759
23032SOL    HW170197   3.784   3.944   0.335  0.4500  1.3611  0.2774
23032SOL    HW270198   3.926   3.894   0.349 -0.1510 -0.5241 -0.1586
23033SOL     OW70199   4.556   3.061   0.528 -0.3989 -0.1555 -0.0279
23033SOL    HW170200   4.467   3.027   0.519 -0.3076 -0.7287  1.1219
23033SOL    HW270201   4.563   3.128   0.460 -1.8076  0.1023  0.0589
23034SOL     OW70202   4.023   3.366   1.417  0.2843  0.2867 -0.3206
23034SOL    HW170203   4.109   3.388   1.381  0.7737  1.0759  1.2321
23034SOL    HW270204   4.024   3.405   1.505 -1.5621  0.0790 -0.1830
23035SOL     OW70205   6.248   0.929   7.725  0.2878 -0.1443  0.7636
23035SOL    HW170206   6.277   1.013   7.690  0.3210 -0.2535  0.5303
23035SOL    HW270207   6.317   0.867   7.702 -0.3155 -0.4974 -0.1904
23036SOL     OW70208   1.075   3.385   5.269 -0.4660  0.5872  0.0394
23036SOL    HW170209   1.069   3.439   5.347 -0.7895  0.6617 -0.0315
23036SOL    HW270210   0.990   3.339   5.265  0.5670 -1.5961  1.2827
23037SOL     OW70211   7.542   8.559   3.470 -0.8220 -0.4000 -0.6077
23037SOL    HW170212   7.550   8.472   3.431 -1.8641 -1.5648  1.6231
23037SOL    HW270213   7.616   8.607   3.434 -0.9730 -1.7314 -2.9635
23038SOL     OW70214   6.505   6.406   2.772 -0.0623 -0.2356 -0.5657
23038SOL    HW170215   6.490   6.380   2.682 -0.3791  1.1743 -0.9420
23038SOL    HW270216   6.601   6.411   2.780 -0.0591  0.7026 -1.1466
23039SOL     OW70217   4.554   4.242   3.560  0.2498  0.2113  0.0406
23039SOL    HW170218   4.485   4.282   3.506  0.1744  0.5861  0.4072
23039SOL    HW270219   4.561   4.300   3.636  0.6151 -0.1079  0.2522
23040SOL     OW70220   7.381   0.150   1.726 -0.3991  0.2730 -0.1823
23040SOL    HW170221   7.421   0.103   1.799  0.9660 -0.3268 -1.2885
23040SOL    HW270222   7.303   0.191   1.764 -0.8937 -1.7691  1.1304
23041SOL     OW70223   8.142   5.066   2.307 -0.3577 -0.0446  0.0785
23041SOL    HW170224   8.107   5.013   2.236 -0.1479  0.6760 -0.5819
23041SOL    HW270225   8.235   5.077   2.286 -0.3226  0.2801  0.3853
23042SOL     OW70226   3.245   0.297   5.478  0.2749  0.2167  0.3562
23042SOL    HW170227   3.307   0.312   5.550 -1.2046  1.1958  1.4713
23042SOL    HW270228   3.161   0.285   5.520 -0.2742 -1.6453 -1.1076
23043SOL     OW70229   4.506   5.456   1.347  0.6128  0.0025  0.3312
23043SOL    HW170230   4.556   5.444   1.428  0.8681  0.4233  0.2374
23043SOL    HW270231   4.553   5.525   1.300 -0.2084  0.5869  0.3605
23044SOL     OW70232   6.355   7.282   4.030 -0.3028 -0.4804  0.5811
23044SOL    HW170233   6.301   7.208   4.057 -0.6623 -0.3688  0.1739
23044SOL    HW270234   6.310   7.318   3.954 -0.1900  0.2243  0.8428
23045SOL     OW70235   7.877   4.978   1.340 -0.2621 -0.6970 -0.7201
23045SOL    HW170236   7.866   5.012   1.429 -0.0657  1.4811 -1.4772
23045SOL    HW270237   7.969   4.994   1.319 -0.6004  0.0098 -1.7549
23046SOL     OW70238   7.124   3.811   4.485 -0.4985  0.1131 -0.0095
23046SOL    HW170239   7.038   3.807   4.528  0.2691 -1.6755  1.4849
23046SOL    HW270240   7.172   3.879   4.531 -0.5125 -0.1166  0.3466
23047SOL     OW70241   7.786   2.726   4.178  0.1029  0.0744 -0.2530
23047SOL    HW170242   7.827   2.700   4.260 -1.4081 -0.8570  0.2544
23047SOL    HW270243   7.807   2.819   4.168  0.6337  0.1005  0.9725
23048SOL     OW70244   4.222   7.259   4.158  0.1105 -0.1240 -0.5136
23048SOL    HW170245   4.266   7.315   4.094  0.6265  1.1384  0.9116
23048SOL    HW270246   4.291   7.202   4.191  0.3803  0.8452  0.6347
23049SOL     OW70247   8.277   4.142   6.494  0.8253  0.7939  0.7804
23049SOL    HW170248   8.244   4.121   6.407 -1.1197  1.6792  1.2573
23049SOL    HW270249   8.319   4.228   6.484  2.1243  0.1421  0.3980
23050SOL     OW70250   4.327   6.567   5.950  0.0157 -0.4287 -0.0312
23050SOL    HW170251   4.385   6.542   5.878 -0.1837 -2.3090  0.4110
23050SOL    HW270252   4.272   6.490   5.964 -1.3633  0.6468  0.7799
23051SOL     OW70253   2.696   8.654   8.870 -0.1690  0.2679 -0.1124
23051SOL    HW170254   2.740   8.618   8.948 -0.1424 -2.7420 -1.4025
23051SOL    HW270255   2.654   8.734   8.902  1.4561  0.2024  2.5193
23052SOL     OW70256   0.681   5.076   7.259  0.0629 -0.2308  0.0002
23052SOL    HW170257   0.648   5.162   7.235  2.1727  0.9452  0.9552
23052SOL    HW270258   0.753   5.060   7.199 -0.1299 -1.2137  0.0136
23053SOL     OW70259   3.892   0.288   6.127 -0.1445 -0.4524  0.2089
23053SOL    HW170260   3.852   0.247   6.050 -0.6126 -2.3533  1.3945
23053SOL    HW270261   3.862   0.379   6.125 -0.4345 -0.5557 -1.6349
23054SOL     OW70262   6.993   0.370   5.133  0.6589  0.4525 -0.1621
23054SOL    HW170263   6.925   0.408   5.077 -0.1351  1.6189  1.5154
23054SOL    HW270264   7.070   0.366   5.077 -0.1631  1.3331 -1.4168
23055SOL     OW70265   5.252   6.248   8.114 -0.1730 -0.6034 -0.0786
23055SOL    HW170266   5.215   6.162   8.136  0.8128 -1.0374 -0.0969
23055SOL    HW270267   5.226   6.262   8.023  1.4354 -1.8512 -0.7683
23056SOL     OW70268   0.271   3.389   1.075  0.1377 -0.4202  0.1003
23056SOL    HW170269   0.295   3.393   0.982 -0.5331 -0.2316 -0.0661
23056SOL    HW270270   0.215   3.312   1.082 -0.5011  0.0472  0.1868
23057SOL     OW70271   8.059   3.376   3.985  0.3015 -0.5406  0.6778
23057SOL    HW170272   8.097   3.463   3.972 -0.0443 -0.0385  2.6148
23057SOL    HW270273   7.979   3.392   4.037 -0.4315 -1.9109  0.0238
23058SOL     OW70274   2.955   4.473   1.204 -0.1571 -0.1599 -0.3463
23058SOL    HW170275   3.043   4.482   1.168  0.4063  1.2350  1.2858
23058SOL    HW270276   2.950   4.538   1.274 -2.3262 -0.5354 -0.0707
23059SOL     OW70277   3.202   2.828   1.744 -0.2838  0.1007 -0.0566
23059SOL    HW170278   3.152   2.795   1.819  1.5014 -0.7221  0.8282
23059SOL    HW270279   3.168   2.778   1.669 -0.4001 -0.8603  0.6116
23060SOL     OW70280   5.643   9.129   2.549 -0.1666 -0.1702 -0.5427
23060SOL    HW170281   5.638   9.138   2.454 -0.9841  2.0224 -0.3512
23060SOL    HW270282   5.695   9.205   2.577 -0.7174 -0.2683  0.8186
23061SOL     OW70283   8.535   6.147   4.552  0.1659  0.6741 -0.2273
23061SOL    HW170284   8.525   6.166   4.645  0.0187  2.0639 -0.5017
23061SOL    HW270285   8.462   6.090   4.531  1.1999 -1.1717  0.8725
23062SOL     OW70286   2.298   5.623   1.211  0.3058 -0.4015  0.3869
23062SOL    HW170287   2.250   5.656   1.287  1.2850  0.4149  0.6826
23062SOL    HW270288   2.368   5.569   1.249  1.8675  1.3765  0.2333
23063SOL     OW70289   4.708   6.895   5.958 -0.0456  0.3255 -0.4937
23063SOL    HW170290   4.793   6.860   5.931 -0.1168  0.8160 -1.4145
23063SOL    HW270291   4.691   6.856   6.044 -0.4907 -2.5171 -1.7479
23064SOL     OW70292   3.041   4.723   2.295 -0.1778  0.3721  0.0999
23064SOL    HW170293   3.093   4.659   2.247  0.2910  1.1186 -0.4026
23064SOL    HW270294   2.964   4.674   2.324  0.6243 -0.6552  0.5511
23065SOL     OW70295   2.704   7.633   0.054  0.4149  0.1802 -0.2191
23065SOL    HW170296   2.727   7.541   0.040  0.3564 -0.1435  1.4979
23065SOL    HW270297   2.636   7.630   0.122 -0.1746  1.4600 -0.7072
23066SOL     OW70298   1.268   8.950   2.714 -0.1416  0.0400  0.4860
23066SOL    HW170299   1.300   8.992   2.634 -0.1410 -2.8021 -1.1380
23066SOL    HW270300   1.187   8.997   2.734  1.2964  2.7117  0.5881
23067SOL     OW70301   0.815   5.925   0.660  0.2577 -0.2407  0.9161
23067SOL    HW170302   0.877   5.997   0.646 -0.7059  0.6984  1.3892
23067SOL    HW270303   0.871   5.849   0.677  1.3408  0.0069 -1.1647
23068SOL     OW70304   2.527   5.492   1.362 -0.0943  0.7612  0.3981
23068SOL    HW170305   2.588   5.454   1.300 -0.0632 -0.0644  0.9233
23068SOL    HW270306   2.559   5.465   1.448 -0.5771  1.2382  0.7373
23069SOL     OW70307   1.079   7.854   7.303  0.0816 -0.0082  0.1845
23069SOL    HW170308   1.139   7.920   7.269 -1.1852 -0.2196 -2.8359
23069SOL    HW270309   1.028   7.900   7.370  2.0160  0.7999  1.1658
23070SOL     OW70310   8.331   1.003   8.680  0.5276  0.1192 -0.2095
23070SOL    HW170311   8.408   1.019   8.626 -1.6521  2.0346 -3.0113
23070SOL    HW270312   8.284   0.933   8.634  0.7349 -1.3819  1.7318
23071SOL     OW70313   4.930   1.780   4.506 -0.1827 -0.7969  0.6152
23071SOL    HW170314   5.024   1.786   4.524 -0.5156 -0.3686  2.4074
23071SOL    HW270315   4.920   1.816   4.418  1.1292  0.7765  1.0617
23072SOL     OW70316   2.035   7.295   8.311 -0.5692 -0.0583  0.0010
23072SOL    HW170317   1.957   7.350   8.318 -1.3708 -1.1897  0.3112
23072SOL    HW270318   2.013   7.232   8.242 -0.2991 -0.9525  0.7160
23073SOL     OW70319   2.161   8.543   7.999 -0.1604 -0.2470 -0.0496
23073SOL    HW170320   2.163   8.450   8.018  1.6639 -0.5730 -1.5501
23073SOL    HW270321   2.250   8.573   8.015 -0.3736  0.9344 -0.9431
23074SOL     OW70322   7.213   4.250   6.259 -0.3181 -0.1902 -0.0831
23074SOL    HW170323   7.213   4.230   6.352 -1.8509  0.1885  0.0367
23074SOL    HW270324   7.302   4.232   6.230  0.8305  1.7921  1.8983
23075SOL     OW70325   2.584   4.661   6.820  0.5202  0.4958 -0.2021
23075SOL    HW170326   2.507   4.613   6.789 -0.1977  1.4085  0.1053
23075SOL    HW270327   2.590   4.737   6.761  0.5646  0.9735  0.4117
23076SOL     OW70328   7.384   6.789   9.045  0.0134  0.2563  0.1192
23076SOL    HW170329   7.291   6.803   9.062  0.1203  0.4628  0.5676
23076SOL    HW270330   7.404   6.845   8.970  0.1518  1.5884  1.1098
23077SOL     OW70331   5.774   7.122   5.493 -0.2161  0.1449 -0.3008
23077SOL    HW170332   5.767   7.076   5.410 -2.1833  2.3466 -1.4956
23077SOL    HW270333   5.847   7.183   5.481 -0.1822  0.1206 -0.2208
23078SOL     OW70334   2.819   7.526   1.934 -0.2759 -0.8270  0.1917
23078SOL    HW170335   2.831   7.621   1.935  0.1446 -0.8816  0.5369
23078SOL    HW270336   2.856   7.497   2.017 -2.1826 -1.0771  1.0105
23079SOL     OW70337   1.808   2.109   6.383 -0.5591 -0.4686 -0.0580
23079SOL    HW170338   1.731   2.092   6.328 -1.6032  0.9311  0.9019
23079SOL    HW270339   1.806   2.204   6.397  1.3047 -0.4239  0.0816
23080SOL     OW70340   8.430   8.756   6.990  0.7509 -0.3172 -0.3841
23080SOL    HW170341   8.346   8.793   6.964  0.0745 -2.8338 -2.0122
23080SOL    HW270342   8.471   8.826   7.043 -1.4058  1.7664 -1.2913
23081SOL     OW70343   6.003   6.608   7.825  0.0680  0.3392  0.8068
23081SOL    HW170344   6.013   6.659   7.905  0.4506  0.9055  0.4020
23081SOL    HW270345   6.050   6.526   7.843 -0.7110  0.0433  1.5249
23082SOL     OW70346   5.453   8.478   5.879  0.2430 -0.7307 -0.3507
23082SOL    HW170347   5.497   8.563   5.881 -1.5173  0.2104  0.2156
23082SOL    HW270348   5.523   8.415   5.897  1.1012  0.8345  2.4634
23083SOL     OW70349   1.205   0.141   2.126  0.4162 -0.1411  0.3832
23083SOL    HW170350   1.282   0.197   2.116 -0.4654  1.2830  1.1548
23083SOL    HW270351   1.227   0.082   2.199  1.2679 -0.6529 -0.2786
23084SOL     OW70352   6.020   0.400   6.728  0.0917 -0.1542 -0.7298
23084SOL    HW170353   6.019   0.490   6.761 -1.8834 -0.4223  0.0491
23084SOL    HW270354   6.105   0.366   6.757  0.1548  0.9324  0.4847
23085SOL     OW70355   7.915   0.325   5.860  0.4334  0.0503  0.1395
23085SOL    HW170356   7.897   0.280   5.942 -3.4760  0.7841 -0.1076
23085SOL    HW270357   7.880   0.266   5.793  0.1425  1.0853 -0.6412
23086SOL     OW70358   7.069   8.101   2.577 -0.1569  0.4584  0.3267
23086SOL    HW170359   7.022   8.019   2.591 -0.5447  0.4206 -1.0748
23086SOL    HW270360   7.004   8.160   2.540  0.8737  0.3781 -1.7284
23087SOL     OW70361   0.747   2.755   8.511 -0.5219  0.5900 -0.6487
23087SOL    HW170362   0.837   2.724   8.500 -1.1723 -0.9248 -2.1638
23087SOL    HW270363   0.744   2.839   8.465  0.1521  0.7448 -0.4130
23088SOL     OW70364   1.853   1.006   7.303 -0.4007 -0.0877 -0.2325
23088SOL    HW170365   1.846   1.068   7.376 -2.4217 -0.8848  0.3300
23088SOL    HW270366   1.902   1.053   7.237  0.6180  1.0429  1.2501
23089SOL     OW70367   3.730   8.236   1.949 -0.0515  0.2182 -0.0231
23089SOL    HW170368   3.705   8.310   2.004  0.5904  1.3853 -1.2351
23089SOL    HW270369   3.715   8.268   1.859 -0.6149 -1.4469 -0.5543
23090SOL     OW70370   8.825   3.313   6.503  0.7418 -0.2002  0.4614
23090SOL    HW170371   8.891   3.282   6.442  1.5057 -0.8207  1.5573
23090SOL    HW270372   8.873   3.329   6.585 -0.5754 -1.5199  1.5589
23091SOL     OW70373   8.544   2.595   5.585 -0.3630 -0.2361 -0.0384
23091SOL    HW170374   8.498   2.583   5.668 -0.6566 -1.0852 -0.3095
23091SOL    HW270375   8.636   2.601   5.609 -0.3896 -1.0896  0.3042
23092SOL     OW70376   1.705   3.395   7.978  0.2093 -0.3348  0.2863
23092SOL    HW170377   1.649   3.471   7.993  0.7989  0.0947  0.3357
23092SOL    HW270378   1.680   3.334   8.047 -0.0267 -0.0474  0.4602
23093SOL     OW70379   6.024   6.330   3.789 -0.3376 -0.4763  0.1006
23093SOL    HW170380   5.998   6.250   3.836  1.4359 -1.8153 -1.0536
23093SOL    HW270381   6.117   6.340   3.810  0.3660 -0.7796 -2.5753
23094SOL     OW70382   4.694   1.176   1.585  0.2363  0.6022 -0.0742
23094SOL    HW170383   4.722   1.209   1.670 -0.1407 -1.9199  1.1366
23094SOL    HW270384   4.735   1.234   1.521  1.3710  1.9596  1.8066
23095SOL     OW70385   1.388   3.713   3.637 -1.0155 -0.1325  0.0098
23095SOL    HW170386   1.472   3.758   3.623 -1.7084  1.2554  0.0840
23095SOL    HW270387   1.323   3.779   3.613 -2.1059 -0.5943  1.6059
23096SOL     OW70388   5.487   7.771   3.638  0.5657 -0.5396 -0.1346
23096SOL    HW170389   5.557   7.820   3.593  0.1869 -0.2234 -0.3858
23096SOL    HW270390   5.486   7.686   3.595 -0.0812 -0.0949 -1.0243
23097SOL     OW70391   0.873   4.149   2.382 -0.0015  0.3796  0.0434
23097SOL    HW170392   0.891   4.069   2.433  1.1168 -0.1009 -1.0483
23097SOL    HW270393   0.824   4.205   2.442  2.7784  0.6171  2.3552
23098SOL     OW70394   7.610   1.847   6.701 -0.3134 -0.0583  0.3079
23098SOL    HW170395   7.596   1.941   6.713 -0.3526 -0.2287  1.7957
23098SOL    HW270396   7.591   1.809   6.787  1.4255 -1.2249  0.2237
23099SOL     OW70397   3.165   2.726   0.968 -0.1788 -0.0427  0.4145
23099SOL    HW170398   3.098   2.716   1.036 -0.4760 -1.5756 -0.0467
23099SOL    HW270399   3.172   2.638   0.930 -0.3804  0.8762 -1.8637
23100SOL     OW70400   0.794   8.756   3.149  0.3119  0.3620  0.4197
23100SOL    HW170401   0.705   8.790   3.160 -0.1398 -0.9087  0.8833
23100SOL    HW270402   0.843   8.829   3.110 -1.0997  0.8532 -0.5135
23101SOL     OW70403   1.112   7.947   3.021 -0.4513  0.2580 -0.1774
23101SOL    HW170404   1.083   7.858   2.999 -1.0279  0.4644 -0.2681
23101SOL    HW270405   1.031   7.996   3.037 -0.1009  0.4676  1.0805
23102SOL     OW70406   8.341   5.959   4.535  0.3872  0.0780 -0.1122
23102SOL    HW170407   8.279   6.025   4.565  0.9803  0.5892 -0.0172
23102SOL    HW270408   8.310   5.937   4.446 -0.5708 -0.4699  0.3365
23103SOL     OW70409   3.225   3.089   4.363  0.3594 -0.5347 -0.4370
23103SOL    HW170410   3.308   3.133   4.344 -0.3400  0.8619 -0.3658
23103SOL    HW270411   3.229   3.008   4.312  0.4066  1.0199 -3.0706
23104SOL     OW70412   5.894   6.099   2.060 -0.0650 -0.5045  0.6443
23104SOL    HW170413   5.800   6.112   2.067  0.1235  0.6170  1.5672
23104SOL    HW270414   5.914   6.112   1.968 -0.8238 -0.8227  0.4343
23105SOL     OW70415   2.495   1.727   2.602 -0.3312  0.3403 -0.4789
23105SOL    HW170416   2.408   1.765   2.589 -0.4485  1.2629  2.3280
23105SOL    HW270417   2.548   1.799   2.635  1.0541 -0.6243 -0.5124
23106SOL     OW70418   6.656   0.364   3.915 -0.0793 -0.5234  0.0365
23106SOL    HW170419   6.718   0.355   3.842 -0.0242 -1.1052  0.1521
23106SOL    HW270420   6.699   0.321   3.989 -0.1677  0.0006  0.4028
23107SOL     OW70421   1.112   3.594   0.929  0.0668  0.5794  0.2110
23107SOL    HW170422   1.112   3.536   1.005 -0.7425  0.2601 -0.0218
23107SOL    HW270423   1.198   3.636   0.931  0.9649 -1.1480  0.0034
23108SOL     OW70424   3.587   0.623   5.489 -0.3129 -0.4184  0.5096
23108SOL    HW170425   3.602   0.589   5.577  0.1039 -0.0255  0.5911
23108SOL    HW270426   3.651   0.693   5.479 -0.0065 -0.8024 -0.2980
23109SOL     OW70427   0.842   7.455   2.455  0.0311 -0.3141  0.7477
23109SOL    HW170428   0.856   7.391   2.385 -3.7601  0.2594 -0.7747
23109SOL    HW270429   0.865   7.539   2.415 -1.8199 -0.0234  0.2026
23110SOL     OW70430   4.684   6.345   4.318 -0.2743 -0.1488  0.3377
23110SOL    HW170431   4.676   6.267   4.262 -1.1631  0.2028 -0.0316
23110SOL    HW270432   4.595   6.377   4.328  0.0172  0.4801  0.9950
23111SOL     OW70433   0.174   7.279   7.105 -0.0270  0.2819  0.6530
23111SOL    HW170434   0.238   7.209   7.114  1.1628  1.3659  0.8368
23111SOL    HW270435   0.225   7.360   7.109 -1.3721  1.1757  0.5396
23112SOL     OW70436   7.547   6.363   5.276 -0.6843  0.1723  0.0967
23112SOL    HW170437   7.560   6.430   5.209 -0.9125 -0.1474 -0.2696
23112SOL    HW270438   7.452   6.357   5.286 -0.6535  0.1967  0.4318
23113SOL     OW70439   4.987   0.292   2.543 -0.0853 -0.1174 -0.1700
23113SOL    HW170440   5.015   0.286   2.452 -0.3085  1.8765 -0.4145
23113SOL    HW270441   4.984   0.386   2.561  2.1043 -0.4318  2.5654
23114SOL     OW70442   7.883   7.165   8.301 -0.6487 -0.2437 -0.1104
23114SOL    HW170443   7.943   7.093   8.281 -1.1795 -0.6124 -0.4391
23114SOL    HW270444   7.881   7.169   8.396 -0.3483 -0.4456 -0.0950
23115SOL     OW70445   6.991   5.430   4.975 -0.2324  0.3073 -0.8679
23115SOL    HW170446   7.031   5.506   4.933 -0.2918 -0.3904 -2.2440
23115SOL    HW270447   7.065   5.372   4.996 -0.3248 -0.0398 -1.4710
23116SOL     OW70448   8.257   3.687   7.621  0.2224 -0.3233 -0.0061
23116SOL    HW170449   8.282   3.627   7.550 -1.1485 -1.5182  0.4750
23116SOL    HW270450   8.181   3.733   7.587 -0.1935 -0.6045  0.5326
23117SOL     OW70451   8.392   8.975   6.004 -0.7004 -0.7378 -0.2074
23117SOL    HW170452   8.474   8.981   5.955 -0.2533 -0.5835  0.5374
23117SOL    HW270453   8.346   9.057   5.985  0.1372 -0.0104  0.7674
23118SOL     OW70454   0.429   6.294   0.050  0.0519 -0.4847  0.1461
23118SOL    HW170455   0.493   6.355   0.088 -1.0041  0.3180  0.6748
23118SOL    HW270456   0.377   6.264   0.125  0.6966 -2.2418 -0.0707
23119SOL     OW70457   7.093   7.813   6.583  0.3283  0.8881  0.0366
23119SOL    HW170458   7.151   7.736   6.578 -0.2728  0.3917  0.6040
23119SOL    HW270459   7.065   7.816   6.674  1.9755  3.0156  0.5522
23120SOL     OW70460   5.556   9.061   6.878  0.4601  0.0383  0.3286
23120SOL    HW170461   5.542   9.155   6.887  1.1218  0.1604  0.1145
23120SOL    HW270462   5.525   9.039   6.791 -0.8416 -0.1708  0.8196
23121SOL     OW70463   6.859   2.357   5.498 -0.2749  0.2023 -0.0448
23121SOL    HW170464   6.816   2.307   5.428 -0.0303  0.8495 -0.6659
23121SOL    HW270465   6.836   2.310   5.578 -2.4853  0.7230 -0.2920
23122SOL     OW70466   7.712   0.423   6.385 -0.0672  0.2299  0.2632
23122SOL    HW170467   7.640   0.420   6.321  0.4916 -0.8891 -0.3514
23122SOL    HW270468   7.702   0.342   6.435  1.9796 -1.0678 -1.2476
23123SOL     OW70469   7.676   6.171   7.989  0.7079 -0.4795  0.0868
23123SOL    HW170470   7.657   6.155   8.082 -0.2506 -1.5042 -0.2651
23123SOL    HW270471   7.721   6.092   7.960 -0.0803 -0.6838 -0.6100
23124SOL     OW70472   8.422   7.891   0.714  0.3524 -0.7364  0.7310
23124SOL    HW170473   8.336   7.903   0.754  0.4285  0.7071  0.5186
23124SOL    HW270474   8.461   7.979   0.715  2.0303 -1.4397  1.2915
23125SOL     OW70475   3.714   2.786   7.545  0.5356  0.0902 -0.4304
23125SOL    HW170476   3.796   2.830   7.524 -0.9075  2.6863 -1.0724
23125SOL    HW270477   3.677   2.837   7.618 -0.1669 -1.5158  0.3891
23126SOL     OW70478   5.568   4.246   4.854  0.1570 -0.2039 -0.4924
23126SOL    HW170479   5.520   4.276   4.777  0.3344  0.2135 -0.4458
23126SOL    HW270480   5.503   4.201   4.907  0.3257 -1.7606 -1.5434
23127SOL     OW70481   0.020   1.179   0.725  0.3081  0.6231  0.3779
23127SOL    HW170482   0.045   1.091   0.696  2.6867  2.1619 -2.8001
23127SOL    HW270483   0.034   1.177   0.820  0.8429 -2.2321  0.3488
23128SOL     OW70484   0.089   4.094   8.911  0.4791 -0.2622  0.1016
23128SOL    HW170485   0.150   4.165   8.934 -2.4277  2.2629  0.6188
23128SOL    HW270486   0.050   4.123   8.829 -1.1745 -0.9555  0.6139
23129SOL     OW70487   1.838   1.354   5.141 -0.5681 -0.4315  0.1509
23129SOL    HW170488   1.773   1.424   5.132 -0.8055 -0.5846  0.6773
23129SOL    HW270489   1.854   1.325   5.051 -0.7445  0.0429 -0.0401
23130SOL     OW70490   7.028   2.751   5.769  0.4401 -0.7908 -0.3105
23130SOL    HW170491   6.946   2.703   5.773 -0.5656  0.9294  1.0357
23130SOL    HW270492   7.015   2.817   5.701  0.9500 -0.9132 -0.5368
23131SOL     OW70493   0.863   4.333   3.224  0.7076 -0.3961 -0.2687
23131SOL    HW170494   0.805   4.257   3.219 -0.3589  0.4265 -1.0290
23131SOL    HW270495   0.879   4.346   3.317 -0.1377 -0.7889 -0.0628
23132SOL     OW70496   7.904   7.329   2.625  0.3982 -0.2711 -0.6757
23132SOL    HW170497   7.881   7.307   2.535  0.7624  0.1903 -0.8835
23132SOL    HW270498   7.987   7.285   2.640 -0.7277 -2.2461  0.1972
23133SOL     OW70499   7.942   8.342   1.671 -0.1305 -0.4085  0.3570
23133SOL    HW170500   7.875   8.395   1.714  0.5125  1.3234 -0.6659
23133SOL    HW270501   7.894   8.267   1.636 -0.7852 -1.5569  3.3921
23134SOL     OW70502   5.729   1.671   4.793  0.2719 -0.0133 -0.1344
23134SOL    HW170503   5.749   1.750   4.842 -0.1253  0.4941 -0.7730
23134SOL    HW270504   5.712   1.605   4.860  0.7225  0.4087  0.4010
23135SOL     OW70505   4.337   0.742   6.845 -0.3764 -0.0985 -0.4901
23135SOL    HW170506   4.307   0.831   6.862  0.0500 -0.1141  0.4611
23135SOL    HW270507   4.314   0.693   6.925  0.1058 -0.6414 -0.6726
23136SOL     OW70508   0.828   8.367   7.547 -0.5335  0.4175 -0.0555
23136SOL    HW170509   0.837   8.284   7.500 -0.6744  0.0669  0.5409
23136SOL    HW270510   0.840   8.434   7.479 -2.1807 -0.0783 -0.8646
23137SOL     OW70511   3.690   7.825   0.470 -0.1537 -0.1833  0.1788
23137SOL    HW170512   3.661   7.885   0.400  1.5649  2.2289  1.3933
23137SOL    HW270513   3.751   7.766   0.426  0.6784  1.1009 -0.4749
23138SOL     OW70514   6.094   0.306   7.291  0.4628  0.0316 -0.5063
23138SOL    HW170515   6.016   0.356   7.268 -0.3533 -1.3366 -0.8512
23138SOL    HW270516   6.142   0.299   7.208 -0.2134 -1.0492 -0.8323
23139SOL     OW70517   4.985   3.091   0.753 -0.3342  0.3265  0.0790
23139SOL    HW170518   5.064   3.144   0.747 -0.3972  0.4514  0.3474
23139SOL    HW270519   4.971   3.059   0.664  1.0235 -1.1745  0.3755
23140SOL     OW70520   5.341   4.349   2.949  0.1089 -0.0426 -0.0975
23140SOL    HW170521   5.257   4.357   2.994  0.1808 -0.3346  0.0918
23140SOL    HW270522   5.324   4.380   2.860  0.3191  1.9635  0.5191
23141SOL     OW70523   0.323   7.881   3.988 -0.4829  0.3511  0.3780
23141SOL    HW170524   0.318   7.945   4.059 -2.4939 -0.9866  1.5365
23141SOL    HW270525   0.234   7.877   3.953 -0.8890 -2.9654  1.4687
23142SOL     OW70526   5.726   4.390   8.295 -0.3234  0.0101  0.5862
23142SOL    HW170527   5.821   4.396   8.305 -0.3522  0.0598  0.8195
23142SOL    HW270528   5.692   4.393   8.384 -0.4834 -1.1042  0.5795
23143SOL     OW70529   4.103   1.288   3.038  0.2853 -0.1578 -0.2516
23143SOL    HW170530   4.063   1.267   3.123  0.1913  0.6742 -0.0820
23143SOL    HW270531   4.185   1.239   3.038  1.4761  1.6764  1.3816
23144SOL     OW70532   1.311   1.696   3.181  0.2100  0.2418  0.6529
23144SOL    HW170533   1.346   1.615   3.218 -0.1542  0.5365  1.6823
23144SOL    HW270534   1.216   1.685   3.185  0.1420  1.0054  1.4987
23145SOL     OW70535   2.064   0.525   7.358 -0.5339 -1.2412 -0.0731
23145SOL    HW170536   1.978   0.483   7.366 -0.7761 -0.7549 -0.0903
23145SOL    HW270537   2.055   0.607   7.407  0.1068 -1.4648  0.4285
23146SOL     OW70538   7.136   6.899   9.121  0.3244  0.1674 -0.0862
23146SOL    HW170539   7.061   6.839   9.124  0.8335 -0.5225 -0.6229
23146SOL    HW270540   7.133   6.946   9.204 -0.3721 -0.2585  0.1398
23147SOL     OW70541   4.826   0.865   6.734  0.1249 -0.1529  0.0680
23147SOL    HW170542   4.920   0.867   6.751  0.3487  0.2698 -1.1387
23147SOL    HW270543   4.818   0.845   6.641 -0.8914  1.8025 -0.3297
23148SOL     OW70544   6.521   0.468   4.902 -0.0041 -0.4039 -0.3193
23148SOL    HW170545   6.471   0.528   4.847 -0.8643 -1.0696 -0.2917
23148SOL    HW270546   6.532   0.390   4.847 -1.6986 -1.4529  0.7390
23149SOL     OW70547   0.366   3.399   5.766 -0.4456 -0.2582 -0.4643
23149SOL    HW170548   0.379   3.305   5.766 -1.7865 -0.5006  1.6131
23149SOL    HW270549   0.447   3.435   5.730 -0.4583 -2.2168 -2.6274
23150SOL     OW70550   0.236   0.312   0.276  0.1294  0.5210  0.4129
23150SOL    HW170551   0.308   0.333   0.336  0.3211  0.5004  0.1884
23150SOL    HW270552   0.169   0.377   0.297 -0.1332 -0.0015  1.2293
23151SOL     OW70553   0.172   1.553   4.526  0.3758 -0.4292  0.5728
23151SOL    HW170554   0.221   1.634   4.510 -0.9248  0.1161 -0.9036
23151SOL    HW270555   0.149   1.521   4.438 -0.3858 -1.6202  1.1796
23152SOL     OW70556   6.239   5.423   5.493  0.1218  0.4907  0.5112
23152SOL    HW170557   6.213   5.387   5.578 -0.7610  1.2392  0.5706
23152SOL    HW270558   6.334   5.433   5.500  0.1143  0.1158  1.2446
23153SOL     OW70559   9.108   4.663   6.200 -0.3013 -0.1916  0.2977
23153SOL    HW170560   9.153   4.746   6.212 -1.8029  0.5681  0.9983
23153SOL    HW270561   9.156   4.601   6.256  0.2458  0.4216  0.5146
23154SOL     OW70562   6.617   7.640   6.316 -0.1022 -0.1138  0.7511
23154SOL    HW170563   6.536   7.687   6.295 -0.9732 -1.3855  1.1020
23154SOL    HW270564   6.606   7.615   6.408 -0.3013 -2.1161  0.2413
23155SOL     OW70565   2.560   1.596   6.558 -0.3644 -0.9327  0.5551
23155SOL    HW170566   2.492   1.530   6.546 -0.1471 -0.6285 -3.3837
23155SOL    HW270567   2.638   1.560   6.516  0.0149  1.3515 -0.8770
23156SOL     OW70568   8.336   2.882   2.670 -0.1596 -0.5585 -0.0657
23156SOL    HW170569   8.263   2.828   2.700 -1.7287  1.9282  0.9155
23156SOL    HW270570   8.301   2.930   2.595  0.7585  0.0624 -0.1111
23157SOL     OW70571   2.645   5.340   2.317 -0.1788 -0.5149  0.3098
23157SOL    HW170572   2.633   5.433   2.300 -1.2286 -0.8072 -0.6116
23157SOL    HW270573   2.738   5.332   2.341  0.7584  0.3738 -2.5468
23158SOL     OW70574   0.366   2.331   3.085  0.0026 -0.0203  0.1569
23158SOL    HW170575   0.327   2.365   3.005  0.6123 -3.3069 -1.7241
23158SOL    HW270576   0.412   2.251   3.058  0.9160 -0.8848  3.6704
23159SOL     OW70577   5.536   0.237   6.245  0.3266  0.0350 -0.2475
23159SOL    HW170578   5.596   0.269   6.177  0.0105  1.1354 -0.0286
23159SOL    HW270579   5.591   0.231   6.324 -0.0398  2.0854  0.2226
23160SOL     OW70580   1.151   5.741   1.537  0.3364 -0.2964  0.2798
23160SOL    HW170581   1.138   5.835   1.539 -0.7146 -0.3556 -1.5829
23160SOL    HW270582   1.178   5.718   1.626  2.2815  1.9457  0.3487
23161SOL     OW70583   2.673   4.963   3.981  0.4007 -0.1087  0.1409
23161SOL    HW170584   2.619   5.009   4.045 -0.2183  0.1584 -0.5499
23161SOL    HW270585   2.759   5.004   3.988  0.0558  0.6465  0.0657
23162SOL     OW70586   7.657   1.630   1.186  0.8534 -0.4361 -0.3963
23162SOL    HW170587   7.613   1.715   1.174  2.1042  0.1627 -1.0176
23162SOL    HW270588   7.661   1.618   1.280 -2.4162 -1.5119 -0.2858
23163SOL     OW70589   7.095   6.154   3.674 -0.7177 -0.1665 -0.2112
23163SOL    HW170590   7.118   6.191   3.589 -0.7820  1.1887  0.3388
23163SOL    HW270591   7.134   6.213   3.738  1.1183 -2.2775  0.7536
23164SOL     OW70592   6.241   8.054   5.992 -0.0777  0.0502 -0.2427
23164SOL    HW170593   6.189   8.057   6.073 -0.5043  0.2832 -0.5219
23164SOL    HW270594   6.279   8.142   5.986  0.6946 -0.2527  0.1853
23165SOL     OW70595   2.704   7.149   8.113  0.3683  0.0739  0.3835
23165SOL    HW170596   2.749   7.209   8.053 -1.1530  1.4954  0.5718
23165SOL    HW270597   2.629   7.117   8.064  1.0102 -1.5286  0.3849
23166SOL     OW70598   7.206   1.141   5.804  0.0803  0.8271  0.2305
23166SOL    HW170599   7.203   1.228   5.764  0.7802  1.6173  1.7983
23166SOL    HW270600   7.297   1.131   5.832 -0.3417  0.2851  1.4855
23167SOL     OW70601   9.006   2.785   6.462 -0.1408  0.5064  0.0562
23167SOL    HW170602   8.999   2.741   6.378  0.7713 -0.9349  0.7023
23167SOL    HW270603   8.964   2.870   6.448 -1.2187 -0.2313 -1.4520
23168SOL     OW70604   6.982   7.634   5.290 -0.4243  0.4690  0.1458
23168SOL    HW170605   7.009   7.684   5.213 -1.2080  0.6831  0.0002
23168SOL    HW270606   6.979   7.543   5.261  1.8422  0.1808  0.6353
23169SOL     OW70607   0.849   0.457   7.949  0.8117  0.3969 -0.0583
23169SOL    HW170608   0.770   0.489   7.992 -0.4748 -1.8702 -0.5316
23169SOL    HW270609   0.866   0.519   7.879  0.1765  1.5713  0.8013
23170SOL     OW70610   0.726   7.204   4.903 -0.4202  0.2411 -0.3396
23170SOL    HW170611   0.635   7.177   4.889 -0.4864 -0.6236  1.4671
23170SOL    HW270612   0.769   7.126   4.937  0.7724  0.9032 -0.2788
23171SOL     OW70613   5.140   3.351   2.538 -0.1358 -0.1208 -0.1959
23171SOL    HW170614   5.113   3.286   2.473  0.2043 -0.9553  0.4785
23171SOL    HW270615   5.064   3.359   2.596  0.5722 -1.5789  1.0019
23172SOL     OW70616   0.718   4.568   6.135  0.2634  0.3815 -0.2313
23172SOL    HW170617   0.718   4.620   6.055 -1.3595 -0.1395 -0.6148
23172SOL    HW270618   0.628   4.573   6.167  0.4050 -1.0304  0.4796
23173SOL     OW70619   1.739   8.422   6.562 -0.0758 -0.8058 -0.1848
23173SOL    HW170620   1.761   8.488   6.628 -0.9596 -0.7713  0.0950
23173SOL    HW270621   1.802   8.436   6.492 -0.7574  0.9153 -0.5115
23174SOL     OW70622   8.695   2.351   4.240  0.2397 -0.1335  0.1376
23174SOL    HW170623   8.698   2.403   4.320  1.0906 -0.5902  0.4199
23174SOL    HW270624   8.771   2.381   4.190  0.6082 -0.9303  0.2050
23175SOL     OW70625   9.132   8.943   5.121 -0.0566 -0.1345  0.2085
23175SOL    HW170626   9.084   8.960   5.202  0.4818  1.3266  0.2546
23175SOL    HW270627   9.214   8.904   5.149  0.1320  0.3750  0.3933
23176SOL     OW70628   6.947   2.107   6.781 -0.0429 -0.1304  0.2672
23176SOL    HW170629   6.904   2.027   6.811 -1.5382  0.8555  0.8647
23176SOL    HW270630   6.945   2.166   6.856  1.0360  0.4731 -0.1585
23177SOL     OW70631   0.422   7.751   0.211 -0.5476  0.2417 -1.0434
23177SOL    HW170632   0.443   7.842   0.229  0.0034 -0.1479  0.3677
23177SOL    HW270633   0.341   7.735   0.259  1.1059 -0.8950  1.5886
23178SOL     OW70634   3.856   0.873   1.662  0.3564  0.3273  0.2132
23178SOL    HW170635   3.914   0.814   1.710  0.7305  0.1159 -0.4946
23178SOL    HW270636   3.801   0.814   1.609  0.5058  0.6016 -0.2457
23179SOL     OW70637   2.630   5.137   8.063 -0.0867 -0.1653  0.6472
23179SOL    HW170638   2.656   5.213   8.012  0.1037 -1.0256 -0.5722
23179SOL    HW270639   2.537   5.150   8.081 -0.5008 -0.4648 -1.0831
23180SOL     OW70640   4.367   1.189   0.420  0.5458 -0.1510  0.3007
23180SOL    HW170641   4.329   1.105   0.392 -0.0252  0.9734 -2.6273
23180SOL    HW270642   4.455   1.188   0.383 -0.0529  1.1882 -1.2702
23181SOL     OW70643   8.004   5.979   2.327  0.0677  0.1289  0.4393
23181SOL    HW170644   8.026   6.042   2.258  0.2816 -0.4086  0.0186
23181SOL    HW270645   7.913   5.998   2.348 -2.2680 -3.6530 -4.3358
23182SOL     OW70646   3.078   2.284   3.709 -0.0805 -0.2449 -0.7529
23182SOL    HW170647   3.173   2.291   3.707 -0.0883  0.5504  0.5231
23182SOL    HW270648   3.060   2.211   3.768 -0.2677 -0.9170 -1.6158
23183SOL     OW70649   2.431   1.560   2.046 -0.3187  0.6657 -0.0046
23183SOL    HW170650   2.525   1.553   2.065 -0.4357 -2.2312  0.0335
23183SOL    HW270651   2.391   1.579   2.130  0.1052 -0.2798  0.4311
23184SOL     OW70652   3.752   3.398   6.606 -0.0038 -0.2251  0.1798
23184SOL    HW170653   3.820   3.330   6.604 -0.1315 -0.3296 -0.7876
23184SOL    HW270654   3.767   3.450   6.527  0.2724  1.0648  1.0481
23185SOL     OW70655   7.013   2.890   1.987  0.5015  0.1614 -0.3986
23185SOL    HW170656   6.955   2.931   2.051  1.0320  0.0941  0.1259
23185SOL    HW270657   7.098   2.887   2.030  0.3761 -2.0378 -0.1905
23186SOL     OW70658   8.510   1.869   5.880 -0.2076 -0.6207  0.1051
23186SOL    HW170659   8.554   1.892   5.798  1.6695 -0.5704  1.0853
23186SOL    HW270660   8.511   1.774   5.883  0.7465 -0.6111  0.5644
23187SOL     OW70661   2.636   5.138   1.407  0.2877  0.2286 -0.2132
23187SOL    HW170662   2.651   5.176   1.321  0.2151  0.4479 -0.1283
23187SOL    HW270663   2.662   5.206   1.469 -1.4248  0.7833 -0.0588
23188SOL     OW70664   6.310   5.128   7.502 -0.1786  0.3972  0.0303
23188SOL    HW170665   6.305   5.078   7.583  1.1011 -1.4681 -0.9717
23188SOL    HW270666   6.382   5.189   7.515  0.1084  0.0133  0.2509
23189SOL     OW70667   0.030   3.484   6.463 -0.0943  0.0155  0.0839
23189SOL    HW170668   0.079   3.564   6.479  0.0814  0.0836 -0.7411
23189SOL    HW270669  -0.038   3.483   6.530 -1.9599  2.3524 -1.6004
23190SOL     OW70670   6.493   8.388   6.726 -0.1145 -0.2347 -0.1170
23190SOL    HW170671   6.478   8.481   6.708  0.1217 -0.0147  0.7498
23190SOL    HW270672   6.586   8.375   6.710  0.3436  0.2271  1.9044
23191SOL     OW70673   0.617   2.970   7.488  0.2060 -0.0763  0.4114
23191SOL    HW170674   0.617   2.933   7.400 -2.3248 -0.1220  0.3550
23191SOL    HW270675   0.637   2.896   7.545  1.6705 -0.0853 -0.0656
23192SOL     OW70676   2.244   2.360   1.218 -0.3665  0.2355 -0.3179
23192SOL    HW170677   2.215   2.375   1.127 -1.5592  0.5680  0.0917
23192SOL    HW270678   2.188   2.417   1.270 -2.4473 -2.7370  0.9820
23193SOL     OW70679   5.972   1.337   6.546  0.1177 -0.4354 -0.2076
23193SOL    HW170680   5.913   1.282   6.494 -0.9941 -0.3860  0.9484
23193SOL    HW270681   5.914   1.401   6.589  0.9071 -0.7786  1.4564
23194SOL     OW70682   4.101   7.850   1.510 -0.8279  0.7781 -0.0432
23194SOL    HW170683   4.055   7.819   1.589 -1.3228  1.4157 -0.0767
23194SOL    HW270684   4.190   7.867   1.540 -0.9095  0.6354  0.2894
23195SOL     OW70685   7.437   2.208   8.781  0.4361 -0.5105 -0.2475
23195SOL    HW170686   7.441   2.239   8.872  0.4921  0.6092 -0.6104
23195SOL    HW270687   7.517   2.241   8.741  0.4023 -0.9791 -0.7101
23196SOL     OW70688   5.213   8.034   2.867 -0.3717  0.3931 -0.2283
23196SOL    HW170689   5.265   8.099   2.915 -0.4336  0.4237 -0.2021
23196SOL    HW270690   5.261   8.020   2.786 -1.1236  1.5960 -0.9170
23197SOL     OW70691   0.094   8.794   6.273 -0.0006  0.3000 -0.5593
23197SOL    HW170692   0.118   8.883   6.297 -2.4843  0.9331 -0.1201
23197SOL    HW270693   0.090   8.795   6.177 -0.0716  0.6767 -0.5541
23198SOL     OW70694   0.413   3.851   3.699 -0.5189 -0.0407  0.4855
23198SOL    HW170695   0.396   3.931   3.749 -1.1006  0.3914 -0.3787
23198SOL    HW270696   0.402   3.780   3.763 -1.6856  0.4747  0.8835
23199SOL     OW70697   8.888   6.204   0.026  0.0335  0.0985 -0.7503
23199SOL    HW170698   8.887   6.239  -0.063  0.0942  1.2789 -0.3061
23199SOL    HW270699   8.910   6.279   0.081  0.1864 -0.6557  0.2457
23200SOL     OW70700   1.260   2.406   2.611  1.0273  0.2549  0.3529
23200SOL    HW170701   1.188   2.344   2.627  1.3323 -0.1522  0.1538
23200SOL    HW270702   1.218   2.492   2.613  0.7946  0.1336  1.8563
23201SOL     OW70703   4.596   2.604   6.870  0.4115  0.2726  0.2068
23201SOL    HW170704   4.532   2.640   6.808 -0.9791  0.2295  1.5661
23201SOL    HW270705   4.654   2.677   6.890 -1.0248  1.1911  1.2148
23202SOL     OW70706   2.175   1.924   5.795  0.3854  0.0516 -0.2882
23202SOL    HW170707   2.211   2.010   5.771 -0.7668  1.1580  1.6515
23202SOL    HW270708   2.223   1.898   5.873 -0.5525 -0.1367  0.2503
23203SOL     OW70709   5.418   9.046   2.642  0.3805 -0.1109  0.1531
23203SOL    HW170710   5.500   9.094   2.627  0.3254 -0.3490 -1.0867
23203SOL    HW270711   5.385   9.028   2.554 -1.7175  1.1457  0.6044
23204SOL     OW70712   1.608   3.818   4.941 -0.6619  0.6771 -0.6701
23204SOL    HW170713   1.591   3.912   4.946 -1.2632  0.5165  0.8959
23204SOL    HW270714   1.625   3.792   5.031  0.0732 -0.6292 -1.1544
23205SOL     OW70715   3.586   3.534   8.159 -0.1527 -0.3226  0.1930
23205SOL    HW170716   3.544   3.617   8.183 -0.3586 -0.4869  0.3933
23205SOL    HW270717   3.641   3.512   8.234  0.3148 -0.0926 -0.0818
23206SOL     OW70718   1.189   5.013   8.699  0.4014  0.2257  0.0274
23206SOL    HW170719   1.222   4.926   8.721 -1.5094 -1.0740 -1.7640
23206SOL    HW270720   1.161   5.005   8.608  1.4764  3.1812 -0.6696
23207SOL     OW70721   7.167   2.247   8.637 -0.6016  0.5277 -0.5606
23207SOL    HW170722   7.225   2.214   8.705 -0.2928  1.2951 -0.4467
23207SOL    HW270723   7.177   2.185   8.565 -0.2221  0.2317 -0.2589
23208SOL     OW70724   0.935   6.235   7.384  0.5487 -0.1782 -0.4671
23208SOL    HW170725   0.962   6.326   7.370  1.9638 -0.4900  0.1142
23208SOL    HW270726   0.943   6.221   7.478 -1.7770 -0.2926 -0.2185
23209SOL     OW70727   6.597   0.098   2.173  0.0583  0.2744 -0.4537
23209SOL    HW170728   6.677   0.056   2.205  0.4476 -0.0094 -1.7229
23209SOL    HW270729   6.540   0.024   2.150 -0.3356  0.4750 -0.1340
23210SOL     OW70730   5.683   2.301   5.192 -0.4692  0.0104 -0.3086
23210SOL    HW170731   5.753   2.239   5.213 -1.4709 -1.4082 -0.9824
23210SOL    HW270732   5.650   2.271   5.107 -2.9319 -0.3147  0.7066
23211SOL     OW70733   7.779   1.059   3.557 -0.1712  0.0027 -0.0347
23211SOL    HW170734   7.769   0.964   3.545 -0.1729 -0.0368  0.2626
23211SOL    HW270735   7.870   1.070   3.585 -0.7428 -0.1522  2.1091
23212SOL     OW70736   0.942   7.267   5.180 -0.1776 -0.2301  0.1250
23212SOL    HW170737   0.974   7.237   5.095 -1.8899 -0.5333 -0.4401
23212SOL    HW270738   0.947   7.363   5.174  0.3373 -0.2603 -0.0415
23213SOL     OW70739   0.670   3.544   3.558 -0.1195 -0.1093 -0.0140
23213SOL    HW170740   0.578   3.519   3.547  0.0669 -1.4991  1.1348
23213SOL    HW270741   0.676   3.572   3.650  0.6113 -0.1224 -0.0511
23214SOL     OW70742   6.954   2.116   2.207  0.1233  0.1073  1.0180
23214SOL    HW170743   6.938   2.176   2.134 -0.6718 -0.9204  0.3340
23214SOL    HW270744   7.005   2.045   2.170 -0.5083 -0.5527  1.3911
23215SOL     OW70745   7.411   9.017   4.831 -0.4150 -0.0703  0.6069
23215SOL    HW170746   7.374   9.105   4.843  0.1247  0.4082 -1.0628
23215SOL    HW270747   7.374   8.986   4.748  1.4859 -0.3108 -0.1871
23216SOL     OW70748   6.493   1.630   7.043  0.1112 -0.2620  0.3674
23216SOL    HW170749   6.450   1.569   7.103  0.1896 -0.3369  0.3479
23216SOL    HW270750   6.586   1.627   7.067  0.0358  0.2831  0.7437
23217SOL     OW70751   2.330   0.603   3.685 -0.0160 -0.1288 -0.0107
23217SOL    HW170752   2.327   0.682   3.737  0.5057 -0.9685  1.3414
23217SOL    HW270753   2.416   0.605   3.642 -0.4323  0.5431 -0.8371
23218SOL     OW70754   4.889   4.203   3.732 -0.3150 -0.9797  0.3299
23218SOL    HW170755   4.846   4.117   3.725  0.3994 -1.4689  1.5832
23218SOL    HW270756   4.892   4.220   3.826 -1.0026  0.7345  0.0823
23219SOL     OW70757   6.735   3.024   5.691 -0.4056  0.0176  0.3288
23219SOL    HW170758   6.735   2.988   5.779  0.7487 -1.2038 -0.1448
23219SOL    HW270759   6.702   2.953   5.636  2.6907 -0.7257 -0.7361
23220SOL     OW70760   9.130   2.688   4.103  0.2194  0.1822 -0.0608
23220SOL    HW170761   9.213   2.702   4.058  1.3194  2.1077  2.2837
23220SOL    HW270762   9.108   2.775   4.138 -1.7042 -0.7183  1.1153
23221SOL     OW70763   5.687   0.327   8.834 -0.4122 -0.4040 -0.1138
23221SOL    HW170764   5.610   0.300   8.884 -0.1849 -1.5270 -0.3479
23221SOL    HW270765   5.754   0.342   8.901 -0.4303 -0.8108 -0.0018
23222SOL     OW70766   8.912   5.571   6.462  0.0770  0.4968  0.0214
23222SOL    HW170767   8.959   5.623   6.397 -0.4136 -0.7058 -1.3506
23222SOL    HW270768   8.821   5.573   6.433  0.0227 -0.9490  0.0275
23223SOL     OW70769   6.939   2.651   0.345 -0.1805 -0.4089  0.0281
23223SOL    HW170770   6.851   2.617   0.334 -0.1997 -1.2763  2.2378
23223SOL    HW270771   6.927   2.741   0.374 -0.2997 -0.2688 -0.4458
23224SOL     OW70772   7.980   6.885   3.899  0.0247 -0.3404  0.3775
23224SOL    HW170773   8.014   6.807   3.942  1.7197 -0.2124 -0.6705
23224SOL    HW270774   8.017   6.883   3.811  0.1659  1.6791  0.3394
23225SOL     OW70775   1.078   0.609   2.906 -0.5523  0.0212 -0.0095
23225SOL    HW170776   1.070   0.693   2.860 -0.4682  0.9862  1.6454
23225SOL    HW270777   1.061   0.631   2.998  0.9589 -1.5012  0.6805
23226SOL     OW70778   6.270   9.067   1.277 -0.2513  0.5749 -0.2650
23226SOL    HW170779   6.282   8.996   1.214 -1.9586  0.3444 -0.3847
23226SOL    HW270780   6.230   9.025   1.353  0.0820  1.1701  0.2430
23227SOL     OW70781   2.298   3.823   7.716  0.2456 -0.7201 -0.3837
23227SOL    HW170782   2.234   3.855   7.653  0.5550  1.3742  0.2939
23227SOL    HW270783   2.367   3.784   7.663 -1.0180 -2.0049 -1.1600
23228SOL     OW70784   0.739   5.518   0.715  0.1322  0.5652  0.5169
23228SOL    HW170785   0.652   5.496   0.747  0.3269 -0.3658  0.4389
23228SOL    HW270786   0.790   5.534   0.795  0.0407  0.5348  0.5813
23229SOL     OW70787   4.187   4.101   5.210 -0.5967  0.4245  0.2668
23229SOL    HW170788   4.130   4.029   5.236 -0.8500  0.4923 -0.0911
23229SOL    HW270789   4.160   4.174   5.264  1.1977 -0.3245  2.3142
23230SOL     OW70790   9.021   7.527   3.650 -0.3203 -0.7934 -0.4751
23230SOL    HW170791   8.954   7.537   3.718  0.4908  4.0126 -0.0943
23230SOL    HW270792   9.096   7.490   3.696 -0.4340  0.4906  0.7982
23231SOL     OW70793   4.280   6.047   6.208  0.5825  0.7152 -0.0075
23231SOL    HW170794   4.312   5.993   6.136  1.5981  2.7599 -1.2004
23231SOL    HW270795   4.348   6.039   6.276  0.5778  0.2596 -0.0573
23232SOL     OW70796   8.664   0.777   2.543 -0.0045  0.0892 -0.1844
23232SOL    HW170797   8.696   0.833   2.472  1.9364  0.5868  0.9933
23232SOL    HW270798   8.571   0.797   2.550  0.2884  1.8964 -0.9343
23233SOL     OW70799   7.464   7.961   8.787  0.4394  0.7193 -0.1899
23233SOL    HW170800   7.427   7.889   8.737  1.6702 -0.0595 -0.0015
23233SOL    HW270801   7.391   7.992   8.841 -0.6874  1.0504 -1.8313
23234SOL     OW70802   5.826   3.825   7.514  0.6198 -0.1020  0.1436
23234SOL    HW170803   5.833   3.769   7.436  1.8723 -1.0076  0.8838
23234SOL    HW270804   5.761   3.781   7.569  3.1245 -2.1380  1.6969
23235SOL     OW70805   9.106   2.294   0.300 -0.3406  0.2026  0.0855
23235SOL    HW170806   9.041   2.347   0.254  0.2545  0.5758 -0.3353
23235SOL    HW270807   9.183   2.350   0.305  0.3193 -0.6468 -0.4108
23236SOL     OW70808   8.664   5.425   2.568  0.5233  0.4136 -0.5353
23236SOL    HW170809   8.698   5.362   2.631  0.2567 -0.4371 -1.2140
23236SOL    HW270810   8.665   5.378   2.485 -0.8707  0.8773 -0.8365
23237SOL     OW70811   8.624   9.055   7.840 -0.1198 -0.1652  0.2284
23237SOL    HW170812   8.575   9.020   7.765  0.9500 -1.4109  0.0911
23237SOL    HW270813   8.556   9.084   7.901 -1.0281 -0.8319 -0.4389
23238SOL     OW70814   3.672   8.651   8.406  0.0466  0.2333 -0.9684
23238SOL    HW170815   3.700   8.656   8.315 -0.7307  2.0278 -1.1620
23238SOL    HW270816   3.578   8.666   8.404 -0.2236 -1.1345  0.0343
23239SOL     OW70817   7.812   3.430   1.122 -0.5751 -0.1278 -0.0515
23239SOL    HW170818   7.782   3.445   1.033 -1.3815  0.1682  0.2607
23239SOL    HW270819   7.744   3.377   1.163  0.5372 -1.6289 -0.0593
23240SOL     OW70820   6.636   4.361   3.314  0.2703  1.1254  0.1119
23240SOL    HW170821   6.722   4.378   3.352 -0.0125  0.5446  1.0557
23240SOL    HW270822   6.654   4.336   3.224  1.1898 -0.0333  0.5936
23241SOL     OW70823   6.144   5.770   5.507 -0.0315 -0.5537 -0.2616
23241SOL    HW170824   6.238   5.757   5.493  0.3091 -0.0397  1.3885
23241SOL    HW270825   6.103   5.704   5.451  1.3162 -1.1416 -0.6075
23242SOL     OW70826   3.608   3.883   5.515 -0.3967  0.6191 -0.1051
23242SOL    HW170827   3.653   3.861   5.434 -3.1045 -0.9541 -1.3508
23242SOL    HW270828   3.563   3.965   5.496 -1.9259 -0.2985 -0.7062
23243SOL     OW70829   8.702   0.731   1.270 -0.0830  0.1387  0.0872
23243SOL    HW170830   8.706   0.718   1.175  0.6157 -0.3259  0.1730
23243SOL    HW270831   8.698   0.826   1.281  0.5589  0.2295 -0.3920
23244SOL     OW70832   5.800   2.550   0.788  0.5070  0.7779 -0.2875
23244SOL    HW170833   5.863   2.497   0.740 -0.9683 -0.7651 -0.6492
23244SOL    HW270834   5.752   2.598   0.720  1.2345  1.9167 -0.0211
23245SOL     OW70835   7.701   8.960   5.444 -0.1946  0.6509  0.0380
23245SOL    HW170836   7.616   8.926   5.472  0.9447 -2.1985  0.3791
23245SOL    HW270837   7.693   8.971   5.349 -0.9318  0.4201  0.0680
23246SOL     OW70838   0.923   8.650   5.696  0.1060 -0.2904 -0.3781
23246SOL    HW170839   0.935   8.697   5.614  2.2304 -1.1662 -0.6367
23246SOL    HW270840   1.010   8.652   5.737 -0.0268 -2.9182  0.1617
23247SOL     OW70841   2.461   2.930   8.140 -0.0505  0.2727  0.5123
23247SOL    HW170842   2.519   3.005   8.150 -0.0648  0.2436  0.8146
23247SOL    HW270843   2.384   2.965   8.095 -0.1325  0.4729  0.8104
23248SOL     OW70844   7.296   2.506   2.464  0.2044  0.4452 -0.2046
23248SOL    HW170845   7.251   2.447   2.524 -1.7934 -0.8076 -2.7291
23248SOL    HW270846   7.243   2.586   2.465 -0.4780  0.0211 -1.0467
23249SOL     OW70847   2.950   0.941   7.401 -0.1355 -0.3472  0.1715
23249SOL    HW170848   3.030   0.979   7.438 -0.3637 -0.5895  0.9265
23249SOL    HW270849   2.947   0.975   7.311  1.5071 -1.3619 -0.3271
23250SOL     OW70850   1.128   8.368   7.459 -0.3633 -0.6418  0.1853
23250SOL    HW170851   1.124   8.392   7.552 -2.4315 -3.0577  0.8294
23250SOL    HW270852   1.040   8.383   7.427 -0.3949 -2.3704 -0.6554
23251SOL     OW70853   6.231   7.808   8.058  0.2648  0.7432 -0.1173
23251SOL    HW170854   6.164   7.875   8.069  0.3731  0.6199  1.4724
23251SOL    HW270855   6.228   7.786   7.965 -0.8076  1.8613 -0.3678
23252SOL     OW70856   0.928   7.693   2.022 -0.3492 -0.1215 -0.3573
23252SOL    HW170857   0.906   7.670   1.932  1.2629 -0.4758 -0.6837
23252SOL    HW270858   0.949   7.610   2.064  1.2778  0.2570 -0.3468
23253SOL     OW70859   5.803   8.934   3.808 -0.6107 -0.0568  0.4062
23253SOL    HW170860   5.791   9.017   3.855  0.0874 -0.0150  0.5318
23253SOL    HW270861   5.802   8.867   3.876  2.8059  0.1896  0.8942
23254SOL     OW70862   7.927   8.431   3.269  0.0732 -0.0471 -0.0515
23254SOL    HW170863   7.977   8.463   3.195 -0.6634 -0.6715 -0.8372
23254SOL    HW270864   7.836   8.449   3.247 -0.0790  1.2850  1.4593
23255SOL     OW70865   7.936   5.493   5.770 -0.3646 -0.1353 -0.1992
23255SOL    HW170866   7.854   5.461   5.806 -0.8345  0.5532 -0.6288
23255SOL    HW270867   8.003   5.461   5.830 -1.0522  0.3041  0.8326
23256SOL     OW70868   1.168   3.939   3.663 -0.4191  0.3335 -0.1044
23256SOL    HW170869   1.178   3.879   3.736  1.5198  0.8034  0.0655
23256SOL    HW270870   1.085   3.984   3.679 -2.8595 -3.3462 -1.0940
23257SOL     OW70871   5.861   6.243   8.442 -0.0146  0.0127 -0.4077
23257SOL    HW170872   5.812   6.210   8.517  0.8425 -1.9182 -0.6124
23257SOL    HW270873   5.795   6.280   8.384 -0.8439  0.2685  0.6884
23258SOL     OW70874   2.492   6.735   1.197 -0.0752 -0.0579  0.2571
23258SOL    HW170875   2.464   6.676   1.127 -0.5573 -1.5541  1.6395
23258SOL    HW270876   2.417   6.739   1.256  0.3188  1.1734  0.7011
23259SOL     OW70877   2.054   5.694   6.520 -0.2036  0.1787  0.4842
23259SOL    HW170878   1.961   5.671   6.518 -0.0089 -0.6415  0.6378
23259SOL    HW270879   2.078   5.685   6.613  0.6316 -2.1425  0.1127
23260SOL     OW70880   4.681   8.739   3.485  0.2517 -0.0673  0.2716
23260SOL    HW170881   4.682   8.819   3.538 -2.2314 -0.8317  1.5914
23260SOL    HW270882   4.666   8.770   3.395  1.9350  1.0554  0.3111
23261SOL     OW70883   2.882   6.830   6.798 -0.0073  0.3099 -0.7225
23261SOL    HW170884   2.879   6.876   6.882  1.8785  0.5198 -0.7377
23261SOL    HW270885   2.804   6.861   6.751 -0.9158  0.4256  0.8115
23262SOL     OW70886   5.571   0.012   5.926 -0.2078 -0.1876  0.0753
23262SOL    HW170887   5.513  -0.056   5.893 -2.0067  2.2423 -2.2902
23262SOL    HW270888   5.531   0.041   6.008 -1.3681  0.2052 -0.6068
23263SOL     OW70889   2.088   5.161   5.859  0.2912 -0.4687 -0.4111
23263SOL    HW170890   2.129   5.235   5.814 -0.9044  0.2932 -0.2729
23263SOL    HW270891   2.011   5.140   5.807  0.0329 -0.9357  0.1419
23264SOL     OW70892   1.965   1.394   6.179 -0.0915 -0.2057  0.1445
23264SOL    HW170893   1.972   1.489   6.178 -0.1714 -0.2008 -0.1445
23264SOL    HW270894   2.034   1.365   6.238  0.1580  0.0151 -0.0403
23265SOL     OW70895   4.360   4.164   6.312  0.0714  0.3823 -0.5517
23265SOL    HW170896   4.448   4.173   6.275  0.1434 -2.0373 -1.0988
23265SOL    HW270897   4.336   4.253   6.338  2.9940  1.0057  0.3845
23266SOL     OW70898   0.961   6.515   2.043  0.2132  0.0772 -0.7720
23266SOL    HW170899   0.884   6.559   2.006 -1.6054 -1.0093  1.4448
23266SOL    HW270900   0.945   6.422   2.025 -0.5146 -0.4435  2.0920
23267SOL     OW70901   0.860   7.722   3.285 -0.6136 -0.1552  0.4689
23267SOL    HW170902   0.866   7.688   3.375 -1.3737 -1.9743 -0.1256
23267SOL    HW270903   0.935   7.684   3.240  1.8117  3.4071  1.0114
23268SOL     OW70904   3.753   4.161   4.988  0.3397 -0.2815  0.2957
23268SOL    HW170905   3.798   4.141   4.906  0.5597 -0.6464  0.5012
23268SOL    HW270906   3.798   4.238   5.022 -1.3830  1.4739 -1.1781
23269SOL     OW70907   9.069   5.693   1.441  0.0879  0.4511 -0.5102
23269SOL    HW170908   9.130   5.633   1.398  0.0790  0.8444 -1.0864
23269SOL    HW270909   8.995   5.638   1.465  0.3999  0.0881 -0.3620
23270SOL     OW70910   5.823   2.541   6.462  0.2450 -0.1917  0.2997
23270SOL    HW170911   5.789   2.591   6.388 -1.5103 -1.7559 -0.0262
23270SOL    HW270912   5.888   2.599   6.502  1.4029  0.6518 -2.5353
23271SOL     OW70913   0.871   3.885   0.263 -0.2741  0.2326  0.4371
23271SOL    HW170914   0.862   3.853   0.353 -2.1284 -1.1256 -0.1621
23271SOL    HW270915   0.830   3.971   0.264  0.2395  0.4829  0.9948
23272SOL     OW70916   7.632   4.583   7.157  0.8710  0.4523 -0.3386
23272SOL    HW170917   7.660   4.636   7.231 -0.9619 -0.2499  0.9274
23272SOL    HW270918   7.585   4.645   7.100  0.4341  0.5826  0.1568
23273SOL     OW70919   4.066   0.496   6.749 -0.2186 -0.3873 -0.3928
23273SOL    HW170920   4.148   0.504   6.799 -0.5624  1.4442 -0.0775
23273SOL    HW270921   4.070   0.408   6.711  1.3194 -0.7944  0.6278
23274SOL     OW70922   3.152   7.542   4.881  0.4096 -0.2055 -0.1815
23274SOL    HW170923   3.151   7.618   4.822  0.5890 -0.8879 -1.0933
23274SOL    HW270924   3.194   7.473   4.830  1.6356 -0.4972  1.1810
23275SOL     OW70925   8.954   1.938   2.515  0.3315  0.0339  0.3158
23275SOL    HW170926   9.016   1.967   2.448  1.2776 -1.6620  0.3823
23275SOL    HW270927   9.008   1.923   2.593 -0.0455 -1.8079  0.2838
23276SOL     OW70928   6.040   8.546   6.595 -0.1412 -0.4975  0.5833
23276SOL    HW170929   6.077   8.535   6.683 -0.2239 -0.0685  0.6710
23276SOL    HW270930   5.981   8.621   6.603  1.4660  0.9103 -0.3558
23277SOL     OW70931   0.257   1.498   5.285  0.1808  0.7552 -0.0196
23277SOL    HW170932   0.205   1.471   5.209 -0.4805  2.0097 -0.0457
23277SOL    HW270933   0.212   1.459   5.360  0.6754 -0.2565 -0.2361
23278SOL     OW70934   1.414   7.498   4.576 -0.4546 -0.1423  0.7314
23278SOL    HW170935   1.465   7.465   4.650 -0.8514  0.5925  1.3409
23278SOL    HW270936   1.456   7.459   4.499  0.3420 -0.4305  1.2994
23279SOL     OW70937   1.217   9.062   8.148  0.2775  0.3342  1.1436
23279SOL    HW170938   1.311   9.079   8.147  0.9687 -2.8827  1.9709
23279SOL    HW270939   1.192   9.070   8.241 -0.8413  3.2857  0.7168
23280SOL     OW70940   4.609   6.374   4.763 -0.2303  0.1393 -0.2694
23280SOL    HW170941   4.623   6.460   4.723 -2.7257  0.5125 -0.4683
23280SOL    HW270942   4.697   6.336   4.768  0.8122  2.2537 -1.1460
23281SOL     OW70943   6.799   9.045   2.265 -0.2797 -0.1802 -0.7524
23281SOL    HW170944   6.843   8.961   2.251  0.6158  0.2778 -0.7573
23281SOL    HW270945   6.810   9.063   2.358  1.0340  0.7246 -1.0491
23282SOL     OW70946   4.588   0.416   3.485  0.2869  0.3165  0.2924
23282SOL    HW170947   4.670   0.382   3.520 -0.3834  0.4619  2.1402
23282SOL    HW270948   4.555   0.347   3.428  0.1674 -1.1467  2.0305
23283SOL     OW70949   3.938   8.958   5.818  0.0251 -0.0513  0.1630
23283SOL    HW170950   3.860   8.903   5.807 -0.7914  0.8158  1.3262
23283SOL    HW270951   3.925   9.030   5.757  0.1866 -0.1904 -0.0354
23284SOL     OW70952   8.486   0.846   7.978  0.7422  0.8743 -0.1222
23284SOL    HW170953   8.420   0.778   7.966  1.6096  0.0253 -0.1701
23284SOL    HW270954   8.436   0.926   7.991 -0.3859 -0.2177  2.9315
23285SOL     OW70955   3.164   0.928   7.088  0.6357  0.0692 -0.2655
23285SOL    HW170956   3.192   0.977   7.011  0.1810  0.2457 -0.3218
23285SOL    HW270957   3.246   0.905   7.133  0.8455  1.8249  0.3477
23286SOL     OW70958   4.474   0.469   3.925  0.1360  0.2201 -0.2471
23286SOL    HW170959   4.457   0.378   3.900 -0.9089  0.6803 -1.3242
23286SOL    HW270960   4.487   0.515   3.842  2.2383  0.8016  0.3349
23287SOL     OW70961   0.625   2.322   1.279  0.1397 -0.3473  0.3407
23287SOL    HW170962   0.561   2.302   1.210 -0.7140  0.2794  0.9234
23287SOL    HW270963   0.572   2.332   1.358  0.8023  1.5320  0.5900
23288SOL     OW70964   3.182   4.270   0.654  0.1156 -0.1725  0.1231
23288SOL    HW170965   3.135   4.310   0.581 -0.6908 -0.2024  0.6237
23288SOL    HW270966   3.116   4.223   0.703  0.6888 -0.3163  0.7706
23289SOL     OW70967   7.421   6.338   4.580 -0.6789 -0.1405 -0.1139
23289SOL    HW170968   7.489   6.370   4.522 -0.9035  0.7581  0.1076
23289SOL    HW270969   7.351   6.403   4.574 -0.9550 -0.3468  0.6877
23290SOL     OW70970   8.584   2.391   9.063 -0.0480  0.3775 -0.4399
23290SOL    HW170971   8.538   2.343   8.994 -2.5538  0.3966  1.0928
23290SOL    HW270972   8.606   2.324   9.128  0.3029  0.6964 -0.2229
23291SOL     OW70973   7.269   3.594   8.537 -0.6633 -0.3875  0.1139
23291SOL    HW170974   7.271   3.618   8.444  0.0046 -0.7049  0.0451
23291SOL    HW270975   7.183   3.624   8.567 -0.6554  0.2438 -0.4647
23292SOL     OW70976   0.895   3.388   6.121 -0.1503  0.2914 -0.0266
23292SOL    HW170977   0.967   3.398   6.183  0.3530  1.5395 -0.7724
23292SOL    HW270978   0.817   3.417   6.169 -0.1719 -0.9752  0.7518
23293SOL     OW70979   1.475   2.096   2.205 -0.0897 -0.2538  0.2706
23293SOL    HW170980   1.557   2.128   2.243 -0.2570  1.4110 -0.6817
23293SOL    HW270981   1.499   2.067   2.117 -0.8185  2.2531 -0.8376
23294SOL     OW70982   1.321   4.340   6.737  0.0935  0.3800  0.1530
23294SOL    HW170983   1.235   4.330   6.778 -0.4780 -1.8746 -1.4002
23294SOL    HW270984   1.369   4.261   6.762  0.4274 -0.0873 -1.7882
23295SOL     OW70985   0.961   6.576   2.822  0.2693  0.4204 -0.0467
23295SOL    HW170986   0.889   6.516   2.803 -0.7111  0.5626  2.7150
23295SOL    HW270987   0.931   6.661   2.792  1.2759 -0.1870 -3.1066
23296SOL     OW70988   2.803   0.757   2.441 -0.0186 -0.5321  0.1933
23296SOL    HW170989   2.760   0.682   2.483 -0.3384  0.1071  1.0253
23296SOL    HW270990   2.781   0.831   2.496 -2.1013  0.7075 -2.1078
23297SOL     OW70991   6.620   8.331   7.880  0.6750  0.4707  0.2786
23297SOL    HW170992   6.550   8.391   7.909  0.1496 -0.2294  0.5050
23297SOL    HW270993   6.693   8.388   7.859  0.5999  1.1279  1.6461
23298SOL     OW70994   0.647   8.579   4.477  0.1662  0.1519  0.1636
23298SOL    HW170995   0.628   8.533   4.558  0.3814 -0.4384 -0.1146
23298SOL    HW270996   0.709   8.648   4.502  0.4478 -0.2022  0.4527
23299SOL     OW70997   3.315   5.279   0.449  0.0084 -0.1129 -0.2275
23299SOL    HW170998   3.297   5.306   0.359  1.8853  1.0193 -0.3177
23299SOL    HW270999   3.368   5.200   0.440 -2.0750 -1.5854 -0.0289
23300SOL     OW71000   1.012   2.046   6.710  0.6391  0.3941 -0.7918
23300SOL    HW171001   0.987   2.054   6.802  1.3931  0.2811 -0.5647
23300SOL    HW271002   0.966   1.968   6.679 -1.2747  1.5995 -1.1057
23301SOL     OW71003   0.076   4.249   2.462  0.1478 -0.0893 -0.2738
23301SOL    HW171004   0.094   4.157   2.479  2.4136  0.0555 -1.5636
23301SOL    HW271005   0.158   4.294   2.480 -0.0841  1.2943 -2.2943
23302SOL     OW71006   3.833   9.044   0.567  0.4149 -0.1858 -0.3145
23302SOL    HW171007   3.779   9.041   0.488  0.7273  0.9019 -0.5901
23302SOL    HW271008   3.883   9.126   0.559 -0.4604  0.6050  1.5886
23303SOL     OW71009   8.499   8.229   0.081 -0.6898  0.0558 -0.1030
23303SOL    HW171010   8.460   8.300   0.132 -1.3657 -1.0060  0.9012
23303SOL    HW271011   8.587   8.218   0.119 -1.2510 -0.8487  1.0220
23304SOL     OW71012   3.525   1.695   1.058 -0.0827  0.3028 -0.6553
23304SOL    HW171013   3.533   1.746   0.978 -0.1062  0.5451 -0.5043
23304SOL    HW271014   3.610   1.703   1.101 -0.5856  1.5747  0.1709
23305SOL     OW71015   2.646   5.143   0.685  0.4357  0.1069  0.3463
23305SOL    HW171016   2.698   5.121   0.762 -0.2645 -1.2831  0.4546
23305SOL    HW271017   2.669   5.075   0.621  0.7554  1.0471 -0.5599
23306SOL     OW71018   3.597   5.369   7.400  0.1177  0.3898  0.3856
23306SOL    HW171019   3.591   5.451   7.450 -1.3098  0.1587  0.6404
23306SOL    HW271020   3.515   5.366   7.351  0.0967 -0.9506  0.4792
23307SOL     OW71021   2.255   3.751   3.107 -0.2605 -0.2809 -0.0478
23307SOL    HW171022   2.308   3.684   3.064 -2.8564 -0.2347 -3.7273
23307SOL    HW271023   2.316   3.823   3.122  1.6920 -1.9114  0.3007
23308SOL     OW71024   4.740   7.556   4.532 -0.4859 -0.1659 -0.1087
23308SOL    HW171025   4.773   7.644   4.513  0.7549 -0.2622  1.3541
23308SOL    HW271026   4.651   7.556   4.498 -0.5001  1.6540 -0.1945
23309SOL     OW71027   0.256   0.271   2.086 -0.2373 -0.0577  0.4159
23309SOL    HW171028   0.184   0.208   2.082 -0.3510  0.0887  0.1213
23309SOL    HW271029   0.314   0.246   2.014  0.2107 -0.4168  0.8922
23310SOL     OW71030   4.991   4.599   8.166  0.2030 -0.7256 -0.0287
23310SOL    HW171031   5.003   4.659   8.240  0.2732  0.3089 -0.8648
23310SOL    HW271032   5.058   4.531   8.180  0.6130 -0.2177  0.5288
23311SOL     OW71033   2.823   2.408   8.283  0.4318 -0.3096 -0.0483
23311SOL    HW171034   2.770   2.461   8.224  1.2068  0.1969 -0.2998
23311SOL    HW271035   2.905   2.456   8.292  0.3718 -0.4428  1.3453
23312SOL     OW71036   8.791   7.040   5.642  0.1874 -0.5427  0.1554
23312SOL    HW171037   8.739   7.090   5.580  0.5370 -0.2124  0.1211
23312SOL    HW271038   8.734   6.970   5.672 -0.2630 -0.2009  0.0971
23313SOL     OW71039   0.204   0.167   0.752  0.1040 -0.5054 -0.4197
23313SOL    HW171040   0.294   0.199   0.740 -0.0308  0.4960  0.9731
23313SOL    HW271041   0.206   0.121   0.836 -0.7270 -0.2653 -0.2599
23314SOL     OW71042   2.853   4.611   1.731 -0.3411  0.2829  0.1015
23314SOL    HW171043   2.831   4.531   1.684  0.9841 -0.6951  1.0390
23314SOL    HW271044   2.803   4.606   1.812 -1.5806  1.2896 -0.5726
23315SOL     OW71045   1.100   2.064   8.499 -0.0729  0.2084  0.1214
23315SOL    HW171046   1.038   1.995   8.522  0.5468 -0.0563  1.0845
23315SOL    HW271047   1.075   2.091   8.411 -1.0457 -0.4462  0.1838
23316SOL     OW71048   1.943   8.481   6.351  0.0279  0.5033 -0.3737
23316SOL    HW171049   1.929   8.388   6.331  0.5314  0.4258 -0.3766
23316SOL    HW271050   2.029   8.500   6.315  0.5645  0.5945  0.9084
23317SOL     OW71051   6.443   1.765   3.465  0.0471  0.3445  0.2048
23317SOL    HW171052   6.358   1.807   3.480  0.3981  0.9076  0.6991
23317SOL    HW271053   6.425   1.671   3.470 -0.4852  0.4632  0.7066
23318SOL     OW71054   1.077   7.071   3.358  0.2687  0.3323  0.4957
23318SOL    HW171055   1.130   7.147   3.384  0.3785 -0.0430  1.3868
23318SOL    HW271056   0.988   7.094   3.385 -0.0229  0.9081 -0.8869
23319SOL     OW71057   1.884   2.434   5.378 -0.4174 -0.4195 -0.6544
23319SOL    HW171058   1.964   2.486   5.385 -0.6711  0.0417 -1.1183
23319SOL    HW271059   1.908   2.349   5.415  0.0910 -0.0768 -0.1658
23320SOL     OW71060   7.282   3.389   6.776  0.1548 -0.5287  0.0914
23320SOL    HW171061   7.271   3.429   6.689  1.9489 -0.1926 -0.0180
23320SOL    HW271062   7.237   3.305   6.769 -1.4424  0.3314 -0.5101
23321SOL     OW71063   4.772   8.098   6.779  0.2397  0.2827  0.2769
23321SOL    HW171064   4.825   8.021   6.801 -0.2697 -0.1962 -0.1553
23321SOL    HW271065   4.738   8.129   6.863 -2.1172 -1.8384  0.2274
23322SOL     OW71066   7.219   4.085   7.535  0.3114  0.3543  0.0426
23322SOL    HW171067   7.145   4.046   7.581  0.6728 -1.0781 -0.5257
23322SOL    HW271068   7.184   4.110   7.449  0.6622 -1.2775 -0.6271
23323SOL     OW71069   1.956   8.486   3.969  0.2851 -0.1844 -0.1105
23323SOL    HW171070   1.930   8.452   3.883  0.6060 -0.4717 -0.0987
23323SOL    HW271071   1.995   8.571   3.951 -1.2881  0.5763 -0.0564
23324SOL     OW71072   6.717   8.947   7.038 -0.0541  0.1643 -0.0147
23324SOL    HW171073   6.729   8.989   7.123 -0.5820  0.8651 -0.2702
23324SOL    HW271074   6.769   9.000   6.977 -0.8915  0.6041 -0.3762
23325SOL     OW71075   9.053   7.546   4.200 -0.1529  0.2494  0.0597
23325SOL    HW171076   9.030   7.487   4.128  2.9213 -0.0788 -0.7698
23325SOL    HW271077   9.140   7.579   4.178  0.3130  1.2611  2.9379
23326SOL     OW71078   0.630   5.093   3.675  0.1744 -0.7523 -0.1374
23326SOL    HW171079   0.724   5.103   3.661 -0.0379 -0.1741 -1.3227
23326SOL    HW271080   0.617   5.108   3.769  1.1699 -0.0959 -0.0939
23327SOL     OW71081   1.913   3.022   3.858 -0.8136 -0.4428 -0.2660
23327SOL    HW171082   1.883   3.037   3.948  0.4094 -1.6759  0.3905
23327SOL    HW271083   2.002   2.989   3.868 -0.3931  0.0608 -1.9829
23328SOL     OW71084   5.390   8.354   1.183  0.5968 -0.4762 -0.0521
23328SOL    HW171085   5.371   8.264   1.154 -1.2175 -0.0971 -0.1492
23328SOL    HW271086   5.420   8.344   1.273  0.6815 -1.1962 -0.1488
23329SOL     OW71087   3.947   7.126   1.347  0.0263 -0.7403  0.2516
23329SOL    HW171088   4.004   7.119   1.270 -2.2782 -1.7770 -1.4603
23329SOL    HW271089   3.949   7.219   1.369 -0.5914 -0.0808 -2.1753
23330SOL     OW71090   1.604   3.970   7.107 -0.4287  0.1692  0.5944
23330SOL    HW171091   1.571   3.888   7.071 -1.8829  1.6621 -1.7662
23330SOL    HW271092   1.580   3.967   7.200  0.4586 -2.4382  0.8195
23331SOL     OW71093   0.336   6.746   8.071 -0.4927 -0.0227  0.3098
23331SOL    HW171094   0.382   6.826   8.095  0.9398 -0.6548 -0.1788
23331SOL    HW271095   0.284   6.769   7.994 -0.6349  0.5981  0.5916
23332SOL     OW71096   7.679   0.303   7.085 -0.1059 -0.0280  0.4493
23332SOL    HW171097   7.756   0.293   7.141 -0.4046 -1.8406  0.6209
23332SOL    HW271098   7.622   0.364   7.133 -0.3330 -1.4966  2.1822
23333SOL     OW71099   4.009   9.023   5.106  0.7430 -0.5069 -0.4638
23333SOL    HW171100   3.931   9.077   5.094  0.8172 -0.3373 -0.1967
23333SOL    HW271101   4.080   9.086   5.120  0.5450 -0.6727  1.5888
23334SOL     OW71102   7.545   3.553   8.641  0.0741  0.6438 -0.4839
23334SOL    HW171103   7.454   3.565   8.615 -0.0037 -0.8751 -1.0430
23334SOL    HW271104   7.552   3.460   8.662  1.0836  1.0715  1.2661
23335SOL     OW71105   2.646   1.377   8.485  0.1631  0.2094  0.2798
23335SOL    HW171106   2.582   1.382   8.414  0.0330 -1.1609  0.2683
23335SOL    HW271107   2.725   1.418   8.450 -0.0654  0.0193 -0.4630
23336SOL     OW71108   8.020   5.224   4.511  0.1535  0.0703  0.2367
23336SOL    HW171109   7.975   5.154   4.464  1.1054 -1.6638  1.7873
23336SOL    HW271110   7.949   5.277   4.548 -0.5866 -0.4185 -0.4366
23337SOL     OW71111   0.128   3.025   5.327  0.0523  0.4840 -0.0057
23337SOL    HW171112   0.134   3.051   5.236 -0.3885 -0.0033 -0.1804
23337SOL    HW271113   0.189   3.082   5.373  1.7602 -0.5795 -0.8788
23338SOL     OW71114   6.789   3.352   5.781  0.2611 -0.2030  0.2943
23338SOL    HW171115   6.860   3.363   5.717 -0.5596  1.0285 -0.4327
23338SOL    HW271116   6.711   3.386   5.737 -0.2856  0.9185  2.0431
23339SOL     OW71117   5.937   2.128   2.557 -0.0042 -0.0335 -0.2210
23339SOL    HW171118   5.931   2.106   2.463  0.0074  0.9131 -0.4510
23339SOL    HW271119   5.996   2.062   2.593  2.4348  1.3225 -1.4709
23340SOL     OW71120   8.347   5.708   2.248  0.2700  0.4309 -0.2251
23340SOL    HW171121   8.287   5.752   2.188 -2.3401 -0.7942  1.2884
23340SOL    HW271122   8.427   5.695   2.197 -1.4574  0.3003 -3.1316
23341SOL     OW71123   2.991   1.062   0.778 -0.0979  0.4905  0.2452
23341SOL    HW171124   2.953   1.146   0.750 -0.0304  0.2509 -0.5847
23341SOL    HW271125   2.975   1.003   0.705 -0.6607 -0.3883  1.0560
23342SOL     OW71126   3.356   6.403   7.279 -0.0861 -0.1685  0.0131
23342SOL    HW171127   3.402   6.353   7.213  1.0829  1.0027 -0.1038
23342SOL    HW271128   3.425   6.449   7.327 -0.8730 -1.1156  2.1787
23343SOL     OW71129   5.088   2.456   0.691  1.1044 -0.5852 -0.0735
23343SOL    HW171130   5.181   2.479   0.695  0.6874  1.1817  0.4194
23343SOL    HW271131   5.062   2.443   0.782  0.5659  0.3610 -0.0730
23344SOL     OW71132   8.906   8.821   0.956 -0.0427 -0.0378  0.3541
23344SOL    HW171133   8.908   8.875   1.035 -1.8353  1.5516 -0.6069
23344SOL    HW271134   8.815   8.794   0.948  0.4835 -1.7545 -0.1772
23345SOL     OW71135   1.166   6.611   5.734 -0.2235 -0.3394  0.9496
23345SOL    HW171136   1.186   6.648   5.820  0.6032  1.4631  0.0549
23345SOL    HW271137   1.071   6.616   5.727 -0.1484  3.0063  0.4178
23346SOL     OW71138   5.769   0.783   6.337 -0.0423 -0.1642 -0.4462
23346SOL    HW171139   5.772   0.804   6.430  0.2673  2.1035 -0.9165
23346SOL    HW271140   5.823   0.705   6.328  0.3149 -0.1316  1.1998
23347SOL     OW71141   0.682   0.259   8.571  0.3312 -0.1341  0.2375
23347SOL    HW171142   0.742   0.266   8.497  1.5068 -0.8003  1.0974
23347SOL    HW271143   0.640   0.174   8.561 -0.7242  0.4607 -0.5312
23348SOL     OW71144   4.253   4.936   4.954 -0.0714  0.0171  0.3615
23348SOL    HW171145   4.207   4.948   4.871 -1.0684 -1.6242  0.6148
23348SOL    HW271146   4.281   5.023   4.979 -1.7616  0.8918 -0.5804
23349SOL     OW71147   8.074   0.496   8.819 -0.3215 -0.1920 -0.5413
23349SOL    HW171148   8.009   0.506   8.750 -0.2087  0.8896 -0.5190
23349SOL    HW271149   8.113   0.410   8.804 -0.5137 -0.1020 -1.6374
23350SOL     OW71150   3.110   4.245   6.154  0.2789  0.0385  0.7638
23350SOL    HW171151   3.112   4.316   6.090  1.1351 -0.4789  0.1807
23350SOL    HW271152   3.087   4.286   6.236 -0.9525  0.7116  0.0986
23351SOL     OW71153   5.362   1.414   8.267  0.4446  0.0424 -0.3007
23351SOL    HW171154   5.408   1.488   8.229  0.1811  1.4189  1.9013
23351SOL    HW271155   5.272   1.423   8.236 -0.1361  2.0557  1.7162
23352SOL     OW71156   1.763   6.072   7.604  0.2667 -0.2957 -0.2166
23352SOL    HW171157   1.670   6.087   7.620  0.3895  0.6216 -0.3344
23352SOL    HW271158   1.793   6.026   7.683 -0.2696 -0.5395 -0.1510
23353SOL     OW71159   7.061   2.762   5.115 -0.0420 -0.0478  0.0673
23353SOL    HW171160   7.110   2.751   5.197  0.9454  1.3306 -0.3098
23353SOL    HW271161   7.126   2.791   5.052 -1.0162 -0.0104 -0.9372
23354SOL     OW71162   8.260   0.501   1.684 -0.6978  0.2097  0.1864
23354SOL    HW171163   8.235   0.447   1.609  0.6729 -1.7120  1.0163
23354SOL    HW271164   8.179   0.513   1.733 -0.9580 -1.6854  0.2957
23355SOL     OW71165   1.403   1.281   3.818  0.4526  0.2717 -0.3614
23355SOL    HW171166   1.429   1.366   3.783 -0.4835  0.5328 -0.4359
23355SOL    HW271167   1.411   1.291   3.913  2.5333 -0.2899 -0.4189
23356SOL     OW71168   4.433   5.991   4.603  0.5983  0.2366 -0.4650
23356SOL    HW171169   4.483   6.065   4.568  1.2507 -0.4678 -1.0362
23356SOL    HW271170   4.345   6.002   4.566  0.2931  1.4811  0.5459
23357SOL     OW71171   2.447   8.617   4.686 -0.2184 -0.4657 -0.1891
23357SOL    HW171172   2.480   8.626   4.775  0.7694 -1.6796 -0.3980
23357SOL    HW271173   2.526   8.619   4.631 -0.9415  2.2736 -1.2479
23358SOL     OW71174   0.022   8.200   2.577  0.0922 -0.0241 -0.1383
23358SOL    HW171175   0.100   8.193   2.522 -0.1703  1.9840 -0.8488
23358SOL    HW271176   0.047   8.160   2.660  1.8098  0.3947 -0.4214
23359SOL     OW71177   2.696   6.178   8.673 -0.4473 -0.2260  0.3746
23359SOL    HW171178   2.665   6.268   8.679 -1.3794 -0.5195  0.0952
23359SOL    HW271179   2.774   6.184   8.618  1.3136  0.8110  2.8027
23360SOL     OW71180   1.197   8.506   5.918  0.3002 -0.2046  0.2489
23360SOL    HW171181   1.215   8.584   5.866  0.5681  0.3741  1.1798
23360SOL    HW271182   1.222   8.433   5.862  0.9176  0.4150 -0.2984
23361SOL     OW71183   3.226   4.637   3.034 -0.5470  0.5386 -0.4070
23361SOL    HW171184   3.212   4.553   3.077 -0.7130  1.9518  2.5415
23361SOL    HW271185   3.321   4.647   3.030 -0.4981  1.0783  1.2512
23362SOL     OW71186   2.632   2.809   8.971  0.1419 -0.4848 -0.3460
23362SOL    HW171187   2.616   2.884   8.913 -0.3373  0.4649  0.9613
23362SOL    HW271188   2.578   2.739   8.935  0.7479 -0.2903 -1.7094
23363SOL     OW71189   2.996   8.251   2.527  0.8596  0.0814 -0.1559
23363SOL    HW171190   2.940   8.214   2.594  1.7445  0.3022  0.7218
23363SOL    HW271191   3.023   8.176   2.474  1.5976 -0.3638  0.8287
23364SOL     OW71192   1.143   8.145   5.576 -0.6075 -0.1174 -0.0806
23364SOL    HW171193   1.114   8.105   5.494  0.2724 -0.1205 -0.4019
23364SOL    HW271194   1.086   8.108   5.643 -3.0413  1.7279 -0.9640
23365SOL     OW71195   2.894   4.954   7.307  0.3376 -0.0123 -0.4143
23365SOL    HW171196   2.978   4.957   7.261  1.1037  0.8787  0.9786
23365SOL    HW271197   2.891   4.867   7.346  0.8181  0.0934 -0.1309
23366SOL     OW71198   7.241   2.128   2.671 -0.2376  0.0557 -0.6410
23366SOL    HW171199   7.202   2.215   2.665 -1.4580 -0.4864 -0.7343
23366SOL    HW271200   7.336   2.144   2.667 -0.3995  1.4679  0.4481
23367SOL     OW71201   8.572   8.038   8.268  0.1575  0.0621  0.0210
23367SOL    HW171202   8.605   8.038   8.178  0.5132  0.3498  0.1536
23367SOL    HW271203   8.539   8.127   8.282  0.5070  0.1472  0.3231
23368SOL     OW71204   3.800   6.842   3.935  0.3242  0.0722 -0.1566
23368SOL    HW171205   3.742   6.905   3.977 -2.1909 -2.3547  0.2284
23368SOL    HW271206   3.854   6.808   4.007 -0.5446 -0.5102  0.2314
23369SOL     OW71207   7.529   8.700   0.619  0.0186  0.1701 -0.1570
23369SOL    HW171208   7.471   8.624   0.622 -0.4613  0.5137 -0.5543
23369SOL    HW271209   7.608   8.672   0.665 -0.0265 -0.6743 -0.5727
23370SOL     OW71210   8.160   5.891   2.915 -0.5722 -0.2318  0.2718
23370SOL    HW171211   8.255   5.904   2.913 -0.3872 -1.4668 -0.5071
23370SOL    HW271212   8.145   5.839   2.995 -0.6425  0.2639  0.5831
23371SOL     OW71213   6.660   6.989   1.488  0.4551  0.1465 -0.4688
23371SOL    HW171214   6.613   6.907   1.474 -1.4297  0.7008  1.9212
23371SOL    HW271215   6.742   6.962   1.530  0.4839 -0.6058 -0.9874
23372SOL     OW71216   3.268   4.385   9.127  0.2702  0.2570  0.4906
23372SOL    HW171217   3.175   4.388   9.103  0.2475  0.5565  0.6076
23372SOL    HW271218   3.315   4.404   9.046  0.1848  1.6601  0.7439
23373SOL     OW71219   3.370   5.594   4.891 -0.3507 -0.1349  0.2732
23373SOL    HW171220   3.307   5.654   4.930 -2.7855 -2.1636 -0.2832
23373SOL    HW271221   3.394   5.534   4.963 -0.4795 -0.4657  0.0435
23374SOL     OW71222   7.183   2.668   2.941  0.4467 -0.3623 -0.0538
23374SOL    HW171223   7.186   2.573   2.952  0.1178 -0.3704 -0.0352
23374SOL    HW271224   7.159   2.702   3.027  3.7844 -0.0379  0.9082
23375SOL     OW71225   8.193   2.505   6.003 -0.2096 -0.0830 -0.2838
23375SOL    HW171226   8.184   2.592   6.042  0.8783 -0.3181  0.5436
23375SOL    HW271227   8.176   2.445   6.074  0.4386 -0.5363 -0.5066
23376SOL     OW71228   1.517   1.936   7.312 -0.0669 -0.3133  0.3879
23376SOL    HW171229   1.551   1.884   7.385 -0.7137 -0.0848  0.8564
23376SOL    HW271230   1.507   2.024   7.348 -1.4741 -0.4483  0.3604
23377SOL     OW71231   4.449   3.139   7.037 -0.3180 -0.6774 -0.5064
23377SOL    HW171232   4.416   3.064   6.988 -1.5282 -1.9227  2.0247
23377SOL    HW271233   4.370   3.179   7.074  0.4732  0.7124 -0.2552
23378SOL     OW71234   6.090   1.544   4.333  0.0383  0.1403 -0.1726
23378SOL    HW171235   6.181   1.559   4.360  0.3219 -0.6013 -0.6777
23378SOL    HW271236   6.038   1.586   4.401  0.7582  0.7949 -0.0051
23379SOL     OW71237   2.357   4.803   1.929 -0.1391 -0.0789  0.0904
23379SOL    HW171238   2.299   4.754   1.988  0.8459 -0.5333  0.7010
23379SOL    HW271239   2.344   4.763   1.844 -1.5567  0.5615 -0.0298
23380SOL     OW71240   7.925   6.303   5.391 -0.0029  0.6344 -0.4365
23380SOL    HW171241   7.837   6.285   5.358 -0.2317 -0.2779  0.6088
23380SOL    HW271242   7.961   6.217   5.412  1.1866  0.9846 -0.9362
23381SOL     OW71243   6.273   3.518   1.938  0.1820  0.3711  0.3346
23381SOL    HW171244   6.317   3.576   1.876 -1.1897  0.9214 -0.1775
23381SOL    HW271245   6.219   3.461   1.883 -1.2601  1.0445  0.9971
23382SOL     OW71246   0.675   2.466   0.876  0.4156 -0.1516  0.0001
23382SOL    HW171247   0.638   2.379   0.893 -1.4397  0.9187  2.0220
23382SOL    HW271248   0.749   2.473   0.938  0.2794 -0.1339  0.1623
23383SOL     OW71249   2.015   1.224   1.292 -0.5310  0.3498  0.3881
23383SOL    HW171250   2.036   1.131   1.296  0.4449  0.3841 -2.2726
23383SOL    HW271251   1.977   1.244   1.378 -1.2787 -2.5874  0.8242
23384SOL     OW71252   9.010   4.367   3.114  0.0523 -0.0520 -0.0206
23384SOL    HW171253   8.957   4.334   3.041 -0.1153  0.2825 -0.0491
23384SOL    HW271254   9.069   4.294   3.134  0.7029  0.1599 -1.0650
23385SOL     OW71255   0.232   3.577   2.915  0.4091  0.1661 -0.4874
23385SOL    HW171256   0.241   3.563   3.010  0.9035  0.5330 -0.4717
23385SOL    HW271257   0.322   3.587   2.885  0.1645  2.9304 -0.5359
23386SOL     OW71258   5.835   8.432   5.026  0.1137  0.3779 -0.0773
23386SOL    HW171259   5.795   8.448   5.112  1.5216 -1.0380  0.9001
23386SOL    HW271260   5.908   8.494   5.021 -0.2606  0.7905 -0.4735
23387SOL     OW71261   1.368   1.746   3.532  0.0638 -0.1725 -0.3245
23387SOL    HW171262   1.319   1.820   3.568 -0.1503 -1.4360  2.1829
23387SOL    HW271263   1.310   1.710   3.465 -2.4705 -1.4515  2.3545
23388SOL     OW71264   2.949   5.212   1.214  0.4941 -0.1266 -0.1076
23388SOL    HW171265   2.979   5.295   1.251 -1.5578  0.4297  0.4858
23388SOL    HW271266   2.986   5.209   1.126 -0.2930  1.9938 -0.5694
23389SOL     OW71267   8.467   0.891   8.356 -0.3066 -0.0906 -0.2461
23389SOL    HW171268   8.531   0.955   8.324  0.4386 -0.9723 -0.5619
23389SOL    HW271269   8.521   0.821   8.394 -1.1342  0.1251  1.4293
23390SOL     OW71270   8.652   7.765   4.457 -0.1022 -0.0158 -0.0843
23390SOL    HW171271   8.651   7.787   4.364 -0.3687  1.6397  0.2767
23390SOL    HW271272   8.560   7.758   4.482 -0.0387 -0.0135  0.1546
23391SOL     OW71273   0.704   2.249   3.870 -0.0693 -0.4239 -0.0110
23391SOL    HW171274   0.679   2.240   3.962 -0.8345 -0.8517 -0.2448
23391SOL    HW271275   0.788   2.204   3.863 -0.5987 -1.4939  0.2451
23392SOL     OW71276   0.014   5.845   3.396 -0.6724  0.0716 -0.5796
23392SOL    HW171277   0.084   5.902   3.365  0.1214  0.1887  1.3341
23392SOL    HW271278   0.043   5.757   3.373 -1.0657  0.2602 -1.9277
23393SOL     OW71279   5.177   7.908   4.235 -0.3098 -0.0843  0.2649
23393SOL    HW171280   5.120   7.913   4.312 -2.2401 -2.6999 -0.8643
23393SOL    HW271281   5.173   7.817   4.208  1.6499  0.4105 -1.9827
23394SOL     OW71282   6.612   5.083   7.641 -0.0806  0.6695 -0.4833
23394SOL    HW171283   6.654   5.168   7.631 -0.4890  0.8671 -0.5492
23394SOL    HW271284   6.551   5.094   7.714 -0.1018  0.4214 -0.4609
23395SOL     OW71285   5.857   0.632   7.046  0.2205 -0.0558 -0.3992
23395SOL    HW171286   5.899   0.716   7.028  1.0451 -0.5059 -0.6277
23395SOL    HW271287   5.815   0.607   6.963 -0.7745  0.5270 -0.0946
23396SOL     OW71288   3.270   3.403   4.046 -0.1321 -0.0114 -0.0637
23396SOL    HW171289   3.262   3.497   4.064  1.1280 -0.0905  1.1108
23396SOL    HW271290   3.185   3.378   4.010 -0.5782  1.5282 -0.1607
23397SOL     OW71291   8.590   0.208   5.241  0.7051  0.6801  0.5036
23397SOL    HW171292   8.589   0.228   5.334  1.7801  0.7551  0.5104
23397SOL    HW271293   8.551   0.121   5.235 -0.1758  1.0362  0.9203
23398SOL     OW71294   1.536   1.426   5.125 -0.0964 -0.5155  0.1378
23398SOL    HW171295   1.526   1.355   5.062 -0.9342 -1.3800  1.2256
23398SOL    HW271296   1.589   1.491   5.079 -0.1362 -1.4131 -1.2170
23399SOL     OW71297   0.513   1.790   7.765 -0.5733  0.4204  0.2015
23399SOL    HW171298   0.527   1.817   7.674  1.4195  0.3146  0.4360
23399SOL    HW271299   0.529   1.870   7.816  1.1687 -0.1573  0.6174
23400SOL     OW71300   6.486   5.286   4.001 -0.0096  0.2746  0.0329
23400SOL    HW171301   6.448   5.242   4.078 -1.8153  1.7912  0.0905
23400SOL    HW271302   6.443   5.243   3.926 -1.6284  1.6953  0.0831
23401SOL     OW71303   6.000   1.265   2.853  0.1762 -0.4707  0.4741
23401SOL    HW171304   6.025   1.314   2.932  2.0611  0.2128 -0.4784
23401SOL    HW271305   5.904   1.262   2.856 -0.3838  5.0352 -0.2748
23402SOL     OW71306   9.028   5.399   0.443  0.4445  0.0304  0.1464
23402SOL    HW171307   9.016   5.494   0.446  1.8329  0.2707 -1.1606
23402SOL    HW271308   9.034   5.378   0.350 -0.0387 -1.3896  0.4016
23403SOL     OW71309   8.548   7.562   2.009 -0.1342  0.2743  0.8831
23403SOL    HW171310   8.561   7.472   1.976 -0.0384  0.9532 -1.0619
23403SOL    HW271311   8.507   7.550   2.095 -1.5875 -1.6300  0.0180
23404SOL     OW71312   8.824   8.878   4.598  0.0222 -0.6231 -0.0088
23404SOL    HW171313   8.847   8.824   4.674  0.0316 -2.1129 -1.0400
23404SOL    HW271314   8.767   8.946   4.635 -1.5110 -2.3881  1.0909
23405SOL     OW71315   2.982   8.585   0.585  0.0195  0.5545  0.0434
23405SOL    HW171316   2.934   8.552   0.508 -2.1485  0.8918  1.1719
23405SOL    HW271317   3.039   8.653   0.550 -0.1107 -0.0471 -1.4171
23406SOL     OW71318   0.055   0.912   8.198  0.0898 -0.3375 -0.0590
23406SOL    HW171319   0.032   0.885   8.110 -3.5363  0.5683  0.4256
23406SOL    HW271320   0.078   0.831   8.244 -1.8923 -1.4023 -0.8597
23407SOL     OW71321   6.213   8.418   0.176 -0.1837  0.0876  0.0234
23407SOL    HW171322   6.167   8.338   0.149 -0.0095  0.6274 -2.0480
23407SOL    HW271323   6.305   8.402   0.153  0.0062  0.5196  0.4666
23408SOL     OW71324   3.260   7.956   5.702  0.2737  0.0946  0.4379
23408SOL    HW171325   3.247   7.892   5.772 -2.7107 -1.4885 -1.3648
23408SOL    HW271326   3.318   7.911   5.640  1.4587  0.7908  1.0153
23409SOL     OW71327   9.003   3.261   8.581  0.4767  0.3004 -0.2116
23409SOL    HW171328   8.947   3.227   8.650 -0.2645  1.6075 -0.1385
23409SOL    HW271329   9.026   3.350   8.609  0.5800  0.6715 -1.3958
23410SOL     OW71330   7.605   0.925   2.990  0.1706 -0.1520 -0.1074
23410SOL    HW171331   7.548   0.979   3.045 -1.7984 -1.8461 -0.3645
23410SOL    HW271332   7.625   0.981   2.915  0.6614  1.2317  0.9997
23411SOL     OW71333   7.241   0.343   4.992 -0.1531 -0.0361  0.1326
23411SOL    HW171334   7.230   0.290   4.913  1.8579 -0.0623 -0.1983
23411SOL    HW271335   7.271   0.282   5.059  0.0994  0.3133  0.3450
23412SOL     OW71336   1.022   1.615   0.747 -0.3646  0.6990  0.3446
23412SOL    HW171337   0.977   1.603   0.830 -0.6728  0.0365  0.0977
23412SOL    HW271338   0.967   1.676   0.698 -0.3823  0.7917  0.4790
23413SOL     OW71339   0.728   2.936   4.378 -0.1699 -0.4134  0.2238
23413SOL    HW171340   0.674   2.944   4.299 -1.8158 -0.5289  1.2908
23413SOL    HW271341   0.740   2.841   4.389 -1.0940 -0.4786  0.8222
23414SOL     OW71342   0.970   6.666   2.293 -0.1226  0.3211  0.1840
23414SOL    HW171343   0.879   6.688   2.272  0.0877  1.6098  0.5811
23414SOL    HW271344   0.984   6.702   2.381  0.2645 -1.3851  0.8689
23415SOL     OW71345   6.166   4.903   0.411  0.1943  0.5250  0.1015
23415SOL    HW171346   6.083   4.871   0.447  0.5953  1.0690  1.6166
23415SOL    HW271347   6.233   4.859   0.463  0.8032  1.5478  0.2126
23416SOL     OW71348   3.373   5.404   0.200  0.6809 -0.1002 -0.1872
23416SOL    HW171349   3.393   5.327   0.147 -1.2797 -0.1863 -0.8965
23416SOL    HW271350   3.439   5.469   0.174  0.5132 -0.5495 -1.8594
23417SOL     OW71351   6.223   7.756   7.780  0.3163 -0.1924 -0.0385
23417SOL    HW171352   6.311   7.768   7.742  0.0283 -1.3723 -1.1528
23417SOL    HW271353   6.166   7.811   7.725 -0.0412 -1.5996 -1.1431
23418SOL     OW71354   0.751   0.301   2.296 -0.4811 -0.6253 -0.0167
23418SOL    HW171355   0.801   0.240   2.350 -0.6251 -0.3854  0.3943
23418SOL    HW271356   0.817   0.354   2.251 -0.3237  0.5896  1.5358
23419SOL     OW71357   2.355   8.860   6.339 -0.0885  0.3991 -0.1829
23419SOL    HW171358   2.383   8.831   6.252  0.6021  0.0239  0.1606
23419SOL    HW271359   2.424   8.832   6.398 -1.6281 -1.4419  0.8501
23420SOL     OW71360   4.120   0.495   2.218 -0.1055 -0.2496 -0.2434
23420SOL    HW171361   4.071   0.569   2.182  0.4770 -0.4888 -1.5609
23420SOL    HW271362   4.193   0.536   2.264  0.5674 -0.0150 -1.5018
23421SOL     OW71363   4.246   0.282   1.587 -0.5555 -0.5923  0.1103
23421SOL    HW171364   4.260   0.209   1.527  0.1176 -1.3153  1.1075
23421SOL    HW271365   4.333   0.319   1.600 -0.7245 -0.3144  0.4766
23422SOL     OW71366   6.528   3.125   4.193 -0.0563 -0.4139 -0.0677
23422SOL    HW171367   6.435   3.132   4.215 -0.2282  1.5450 -1.2540
23422SOL    HW271368   6.529   3.096   4.102  0.4578  0.4697 -0.3546
23423SOL     OW71369   2.766   8.341   0.850 -0.0242 -0.4374  0.2279
23423SOL    HW171370   2.812   8.263   0.880  1.2776 -0.4101 -1.5680
23423SOL    HW271371   2.793   8.411   0.910 -0.2957 -1.0980  1.1380
23424SOL     OW71372   7.314   4.512   6.169  0.2066  0.2850 -0.5025
23424SOL    HW171373   7.282   4.424   6.150 -1.2469  1.0919 -2.1049
23424SOL    HW271374   7.284   4.565   6.095 -0.1285  2.4032  1.0571
23425SOL     OW71375   2.469   3.136   1.405  0.1760  0.1978  0.3975
23425SOL    HW171376   2.433   3.180   1.482 -1.2882 -2.6500  1.4980
23425SOL    HW271377   2.560   3.118   1.429 -0.2282 -0.5576  1.5123
23426SOL     OW71378   1.992   4.922   8.569  0.1399 -0.6064 -0.0891
23426SOL    HW171379   1.903   4.958   8.577  0.8307  1.1124  0.1145
23426SOL    HW271380   2.043   4.992   8.529  2.5237  0.4653  4.1843
23427SOL     OW71381   6.187   3.702   6.476 -0.0811 -0.0797  0.4844
23427SOL    HW171382   6.223   3.635   6.535 -1.1824  0.0914  1.3823
23427SOL    HW271383   6.175   3.658   6.393  0.5781 -0.5926  0.6516
23428SOL     OW71384   3.862   4.819   7.350 -0.5542  0.2127  0.1524
23428SOL    HW171385   3.914   4.738   7.350 -0.0656  0.5218 -0.0058
23428SOL    HW271386   3.916   4.882   7.398 -0.3179  0.8197 -0.8649
23429SOL     OW71387   5.529   8.574   8.026  0.1712 -0.1781  0.4182
23429SOL    HW171388   5.529   8.483   8.054  1.1378 -1.1049 -2.2320
23429SOL    HW271389   5.458   8.615   8.075 -0.3446 -2.3573  1.6036
23430SOL     OW71390   4.428   3.810   8.917  0.2498  0.2435  0.0268
23430SOL    HW171391   4.378   3.859   8.982 -0.3470  2.5397 -1.9756
23430SOL    HW271392   4.512   3.857   8.911  0.1290  0.3557 -1.1027
23431SOL     OW71393   2.659   2.960   4.186  0.6118  0.3131 -0.0064
23431SOL    HW171394   2.616   2.883   4.149  1.4510  0.2267 -0.8609
23431SOL    HW271395   2.590   3.025   4.194 -0.3474 -0.8709  1.7950
23432SOL     OW71396   1.863   4.137   8.492 -0.5312 -0.2806  0.1904
23432SOL    HW171397   1.904   4.224   8.496 -0.9993 -0.0904  3.0277
23432SOL    HW271398   1.772   4.155   8.468 -0.3477 -0.1235 -0.4033
23433SOL     OW71399   4.118   0.509   2.596  0.4628  0.5429 -0.4581
23433SOL    HW171400   4.197   0.487   2.546 -0.8145 -2.5238 -1.3804
23433SOL    HW271401   4.128   0.460   2.678 -1.2217 -1.5270 -1.3789
23434SOL     OW71402   2.108   6.520   6.638 -0.2110 -0.0486 -0.4198
23434SOL    HW171403   2.015   6.496   6.644 -0.1485 -0.1409  0.3535
23434SOL    HW271404   2.107   6.616   6.638 -0.2957 -0.0472 -0.1141
23435SOL     OW71405   0.196   7.586   9.066  0.4217 -0.0496  0.0143
23435SOL    HW171406   0.219   7.678   9.083  1.4162 -0.3642  0.4275
23435SOL    HW271407   0.252   7.561   8.992  2.0787 -1.0552  1.5373
23436SOL     OW71408   6.451   1.465   0.829  0.2722 -0.6308 -0.2188
23436SOL    HW171409   6.467   1.558   0.812  0.2902 -0.5627  0.1784
23436SOL    HW271410   6.512   1.420   0.770  0.3297 -0.3917 -0.3447
23437SOL     OW71411   1.721   8.045   6.174  0.1515 -0.2689 -0.3545
23437SOL    HW171412   1.754   8.111   6.235 -0.2125 -0.6009  0.2108
23437SOL    HW271413   1.799   8.015   6.127  0.9242 -1.9055  1.7783
23438SOL     OW71414   2.463   6.076   8.761 -0.3863  0.1456 -0.6871
23438SOL    HW171415   2.407   6.060   8.685 -0.0856 -0.6538 -0.7472
23438SOL    HW271416   2.536   6.128   8.727 -1.4144  1.8089 -0.4729
23439SOL     OW71417   8.483   2.758   8.380 -0.4997 -0.4481 -0.3605
23439SOL    HW171418   8.484   2.708   8.461 -0.8842  0.4114  0.1919
23439SOL    HW271419   8.456   2.846   8.406 -0.1005 -0.0134 -1.3397
23440SOL     OW71420   1.191   1.616   4.518 -0.0490 -0.0547 -0.3236
23440SOL    HW171421   1.161   1.533   4.482 -1.6141 -0.4890  1.7381
23440SOL    HW271422   1.252   1.592   4.588 -1.4025  0.3889  1.0857
23441SOL     OW71423   0.033   1.550   6.809  0.3137  0.0599  0.2113
23441SOL    HW171424  -0.047   1.598   6.787  1.0918  0.7617 -1.1574
23441SOL    HW271425   0.071   1.526   6.725  1.1012 -1.0408  0.8512
23442SOL     OW71426   0.734   8.116   1.306 -0.2249 -0.2720  0.2038
23442SOL    HW171427   0.656   8.132   1.253 -0.1453  1.4097  0.5464
23442SOL    HW271428   0.748   8.022   1.301 -1.4246 -0.4028 -1.0590
23443SOL     OW71429   8.222   4.189   8.013  0.2911 -0.4212  0.2632
23443SOL    HW171430   8.204   4.260   8.075 -0.1766  1.2232 -1.6316
23443SOL    HW271431   8.159   4.203   7.942  1.8470 -1.2035 -1.3579
23444SOL     OW71432   6.109   6.209   4.514 -0.1839  0.2170 -0.1476
23444SOL    HW171433   6.029   6.171   4.550 -1.6270  1.4916 -1.8064
23444SOL    HW271434   6.179   6.152   4.544 -1.7063 -0.9161  1.4090
23445SOL     OW71435   6.096   1.075   4.216 -0.2556  0.0150 -0.2920
23445SOL    HW171436   6.109   1.088   4.310 -0.7414 -0.4485 -0.1521
23445SOL    HW271437   6.140   1.149   4.175  2.0379 -1.0169  0.1857
23446SOL     OW71438   4.311   8.775   6.265 -0.1423  0.0776 -0.3935
23446SOL    HW171439   4.296   8.869   6.267  0.6568  0.2622  2.8094
23446SOL    HW271440   4.225   8.736   6.278 -0.0043  0.6481  3.2472
23447SOL     OW71441   0.406   7.396   8.126  0.4613  0.6239 -0.0522
23447SOL    HW171442   0.382   7.486   8.103 -0.5862  1.4151  3.4031
23447SOL    HW271443   0.479   7.406   8.187 -0.6350 -0.6998  1.5654
23448SOL     OW71444   0.284   4.197   1.663 -0.0403  0.0404 -0.8237
23448SOL    HW171445   0.364   4.205   1.714 -1.1507  0.7551  0.9202
23448SOL    HW271446   0.266   4.103   1.662  0.4548 -0.0599 -0.6212
23449SOL     OW71447   4.585   1.837   0.626 -0.0655 -0.2773  0.5058
23449SOL    HW171448   4.595   1.758   0.679 -0.9347 -1.0252 -0.4046
23449SOL    HW271449   4.670   1.881   0.631  0.3447 -1.1368  1.2411
23450SOL     OW71450   3.574   5.834   2.673 -0.1943  0.1117 -0.0543
23450SOL    HW171451   3.599   5.907   2.731  0.7737  0.1733 -0.5248
23450SOL    HW271452   3.519   5.874   2.606 -0.5739  0.2018  0.3030
23451SOL     OW71453   4.155   5.565   4.863 -0.6343  0.1599 -0.5539
23451SOL    HW171454   4.228   5.512   4.829 -0.7891 -0.3656 -0.0752
23451SOL    HW271455   4.183   5.656   4.848  0.3852 -0.0192  0.1538
23452SOL     OW71456   3.639   8.579   2.764 -0.3037 -0.5637 -0.7128
23452SOL    HW171457   3.630   8.586   2.669  0.6517  1.7615 -0.7080
23452SOL    HW271458   3.720   8.626   2.784  1.2786 -3.7100  0.9897
23453SOL     OW71459   2.911   6.491   7.776 -0.1750  0.0458  0.1256
23453SOL    HW171460   2.827   6.501   7.822 -0.9929  2.0328 -1.6696
23453SOL    HW271461   2.976   6.508   7.844 -1.0875 -2.4144  1.7936
23454SOL     OW71462   5.884   0.133   6.588 -0.2465  0.1407 -0.0497
23454SOL    HW171463   5.907   0.173   6.672  0.6256 -2.0819  0.8450
23454SOL    HW271464   5.965   0.091   6.559 -1.2199 -1.3881 -0.6564
23455SOL     OW71465   2.295   7.799   2.247  0.6531  0.2149  0.1140
23455SOL    HW171466   2.238   7.776   2.174 -0.4499  0.3442  0.8930
23455SOL    HW271467   2.330   7.885   2.225  3.0700 -1.1364 -1.8085
23456SOL     OW71468   1.321   0.988   3.442  0.6199  0.4428  0.1204
23456SOL    HW171469   1.298   0.970   3.534  0.4022 -0.8507 -0.1557
23456SOL    HW271470   1.410   0.954   3.433  1.0407  1.5278  0.1057
23457SOL     OW71471   6.290   4.833   4.059 -0.1244  0.1389 -0.0583
23457SOL    HW171472   6.207   4.807   4.019  0.5809 -2.5390  0.0547
23457SOL    HW271473   6.282   4.807   4.151  0.7178  0.1093  0.0193
23458SOL     OW71474   4.689   2.283   2.686  0.4298  0.4418 -0.0908
23458SOL    HW171475   4.720   2.193   2.680  2.3401  1.0902 -0.8036
23458SOL    HW271476   4.610   2.285   2.633 -1.7656 -1.5813  2.8103
23459SOL     OW71477   2.948   6.663   7.157  1.2466  0.2108 -0.5431
23459SOL    HW171478   2.970   6.753   7.182 -0.4210  1.2335 -2.4560
23459SOL    HW271479   3.030   6.627   7.125  1.5981  1.7162 -1.4665
23460SOL     OW71480   4.816   2.462   1.969 -0.1533  0.0635 -0.5491
23460SOL    HW171481   4.726   2.468   1.936 -0.6639  1.5609  1.0270
23460SOL    HW271482   4.808   2.474   2.063  1.7136  0.2508 -0.3873
23461SOL     OW71483   3.451   0.244   6.733 -0.0852  0.3356 -0.6245
23461SOL    HW171484   3.461   0.182   6.806 -3.2331 -0.7508 -0.9770
23461SOL    HW271485   3.431   0.328   6.775  0.7527  0.3384 -0.2130
23462SOL     OW71486   4.116   2.800   6.484 -0.1385 -0.3606 -0.3498
23462SOL    HW171487   4.167   2.880   6.498 -0.1916 -0.4146  0.2085
23462SOL    HW271488   4.140   2.770   6.397  0.7955 -0.3874 -0.0959
23463SOL     OW71489   2.741   1.602   2.663  0.1330 -0.2186  0.0104
23463SOL    HW171490   2.647   1.615   2.652 -0.0731 -0.6246  1.0848
23463SOL    HW271491   2.765   1.663   2.733  0.4523 -0.8330  0.4531
23464SOL     OW71492   8.728   8.333   1.020 -0.1570 -0.4575 -0.2533
23464SOL    HW171493   8.728   8.291   1.106  3.3331 -1.3422 -0.5257
23464SOL    HW271494   8.763   8.420   1.036  1.4795 -0.9738 -0.8371
23465SOL     OW71495   1.617   8.816   2.125  0.0250 -0.4425 -0.2234
23465SOL    HW171496   1.596   8.731   2.085  0.4983 -0.4858 -0.3820
23465SOL    HW271497   1.535   8.843   2.168 -0.1862 -0.8824 -0.3435
23466SOL     OW71498   6.088   7.904   7.577  0.1417 -0.2797  0.1792
23466SOL    HW171499   6.076   7.967   7.506  1.6578 -1.1656 -0.9333
23466SOL    HW271500   6.030   7.831   7.554 -0.3106 -0.0428  0.5454
23467SOL     OW71501   1.759   6.482   5.876  0.2852  0.5807 -0.1016
23467SOL    HW171502   1.837   6.451   5.922  0.4912  0.3588 -0.5944
23467SOL    HW271503   1.748   6.572   5.905  0.1473  0.3078  0.7352
23468SOL     OW71504   3.997   7.013   3.523  0.4660  0.1493 -0.0963
23468SOL    HW171505   4.085   6.989   3.554  0.0149  0.8733  1.8729
23468SOL    HW271506   3.995   6.981   3.433  3.1813  1.1821 -0.6344
23469SOL     OW71507   6.803   8.343   3.651  0.5003  0.1388  0.3817
23469SOL    HW171508   6.888   8.330   3.694  0.7125  4.4779  1.7474
23469SOL    HW271509   6.750   8.268   3.680  3.0271 -1.2825  1.6667
23470SOL     OW71510   8.728   5.867   3.278 -0.2128 -0.6122 -0.0508
23470SOL    HW171511   8.805   5.826   3.237 -0.3578 -1.8290  0.8480
23470SOL    HW271512   8.684   5.911   3.205  0.3427 -1.4630 -0.9341
23471SOL     OW71513   0.804   3.335   5.248  0.1645  0.2671  0.0556
23471SOL    HW171514   0.802   3.419   5.203  1.2045 -0.3214 -1.1544
23471SOL    HW271515   0.763   3.274   5.187  1.8254 -0.6012 -0.2535
23472SOL     OW71516   2.681   7.871   2.591  0.1833  0.7229 -0.1452
23472SOL    HW171517   2.601   7.917   2.565 -0.2537 -0.0594 -0.2190
23472SOL    HW271518   2.721   7.927   2.658  0.9224  2.3963 -1.8892
23473SOL     OW71519   2.095   0.801   2.513 -0.5390  0.2409  0.2607
23473SOL    HW171520   2.151   0.759   2.447 -1.5858 -1.8798  0.6387
23473SOL    HW271521   2.145   0.795   2.594  0.3453  2.0046 -0.1026
23474SOL     OW71522   4.540   3.016   7.903  0.5776  0.8359 -0.1725
23474SOL    HW171523   4.611   3.013   7.839 -0.5336 -0.1498 -1.4005
23474SOL    HW271524   4.484   3.088   7.874 -1.4751 -1.3491 -2.1267
23475SOL     OW71525   4.763   4.503   3.847  0.4062  0.5909 -0.5915
23475SOL    HW171526   4.805   4.497   3.762 -0.0022  3.3042 -1.0700
23475SOL    HW271527   4.835   4.503   3.910  0.8583  0.7671 -1.1043
23476SOL     OW71528   7.745   8.901   1.426 -0.5903 -0.2342 -0.4322
23476SOL    HW171529   7.658   8.940   1.423 -0.2529  0.6937  0.9133
23476SOL    HW271530   7.802   8.971   1.459  0.3216 -1.3929  0.5549
23477SOL     OW71531   5.242   5.215   6.886  0.3587  0.1735  0.1833
23477SOL    HW171532   5.332   5.242   6.903  0.1143  0.5050  0.9741
23477SOL    HW271533   5.202   5.290   6.842 -0.2929  1.1398  2.2931
23478SOL     OW71534   4.950   5.010   0.130 -0.5490 -0.2692 -0.1467
23478SOL    HW171535   4.943   4.963   0.213 -1.8784  0.8698  0.4285
23478SOL    HW271536   4.864   5.002   0.090 -0.5755  0.9895 -0.3860
23479SOL     OW71537   2.941   0.143   2.230  0.2650  0.9244 -0.3370
23479SOL    HW171538   2.957   0.223   2.281  1.5808  0.1912  0.4581
23479SOL    HW271539   3.026   0.123   2.191  0.6288 -1.3830  1.4203
23480SOL     OW71540   0.754   1.593   8.081 -0.7746 -0.8147  0.0233
23480SOL    HW171541   0.720   1.558   8.163 -1.1630 -2.6028 -0.8646
23480SOL    HW271542   0.687   1.573   8.015 -0.1702 -0.0300 -0.8728
23481SOL     OW71543   0.108   2.030   6.811  0.1702 -1.4746  0.0235
23481SOL    HW171544   0.034   1.975   6.786 -0.7426  0.4297 -1.7153
23481SOL    HW271545   0.078   2.077   6.889 -0.4743 -0.7069 -0.6787
23482SOL     OW71546   4.079   4.267   6.599  0.4279 -0.0371 -0.0237
23482SOL    HW171547   4.088   4.176   6.570  1.2093  0.4488 -1.4047
23482SOL    HW271548   4.067   4.317   6.518  1.9771  1.3067  0.5206
23483SOL     OW71549   7.884   2.110   4.108  0.6069  0.2596  0.3818
23483SOL    HW171550   7.826   2.038   4.135  0.5211  0.3239  0.3665
23483SOL    HW271551   7.866   2.121   4.015  0.2260  0.6658  0.5015
23484SOL     OW71552   3.441   1.580   4.468  0.5253 -0.1266 -0.1983
23484SOL    HW171553   3.520   1.527   4.473 -0.7865 -2.0536  1.1316
23484SOL    HW271554   3.379   1.538   4.528 -1.4643  1.4098 -1.0566
23485SOL     OW71555   8.506   4.466   4.054  0.3424  0.1666  0.6460
23485SOL    HW171556   8.522   4.553   4.018 -0.3936  0.2997  0.6177
23485SOL    HW271557   8.485   4.482   4.146 -2.8398  0.3813  0.0075
23486SOL     OW71558   0.548   7.773   4.396 -0.2884  0.9193 -0.2732
23486SOL    HW171559   0.502   7.746   4.476 -1.0098  0.5705 -0.8012
23486SOL    HW271560   0.635   7.798   4.427  0.2431 -1.4544  0.3295
23487SOL     OW71561   2.913   1.713   0.904 -0.3237  0.4460 -0.3362
23487SOL    HW171562   2.985   1.700   0.966 -0.6249  0.6738  0.0711
23487SOL    HW271563   2.837   1.673   0.946 -0.0639 -1.4660 -1.5934
23488SOL     OW71564   1.085   2.657   1.697 -0.1752 -0.4635 -0.9173
23488SOL    HW171565   1.103   2.751   1.703  1.3214 -0.8263  2.0218
23488SOL    HW271566   1.015   2.642   1.760  1.4033 -1.6390  0.6469
23489SOL     OW71567   6.555   7.054   6.794  0.3318  0.4242  0.2630
23489SOL    HW171568   6.475   7.010   6.820  0.4765 -0.0392 -0.0579
23489SOL    HW271569   6.558   7.133   6.848  1.5263 -1.3363  3.0493
23490SOL     OW71570   1.512   1.921   3.929 -0.0665  0.0303  0.0607
23490SOL    HW171571   1.459   1.853   3.969 -1.6984  0.7679 -0.7388
23490SOL    HW271572   1.484   1.923   3.837 -0.8456  2.4073  0.2731
23491SOL     OW71573   7.442   2.425   7.556  0.4326  0.5170  0.6038
23491SOL    HW171574   7.453   2.410   7.462  1.6299 -1.5223  1.0085
23491SOL    HW271575   7.352   2.457   7.565  0.5760  1.5761 -1.2954
23492SOL     OW71576   1.314   2.408   0.751  0.3636  0.1272  0.2447
23492SOL    HW171577   1.335   2.324   0.710 -1.4993  0.6424 -1.9957
23492SOL    HW271578   1.276   2.385   0.836  1.2542 -1.1877  0.3121
23493SOL     OW71579   0.156   0.542   9.122 -0.2600 -0.1348 -0.2827
23493SOL    HW171580   0.159   0.563   9.215 -1.8872 -2.2330  0.3206
23493SOL    HW271581   0.247   0.522   9.099  0.1304  0.2041  0.8992
23494SOL     OW71582   1.588   4.615   0.500 -0.2161 -0.0376  0.0284
23494SOL    HW171583   1.572   4.546   0.435 -0.0228 -0.4424  0.4061
23494SOL    HW271584   1.669   4.657   0.470  0.0530 -0.4362  0.1796
23495SOL     OW71585   3.995   2.893   3.903 -0.3102 -0.4814  1.0402
23495SOL    HW171586   3.992   2.950   3.979  0.2374  0.6423  0.2523
23495SOL    HW271587   4.071   2.836   3.919  0.9689  1.0021  0.5178
23496SOL     OW71588   4.644   8.975   0.025  0.2957 -0.1874 -0.4291
23496SOL    HW171589   4.593   9.055   0.022  1.5951  0.6492 -0.7728
23496SOL    HW271590   4.658   8.951  -0.067 -0.9906 -1.4191 -0.3295
23497SOL     OW71591   9.077   0.568   8.508 -0.1058 -0.3460  0.1894
23497SOL    HW171592   9.131   0.606   8.439  0.5504 -0.4200  0.6581
23497SOL    HW271593   9.082   0.631   8.580  0.6049 -1.0641  0.7952
23498SOL     OW71594   3.300   1.992   3.797  0.0693  0.4153 -0.4527
23498SOL    HW171595   3.378   2.041   3.822 -0.9308  1.2550  1.2153
23498SOL    HW271596   3.227   2.052   3.814 -1.1799 -1.4582  1.3508
23499SOL     OW71597   0.646   3.821   8.789  0.1453 -0.7051  0.6857
23499SOL    HW171598   0.588   3.751   8.819  0.9873 -0.6140  2.7433
23499SOL    HW271599   0.733   3.781   8.785  0.2224 -0.4506 -0.8407
23500SOL     OW71600   0.864   8.403   1.563 -0.0835 -0.2424 -0.7860
23500SOL    HW171601   0.864   8.458   1.484  2.9860 -1.8639 -2.0677
23500SOL    HW271602   0.919   8.450   1.625 -2.3681  0.9508  0.4717
23501SOL     OW71603   3.895   8.640   6.969  0.0365  0.3885 -0.8299
23501SOL    HW171604   3.977   8.642   7.017 -1.1127  0.6206  1.2467
23501SOL    HW271605   3.888   8.728   6.930  0.5174  0.5480 -0.5683
23502SOL     OW71606   6.340   8.580   9.007  0.0533 -0.3754  0.4398
23502SOL    HW171607   6.323   8.625   9.089  0.5545 -0.7620  0.7647
23502SOL    HW271608   6.435   8.567   9.006  0.0206 -0.6145 -0.0742
23503SOL     OW71609   8.903   0.566   8.796  0.4082 -0.1603 -0.3978
23503SOL    HW171610   8.850   0.492   8.826  0.0522 -0.2675 -1.2542
23503SOL    HW271611   8.993   0.539   8.815  0.1893 -0.0408  0.9225
23504SOL     OW71612   5.524   4.864   8.703 -0.1912  0.7400  0.0541
23504SOL    HW171613   5.435   4.830   8.712 -0.3596  1.0531 -0.3705
23504SOL    HW271614   5.545   4.901   8.789  0.9107 -2.5260  1.3193
23505SOL     OW71615   6.240   2.996   3.536  0.2912 -0.1169 -0.1007
23505SOL    HW171616   6.247   3.084   3.499  2.6412  0.1613  0.8171
23505SOL    HW271617   6.168   2.955   3.488 -0.4890  2.1040 -0.9323
23506SOL     OW71618   2.691   3.696   6.121  0.1099 -0.3249  0.5094
23506SOL    HW171619   2.598   3.675   6.110 -0.0799  1.4207 -2.2831
23506SOL    HW271620   2.732   3.667   6.040  1.7991  0.0772  1.1740
23507SOL     OW71621   8.111   3.685   2.681  0.4437  0.1911  0.0131
23507SOL    HW171622   8.134   3.658   2.592 -1.9514 -1.0136 -0.3200
23507SOL    HW271623   8.177   3.644   2.737  0.9388 -0.5458 -1.0917
23508SOL     OW71624   2.296   2.526   7.982 -0.5624  0.1803  0.3275
23508SOL    HW171625   2.204   2.502   7.970 -0.4570 -0.4604  0.8146
23508SOL    HW271626   2.324   2.480   8.061  0.2254  0.2448  0.0976
23509SOL     OW71627   0.534   2.087   2.756 -0.3098 -0.0714 -0.4945
23509SOL    HW171628   0.617   2.130   2.774  0.3823 -1.8661  0.9190
23509SOL    HW271629   0.469   2.157   2.760  0.7835  0.9169  1.4655
23510SOL     OW71630   5.178   1.279   0.848 -0.3599 -0.4757  0.8030
23510SOL    HW171631   5.112   1.314   0.908 -0.0985  0.9382  0.3042
23510SOL    HW271632   5.195   1.351   0.787  1.6457 -0.8035  0.9149
23511SOL     OW71633   5.413   7.910   2.407  0.2513 -0.0317 -0.0858
23511SOL    HW171634   5.433   7.881   2.319 -0.5251  2.8630 -1.3377
23511SOL    HW271635   5.319   7.896   2.416  0.6083 -2.1494  1.1253
23512SOL     OW71636   8.638   1.086   3.291  0.3896 -0.6181 -0.5450
23512SOL    HW171637   8.707   1.043   3.241  1.0983 -0.2655  0.1110
23512SOL    HW271638   8.566   1.022   3.292  0.8119 -1.1122 -0.9776
23513SOL     OW71639   5.407   6.555   5.958 -0.3605 -0.1748  0.6466
23513SOL    HW171640   5.321   6.578   5.994 -0.7461 -0.3940 -0.1104
23513SOL    HW271641   5.418   6.615   5.884  0.5038  0.3979  1.2163
23514SOL     OW71642   2.440   1.772   7.327  0.3914  0.2354  0.4678
23514SOL    HW171643   2.439   1.693   7.274  2.2050 -1.3767  2.6228
23514SOL    HW271644   2.367   1.762   7.387 -1.2028  1.7021 -1.1248
23515SOL     OW71645   3.369   6.620   2.147 -0.5409  0.3979  0.1081
23515SOL    HW171646   3.428   6.688   2.114  1.1632 -2.2851 -2.9523
23515SOL    HW271647   3.427   6.556   2.188 -2.0914  0.5864  2.8534
23516SOL     OW71648   0.973   3.745   4.428  0.0464 -0.2183 -0.1985
23516SOL    HW171649   1.031   3.782   4.361  0.2213 -0.6714 -0.2944
23516SOL    HW271650   1.023   3.753   4.509 -0.7959  1.8691  0.1942
23517SOL     OW71651   5.748   1.621   2.989 -0.4865 -0.4749 -0.1893
23517SOL    HW171652   5.793   1.685   2.934  0.1061 -0.8867 -0.1922
23517SOL    HW271653   5.657   1.626   2.961 -0.4060  0.1827 -0.3632
23518SOL     OW71654   3.339   3.684   5.878 -0.2668 -0.2798  0.1068
23518SOL    HW171655   3.396   3.627   5.826 -0.0151 -0.0413  0.1203
23518SOL    HW271656   3.396   3.721   5.946 -0.4275 -0.0236  0.1063
23519SOL     OW71657   5.130   8.961   5.150 -0.4726  0.6662  0.6828
23519SOL    HW171658   5.116   8.903   5.225  2.5252  0.2480  1.0590
23519SOL    HW271659   5.184   9.032   5.185  2.0297 -0.1527 -1.2356
23520SOL     OW71660   2.192   2.869   0.819  0.2703 -0.8888 -0.0201
23520SOL    HW171661   2.282   2.857   0.790 -0.2095 -0.8792 -1.5994
23520SOL    HW271662   2.146   2.793   0.785 -0.6247 -0.0945 -0.6427
23521SOL     OW71663   5.748   4.295   6.439  0.0161  0.0187 -0.0620
23521SOL    HW171664   5.826   4.276   6.491  0.2623  0.7225 -0.1539
23521SOL    HW271665   5.772   4.269   6.350 -0.5813 -1.6454  0.2411
23522SOL     OW71666   4.727   5.862   8.412 -0.4547  0.1870  0.1641
23522SOL    HW171667   4.807   5.836   8.366  0.8454  0.6051  2.0877
23522SOL    HW271668   4.736   5.823   8.499 -2.8160 -0.5479  0.1530
23523SOL     OW71669   6.208   0.837   5.496 -0.2128  0.4345 -0.5991
23523SOL    HW171670   6.229   0.930   5.497 -0.3308  0.4592 -0.3247
23523SOL    HW271671   6.128   0.830   5.444 -0.6772  0.5898  0.0839
23524SOL     OW71672   4.000   3.513   1.958  0.1606  0.0516 -0.3977
23524SOL    HW171673   4.021   3.606   1.960  0.0641  0.1064 -1.3484
23524SOL    HW271674   4.038   3.481   1.875 -1.7212 -0.2605 -1.1966
23525SOL     OW71675   4.351   0.617   1.651 -0.4278 -0.7541 -0.1432
23525SOL    HW171676   4.316   0.569   1.727 -0.0601 -0.0901  0.4521
23525SOL    HW271677   4.335   0.558   1.577  0.6089 -2.1046  0.6485
23526SOL     OW71678   6.272   6.664   8.783 -0.2985 -0.4761  0.4770
23526SOL    HW171679   6.226   6.711   8.853  0.1231  0.8089 -0.0698
23526SOL    HW271680   6.268   6.572   8.809 -1.2802 -0.1642  1.5243
23527SOL     OW71681   3.756   4.953   0.674  0.0326  0.0814 -1.1026
23527SOL    HW171682   3.695   5.012   0.719  0.0216  0.1274 -1.1787
23527SOL    HW271683   3.824   5.010   0.639  0.8170 -0.0859  0.0850
23528SOL     OW71684   8.379   8.083   2.621  0.2784  0.0257 -0.1712
23528SOL    HW171685   8.473   8.069   2.614  0.3628 -0.8170  1.9326
23528SOL    HW271686   8.370   8.177   2.639  0.7682  0.0013  0.2085
23529SOL     OW71687   4.237   6.282   6.060  0.5984  0.3938  0.8972
23529SOL    HW171688   4.205   6.256   5.974  0.3135 -0.1008  1.1485
23529SOL    HW271689   4.249   6.199   6.107  2.0528  0.5655  0.8834
23530SOL     OW71690   5.497   4.270   2.233 -0.1946  0.3927 -0.6742
23530SOL    HW171691   5.517   4.189   2.186 -3.1699 -0.5063 -0.6174
23530SOL    HW271692   5.491   4.337   2.165  0.8570  0.2845 -0.8906
23531SOL     OW71693   7.472   2.782   0.010 -0.0011 -0.1593 -0.5644
23531SOL    HW171694   7.491   2.849   0.076 -1.1675  0.4853 -0.8425
23531SOL    HW271695   7.544   2.788  -0.052  0.9297 -0.5340  0.4556
23532SOL     OW71696   2.341   1.424   8.768 -0.6164  0.4876 -0.7885
23532SOL    HW171697   2.410   1.358   8.772 -0.0560  1.0204 -1.5302
23532SOL    HW271698   2.319   1.431   8.675 -0.5691  1.4386 -0.7368
23533SOL     OW71699   1.912   0.883   1.662 -0.0758 -0.0605 -0.2061
23533SOL    HW171700   1.911   0.968   1.706 -1.0562 -0.2014  0.0651
23533SOL    HW271701   2.005   0.864   1.649  0.2293  0.1343  1.5085
23534SOL     OW71702   3.769   3.203   6.367  0.8431  0.1680 -0.1263
23534SOL    HW171703   3.783   3.157   6.284 -0.2472 -0.8373  0.2163
23534SOL    HW271704   3.797   3.293   6.350  0.7502 -0.0476 -1.5493
23535SOL     OW71705   6.387   1.963   7.616 -0.1947  0.0330 -0.2594
23535SOL    HW171706   6.403   1.991   7.526 -0.5312  1.0612 -0.0134
23535SOL    HW271707   6.461   1.998   7.666 -1.0494  1.2575  0.1941
23536SOL     OW71708   2.838   7.170   0.005 -0.3044 -0.1298 -0.7049
23536SOL    HW171709   2.927   7.145   0.028 -0.4728 -1.3987 -1.3471
23536SOL    HW271710   2.789   7.088   0.006 -1.4365  0.5208 -0.5325
23537SOL     OW71711   0.450   7.112   3.341  0.4054 -0.3824 -0.0593
23537SOL    HW171712   0.498   7.029   3.344 -0.7854 -1.0617  2.0308
23537SOL    HW271713   0.459   7.148   3.430 -1.2427  0.4356 -0.1861
23538SOL     OW71714   0.369   5.615   3.333 -0.5027 -0.3380  0.3589
23538SOL    HW171715   0.381   5.583   3.244 -0.9403  0.1664  0.1116
23538SOL    HW271716   0.332   5.703   3.322 -0.4341 -0.2201  1.0340
23539SOL     OW71717   6.588   4.451   2.996 -0.0367  0.1122  0.2109
23539SOL    HW171718   6.539   4.378   3.033  0.5105 -0.7119 -0.6349
23539SOL    HW271719   6.541   4.473   2.915 -0.2336  0.7404  0.4906
23540SOL     OW71720   4.470   7.226   5.267  0.3354  0.0646 -0.0728
23540SOL    HW171721   4.480   7.138   5.230 -0.0130  1.2560 -3.2807
23540SOL    HW271722   4.559   7.257   5.281  0.5537  0.2469 -1.7311
23541SOL     OW71723   0.422   5.217   2.663  0.2520 -0.2807  0.1178
23541SOL    HW171724   0.354   5.277   2.633  1.7668  1.1666 -0.5833
23541SOL    HW271725   0.374   5.144   2.703 -1.6810  2.0029  2.3091
23542SOL     OW71726   0.594   0.252   5.836 -0.0761  0.1520 -0.5532
23542SOL    HW171727   0.668   0.219   5.886 -0.2353  0.3313 -0.1952
23542SOL    HW271728   0.609   0.221   5.747 -0.0138 -0.5438 -0.3057
23543SOL     OW71729   1.465   8.610   3.630 -0.2348  0.3815  0.4992
23543SOL    HW171730   1.481   8.639   3.720  1.3355 -1.0773  0.7296
23543SOL    HW271731   1.415   8.682   3.591  1.7679  2.4948  1.6035
23544SOL     OW71732   5.602   1.905   7.082 -0.2136 -0.2672  0.2437
23544SOL    HW171733   5.592   1.892   6.988  1.8737 -0.2153 -0.0296
23544SOL    HW271734   5.588   1.998   7.096  3.0888  0.5005 -0.6618
23545SOL     OW71735   1.587   2.543   3.907  0.0013  0.2609  0.3671
23545SOL    HW171736   1.604   2.635   3.886  2.3593 -0.2693 -0.3642
23545SOL    HW271737   1.619   2.532   3.996 -1.7441  0.4687  1.0510
23546SOL     OW71738   1.318   2.349   5.634 -0.5546 -0.2104  0.5490
23546SOL    HW171739   1.286   2.334   5.723  0.1513 -1.0386  0.6778
23546SOL    HW271740   1.370   2.272   5.614 -0.5270  0.0669 -0.5115
23547SOL     OW71741   2.139   2.709   0.147 -0.5047 -0.4968  0.2202
23547SOL    HW171742   2.112   2.664   0.227 -0.4765  0.5888  0.8519
23547SOL    HW271743   2.182   2.789   0.177 -0.8568  0.1315 -0.8900
23548SOL     OW71744   7.332   3.354   0.490  0.2086 -0.2628  0.0815
23548SOL    HW171745   7.260   3.411   0.465  0.1319 -0.6903 -0.6671
23548SOL    HW271746   7.334   3.358   0.586 -0.6516 -0.0682  0.0905
23549SOL     OW71747   6.402   1.398   7.185 -0.5909 -0.1150  0.1886
23549SOL    HW171748   6.350   1.393   7.265 -2.2634  1.6343 -0.7025
23549SOL    HW271749   6.360   1.337   7.125 -1.2633  0.8354 -0.3287
23550SOL     OW71750   2.666   3.934   4.022 -0.4098 -0.0244  0.2184
23550SOL    HW171751   2.682   3.951   3.929 -0.6263  1.3034  0.4059
23550SOL    HW271752   2.708   3.850   4.039 -1.3025 -0.8255 -1.3353
23551SOL     OW71753   0.624   4.930   5.333 -0.3149  0.1608  0.2786
23551SOL    HW171754   0.623   5.010   5.280  1.9819 -1.2773 -2.1902
23551SOL    HW271755   0.552   4.878   5.300 -0.2301  0.1582  0.0980
23552SOL     OW71756   3.375   5.922   2.526  0.3542 -0.1339  0.6718
23552SOL    HW171757   3.372   6.013   2.555  2.5151  0.3526 -0.4025
23552SOL    HW271758   3.353   5.926   2.433 -1.2765 -0.9908  0.9690
23553SOL     OW71759   1.598   8.289   8.280  0.2889 -0.3597 -0.2009
23553SOL    HW171760   1.511   8.281   8.317 -0.0755 -0.1178 -0.9756
23553SOL    HW271761   1.609   8.211   8.225  0.1132  0.1522 -0.9800
23554SOL     OW71762   3.269   1.149   6.150  0.0858 -0.3332  0.3861
23554SOL    HW171763   3.187   1.132   6.197  0.2843 -0.8395  0.5506
23554SOL    HW271764   3.334   1.093   6.193  0.9443  1.3890  1.4727
23555SOL     OW71765   4.072   2.645   9.057 -0.3913  0.0968  0.0468
23555SOL    HW171766   4.165   2.664   9.069 -0.3658  0.3141 -0.4614
23555SOL    HW271767   4.069   2.591   8.978 -0.8282  1.5119 -0.9658
23556SOL     OW71768   4.151   5.380   6.359 -0.3057  0.1184 -0.1665
23556SOL    HW171769   4.207   5.407   6.432 -1.9150  1.0212  0.7929
23556SOL    HW271770   4.141   5.459   6.306 -0.6273 -0.0440 -0.3529
23557SOL     OW71771   1.862   4.083   6.972 -0.2216 -0.2256  0.6820
23557SOL    HW171772   1.778   4.045   6.996  0.2512 -1.4484  0.4595
23557SOL    HW271773   1.863   4.083   6.877  0.4588 -1.2309  0.6742
23558SOL     OW71774   3.539   5.496   6.278 -0.3573 -0.0421 -0.8068
23558SOL    HW171775   3.452   5.493   6.240 -0.9627 -1.5293  0.5478
23558SOL    HW271776   3.587   5.560   6.225 -2.0460  0.2948 -2.0073
23559SOL     OW71777   2.972   7.177   6.277 -0.2199  0.1220  0.5644
23559SOL    HW171778   3.029   7.210   6.347  1.2321  0.4545 -0.7191
23559SOL    HW271779   2.944   7.255   6.230 -0.1440 -0.1741  0.0203
23560SOL     OW71780   4.111   0.693   3.353  0.2806 -0.6737  0.6679
23560SOL    HW171781   4.039   0.751   3.378  1.0084  1.0626 -1.0155
23560SOL    HW271782   4.073   0.636   3.286  0.2830 -0.1859  0.2436
23561SOL     OW71783   5.964   2.610   6.009  0.4858 -0.1081  0.1903
23561SOL    HW171784   5.988   2.633   5.920  2.5791 -1.5906  0.3051
23561SOL    HW271785   6.040   2.633   6.062 -0.0802 -0.7381  1.3394
23562SOL     OW71786   0.668   3.097   5.125  0.5311  0.3958  0.7334
23562SOL    HW171787   0.601   3.034   5.152  0.8751  0.5465  2.0135
23562SOL    HW271788   0.743   3.043   5.101 -0.2733  0.1748 -1.5638
23563SOL     OW71789   0.569   3.938   8.006 -0.2643 -0.8336 -0.1860
23563SOL    HW171790   0.662   3.949   7.989 -0.1221 -1.5553  0.0958
23563SOL    HW271791   0.526   3.961   7.923  0.0458  0.9959  0.1308
23564SOL     OW71792   3.578   1.266   7.510  0.1771  0.1165  0.2882
23564SOL    HW171793   3.649   1.205   7.528  0.4955  0.0284 -1.1154
23564SOL    HW271794   3.621   1.344   7.476 -0.3603  0.1900 -0.2477
23565SOL     OW71795   4.869   0.377   8.709  0.3848  0.7991 -0.3590
23565SOL    HW171796   4.787   0.421   8.733 -0.5162 -0.9841  0.0500
23565SOL    HW271797   4.883   0.400   8.618 -2.0899 -0.9342 -1.3031
23566SOL     OW71798   3.429   3.976   6.340  0.6297 -0.3646  0.1566
23566SOL    HW171799   3.391   4.025   6.268 -0.8798 -0.2445  0.9726
23566SOL    HW271800   3.489   4.037   6.383  0.5078  0.0011 -0.1922
23567SOL     OW71801   3.829   5.849   7.034 -0.5313  0.0792 -0.7980
23567SOL    HW171802   3.833   5.878   6.943  0.3177 -1.8718 -1.4531
23567SOL    HW271803   3.867   5.761   7.032 -1.8068 -0.5730  1.2192
23568SOL     OW71804   5.270   5.516   3.744  0.0240 -0.2122 -0.3617
23568SOL    HW171805   5.185   5.475   3.730  0.6546 -1.3746 -1.0078
23568SOL    HW271806   5.325   5.445   3.777  0.1912  1.0527  2.2647
23569SOL     OW71807   7.558   2.834   3.100  0.8687  0.7427  0.2267
23569SOL    HW171808   7.623   2.904   3.092  0.2677  1.3702  0.7022
23569SOL    HW271809   7.610   2.754   3.103  1.6547  1.2598  1.0822
23570SOL     OW71810   1.646   6.350   0.445  0.4075 -0.2933  0.0132
23570SOL    HW171811   1.676   6.328   0.356  1.1652  1.0302 -0.0790
23570SOL    HW271812   1.710   6.309   0.503 -0.4228 -1.6772  0.0041
23571SOL     OW71813   1.033   2.253   1.138 -0.7658 -0.0323 -0.1105
23571SOL    HW171814   1.118   2.293   1.121  0.3336 -1.6553  1.2882
23571SOL    HW271815   0.996   2.238   1.051  0.4738  0.4918 -0.7543
23572SOL     OW71816   4.197   6.196   7.198 -0.4741 -0.6413 -0.3088
23572SOL    HW171817   4.170   6.280   7.162 -0.8800 -0.1584  1.0567
23572SOL    HW271818   4.190   6.207   7.293  1.7869 -1.4218  0.0070
23573SOL     OW71819   8.511   7.103   0.132 -0.1427 -0.1648 -0.7294
23573SOL    HW171820   8.601   7.134   0.144  0.6547 -1.8572 -1.8828
23573SOL    HW271821   8.495   7.046   0.207 -0.4340  0.4893 -0.2875
23574SOL     OW71822   1.493   4.901   5.749  0.0567 -0.3497  0.0706
23574SOL    HW171823   1.521   4.938   5.665 -0.4358 -1.3881 -0.5685
23574SOL    HW271824   1.433   4.831   5.725  0.0572 -0.7861  1.2978
23575SOL     OW71825   1.359   6.133   1.833  0.0323 -0.1142  0.1819
23575SOL    HW171826   1.374   6.111   1.741 -1.0035 -1.0347  0.1978
23575SOL    HW271827   1.359   6.229   1.835 -1.2661 -0.0375 -1.0505
23576SOL     OW71828   5.761   7.603   5.346  0.3389  0.7572 -0.2662
23576SOL    HW171829   5.843   7.576   5.305 -0.1902 -0.6523 -0.4263
23576SOL    HW271830   5.768   7.572   5.436 -0.5591 -0.5928 -0.6329
23577SOL     OW71831   6.799   8.380   4.688  0.2933  0.0097 -0.4313
23577SOL    HW171832   6.798   8.314   4.757  1.6998  0.4153  0.0017
23577SOL    HW271833   6.735   8.445   4.717 -0.8777 -0.9678 -0.7105
23578SOL     OW71834   5.604   8.671   4.186 -0.2479 -0.0167  0.1605
23578SOL    HW171835   5.545   8.739   4.218 -1.6488 -1.2400  0.3095
23578SOL    HW271836   5.679   8.674   4.245 -0.8259  0.6031  0.8857
23579SOL     OW71837   6.528   6.878   2.724 -0.5909 -0.6917 -0.3885
23579SOL    HW171838   6.590   6.864   2.653 -0.6630  1.4556 -0.9459
23579SOL    HW271839   6.567   6.832   2.799  1.2009 -0.1989 -0.9688
23580SOL     OW71840   4.960   5.716   0.275  0.2491  0.4517  0.2463
23580SOL    HW171841   5.056   5.719   0.275  0.3598 -1.6287  0.7625
23580SOL    HW271842   4.935   5.753   0.360  0.6836 -0.2956  0.7137
23581SOL     OW71843   4.101   9.129   7.787 -0.1593 -0.3905 -0.4836
23581SOL    HW171844   4.046   9.140   7.865 -0.2436 -2.1239 -0.2709
23581SOL    HW271845   4.039   9.135   7.714 -0.1986  0.4364 -0.3943
23582SOL     OW71846   0.356   1.765   4.140  0.2420 -0.1195 -0.2050
23582SOL    HW171847   0.272   1.728   4.113  0.2968  0.0947 -0.6871
23582SOL    HW271848   0.401   1.693   4.184 -0.6531  0.0955  1.0931
23583SOL     OW71849   6.339   0.573   5.287  0.2506 -0.0957  0.3303
23583SOL    HW171850   6.249   0.551   5.263 -0.0618  1.7450 -0.3972
23583SOL    HW271851   6.348   0.665   5.260  2.4403 -0.3336  0.1511
23584SOL     OW71852   4.131   8.580   7.064 -0.0594 -0.6956 -0.0082
23584SOL    HW171853   4.098   8.542   7.145 -1.4843 -0.9225 -0.6691
23584SOL    HW271854   4.200   8.520   7.036  2.9432  1.1349  2.7392
23585SOL     OW71855   4.573   7.654   6.382  0.0459 -0.3149 -0.5266
23585SOL    HW171856   4.536   7.720   6.441  1.1468  0.5107 -0.7173
23585SOL    HW271857   4.665   7.649   6.407 -0.3753 -3.2972  0.8446
23586SOL     OW71858   5.964   7.798   4.026  0.5415  0.4321  0.1023
23586SOL    HW171859   5.880   7.833   3.996  0.6537 -0.7807 -1.7895
23586SOL    HW271860   5.941   7.730   4.089  0.0363 -0.3782 -0.9272
23587SOL     OW71861   4.051   4.490   6.966 -0.2224 -0.0755 -0.3695
23587SOL    HW171862   4.127   4.483   6.909  0.9070 -0.7697  1.1482
23587SOL    HW271863   4.036   4.401   6.998 -0.1188  0.4563  1.2475
23588SOL     OW71864   7.681   6.428   3.722 -0.1162 -0.1884 -0.0186
23588SOL    HW171865   7.649   6.460   3.638  0.6041 -0.6523 -0.4764
23588SOL    HW271866   7.702   6.507   3.771 -0.8684  0.0927 -0.1369
23589SOL     OW71867   8.289   4.644   8.774 -0.0516 -0.5137 -0.5359
23589SOL    HW171868   8.327   4.595   8.846  0.1357  1.8964  1.1455
23589SOL    HW271869   8.209   4.682   8.810  1.4764  3.0913 -0.5103
23590SOL     OW71870   4.502   0.876   3.087 -0.1891  0.0939  0.2520
23590SOL    HW171871   4.416   0.909   3.113  0.0430 -0.6882  2.1157
23590SOL    HW271872   4.564   0.928   3.138  0.5284  0.9601 -1.4035
23591SOL     OW71873   0.083   7.244   1.353 -0.0700 -0.1468  0.4572
23591SOL    HW171874   0.088   7.236   1.449  1.0232  1.3232  0.5478
23591SOL    HW271875   0.107   7.334   1.335  1.4710 -0.8464 -1.3344
23592SOL     OW71876   2.085   2.744   8.954 -0.1807 -0.2320  0.5839
23592SOL    HW171877   2.098   2.837   8.975 -0.0570 -0.0401 -0.3137
23592SOL    HW271878   2.010   2.718   9.007  0.8373 -0.0811  2.1585
23593SOL     OW71879   1.476   3.377   8.358  0.5162 -0.0373  0.1273
23593SOL    HW171880   1.415   3.321   8.310 -0.7624  1.3937  0.0305
23593SOL    HW271881   1.483   3.336   8.444  1.4950 -1.6590 -0.6499
23594SOL     OW71882   2.179   4.329   1.524  0.5238  0.0889  0.0243
23594SOL    HW171883   2.097   4.366   1.489  0.4960  0.2751  0.2873
23594SOL    HW271884   2.206   4.266   1.457  0.6069  0.6308 -0.4640
23595SOL     OW71885   0.196   0.901   6.053  0.1540  0.1999  0.3536
23595SOL    HW171886   0.134   0.932   5.987  0.1158  1.1596  0.8212
23595SOL    HW271887   0.282   0.915   6.013  0.1116  0.2437  0.2780
23596SOL     OW71888   6.476   7.748   7.734  0.1615 -0.0379  0.3354
23596SOL    HW171889   6.567   7.776   7.723 -0.0653 -0.0015 -2.0891
23596SOL    HW271890   6.481   7.674   7.794  1.6095  0.7695  1.2806
23597SOL     OW71891   2.073   4.120   7.629 -0.3806  0.4461 -0.3878
23597SOL    HW171892   1.981   4.140   7.615 -0.5680 -0.2584 -0.2017
23597SOL    HW271893   2.092   4.050   7.567  0.0467  0.6353 -0.4739
23598SOL     OW71894   2.910   1.016   2.212 -0.0191  0.5417 -0.8321
23598SOL    HW171895   2.986   1.023   2.269 -0.1822  0.6092 -0.6239
23598SOL    HW271896   2.945   1.030   2.124  0.0936  1.2834 -0.6718
23599SOL     OW71897   3.999   5.987   0.744  0.1794  0.2352 -0.0758
23599SOL    HW171898   3.928   5.960   0.802  0.4459  1.2710  0.7538
23599SOL    HW271899   4.057   5.911   0.741 -1.0695 -0.7271 -0.9815
23600SOL     OW71900   1.013   7.066   3.086  0.2491  0.0553  0.1876
23600SOL    HW171901   1.000   6.973   3.067 -0.7147  0.3198 -0.4449
23600SOL    HW271902   0.952   7.085   3.157  0.0706  0.3358 -0.0411
23601SOL     OW71903   8.849   1.184   3.976  0.6350  0.5990  0.0951
23601SOL    HW171904   8.790   1.133   3.920  0.0454 -2.6096  3.2480
23601SOL    HW271905   8.822   1.275   3.963 -1.2217 -0.2314 -2.6965
23602SOL     OW71906   3.269   8.444   0.048  0.0815  0.3505  0.1251
23602SOL    HW171907   3.208   8.376   0.020  0.0931  1.0090 -1.5801
23602SOL    HW271908   3.237   8.524   0.007  0.7807  1.1459  1.0946
23603SOL     OW71909   4.398   6.301   2.289 -0.6094  0.3482  0.8889
23603SOL    HW171910   4.352   6.256   2.218 -2.5735 -1.3151  3.0865
23603SOL    HW271911   4.491   6.293   2.266 -1.1001 -1.4859 -0.7180
23604SOL     OW71912   2.315   3.972   4.496  0.0515  0.3654  0.7116
23604SOL    HW171913   2.267   4.040   4.448 -0.4896 -0.7716 -0.4121
23604SOL    HW271914   2.376   3.936   4.432  1.0775  0.4844  1.5911
23605SOL     OW71915   0.295   7.814   5.509 -0.1682 -0.2027  0.1940
23605SOL    HW171916   0.361   7.757   5.470 -0.9633 -1.3062  0.4369
23605SOL    HW271917   0.315   7.815   5.602  1.3230  1.9053 -0.0653
23606SOL     OW71918   7.168   1.234   8.380 -0.4224 -0.0723 -0.0534
23606SOL    HW171919   7.238   1.296   8.361 -1.1311  1.1685  1.2110
23606SOL    HW271920   7.087   1.284   8.369 -1.1086 -1.3132 -0.8693
23607SOL     OW71921   3.390   2.957   7.572 -0.4056 -0.5376 -0.4273
23607SOL    HW171922   3.441   3.026   7.528  0.0735 -1.4278 -1.2982
23607SOL    HW271923   3.303   2.964   7.533 -0.0464 -1.1678 -1.3971
23608SOL     OW71924   7.284   5.004   2.303 -0.1097 -0.1509  0.0570
23608SOL    HW171925   7.369   5.041   2.326  0.5036 -1.2512 -0.3533
23608SOL    HW271926   7.299   4.958   2.221 -0.1640 -3.3612  1.6938
23609SOL     OW71927   2.433   4.481   1.578  0.2770  0.1279 -0.3446
23609SOL    HW171928   2.343   4.467   1.550  0.5330 -1.5476 -0.3970
23609SOL    HW271929   2.428   4.557   1.637 -1.0145  0.5908 -1.0049
23610SOL     OW71930   3.978   0.342   3.681 -0.1235  0.0911  0.4870
23610SOL    HW171931   3.897   0.385   3.710  0.2962  0.6579  0.8412
23610SOL    HW271932   4.030   0.413   3.642  1.1847  0.2125  2.3514
23611SOL     OW71933   7.848   2.243   8.609 -0.7656 -0.7567 -0.5309
23611SOL    HW171934   7.939   2.252   8.580 -0.7115 -0.5303 -0.2935
23611SOL    HW271935   7.840   2.150   8.633  0.0261 -0.3463  1.4941
23612SOL     OW71936   0.426   5.933   7.607  0.2188 -0.0889 -0.7207
23612SOL    HW171937   0.489   5.938   7.535 -0.0249 -1.5327 -1.0590
23612SOL    HW271938   0.479   5.941   7.686  0.8728 -1.4522 -0.9994
23613SOL     OW71939   7.791   7.551   7.687  0.1778  0.0898 -0.1564
23613SOL    HW171940   7.730   7.484   7.717  2.3914 -1.8195  0.3329
23613SOL    HW271941   7.876   7.524   7.721  1.1860  3.2938  0.2622
23614SOL     OW71942   7.990   8.715   4.738  0.5609  0.0825 -0.0561
23614SOL    HW171943   7.959   8.740   4.826 -0.5068 -0.3872 -0.2813
23614SOL    HW271944   7.931   8.761   4.678  0.1411 -0.9956 -0.4980
23615SOL     OW71945   5.704   5.595   8.777  0.1994  0.3537 -0.1079
23615SOL    HW171946   5.761   5.608   8.852 -0.4920 -1.9220  0.9285
23615SOL    HW271947   5.763   5.581   8.703  0.9557  0.2102  0.5155
23616SOL     OW71948   4.242   1.819   8.898  0.2248  0.5734  0.1491
23616SOL    HW171949   4.282   1.767   8.828  1.3746 -0.1153  1.2759
23616SOL    HW271950   4.271   1.909   8.881  0.6796  0.3746 -0.1269
23617SOL     OW71951   7.324   2.373   8.322 -0.0117 -0.4359  0.3125
23617SOL    HW171952   7.344   2.413   8.238 -1.3066  1.8857  1.0183
23617SOL    HW271953   7.229   2.364   8.322  0.1530 -2.8730  0.5425
23618SOL     OW71954   8.823   6.135   6.404  0.3075  0.5336 -0.2379
23618SOL    HW171955   8.871   6.062   6.442  0.9882  1.7253  1.3100
23618SOL    HW271956   8.885   6.177   6.345  0.4799  0.8545  0.1713
23619SOL     OW71957   4.645   4.515   7.888  0.4152  0.1966  0.3901
23619SOL    HW171958   4.656   4.438   7.832  1.1212 -0.5758  1.5551
23619SOL    HW271959   4.576   4.490   7.950 -0.1481  0.9279  0.0682
23620SOL     OW71960   4.993   8.079   7.386  0.6764 -0.2826  0.3168
23620SOL    HW171961   4.922   8.030   7.429 -0.2980 -1.0829 -2.0096
23620SOL    HW271962   5.062   8.084   7.452 -0.3311 -2.2503  1.6329
23621SOL     OW71963   6.833   2.756   7.011  0.1245 -0.0652 -0.7124
23621SOL    HW171964   6.777   2.726   7.083 -1.6264  0.8672 -1.6142
23621SOL    HW271965   6.882   2.678   6.984 -0.2291 -0.7542  0.5476
23622SOL     OW71966   9.099   2.940   4.171 -0.1101  0.1708  0.4988
23622SOL    HW171967   9.048   2.954   4.251  0.0735 -1.3153  0.9143
23622SOL    HW271968   9.164   3.010   4.171  0.2360 -0.1220  1.9468
23623SOL     OW71969   0.373   5.307   5.525 -0.3675  0.0855  0.4133
23623SOL    HW171970   0.282   5.282   5.541 -1.1066  1.7048 -0.9185
23623SOL    HW271971   0.405   5.242   5.463 -0.8067 -0.1612  0.4422
23624SOL     OW71972   4.602   5.769   4.737  0.5273 -0.1128  0.2751
23624SOL    HW171973   4.522   5.814   4.764  0.4556 -1.3112  2.2281
23624SOL    HW271974   4.658   5.839   4.704 -0.8952  0.8893 -0.1244
23625SOL     OW71975   1.404   7.016   7.494 -0.5441  0.2374 -0.4387
23625SOL    HW171976   1.431   6.981   7.579 -4.5725 -0.0793  0.8972
23625SOL    HW271977   1.465   6.976   7.432  1.2874 -1.1402  2.0417
23626SOL     OW71978   9.008   4.732   3.813  0.0695 -0.2247  0.0171
23626SOL    HW171979   8.992   4.807   3.871  0.2554  0.5828 -0.9614
23626SOL    HW271980   8.981   4.762   3.727  1.7364 -0.7039 -0.7084
23627SOL     OW71981   0.999   4.111   0.836 -0.4486  0.6124  0.2892
23627SOL    HW171982   0.926   4.050   0.850 -0.7117  0.5798 -1.0466
23627SOL    HW271983   1.077   4.056   0.841 -0.6651  0.1939 -0.6046
23628SOL     OW71984   3.798   2.627   8.497  0.7652 -0.5699 -0.6821
23628SOL    HW171985   3.798   2.665   8.409 -0.3585  1.9914  0.3319
23628SOL    HW271986   3.795   2.702   8.556 -1.2853 -2.2344  1.5150
23629SOL     OW71987   4.285   5.854   1.662  0.6803 -0.2862  0.2104
23629SOL    HW171988   4.301   5.928   1.605  0.9186 -0.3612  0.1779
23629SOL    HW271989   4.204   5.876   1.708  1.3603  0.5200  1.0534
23630SOL     OW71990   5.575   2.978   4.013  0.0155  0.3481  0.2144
23630SOL    HW171991   5.605   3.068   4.023 -1.9221  0.8920  1.9347
23630SOL    HW271992   5.643   2.924   4.054  0.6077  1.1364  0.2740
23631SOL     OW71993   5.762   5.648   0.478 -0.3150  0.1512  0.5937
23631SOL    HW171994   5.739   5.739   0.457 -0.0720  0.0839  0.0043
23631SOL    HW271995   5.733   5.598   0.402  2.4719  0.1718 -0.6250
23632SOL     OW71996   3.960   7.827   6.338 -0.1164  0.3713  0.2971
23632SOL    HW171997   3.887   7.842   6.398  0.4148  0.5006  0.9262
23632SOL    HW271998   3.977   7.912   6.298 -0.1654  0.3948  0.3270
23633SOL     OW71999   0.089   9.075   3.214 -0.2450  0.4528  0.4692
23633SOL    HW172000   0.172   9.115   3.186 -0.2704 -0.2712 -0.6854
23633SOL    HW272001   0.104   9.050   3.305  0.5623  0.9690  0.4858
23634SOL     OW72002   0.416   6.969   2.655  0.3059 -0.1834  0.4257
23634SOL    HW172003   0.401   7.028   2.582  0.5964  0.9735  1.2733
23634SOL    HW272004   0.333   6.923   2.666  0.9343 -2.1649 -2.1249
23635SOL     OW72005   2.954   4.237   8.333  0.2049 -0.0816 -0.3737
23635SOL    HW172006   2.976   4.191   8.414 -1.7625 -1.6474 -0.6179
23635SOL    HW272007   3.028   4.295   8.316  1.3606 -0.8554  1.7022
23636SOL     OW72008   6.411   5.785   5.391  0.3208  0.3908 -0.5890
23636SOL    HW172009   6.477   5.850   5.369  0.0234  0.7071 -0.5607
23636SOL    HW272010   6.432   5.710   5.335  1.0048  0.2922 -0.2129
23637SOL     OW72011   8.941   2.694   8.045 -0.1915  0.0348  0.6502
23637SOL    HW172012   9.029   2.715   8.014 -1.3512  1.9270 -1.7886
23637SOL    HW272013   8.948   2.605   8.081  2.3335 -0.6599 -1.2449
23638SOL     OW72014   3.366   1.061   8.977  0.1188  0.1723  0.4348
23638SOL    HW172015   3.421   0.992   8.941 -2.2751 -0.9002 -1.5295
23638SOL    HW272016   3.394   1.141   8.933  1.0910 -0.0440  0.6452
23639SOL     OW72017   5.580   5.548   8.179 -0.1441  0.5556 -0.2509
23639SOL    HW172018   5.637   5.483   8.138  0.3953  1.3742 -0.8365
23639SOL    HW272019   5.545   5.504   8.257 -0.7668 -0.8617 -1.2731
23640SOL     OW72020   5.643   5.013   1.061 -0.3632 -0.7324  0.2569
23640SOL    HW172021   5.614   5.089   1.010  0.6278 -1.3820 -1.3714
23640SOL    HW272022   5.738   5.015   1.055 -0.2522 -1.2324  1.5405
23641SOL     OW72023   4.124   2.143   2.185  0.0188  0.6840  0.4285
23641SOL    HW172024   4.057   2.093   2.138 -1.6033  0.4604  2.8451
23641SOL    HW272025   4.178   2.180   2.115 -1.0198 -1.2663 -1.5552
23642SOL     OW72026   4.770   7.173   1.084  0.1387  0.0892  0.2167
23642SOL    HW172027   4.843   7.114   1.103  0.0902 -0.9285 -2.3766
23642SOL    HW272028   4.806   7.260   1.099  1.4717 -0.4406  0.3044
23643SOL     OW72029   8.238   7.047   5.905 -0.4569 -0.2254 -0.0440
23643SOL    HW172030   8.218   6.969   5.853  2.5370 -0.3810 -1.1215
23643SOL    HW272031   8.237   7.119   5.842 -0.0318  0.1121  0.3287
23644SOL     OW72032   0.828   2.328   6.367 -0.0427  0.8090  0.3264
23644SOL    HW172033   0.831   2.291   6.455  1.6150  1.0579  0.4152
23644SOL    HW272034   0.878   2.409   6.374 -0.1021  0.9558 -0.7904
23645SOL     OW72035   1.726   7.414   2.705 -0.3261  0.0242 -0.1818
23645SOL    HW172036   1.750   7.506   2.709 -0.7111  0.1354 -0.3455
23645SOL    HW272037   1.791   7.369   2.759 -0.4956  0.4694  0.4091
23646SOL     OW72038   3.815   1.823   2.192 -0.4538 -0.5674  0.2038
23646SOL    HW172039   3.760   1.901   2.184  1.8340  0.9911 -2.0165
23646SOL    HW272040   3.861   1.836   2.275  0.4886  0.9364 -0.5072
23647SOL     OW72041   8.422   8.799   2.001  0.4276 -0.0990 -0.2365
23647SOL    HW172042   8.332   8.767   1.996  0.1659  0.5679 -0.0584
23647SOL    HW272043   8.467   8.738   2.060 -0.1192  0.0135  0.3048
23648SOL     OW72044   1.634   3.783   8.668 -0.1975  0.2827  0.1077
23648SOL    HW172045   1.594   3.742   8.591 -0.3025 -0.2131  0.4205
23648SOL    HW272046   1.702   3.840   8.632 -0.4688  0.3102 -0.3705
23649SOL     OW72047   4.624   6.055   3.922  0.1650  0.5397  0.0736
23649SOL    HW172048   4.577   5.978   3.890 -0.0907  0.8324 -0.2601
23649SOL    HW272049   4.712   6.022   3.943  0.0712  0.1644 -0.1042
23650SOL     OW72050   0.973   6.361   5.430 -0.2338  0.3339 -1.0928
23650SOL    HW172051   1.041   6.424   5.453  0.8425 -0.3301 -2.2959
23650SOL    HW272052   0.997   6.281   5.478 -0.7027  0.3706 -0.7931
23651SOL     OW72053   5.465   6.333   3.215  0.4439 -0.0418 -0.1518
23651SOL    HW172054   5.412   6.364   3.141 -1.7103  0.1626  1.3657
23651SOL    HW272055   5.419   6.254   3.245  1.9776 -0.8225  0.2406
23652SOL     OW72056   1.352   8.022   3.513 -0.2554  0.1986 -0.1420
23652SOL    HW172057   1.432   8.033   3.462  2.7233  0.9753  4.1285
23652SOL    HW272058   1.317   8.111   3.523 -0.7635  0.0656 -0.6993
23653SOL     OW72059   8.965   8.066   7.100 -0.0545 -0.3002 -0.5011
23653SOL    HW172060   8.957   7.996   7.164  0.8472  0.6488  0.7007
23653SOL    HW272061   9.057   8.064   7.073 -0.3323 -0.4257 -1.4580
23654SOL     OW72062   2.471   6.940   0.742  0.3262 -0.4159 -0.6372
23654SOL    HW172063   2.554   6.941   0.695  0.6350  1.1996 -0.1014
23654SOL    HW272064   2.473   7.018   0.797 -2.1331  0.4690 -1.6551
23655SOL     OW72065   6.225   3.809   2.033  0.2330  0.6631  0.2121
23655SOL    HW172066   6.257   3.719   2.031 -1.3627  0.0723 -1.5003
23655SOL    HW272067   6.262   3.849   1.955  1.9414  1.9258  1.6006
23656SOL     OW72068   5.790   7.078   8.432 -0.3404 -0.0926 -0.2160
23656SOL    HW172069   5.773   7.053   8.341  0.2795 -0.6109 -0.1983
23656SOL    HW272070   5.842   7.005   8.467  1.1393  1.0043 -0.0267
23657SOL     OW72071   4.384   4.333   4.775  0.0257 -0.1561  0.2489
23657SOL    HW172072   4.379   4.244   4.740 -0.8177  0.1719 -0.4940
23657SOL    HW272073   4.415   4.322   4.865  0.9524 -1.1158 -0.1645
23658SOL     OW72074   0.312   4.366   5.386 -0.0144 -0.9202  0.1396
23658SOL    HW172075   0.367   4.440   5.362 -0.9781 -0.3184 -0.2573
23658SOL    HW272076   0.321   4.305   5.313 -2.5160  0.6710 -1.6357
23659SOL     OW72077   5.543   6.718   4.549 -0.0752  0.0709 -0.2437
23659SOL    HW172078   5.553   6.650   4.482 -2.5220  1.0288 -1.7246
23659SOL    HW272079   5.535   6.670   4.631 -0.7003 -1.3865 -1.1194
23660SOL     OW72080   7.877   2.291   3.578  0.3301  0.0557  0.2514
23660SOL    HW172081   7.945   2.333   3.524  0.2918 -0.2105 -0.0068
23660SOL    HW272082   7.813   2.361   3.594  1.0550  0.5325  1.1785
23661SOL     OW72083   5.014   8.680   4.993  0.3187  0.6658 -0.0564
23661SOL    HW172084   4.969   8.740   5.053 -0.7634 -0.0071 -0.1670
23661SOL    HW272085   4.957   8.677   4.915  1.5942  1.3629 -1.0447
23662SOL     OW72086   8.213   1.092   0.648  0.2080 -0.0192  0.3858
23662SOL    HW172087   8.224   1.003   0.682  0.7873  0.4310  1.4175
23662SOL    HW272088   8.279   1.100   0.579  0.3302 -0.2948  0.4678
23663SOL     OW72089   0.247   7.623   3.570  0.6955  0.2023  0.6923
23663SOL    HW172090   0.269   7.555   3.506  0.1450 -1.1380  1.8774
23663SOL    HW272091   0.265   7.583   3.655  0.2408  1.5021  1.4313
23664SOL     OW72092   8.568   2.713   1.853 -0.2708 -0.5197  0.9399
23664SOL    HW172093   8.572   2.630   1.806 -0.3485 -0.9411  1.6578
23664SOL    HW272094   8.474   2.729   1.866 -0.3814  0.7581 -1.0247
23665SOL     OW72095   2.689   2.445   0.176 -0.2156  0.1100  0.2182
23665SOL    HW172096   2.608   2.457   0.126  0.3575  0.1267 -0.7415
23665SOL    HW272097   2.741   2.385   0.122  0.8107  0.8812  0.3255
23666SOL     OW72098   8.896   3.478   5.738  0.5960  0.1299  0.3682
23666SOL    HW172099   8.935   3.459   5.653  0.6158  0.3890  0.3182
23666SOL    HW272100   8.938   3.416   5.798  0.5484 -0.0829  0.1823
23667SOL     OW72101   3.440   6.090   3.533  0.0518 -0.1299 -0.0522
23667SOL    HW172102   3.360   6.127   3.569  0.3019 -2.3642  3.2492
23667SOL    HW272103   3.510   6.133   3.583  0.7913  0.0536 -1.2128
23668SOL     OW72104   7.289   8.987   2.257  0.0845 -0.1687 -0.1468
23668SOL    HW172105   7.336   8.913   2.220  0.0421 -0.1965 -0.1461
23668SOL    HW272106   7.229   8.948   2.321  0.8182 -0.0381  0.6373
23669SOL     OW72107   3.289   0.719   6.925 -0.5144  0.0694  0.4807
23669SOL    HW172108   3.352   0.774   6.879  0.7336 -1.4691  0.2646
23669SOL    HW272109   3.291   0.751   7.016 -1.1157  1.4856  0.0116
23670SOL     OW72110   8.401   5.060   5.855  0.3186 -0.2609 -0.2950
23670SOL    HW172111   8.356   5.001   5.795 -1.6540  0.2576  0.5870
23670SOL    HW272112   8.429   5.134   5.800  0.5900 -0.8305 -0.9442
23671SOL     OW72113   3.403   7.318   3.901  0.5081 -0.4868 -0.2189
23671SOL    HW172114   3.403   7.300   3.995 -1.8306  0.2819  0.0148
23671SOL    HW272115   3.399   7.414   3.896  2.8462 -0.3723 -1.2039
23672SOL     OW72116   1.243   7.951   7.016  0.0486  0.4089 -0.3087
23672SOL    HW172117   1.260   7.954   7.110 -0.6601 -1.6603 -0.0589
23672SOL    HW272118   1.291   7.874   6.986  1.0066  1.5456 -1.8546
23673SOL     OW72119   5.564   0.890   0.884 -0.4034  0.6101  0.4377
23673SOL    HW172120   5.610   0.836   0.948  0.0096 -0.7209 -0.9230
23673SOL    HW272121   5.604   0.977   0.893  0.9151  0.0006  0.7481
23674SOL     OW72122   2.491   3.370   7.476 -0.5349  0.1566  0.4405
23674SOL    HW172123   2.468   3.438   7.413  0.5428 -0.4546 -0.6603
23674SOL    HW272124   2.407   3.341   7.512 -1.1823  0.5616 -0.6869
23675SOL     OW72125   0.283   6.474   6.622 -0.0826  0.2454 -0.0162
23675SOL    HW172126   0.318   6.435   6.542 -0.3957  0.1186 -0.0945
23675SOL    HW272127   0.338   6.438   6.692  0.3938  0.6024 -0.1987
23676SOL     OW72128   8.397   4.137   0.031  0.3949  0.1207  0.8721
23676SOL    HW172129   8.303   4.139   0.013  0.5300 -1.9077 -0.3898
23676SOL    HW272130   8.438   4.125  -0.055  1.6334 -1.4985  1.6340
23677SOL     OW72131   3.411   6.795   8.924 -0.2957  0.1216 -0.0450
23677SOL    HW172132   3.396   6.731   8.994  0.5173 -0.5988 -0.5007
23677SOL    HW272133   3.332   6.790   8.870 -0.8067  0.4756  0.6538
23678SOL     OW72134   1.363   8.967   7.576  0.3583 -0.0706 -0.3497
23678SOL    HW172135   1.371   8.995   7.485  0.3119 -2.1901 -1.0681
23678SOL    HW272136   1.286   9.013   7.609  1.6647  2.4922 -0.6149
23679SOL     OW72137   7.132   7.405   1.303  0.5391 -0.0545  0.5858
23679SOL    HW172138   7.040   7.379   1.292  0.0062  1.5950  0.9109
23679SOL    HW272139   7.174   7.378   1.222 -0.3409 -0.3951  0.2278
23680SOL     OW72140   7.824   8.823   6.255 -0.6518 -0.3686  0.1233
23680SOL    HW172141   7.782   8.907   6.273  1.1001  0.4879  0.5062
23680SOL    HW272142   7.918   8.844   6.249 -0.0365 -2.4531  1.3344
23681SOL     OW72143   1.983   3.871   7.928  0.0977  0.4586 -0.5135
23681SOL    HW172144   2.073   3.891   7.955 -0.2687  0.1334  1.0289
23681SOL    HW272145   1.967   3.783   7.963 -0.8816  0.5761 -0.6518
23682SOL     OW72146   6.193   3.679   7.583 -0.7435  0.7818  0.5854
23682SOL    HW172147   6.145   3.597   7.602 -1.2647  0.9900  0.1906
23682SOL    HW272148   6.243   3.660   7.504  1.0618  0.0669  1.8291
23683SOL     OW72149   4.991   1.585   9.095  0.7330  0.1105 -0.2523
23683SOL    HW172150   4.917   1.528   9.077 -1.7409  2.8477  0.5713
23683SOL    HW272151   4.995   1.591   9.191  1.7717  0.3297 -0.2912
23684SOL     OW72152   8.668   8.352   5.710  0.5281 -0.0212 -0.5320
23684SOL    HW172153   8.704   8.441   5.711 -2.8613  1.4817 -0.2363
23684SOL    HW272154   8.695   8.315   5.794  1.2728  1.0251 -0.2811
23685SOL     OW72155   8.578   3.431   5.723 -0.0162  0.1785  0.1143
23685SOL    HW172156   8.535   3.348   5.706  0.4313 -0.5804  2.3832
23685SOL    HW272157   8.670   3.416   5.700  0.1181 -0.0623  0.7890
23686SOL     OW72158   5.299   3.636   7.554 -0.2168 -0.4071  0.2106
23686SOL    HW172159   5.236   3.692   7.599 -0.0984  0.7629 -0.9995
23686SOL    HW272160   5.249   3.593   7.484  0.1202 -0.1933 -0.1690
23687SOL     OW72161   4.498   5.561   3.280 -0.1416  0.1064  0.3224
23687SOL    HW172162   4.586   5.535   3.308  0.0979  0.9023  0.3344
23687SOL    HW272163   4.462   5.482   3.238  0.6808 -0.1447  0.0577
23688SOL     OW72164   6.607   2.501   5.828  0.1275  0.7109  0.4250
23688SOL    HW172165   6.590   2.550   5.909 -0.4916  0.1873  0.6209
23688SOL    HW272166   6.520   2.480   5.795  0.3920 -0.0669  0.2218
23689SOL     OW72167   0.491   0.595   6.781  0.1546 -0.0455 -0.5369
23689SOL    HW172168   0.515   0.510   6.817 -0.3637 -0.1906 -0.5335
23689SOL    HW272169   0.419   0.626   6.836 -0.5893 -0.2329 -1.3791
23690SOL     OW72170   5.020   7.893   2.566  0.1107 -0.0295 -0.1216
23690SOL    HW172171   5.071   7.893   2.485 -1.6351  1.0931 -1.3063
23690SOL    HW272172   5.056   7.822   2.618  1.1383 -0.9367 -1.9961
23691SOL     OW72173   0.006   5.277   3.147 -0.0630 -0.4932  0.5224
23691SOL    HW172174  -0.080   5.278   3.103  0.1085 -0.0301  0.1927
23691SOL    HW272175   0.009   5.192   3.191 -1.1600 -0.0682  1.4714
23692SOL     OW72176   2.267   7.254   1.950 -0.7630 -0.2210  0.4658
23692SOL    HW172177   2.261   7.165   1.984 -0.0779 -0.4811 -0.0664
23692SOL    HW272178   2.321   7.300   2.015  2.2263 -1.2171 -1.1303
23693SOL     OW72179   0.388   2.571   7.557 -0.1188 -0.0959 -0.2876
23693SOL    HW172180   0.367   2.654   7.598  1.4466 -0.5839  1.6622
23693SOL    HW272181   0.396   2.591   7.464 -1.8566  1.4634 -0.1480
23694SOL     OW72182   6.805   0.652   5.985 -0.2469  0.2347 -0.5403
23694SOL    HW172183   6.769   0.668   5.898 -0.8924  0.3941 -0.2448
23694SOL    HW272184   6.790   0.734   6.033 -0.7162 -0.1629  0.0018
23695SOL     OW72185   1.423   3.463   7.779  0.0545 -0.6246  0.1525
23695SOL    HW172186   1.395   3.449   7.869 -1.8242 -0.7495 -0.4144
23695SOL    HW272187   1.443   3.556   7.774  1.9249 -0.9125  1.1109
23696SOL     OW72188   0.177   1.647   1.628 -0.0402  0.7062 -0.0295
23696SOL    HW172189   0.162   1.704   1.703 -0.6264 -0.1932  0.5459
23696SOL    HW272190   0.153   1.701   1.552  3.3751  2.7045  0.0789
23697SOL     OW72191   6.268   7.262   2.027  0.3089 -0.2172  0.0359
23697SOL    HW172192   6.356   7.300   2.017 -0.1832  0.7488 -0.7457
23697SOL    HW272193   6.282   7.184   2.081  1.4550  0.6745  1.0927
23698SOL     OW72194   6.478   7.719   7.011 -0.1892  0.1628  0.0193
23698SOL    HW172195   6.466   7.755   6.923  1.5835 -2.0538 -1.1963
23698SOL    HW272196   6.572   7.723   7.026 -0.0431 -2.7095  0.3135
23699SOL     OW72197   2.665   8.916   3.490  1.0137 -0.3260 -0.0093
23699SOL    HW172198   2.606   8.899   3.416  1.2884  1.0185 -0.5557
23699SOL    HW272199   2.608   8.919   3.566  0.7560 -2.0047 -0.0866
23700SOL     OW72200   1.482   8.479   4.883  0.1045 -0.2296 -0.2085
23700SOL    HW172201   1.518   8.512   4.800 -3.2386  1.0571 -1.3256
23700SOL    HW272202   1.466   8.386   4.867  0.2115 -0.1626 -0.7285
23701SOL     OW72203   2.404   3.979   3.166  0.1776 -0.0750 -0.1689
23701SOL    HW172204   2.479   4.023   3.127  0.0721 -0.6125 -1.0059
23701SOL    HW272205   2.328   4.021   3.126  0.0680 -0.6220 -0.5488
23702SOL     OW72206   7.246   6.911   6.787  0.0485 -0.0927  0.2453
23702SOL    HW172207   7.224   6.992   6.834 -0.2819  0.2449 -0.4695
23702SOL    HW272208   7.258   6.939   6.696 -0.5879 -0.9220 -0.1081
23703SOL     OW72209   3.869   5.748   4.303 -0.2167  0.1269  0.5002
23703SOL    HW172210   3.804   5.790   4.247  1.1951  3.1185  0.9218
23703SOL    HW272211   3.953   5.784   4.273  0.8748 -0.6747  2.4361
23704SOL     OW72212   6.316   2.333   7.539  0.6833 -0.4363 -0.2914
23704SOL    HW172213   6.372   2.312   7.465  1.8242 -0.3833  0.5303
23704SOL    HW272214   6.247   2.266   7.536 -0.5231  0.7954 -2.5807
23705SOL     OW72215   2.504   2.497   1.353  0.5548  0.1255 -0.2895
23705SOL    HW172216   2.476   2.569   1.409 -1.5115  0.6345 -1.8354
23705SOL    HW272217   2.555   2.539   1.284 -1.1240  0.2829 -1.5105
23706SOL     OW72218   4.658   4.812   5.834 -0.2664  0.1638 -0.3831
23706SOL    HW172219   4.727   4.853   5.886 -0.6021  1.5398 -0.9841
23706SOL    HW272220   4.695   4.727   5.809  0.4862  0.1215  0.7985
23707SOL     OW72221   6.516   7.162   8.645 -0.2105 -0.1478 -0.3908
23707SOL    HW172222   6.583   7.212   8.690  0.3070 -1.2205  0.0695
23707SOL    HW272223   6.435   7.181   8.692 -0.2696  1.2269 -1.0109
23708SOL     OW72224   5.749   5.630   2.410  0.2146 -0.3408  0.4464
23708SOL    HW172225   5.830   5.588   2.380 -0.2609 -0.2496 -1.0434
23708SOL    HW272226   5.762   5.723   2.393 -0.4262 -0.3913 -0.3860
23709SOL     OW72227   5.486   1.648   3.294  0.3959  0.5689  1.0045
23709SOL    HW172228   5.447   1.637   3.381 -0.2933  0.5904  0.7012
23709SOL    HW272229   5.488   1.560   3.257 -0.5187  0.7427  0.5317
23710SOL     OW72230   5.064   7.746   0.029  0.1605 -0.2754 -0.0157
23710SOL    HW172231   5.018   7.673  -0.013 -1.3772 -0.2184  1.4432
23710SOL    HW272232   5.145   7.755  -0.021  0.7163 -3.3630  0.1040
23711SOL     OW72233   2.660   6.764   2.593 -0.0009 -0.6896  0.1522
23711SOL    HW172234   2.600   6.815   2.647  0.4734 -0.3115  0.3281
23711SOL    HW272235   2.691   6.825   2.526  0.2159 -0.8732  0.0823
23712SOL     OW72236   7.704   4.904   3.367 -0.0949 -0.0729 -0.3295
23712SOL    HW172237   7.697   4.976   3.304 -1.3028  0.1248  0.0090
23712SOL    HW272238   7.616   4.896   3.405  0.3336 -0.9158  0.5339
23713SOL     OW72239   8.752   5.260   6.502  0.1062  0.2139  0.5541
23713SOL    HW172240   8.664   5.224   6.501  0.4586 -0.6725  0.7979
23713SOL    HW272241   8.752   5.324   6.573 -0.1382 -0.3099  1.0299
23714SOL     OW72242   7.727   2.284   1.847 -0.2862 -0.6812  0.4787
23714SOL    HW172243   7.734   2.379   1.852  0.9696 -0.7212 -0.0317
23714SOL    HW272244   7.646   2.268   1.798  0.7229  0.2126 -1.6076
23715SOL     OW72245   8.418   1.757   0.688 -0.0595 -0.1787 -0.1973
23715SOL    HW172246   8.431   1.674   0.642 -3.6822 -0.9199 -0.1903
23715SOL    HW272247   8.396   1.819   0.618 -1.0102 -0.1697  0.0994
23716SOL     OW72248   2.559   6.165   0.306 -0.1726 -0.3408  0.0030
23716SOL    HW172249   2.532   6.255   0.287  1.6314  0.3294  0.4646
23716SOL    HW272250   2.536   6.117   0.226  1.8715  1.2310 -1.6559
23717SOL     OW72251   6.696   7.120   0.453  0.2777 -0.0003 -0.0910
23717SOL    HW172252   6.761   7.121   0.382  0.1236 -1.7985 -0.2949
23717SOL    HW272253   6.643   7.042   0.436  0.4593 -0.6813  2.2148
23718SOL     OW72254   6.422   0.988   3.980 -0.3886 -0.8583  0.5485
23718SOL    HW172255   6.362   1.038   3.925 -0.6388  0.5272  1.9922
23718SOL    HW272256   6.411   0.897   3.952  1.0274 -0.1176 -3.1138
23719SOL     OW72257   3.465   3.727   7.703  0.8756  0.1446 -0.1885
23719SOL    HW172258   3.429   3.767   7.782  1.6611  0.5055  0.0012
23719SOL    HW272259   3.427   3.778   7.631  0.7137  0.2755 -0.0119
23720SOL     OW72260   7.524   3.652   2.446  0.0540 -0.0597  0.0147
23720SOL    HW172261   7.609   3.612   2.431  0.5736  1.0045  0.0699
23720SOL    HW272262   7.529   3.738   2.404 -0.3878  0.7313  1.4859
23721SOL     OW72263   6.864   0.003   6.862  0.3641 -0.2950 -0.0771
23721SOL    HW172264   6.782   0.049   6.845  1.5172  1.2252 -2.1462
23721SOL    HW272265   6.878  -0.050   6.784  3.0742  2.3825 -1.6291
23722SOL     OW72266   4.103   1.380   8.631 -1.0451 -0.0577 -0.1709
23722SOL    HW172267   4.100   1.292   8.593 -0.4514 -1.0358  1.8722
23722SOL    HW272268   4.108   1.364   8.725 -3.4106  2.2095  0.4359
23723SOL     OW72269   1.052   4.541   5.375  0.5388  0.3826  0.4407
23723SOL    HW172270   0.958   4.558   5.371  0.5010  0.3020  0.9095
23723SOL    HW272271   1.093   4.627   5.365  0.4391  0.3290 -0.4995
23724SOL     OW72272   2.343   7.970   8.778 -0.1375 -0.0940 -0.1052
23724SOL    HW172273   2.320   8.017   8.698 -1.6131 -0.5295  0.0342
23724SOL    HW272274   2.330   7.878   8.756 -1.1109 -0.1868  0.7937
23725SOL     OW72275   7.585   1.024   4.131 -0.3278  0.3846  0.1217
23725SOL    HW172276   7.592   1.005   4.037  1.1935  1.0069  0.0895
23725SOL    HW272277   7.676   1.032   4.161 -0.8068  1.9720  1.2799
23726SOL     OW72278   1.165   2.281   5.850 -0.0608  0.0361 -0.3301
23726SOL    HW172279   1.190   2.326   5.930 -0.4671 -1.0837  0.4463
23726SOL    HW272280   1.076   2.312   5.832  1.0102  2.4409 -1.9537
23727SOL     OW72281   5.101   7.852   0.799 -0.2536  0.2226  0.1747
23727SOL    HW172282   5.139   7.876   0.714 -1.3662  1.0137 -0.1144
23727SOL    HW272283   5.118   7.927   0.856  0.7101 -0.4087  0.7442
23728SOL     OW72284   2.123   8.848   6.202  0.4329 -0.3425  0.2148
23728SOL    HW172285   2.135   8.754   6.220  2.0311 -0.2102  0.0461
23728SOL    HW272286   2.183   8.891   6.264 -1.9080  0.7295  1.8670
23729SOL     OW72287   6.298   6.049   5.829 -0.2460 -0.7817 -0.2446
23729SOL    HW172288   6.319   6.048   5.736  0.2072  1.7177 -0.2241
23729SOL    HW272289   6.354   6.117   5.866  1.6335 -3.4640  2.4179
23730SOL     OW72290   6.847   7.476   3.550  0.4162  0.3135 -0.4977
23730SOL    HW172291   6.874   7.400   3.600  0.3361  0.2136 -0.6071
23730SOL    HW272292   6.896   7.549   3.589  0.4067  0.2256 -0.3204
23731SOL     OW72293   6.487   7.757   8.153 -0.1335 -0.2250  0.2590
23731SOL    HW172294   6.405   7.760   8.104 -0.1868 -1.9094  0.1844
23731SOL    HW272295   6.489   7.839   8.202 -1.8457 -0.1374  0.2431
23732SOL     OW72296   3.988   5.801   2.761  0.0570 -0.0044 -0.1882
23732SOL    HW172297   4.078   5.832   2.754  0.3685 -1.2253 -2.7906
23732SOL    HW272298   3.995   5.706   2.756 -1.1860 -0.4302  3.2646
23733SOL     OW72299   3.779   0.655   8.643 -0.2421 -0.2272  0.0880
23733SOL    HW172300   3.810   0.745   8.634 -1.4362  0.0895 -1.1443
23733SOL    HW272301   3.750   0.631   8.555  0.8286 -2.1224  0.2045
23734SOL     OW72302   7.224   0.031   1.536 -0.2138  0.2771  0.0113
23734SOL    HW172303   7.286   0.055   1.606  0.5889  1.2493 -1.0057
23734SOL    HW272304   7.139   0.057   1.570 -0.1135 -1.0922  1.4419
23735SOL     OW72305   6.485   0.457   5.827  1.1474 -0.3940 -0.3004
23735SOL    HW172306   6.474   0.378   5.774  2.0106  0.2906 -1.5564
23735SOL    HW272307   6.418   0.517   5.795  0.1620 -0.7438  0.9927
23736SOL     OW72308   0.646   3.564   1.623 -0.1099  0.6566 -0.2426
23736SOL    HW172309   0.576   3.499   1.619 -1.6619  2.2593 -0.2291
23736SOL    HW272310   0.698   3.539   1.699 -0.9719 -0.2847  0.0519
23737SOL     OW72311   6.743   1.615   4.636 -0.1154  0.3427 -0.0441
23737SOL    HW172312   6.711   1.530   4.666  0.2594  0.8438  1.9011
23737SOL    HW272313   6.714   1.621   4.545 -0.3326 -1.7575 -0.1447
23738SOL     OW72314   2.707   7.049   8.533  0.4971  0.0810 -0.2239
23738SOL    HW172315   2.656   6.973   8.561  0.5250  0.5736  1.2259
23738SOL    HW272316   2.653   7.091   8.466 -0.4438 -0.0646  0.4319
23739SOL     OW72317   7.268   0.891   2.424  0.6935 -0.6879 -0.3115
23739SOL    HW172318   7.354   0.928   2.441  1.4319 -1.7223 -1.6255
23739SOL    HW272319   7.212   0.966   2.404  1.3421 -0.0363  0.2990
23740SOL     OW72320   5.037   8.785   0.557 -0.0594 -0.1699  0.4792
23740SOL    HW172321   5.053   8.799   0.650  0.2581 -0.8548  0.5328
23740SOL    HW272322   5.124   8.764   0.521 -0.4205 -1.5436  0.3361
23741SOL     OW72323   3.868   4.523   2.878  0.2731  0.3362 -0.8987
23741SOL    HW172324   3.935   4.578   2.917  0.9990 -1.5523  0.6747
23741SOL    HW272325   3.850   4.456   2.944 -1.6647 -0.4424 -2.1191
23742SOL     OW72326   7.391   4.336   7.266 -0.4486 -0.5336 -0.3996
23742SOL    HW172327   7.400   4.430   7.247  2.9885 -0.9619 -1.6569
23742SOL    HW272328   7.297   4.319   7.261 -1.0655  2.5790 -1.4471
23743SOL     OW72329   4.764   8.975   6.695  0.2289 -0.3031 -0.7637
23743SOL    HW172330   4.671   8.993   6.709  0.6075  1.5179 -0.2965
23743SOL    HW272331   4.770   8.880   6.693 -1.3980 -0.5074  1.0082
23744SOL     OW72332   7.609   3.220   7.899 -0.9358 -0.4011  0.0448
23744SOL    HW172333   7.541   3.287   7.901 -0.3889  0.1518  0.9147
23744SOL    HW272334   7.673   3.253   7.835  0.4290  1.0671  2.0433
23745SOL     OW72335   4.523   7.053   1.554  0.1587  0.4999 -0.3219
23745SOL    HW172336   4.615   7.058   1.580 -0.3729  0.2047  1.7930
23745SOL    HW272337   4.481   7.127   1.598 -1.4230 -2.0075  2.8150
23746SOL     OW72338   2.638   4.397   4.233 -0.1675 -0.8216  0.0710
23746SOL    HW172339   2.653   4.395   4.328 -1.5704 -0.0819  0.3408
23746SOL    HW272340   2.606   4.309   4.212 -1.5751 -0.4751  0.6333
23747SOL     OW72341   0.444   3.977   8.723  0.1957 -0.1859 -0.1947
23747SOL    HW172342   0.525   3.934   8.750  0.0715  0.2336  0.9040
23747SOL    HW272343   0.456   4.068   8.748 -0.5937 -0.1048 -0.0837
23748SOL     OW72344   3.507   6.235   0.417  0.1695  0.1947  0.0274
23748SOL    HW172345   3.520   6.150   0.459  1.1885 -0.4551 -1.5361
23748SOL    HW272346   3.417   6.233   0.384  1.0008 -1.4512 -2.4056
23749SOL     OW72347   8.456   5.355   4.626 -0.2445 -0.3756 -0.2156
23749SOL    HW172348   8.533   5.299   4.618  0.2339  0.0197  1.2279
23749SOL    HW272349   8.382   5.295   4.619  0.1962 -0.8178 -1.2232
23750SOL     OW72350   3.969   5.027   7.137  0.2560 -0.3337 -0.5506
23750SOL    HW172351   4.012   4.949   7.104  0.1537 -0.5368 -0.2068
23750SOL    HW272352   3.878   5.001   7.153  0.4160 -0.3685  0.3310
23751SOL     OW72353   5.953   6.172   4.261  0.3890 -0.2353 -0.4782
23751SOL    HW172354   5.858   6.186   4.255  0.4453  0.9066  0.8409
23751SOL    HW272355   5.963   6.076   4.257 -0.7108 -0.3359 -1.6299
23752SOL     OW72356   0.685   3.676   0.586 -0.0852  0.4791 -0.2772
23752SOL    HW172357   0.695   3.612   0.656  0.1224 -0.4272 -1.1172
23752SOL    HW272358   0.631   3.632   0.521 -0.2072  1.2776 -0.7229
23753SOL     OW72359   8.825   3.147   4.691  0.2550  0.5228  0.0181
23753SOL    HW172360   8.894   3.081   4.696  0.8723  1.2490  1.7773
23753SOL    HW272361   8.850   3.214   4.755 -2.9476 -0.0587  2.1543
23754SOL     OW72362   5.553   1.236   1.268 -0.8306  0.0110  0.5033
23754SOL    HW172363   5.637   1.279   1.282 -0.9545  0.5759 -0.4115
23754SOL    HW272364   5.554   1.162   1.329 -0.1165  0.6106  1.2546
23755SOL     OW72365   5.658   8.247   1.075  0.1781 -0.0172 -0.0538
23755SOL    HW172366   5.590   8.310   1.102  1.2043  1.5879 -1.0669
23755SOL    HW272367   5.615   8.194   1.007 -0.0371  1.1108 -0.8299
23756SOL     OW72368   8.976   2.143   3.065 -0.0758  0.1663 -0.2765
23756SOL    HW172369   8.911   2.074   3.076  1.0035 -0.9496 -0.7429
23756SOL    HW272370   8.951   2.187   2.984 -0.6099  0.1536 -0.1198
23757SOL     OW72371   8.532   0.784   7.522 -0.0871  0.3774  0.0711
23757SOL    HW172372   8.477   0.706   7.510 -0.7594  0.6346  1.3330
23757SOL    HW272373   8.557   0.781   7.614  1.4142  0.6881 -0.2929
23758SOL     OW72374   2.033   0.885   5.470  0.0973 -0.1003 -0.2108
23758SOL    HW172375   2.030   0.911   5.378 -4.0080 -0.4763 -0.3567
23758SOL    HW272376   2.045   0.967   5.518  1.0911  0.2412 -1.0234
23759SOL     OW72377   5.162   0.955   8.088 -0.5203  0.2676 -0.1646
23759SOL    HW172378   5.249   0.921   8.111 -1.2359 -1.5376  0.0728
23759SOL    HW272379   5.171   1.050   8.092  0.9394  0.1097  1.8012
23760SOL     OW72380   6.627   1.484   6.257 -0.5734 -0.0985 -0.4271
23760SOL    HW172381   6.644   1.575   6.233 -1.8622  0.7475  1.6411
23760SOL    HW272382   6.703   1.459   6.311 -0.4677 -0.0955 -0.5722
23761SOL     OW72383   3.653   4.863   5.892  0.1232  0.4599  0.0916
23761SOL    HW172384   3.719   4.901   5.834  1.3245 -0.2688  0.9349
23761SOL    HW272385   3.626   4.936   5.948 -0.5906  1.0191 -0.9602
23762SOL     OW72386   3.744   4.634   7.632 -0.1977  0.3238  0.2400
23762SOL    HW172387   3.760   4.681   7.714  0.1998 -2.9486  2.2408
23762SOL    HW272388   3.831   4.608   7.602 -0.3066  1.8723 -1.5445
23763SOL     OW72389   2.731   8.098   6.340  0.3854  0.4002 -0.2528
23763SOL    HW172390   2.781   8.133   6.267 -0.0306  1.7316  0.0753
23763SOL    HW272391   2.790   8.102   6.415  0.2464  0.6618 -0.1563
23764SOL     OW72392   0.446   8.916   0.250 -0.2907  0.1630 -0.6428
23764SOL    HW172393   0.512   8.969   0.206  0.8299  0.4100  1.2578
23764SOL    HW272394   0.466   8.923   0.343 -0.8406 -2.6317 -0.2155
23765SOL     OW72395   4.028   7.626   6.643  0.5454 -0.1841  0.4148
23765SOL    HW172396   4.039   7.719   6.661 -0.6124  0.8372 -3.3251
23765SOL    HW272397   4.073   7.611   6.560 -1.9695 -2.1544 -0.7686
23766SOL     OW72398   5.267   5.880   0.822 -0.7815 -0.8592  0.2927
23766SOL    HW172399   5.307   5.870   0.736 -2.8194 -0.6788 -0.7394
23766SOL    HW272400   5.225   5.966   0.820 -1.3182 -1.0747  1.2606
23767SOL     OW72401   6.101   5.987   2.175  0.2645 -0.2810 -0.4783
23767SOL    HW172402   6.011   5.993   2.144  0.8823  0.3149 -2.3324
23767SOL    HW272403   6.128   6.078   2.190  0.3887 -0.4912  0.6218
23768SOL     OW72404   8.390   1.021   2.912  0.3776 -0.3202 -0.1396
23768SOL    HW172405   8.443   0.944   2.931  1.7194  0.4954 -0.4048
23768SOL    HW272406   8.453   1.086   2.880 -0.2132  1.8421  2.7131
23769SOL     OW72407   5.284   7.024   3.068 -0.5021 -0.3469  0.3354
23769SOL    HW172408   5.223   7.095   3.088 -1.3748 -1.4242  1.6712
23769SOL    HW272409   5.310   6.990   3.153  0.1370 -1.4334 -0.2738
23770SOL     OW72410   2.008   1.676   0.405  0.3935 -0.0935  0.5100
23770SOL    HW172411   1.924   1.719   0.396  0.1249 -0.3465  1.6001
23770SOL    HW272412   1.996   1.591   0.363 -0.2592 -0.5701  1.6183
23771SOL     OW72413   1.538   5.759   8.202 -0.5838  0.1407  0.4345
23771SOL    HW172414   1.533   5.767   8.107 -1.5702 -1.2029  0.3439
23771SOL    HW272415   1.473   5.692   8.224  0.8980 -0.9108  1.8739
23772SOL     OW72416   3.627   8.251   4.428 -0.0287 -0.4836 -0.3428
23772SOL    HW172417   3.553   8.293   4.473 -0.1467  0.6344 -1.5310
23772SOL    HW272418   3.599   8.161   4.415 -1.2325 -0.0638 -0.8291
23773SOL     OW72419   3.863   1.126   8.886  0.5053  0.8878 -0.3416
23773SOL    HW172420   3.821   1.192   8.830 -3.3293 -0.5822  0.4898
23773SOL    HW272421   3.863   1.046   8.833 -0.9660  0.0632  0.8237
23774SOL     OW72422   5.493   1.658   4.154 -0.1051  0.0422  0.1087
23774SOL    HW172423   5.499   1.581   4.097  0.0200  1.7810 -2.4159
23774SOL    HW272424   5.572   1.655   4.206  1.0918 -0.3427 -1.6366
23775SOL     OW72425   6.213   8.961   5.593  0.1945  0.1227  0.0103
23775SOL    HW172426   6.239   9.000   5.510  1.3707  0.4189  0.4925
23775SOL    HW272427   6.245   8.871   5.588  2.0570  0.6797  0.8810
23776SOL     OW72428   3.993   1.700   8.941  0.3152 -0.3603  0.0655
23776SOL    HW172429   3.951   1.739   9.018  0.3437 -0.9537  0.3954
23776SOL    HW272430   4.061   1.762   8.917 -1.3669  1.1070 -1.0967
23777SOL     OW72431   1.539   4.788   4.084 -0.3452 -0.6120  0.6743
23777SOL    HW172432   1.498   4.843   4.017 -0.8184 -1.5870  0.1343
23777SOL    HW272433   1.623   4.830   4.101 -1.2033  0.9889  1.2068
23778SOL     OW72434   0.416   3.365   4.902 -0.2740  0.0950 -0.2343
23778SOL    HW172435   0.431   3.417   4.981  0.3593 -1.8204  0.9899
23778SOL    HW272436   0.436   3.425   4.830 -1.6995  2.1633  0.9858
23779SOL     OW72437   3.145   6.606   6.519 -0.1022 -0.9167 -0.0887
23779SOL    HW172438   3.230   6.650   6.528 -0.5304  0.0097 -0.5530
23779SOL    HW272439   3.115   6.593   6.609  0.9549 -2.1229  0.1317
23780SOL     OW72440   4.877   7.383   9.003  0.0899  0.7456  0.4278
23780SOL    HW172441   4.922   7.463   8.976 -1.0403  0.0828 -4.5187
23780SOL    HW272442   4.946   7.316   9.003  0.3849  1.0449  0.7288
23781SOL     OW72443   8.840   5.321   6.192 -0.5476  0.3863  0.0526
23781SOL    HW172444   8.877   5.303   6.278 -1.5553  1.1389  0.6527
23781SOL    HW272445   8.872   5.409   6.170 -0.3907  0.2448 -0.2912
23782SOL     OW72446   9.133   3.667   7.616  0.1949  0.1050 -0.5616
23782SOL    HW172447   9.136   3.714   7.699 -1.0752  0.0505 -0.4551
23782SOL    HW272448   9.135   3.574   7.640  1.8711  0.0652 -0.7277
23783SOL     OW72449   5.867   5.062   2.305  0.3525 -0.3102 -0.5884
23783SOL    HW172450   5.860   5.009   2.384  1.0694 -0.5560 -0.6822
23783SOL    HW272451   5.883   4.998   2.235  3.1432  0.1092 -0.4438
23784SOL     OW72452   7.818   5.989   5.494  0.4286 -0.6751 -0.3591
23784SOL    HW172453   7.759   5.957   5.563  2.2837 -0.7860  1.2799
23784SOL    HW272454   7.809   5.926   5.423 -1.1572 -0.8741 -0.0115
23785SOL     OW72455   8.410   0.560   6.121  0.0218 -0.4119  0.1550
23785SOL    HW172456   8.401   0.501   6.046 -0.8412 -0.5543  0.3509
23785SOL    HW272457   8.320   0.582   6.144  0.2768  3.5400 -1.8674
23786SOL     OW72458   1.422   0.634   4.388 -0.2764 -0.2013  0.0079
23786SOL    HW172459   1.405   0.591   4.304  0.2816 -2.0822  0.8139
23786SOL    HW272460   1.428   0.563   4.451 -0.4639  1.1552  1.6345
23787SOL     OW72461   6.277   6.837   6.224 -0.6331  0.1521  0.0209
23787SOL    HW172462   6.350   6.855   6.284 -0.0484  0.1631 -0.6728
23787SOL    HW272463   6.243   6.924   6.202 -0.0177  0.2375 -0.6511
23788SOL     OW72464   4.852   1.010   7.582  0.6095 -0.4457  0.0825
23788SOL    HW172465   4.884   0.921   7.566 -2.2607 -1.3538 -1.4376
23788SOL    HW272466   4.824   1.041   7.496  0.1058  1.3434  0.8330
23789SOL     OW72467   7.943   6.276   2.910  0.6598 -0.3066  0.3478
23789SOL    HW172468   7.939   6.255   2.816  1.5578  0.5897  0.0938
23789SOL    HW272469   7.958   6.191   2.953  1.6276 -0.5489 -0.4366
23790SOL     OW72470   4.254   1.703   2.326  0.4545 -0.1681 -0.7284
23790SOL    HW172471   4.241   1.631   2.264  1.8431 -0.9722 -0.1320
23790SOL    HW272472   4.347   1.701   2.346  0.4033  1.4167 -0.2063
23791SOL     OW72473   3.611   3.094   4.124  0.3796  0.2240  0.4071
23791SOL    HW172474   3.585   3.002   4.131  1.3463 -0.1323 -0.4417
23791SOL    HW272475   3.537   3.143   4.160 -1.9675 -0.6860 -2.8054
23792SOL     OW72476   7.647   8.576   5.318 -0.5726 -0.8410 -0.0205
23792SOL    HW172477   7.565   8.593   5.363 -0.8438  2.1833 -1.3895
23792SOL    HW272478   7.624   8.572   5.225  0.9236  2.1505 -0.6523
23793SOL     OW72479   7.158   7.960   7.535 -0.4409 -0.1910 -0.4891
23793SOL    HW172480   7.156   8.055   7.539 -2.7399 -0.2539  1.6905
23793SOL    HW272481   7.244   7.936   7.571  0.0293  1.0191 -0.7738
23794SOL     OW72482   2.043   4.072   6.582 -0.3713  0.2408  0.6461
23794SOL    HW172483   1.948   4.067   6.595 -0.1142 -0.6440  2.4831
23794SOL    HW272484   2.079   4.010   6.646  1.4577  0.6864  0.0915
23795SOL     OW72485   4.485   8.808   0.964  0.5397 -0.7521 -0.0500
23795SOL    HW172486   4.412   8.814   1.026 -0.4664  3.9076 -1.2750
23795SOL    HW272487   4.452   8.751   0.894 -0.6692 -1.2348  0.8726
23796SOL     OW72488   1.280   3.125   2.632  0.5986  0.3947 -0.0724
23796SOL    HW172489   1.362   3.113   2.584 -0.3803 -0.0892 -1.6806
23796SOL    HW272490   1.284   3.060   2.702  1.5992  0.4091 -0.0945
23797SOL     OW72491   8.430   3.051   6.095 -0.1379  0.1900  0.2987
23797SOL    HW172492   8.419   3.107   6.018 -1.5701 -0.2158  0.1855
23797SOL    HW272493   8.342   3.040   6.129 -0.3095 -3.8645 -0.9987
23798SOL     OW72494   5.319   0.347   2.895  0.1978  0.1685 -0.5687
23798SOL    HW172495   5.332   0.252   2.891  2.2749  0.3989 -0.4536
23798SOL    HW272496   5.402   0.384   2.864 -0.4007  1.9565 -0.1758
23799SOL     OW72497   3.310   5.825   1.306  0.6073  0.1833  0.0035
23799SOL    HW172498   3.269   5.844   1.390 -0.4763 -0.2316 -0.4142
23799SOL    HW272499   3.404   5.834   1.323  0.5622 -2.0000  1.8120
23800SOL     OW72500   4.521   6.728   5.673  0.3594 -0.7799  0.1456
23800SOL    HW172501   4.599   6.676   5.654  0.6889 -0.9423  1.7347
23800SOL    HW272502   4.551   6.794   5.735 -0.2353  0.8434 -1.2299
23801SOL     OW72503   2.150   6.526   5.300 -0.0571  0.2991 -0.2437
23801SOL    HW172504   2.221   6.508   5.362 -0.2492 -0.2962 -0.1850
23801SOL    HW272505   2.086   6.457   5.317  0.2862 -0.4219 -1.6833
23802SOL     OW72506   5.433   5.475   1.102 -0.2198 -0.4870  0.3223
23802SOL    HW172507   5.498   5.499   1.167 -1.3235 -0.4919  1.4567
23802SOL    HW272508   5.379   5.553   1.091 -0.1646 -0.5456 -0.4487
23803SOL     OW72509   8.451   5.664   6.065 -0.1238  0.0674 -0.1756
23803SOL    HW172510   8.371   5.714   6.083  0.3137  0.9286 -0.5418
23803SOL    HW272511   8.447   5.590   6.125 -1.0555  0.2574  0.0141
23804SOL     OW72512   3.756   2.494   1.921 -0.5983  0.1530  0.3975
23804SOL    HW172513   3.728   2.522   2.007 -1.5019 -0.2156  0.2322
23804SOL    HW272514   3.851   2.484   1.929 -0.5355  1.1600  1.0380
23805SOL     OW72515   7.075   6.552   6.003 -0.6251  0.2332  0.1403
23805SOL    HW172516   7.083   6.474   5.948 -0.8583  1.3664 -1.5458
23805SOL    HW272517   7.161   6.561   6.043  0.1368  0.4128 -1.4711
23806SOL     OW72518   1.354   8.482   1.493 -0.5947  0.0218 -0.0899
23806SOL    HW172519   1.281   8.423   1.511  0.6595 -1.4326  0.4499
23806SOL    HW272520   1.399   8.442   1.418 -0.0768  0.6467 -0.1224
23807SOL     OW72521   4.593   6.908   4.426 -0.0023  0.6838  0.0036
23807SOL    HW172522   4.567   6.999   4.410  2.6365  1.3393 -1.0350
23807SOL    HW272523   4.580   6.864   4.343 -0.3533  0.3269  0.2420
23808SOL     OW72524   9.085   4.090   1.171  0.4661 -0.6207  0.1544
23808SOL    HW172525   9.120   4.022   1.113  1.0175 -1.3879  1.3483
23808SOL    HW272526   9.007   4.050   1.211 -1.2000  0.6630 -1.6064
23809SOL     OW72527   8.891   0.732   0.944  0.2688  0.1468  0.1082
23809SOL    HW172528   8.820   0.787   0.912  0.0924  0.2436  0.6473
23809SOL    HW272529   8.859   0.642   0.933 -0.1818  0.2018  0.8694
23810SOL     OW72530   7.542   6.130   6.771 -0.7056 -0.3432  0.3737
23810SOL    HW172531   7.605   6.190   6.811 -0.1886  0.1797 -1.1676
23810SOL    HW272532   7.483   6.186   6.721 -0.0241 -1.1002 -1.3639
23811SOL     OW72533   0.207   2.222   8.431 -0.5647  0.2216  0.4154
23811SOL    HW172534   0.286   2.234   8.484  0.8681 -1.9448 -1.0617
23811SOL    HW272535   0.154   2.300   8.449  1.5935  1.4444  1.9667
23812SOL     OW72536   7.957   2.469   2.091  0.3767 -0.0733  0.0274
23812SOL    HW172537   7.866   2.493   2.076  0.5030 -0.8538 -2.2791
23812SOL    HW272538   8.008   2.546   2.065  0.4273 -0.0277  0.2585
23813SOL     OW72539   4.180   8.243   7.144  0.3980  0.0783  0.1244
23813SOL    HW172540   4.256   8.287   7.105  1.1854 -0.5705  0.8810
23813SOL    HW272541   4.128   8.214   7.069  0.7032  0.8559 -0.4023
23814SOL     OW72542   4.479   3.827   3.808  0.2742  0.0881  0.5329
23814SOL    HW172543   4.547   3.761   3.823  0.4758 -0.0096 -0.6530
23814SOL    HW272544   4.498   3.859   3.719 -2.1878 -1.1255 -0.5219
23815SOL     OW72545   5.484   5.058   3.838  0.1375 -0.4083  0.0427
23815SOL    HW172546   5.465   5.060   3.744  2.0765 -0.8341 -0.4095
23815SOL    HW272547   5.409   5.011   3.876 -0.2088 -1.1270 -1.4237
23816SOL     OW72548   7.439   5.067   3.758 -0.1688 -0.0250  0.5237
23816SOL    HW172549   7.437   5.005   3.830  0.4409 -0.5064  0.1361
23816SOL    HW272550   7.512   5.126   3.778  0.1894 -0.3410  0.1550
23817SOL     OW72551   0.634   4.941   7.477  0.1067  0.2780 -0.1945
23817SOL    HW172552   0.541   4.918   7.473  0.1863 -0.0861  0.0244
23817SOL    HW272553   0.645   5.006   7.407 -0.7210  1.7782  1.0190
23818SOL     OW72554   2.285   3.968   5.658  0.0882 -0.0141 -0.3144
23818SOL    HW172555   2.319   4.054   5.634  1.1938 -0.5416 -0.7051
23818SOL    HW272556   2.348   3.934   5.722  0.0477 -0.8268 -0.6938
23819SOL     OW72557   8.380   7.239   5.757 -0.3283 -0.4185  0.7925
23819SOL    HW172558   8.393   7.282   5.672 -1.7673 -2.3109 -0.4765
23819SOL    HW272559   8.468   7.221   5.788  0.2631 -1.6352 -1.3876
23820SOL     OW72560   1.051   3.692   1.799  0.1565  0.4217  0.5858
23820SOL    HW172561   1.024   3.767   1.745  1.2027  0.2176 -0.2588
23820SOL    HW272562   1.056   3.619   1.737 -0.0814 -0.1704  1.2553
23821SOL     OW72563   6.875   1.595   3.736  0.1105 -0.4763  0.3639
23821SOL    HW172564   6.801   1.534   3.727 -1.0787  1.0466 -0.6882
23821SOL    HW272565   6.833   1.680   3.751  1.6836  0.3595  0.1563
23822SOL     OW72566   2.045   5.523   3.488  0.2010  0.0320 -0.1131
23822SOL    HW172567   1.984   5.497   3.557 -0.0799  0.9712  0.0003
23822SOL    HW272568   2.132   5.513   3.527  0.0637  0.0227  0.1907
23823SOL     OW72569   2.188   5.435   2.678 -0.0589  0.9307 -0.8137
23823SOL    HW172570   2.114   5.472   2.726  0.0632  0.1572 -0.0060
23823SOL    HW272571   2.154   5.353   2.641  0.6071  0.1138  0.3060
23824SOL     OW72572   0.206   2.991   2.061 -0.2470  0.0959 -0.2202
23824SOL    HW172573   0.209   3.084   2.081  1.7091  0.3948 -1.5376
23824SOL    HW272574   0.115   2.974   2.036 -0.9971  1.2586  1.5597
23825SOL     OW72575   2.448   0.072   4.861  0.3181 -0.3152  0.1430
23825SOL    HW172576   2.485   0.128   4.929 -1.1116  1.5518 -0.5351
23825SOL    HW272577   2.524   0.043   4.810  1.2768 -0.6648  1.6967
23826SOL     OW72578   3.446   7.789   1.326 -0.4961 -0.2227 -0.0743
23826SOL    HW172579   3.385   7.799   1.253  1.0289  1.2443 -1.2453
23826SOL    HW272580   3.404   7.832   1.400 -1.8799 -1.3386 -0.1886
23827SOL     OW72581   5.839   5.918   5.284  0.0586  0.4487 -0.0920
23827SOL    HW172582   5.852   5.972   5.206  1.4756 -0.7967 -0.7551
23827SOL    HW272583   5.766   5.860   5.262  0.6049 -0.0555 -0.5765
23828SOL     OW72584   6.073   2.429   0.785  0.4107  0.6317 -0.2641
23828SOL    HW172585   6.045   2.476   0.864  3.7553  1.9425  0.3191
23828SOL    HW272586   6.062   2.336   0.808  0.4787  0.9990  1.4496
23829SOL     OW72587   2.697   4.302   8.761 -0.3869  0.1495  0.2103
23829SOL    HW172588   2.610   4.284   8.727  0.0486  0.6434 -1.2419
23829SOL    HW272589   2.740   4.217   8.765 -0.8114 -0.0459  0.5678
23830SOL     OW72590   8.142   6.336   0.436 -0.0488 -0.1813 -0.3278
23830SOL    HW172591   8.071   6.272   0.435  1.1803 -1.6114 -1.4603
23830SOL    HW272592   8.198   6.308   0.509 -0.4447  0.7020  0.3177
23831SOL     OW72593   7.937   1.124   0.950 -0.0368 -0.4885  0.2839
23831SOL    HW172594   7.957   1.075   1.030  1.7321  1.3215  1.0347
23831SOL    HW272595   8.018   1.169   0.928 -0.1255 -1.7948 -3.2659
23832SOL     OW72596   4.946   8.851   1.054  0.6543 -0.0730  0.3876
23832SOL    HW172597   4.910   8.934   1.084 -2.4060 -1.2750  0.4348
23832SOL    HW272598   4.954   8.798   1.133  0.8497 -0.4216  0.1391
23833SOL     OW72599   7.292   6.320   8.842  0.3212 -0.0970 -0.8319
23833SOL    HW172600   7.358   6.308   8.773  0.2367 -0.8388 -0.7893
23833SOL    HW272601   7.209   6.304   8.799  0.1916  0.4421 -0.7893
23834SOL     OW72602   3.457   5.156   4.777  0.1029  0.5127 -0.4258
23834SOL    HW172603   3.552   5.149   4.789 -0.0652 -1.6397  0.1612
23834SOL    HW272604   3.441   5.109   4.695 -0.7237 -2.3202  1.1967
23835SOL     OW72605   4.611   3.785   5.504  0.0680  1.1485  0.2889
23835SOL    HW172606   4.580   3.771   5.593 -0.4778  0.4961  0.0057
23835SOL    HW272607   4.541   3.753   5.449  0.9009  0.4189 -0.3744
23836SOL     OW72608   9.074   6.285   6.306 -0.7093 -0.2711  0.2693
23836SOL    HW172609   9.120   6.284   6.390  0.7795 -0.6262 -0.5148
23836SOL    HW272610   9.077   6.376   6.278  1.9197 -0.6413 -0.9822
23837SOL     OW72611   2.219   7.292   4.083 -0.2546  0.4051 -0.3813
23837SOL    HW172612   2.238   7.368   4.027 -0.2798 -0.2873 -1.3654
23837SOL    HW272613   2.301   7.277   4.130  1.0981 -1.2038 -2.9644
23838SOL     OW72614   6.318   5.519   9.063  0.5126 -0.4881  0.2317
23838SOL    HW172615   6.375   5.536   8.987  0.6919 -0.0050  0.4708
23838SOL    HW272616   6.327   5.425   9.079  1.3158 -0.4046  0.3196
23839SOL     OW72617   1.021   1.126   3.217  0.2336 -0.6775  0.0788
23839SOL    HW172618   0.954   1.082   3.268  0.4260 -0.6518  0.3577
23839SOL    HW272619   0.983   1.136   3.130 -0.4226  0.0358  0.4395
23840SOL     OW72620   2.171   5.599   7.143  0.4080 -0.2108 -0.5981
23840SOL    HW172621   2.223   5.593   7.224  1.4005 -1.2750 -1.2926
23840SOL    HW272622   2.143   5.509   7.125 -1.3183  0.2610 -0.5144
23841SOL     OW72623   0.326   0.775   7.718  0.1060 -0.4365 -0.4114
23841SOL    HW172624   0.293   0.751   7.632 -0.2412 -0.0603 -0.3884
23841SOL    HW272625   0.322   0.694   7.769  0.3561 -0.6685 -0.7604
23842SOL     OW72626   3.801   0.940   0.299  0.6399  0.4863 -0.3257
23842SOL    HW172627   3.816   1.033   0.288 -0.6620  0.8253  0.4346
23842SOL    HW272628   3.836   0.919   0.386 -0.0760  0.5419 -0.0087
23843SOL     OW72629   4.404   8.217   8.372 -0.1672  0.0288  0.1350
23843SOL    HW172630   4.457   8.233   8.450 -0.7209  0.8499  0.3598
23843SOL    HW272631   4.403   8.302   8.326 -1.0134 -0.0589 -0.0242
23844SOL     OW72632   0.972   0.617   4.718  0.0335  0.1327  0.3523
23844SOL    HW172633   0.900   0.567   4.680  2.6528 -2.6726 -1.3934
23844SOL    HW272634   0.990   0.686   4.654 -0.8211  0.6072  0.6132
23845SOL     OW72635   2.408   0.126   5.805  0.8368 -0.3155  0.0843
23845SOL    HW172636   2.494   0.165   5.823  0.3953  0.7107  0.0371
23845SOL    HW272637   2.384   0.082   5.886  0.4970  1.1680  0.8256
23846SOL     OW72638   5.032   3.636   0.613  0.3598  0.1292 -0.2903
23846SOL    HW172639   5.106   3.678   0.656  1.7711 -0.1602 -2.3113
23846SOL    HW272640   5.013   3.559   0.666  1.4767  0.2448  0.2887
23847SOL     OW72641   8.387   5.528   8.778  0.1576 -0.8263  0.5471
23847SOL    HW172642   8.449   5.526   8.851  3.7128 -0.5811 -2.1721
23847SOL    HW272643   8.357   5.438   8.769  1.4479 -1.3222  0.9789
23848SOL     OW72644   4.307   6.517   5.583  0.0301 -0.0545  0.2676
23848SOL    HW172645   4.362   6.596   5.587  0.4408 -0.1052 -2.4053
23848SOL    HW272646   4.286   6.508   5.490  0.0136 -3.1313  0.4720
23849SOL     OW72647   3.746   6.717   3.459  0.8034  0.1053  0.7554
23849SOL    HW172648   3.821   6.678   3.414  0.9828  2.3171 -1.0544
23849SOL    HW272649   3.681   6.730   3.390 -0.3803  0.2770  1.8590
23850SOL     OW72650   2.172   5.506   8.969 -0.4574 -0.0513  0.0125
23850SOL    HW172651   2.238   5.545   8.911 -0.2257 -1.1244 -0.4726
23850SOL    HW272652   2.092   5.503   8.916 -0.4655 -0.2510  0.0356
23851SOL     OW72653   1.314   8.110   7.851  0.0646  0.1484  0.4513
23851SOL    HW172654   1.261   8.048   7.902 -0.4147 -0.7889 -1.1040
23851SOL    HW272655   1.382   8.055   7.811  0.0397  0.7330 -0.4153
23852SOL     OW72656   8.267   3.938   4.731  0.9739 -0.1219  0.5801
23852SOL    HW172657   8.209   3.907   4.801 -2.0566  0.1627 -1.6388
23852SOL    HW272658   8.291   3.859   4.683  0.3160  0.0392 -0.0145
23853SOL     OW72659   7.697   5.298   0.577  0.0898 -0.4025 -0.5980
23853SOL    HW172660   7.679   5.295   0.483 -0.8843 -1.0284 -0.3969
23853SOL    HW272661   7.641   5.369   0.609 -1.1209 -1.5060 -0.1822
23854SOL     OW72662   2.533   5.545   4.802 -1.0892 -0.2560  0.5438
23854SOL    HW172663   2.566   5.551   4.712 -1.3167 -2.2948  0.2753
23854SOL    HW272664   2.510   5.634   4.825  1.2578  0.7251 -0.5367
23855SOL     OW72665   7.287   6.054   6.303  1.2404 -0.2492 -0.0864
23855SOL    HW172666   7.273   5.992   6.374 -1.9549  0.0353 -0.3214
23855SOL    HW272667   7.222   6.123   6.319  3.0409  1.8312 -1.1855
23856SOL     OW72668   2.269   4.282   7.498  0.0809 -0.2417 -0.1783
23856SOL    HW172669   2.325   4.252   7.427  0.6453 -0.5378  0.3765
23856SOL    HW272670   2.205   4.212   7.510 -1.2681  0.6797 -1.6941
23857SOL     OW72671   4.272   4.130   8.827  0.2058 -0.8778  0.0931
23857SOL    HW172672   4.313   4.100   8.746  1.3415  1.9737 -0.5422
23857SOL    HW272673   4.345   4.160   8.881 -0.7587  1.0289  0.4283
23858SOL     OW72674   0.633   5.156   3.963 -0.6021 -0.3135 -0.2713
23858SOL    HW172675   0.588   5.127   4.042  0.8602 -2.0134  0.0060
23858SOL    HW272676   0.670   5.241   3.986 -1.3864 -0.1307  0.3605
23859SOL     OW72677   3.374   1.293   8.821  0.1918 -0.4383  0.3392
23859SOL    HW172678   3.389   1.278   8.727 -0.9373  0.4134 -0.0051
23859SOL    HW272679   3.438   1.360   8.845  1.6146 -1.8468  0.5991
23860SOL     OW72680   4.182   1.570   7.075 -0.2940 -0.4356  0.9060
23860SOL    HW172681   4.237   1.532   7.143  0.5690 -0.6272  0.1175
23860SOL    HW272682   4.241   1.586   7.001 -1.2641 -0.5406  0.0746
23861SOL     OW72683   2.955   1.474   1.354 -0.8842  0.3017  0.3237
23861SOL    HW172684   3.016   1.451   1.284 -2.5638  1.0556 -1.4890
23861SOL    HW272685   2.997   1.546   1.400 -0.8004  1.5292 -1.5700
23862SOL     OW72686   2.998   3.596   0.749 -0.0892 -0.7779 -0.3464
23862SOL    HW172687   2.986   3.586   0.843 -0.8252  0.8580 -0.2204
23862SOL    HW272688   3.093   3.597   0.736  0.0162 -1.4773  0.3057
23863SOL     OW72689   6.688   5.495   3.938 -0.2981 -0.2581  0.5302
23863SOL    HW172690   6.604   5.466   3.974 -0.1207  0.6330  1.7248
23863SOL    HW272691   6.738   5.415   3.927 -0.7986 -0.6663  1.1550
23864SOL     OW72692   3.462   0.299   2.985 -0.1049 -0.4381 -0.3204
23864SOL    HW172693   3.510   0.377   2.955 -3.3156  1.0979 -2.0433
23864SOL    HW272694   3.413   0.329   3.062  0.5472 -1.5146  0.5228
23865SOL     OW72695   1.164   2.882   1.466  0.1580 -0.2448 -0.2908
23865SOL    HW172696   1.122   2.903   1.550  1.0236 -2.8734  0.9328
23865SOL    HW272697   1.190   2.967   1.430  0.1473  0.9862  2.3431
23866SOL     OW72698   5.714   8.481   3.230 -0.2110 -0.9039  0.4123
23866SOL    HW172699   5.625   8.517   3.234  0.1685 -0.0199  1.5440
23866SOL    HW272700   5.742   8.478   3.322  0.0674 -3.4189  0.3118
23867SOL     OW72701   1.106   1.329   8.492 -0.4076  0.3475  0.4340
23867SOL    HW172702   1.134   1.274   8.420 -0.8581 -0.5076  0.8978
23867SOL    HW272703   1.054   1.398   8.451  1.1703  1.1617 -0.2820
23868SOL     OW72704   3.382   0.904   2.068 -0.6437 -0.7592  0.0300
23868SOL    HW172705   3.313   0.964   2.039  0.9118  1.2135  0.1976
23868SOL    HW272706   3.453   0.918   2.005  0.8965 -0.1141  1.8117
23869SOL     OW72707   0.965   4.493   6.593  0.3946 -0.0031  0.2668
23869SOL    HW172708   1.006   4.474   6.677 -0.7304 -0.8682  0.6355
23869SOL    HW272709   0.872   4.501   6.612  0.0671 -0.6487 -0.9489
23870SOL     OW72710   4.539   5.325   6.859  0.6961 -0.1026 -0.4898
23870SOL    HW172711   4.572   5.261   6.798  0.1192  0.5967 -1.5749
23870SOL    HW272712   4.444   5.311   6.860  0.8135 -1.1591  1.4968
23871SOL     OW72713   4.925   6.917   6.835  0.1661 -0.2876 -0.1121
23871SOL    HW172714   4.946   6.831   6.797  1.0608  0.4480 -1.3440
23871SOL    HW272715   4.920   6.900   6.929  1.2543 -1.5220 -0.2394
23872SOL     OW72716   5.491   3.016   7.276 -0.4640  0.0448 -0.6693
23872SOL    HW172717   5.471   2.952   7.208  0.7623  1.2917 -2.2612
23872SOL    HW272718   5.407   3.035   7.316 -0.8521 -2.7118  0.0537
23873SOL     OW72719   5.637   5.894   8.600  0.1387  0.8001  0.1891
23873SOL    HW172720   5.652   5.988   8.600  1.5679  0.5936  0.3440
23873SOL    HW272721   5.680   5.862   8.679  1.7309 -0.2563 -1.0220
23874SOL     OW72722   2.041   2.775   5.606  0.4415  0.4804  0.2811
23874SOL    HW172723   1.977   2.778   5.535  2.0261  1.3438 -1.1906
23874SOL    HW272724   1.991   2.800   5.685 -1.2554 -0.0402 -0.5826
23875SOL     OW72725   6.633   7.193   3.305  0.2724  0.0114 -0.0541
23875SOL    HW172726   6.544   7.208   3.338  0.6390  1.4289  0.3414
23875SOL    HW272727   6.657   7.275   3.263  1.3164 -0.4360 -0.3602
23876SOL     OW72728   4.546   0.177   6.200  0.1582 -0.5554  0.0945
23876SOL    HW172729   4.571   0.103   6.145 -2.0859  0.9816 -3.3138
23876SOL    HW272730   4.628   0.220   6.223  1.2370 -1.6439 -1.5931
23877SOL     OW72731   8.689   3.695   1.223  0.0573  0.3469 -0.3450
23877SOL    HW172732   8.679   3.647   1.306 -0.6797 -0.0481 -0.6545
23877SOL    HW272733   8.609   3.677   1.175  0.0398  1.4081 -0.7354
23878SOL     OW72734   4.814   8.573   4.253  0.2566  0.1669 -0.9041
23878SOL    HW172735   4.798   8.658   4.294  1.2270 -0.5182  1.0379
23878SOL    HW272736   4.775   8.580   4.166 -0.3950  2.3060 -0.4917
23879SOL     OW72737   3.846   1.737   1.715  0.1545  0.3965 -0.2350
23879SOL    HW172738   3.859   1.729   1.809 -1.0459  1.8444  0.0946
23879SOL    HW272739   3.757   1.771   1.705  0.0031 -0.3439 -1.9348
23880SOL     OW72740   7.792   2.284   0.223  0.6092  0.4513  0.3269
23880SOL    HW172741   7.726   2.246   0.280  0.0634 -2.1137 -1.8389
23880SOL    HW272742   7.874   2.244   0.252  0.2787 -1.1643 -0.8179
23881SOL     OW72743   7.004   6.103   2.776  0.0595 -0.5864  0.0992
23881SOL    HW172744   6.994   6.013   2.806 -0.5973 -0.3893  0.4821
23881SOL    HW272745   6.925   6.147   2.806  0.9732  0.4423  1.0677
23882SOL     OW72746   1.838   3.266   2.789 -0.1321 -0.4821  0.5017
23882SOL    HW172747   1.844   3.356   2.821 -1.2992 -0.0930 -0.3323
23882SOL    HW272748   1.824   3.214   2.868  2.3508 -0.1945  1.2234
23883SOL     OW72749   4.594   4.926   2.709 -0.4773 -0.2677  0.0072
23883SOL    HW172750   4.654   4.985   2.665  1.0686 -0.8357  1.2697
23883SOL    HW272751   4.507   4.964   2.694  0.3028  1.2879 -0.7522
23884SOL     OW72752   4.623   0.138   7.835  0.2173 -0.3361 -0.2308
23884SOL    HW172753   4.709   0.095   7.829  1.7673  2.2663  1.1757
23884SOL    HW272754   4.590   0.113   7.921 -0.0277 -0.6465 -0.4150
23885SOL     OW72755   8.896   7.677   3.175 -0.2781 -0.3546 -0.2961
23885SOL    HW172756   8.850   7.761   3.180  0.0725 -0.1728 -0.0494
23885SOL    HW272757   8.833   7.614   3.209 -0.3933 -0.1257 -0.0734
23886SOL     OW72758   1.058   0.012   2.767  0.2527 -0.1975  0.1252
23886SOL    HW172759   1.115   0.075   2.721 -1.2158  1.0684 -0.0305
23886SOL    HW272760   0.975   0.058   2.777 -0.2576 -1.4124  1.7984
23887SOL     OW72761   7.653   7.465   5.573  0.1046  0.0979 -0.1927
23887SOL    HW172762   7.705   7.407   5.518  1.7602  0.5636  0.7905
23887SOL    HW272763   7.712   7.490   5.644 -1.6455  0.2527  1.2966
23888SOL     OW72764   8.015   0.030   2.797 -0.2636  0.4907  0.1914
23888SOL    HW172765   8.069  -0.031   2.747 -0.7520  0.5471 -0.4169
23888SOL    HW272766   7.933  -0.017   2.812 -0.6427  0.9914 -0.2824
23889SOL     OW72767   0.634   5.942   5.785  0.2101 -0.7211 -0.0635
23889SOL    HW172768   0.546   5.914   5.808  0.5463 -0.8478  1.1330
23889SOL    HW272769   0.688   5.863   5.796  0.9863  0.0536  2.2993
23890SOL     OW72770   3.181   7.596   1.288  0.3985 -0.4804 -0.5097
23890SOL    HW172771   3.125   7.524   1.256  1.6844 -1.9226  0.3351
23890SOL    HW272772   3.129   7.675   1.273 -1.3418 -1.6356 -0.9048
23891SOL     OW72773   5.181   5.381   8.837 -0.3922 -0.2023  0.6751
23891SOL    HW172774   5.233   5.461   8.846 -0.0673 -0.2683 -0.5158
23891SOL    HW272775   5.225   5.331   8.768 -2.3743 -0.0080 -0.7928
23892SOL     OW72776   0.416   1.808   5.644  0.2438  0.1291  0.6830
23892SOL    HW172777   0.405   1.894   5.685  1.0953  1.3905 -1.5380
23892SOL    HW272778   0.505   1.810   5.608  0.4000 -1.8308  0.8679
23893SOL     OW72779   0.268   8.793   8.346  0.3269  0.1020  0.2231
23893SOL    HW172780   0.207   8.765   8.279 -0.0802  1.2175  0.1023
23893SOL    HW272781   0.353   8.757   8.319 -0.3394 -1.9819  0.7132
23894SOL     OW72782   7.428   3.997   4.186 -0.5639  0.4986  0.0329
23894SOL    HW172783   7.430   4.074   4.129 -1.9904 -0.5927 -1.5854
23894SOL    HW272784   7.339   3.994   4.220 -1.6573 -2.2229 -2.6484
23895SOL     OW72785   4.276   8.151   0.913 -0.1648  0.5429 -0.2460
23895SOL    HW172786   4.224   8.223   0.877  0.1321  1.0262  0.2921
23895SOL    HW272787   4.218   8.110   0.977 -0.8182 -0.5236 -1.4712
23896SOL     OW72788   5.539   2.746   2.898  1.0179 -0.3015 -0.0624
23896SOL    HW172789   5.448   2.732   2.874 -0.7327  2.9678  3.4546
23896SOL    HW272790   5.558   2.678   2.963  0.8083 -0.5177 -0.2275
23897SOL     OW72791   5.742   4.593   4.183  0.0538  0.2263 -0.3371
23897SOL    HW172792   5.743   4.631   4.096  1.4126  0.9270 -0.0409
23897SOL    HW272793   5.769   4.664   4.241 -0.6226 -0.2881  0.6368
23898SOL     OW72794   4.432   8.393   3.299 -0.3505  0.1670 -0.1128
23898SOL    HW172795   4.465   8.349   3.221  0.2555  0.6203 -0.1166
23898SOL    HW272796   4.367   8.455   3.266  0.8034  1.2467 -0.3915
23899SOL     OW72797   2.302   4.349   8.881 -0.2507 -0.2007 -0.0581
23899SOL    HW172798   2.217   4.309   8.903 -0.0254 -0.9142 -0.4584
23899SOL    HW272799   2.347   4.357   8.965 -0.8806  0.5935  0.2190
23900SOL     OW72800   7.908   3.692   6.139 -0.0545  0.0442  0.3575
23900SOL    HW172801   7.900   3.740   6.056  3.3033  1.5789  0.7649
23900SOL    HW272802   7.877   3.754   6.205  0.5008  0.1243  0.5421
23901SOL     OW72803   6.082   4.698   0.008 -0.0718 -0.6630 -0.3773
23901SOL    HW172804   6.131   4.648  -0.057  2.2688 -0.1215  0.8474
23901SOL    HW272805   6.036   4.632   0.060 -0.6576 -1.1960 -1.5383
23902SOL     OW72806   8.675   1.181   6.118 -0.5661  0.2139  0.6707
23902SOL    HW172807   8.626   1.176   6.036 -2.2863 -0.1953  1.6640
23902SOL    HW272808   8.730   1.103   6.117 -2.1779 -0.9869  0.8345
23903SOL     OW72809   5.610   4.075   2.851 -0.4163  0.3629 -0.3847
23903SOL    HW172810   5.679   4.055   2.789  1.4019  0.5364  1.4812
23903SOL    HW272811   5.621   4.168   2.870 -1.8770  0.6565 -0.8545
23904SOL     OW72812   1.920   6.331   5.378 -0.5142 -0.0638 -0.1225
23904SOL    HW172813   1.885   6.378   5.303 -2.8827 -1.0824  0.2726
23904SOL    HW272814   1.896   6.383   5.454 -0.7404 -0.5295  0.1307
23905SOL     OW72815   2.659   2.232   0.890 -0.4989  0.0100  0.1766
23905SOL    HW172816   2.583   2.191   0.931  0.0998  0.0256  1.3506
23905SOL    HW272817   2.655   2.205   0.798 -2.2641  0.5240  0.0741
23906SOL     OW72818   8.919   4.291   7.966 -0.3414  0.2446 -0.1741
23906SOL    HW172819   8.846   4.353   7.979 -0.0328  0.7096 -0.6235
23906SOL    HW272820   8.974   4.303   8.043 -0.1530  0.7246 -0.3740
23907SOL     OW72821   0.742   3.122   6.676  0.6242 -0.1967 -0.1896
23907SOL    HW172822   0.715   3.166   6.757 -0.1621 -0.0483 -0.5277
23907SOL    HW272823   0.660   3.098   6.633  1.0079  1.2671 -1.8010
23908SOL     OW72824   4.020   5.936   7.198  0.2267  0.6634 -0.0135
23908SOL    HW172825   4.070   6.009   7.163 -0.9586  0.9155 -1.2470
23908SOL    HW272826   3.946   5.926   7.139 -0.2687 -0.8024  0.7851
23909SOL     OW72827   3.461   4.531   3.657 -0.1597 -0.2879 -0.1324
23909SOL    HW172828   3.381   4.545   3.607 -0.6694 -0.7493  0.5402
23909SOL    HW272829   3.433   4.532   3.749  0.8206  0.9884  0.1927
23910SOL     OW72830   6.057   3.362   8.698  1.2213 -0.1410  0.2347
23910SOL    HW172831   6.058   3.426   8.769  1.7451 -0.4094  0.4757
23910SOL    HW272832   5.986   3.302   8.722  0.2178  0.7693 -0.3852
23911SOL     OW72833   7.583   7.647   9.089 -0.4173  0.1516 -0.1936
23911SOL    HW172834   7.590   7.738   9.061 -0.0592  0.8964  2.1094
23911SOL    HW272835   7.662   7.632   9.141 -0.7125 -1.3389 -0.1255
23912SOL     OW72836   3.772   4.324   2.382  0.1274  0.1077  0.7148
23912SOL    HW172837   3.790   4.318   2.476  1.8119  1.6717  0.5572
23912SOL    HW272838   3.742   4.414   2.370 -1.6301 -0.5473 -0.0504
23913SOL     OW72839   8.856   2.400   2.909 -0.7431 -0.0725  0.3751
23913SOL    HW172840   8.803   2.321   2.916 -1.1435  0.2898  1.7125
23913SOL    HW272841   8.825   2.456   2.980  1.7674 -0.0645  1.5996
23914SOL     OW72842   7.028   0.004   5.841  0.3259 -0.3718 -0.2691
23914SOL    HW172843   7.005  -0.088   5.855 -1.8444  0.0933 -0.5062
23914SOL    HW272844   7.000   0.048   5.921 -1.1473  0.4724 -1.2173
23915SOL     OW72845   2.188   5.618   5.623  0.0916  0.1716  0.0225
23915SOL    HW172846   2.274   5.649   5.597  0.2751  0.0421  0.4636
23915SOL    HW272847   2.133   5.697   5.624  0.2946  0.3124  0.1054
23916SOL     OW72848   4.582   8.700   5.782 -0.2213  0.1814 -0.0412
23916SOL    HW172849   4.501   8.650   5.793 -0.0683 -0.4719 -1.5972
23916SOL    HW272850   4.651   8.634   5.782  0.1934  0.6102 -0.0666
23917SOL     OW72851   2.279   4.318   0.657 -0.1275 -0.4355  0.0924
23917SOL    HW172852   2.259   4.224   0.663 -0.7934 -0.3722 -0.8797
23917SOL    HW272853   2.259   4.352   0.744  1.8207 -1.4755  1.0134
23918SOL     OW72854   7.181   6.310   3.858 -0.1036 -0.0536 -0.0955
23918SOL    HW172855   7.209   6.399   3.840 -1.1452  0.0041 -1.5331
23918SOL    HW272856   7.166   6.309   3.953 -1.4835  1.7263 -0.2474
23919SOL     OW72857   3.550   0.502   6.562 -0.0637  0.5525  0.2658
23919SOL    HW172858   3.618   0.451   6.605 -0.8501  0.1214  1.0404
23919SOL    HW272859   3.549   0.471   6.472 -0.3834 -0.6788  0.6721
23920SOL     OW72860   4.826   0.592   1.216 -0.0640  0.5703  0.5998
23920SOL    HW172861   4.802   0.624   1.303  1.0752  0.7228  0.8706
23920SOL    HW272862   4.842   0.671   1.164 -4.2101  0.6988 -0.8868
23921SOL     OW72863   2.365   5.185   8.051  0.3136 -0.3008 -0.0828
23921SOL    HW172864   2.307   5.173   7.975  0.0032 -1.8342  0.3646
23921SOL    HW272865   2.342   5.114   8.110  2.1453 -0.4984  0.4503
23922SOL     OW72866   6.592   6.570   5.108  0.3059  0.1269  0.5475
23922SOL    HW172867   6.656   6.502   5.131  0.5801  0.9745  2.4786
23922SOL    HW272868   6.643   6.651   5.107 -0.5483  0.6835  1.1490
23923SOL     OW72869   4.220   4.386   2.871 -0.5644  0.5274  0.0906
23923SOL    HW172870   4.160   4.389   2.797  2.2264  0.4082 -2.3777
23923SOL    HW272871   4.282   4.457   2.854  0.9368 -0.3526  1.5980
23924SOL     OW72872   0.165   9.100   0.107 -0.2186 -0.3844 -0.2056
23924SOL    HW172873   0.091   9.092   0.048 -0.0718 -1.1220 -0.3007
23924SOL    HW272874   0.241   9.071   0.055  0.2024  0.7322 -0.2340
23925SOL     OW72875   5.007   8.032   7.912  1.0866  0.4317  0.5359
23925SOL    HW172876   4.930   7.989   7.876  1.2474 -0.7807  1.5573
23925SOL    HW272877   5.030   8.099   7.848 -1.0897  1.1599  0.4533
23926SOL     OW72878   0.560   5.235   6.264 -0.5587  0.3163  0.6176
23926SOL    HW172879   0.614   5.276   6.331  2.9838 -1.7813 -0.6580
23926SOL    HW272880   0.596   5.268   6.181 -3.0552  0.8285 -0.3371
23927SOL     OW72881   8.001   7.048   6.615  0.3582 -0.5544 -0.7586
23927SOL    HW172882   8.090   7.024   6.641 -0.3835  0.1299  2.8822
23927SOL    HW272883   7.972   7.110   6.682 -2.1776  0.8383 -2.9740
23928SOL     OW72884   6.327   1.983   5.786 -0.1460 -0.3647  0.2242
23928SOL    HW172885   6.295   1.935   5.862  1.8099 -2.5153 -0.1875
23928SOL    HW272886   6.264   2.055   5.774 -2.3963 -1.9278  1.8128
23929SOL     OW72887   8.592   1.969   7.382 -0.5476 -0.5138 -0.0160
23929SOL    HW172888   8.605   2.001   7.471 -0.5898  0.4147 -0.3309
23929SOL    HW272889   8.510   2.010   7.354  0.9061  1.6143 -1.5004
23930SOL     OW72890   0.761   1.569   3.660  0.4853  0.2373 -0.1481
23930SOL    HW172891   0.680   1.522   3.644  0.6154  0.1724 -0.6566
23930SOL    HW272892   0.749   1.654   3.618  0.9838 -0.0807 -0.9741
23931SOL     OW72893   4.374   1.137   3.265 -0.1261 -0.3952 -0.0488
23931SOL    HW172894   4.314   1.203   3.301  0.0891  0.5412 -1.3114
23931SOL    HW272895   4.332   1.108   3.185  0.1324 -1.2886  0.1304
23932SOL     OW72896   6.713   8.844   1.809 -0.4770 -0.0043 -0.0677
23932SOL    HW172897   6.798   8.855   1.767 -0.5242 -0.1613 -0.2054
23932SOL    HW272898   6.651   8.887   1.749 -0.2676  1.7897  0.9424
23933SOL     OW72899   2.286   2.790   8.313 -0.3300 -0.3000  0.2547
23933SOL    HW172900   2.352   2.815   8.249 -0.9088  1.2813  0.2096
23933SOL    HW272901   2.335   2.766   8.392  0.3332  2.3027  0.7287
23934SOL     OW72902   4.884   3.149   3.792 -0.4550 -0.0611  0.1176
23934SOL    HW172903   4.896   3.233   3.747 -0.6344  0.3240  0.7634
23934SOL    HW272904   4.969   3.106   3.788 -0.7854 -0.6122 -1.7001
23935SOL     OW72905   2.197   4.755   8.055 -0.1324 -0.8627 -0.1894
23935SOL    HW172906   2.286   4.726   8.073 -0.4845 -1.5823  0.4342
23935SOL    HW272907   2.189   4.838   8.101  0.4680 -0.3863 -0.9210
23936SOL     OW72908   0.011   3.045   6.685 -1.2515 -0.1070 -0.0891
23936SOL    HW172909   0.089   2.993   6.669 -0.8607  0.6546 -0.7202
23936SOL    HW272910  -0.016   3.022   6.774 -1.1708 -1.4690 -0.4032
23937SOL     OW72911   7.190   8.941   5.167  0.4775 -0.3562  0.0407
23937SOL    HW172912   7.219   8.953   5.257  1.4151 -2.2200  0.0369
23937SOL    HW272913   7.095   8.929   5.173  0.2091  1.6297  0.5046
23938SOL     OW72914   7.753   0.397   5.113  0.8917 -0.1751 -0.4035
23938SOL    HW172915   7.842   0.365   5.129  0.8477 -0.5512 -0.8991
23938SOL    HW272916   7.716   0.407   5.201  1.3330 -0.2699 -0.2020
23939SOL     OW72917   8.670   6.770   1.023  0.0293 -0.3431  0.5448
23939SOL    HW172918   8.746   6.713   1.019 -0.2366 -0.6592 -0.4642
23939SOL    HW272919   8.618   6.737   1.096  1.0741  0.1790  1.5465
23940SOL     OW72920   4.682   1.826   1.818 -0.4638  0.4384 -0.2121
23940SOL    HW172921   4.747   1.884   1.779  0.1663 -0.1337 -0.0263
23940SOL    HW272922   4.653   1.871   1.897 -0.2855  0.6875 -0.2891
23941SOL     OW72923   5.371   2.223   8.455 -0.1444 -0.0052  0.0380
23941SOL    HW172924   5.461   2.237   8.426 -0.7296 -1.1533 -2.6626
23941SOL    HW272925   5.375   2.143   8.507  0.2610 -0.8790 -1.2643
23942SOL     OW72926   2.097   3.156   2.087  0.1709  0.0784 -0.1957
23942SOL    HW172927   2.103   3.163   2.182 -0.8715  0.1628 -0.1205
23942SOL    HW272928   2.007   3.128   2.071  0.0766  0.9114 -1.1967
23943SOL     OW72929   8.858   0.472   1.086 -0.1376  0.0295  0.2780
23943SOL    HW172930   8.845   0.391   1.037 -1.1737  0.5532 -0.3480
23943SOL    HW272931   8.794   0.468   1.156  0.5296 -0.1612  0.8923
23944SOL     OW72932   1.713   5.759   1.939  0.1383 -0.1947 -0.1065
23944SOL    HW172933   1.723   5.668   1.914  0.2936 -0.1458 -0.2195
23944SOL    HW272934   1.777   5.773   2.008  1.4891  0.3434 -1.4070
23945SOL     OW72935   2.732   1.930   6.923 -0.0635  0.6376 -0.1131
23945SOL    HW172936   2.652   1.983   6.923 -0.5849 -0.1345 -0.7651
23945SOL    HW272937   2.731   1.885   6.839  0.9913  0.5019 -0.0689
23946SOL     OW72938   5.401   8.636   2.143 -0.1901 -0.3053  0.2079
23946SOL    HW172939   5.324   8.601   2.098 -0.0493 -1.4878  0.8616
23946SOL    HW272940   5.402   8.592   2.227  1.1943 -0.2800  0.2272
23947SOL     OW72941   5.790   2.659   6.226  0.2657  0.4253  0.3945
23947SOL    HW172942   5.842   2.642   6.147 -2.2929 -2.3392 -0.8824
23947SOL    HW272943   5.741   2.739   6.206 -0.1125 -0.0667 -0.7256
23948SOL     OW72944   3.252   2.354   8.426 -0.0584  0.2299  0.3605
23948SOL    HW172945   3.250   2.423   8.493  0.4439  0.4375  0.1674
23948SOL    HW272946   3.236   2.273   8.474  0.2389  0.3860  0.7273
23949SOL     OW72947   0.850   0.020   5.307  0.3811  0.0400  0.2439
23949SOL    HW172948   0.851   0.112   5.331  0.2476  0.2141 -0.3905
23949SOL    HW272949   0.836  -0.027   5.389  0.7998  0.5642  0.6230
23950SOL     OW72950   0.306   0.039   1.278  0.0968  0.0238 -0.2504
23950SOL    HW172951   0.360  -0.028   1.236 -0.3545 -1.4972  1.4341
23950SOL    HW272952   0.370   0.101   1.313  0.6810 -0.6502 -0.0706
23951SOL     OW72953   6.034   5.566   1.691 -0.1898  0.4596 -0.4248
23951SOL    HW172954   6.126   5.557   1.666 -0.8407  1.2198 -3.5894
23951SOL    HW272955   6.031   5.646   1.743  0.8209  1.1139 -1.3156
23952SOL     OW72956   1.293   7.512   8.485 -0.3976  0.0648 -0.6272
23952SOL    HW172957   1.209   7.537   8.523  0.0390  2.6585 -1.2438
23952SOL    HW272958   1.287   7.536   8.393  0.9473  0.0696 -0.7307
23953SOL     OW72959   5.609   0.927   1.327 -0.0569  0.5642 -0.0463
23953SOL    HW172960   5.554   0.909   1.403  2.0355 -1.8384  1.0444
23953SOL    HW272961   5.673   0.991   1.358 -0.5227  1.2460 -0.4719
23954SOL     OW72962   2.012   6.883   3.445 -0.0335 -0.3544  0.0593
23954SOL    HW172963   2.046   6.945   3.509  2.8828 -2.6530  0.9524
23954SOL    HW272964   2.007   6.933   3.364  1.5901  1.2289  0.8657
23955SOL     OW72965   3.018   0.698   3.143  0.7062 -0.2875  0.3880
23955SOL    HW172966   3.035   0.791   3.132 -0.4381 -0.0745  0.2084
23955SOL    HW272967   3.049   0.658   3.062 -0.8903  0.2722 -0.5458
23956SOL     OW72968   6.449   5.101   2.548 -0.1744 -0.0272  0.0916
23956SOL    HW172969   6.378   5.151   2.509  0.3798 -0.9623 -2.2467
23956SOL    HW272970   6.527   5.127   2.500  0.4475 -1.6912  0.1305
23957SOL     OW72971   5.562   7.207   3.357  0.5971 -0.0020  0.4692
23957SOL    HW172972   5.641   7.155   3.341  0.3086 -0.3525  0.1575
23957SOL    HW272973   5.595   7.293   3.383  1.1052  0.7698 -2.4704
23958SOL     OW72974   7.506   3.158   8.367  0.1628 -0.0816 -0.4570
23958SOL    HW172975   7.586   3.182   8.414 -0.1320 -0.6268  0.3516
23958SOL    HW272976   7.494   3.228   8.303  0.8865  0.3911 -0.0954
23959SOL     OW72977   2.037   0.424   3.140 -0.0578 -0.0726 -0.2227
23959SOL    HW172978   2.094   0.499   3.124  1.4776 -0.8625  1.2303
23959SOL    HW272979   1.991   0.410   3.057  0.2646  1.9134 -0.7715
23960SOL     OW72980   2.395   4.873   9.122 -0.6358 -0.5331 -0.3475
23960SOL    HW172981   2.359   4.840   9.204  0.5722 -0.4416  0.2391
23960SOL    HW272982   2.320   4.908   9.075 -1.0428  1.7054  1.8073
23961SOL     OW72983   0.370   6.510   6.194  0.0598 -0.1884 -0.1352
23961SOL    HW172984   0.377   6.594   6.239  2.2021  0.0296 -0.7741
23961SOL    HW272985   0.387   6.444   6.261  4.3134  0.1663 -0.6343
23962SOL     OW72986   0.744   2.184   1.724 -0.1130  0.3768 -0.4301
23962SOL    HW172987   0.682   2.221   1.662 -1.4827 -2.4091 -0.8797
23962SOL    HW272988   0.825   2.234   1.709 -1.5082  2.4471 -1.5760
23963SOL     OW72989   3.983   8.517   7.269  0.1796 -0.3386 -0.2886
23963SOL    HW172990   3.972   8.597   7.320  0.5994 -0.3381 -0.1992
23963SOL    HW272991   3.979   8.447   7.334  1.2344 -0.3084 -0.1882
23964SOL     OW72992   0.152   5.825   6.970  0.0282 -0.6457  0.0393
23964SOL    HW172993   0.117   5.783   7.049 -1.2254 -0.4754 -0.3939
23964SOL    HW272994   0.211   5.761   6.932  0.1589 -0.9779  0.7871
23965SOL     OW72995   6.994   5.657   1.955 -0.5192  0.2888  0.4742
23965SOL    HW172996   6.945   5.711   1.894  0.2919  0.2879 -0.2000
23965SOL    HW272997   7.044   5.597   1.900 -0.8962 -0.7190  1.1836
23966SOL     OW72998   8.033   0.488   2.607  0.1048 -0.2706 -0.1751
23966SOL    HW172999   8.047   0.505   2.514 -0.1680  0.0424 -0.1590
23966SOL    HW273000   7.964   0.421   2.610 -1.2690  1.1006 -0.1596
23967SOL     OW73001   3.063   7.414   0.672  0.8067  0.1759 -0.2347
23967SOL    HW173002   2.999   7.383   0.607  3.1273 -2.8819 -1.3411
23967SOL    HW273003   3.103   7.491   0.631 -0.8458  1.0480 -0.3008
23968SOL     OW73004   5.239   7.753   0.239 -0.0963  0.1684  0.2703
23968SOL    HW173005   5.311   7.722   0.184 -0.1212 -1.0416  0.9016
23968SOL    HW273006   5.167   7.765   0.178  0.7062  1.7679 -0.4391
23969SOL     OW73007   4.964   8.449   1.042  0.0567 -0.4878  0.2609
23969SOL    HW173008   4.902   8.401   0.988  0.8196 -0.0236 -1.0690
23969SOL    HW273009   4.927   8.444   1.131 -2.1298  0.1870 -0.5383
23970SOL     OW73010   2.262   6.458   2.494 -0.1589  0.3200  0.2467
23970SOL    HW173011   2.195   6.391   2.506  0.3768 -0.0122  1.5708
23970SOL    HW273012   2.237   6.528   2.554  0.5268  0.3143  0.5432
23971SOL     OW73013   8.033   4.571   4.240 -0.3918  0.2028  0.1504
23971SOL    HW173014   8.122   4.591   4.268 -0.6140  0.6863  0.5260
23971SOL    HW273015   7.981   4.645   4.271 -0.9210 -0.0732 -0.0738
23972SOL     OW73016   2.565   6.039   4.194  0.3801 -0.5376  0.1795
23972SOL    HW173017   2.654   6.030   4.229  0.5085 -1.8008 -0.3867
23972SOL    HW273018   2.561   6.128   4.160  1.4388 -0.4573  0.2278
23973SOL     OW73019   5.256   7.292   5.456  0.4256  0.0464  0.0162
23973SOL    HW173020   5.335   7.320   5.411  1.2851 -0.3284  1.2283
23973SOL    HW273021   5.265   7.328   5.544 -0.5601 -0.3300  0.2837
23974SOL     OW73022   0.440   7.098   7.656  0.0295  0.2910 -0.0728
23974SOL    HW173023   0.516   7.041   7.651 -0.1713 -0.2896  2.3707
23974SOL    HW273024   0.420   7.104   7.749 -2.7216  0.6791 -0.5843
23975SOL     OW73025   2.659   4.868   6.645  0.1038 -0.3919 -0.0959
23975SOL    HW173026   2.743   4.906   6.619 -0.5594  2.1938  1.2136
23975SOL    HW273027   2.596   4.905   6.582 -0.5056  0.4265  0.9612
23976SOL     OW73028   7.735   6.367   1.068 -0.3213  0.1069 -0.5864
23976SOL    HW173029   7.748   6.308   1.142  1.3532  0.8745 -0.2350
23976SOL    HW273030   7.819   6.410   1.056 -0.7021  0.3769 -2.6339
23977SOL     OW73031   5.672   4.712   7.994  0.0896  0.5058  1.0496
23977SOL    HW173032   5.693   4.786   7.938 -0.1857 -0.8797 -1.0164
23977SOL    HW273033   5.578   4.720   8.010  0.2132  1.0387  1.5437
23978SOL     OW73034   3.348   5.891   3.186  0.7709  0.6571  0.2551
23978SOL    HW173035   3.257   5.862   3.183  0.6706  1.0482 -0.5830
23978SOL    HW273036   3.394   5.822   3.235  0.2144 -0.0430 -0.2003
23979SOL     OW73037   1.481   2.332   2.471  0.2950  0.2163 -0.1286
23979SOL    HW173038   1.540   2.270   2.514  1.2537  2.0368  1.3124
23979SOL    HW273039   1.400   2.329   2.522 -0.9821 -2.2067 -2.0466
23980SOL     OW73040   9.057   0.209   2.397 -0.5905 -0.9010  0.7213
23980SOL    HW173041   8.982   0.239   2.448 -0.6649 -1.2273  0.8059
23980SOL    HW273042   9.040   0.239   2.308 -0.2625  0.0301  0.9619
23981SOL     OW73043   1.961   1.697   0.759 -0.0762  0.3718 -0.0500
23981SOL    HW173044   2.018   1.642   0.705  0.4060  3.0334 -2.5179
23981SOL    HW273045   1.903   1.635   0.803  1.9862 -2.2039 -0.6843
23982SOL     OW73046   8.317   0.105   3.198 -0.1500  0.1624 -0.3225
23982SOL    HW173047   8.350   0.138   3.115 -0.5456  0.6952 -0.2717
23982SOL    HW273048   8.377   0.034   3.221  0.2643  0.3504 -0.8082
23983SOL     OW73049   7.962   0.753   7.923  0.4153 -0.2225  0.3836
23983SOL    HW173050   7.956   0.809   7.845  0.0554  1.2218  1.4233
23983SOL    HW273051   7.926   0.669   7.894  1.1271 -0.0035 -1.2603
23984SOL     OW73052   0.368   2.863   3.091  0.0001 -0.4394 -0.1003
23984SOL    HW173053   0.272   2.863   3.084  0.0448 -0.3084 -0.7916
23984SOL    HW273054   0.391   2.955   3.097 -0.0014 -0.5243  1.4997
23985SOL     OW73055   3.754   0.866   0.582  0.6315 -0.4514  0.3174
23985SOL    HW173056   3.667   0.905   0.593  1.1897  1.6277 -1.8133
23985SOL    HW273057   3.737   0.779   0.545 -0.6065  0.7877 -2.2894
23986SOL     OW73058   0.321   6.088   6.728  0.0668  0.4567  0.4613
23986SOL    HW173059   0.230   6.060   6.731 -0.1031  0.5466 -1.7194
23986SOL    HW273060   0.366   6.018   6.680  0.9581  0.8315  0.7167
23987SOL     OW73061   2.539   2.423   2.711 -0.5468 -0.0999 -0.2337
23987SOL    HW173062   2.448   2.436   2.737 -1.0176  0.1767 -1.8994
23987SOL    HW273063   2.559   2.498   2.655  1.5077  1.1425  1.9661
23988SOL     OW73064   3.162   7.028   7.931 -0.0754  0.6435 -0.0412
23988SOL    HW173065   3.235   6.991   7.980 -0.1970 -0.0078 -0.3417
23988SOL    HW273066   3.204   7.078   7.860  0.0819  0.6419  0.0504
23989SOL     OW73067   6.637   4.176   5.767  0.1623  0.1834  0.1796
23989SOL    HW173068   6.683   4.222   5.697 -1.3247  0.6676 -0.5355
23989SOL    HW273069   6.705   4.148   5.827  1.3499  1.0144 -0.7407
23990SOL     OW73070   6.867   4.943   1.404 -0.4910  0.2329 -0.2619
23990SOL    HW173071   6.817   4.920   1.482  1.4752 -1.1499  0.6474
23990SOL    HW273072   6.950   4.976   1.437 -0.1619  1.0190 -1.7697
23991SOL     OW73073   0.540   3.357   5.426  0.5345  0.0494 -0.0315
23991SOL    HW173074   0.536   3.376   5.333 -1.2039  2.0307  0.3711
23991SOL    HW273075   0.510   3.437   5.469  1.8232 -0.5963  2.2767
23992SOL     OW73076   8.125   1.764   3.925 -0.1068 -0.1358  0.2037
23992SOL    HW173077   8.125   1.768   4.020 -0.7707 -1.4977  0.2749
23992SOL    HW273078   8.212   1.732   3.902  0.4441  1.2186  0.2644
23993SOL     OW73079   4.099   3.853   0.414  0.3054 -0.5704 -0.0055
23993SOL    HW173080   4.133   3.812   0.334 -1.2336 -0.2672 -0.8635
23993SOL    HW273081   4.120   3.791   0.484 -1.4652 -2.6068 -1.1683
23994SOL     OW73082   4.676   8.085   0.952 -0.2305  0.3826 -1.0148
23994SOL    HW173083   4.645   8.133   1.029  0.5111  0.4127 -0.7350
23994SOL    HW273084   4.604   8.093   0.889 -1.1325 -0.2057 -0.0938
23995SOL     OW73085   0.924   8.433   2.185 -0.1732  0.5404  0.1841
23995SOL    HW173086   0.840   8.411   2.145  0.3700 -0.3748 -0.5105
23995SOL    HW273087   0.981   8.451   2.110  0.4126  0.5322  0.6270
23996SOL     OW73088   5.879   8.666   3.618  0.0773  0.0804 -0.2406
23996SOL    HW173089   5.948   8.618   3.665 -0.4939  0.4492  1.0007
23996SOL    HW273090   5.873   8.750   3.663  0.3814  0.9699 -1.7823
23997SOL     OW73091   3.443   1.309   3.049 -0.0803  0.0656  0.3298
23997SOL    HW173092   3.425   1.363   3.126 -0.3348 -0.2849  0.5169
23997SOL    HW273093   3.525   1.344   3.014 -0.4043  0.7852  0.2658
23998SOL     OW73094   5.675   6.202   5.123  0.2612 -0.0749  0.0545
23998SOL    HW173095   5.707   6.289   5.147 -1.1368  0.7621 -0.9483
23998SOL    HW273096   5.640   6.165   5.204 -2.1512  1.6800 -0.0882
23999SOL     OW73097   7.870   0.169   0.847  0.0588  0.6372 -0.1426
23999SOL    HW173098   7.790   0.208   0.813 -0.3046 -1.0069 -1.2869
23999SOL    HW273099   7.940   0.228   0.819 -0.4912  0.6137 -1.6541
24000SOL     OW73100   0.820   7.443   6.857 -0.4529  0.4270 -0.2646
24000SOL    HW173101   0.855   7.479   6.939 -1.2727  1.0755 -0.1833
24000SOL    HW273102   0.879   7.371   6.835 -0.2490  0.2123  0.9222
24001SOL     OW73103   7.858   8.042   4.551 -0.6740  0.2185  0.0828
24001SOL    HW173104   7.895   8.000   4.473 -1.0769 -0.5821  0.3094
24001SOL    HW273105   7.890   7.989   4.624 -0.7429  0.6391  0.4209
24002SOL     OW73106   1.796   6.132   4.796 -0.4563  0.3736  0.2279
24002SOL    HW173107   1.876   6.125   4.743  0.8298  2.0986  1.7989
24002SOL    HW273108   1.761   6.218   4.774 -1.7009 -0.2137 -0.1510
24003SOL     OW73109   7.314   3.247   3.942  0.1362 -0.6008 -0.1522
24003SOL    HW173110   7.271   3.172   3.901  0.5409 -0.1476 -1.4658
24003SOL    HW273111   7.408   3.228   3.936  0.3172  0.5748 -1.7306
24004SOL     OW73112   4.751   8.519   1.210  0.1231  0.3597 -0.7657
24004SOL    HW173113   4.673   8.511   1.154 -1.8325  1.8141  1.5543
24004SOL    HW273114   4.771   8.612   1.209  0.2759  0.3546  0.6000
24005SOL     OW73115   1.100   8.801   0.287 -0.2787  0.1739  0.1619
24005SOL    HW173116   1.093   8.895   0.305  0.3257 -0.0795  1.9353
24005SOL    HW273117   1.110   8.795   0.192  0.1058  1.9324  0.0616
24006SOL     OW73118   2.420   3.328   5.304 -0.5245 -0.3302 -0.4084
24006SOL    HW173119   2.420   3.234   5.320  0.8605 -0.6834 -2.1896
24006SOL    HW273120   2.332   3.347   5.270 -1.9649 -0.3137  2.8692
24007SOL     OW73121   8.143   8.200   3.018 -0.2946  0.4839  0.2913
24007SOL    HW173122   8.136   8.293   2.997 -0.1909  0.7032  1.1917
24007SOL    HW273123   8.080   8.186   3.088  0.0319 -0.0263  0.4899
24008SOL     OW73124   3.616   1.567   8.102 -0.3635 -0.2617 -0.3859
24008SOL    HW173125   3.561   1.522   8.038  0.4505 -0.9436 -0.6245
24008SOL    HW273126   3.583   1.656   8.103 -0.9369 -0.4510 -1.1326
24009SOL     OW73127   1.807   0.195   2.023  0.4201  0.2492  0.1009
24009SOL    HW173128   1.757   0.156   2.095  1.1084  0.2308  0.5743
24009SOL    HW273129   1.885   0.231   2.064  1.4846 -0.9275 -0.7964
24010SOL     OW73130   0.223   3.944   3.240  0.0230  0.1189 -0.1924
24010SOL    HW173131   0.283   3.870   3.245 -1.3939 -1.1109 -0.8030
24010SOL    HW273132   0.206   3.956   3.147 -1.1862  0.0017 -0.0067
24011SOL     OW73133   0.153   5.789   5.594 -0.3951  0.2456  0.1598
24011SOL    HW173134   0.223   5.790   5.659 -0.6577 -0.0959  0.4500
24011SOL    HW273135   0.188   5.738   5.521  0.0100  0.8760 -0.0982
24012SOL     OW73136   4.644   4.979   0.182  0.1110  0.1180 -0.1633
24012SOL    HW173137   4.561   4.984   0.229  0.4167 -0.2463  0.4280
24012SOL    HW273138   4.704   4.936   0.243  0.2657 -1.2915 -1.2385
24013SOL     OW73139   8.228   3.648   1.446  0.1396 -0.4930 -0.3537
24013SOL    HW173140   8.272   3.692   1.373 -0.0641  0.3727  0.0291
24013SOL    HW273141   8.194   3.567   1.408  1.2534 -0.7304 -0.8689
24014SOL     OW73142   6.852   6.342   8.113  0.5440 -0.7339  0.3013
24014SOL    HW173143   6.936   6.304   8.140  1.4531  2.3088  2.3008
24014SOL    HW273144   6.838   6.414   8.175 -0.5352  2.7763 -3.6103
24015SOL     OW73145   5.113   5.981   8.223  0.1381 -0.0070 -0.5161
24015SOL    HW173146   5.077   6.034   8.294 -1.3918 -0.3808 -0.9802
24015SOL    HW273147   5.183   5.931   8.264  0.3381  0.9427  0.3631
24016SOL     OW73148   0.447   8.030   0.121 -0.0500  0.0700 -0.1465
24016SOL    HW173149   0.509   8.080   0.174  0.0307 -0.7531  0.5730
24016SOL    HW273150   0.455   8.067   0.033  1.2985  0.1372 -0.0206
24017SOL     OW73151   8.694   7.107   7.039 -0.0757 -0.4370  0.0110
24017SOL    HW173152   8.614   7.137   7.082  0.2963  1.2449 -0.3977
24017SOL    HW273153   8.763   7.119   7.105 -0.0023 -0.9622  0.0353
24018SOL     OW73154   8.096   3.647   4.240 -0.2841 -0.2805 -0.0515
24018SOL    HW173155   8.007   3.632   4.273  0.0250 -1.0120  0.4739
24018SOL    HW273156   8.153   3.617   4.311  0.3910  1.1523  0.0439
24019SOL     OW73157   7.195   5.695   6.732 -0.0507  0.1711  0.1782
24019SOL    HW173158   7.231   5.680   6.819  0.8754  0.4710 -0.1402
24019SOL    HW273159   7.103   5.716   6.747 -0.3056 -1.3702  0.9609
24020SOL     OW73160   6.579   8.516   3.732 -0.0865 -0.0290 -0.3259
24020SOL    HW173161   6.642   8.464   3.683 -0.0936  1.7354 -2.3774
24020SOL    HW273162   6.604   8.607   3.714 -2.2985  0.7128  0.0053
24021SOL     OW73163   4.607   3.689   7.141  0.3383 -0.4282  0.1726
24021SOL    HW173164   4.657   3.748   7.196  3.7009 -2.4287 -0.4657
24021SOL    HW273165   4.517   3.722   7.146  1.5587  3.1804  1.7437
24022SOL     OW73166   7.785   1.357   1.375 -0.2101 -0.2171 -0.2901
24022SOL    HW173167   7.754   1.337   1.287  0.7178 -0.4014 -0.5811
24022SOL    HW273168   7.759   1.448   1.389 -1.5643 -0.5994 -0.2141
24023SOL     OW73169   5.020   7.111   0.536 -0.7197  0.0128  0.5698
24023SOL    HW173170   5.055   7.190   0.577 -1.5343  0.5381  0.2582
24023SOL    HW273171   5.038   7.122   0.443  1.1708 -1.2037  0.7361
24024SOL     OW73172   4.072   4.436   0.529 -0.4579  0.0361 -0.8551
24024SOL    HW173173   4.027   4.388   0.460 -1.7781  0.6854 -0.4823
24024SOL    HW273174   4.165   4.415   0.516 -0.7589 -0.5832 -2.2385
24025SOL     OW73175   1.663   8.816   1.700 -0.2546  0.0752 -0.2255
24025SOL    HW173176   1.745   8.828   1.748  0.9199  1.6544 -2.4415
24025SOL    HW273177   1.645   8.722   1.705  1.6315 -0.2867  0.3941
24026SOL     OW73178   7.399   5.188   0.110  0.0893 -0.0144 -0.1672
24026SOL    HW173179   7.305   5.185   0.126  0.3107 -0.8917  1.0193
24026SOL    HW273180   7.408   5.246   0.034 -1.2741  1.4084  0.7020
24027SOL     OW73181   3.773   8.906   2.696 -0.3352 -0.1187 -0.2978
24027SOL    HW173182   3.693   8.855   2.707 -0.7237  0.7273  1.0644
24027SOL    HW273183   3.744   8.997   2.704  0.6261  0.2368 -0.7542
24028SOL     OW73184   8.725   8.177   0.801  0.1865 -0.0716 -0.3789
24028SOL    HW173185   8.719   8.240   0.873  0.8957  0.3310 -0.6651
24028SOL    HW273186   8.640   8.183   0.757  0.4088  1.0099 -0.6722
24029SOL     OW73187   0.684   8.384   2.757  0.4366  0.2798 -0.2280
24029SOL    HW173188   0.654   8.473   2.775 -0.6324 -0.1379  0.1686
24029SOL    HW273189   0.613   8.328   2.789  1.7378 -0.7905  0.9310
24030SOL     OW73190   0.782   1.497   7.554 -0.7897  0.1754 -0.0004
24030SOL    HW173191   0.861   1.449   7.526 -1.8882 -1.3991 -0.5697
24030SOL    HW273192   0.767   1.468   7.644 -0.2085  1.2023  0.4387
24031SOL     OW73193   3.645   4.627   2.544  0.1544 -0.5095 -0.3778
24031SOL    HW173194   3.632   4.601   2.635 -2.0600 -0.4207 -0.6266
24031SOL    HW273195   3.580   4.695   2.528 -0.2691 -1.2932 -2.3336
24032SOL     OW73196   1.459   3.653   6.316  0.3391  0.1745  0.3178
24032SOL    HW173197   1.549   3.626   6.331  0.9900  1.5691 -0.8658
24032SOL    HW273198   1.464   3.747   6.301 -0.8909 -0.1483 -2.7886
24033SOL     OW73199   8.293   6.695   2.615  0.5352 -0.3282 -0.3322
24033SOL    HW173200   8.208   6.654   2.599  1.1810 -0.9999 -2.1822
24033SOL    HW273201   8.357   6.628   2.595  1.5632 -0.1909  2.1001
24034SOL     OW73202   0.692   2.912   2.720  0.8751  0.3199  0.1080
24034SOL    HW173203   0.603   2.901   2.751  0.6827 -0.6973 -0.7540
24034SOL    HW273204   0.729   2.981   2.776 -0.8067  1.6065 -0.3134
24035SOL     OW73205   7.566   4.171   8.226 -0.0513 -0.3014  0.2369
24035SOL    HW173206   7.495   4.110   8.245 -0.7988  0.0869 -1.1462
24035SOL    HW273207   7.529   4.232   8.162  1.5443 -0.1504 -0.6177
24036SOL     OW73208   1.872   2.023   6.653 -0.2583 -0.5149 -0.4610
24036SOL    HW173209   1.891   2.069   6.571  1.0232  0.2578  0.2490
24036SOL    HW273210   1.867   2.092   6.719  0.4335 -1.2653  0.4011
24037SOL     OW73211   3.532   9.113   5.950  0.0343  0.7993 -0.0614
24037SOL    HW173212   3.566   9.087   6.036  0.4615  0.5035 -0.3197
24037SOL    HW273213   3.473   9.042   5.925  0.1199  0.7572 -0.1396
24038SOL     OW73214   0.490   5.376   3.470 -0.2926  0.3426 -0.2478
24038SOL    HW173215   0.450   5.441   3.412 -0.7058  0.8023  0.5269
24038SOL    HW273216   0.444   5.295   3.450  1.7238 -0.3117 -2.8149
24039SOL     OW73217   7.311   0.199   5.308 -0.3741 -0.1111  0.5046
24039SOL    HW173218   7.370   0.236   5.373 -1.5916  0.6466  1.2000
24039SOL    HW273219   7.223   0.218   5.341 -1.0207  0.0065 -1.1940
24040SOL     OW73220   0.388   6.711   8.990 -0.3980  0.3241  0.1823
24040SOL    HW173221   0.440   6.784   8.957  1.3143 -0.9779 -0.1116
24040SOL    HW273222   0.298   6.744   8.990  0.2006  2.0851 -0.8727
24041SOL     OW73223   0.133   7.210   1.629  0.0017 -0.1694  0.5586
24041SOL    HW173224   0.125   7.290   1.681  0.6041  0.7651 -0.7171
24041SOL    HW273225   0.211   7.166   1.663  0.4079  0.4462  0.4351
24042SOL     OW73226   3.705   6.062   5.531  0.3292  0.1169  0.0972
24042SOL    HW173227   3.705   6.146   5.578  2.5128 -0.2362  0.8701
24042SOL    HW273228   3.686   5.997   5.599  0.0042 -0.1209 -0.2198
24043SOL     OW73229   1.888   4.661   2.498  0.2892  0.5375 -0.3474
24043SOL    HW173230   1.804   4.693   2.464  0.4774  0.1327 -1.2286
24043SOL    HW273231   1.951   4.727   2.471  0.5274 -0.0591 -1.3201
24044SOL     OW73232   0.295   4.978   1.703  0.0385 -0.4933 -0.2997
24044SOL    HW173233   0.299   5.014   1.615 -1.7021  0.6123  0.0186
24044SOL    HW273234   0.294   4.883   1.691  1.2748 -0.4055 -1.3491
24045SOL     OW73235   3.625   2.246   3.755  0.6176 -0.0493  0.0448
24045SOL    HW173236   3.644   2.320   3.697  0.4719 -1.3743 -1.7617
24045SOL    HW273237   3.664   2.171   3.712  0.1061 -1.1695  1.4573
24046SOL     OW73238   6.575   2.790   6.484 -0.0268  0.0420  0.3597
24046SOL    HW173239   6.504   2.844   6.519 -0.7780 -1.0109  0.5036
24046SOL    HW273240   6.540   2.701   6.485  1.1970 -0.4566  0.1540
24047SOL     OW73241   0.064   6.166   2.144 -0.5364  0.1461  0.4755
24047SOL    HW173242   0.049   6.156   2.238 -1.2676  0.7897  0.4409
24047SOL    HW273243   0.157   6.144   2.132  0.2875  2.5426  1.7654
24048SOL     OW73244   3.430   7.565   4.316 -0.6767  0.2810  0.6008
24048SOL    HW173245   3.523   7.570   4.340 -0.6478 -1.5919  0.9986
24048SOL    HW273246   3.431   7.557   4.221 -0.5206  1.6720  0.4632
24049SOL     OW73247   1.421   2.769   6.425 -0.5676  0.2137 -0.6494
24049SOL    HW173248   1.453   2.752   6.513 -0.9561  0.1546 -0.5189
24049SOL    HW273249   1.464   2.850   6.398  1.2023 -0.8519 -1.2218
24050SOL     OW73250   8.095   3.372   1.372  0.4476 -0.2610 -0.1549
24050SOL    HW173251   8.125   3.335   1.455  0.5655  0.2171  0.0144
24050SOL    HW273252   8.082   3.295   1.315 -1.3060 -0.7753  0.8388
24051SOL     OW73253   5.205   6.994   5.619 -0.0435  0.1437 -0.1185
24051SOL    HW173254   5.140   7.064   5.625 -1.9998 -1.6040  0.7253
24051SOL    HW273255   5.153   6.916   5.600  2.1675 -0.9252 -2.3219
24052SOL     OW73256   5.643   3.213   1.698  0.4036 -0.3778  0.4863
24052SOL    HW173257   5.566   3.195   1.644 -0.8137  1.1782  1.5995
24052SOL    HW273258   5.640   3.147   1.767 -0.0915 -0.1675  0.6681
24053SOL     OW73259   0.673   1.083   7.213  0.1064 -0.1940 -0.1099
24053SOL    HW173260   0.608   1.149   7.189 -0.3737 -0.5580  0.1635
24053SOL    HW273261   0.638   1.001   7.178 -0.4155 -0.6671  1.4550
24054SOL     OW73262   6.238   4.103   2.917 -0.0489 -0.9974 -0.2131
24054SOL    HW173263   6.158   4.131   2.872  0.3143 -1.3541 -1.1051
24054SOL    HW273264   6.309   4.126   2.857  0.5788 -0.1784  0.8150
24055SOL     OW73265   6.040   5.277   4.206 -0.3544  0.0858 -0.2304
24055SOL    HW173266   6.020   5.351   4.264 -2.5158 -1.4347  1.1191
24055SOL    HW273267   6.066   5.207   4.265 -0.5128 -0.8792 -1.2694
24056SOL     OW73268   5.559   7.895   2.620 -0.0559  0.5386  0.0980
24056SOL    HW173269   5.485   7.898   2.559 -1.2937  1.8427  1.5684
24056SOL    HW273270   5.624   7.840   2.577 -1.9677 -0.8464 -1.1577
24057SOL     OW73271   0.932   5.627   7.797  0.1008  0.1678 -0.3057
24057SOL    HW173272   1.019   5.652   7.828  0.4515 -1.5128  0.1529
24057SOL    HW273273   0.900   5.563   7.861 -1.1344  0.1380 -0.9081
24058SOL     OW73274   0.139   6.255   6.013 -0.8503  0.2953 -0.0084
24058SOL    HW173275   0.079   6.302   6.070 -1.5588 -1.4902  0.8213
24058SOL    HW273276   0.117   6.162   6.027  1.3622 -0.3727 -0.4957
24059SOL     OW73277   6.302   8.443   5.791  0.2388  0.5098  0.2078
24059SOL    HW173278   6.387   8.451   5.834  0.2808 -0.0506  0.2428
24059SOL    HW273279   6.291   8.349   5.777 -1.0560  0.4091  1.5965
24060SOL     OW73280   2.453   7.251   4.450  0.2828 -0.2353 -1.1704
24060SOL    HW173281   2.481   7.236   4.359  0.8977 -1.3547 -0.8194
24060SOL    HW273282   2.467   7.344   4.465  3.2849 -0.5742 -1.2298
24061SOL     OW73283   6.689   1.152   1.531  0.1115 -0.2990 -0.1772
24061SOL    HW173284   6.776   1.171   1.495  0.7999 -2.8961 -0.0331
24061SOL    HW273285   6.705   1.129   1.623 -0.9175  0.4421  0.2103
24062SOL     OW73286   8.732   5.862   4.677  0.7265  0.1642  0.1007
24062SOL    HW173287   8.645   5.825   4.660  1.1704  0.1103 -2.3791
24062SOL    HW273288   8.767   5.807   4.747 -0.2283 -1.5142 -0.6750
24063SOL     OW73289   6.125   5.493   2.052  0.3752  0.6840  0.0224
24063SOL    HW173290   6.221   5.493   2.053  0.3820  0.7130  1.1541
24063SOL    HW273291   6.101   5.437   1.979  1.2723 -1.2605  1.1380
24064SOL     OW73292   8.060   4.595   8.484  0.6394 -0.1378 -0.0485
24064SOL    HW173293   8.155   4.588   8.481  0.5381 -1.9901  0.0733
24064SOL    HW273294   8.042   4.687   8.463  2.4526  0.3395  0.3115
24065SOL     OW73295   8.683   7.407   3.009 -0.1058  0.1018  0.2410
24065SOL    HW173296   8.687   7.360   3.093  1.7013  1.2123  0.8449
24065SOL    HW273297   8.761   7.377   2.962  0.8486  2.0733  0.4632
24066SOL     OW73298   7.688   6.870   1.936 -0.1670 -0.4244  0.0677
24066SOL    HW173299   7.708   6.809   1.865  0.2175  1.4049 -1.4775
24066SOL    HW273300   7.767   6.923   1.945 -0.9077  0.6492  0.4825
24067SOL     OW73301   7.151   6.470   2.242 -0.2275 -0.4392 -0.3412
24067SOL    HW173302   7.246   6.462   2.248 -0.3894 -1.4434  1.3365
24067SOL    HW273303   7.137   6.554   2.198  1.4182  0.0484 -0.0074
24068SOL     OW73304   9.051   5.250   4.160  0.0409  0.1928  0.2069
24068SOL    HW173305   9.082   5.305   4.088  1.4753  0.6837  1.1476
24068SOL    HW273306   9.089   5.164   4.143  1.1113  0.5244  0.7887
24069SOL     OW73307   6.622   4.550   8.231  0.5942  0.5951 -0.4134
24069SOL    HW173308   6.617   4.586   8.142  2.5212 -0.7867 -1.1694
24069SOL    HW273309   6.709   4.576   8.263 -0.3550  1.7110  1.4199
24070SOL     OW73310   5.219   6.818   3.888  0.0316  0.8011 -0.2048
24070SOL    HW173311   5.139   6.814   3.835 -1.0068 -1.7780  1.3349
24070SOL    HW273312   5.235   6.726   3.912  3.2477  1.3012 -0.1039
24071SOL     OW73313   2.894   8.986   6.163  1.0042 -0.6789 -0.2113
24071SOL    HW173314   2.942   8.948   6.089  1.4289 -0.9443  0.2019
24071SOL    HW273315   2.937   8.952   6.241 -1.7579 -3.5010  0.2811
24072SOL     OW73316   5.444   6.391   4.345 -0.5391 -0.5149 -0.2795
24072SOL    HW173317   5.355   6.407   4.375 -0.0554  2.5426 -0.1539
24072SOL    HW273318   5.434   6.328   4.274 -2.8532 -0.0259 -0.4695
24073SOL     OW73319   2.525   8.947   0.514  0.4247 -0.7010  0.2766
24073SOL    HW173320   2.569   9.016   0.462  0.9729 -0.2236  1.3493
24073SOL    HW273321   2.435   8.977   0.521  0.7518  0.1350  1.0851
24074SOL     OW73322   7.905   8.344   0.112 -0.3378  0.4016  0.1509
24074SOL    HW173323   7.875   8.305   0.030 -1.5720 -0.5273  1.0150
24074SOL    HW273324   7.946   8.427   0.086 -1.5393  0.5679 -1.3066
24075SOL     OW73325   0.925   2.504   3.291 -0.2507 -0.0176 -0.1841
24075SOL    HW173326   0.860   2.558   3.246  1.1624  1.2000 -0.8753
24075SOL    HW273327   0.948   2.555   3.369 -0.0428 -0.3627 -0.0190
24076SOL     OW73328   5.390   6.116   2.198  0.0158 -0.2240  0.2860
24076SOL    HW173329   5.462   6.087   2.142  0.7645 -0.5298  1.3531
24076SOL    HW273330   5.347   6.186   2.149 -1.0920 -2.2547 -1.8571
24077SOL     OW73331   2.542   7.426   3.483  0.0244 -0.2108 -1.2293
24077SOL    HW173332   2.549   7.479   3.404 -2.9195  1.0806 -0.7718
24077SOL    HW273333   2.597   7.470   3.547 -1.5997  1.8501 -1.1439
24078SOL     OW73334   5.034   3.367   4.850  0.1645 -0.0962 -0.2479
24078SOL    HW173335   5.080   3.349   4.768  1.0331 -0.2664  0.2632
24078SOL    HW273336   4.983   3.288   4.867 -0.3012  0.0814 -0.8045
24079SOL     OW73337   3.563   7.187   2.960  0.1401  0.5971 -0.0054
24079SOL    HW173338   3.642   7.224   2.922  0.3620  0.6390  0.4904
24079SOL    HW273339   3.589   7.099   2.989 -0.2241  0.2729 -0.6277
24080SOL     OW73340   4.188   2.156   8.471 -0.0415  1.1007 -0.4247
24080SOL    HW173341   4.229   2.084   8.424  0.6458  0.2180  1.4148
24080SOL    HW273342   4.160   2.117   8.554 -0.1989  2.8200  0.3727
24081SOL     OW73343   4.376   2.053   1.527  0.0036  0.2726 -0.1839
24081SOL    HW173344   4.349   1.975   1.575  1.3226 -1.0290 -1.4273
24081SOL    HW273345   4.421   2.019   1.449  0.0607  2.2818 -1.1083
24082SOL     OW73346   0.362   6.128   2.948  0.2293 -0.5988  0.1532
24082SOL    HW173347   0.353   6.197   3.014  0.0602 -0.5341  0.0610
24082SOL    HW273348   0.346   6.172   2.865 -0.0940 -0.7970  0.1110
24083SOL     OW73349   2.558   3.744   8.190  0.9096  0.0354 -0.0156
24083SOL    HW173350   2.538   3.740   8.096  1.9975 -0.1488 -0.2480
24083SOL    HW273351   2.625   3.812   8.197  0.7387  0.1414  0.6495
24084SOL     OW73352   8.793   1.030   5.252  0.1194  0.2068  0.2723
24084SOL    HW173353   8.722   0.968   5.269  1.3858 -1.7799 -1.3122
24084SOL    HW273354   8.754   1.095   5.193 -0.6416 -0.3332  0.1569
24085SOL     OW73355   1.773   5.332   2.191  0.1618 -0.3560  0.1417
24085SOL    HW173356   1.865   5.353   2.207  0.9864 -1.8816 -2.0915
24085SOL    HW273357   1.739   5.304   2.276  2.1386 -1.0288  0.7628
24086SOL     OW73358   3.249   0.155   2.845 -0.1193 -0.2163  0.1701
24086SOL    HW173359   3.299   0.217   2.898  1.2973 -1.8169  0.8163
24086SOL    HW273360   3.158   0.186   2.850  0.5579  1.9462  0.1795
24087SOL     OW73361   1.322   6.807   2.509 -0.7187 -0.2886 -0.5596
24087SOL    HW173362   1.365   6.784   2.591  0.3111  0.1208 -0.9703
24087SOL    HW273363   1.373   6.880   2.474 -2.7662  1.3988 -0.2261
24088SOL     OW73364   6.155   4.491   4.521 -0.6655  0.6033  0.0092
24088SOL    HW173365   6.133   4.410   4.474  1.7696  0.5884 -1.2275
24088SOL    HW273366   6.083   4.502   4.583 -1.6016 -1.9479 -0.4861
24089SOL     OW73367   5.324   3.974   2.065 -0.5392 -0.0500  0.1394
24089SOL    HW173368   5.417   3.994   2.073 -0.8957  1.6718  0.3257
24089SOL    HW273369   5.309   3.902   2.127 -0.0475  2.2044  3.1225
24090SOL     OW73370   0.363   5.706   1.731 -0.0765  0.3769 -0.0049
24090SOL    HW173371   0.441   5.759   1.750  0.9774 -1.1207  0.0411
24090SOL    HW273372   0.398   5.624   1.697 -1.7046  0.1461 -1.2180
24091SOL     OW73373   6.810   2.683   0.780 -0.3805 -0.2220  0.2763
24091SOL    HW173374   6.774   2.594   0.777  1.1448 -0.8826  0.3601
24091SOL    HW273375   6.844   2.691   0.869  0.3629  0.0748 -0.0306
24092SOL     OW73376   1.819   7.640   8.797 -0.0846 -0.0971  0.4429
24092SOL    HW173377   1.830   7.592   8.715  0.0696  1.4775 -0.5209
24092SOL    HW273378   1.909   7.657   8.826 -0.1210  0.1248  0.4313
24093SOL     OW73379   4.102   8.539   2.903 -0.2031  0.0359  0.1441
24093SOL    HW173380   4.113   8.458   2.954  0.2353  0.5100  0.8152
24093SOL    HW273381   4.189   8.557   2.868 -0.0667  0.7483  0.8191
24094SOL     OW73382   5.162   4.721   7.869  0.9003  0.5362 -0.6333
24094SOL    HW173383   5.121   4.725   7.782  0.5210  0.4678 -0.4578
24094SOL    HW273384   5.089   4.723   7.930  1.0239 -1.7528 -0.3489
24095SOL     OW73385   7.984   7.896   6.375  0.6706 -0.4156  0.0381
24095SOL    HW173386   7.890   7.884   6.374  0.7694 -1.8688  2.2190
24095SOL    HW273387   7.997   7.983   6.414  0.2797  0.4543 -1.6353
24096SOL     OW73388   8.883   1.839   9.032 -0.4383 -0.6915 -0.2321
24096SOL    HW173389   8.959   1.788   9.058 -1.1267 -2.0729 -0.8356
24096SOL    HW273390   8.914   1.894   8.961  0.2255 -0.5284  0.1749
24097SOL     OW73391   8.075   6.590   8.845  0.5077 -0.0437 -0.0963
24097SOL    HW173392   8.147   6.563   8.903  0.2390 -1.6304 -0.4431
24097SOL    HW273393   8.109   6.667   8.799  1.0850  0.6634  1.4471
24098SOL     OW73394   6.195   1.208   2.641  0.4141 -0.8205 -0.1568
24098SOL    HW173395   6.125   1.215   2.706 -0.7484 -2.0474 -1.2129
24098SOL    HW273396   6.268   1.168   2.689  0.0104 -0.6008  0.6710
24099SOL     OW73397   9.022   8.427   5.885  0.2367 -0.0297 -0.2875
24099SOL    HW173398   9.113   8.458   5.889 -0.4636  2.3655 -1.0913
24099SOL    HW273399   9.005   8.414   5.792  0.1624 -1.9715 -0.0440
24100SOL     OW73400   6.720   7.463   3.242 -0.6407  0.2174  0.4768
24100SOL    HW173401   6.705   7.459   3.336  0.1497  1.4920  0.6914
24100SOL    HW273402   6.651   7.521   3.209 -0.7588 -0.0160  0.3146
24101SOL     OW73403   0.707   1.425   5.992  0.2267  0.0057  0.4469
24101SOL    HW173404   0.771   1.387   6.053 -0.6896 -0.2359  1.2938
24101SOL    HW273405   0.637   1.456   6.049 -0.7250 -0.3537 -0.5045
24102SOL     OW73406   5.546   0.371   7.332  0.4215 -0.2698 -0.0468
24102SOL    HW173407   5.487   0.332   7.268 -0.9185  0.6079  0.6140
24102SOL    HW273408   5.496   0.373   7.413  2.1145 -1.4267  1.0774
24103SOL     OW73409   3.907   8.129   7.034  0.3055 -0.2093  0.8629
24103SOL    HW173410   3.945   8.084   6.958 -1.8590 -0.3377 -0.2256
24103SOL    HW273411   3.869   8.209   6.998 -0.7617 -0.2751  1.7921
24104SOL     OW73412   6.871   4.258   2.542 -0.0515 -0.0374 -0.2345
24104SOL    HW173413   6.831   4.172   2.535  0.8901 -0.4645 -0.5315
24104SOL    HW273414   6.936   4.261   2.472  0.5793  0.5513  0.3433
24105SOL     OW73415   3.386   2.171   2.212  0.0518 -0.1654  0.2018
24105SOL    HW173416   3.382   2.238   2.280  0.7643  0.5363 -0.4277
24105SOL    HW273417   3.362   2.217   2.131  1.3720 -0.4401 -0.3813
24106SOL     OW73418   8.472   1.842   0.953 -0.1620  0.4589 -0.1318
24106SOL    HW173419   8.384   1.855   0.988 -0.4180 -0.7161 -0.2873
24106SOL    HW273420   8.457   1.816   0.862  0.2549 -1.2068  0.2458
24107SOL     OW73421   0.519   1.091   3.113  0.0455  0.2912 -0.0056
24107SOL    HW173422   0.605   1.104   3.073  0.0943 -0.5838 -0.2167
24107SOL    HW273423   0.460   1.072   3.040 -0.4152  1.2703  0.1013
24108SOL     OW73424   3.341   2.302   7.298  0.4672 -0.0555  0.2481
24108SOL    HW173425   3.271   2.246   7.265  1.0051  0.0768 -1.2021
24108SOL    HW273426   3.395   2.244   7.352  0.8164 -0.8613 -0.9375
24109SOL     OW73427   5.627   1.150   7.440 -0.2459  0.2412 -0.4952
24109SOL    HW173428   5.657   1.078   7.385  1.1491  1.1962 -1.0374
24109SOL    HW273429   5.582   1.209   7.379  2.2921  1.8715 -0.9418
24110SOL     OW73430   0.917   3.566   4.034  0.7741 -0.6630 -0.0256
24110SOL    HW173431   0.966   3.487   4.010  1.6633 -0.2407  0.3530
24110SOL    HW273432   0.985   3.630   4.054  0.0546  0.1057 -0.0282
24111SOL     OW73433   8.544   5.525   1.656  0.1773 -0.4162 -0.6714
24111SOL    HW173434   8.488   5.548   1.582  0.1970 -1.0739 -0.8919
24111SOL    HW273435   8.633   5.524   1.621  0.1886 -0.7137 -0.6329
24112SOL     OW73436   7.787   2.235   9.091 -0.0667 -0.3232  0.0798
24112SOL    HW173437   7.712   2.289   9.069  0.1187  0.3762  1.0816
24112SOL    HW273438   7.813   2.264   9.179  0.7075 -1.2914  0.1949
24113SOL     OW73439   6.016   4.311   4.772  0.2473  0.3710  0.0843
24113SOL    HW173440   6.102   4.293   4.732  0.1950  1.4083 -0.5311
24113SOL    HW273441   6.013   4.253   4.848  1.7404  0.7184  0.4440
24114SOL     OW73442   1.418   3.350   1.795 -0.1867 -0.5169  0.6369
24114SOL    HW173443   1.409   3.267   1.749 -1.7419  0.9409 -1.9737
24114SOL    HW273444   1.350   3.349   1.862 -1.3199 -0.7148 -0.4899
24115SOL     OW73445   2.363   3.577   8.308 -0.6798  0.2051 -0.5243
24115SOL    HW173446   2.289   3.571   8.248 -1.7657  0.6518  0.7329
24115SOL    HW273447   2.401   3.663   8.291 -2.4344  1.3483  1.0059
24116SOL     OW73448   0.768   0.910   4.277 -0.1305 -0.0062 -0.6736
24116SOL    HW173449   0.744   0.974   4.345  0.6431  0.6711 -1.0161
24116SOL    HW273450   0.722   0.940   4.199 -1.0938 -0.8388 -0.4490
24117SOL     OW73451   1.366   8.022   0.773 -0.3169  0.0688  0.9166
24117SOL    HW173452   1.412   7.985   0.698 -1.1015  2.4766 -0.9236
24117SOL    HW273453   1.295   7.960   0.791 -0.1241 -0.5643 -0.3794
24118SOL     OW73454   6.406   7.765   8.802 -0.1177  0.3539  0.3719
24118SOL    HW173455   6.434   7.854   8.780  2.1477 -0.0679  1.2191
24118SOL    HW273456   6.459   7.742   8.878 -0.0402 -2.0062 -0.3241
24119SOL     OW73457   4.776   3.048   4.803 -0.3919 -0.8317  0.4881
24119SOL    HW173458   4.723   3.068   4.725  1.7320  1.5043 -0.4646
24119SOL    HW273459   4.802   2.957   4.791 -2.0865 -1.2607 -0.2605
24120SOL     OW73460   6.180   7.538   8.354 -0.0837 -0.2678  0.5501
24120SOL    HW173461   6.118   7.609   8.341  0.1387 -0.5330 -2.6240
24120SOL    HW273462   6.263   7.581   8.375 -0.5638  0.2355  1.4561
24121SOL     OW73463   6.566   0.362   7.828  0.7565 -0.7248  0.6289
24121SOL    HW173464   6.474   0.338   7.814  0.4905  0.8022 -0.5667
24121SOL    HW273465   6.615   0.300   7.774  0.2819 -0.3293 -0.2796
24122SOL     OW73466   6.748   3.212   2.533 -0.1597 -0.4117  0.0782
24122SOL    HW173467   6.742   3.211   2.628 -3.1206  1.7297  0.0544
24122SOL    HW273468   6.732   3.303   2.509 -1.1946 -1.1721 -2.5026
24123SOL     OW73469   7.047   4.133   3.826  0.1381 -0.1414 -0.1670
24123SOL    HW173470   6.993   4.073   3.775 -0.9082  1.1812 -0.6336
24123SOL    HW273471   7.127   4.142   3.775  0.8196 -1.9856  0.4558
24124SOL     OW73472   1.793   2.750   6.579  0.0197 -0.0541 -0.3369
24124SOL    HW173473   1.820   2.659   6.565  1.5784  0.2552  0.3968
24124SOL    HW273474   1.726   2.745   6.647 -1.1887 -0.7765 -1.5296
24125SOL     OW73475   4.176   4.000   5.786 -0.4017  0.0707  0.6698
24125SOL    HW173476   4.175   3.929   5.851  0.3776 -0.8563 -0.2999
24125SOL    HW273477   4.199   4.078   5.836  0.6628 -0.7125  1.4485
24126SOL     OW73478   8.314   7.493   0.813  0.1087 -0.3004  0.7522
24126SOL    HW173479   8.353   7.457   0.892 -0.8348  2.6709  2.7564
24126SOL    HW273480   8.232   7.532   0.842  0.0104  1.4589 -1.5561
24127SOL     OW73481   4.132   5.421   0.587  0.1516 -0.1596 -0.6320
24127SOL    HW173482   4.093   5.386   0.667  2.0475 -0.7484  0.1135
24127SOL    HW273483   4.224   5.393   0.591  0.2709 -0.4211 -3.1389
24128SOL     OW73484   4.646   1.802   0.069  0.2631 -0.0530  0.3395
24128SOL    HW173485   4.685   1.853   0.140  0.0513  0.4683  0.0866
24128SOL    HW273486   4.621   1.719   0.110  0.9842 -0.1204  0.6646
24129SOL     OW73487   8.194   7.506   2.139 -0.1782 -0.4541  0.2529
24129SOL    HW173488   8.154   7.571   2.197 -0.3896  0.1555 -0.5554
24129SOL    HW273489   8.287   7.526   2.142 -0.3382  0.4815 -0.6968
24130SOL     OW73490   8.544   5.807   1.398  0.5890  0.2347 -0.4364
24130SOL    HW173491   8.493   5.731   1.428  1.7910 -0.3063  0.2966
24130SOL    HW273492   8.498   5.882   1.437 -0.2394 -0.1440 -0.6444
24131SOL     OW73493   3.961   4.718   4.405  0.5475 -0.0957 -0.0234
24131SOL    HW173494   3.950   4.675   4.490  1.9592  1.6016  1.1080
24131SOL    HW273495   3.912   4.800   4.414  2.4672  1.1181  0.0337
24132SOL     OW73496   8.526   8.803   3.875  0.1439  0.1832  0.3567
24132SOL    HW173497   8.511   8.880   3.820 -1.1977 -0.0633  0.3353
24132SOL    HW273498   8.440   8.761   3.881  1.1370 -2.2337 -0.9896
24133SOL     OW73499   7.539   4.778   6.852 -0.3958 -0.0261  0.0007
24133SOL    HW173500   7.485   4.838   6.801 -0.7879 -0.8481 -0.5730
24133SOL    HW273501   7.579   4.833   6.920  0.3531  1.1639 -1.3368
24134SOL     OW73502   3.241   1.880   3.545  0.7122 -0.5140  0.7137
24134SOL    HW173503   3.243   1.922   3.630  0.7136  0.4416  0.2563
24134SOL    HW273504   3.156   1.906   3.508  1.5344  0.7661 -0.3791
24135SOL     OW73505   1.393   0.503   4.635 -0.1565 -0.9527  0.2232
24135SOL    HW173506   1.313   0.486   4.684 -0.4293 -0.8654 -0.1880
24135SOL    HW273507   1.455   0.535   4.701 -0.9758  0.6380  0.2654
24136SOL     OW73508   1.962   8.873   8.394  0.6330  0.1910 -0.4492
24136SOL    HW173509   1.972   8.949   8.336  0.1053  0.5156 -0.1207
24136SOL    HW273510   2.027   8.886   8.462 -0.2908  1.0154  0.3083
24137SOL     OW73511   1.641   0.502   5.545 -0.1974  0.3212  0.0934
24137SOL    HW173512   1.583   0.578   5.541  0.3702  0.7264 -0.9790
24137SOL    HW273513   1.627   0.457   5.462 -0.7058 -0.9003  0.8225
24138SOL     OW73514   6.957   7.905   4.354  0.0410  0.3156  0.2568
24138SOL    HW173515   7.010   7.840   4.308  0.1308  0.1338  0.6140
24138SOL    HW273516   7.019   7.974   4.378  0.2572 -0.1983  1.2446
24139SOL     OW73517   1.185   8.885   4.773  0.3488 -0.0492  0.1185
24139SOL    HW173518   1.098   8.847   4.785 -0.2313  0.4959 -1.8700
24139SOL    HW273519   1.241   8.812   4.749  0.1148 -0.2075  0.0565
24140SOL     OW73520   8.079   3.299   1.075  0.2186 -0.1626 -0.0345
24140SOL    HW173521   7.989   3.303   1.110  0.4650 -0.4389  0.6476
24140SOL    HW273522   8.069   3.258   0.989 -0.2555 -0.7136  0.2707
24141SOL     OW73523   7.119   2.570   4.571 -0.7921  0.0184 -0.6639
24141SOL    HW173524   7.121   2.666   4.567  0.8234  0.0200 -0.3596
24141SOL    HW273525   7.184   2.542   4.507 -1.8439 -0.9173 -1.3582
24142SOL     OW73526   3.457   8.141   2.312 -0.2977  0.8524  0.8262
24142SOL    HW173527   3.432   8.203   2.244 -2.7876  0.9145  1.7175
24142SOL    HW273528   3.437   8.055   2.275  1.9548  0.5537  0.0932
24143SOL     OW73529   3.066   5.935   5.858 -0.2258 -0.1117  0.8268
24143SOL    HW173530   3.088   5.890   5.777 -2.6904 -0.4548  0.2869
24143SOL    HW273531   3.013   5.873   5.907 -1.1121  1.0746  1.4285
24144SOL     OW73532   2.279   3.352   6.238 -0.0356  0.3692 -0.3176
24144SOL    HW173533   2.247   3.331   6.325 -0.6732  1.2490 -0.3284
24144SOL    HW273534   2.200   3.362   6.185  0.2965  1.0997 -0.6899
24145SOL     OW73535   0.599   7.675   8.455  0.8746  0.2742  0.1105
24145SOL    HW173536   0.680   7.626   8.440  1.6114  2.1183 -2.8523
24145SOL    HW273537   0.621   7.736   8.525  1.6909  0.0014  0.1064
24146SOL     OW73538   1.536   3.907   5.761 -0.3460  0.5021  0.7882
24146SOL    HW173539   1.541   4.002   5.766 -1.0437  0.6445 -0.6428
24146SOL    HW273540   1.627   3.877   5.760 -0.0434  1.3550 -1.4105
24147SOL     OW73541   8.666   1.840   7.725  0.1208 -0.4699 -0.3667
24147SOL    HW173542   8.751   1.883   7.718 -0.9772  1.7204 -0.9658
24147SOL    HW273543   8.685   1.758   7.771  2.3414  0.5410  0.6830
24148SOL     OW73544   7.533   7.047   0.587 -0.2955  0.0159 -0.0138
24148SOL    HW173545   7.560   6.956   0.585 -1.4492 -0.3342 -0.9289
24148SOL    HW273546   7.514   7.069   0.496  0.5559  1.3637  0.1115
24149SOL     OW73547   6.168   5.050   4.874  0.4398 -0.1438  0.6002
24149SOL    HW173548   6.085   5.088   4.900  0.9648  2.0369 -0.6735
24149SOL    HW273549   6.167   5.051   4.778  1.9990  0.1821  0.5472
24150SOL     OW73550   1.408   7.521   6.212  0.4051 -0.3349 -0.0500
24150SOL    HW173551   1.454   7.603   6.229 -0.3019 -0.1558  1.1661
24150SOL    HW273552   1.429   7.499   6.122  0.6758  1.1424 -0.3637
24151SOL     OW73553   7.989   0.478   6.311  1.0181  0.3214 -0.1789
24151SOL    HW173554   8.039   0.416   6.258  0.9872  0.2151 -0.0830
24151SOL    HW273555   7.900   0.443   6.312  1.4831 -0.9962  1.9380
24152SOL     OW73556   8.355   7.648   4.934  0.4882  0.4420  0.8151
24152SOL    HW173557   8.443   7.655   4.971  1.9323 -0.6072 -2.0970
24152SOL    HW273558   8.361   7.692   4.849 -1.0814 -1.6730 -0.5057
24153SOL     OW73559   6.983   6.956   8.187 -0.2405 -0.1333  0.3546
24153SOL    HW173560   7.019   6.871   8.160 -0.6894 -0.4651  0.7770
24153SOL    HW273561   6.951   6.941   8.276 -3.5427 -0.5073 -0.7729
24154SOL     OW73562   0.372   5.895   6.505 -0.7698  0.4105  0.5846
24154SOL    HW173563   0.345   5.978   6.466 -0.9846  0.4511  0.8205
24154SOL    HW273564   0.293   5.841   6.503 -1.6846  1.4285  3.7291
24155SOL     OW73565   1.159   5.545   7.577 -0.0513 -0.1314  0.2299
24155SOL    HW173566   1.101   5.600   7.629  0.5858  0.0584  0.7521
24155SOL    HW273567   1.114   5.460   7.572 -0.9737  0.3775 -0.4744
24156SOL     OW73568   2.288   1.932   2.198  0.1694  0.7016  0.4997
24156SOL    HW173569   2.382   1.950   2.210  0.0660  0.4804  1.7965
24156SOL    HW273570   2.281   1.837   2.200 -0.1110  0.7229  0.5748
24157SOL     OW73571   6.816   4.663   2.344 -0.5949  0.0861  0.6985
24157SOL    HW173572   6.903   4.699   2.361 -0.4756 -1.5742  4.6390
24157SOL    HW273573   6.756   4.729   2.378 -0.6127 -0.7664  2.3994
24158SOL     OW73574   1.217   6.752   6.715  0.1215  0.0400 -0.3653
24158SOL    HW173575   1.227   6.763   6.809  1.7881 -1.3839 -0.3341
24158SOL    HW273576   1.123   6.742   6.701 -0.2107  0.9309  1.0363
24159SOL     OW73577   1.397   5.909   1.306 -0.1497 -0.7395 -0.0971
24159SOL    HW173578   1.411   5.975   1.239  0.0665 -1.0040 -0.3148
24159SOL    HW273579   1.483   5.893   1.344 -0.6879  1.7243  2.4839
24160SOL     OW73580   6.149   3.031   3.174  0.4574 -0.0536  0.7449
24160SOL    HW173581   6.073   3.079   3.142 -0.6840 -1.0683  1.8084
24160SOL    HW273582   6.189   2.993   3.095 -1.1122 -0.8406  0.2906
24161SOL     OW73583   7.392   8.019   4.149 -0.0152 -0.0017 -0.2041
24161SOL    HW173584   7.370   8.036   4.241 -2.5584 -0.5663 -0.6363
24161SOL    HW273585   7.402   8.106   4.111 -0.3150  0.2689  0.3137
24162SOL     OW73586   1.797   5.151   4.250  0.2781  0.4206 -0.0086
24162SOL    HW173587   1.821   5.115   4.336 -0.4778  0.1017  0.0775
24162SOL    HW273588   1.779   5.244   4.267 -2.6409 -0.1949  0.7778
24163SOL     OW73589   0.395   6.289   1.473 -0.2034 -0.2550 -0.1370
24163SOL    HW173590   0.395   6.284   1.569  0.7077 -2.3689 -0.1811
24163SOL    HW273591   0.353   6.208   1.445  2.5395 -1.3339 -1.4827
24164SOL     OW73592   9.093   4.400   6.341  0.7092 -0.5593 -0.1189
24164SOL    HW173593   9.014   4.411   6.288  0.2495  0.0215  0.6780
24164SOL    HW273594   9.065   4.350   6.417  1.0841 -0.2391  0.2328
24165SOL     OW73595   8.174   8.382   6.513  0.6764  0.1412 -0.3659
24165SOL    HW173596   8.092   8.416   6.476  0.6425  1.0366  0.4949
24165SOL    HW273597   8.158   8.377   6.607  1.5122  0.0486 -0.2181
24166SOL     OW73598   8.879   0.009   5.161 -0.6375 -0.3068  0.0188
24166SOL    HW173599   8.823  -0.052   5.208 -1.6423 -0.3472 -1.1815
24166SOL    HW273600   8.904  -0.037   5.081 -0.2576  0.3395 -0.2485
24167SOL     OW73601   4.647   2.734   2.317 -0.2253 -0.2058  0.0240
24167SOL    HW173602   4.723   2.753   2.372  0.4642 -1.0028 -0.6212
24167SOL    HW273603   4.679   2.744   2.228 -0.8441 -0.7019 -0.2585
24168SOL     OW73604   4.139   1.716   3.717  0.1128  0.1044 -0.3869
24168SOL    HW173605   4.092   1.798   3.731  0.0323  0.3656 -2.0152
24168SOL    HW273606   4.229   1.743   3.696 -0.1383 -0.1425 -1.8878
24169SOL     OW73607   0.841   6.479   0.819  0.0133 -0.2078  0.1951
24169SOL    HW173608   0.758   6.457   0.860 -0.5527  0.1376 -0.7486
24169SOL    HW273609   0.818   6.537   0.747  1.0488 -0.3083 -0.2335
24170SOL     OW73610   4.213   8.272   6.777  0.2388  0.5951  0.1643
24170SOL    HW173611   4.120   8.247   6.776  0.0789  1.0378  1.4082
24170SOL    HW273612   4.256   8.201   6.825  0.5491  0.4001 -0.3960
24171SOL     OW73613   0.514   5.215   0.420  0.1111 -0.2605  0.1438
24171SOL    HW173614   0.505   5.121   0.435  1.6997 -0.4578  0.1078
24171SOL    HW273615   0.584   5.243   0.479 -1.4744  1.2679  1.3974
24172SOL     OW73616   8.737   8.002   6.181 -0.2830  0.0245  0.0005
24172SOL    HW173617   8.662   8.053   6.150 -0.7495 -0.5002  0.2396
24172SOL    HW273618   8.812   8.060   6.171 -0.7618  0.6447 -0.0148
24173SOL     OW73619   0.006   0.220   6.223  0.3396 -0.6563  0.2745
24173SOL    HW173620  -0.021   0.280   6.293 -1.0479 -0.3039 -0.5469
24173SOL    HW273621  -0.009   0.269   6.142 -0.1869 -1.8695 -0.3816
24174SOL     OW73622   2.614   2.670   2.600 -0.0007  0.4700 -0.9067
24174SOL    HW173623   2.690   2.726   2.584 -1.2462  2.5401  0.0060
24174SOL    HW273624   2.541   2.731   2.612 -0.9570 -1.1239  2.8647
24175SOL     OW73625   0.825   0.155   5.943 -0.7091 -0.2130  0.9091
24175SOL    HW173626   0.873   0.226   5.986 -1.6315  0.1152  1.4337
24175SOL    HW273627   0.849   0.077   5.992  1.8587 -0.6646 -0.8790
24176SOL     OW73628   1.045   6.784   2.528 -0.3325  0.1203 -0.3681
24176SOL    HW173629   1.014   6.811   2.614 -0.1898  0.1537 -0.3278
24176SOL    HW273630   1.139   6.804   2.528 -0.6341  1.7329 -1.1345
24177SOL     OW73631   5.923   0.788   6.101  0.1831 -0.0243  0.2769
24177SOL    HW173632   5.918   0.826   6.013 -1.0999  1.2306  0.8649
24177SOL    HW273633   5.837   0.803   6.139  0.5773 -0.9467  1.6122
24178SOL     OW73634   8.272   7.063   4.825 -0.5196  0.2414 -0.4034
24178SOL    HW173635   8.286   7.013   4.745  0.1327 -0.7511  0.3052
24178SOL    HW273636   8.252   7.152   4.795  1.3432  0.2957 -1.6411
24179SOL     OW73637   8.273   5.543   3.891  0.3915  0.0241 -0.0352
24179SOL    HW173638   8.206   5.611   3.885  0.1838 -0.1971 -0.2257
24179SOL    HW273639   8.225   5.461   3.878  0.8987 -0.0621 -1.4410
24180SOL     OW73640   0.275   6.714   1.016 -0.0050 -0.3012  0.0152
24180SOL    HW173641   0.252   6.723   0.924  0.5784  0.1707 -0.0859
24180SOL    HW273642   0.313   6.799   1.040  0.1627 -0.5370  0.6026
24181SOL     OW73643   5.193   0.951   0.719  0.3461  0.0186 -0.0894
24181SOL    HW173644   5.234   1.030   0.755  0.5724  0.1814 -0.6850
24181SOL    HW273645   5.191   0.889   0.792  4.6169 -1.1812 -0.7318
24182SOL     OW73646   8.042   7.163   1.709  0.3344 -0.1905  0.6845
24182SOL    HW173647   8.021   7.227   1.641  1.4062 -0.9176 -0.3752
24182SOL    HW273648   8.048   7.215   1.789 -1.7811  0.5664  0.4181
24183SOL     OW73649   9.112   3.546   5.226 -0.0248  0.3852 -0.5790
24183SOL    HW173650   9.043   3.497   5.270 -0.1025 -0.9395 -2.0868
24183SOL    HW273651   9.185   3.544   5.287 -0.1328 -1.3997 -0.4462
24184SOL     OW73652   2.997   8.488   2.092  0.2450 -0.0081  0.3938
24184SOL    HW173653   3.060   8.445   2.034  0.3822  0.1508  0.4257
24184SOL    HW273654   2.945   8.543   2.033  1.7559  1.8066  0.6850
24185SOL     OW73655   1.098   5.128   6.778  0.3647 -0.7205 -0.4442
24185SOL    HW173656   1.180   5.174   6.767  0.8723 -1.5716 -0.3475
24185SOL    HW273657   1.101   5.094   6.868 -1.8427  2.5336  1.0688
24186SOL     OW73658   1.607   5.252   3.691 -0.0255 -0.6599 -0.0914
24186SOL    HW173659   1.635   5.219   3.777  0.5624  0.3082  0.1059
24186SOL    HW273660   1.663   5.327   3.675 -1.6937  0.5996 -0.2574
24187SOL     OW73661   2.558   5.814   6.123 -0.1790 -0.0458 -0.0377
24187SOL    HW173662   2.571   5.908   6.124  0.4450 -0.1204 -0.2291
24187SOL    HW273663   2.571   5.789   6.031  0.5460 -0.4231  0.1533
24188SOL     OW73664   0.199   1.012   3.234  0.3394 -0.8316 -0.7899
24188SOL    HW173665   0.171   1.079   3.171  0.0853 -1.3384 -1.2229
24188SOL    HW273666   0.150   0.934   3.210  0.5008 -1.1312 -0.1759
24189SOL     OW73667   3.106   7.991   6.394  0.3589 -0.1883  0.7061
24189SOL    HW173668   3.171   7.964   6.460  2.2970  2.9786  0.2871
24189SOL    HW273669   3.048   8.050   6.441 -0.4614 -0.6969  0.3518
24190SOL     OW73670   3.224   5.600   8.053  0.4835 -1.0864  0.5626
24190SOL    HW173671   3.294   5.537   8.041  0.3884 -1.5041  1.9799
24190SOL    HW273672   3.193   5.620   7.965  2.5023 -0.7328 -0.1142
24191SOL     OW73673   3.454   4.147   1.091 -0.0044 -0.0023 -0.3724
24191SOL    HW173674   3.451   4.243   1.087 -0.8624 -0.0258 -0.6113
24191SOL    HW273675   3.526   4.127   1.150  0.3137  0.7921 -0.4869
24192SOL     OW73676   1.119   9.046   5.760  0.1402  0.0018 -0.0425
24192SOL    HW173677   1.109   9.114   5.827  2.4607  0.4131 -0.0338
24192SOL    HW273678   1.181   8.984   5.797 -0.0209 -0.7941 -1.0475
24193SOL     OW73679   8.723   4.650   8.038 -0.8511  0.1792  0.5006
24193SOL    HW173680   8.677   4.727   8.071 -0.5383  0.0287  1.3031
24193SOL    HW273681   8.753   4.676   7.951 -2.6649  0.1889 -0.1583
24194SOL     OW73682   8.373   8.867   7.355 -0.0916 -0.9283 -0.1437
24194SOL    HW173683   8.456   8.883   7.399 -0.9106 -0.5717  1.3128
24194SOL    HW273684   8.359   8.773   7.362 -0.6621 -0.7616  1.2268
24195SOL     OW73685   0.433   1.917   1.151 -0.7346  0.2382  0.8593
24195SOL    HW173686   0.508   1.977   1.150 -1.0638  0.6453  0.2032
24195SOL    HW273687   0.365   1.964   1.103 -0.9720 -0.7050  0.2607
24196SOL     OW73688   6.421   5.948   3.634  0.3768  0.1662 -0.1691
24196SOL    HW173689   6.378   5.863   3.642  0.5463  0.2488  2.4781
24196SOL    HW273690   6.355   6.011   3.662  1.3879  0.5089  1.5942
24197SOL     OW73691   0.539   0.018   8.855  0.1395 -0.2877  0.0104
24197SOL    HW173692   0.457   0.046   8.897 -0.1870  0.9651 -1.3936
24197SOL    HW273693   0.517   0.009   8.763  1.8075  1.1430 -0.5812
24198SOL     OW73694   8.200   6.346   3.213  0.0465  0.2545  0.5213
24198SOL    HW173695   8.112   6.374   3.240 -0.9452 -0.9569 -1.2467
24198SOL    HW273696   8.206   6.255   3.242 -0.5819 -0.6888 -2.0712
24199SOL     OW73697   6.833   5.314   4.493  0.2328  0.1263  0.1397
24199SOL    HW173698   6.865   5.261   4.566  0.1914  0.3319  0.3057
24199SOL    HW273699   6.910   5.325   4.437  0.3705  0.3389  0.3710
24200SOL     OW73700   0.788   5.809   8.042  0.2925  0.3060  0.1182
24200SOL    HW173701   0.763   5.767   8.124  1.5610 -2.9543 -0.9894
24200SOL    HW273702   0.830   5.891   8.068 -0.5269  0.0061  2.6070
24201SOL     OW73703   6.724   0.103   5.027 -0.6794 -0.1107 -0.5876
24201SOL    HW173704   6.747   0.181   5.076 -1.2416  0.4679 -1.2136
24201SOL    HW273705   6.634   0.119   4.998 -0.6301 -0.7780 -1.1310
24202SOL     OW73706   3.913   6.363   0.973 -0.3705 -0.4485  0.2949
24202SOL    HW173707   3.905   6.412   1.055  0.9030 -0.0008  0.1686
24202SOL    HW273708   3.940   6.276   1.000  3.0842  0.4836  0.2697
24203SOL     OW73709   1.787   5.022   6.451  0.5449 -0.2194  0.2931
24203SOL    HW173710   1.850   5.073   6.502  0.9341 -1.3067  0.9544
24203SOL    HW273711   1.830   5.008   6.367  0.8748 -0.3171  0.4752
24204SOL     OW73712   3.067   4.562   8.491 -0.0884 -0.3962 -0.8322
24204SOL    HW173713   3.114   4.642   8.468  0.6499 -0.3588  0.6750
24204SOL    HW273714   3.116   4.492   8.447  0.5367 -0.2161 -0.4340
24205SOL     OW73715   4.240   0.356   7.006 -0.6171  0.5490 -0.0837
24205SOL    HW173716   4.176   0.284   7.015 -0.6973  0.8185  1.9739
24205SOL    HW273717   4.324   0.315   7.024 -0.6974  0.9996  1.4217
24206SOL     OW73718   1.575   4.668   6.029 -0.2212 -0.1015  0.4475
24206SOL    HW173719   1.550   4.576   6.018  2.0780 -1.0943  2.5764
24206SOL    HW273720   1.503   4.707   6.078 -0.5216 -1.2043  0.9120
24207SOL     OW73721   2.096   0.672   2.076  0.4760 -0.6739  0.2326
24207SOL    HW173722   2.075   0.589   2.118 -3.6670  0.5453  0.9913
24207SOL    HW273723   2.066   0.662   1.986  0.6660 -0.2143  0.1152
24208SOL     OW73724   8.853   4.848   6.257  0.0425 -0.1516  0.2934
24208SOL    HW173725   8.860   4.753   6.245 -2.1509 -0.5531  1.6783
24208SOL    HW273726   8.808   4.879   6.178 -1.4938 -0.6819  0.9176
24209SOL     OW73727   7.182   5.945   0.428 -0.4735  0.9619  0.2397
24209SOL    HW173728   7.166   5.988   0.345  0.2660 -1.2898 -1.1715
24209SOL    HW273729   7.222   5.861   0.404 -0.3147  0.1934  2.8631
24210SOL     OW73730   3.930   2.886   2.256  0.2613 -0.1480 -0.2626
24210SOL    HW173731   3.948   2.810   2.200 -0.0863  0.4319 -1.1813
24210SOL    HW273732   3.835   2.894   2.256  0.2856  0.1441  0.0249
24211SOL     OW73733   8.886   5.131   3.103 -0.0858 -0.2890  0.3976
24211SOL    HW173734   8.830   5.053   3.106  0.3731 -0.6136  0.6479
24211SOL    HW273735   8.884   5.166   3.192 -0.4914  0.1374  0.2276
24212SOL     OW73736   8.722   2.992   5.279  0.4096  0.6516 -0.1905
24212SOL    HW173737   8.707   2.968   5.370 -1.2863  0.3166 -0.5234
24212SOL    HW273738   8.804   2.950   5.256 -1.0862 -2.6714  0.0332
24213SOL     OW73739   6.965   0.930   9.026  0.2358 -0.1903 -0.0172
24213SOL    HW173740   6.879   0.950   8.989  0.9576 -1.0315 -2.3280
24213SOL    HW273741   6.996   1.013   9.060 -0.6145  0.6251 -1.1341
24214SOL     OW73742   1.002   7.494   7.761 -0.0169 -0.0824  0.1907
24214SOL    HW173743   1.024   7.440   7.685  0.2713 -1.1657  1.0192
24214SOL    HW273744   0.908   7.509   7.753 -0.1133 -0.7759 -0.0213
24215SOL     OW73745   8.288   4.105   5.546 -0.4367  0.3736 -0.5295
24215SOL    HW173746   8.199   4.118   5.576 -0.0790  4.3088 -0.5966
24215SOL    HW273747   8.282   4.110   5.450 -0.0907  2.1062 -0.5020
24216SOL     OW73748   4.476   7.426   7.081 -0.1700 -0.0092 -0.1431
24216SOL    HW173749   4.503   7.515   7.058  1.9615 -1.0576 -2.1173
24216SOL    HW273750   4.463   7.429   7.176 -1.1479  2.5992 -0.2708
24217SOL     OW73751   9.058   2.956   1.940  0.3106 -0.4021 -0.3995
24217SOL    HW173752   8.985   2.895   1.949 -0.0753  0.0056 -0.7161
24217SOL    HW273753   9.018   3.043   1.945  0.8983 -0.1650  0.4054
24218SOL     OW73754   4.555   6.309   2.667  0.2474 -0.1898 -0.3104
24218SOL    HW173755   4.460   6.310   2.653  0.0457  0.4631  0.9220
24218SOL    HW273756   4.584   6.395   2.637  0.0898  0.4774  1.3311
24219SOL     OW73757   2.323   6.519   7.693  0.4474 -0.0928  0.5675
24219SOL    HW173758   2.249   6.525   7.753 -1.2932 -0.0558 -1.4486
24219SOL    HW273759   2.311   6.592   7.632 -0.5186 -2.5407 -2.4926
24220SOL     OW73760   7.566   3.095   6.206  0.2229 -0.5589  0.7505
24220SOL    HW173761   7.545   3.003   6.226  2.2418 -1.0406  0.8643
24220SOL    HW273762   7.510   3.146   6.264 -1.0726 -1.7097  0.5491
24221SOL     OW73763   0.644   7.980   6.991 -0.1411 -0.1184 -0.4604
24221SOL    HW173764   0.734   7.966   7.021  0.3435 -0.6313 -2.0535
24221SOL    HW273765   0.648   8.064   6.945 -0.8073  0.5144  0.5854
24222SOL     OW73766   3.642   4.593   8.603  0.9034 -0.1122 -0.0164
24222SOL    HW173767   3.604   4.579   8.517  2.8785 -0.8482 -0.8156
24222SOL    HW273768   3.703   4.666   8.591  0.1222  0.7650  1.1229
24223SOL     OW73769   7.992   5.172   5.704  0.2735  0.6602  0.7117
24223SOL    HW173770   8.017   5.134   5.619  0.7644  0.6019  0.8759
24223SOL    HW273771   7.922   5.234   5.683  0.4143  0.6712  0.2576
24224SOL     OW73772   1.930   5.090   8.976  0.0252  0.2060 -0.0535
24224SOL    HW173773   1.929   5.133   8.891 -0.5857 -0.6204 -0.4792
24224SOL    HW273774   2.018   5.053   8.983 -0.2534 -0.6344 -0.8103
24225SOL     OW73775   4.639   6.141   5.271 -0.3246  0.5036  0.2565
24225SOL    HW173776   4.659   6.151   5.178 -1.4124  1.2767  0.0829
24225SOL    HW273777   4.620   6.230   5.301  1.4342  0.4774  1.5841
24226SOL     OW73778   7.754   3.287   8.452 -0.0469  0.5616 -0.2619
24226SOL    HW173779   7.738   3.279   8.546  1.1168 -0.2173 -0.1139
24226SOL    HW273780   7.766   3.381   8.438  1.1884  0.5639  0.6357
24227SOL     OW73781   0.684   4.033   5.755 -0.1933  0.6567  0.2755
24227SOL    HW173782   0.623   4.036   5.829  1.0770  0.8486  1.3510
24227SOL    HW273783   0.679   4.121   5.716 -1.8452  0.1566 -0.7181
24228SOL     OW73784   6.036   6.015   5.487  0.0325 -0.2914 -0.1300
24228SOL    HW173785   5.980   5.998   5.412 -0.9483 -0.6761  0.6665
24228SOL    HW273786   6.077   5.931   5.507 -0.0910 -0.3067  0.0654
24229SOL     OW73787   5.381   6.385   6.307  0.4751  0.0744 -0.2900
24229SOL    HW173788   5.304   6.407   6.255  0.4399 -0.7493 -0.5981
24229SOL    HW273789   5.415   6.470   6.336  0.6086  0.5757 -1.8165
24230SOL     OW73790   7.816   8.067   1.156 -0.1996  0.1823 -0.4473
24230SOL    HW173791   7.772   8.151   1.138 -1.0627 -0.0061  0.6576
24230SOL    HW273792   7.751   8.017   1.206  0.9379 -0.4821  0.4080
24231SOL     OW73793   0.626   2.818   3.006 -0.0361  0.1465  0.3197
24231SOL    HW173794   0.537   2.814   3.042 -0.0174  1.5562  0.6055
24231SOL    HW273795   0.643   2.912   2.997 -0.1615 -0.0404 -3.6597
24232SOL     OW73796   1.397   7.306   4.030  0.0005  0.2076  0.1646
24232SOL    HW173797   1.400   7.387   3.979  1.2824 -0.1912 -0.4348
24232SOL    HW273798   1.474   7.309   4.086 -0.5878 -0.0626  1.0118
24233SOL     OW73799   8.434   0.870   1.980 -0.1764 -0.1834  0.3790
24233SOL    HW173800   8.477   0.867   2.065  0.7245  1.2055  0.0074
24233SOL    HW273801   8.502   0.845   1.917 -0.5028 -0.0536 -0.0300
24234SOL     OW73802   2.879   7.767   1.136  0.2762  0.3904 -0.3889
24234SOL    HW173803   2.807   7.799   1.083 -0.5109 -0.3948  0.1703
24234SOL    HW273804   2.908   7.687   1.092 -0.4027 -0.2828  0.3609
24235SOL     OW73805   1.390   0.461   2.965  0.3043  0.5661 -0.3866
24235SOL    HW173806   1.483   0.461   2.988  0.4846  2.6373 -0.9835
24235SOL    HW273807   1.378   0.377   2.919  2.2197  0.8764 -1.5812
24236SOL     OW73808   5.869   8.524   2.198  0.2751  0.0673  0.2695
24236SOL    HW173809   5.850   8.523   2.105 -1.7443 -1.2517  0.6217
24236SOL    HW273810   5.813   8.593   2.233 -0.9129 -1.1402  0.8118
24237SOL     OW73811   3.565   2.957   3.491  0.2007 -0.6641 -0.0223
24237SOL    HW173812   3.577   3.051   3.484  0.6940 -0.5329  1.8499
24237SOL    HW273813   3.649   2.919   3.467 -0.2439 -0.7116 -1.6036
24238SOL     OW73814   2.841   0.702   7.487 -0.0093  0.2968  0.1948
24238SOL    HW173815   2.882   0.775   7.441  0.3057 -0.8274 -1.3859
24238SOL    HW273816   2.835   0.633   7.421  1.9138 -1.9790  2.2188
24239SOL     OW73817   0.941   3.140   0.350  0.1163 -0.3870  0.5886
24239SOL    HW173818   0.948   3.045   0.340 -0.6649 -0.3006 -1.1754
24239SOL    HW273819   1.015   3.163   0.407 -0.0910 -2.1066  1.6444
24240SOL     OW73820   6.221   1.920   2.319 -0.4873  0.1562 -0.0804
24240SOL    HW173821   6.171   2.000   2.310 -0.2055  0.2228 -1.2515
24240SOL    HW273822   6.312   1.949   2.329 -0.4662  0.0060  0.1606
24241SOL     OW73823   0.702   0.317   7.244 -0.0939  0.6049 -0.0093
24241SOL    HW173824   0.622   0.299   7.294  0.8059 -0.0292  1.2510
24241SOL    HW273825   0.740   0.231   7.228  0.7492  0.9495  0.1069
24242SOL     OW73826   4.622   6.668   1.560  0.2810  0.3926 -0.5286
24242SOL    HW173827   4.688   6.699   1.622 -0.7216  1.2055  0.1647
24242SOL    HW273828   4.655   6.694   1.474  0.6800  1.1310 -0.1567
24243SOL     OW73829   0.961   4.287   6.420 -0.4908  0.3676 -0.7483
24243SOL    HW173830   1.034   4.242   6.463 -1.1335  0.6892  0.7208
24243SOL    HW273831   0.957   4.373   6.462 -0.5177  1.0926 -2.1639
24244SOL     OW73832   2.038   4.784   9.103 -0.4236 -0.3202 -0.2445
24244SOL    HW173833   2.076   4.709   9.056 -0.8158 -0.1640 -0.8157
24244SOL    HW273834   2.098   4.856   9.083  0.1712 -0.5563  0.6215
24245SOL     OW73835   4.221   4.566   3.209  0.3046  0.4358 -0.3836
24245SOL    HW173836   4.142   4.515   3.191  1.2101 -0.8223 -0.9314
24245SOL    HW273837   4.215   4.588   3.302  0.6871 -2.1798  0.3328
24246SOL     OW73838   7.379   8.879   7.582  0.5475 -0.4598 -0.1347
24246SOL    HW173839   7.443   8.852   7.517  1.4343  1.6910 -0.2284
24246SOL    HW273840   7.382   8.975   7.581 -1.4870 -0.3230  1.0425
24247SOL     OW73841   8.933   8.543   0.134 -0.3431 -0.2970 -0.0340
24247SOL    HW173842   8.974   8.477   0.079 -0.4602 -0.3418 -0.0679
24247SOL    HW273843   8.994   8.555   0.207  0.4635  0.7509 -0.8558
24248SOL     OW73844   4.376   4.641   7.743 -0.2820 -0.1094  0.1083
24248SOL    HW173845   4.439   4.608   7.679 -0.4516  1.7724 -1.0705
24248SOL    HW273846   4.430   4.686   7.808 -0.2196 -0.8953  0.6176
24249SOL     OW73847   3.208   5.194   3.376 -0.7356  0.3268 -0.2880
24249SOL    HW173848   3.202   5.187   3.471 -2.9984 -0.5595 -0.4308
24249SOL    HW273849   3.212   5.288   3.358  2.5516  0.5038  0.7151
24250SOL     OW73850   5.413   8.575   3.996 -0.3231  0.3669 -0.1579
24250SOL    HW173851   5.444   8.642   4.057 -0.1440 -1.6137  2.0736
24250SOL    HW273852   5.360   8.516   4.050 -0.9039 -1.0145 -2.1292
24251SOL     OW73853   8.381   2.499   2.645 -0.2244  0.2626 -0.9080
24251SOL    HW173854   8.434   2.420   2.634 -0.4788  0.1744 -1.5319
24251SOL    HW273855   8.416   2.540   2.724 -1.2846 -1.4282  0.4986
24252SOL     OW73856   1.119   5.999   7.308  0.5706 -0.1639  0.2540
24252SOL    HW173857   1.208   6.031   7.292  0.8993 -1.7438 -1.4232
24252SOL    HW273858   1.072   6.076   7.339  2.5978  0.6243  1.6473
24253SOL     OW73859   9.063   1.452   7.599  0.6051  0.1401  0.1304
24253SOL    HW173860   8.993   1.399   7.561  0.9237  1.0528 -1.8978
24253SOL    HW273861   9.038   1.463   7.691 -0.8104 -1.2851 -0.0368
24254SOL     OW73862   5.882   3.287   1.612  0.3928  0.6763 -0.2482
24254SOL    HW173863   5.788   3.281   1.629  0.8196 -1.3865  1.8272
24254SOL    HW273864   5.916   3.200   1.631  2.2549  0.1425 -4.8569
24255SOL     OW73865   5.069   3.968   4.492 -0.0898  0.6612 -0.3941
24255SOL    HW173866   5.123   3.918   4.553 -0.0322  0.8040 -0.3274
24255SOL    HW273867   5.071   3.917   4.411 -0.3970  0.3268 -0.1921
24256SOL     OW73868   8.098   4.253   2.663 -0.2930 -0.2389 -0.1843
24256SOL    HW173869   8.101   4.168   2.706 -0.4410  1.5933  3.9409
24256SOL    HW273870   8.007   4.282   2.673 -0.4252  0.1611 -2.1882
24257SOL     OW73871   5.857   5.417   8.051  0.5212 -0.2688 -0.6228
24257SOL    HW173872   5.890   5.352   7.990  3.5912 -0.7243  1.3045
24257SOL    HW273873   5.864   5.500   8.004  2.3711 -0.6527 -1.0921
24258SOL     OW73874   2.776   3.556   1.730  0.4588 -0.0996 -0.2222
24258SOL    HW173875   2.716   3.573   1.657  0.7003 -0.4951 -0.5145
24258SOL    HW273876   2.736   3.484   1.778  0.0147  0.5183  0.3681
24259SOL     OW73877   1.986   1.377   4.603  0.8485 -0.0053  0.3230
24259SOL    HW173878   2.080   1.388   4.617  1.3975 -2.2481 -1.0490
24259SOL    HW273879   1.959   1.456   4.556  2.0571  0.6474  0.6865
24260SOL     OW73880   8.938   2.538   3.933  0.5027  0.0682  0.4202
24260SOL    HW173881   9.024   2.569   3.964  0.6869 -0.8707  0.8708
24260SOL    HW273882   8.877   2.605   3.964  1.0038  0.4910  0.5294
24261SOL     OW73883   6.122   5.237   5.308 -0.5326  0.6901 -0.0462
24261SOL    HW173884   6.162   5.305   5.363  0.6918  0.0869 -0.1702
24261SOL    HW273885   6.126   5.273   5.219  1.1008  0.0537 -0.2688
24262SOL     OW73886   3.357   3.299   1.198 -0.2353  0.3183  0.1484
24262SOL    HW173887   3.297   3.267   1.130  0.2800  0.6404 -0.4740
24262SOL    HW273888   3.433   3.242   1.190  1.0325  2.1256 -1.5207
24263SOL     OW73889   3.623   8.983   4.634  0.1112  0.3518 -0.4134
24263SOL    HW173890   3.656   8.957   4.548  0.9259 -2.3183  0.6025
24263SOL    HW273891   3.528   8.981   4.626  0.1515 -1.5266 -0.8868
24264SOL     OW73892   1.059   2.146   8.242 -0.1114 -0.4655  0.2282
24264SOL    HW173893   1.001   2.085   8.196  1.7420 -2.3396  0.2306
24264SOL    HW273894   1.113   2.184   8.173 -0.4104  0.2640  0.3816
24265SOL     OW73895   0.526   7.337   7.530  0.2967 -0.4585  0.3547
24265SOL    HW173896   0.499   7.248   7.553  0.4390 -0.8401 -0.8784
24265SOL    HW273897   0.458   7.369   7.471  0.6481 -0.0471  0.1587
24266SOL     OW73898   0.368   3.582   2.585 -0.1250  0.2952  0.0909
24266SOL    HW173899   0.278   3.552   2.575 -0.0225  0.1359 -0.4095
24266SOL    HW273900   0.363   3.677   2.579 -0.2095  0.2639 -0.4001
24267SOL     OW73901   3.556   3.435   7.100  0.3168 -0.7028 -0.4549
24267SOL    HW173902   3.510   3.351   7.094 -0.6547 -0.3220  1.1114
24267SOL    HW273903   3.588   3.451   7.011 -1.1717 -1.7815 -1.2340
24268SOL     OW73904   4.951   2.487   3.709  0.2757  0.0688 -0.5601
24268SOL    HW173905   4.911   2.551   3.768  0.1339  0.5918 -1.2119
24268SOL    HW273906   5.041   2.516   3.699  0.2898  0.0030 -0.6255
24269SOL     OW73907   4.252   1.406   3.884  0.0632 -0.1235 -0.2614
24269SOL    HW173908   4.300   1.335   3.927  0.5691  0.8297  0.8361
24269SOL    HW273909   4.275   1.398   3.792 -0.7527 -2.0159 -0.3465
24270SOL     OW73910   8.729   2.749   1.008 -0.1338 -0.1134  0.8266
24270SOL    HW173911   8.659   2.700   0.965  0.0261  0.9466 -0.6932
24270SOL    HW273912   8.800   2.686   1.017  1.3141  0.4344 -4.0398
24271SOL     OW73913   6.634   4.097   7.117 -0.4965 -0.0653  0.2812
24271SOL    HW173914   6.550   4.090   7.162 -0.3869 -0.9491  0.3539
24271SOL    HW273915   6.631   4.030   7.048 -0.7552  1.4047 -1.2110
24272SOL     OW73916   1.592   6.442   7.064 -0.0959 -0.0654  0.0853
24272SOL    HW173917   1.533   6.371   7.040  0.7094  0.1991 -3.1799
24272SOL    HW273918   1.679   6.411   7.037  0.5198  1.5074  0.1391
24273SOL     OW73919   2.367   4.754   8.419  0.1898 -0.0636  1.0456
24273SOL    HW173920   2.371   4.660   8.402  0.3397  0.2696 -1.0322
24273SOL    HW273921   2.458   4.781   8.428  0.1950  0.0311  0.7088
24274SOL     OW73922   1.630   9.073   3.908  0.0480  0.4573 -0.0684
24274SOL    HW173923   1.597   9.026   3.832  0.1927  0.1809  0.0387
24274SOL    HW273924   1.658   9.005   3.969 -1.1850  0.6334  0.7379
24275SOL     OW73925   4.745   2.584   3.260 -0.4243 -0.1282 -0.3312
24275SOL    HW173926   4.778   2.670   3.232  1.0690 -0.2806  0.8650
24275SOL    HW273927   4.655   2.602   3.289 -0.4558  0.8520 -0.9658
24276SOL     OW73928   7.700   3.496   8.113  0.3225 -0.1684  0.2404
24276SOL    HW173929   7.648   3.421   8.084 -0.3635  0.6567 -0.7463
24276SOL    HW273930   7.786   3.459   8.132 -0.6918 -1.6443  2.3249
24277SOL     OW73931   6.831   6.998   0.752 -0.2878  0.2225  0.1956
24277SOL    HW173932   6.803   6.908   0.770 -1.5183  0.4652 -0.4191
24277SOL    HW273933   6.924   6.989   0.731 -0.4297 -0.9341 -0.0431
24278SOL     OW73934   7.072   0.715   1.169  0.1917 -0.3782  0.0779
24278SOL    HW173935   7.034   0.781   1.111  0.9005  0.3911  0.4605
24278SOL    HW273936   6.998   0.664   1.200 -0.4622  0.6948  0.3277
24279SOL     OW73937   4.395   6.060   6.804  0.0445  0.0158 -0.1167
24279SOL    HW173938   4.419   6.130   6.743  0.4367  0.4869  0.5614
24279SOL    HW273939   4.401   6.100   6.890  0.1822 -0.8334  0.2813
24280SOL     OW73940   0.353   1.751   5.259 -0.3291 -0.0404 -0.0456
24280SOL    HW173941   0.282   1.799   5.301  0.5111  0.5957  0.7128
24280SOL    HW273942   0.328   1.659   5.266 -1.7583  0.2494 -1.1283
24281SOL     OW73943   8.349   5.583   1.868  0.2663 -0.5964  0.0263
24281SOL    HW173944   8.390   5.669   1.857  1.8656 -1.3234  0.1225
24281SOL    HW273945   8.407   5.522   1.823 -2.2430 -1.3477 -2.5222
24282SOL     OW73946   4.123   4.924   0.414 -1.1518 -0.0229 -0.2657
24282SOL    HW173947   4.109   4.829   0.402 -1.2343 -0.1502  0.7487
24282SOL    HW273948   4.109   4.961   0.327 -1.3305 -0.9226 -0.6350
24283SOL     OW73949   6.013   6.053   0.025  0.2340 -0.2675  0.1546
24283SOL    HW173950   5.940   6.025   0.079  0.0605  0.0092  0.0678
24283SOL    HW273951   6.056   5.972  -0.002 -1.1785 -0.5542 -1.3922
24284SOL     OW73952   1.016   6.559   1.017  0.1513  0.2629  0.4153
24284SOL    HW173953   1.090   6.498   1.018  1.3990  1.7231  1.0153
24284SOL    HW273954   0.981   6.554   0.928  0.3842 -1.1133  0.3791
24285SOL     OW73955   8.117   0.488   7.172 -0.3997 -0.7173 -0.2472
24285SOL    HW173956   8.162   0.490   7.087 -0.3138 -0.3613 -0.1922
24285SOL    HW273957   8.169   0.543   7.229  0.0904 -1.7354  0.3172
24286SOL     OW73958   8.678   4.394   3.757  0.0181 -0.1217  0.6409
24286SOL    HW173959   8.728   4.363   3.832 -0.4595 -1.0587  0.5885
24286SOL    HW273960   8.688   4.324   3.692 -1.2342 -0.2706  0.5796
24287SOL     OW73961   1.497   2.297   8.747  1.2494  0.0483 -0.0585
24287SOL    HW173962   1.404   2.281   8.736  1.2894 -2.5355  2.3098
24287SOL    HW273963   1.539   2.243   8.679  1.0463 -1.9524  1.3226
24288SOL     OW73964   8.724   3.934   2.880 -0.2419  0.4241  0.4399
24288SOL    HW173965   8.812   3.904   2.902  0.2850  0.5080 -1.4489
24288SOL    HW273966   8.735   3.990   2.803 -1.5309  3.2702  2.1247
24289SOL     OW73967   1.660   7.792   0.400 -0.7136  0.1041  0.0040
24289SOL    HW173968   1.688   7.829   0.484 -1.6042  0.5938  0.0971
24289SOL    HW273969   1.738   7.795   0.346 -0.4695  1.0803  0.3819
24290SOL     OW73970   7.448   5.129   5.659 -0.0931 -0.0894 -0.0727
24290SOL    HW173971   7.419   5.120   5.568  0.3660 -0.9361 -0.1369
24290SOL    HW273972   7.542   5.146   5.653 -0.0605 -0.1515  0.2457
24291SOL     OW73973   2.584   5.817   0.453  0.1137  0.1395 -0.1364
24291SOL    HW173974   2.571   5.755   0.381  0.7601  1.5054 -1.4803
24291SOL    HW273975   2.676   5.808   0.477 -0.5592 -1.8926  2.1168
24292SOL     OW73976   1.221   4.073   4.346  0.8531 -0.2281 -0.5106
24292SOL    HW173977   1.144   4.123   4.321  0.4641 -0.5466  0.0433
24292SOL    HW273978   1.294   4.134   4.335  0.1429  1.3639  2.6589
24293SOL     OW73979   5.404   8.800   7.551  0.1455 -0.0339 -0.0888
24293SOL    HW173980   5.440   8.776   7.636  1.5400 -1.1399 -0.9254
24293SOL    HW273981   5.481   8.826   7.500 -0.4173 -0.9905 -1.4934
24294SOL     OW73982   0.949   4.118   8.567  0.0383  0.2445 -0.0187
24294SOL    HW173983   0.874   4.177   8.556 -0.1312  0.0600  0.1419
24294SOL    HW273984   0.980   4.135   8.656  1.0773  1.3478 -0.5488
24295SOL     OW73985   1.498   5.388   5.466 -0.1265 -0.1446  0.0142
24295SOL    HW173986   1.501   5.459   5.529  0.0721 -0.2924  0.1717
24295SOL    HW273987   1.512   5.430   5.381  0.9216 -0.1115  0.1927
24296SOL     OW73988   8.568   5.306   7.495  0.3144  0.2298 -0.0917
24296SOL    HW173989   8.656   5.341   7.480 -0.1537  0.8393 -1.5882
24296SOL    HW273990   8.552   5.248   7.421 -0.7956  0.6435 -0.1930
24297SOL     OW73991   8.272   8.263   7.991 -0.7750 -0.4991  0.1426
24297SOL    HW173992   8.266   8.180   8.038  0.4119 -0.8086 -0.2137
24297SOL    HW273993   8.335   8.247   7.921 -0.7040  0.6301 -0.0812
24298SOL     OW73994   2.810   6.529   2.129  0.3862 -0.3200 -0.2263
24298SOL    HW173995   2.858   6.541   2.048  1.6667  1.2536  0.7180
24298SOL    HW273996   2.745   6.599   2.130  2.7918  2.1056  1.7124
24299SOL     OW73997   3.472   8.628   2.024 -0.0765  0.5476  0.2751
24299SOL    HW173998   3.464   8.720   1.998 -2.8480 -0.2537 -2.3026
24299SOL    HW273999   3.401   8.615   2.088  0.0877  0.1059  0.3738
24300SOL     OW74000   8.214   4.213   4.700 -0.1094 -0.0630  0.8405
24300SOL    HW174001   8.235   4.130   4.744  1.3722 -0.1508  0.0595
24300SOL    HW274002   8.161   4.187   4.625  1.2579 -0.4926 -0.0354
24301SOL     OW74003   9.058   4.816   6.480 -0.5127  0.4436 -0.0709
24301SOL    HW174004   8.999   4.854   6.415  1.8052  2.3708 -1.1896
24301SOL    HW274005   9.076   4.887   6.541 -1.8162 -1.0448  2.1723
24302SOL     OW74006   7.997   6.480   6.510  0.1026 -0.6282 -0.1225
24302SOL    HW174007   8.065   6.448   6.570 -0.4865 -0.4961  0.6370
24302SOL    HW274008   7.932   6.520   6.568  0.4878  1.3457 -1.0072
24303SOL     OW74009   4.051   0.465   1.179  0.2895 -0.2293 -0.0965
24303SOL    HW174010   4.102   0.520   1.118 -0.8958 -0.5041 -1.3803
24303SOL    HW274011   3.992   0.526   1.222  0.4511 -0.1868  0.0686
24304SOL     OW74012   2.894   5.065   2.842  0.4372 -0.1366 -0.4368
24304SOL    HW174013   2.878   5.088   2.934  1.2409 -1.0429 -0.0565
24304SOL    HW274014   2.964   5.124   2.815 -0.0334  0.3684 -0.5886
24305SOL     OW74015   4.345   1.787   2.819  0.3523  0.3953  0.3030
24305SOL    HW174016   4.372   1.791   2.911  0.1232  0.1255  0.3848
24305SOL    HW274017   4.375   1.700   2.789  2.1939  1.2175 -0.4467
24306SOL     OW74018   6.834   8.612   5.278  0.0563 -0.5797 -0.5224
24306SOL    HW174019   6.799   8.683   5.224 -0.0203 -1.5461 -1.8108
24306SOL    HW274020   6.922   8.598   5.244 -0.2699 -1.7159 -0.9565
24307SOL     OW74021   2.787   1.468   6.435  0.2974  0.0421  0.3346
24307SOL    HW174022   2.811   1.491   6.345 -1.4842 -1.1460 -0.5032
24307SOL    HW274023   2.812   1.376   6.443  2.3017  0.6401  1.7941
24308SOL     OW74024   7.236   1.739   8.938  0.2252  0.0869 -0.0393
24308SOL    HW174025   7.164   1.791   8.902  0.0052 -0.4119 -0.3263
24308SOL    HW274026   7.314   1.788   8.915  0.1605 -0.6830 -2.0400
24309SOL     OW74027   8.754   6.732   3.367  0.1830  0.2050 -0.3594
24309SOL    HW174028   8.781   6.793   3.437 -1.1202 -0.3246  0.6341
24309SOL    HW274029   8.727   6.653   3.413 -0.7700 -0.1369 -1.4650
24310SOL     OW74030   0.517   0.258   7.950 -0.4846  0.1515 -0.2727
24310SOL    HW174031   0.549   0.287   8.036 -1.5506  0.8063 -0.0683
24310SOL    HW274032   0.587   0.203   7.915  0.2065  0.3345  0.7739
24311SOL     OW74033   4.388   4.791   3.876 -0.8206 -0.0083 -0.1646
24311SOL    HW174034   4.316   4.749   3.922  0.2969 -0.7036  1.0420
24311SOL    HW274035   4.467   4.749   3.912  0.2000  0.9092 -1.2326
24312SOL     OW74036   5.192   2.787   6.909 -0.7210  0.2098 -0.5719
24312SOL    HW174037   5.152   2.839   6.839 -0.7607 -0.7502 -1.2841
24312SOL    HW274038   5.224   2.708   6.865 -0.2081 -0.1390  0.3980
24313SOL     OW74039   2.141   0.005   2.451 -0.1772  0.2228  0.2940
24313SOL    HW174040   2.212  -0.047   2.413 -0.0175  0.2004  0.6195
24313SOL    HW274041   2.149  -0.008   2.545 -1.4279 -0.8421  0.2908
24314SOL     OW74042   4.101   4.934   9.048  0.6071 -0.6703 -0.2324
24314SOL    HW174043   4.196   4.938   9.037  0.3596 -0.6893 -3.2141
24314SOL    HW274044   4.080   4.840   9.043  0.3941 -0.6358 -0.0126
24315SOL     OW74045   7.111   0.063   7.474  0.5969  0.1355  0.9606
24315SOL    HW174046   7.077   0.144   7.511  2.3794  2.0088 -1.1770
24315SOL    HW274047   7.187   0.042   7.528  0.4011  0.1607  1.2444
24316SOL     OW74048   0.905   8.246   7.941  0.4779 -0.7189  0.4596
24316SOL    HW174049   0.875   8.330   7.906  0.6191 -0.8228  0.0787
24316SOL    HW274050   0.939   8.200   7.864 -0.2911 -1.4217  0.5336
24317SOL     OW74051   4.032   4.390   3.688 -0.8322 -0.0295  0.0243
24317SOL    HW174052   3.938   4.372   3.681 -0.7770 -0.4423  0.3083
24317SOL    HW274053   4.068   4.311   3.728 -0.1832 -0.4041 -1.2320
24318SOL     OW74054   1.741   4.721   5.780  0.2030  0.4086 -0.1258
24318SOL    HW174055   1.685   4.739   5.855  1.9159 -0.7544  1.5544
24318SOL    HW274056   1.724   4.629   5.758  0.7574  0.3141 -0.1940
24319SOL     OW74057   8.297   7.850   4.227 -0.0284 -0.0111 -0.5512
24319SOL    HW174058   8.258   7.764   4.217  0.8185 -0.4097 -0.4492
24319SOL    HW274059   8.380   7.846   4.180  0.1579  0.6559 -0.3000
24320SOL     OW74060   6.392   6.078   4.426 -0.1270  0.7768  0.6763
24320SOL    HW174061   6.455   6.032   4.482 -0.3907 -0.6570 -0.1602
24320SOL    HW274062   6.317   6.094   4.483  0.1910  0.6644  1.1333
24321SOL     OW74063   0.700   9.103   7.718  0.4466  0.0349 -0.2618
24321SOL    HW174064   0.610   9.103   7.751  0.8939  0.0009  1.0433
24321SOL    HW274065   0.753   9.078   7.794  1.4975 -0.6666 -1.1865
24322SOL     OW74066   7.407   2.335   9.022  0.2461  0.5715  0.3854
24322SOL    HW174067   7.465   2.405   9.050  0.7797 -0.5301  2.1724
24322SOL    HW274068   7.324   2.353   9.066  0.1536  0.4824  0.2519
24323SOL     OW74069   1.563   0.417   1.124  0.9243 -0.3048  0.5337
24323SOL    HW174070   1.635   0.437   1.183  0.6213  0.8288  0.5481
24323SOL    HW274071   1.484   0.443   1.173  0.5575 -0.8408  0.2402
24324SOL     OW74072   5.107   5.468   4.431 -0.6805  0.6775 -0.1415
24324SOL    HW174073   5.059   5.421   4.500 -0.5938  0.9964  0.1405
24324SOL    HW274074   5.088   5.419   4.351  2.3852 -2.2206  0.6397
24325SOL     OW74075   2.077   7.281   4.675  0.5845 -0.1921  0.5557
24325SOL    HW174076   2.151   7.332   4.709  0.2456 -0.5290  1.8592
24325SOL    HW274077   2.106   7.190   4.682 -0.4786 -0.4508  2.5943
24326SOL     OW74078   6.300   5.054   5.451  0.0896  0.2161  0.1191
24326SOL    HW174079   6.266   4.965   5.465 -0.0205  0.4737  1.7378
24326SOL    HW274080   6.229   5.099   5.406 -0.6150 -0.0193  0.9672
24327SOL     OW74081   4.059   0.275   5.756  0.2609  0.1571 -0.1248
24327SOL    HW174082   4.098   0.354   5.719 -1.6380  1.4610  0.5627
24327SOL    HW274083   4.099   0.266   5.842  1.5498 -0.5058 -0.7545
24328SOL     OW74084   0.294   4.838   3.602  0.5840 -0.4547  0.1624
24328SOL    HW174085   0.320   4.926   3.574 -1.3861 -0.5466 -2.2815
24328SOL    HW274086   0.340   4.779   3.543  0.2867 -0.9524  0.4234
24329SOL     OW74087   6.093   5.833   6.426  0.2655  0.1214 -0.0567
24329SOL    HW174088   6.147   5.849   6.349  1.8520  1.7825  1.3137
24329SOL    HW274089   6.026   5.901   6.423 -0.0408 -0.1853 -0.2665
24330SOL     OW74090   6.520   2.192   0.552  0.7455 -0.2935 -0.3973
24330SOL    HW174091   6.436   2.156   0.579  1.4831 -0.1877  2.4516
24330SOL    HW274092   6.534   2.160   0.463 -2.7436  0.5697 -1.3808
24331SOL     OW74093   1.572   1.517   7.671  0.4650  0.5790  0.1228
24331SOL    HW174094   1.618   1.451   7.724  2.1910  2.3301  0.9449
24331SOL    HW274095   1.531   1.575   7.736 -1.1888  0.2535 -0.5862
24332SOL     OW74096   1.219   0.772   5.144 -0.0599 -0.2658  0.2088
24332SOL    HW174097   1.285   0.838   5.163 -0.4604 -0.0228  0.7678
24332SOL    HW274098   1.266   0.689   5.148  0.2837 -0.0674  0.2613
24333SOL     OW74099   7.022   3.517   2.090 -0.5164  0.0029 -0.0771
24333SOL    HW174100   7.023   3.527   1.994 -0.8065  0.9056  0.0120
24333SOL    HW274101   7.037   3.423   2.103 -0.9086 -0.2083 -1.0200
24334SOL     OW74102   4.884   7.009   8.049 -0.1486 -0.1218 -0.8007
24334SOL    HW174103   4.926   7.087   8.013  0.8559 -1.0024 -1.6288
24334SOL    HW274104   4.842   7.038   8.129 -0.2446  1.3729 -1.3703
24335SOL     OW74105   4.217   2.893   7.048 -0.0404 -0.1534  0.3516
24335SOL    HW174106   4.213   2.945   7.129  0.4436  0.7462 -0.1893
24335SOL    HW274107   4.264   2.813   7.073 -0.1746 -0.0300  1.0308
24336SOL     OW74108   0.325   2.499   2.507  0.5262  0.4585  0.0556
24336SOL    HW174109   0.413   2.483   2.472  1.2775  2.7366  0.7282
24336SOL    HW274110   0.291   2.572   2.454 -1.0186 -0.4532 -0.2567
24337SOL     OW74111   1.595   9.086   3.313  0.1328 -0.2596  0.1749
24337SOL    HW174112   1.674   9.129   3.344  0.7515 -0.9749 -0.3614
24337SOL    HW274113   1.627   9.014   3.258 -0.8977 -0.1753 -0.5615
24338SOL     OW74114   6.096   7.552   2.895  0.3825  0.2918 -0.5066
24338SOL    HW174115   6.054   7.568   2.810  1.0182 -0.0432 -0.8873
24338SOL    HW274116   6.025   7.561   2.959 -0.0253  0.9073 -1.0382
24339SOL     OW74117   2.970   2.372   3.052 -0.1699 -0.6149  0.0069
24339SOL    HW174118   2.878   2.371   3.078  0.0598 -0.7396  0.8487
24339SOL    HW274119   3.004   2.454   3.087 -0.1380 -0.1942 -0.9787
24340SOL     OW74120   5.610   2.831   3.274  0.1642 -0.2932 -0.1354
24340SOL    HW174121   5.669   2.907   3.275 -0.4423  0.2459 -1.6989
24340SOL    HW274122   5.658   2.764   3.226 -0.2065 -0.0919 -0.7974
24341SOL     OW74123   2.090   2.109   7.297  0.0368  0.1008 -0.6783
24341SOL    HW174124   2.048   2.023   7.290 -0.2817  0.3493 -2.0225
24341SOL    HW274125   2.059   2.158   7.221  1.8287  0.6920 -1.0860
24342SOL     OW74126   8.198   7.809   1.505 -0.1881  0.0768  0.0044
24342SOL    HW174127   8.110   7.822   1.540 -0.5653  1.3356 -1.3233
24342SOL    HW274128   8.185   7.800   1.410  1.0425 -0.5132 -0.1264
24343SOL     OW74129   4.063   7.522   4.939 -0.9064 -0.3233  0.1031
24343SOL    HW174130   4.061   7.617   4.946  1.4514 -0.2241  0.1542
24343SOL    HW274131   4.121   7.493   5.009 -1.3217 -1.8007 -0.1142
24344SOL     OW74132   5.865   3.060   8.014  0.1664 -0.5965  0.1695
24344SOL    HW174133   5.949   3.102   7.995 -0.1461  0.2615  0.6185
24344SOL    HW274134   5.799   3.123   7.984 -0.3184 -1.2418 -0.1306
24345SOL     OW74135   2.026   6.791   7.204  0.9277 -0.1234 -0.2255
24345SOL    HW174136   2.010   6.699   7.222  1.1583  0.2913  2.4737
24345SOL    HW274137   1.973   6.838   7.268  1.8518  1.5814 -0.6466
24346SOL     OW74138   5.725   6.946   7.476  0.5658 -0.2285  0.2677
24346SOL    HW174139   5.697   6.908   7.559  2.2013  0.7419  1.3232
24346SOL    HW274140   5.784   6.880   7.438  0.8242 -0.1372  0.5070
24347SOL     OW74141   4.043   7.800   0.921  0.2532  0.3138 -0.0869
24347SOL    HW174142   3.999   7.836   0.844 -0.4207 -1.4443 -0.5825
24347SOL    HW274143   4.012   7.709   0.925  1.4234 -0.0486  1.4083
24348SOL     OW74144   4.473   6.598   7.059  0.3303 -0.0783  0.2037
24348SOL    HW174145   4.383   6.626   7.076 -0.0651  0.5994 -2.5921
24348SOL    HW274146   4.508   6.664   6.999  2.4157 -0.8006  0.5506
24349SOL     OW74147   1.060   7.150   7.265 -0.3738  0.4635  0.0727
24349SOL    HW174148   1.086   7.058   7.256 -0.5631  0.2454  1.4060
24349SOL    HW274149   1.069   7.187   7.178  1.2785 -0.4109 -0.1643
24350SOL     OW74150   0.584   0.626   1.637 -0.0531  0.6136  0.0579
24350SOL    HW174151   0.572   0.702   1.580 -1.8133  0.7326  0.5203
24350SOL    HW274152   0.623   0.662   1.717 -0.9356  1.0473  0.2982
24351SOL     OW74153   1.897   5.468   6.774  0.1413  0.2962 -0.6792
24351SOL    HW174154   1.946   5.548   6.789  0.6600 -0.1903  0.2718
24351SOL    HW274155   1.903   5.419   6.856 -0.8455 -0.3588 -0.9713
24352SOL     OW74156   7.940   9.023   1.726  0.3630  0.1262 -0.1159
24352SOL    HW174157   8.029   8.999   1.700  0.7775  1.0640  0.3758
24352SOL    HW274158   7.894   9.038   1.644  0.5101 -0.8285 -0.3870
24353SOL     OW74159   5.146   1.944   8.767  0.1219  0.1461 -0.1336
24353SOL    HW174160   5.145   1.895   8.685 -0.7149  1.9170 -1.2265
24353SOL    HW274161   5.055   1.944   8.797  0.5446 -1.2503  1.3296
24354SOL     OW74162   2.473   7.875   1.854 -0.1651 -0.2301  0.4938
24354SOL    HW174163   2.433   7.796   1.891  0.9851 -0.2306  1.8114
24354SOL    HW274164   2.439   7.946   1.908 -0.8795  0.1604 -0.4374
24355SOL     OW74165   8.860   6.442   8.547  0.0143  0.5741 -0.6861
24355SOL    HW174166   8.786   6.409   8.597  0.3485 -1.0176 -1.2021
24355SOL    HW274167   8.859   6.537   8.562  0.9165  0.1123  3.4745
24356SOL     OW74168   2.005   7.278   4.252  0.5903  0.0011  0.0204
24356SOL    HW174169   1.947   7.226   4.196  2.0346 -1.5300 -0.1504
24356SOL    HW274170   2.089   7.279   4.205  0.7075  2.3310  0.1482
24357SOL     OW74171   6.314   5.818   7.195  0.2002  0.0060 -0.4059
24357SOL    HW174172   6.322   5.851   7.105 -1.2751 -0.4348 -0.7170
24357SOL    HW274173   6.252   5.877   7.237  0.2431 -0.2897  0.0815
24358SOL     OW74174   0.464   1.288   7.160 -0.5964 -0.4791 -0.5252
24358SOL    HW174175   0.399   1.282   7.090  0.2040 -0.9889 -1.2342
24358SOL    HW274176   0.540   1.330   7.120 -0.3187 -0.3007  0.1744
24359SOL     OW74177   2.289   0.214   6.812 -0.0295  0.1935 -0.1841
24359SOL    HW174178   2.294   0.119   6.825  0.0230 -0.1005 -2.1281
24359SOL    HW274179   2.208   0.228   6.763  0.3805  1.0532 -0.6471
24360SOL     OW74180   3.923   5.512   0.441  0.6711 -0.2620  0.0604
24360SOL    HW174181   4.002   5.489   0.490  0.7587 -2.1102 -0.8660
24360SOL    HW274182   3.896   5.430   0.400 -2.5062 -0.0596  1.4236
24361SOL     OW74183   5.734   4.646   2.123 -0.5799 -0.8139  0.2212
24361SOL    HW174184   5.812   4.697   2.098 -0.4993 -1.1725 -0.2746
24361SOL    HW274185   5.684   4.638   2.042 -0.8017 -1.1592  0.3904
24362SOL     OW74186   1.947   3.958   0.383  0.0127 -0.0795  0.1004
24362SOL    HW174187   1.879   3.973   0.318  0.6136 -2.3769 -1.1838
24362SOL    HW274188   2.027   3.989   0.341  0.0545  0.9329  0.8826
24363SOL     OW74189   0.482   2.961   4.552 -0.2956  0.2376 -0.4845
24363SOL    HW174190   0.458   3.051   4.576 -0.7385  0.0748 -0.3045
24363SOL    HW274191   0.540   2.971   4.476  0.0021  0.6945 -0.2018
24364SOL     OW74192   1.268   6.201   3.397 -0.5930  0.3334  0.3823
24364SOL    HW174193   1.363   6.210   3.389 -0.7391  2.3124  0.4478
24364SOL    HW274194   1.245   6.250   3.476 -1.5832 -0.9385  0.9291
24365SOL     OW74195   1.634   1.775   8.508 -0.4293  0.5697  0.4938
24365SOL    HW174196   1.557   1.773   8.453  0.1148 -1.7401 -0.3268
24365SOL    HW274197   1.608   1.729   8.588 -0.0537  0.2019  0.4107
24366SOL     OW74198   7.418   3.878   3.889  0.8455  0.1630  0.1315
24366SOL    HW174199   7.382   3.951   3.838  0.4574 -0.3119 -0.2938
24366SOL    HW274200   7.347   3.853   3.948  0.5807 -0.5544 -0.4706
24367SOL     OW74201   0.244   1.232   6.912  0.1635 -0.2251 -0.0411
24367SOL    HW174202   0.284   1.300   6.858 -0.8527  1.0013  0.6835
24367SOL    HW274203   0.280   1.150   6.879  1.3456  0.6531 -1.0148
24368SOL     OW74204   2.708   7.889   7.959 -0.4781  0.7823 -0.3808
24368SOL    HW174205   2.710   7.802   7.919  0.7355  1.5529 -2.1039
24368SOL    HW274206   2.614   7.908   7.968 -0.7888  0.1757 -2.0087
24369SOL     OW74207   6.434   4.175   2.490 -0.2773 -0.1392  0.4316
24369SOL    HW174208   6.409   4.083   2.480 -0.4561 -0.1896  1.3356
24369SOL    HW274209   6.414   4.196   2.581  0.0552  0.7096  0.3155
24370SOL     OW74210   8.138   6.235   0.028 -0.0709  0.0233 -0.0772
24370SOL    HW174211   8.112   6.150  -0.008  0.3602  0.0985 -0.5632
24370SOL    HW274212   8.062   6.262   0.081 -0.5236 -0.2943 -0.5539
24371SOL     OW74213   1.944   8.060   5.765  0.0923 -0.0916 -0.4934
24371SOL    HW174214   1.916   8.099   5.682  1.9722 -0.8730 -1.5660
24371SOL    HW274215   1.942   8.133   5.827  1.3745  1.2616 -1.9368
24372SOL     OW74216   8.585   0.495   2.172 -0.2087  0.1954 -0.1157
24372SOL    HW174217   8.504   0.540   2.195 -0.5112 -0.7170  0.6655
24372SOL    HW274218   8.610   0.532   2.087 -1.8440 -0.0380 -0.7302
24373SOL     OW74219   7.100   5.744   0.988  0.0217 -0.2482  0.3873
24373SOL    HW174220   7.163   5.731   1.059  0.6211  0.0764 -0.0771
24373SOL    HW274221   7.034   5.803   1.025  0.3126 -0.1061  0.6861
24374SOL     OW74222   2.066   1.055   1.931  0.2827  0.2505 -0.1739
24374SOL    HW174223   1.972   1.048   1.913  0.7858 -1.4255 -2.6103
24374SOL    HW274224   2.076   1.020   2.019 -1.7565  4.1723  1.9005
24375SOL     OW74225   6.786   4.604   9.024 -0.0014 -0.2785  0.1254
24375SOL    HW174226   6.755   4.683   9.068  2.3390  0.1647  1.1148
24375SOL    HW274227   6.773   4.534   9.088  1.6101  0.0464  0.8812
24376SOL     OW74228   0.856   8.131   0.573 -0.2952  0.1318  0.5106
24376SOL    HW174229   0.797   8.089   0.636 -0.3470  0.1425  0.4696
24376SOL    HW274230   0.813   8.118   0.488 -0.8190  1.1444  0.6095
24377SOL     OW74231   0.937   1.802   3.920 -0.0307 -0.2361  0.8453
24377SOL    HW174232   1.014   1.751   3.894  0.2112  0.4332  0.2160
24377SOL    HW274233   0.874   1.736   3.949 -0.0764 -1.0049 -0.8431
24378SOL     OW74234   4.646   8.959   8.255  0.0265  0.2301  0.2328
24378SOL    HW174235   4.651   8.937   8.162  2.3318 -2.3840  0.8484
24378SOL    HW274236   4.564   8.921   8.285  0.0099 -0.2811 -0.4500
24379SOL     OW74237   0.810   7.768   4.583  0.1731 -0.0069  0.0978
24379SOL    HW174238   0.866   7.804   4.514 -0.3947  0.1848 -0.2739
24379SOL    HW274239   0.839   7.677   4.591  1.0144  0.2773  0.4187
24380SOL     OW74240   2.263   8.705   3.684 -0.4497  0.0808 -0.1396
24380SOL    HW174241   2.235   8.771   3.748  0.7759  1.4259 -0.9238
24380SOL    HW274242   2.216   8.728   3.604 -0.1203 -0.0719 -0.3794
24381SOL     OW74243   2.290   5.752   6.934  0.3267 -0.2584  0.1907
24381SOL    HW174244   2.251   5.711   7.012 -1.6464  0.8139 -0.1475
24381SOL    HW274245   2.357   5.810   6.969 -1.6906  1.5278  1.3581
24382SOL     OW74246   3.407   0.916   8.197 -0.2447  0.0229 -0.0082
24382SOL    HW174247   3.444   0.832   8.227 -0.9707 -0.2822  0.0552
24382SOL    HW274248   3.327   0.891   8.151  1.1002  0.4174 -2.7326
24383SOL     OW74249   5.321   6.749   5.208 -0.0379 -0.4041  0.1239
24383SOL    HW174250   5.252   6.780   5.149  0.0743 -0.2951  0.0499
24383SOL    HW274251   5.381   6.823   5.216  2.1482 -1.6409 -2.8692
24384SOL     OW74252   0.162   8.096   7.379 -0.0232  0.2284 -0.1190
24384SOL    HW174253   0.150   8.159   7.450  0.4426  0.3138 -0.1114
24384SOL    HW274254   0.165   8.011   7.423  1.0187  0.3363  0.0608
24385SOL     OW74255   8.281   2.982   2.067  0.6449  0.0246  0.0164
24385SOL    HW174256   8.228   3.053   2.101  2.8415  1.1676  1.2850
24385SOL    HW274257   8.369   2.997   2.103  0.9046 -4.3102  1.8933
24386SOL     OW74258   8.036   3.701   8.941  0.0822  0.3698  0.5084
24386SOL    HW174259   7.995   3.683   8.856 -2.3579  1.5305  1.3172
24386SOL    HW274260   8.069   3.617   8.970  0.9065 -0.0650 -1.5409
24387SOL     OW74261   5.197   5.333   7.661  0.1831 -0.5858 -0.8024
24387SOL    HW174262   5.193   5.424   7.689  0.4530 -1.1343  1.1769
24387SOL    HW274263   5.110   5.314   7.629  0.0331  0.2810 -0.9361
24388SOL     OW74264   4.472   6.841   3.181 -0.0465  0.4090  0.3928
24388SOL    HW174265   4.500   6.768   3.125  1.3229  0.9953  0.2728
24388SOL    HW274266   4.550   6.864   3.230 -0.3525  2.0338  0.1695
24389SOL     OW74267   4.359   6.248   8.458  0.3360 -0.4074 -0.1123
24389SOL    HW174268   4.327   6.337   8.445 -0.6241 -0.3740  2.0277
24389SOL    HW274269   4.451   6.251   8.432  0.8974  1.7659  1.8871
24390SOL     OW74270   1.702   7.204   2.983 -0.8685  0.0203 -0.1866
24390SOL    HW174271   1.728   7.124   3.029 -1.6211 -0.3397 -0.3715
24390SOL    HW274272   1.710   7.273   3.049  3.1674  0.4590 -0.9013
24391SOL     OW74273   0.489   2.666   7.317 -0.7370  0.6902  0.2661
24391SOL    HW174274   0.564   2.614   7.290 -0.2262  0.5955  1.7439
24391SOL    HW274275   0.457   2.708   7.237 -0.3064 -0.7897 -0.7080
24392SOL     OW74276   8.309   3.197   5.904  0.0068 -0.1326 -0.2133
24392SOL    HW174277   8.332   3.187   5.811 -1.4081 -0.3232 -0.5655
24392SOL    HW274278   8.284   3.289   5.912 -3.2286 -0.8378 -0.8764
24393SOL     OW74279   0.840   7.316   7.982 -0.4006 -0.0365  0.4449
24393SOL    HW174280   0.802   7.286   7.899 -1.5523  0.2778  0.8281
24393SOL    HW274281   0.800   7.402   7.996 -0.6650 -0.3334  1.5906
24394SOL     OW74282   2.922   6.180   0.911  0.4718  0.2568  0.1881
24394SOL    HW174283   2.859   6.178   0.840  1.6504 -0.8131 -0.8671
24394SOL    HW274284   2.939   6.088   0.932  0.6475  0.5407  1.4121
24395SOL     OW74285   2.457   1.467   0.430  0.1879  0.0722 -0.4318
24395SOL    HW174286   2.430   1.416   0.353  2.0523 -1.2026 -0.3232
24395SOL    HW274287   2.386   1.529   0.444 -0.4164  0.0791 -2.9410
24396SOL     OW74288   6.838   8.558   0.014  0.2161  0.0764 -0.1640
24396SOL    HW174289   6.866   8.648   0.032  1.3551 -0.0731 -1.0451
24396SOL    HW274290   6.913   8.505   0.041  0.3687 -0.4450 -1.5622
24397SOL     OW74291   2.971   5.350   4.667  0.0039  0.8874 -0.0993
24397SOL    HW174292   2.973   5.304   4.751  0.2915 -1.5624 -1.3474
24397SOL    HW274293   3.061   5.377   4.653 -0.1899  2.0343  0.7067
24398SOL     OW74294   8.622   3.243   7.717  0.2118 -0.2009 -0.7519
24398SOL    HW174295   8.597   3.254   7.626 -0.5420  2.2068 -0.3261
24398SOL    HW274296   8.539   3.243   7.765  0.6408  2.9455  0.2364
24399SOL     OW74297   2.031   4.293   3.862  0.1988 -0.4203 -0.0034
24399SOL    HW174298   1.939   4.289   3.834 -1.0199  0.0715  3.4791
24399SOL    HW274299   2.080   4.263   3.785 -2.7923 -0.1588 -2.2006
24400SOL     OW74300   1.809   1.236   2.071 -0.0909  0.0101 -0.4234
24400SOL    HW174301   1.842   1.191   2.149 -1.1346  0.8054  0.5043
24400SOL    HW274302   1.820   1.329   2.090 -1.7827  0.2678 -0.5560
24401SOL     OW74303   1.306   4.262   7.265 -0.7218 -0.2601 -0.3663
24401SOL    HW174304   1.378   4.258   7.202 -1.0135  0.6406 -0.7799
24401SOL    HW274305   1.341   4.223   7.345 -0.1821 -0.9584 -0.9316
24402SOL     OW74306   3.143   2.558   3.185  0.2932  0.6957  0.0706
24402SOL    HW174307   3.164   2.547   3.278  0.5981 -0.7090 -0.1505
24402SOL    HW274308   3.083   2.633   3.183 -0.8219 -0.1094  1.5577
24403SOL     OW74309   1.795   5.936   7.060 -0.1370  0.3003  0.5165
24403SOL    HW174310   1.736   5.986   7.115 -0.8448 -0.5482  0.5514
24403SOL    HW274311   1.784   5.845   7.089  2.4956  0.2830  1.7650
24404SOL     OW74312   4.410   2.723   1.324 -0.2986 -0.4965 -0.5013
24404SOL    HW174313   4.421   2.706   1.417  0.0635 -1.1192 -0.6509
24404SOL    HW274314   4.324   2.686   1.303  0.0555 -1.2732 -0.6167
24405SOL     OW74315   1.166   8.130   6.803 -0.5266  0.2915 -0.1483
24405SOL    HW174316   1.201   8.072   6.870 -1.0673  1.3728  1.1097
24405SOL    HW274317   1.077   8.149   6.831 -1.3597 -0.5561 -2.0696
24406SOL     OW74318   4.389   8.853   5.945 -0.2628  0.2545  0.2120
24406SOL    HW174319   4.326   8.817   6.007  0.7135 -0.7999  0.6239
24406SOL    HW274320   4.448   8.781   5.925  2.4738  1.8134  1.9182
24407SOL     OW74321   2.110   9.052   5.545  0.4077  0.1695  0.2555
24407SOL    HW174322   2.042   9.105   5.585 -0.2524  0.2792 -0.9673
24407SOL    HW274323   2.104   9.072   5.451  0.8566 -1.2494 -0.1000
24408SOL     OW74324   5.075   7.512   6.228  0.1406 -0.1605 -0.0867
24408SOL    HW174325   5.071   7.586   6.290 -0.7121 -0.2855  0.0147
24408SOL    HW274326   5.045   7.437   6.279 -2.3262  0.0577 -1.1167
24409SOL     OW74327   1.682   5.793   8.439  0.0219  0.0427  0.0910
24409SOL    HW174328   1.609   5.768   8.496 -0.6817  0.1693 -0.7343
24409SOL    HW274329   1.643   5.802   8.353  1.0260  0.1054 -0.3716
24410SOL     OW74330   2.635   1.665   0.479 -0.0777  0.4560  0.4025
24410SOL    HW174331   2.728   1.644   0.494 -0.3441 -1.1673  0.0129
24410SOL    HW274332   2.590   1.582   0.492 -1.0718  0.3400 -2.9165
24411SOL     OW74333   5.884   7.122   3.085 -0.2144 -0.0109 -0.2551
24411SOL    HW174334   5.905   7.200   3.136 -0.5366 -0.2590  0.2644
24411SOL    HW274335   5.789   7.121   3.079 -0.1540  0.6483 -1.8792
24412SOL     OW74336   0.465   6.293   0.719 -0.7407  0.1484  0.4076
24412SOL    HW174337   0.466   6.332   0.807 -0.7162  0.4414  0.2791
24412SOL    HW274338   0.528   6.221   0.724  1.6907  2.0940 -0.2232
24413SOL     OW74339   1.621   5.261   6.867 -0.0811  0.6656 -0.2377
24413SOL    HW174340   1.623   5.292   6.776 -0.6095  0.7599 -0.2173
24413SOL    HW274341   1.530   5.272   6.894 -0.2737 -0.8799 -0.2156
24414SOL     OW74342   5.715   7.022   8.183 -0.4635  0.1396  0.0112
24414SOL    HW174343   5.647   6.955   8.168  0.2483 -0.2840 -1.5952
24414SOL    HW274344   5.796   6.979   8.157  0.1614  1.2749  0.0535
24415SOL     OW74345   1.294   7.448   1.096 -0.5683 -0.1404 -0.3733
24415SOL    HW174346   1.346   7.368   1.104  0.1357  0.1223 -1.8595
24415SOL    HW274347   1.205   7.417   1.079 -0.4738 -0.5969 -0.0625
24416SOL     OW74348   2.042   6.427   3.554  0.1566 -0.2182 -0.0772
24416SOL    HW174349   2.072   6.449   3.642  1.2862 -1.4626 -0.1154
24416SOL    HW274350   2.001   6.507   3.522 -1.0317  0.0271  1.8716
24417SOL     OW74351   7.130   5.303   3.502 -0.1393 -0.0257 -0.1765
24417SOL    HW174352   7.160   5.394   3.509 -0.1699 -0.0715  0.6661
24417SOL    HW274353   7.034   5.310   3.503 -0.1585 -0.0027 -1.1528
24418SOL     OW74354   1.687   3.014   7.845 -0.3478 -0.2172 -0.2866
24418SOL    HW174355   1.737   2.953   7.791  0.7566  0.5785 -0.1970
24418SOL    HW274356   1.706   3.100   7.808  0.1360  0.3102  1.1080
24419SOL     OW74357   1.164   4.387   0.225  0.6177  0.4737 -0.3228
24419SOL    HW174358   1.091   4.449   0.214  1.0403  0.6572 -2.5009
24419SOL    HW274359   1.167   4.339   0.142  0.0869 -2.7909  1.3982
24420SOL     OW74360   1.639   6.382   2.751  0.4633  0.1513 -0.4305
24420SOL    HW174361   1.644   6.452   2.685 -3.0499 -0.9031 -2.0948
24420SOL    HW274362   1.568   6.409   2.809  1.0797 -0.6568  0.7402
24421SOL     OW74363   5.976   3.712   5.508  0.0040 -0.0792  0.7801
24421SOL    HW174364   5.890   3.672   5.521 -0.8343  0.8561 -1.3601
24421SOL    HW274365   5.977   3.737   5.416  2.4595  0.2704  0.8302
24422SOL     OW74366   1.903   8.004   2.372  0.2609  0.0506 -0.5044
24422SOL    HW174367   1.832   8.065   2.351 -0.1806 -0.5681 -0.8458
24422SOL    HW274368   1.911   8.008   2.467  0.0665  0.4463 -0.5019
24423SOL     OW74369   4.300   8.038   6.898 -0.0953  0.2595 -0.4926
24423SOL    HW174370   4.319   7.976   6.827 -0.2587  1.0133 -1.2011
24423SOL    HW274371   4.221   8.003   6.940  1.3466 -1.5373  0.8997
24424SOL     OW74372   1.977   8.267   0.031 -0.6142 -0.2636 -0.3990
24424SOL    HW174373   1.984   8.211   0.107 -1.7527 -0.3678 -0.3542
24424SOL    HW274374   1.906   8.229  -0.022 -0.8245  0.6164 -0.7890
24425SOL     OW74375   3.354   1.990   0.498  0.3030 -0.3378  0.4736
24425SOL    HW174376   3.439   1.964   0.461  0.0907  0.5991 -0.7371
24425SOL    HW274377   3.299   1.912   0.488  0.3465 -0.2140 -0.9477
24426SOL     OW74378   1.412   0.125   7.074 -0.5123  0.1809  0.1476
24426SOL    HW174379   1.346   0.102   7.139  0.8143 -0.7197  1.2379
24426SOL    HW274380   1.455   0.203   7.110 -0.5807  0.4099 -0.2602
24427SOL     OW74381   4.419   4.171   1.540  0.0630  0.8019  0.1561
24427SOL    HW174382   4.450   4.259   1.523  1.8311  0.0812 -0.5729
24427SOL    HW274383   4.465   4.143   1.619 -0.9465  0.7382  0.7367
24428SOL     OW74384   2.747   1.580   1.085  0.3914  0.1988 -0.4614
24428SOL    HW174385   2.780   1.491   1.076 -1.5225 -0.6485  0.5036
24428SOL    HW274386   2.777   1.608   1.172 -0.2024 -0.0399 -0.1769
24429SOL     OW74387   7.086   6.896   3.129 -0.3371 -0.1756  0.4519
24429SOL    HW174388   7.153   6.879   3.063  0.4123  2.0643  0.5646
24429SOL    HW274389   7.008   6.920   3.078 -0.3167 -0.2866  0.3665
24430SOL     OW74390   9.053   0.783   2.604 -0.0769  0.5019  0.3158
24430SOL    HW174391   9.145   0.773   2.630 -0.3892 -1.8603  0.7738
24430SOL    HW274392   9.045   0.728   2.526 -1.4302 -0.6831  1.2322
24431SOL     OW74393   0.525   6.552   4.756 -0.1244 -0.5113  0.5036
24431SOL    HW174394   0.432   6.567   4.741 -0.0242 -0.1944  0.1787
24431SOL    HW274395   0.569   6.591   4.681  0.3302  0.1964  1.1126
24432SOL     OW74396   4.859   0.909   4.368 -0.7214 -0.1354 -0.1287
24432SOL    HW174397   4.867   0.834   4.309 -2.4521  0.1361 -0.7599
24432SOL    HW274398   4.908   0.882   4.446  1.9026 -0.3698 -1.7215
24433SOL     OW74399   4.901   3.647   3.631 -0.1198  0.6221 -0.2738
24433SOL    HW174400   4.855   3.708   3.574 -0.5342 -0.3397 -0.9923
24433SOL    HW274401   4.837   3.624   3.698 -0.6621 -0.5694 -1.1651
24434SOL     OW74402   3.102   8.856   5.776 -0.1040 -0.3385  0.1560
24434SOL    HW174403   3.066   8.808   5.851  0.4263 -0.6074  0.2442
24434SOL    HW274404   3.026   8.901   5.738 -0.5936 -1.1532  0.1375
24435SOL     OW74405   6.918   1.137   2.471  0.2594  0.4013  0.1062
24435SOL    HW174406   6.889   1.224   2.499 -0.3529 -0.0077  0.7670
24435SOL    HW274407   6.996   1.154   2.418  0.4727  1.3174  0.6910
24436SOL     OW74408   0.576   3.976   7.441 -0.3754  0.3474  0.4399
24436SOL    HW174409   0.551   3.884   7.441 -2.0019  0.7375 -0.6907
24436SOL    HW274410   0.588   3.998   7.349 -1.0667  1.5023  0.5889
24437SOL     OW74411   7.142   3.273   8.497 -0.1618 -0.1939 -0.2311
24437SOL    HW174412   7.236   3.287   8.482  0.0024  0.8894  1.5648
24437SOL    HW274413   7.138   3.211   8.570 -0.9159 -2.0865 -1.7665
24438SOL     OW74414   8.523   4.692   0.852 -0.0548 -0.1191  0.3210
24438SOL    HW174415   8.502   4.620   0.912  1.2464  0.7538  1.8987
24438SOL    HW274416   8.538   4.767   0.909 -1.2872  1.4410 -1.2745
24439SOL     OW74417   4.146   4.655   3.969 -0.1973 -0.5996 -0.6158
24439SOL    HW174418   4.147   4.705   4.051 -0.0020 -1.1117 -0.3064
24439SOL    HW274419   4.081   4.586   3.983 -0.2736 -0.5977 -0.9476
24440SOL     OW74420   4.358   8.312   1.620  0.8567  0.3047 -0.1709
24440SOL    HW174421   4.305   8.360   1.556  2.1070  3.2791  0.8624
24440SOL    HW274422   4.416   8.258   1.567  0.7877  1.5174 -1.5532
24441SOL     OW74423   3.058   1.551   3.518 -0.1222 -0.8202 -0.1684
24441SOL    HW174424   3.082   1.594   3.436  0.4463  0.4141  0.5952
24441SOL    HW274425   2.991   1.487   3.494 -1.8661  1.2780 -1.2495
24442SOL     OW74426   4.906   3.449   6.871  0.2497  0.3516  0.0765
24442SOL    HW174427   4.880   3.540   6.856  2.1919  1.3129  2.0110
24442SOL    HW274428   4.865   3.427   6.955  0.1933 -0.4071 -0.1488
24443SOL     OW74429   5.210   6.576   2.147 -0.3675  0.4438  0.0177
24443SOL    HW174430   5.245   6.577   2.236  1.4458 -1.3326 -0.6092
24443SOL    HW274431   5.251   6.651   2.104 -1.3288  1.3703  0.6579
24444SOL     OW74432   1.987   2.296   3.274 -0.5322 -0.0769 -0.6054
24444SOL    HW174433   2.044   2.229   3.312 -1.3583 -1.5284 -1.8095
24444SOL    HW274434   2.011   2.377   3.320  0.4410 -1.1929  0.9516
24445SOL     OW74435   2.453   4.274   8.664 -0.2681 -0.5945  0.1275
24445SOL    HW174436   2.424   4.236   8.581  0.3543 -1.8286  0.4595
24445SOL    HW274437   2.375   4.275   8.719 -0.7029  0.2999 -0.4833
24446SOL     OW74438   8.145   0.772   5.643 -0.2581 -0.3647 -0.2204
24446SOL    HW174439   8.114   0.729   5.563 -1.1628 -0.7624  0.3319
24446SOL    HW274440   8.066   0.796   5.690  0.2580  0.6078  0.1831
24447SOL     OW74441   8.448   3.327   2.064  0.0370 -0.0153 -0.2730
24447SOL    HW174442   8.370   3.294   2.109 -0.7265 -0.8577 -2.0871
24447SOL    HW274443   8.499   3.370   2.132 -0.8501 -1.5476  1.4493
24448SOL     OW74444   7.008   1.545   3.964  0.3163  0.6110 -1.1472
24448SOL    HW174445   7.058   1.625   3.977 -1.2901  1.6502 -1.0889
24448SOL    HW274446   6.949   1.565   3.892 -2.2227  0.5959  0.7727
24449SOL     OW74447   9.073   8.115   3.952  0.6871 -0.2324  0.5875
24449SOL    HW174448   9.120   8.062   4.016  0.9766  0.0231  0.5911
24449SOL    HW274449   9.064   8.201   3.994  0.1086 -0.3122  0.6346
24450SOL     OW74450   0.655   2.139   3.549 -0.2254 -0.3137  0.5475
24450SOL    HW174451   0.642   2.225   3.590 -2.8082 -0.0878 -0.5631
24450SOL    HW274452   0.683   2.082   3.621  1.9202  1.4717  1.2328
24451SOL     OW74453   8.593   4.737   4.779 -0.0065 -0.1615  0.0022
24451SOL    HW174454   8.670   4.785   4.809 -0.8395  0.2658  1.5486
24451SOL    HW274455   8.620   4.700   4.695  1.4227  1.1128 -0.1568
24452SOL     OW74456   5.456   2.443   2.785  0.1247 -0.1040 -0.2180
24452SOL    HW174457   5.399   2.369   2.805 -0.4588  0.5918  0.7515
24452SOL    HW274458   5.414   2.488   2.712 -0.2709  0.0848  0.1267
24453SOL     OW74459   2.206   4.301   7.191  0.2954  0.0881 -0.0020
24453SOL    HW174460   2.264   4.376   7.176  0.6365 -0.4941 -1.8677
24453SOL    HW274461   2.148   4.301   7.115  0.7134 -1.8980 -0.3708
24454SOL     OW74462   1.051   8.161   0.960  0.1964  0.5647 -0.2556
24454SOL    HW174463   1.028   8.247   0.996  0.0869 -0.3637  2.0668
24454SOL    HW274464   1.140   8.145   0.990 -0.2357 -0.6487  0.4627
24455SOL     OW74465   5.543   7.744   3.916  0.4077 -0.1225 -0.1443
24455SOL    HW174466   5.518   7.745   3.824  0.3062 -0.9905 -0.1404
24455SOL    HW274467   5.491   7.813   3.956 -0.2091 -0.3255 -0.5781
24456SOL     OW74468   0.500   2.457   3.860  0.3781 -0.4173  0.3292
24456SOL    HW174469   0.576   2.505   3.826  0.4176 -0.2303  0.6681
24456SOL    HW274470   0.516   2.366   3.837 -0.3337 -0.1148 -1.4970
24457SOL     OW74471   4.537   6.088   7.471 -0.2065  0.5695 -0.4485
24457SOL    HW174472   4.519   5.994   7.462  0.0043  0.4186  0.6149
24457SOL    HW274473   4.604   6.105   7.405  1.6237 -0.5792  1.0377
24458SOL     OW74474   8.684   1.814   8.377 -0.1367 -0.8996  0.7101
24458SOL    HW174475   8.676   1.733   8.429 -3.0967 -1.2103 -0.0553
24458SOL    HW274476   8.600   1.859   8.390  0.6318  1.0304 -0.5891
24459SOL     OW74477   2.744   3.863   5.028  0.4243  0.0126 -0.4292
24459SOL    HW174478   2.705   3.906   5.105  0.5123 -0.9159  0.1431
24459SOL    HW274479   2.793   3.933   4.985  3.1010 -0.1053  2.1222
24460SOL     OW74480   2.597   3.633   2.046 -0.3502  1.4310  0.2214
24460SOL    HW174481   2.613   3.684   1.967  1.2297 -0.0661 -0.4736
24460SOL    HW274482   2.684   3.610   2.079 -0.9864 -0.1580  0.9265
24461SOL     OW74483   7.868   0.381   2.935  0.5302  0.2113 -0.3809
24461SOL    HW174484   7.918   0.459   2.956  1.1240 -0.6051  1.3803
24461SOL    HW274485   7.928   0.308   2.950 -0.3842 -0.6535 -0.7782
24462SOL     OW74486   7.124   6.729   1.406  0.8061  0.5538  0.0101
24462SOL    HW174487   7.115   6.763   1.494  0.1503 -1.6293  0.8667
24462SOL    HW274488   7.085   6.796   1.350  0.2110  1.4969  1.4860
24463SOL     OW74489   9.073   4.709   5.511 -0.6518 -0.2161 -0.7028
24463SOL    HW174490   9.010   4.699   5.440 -2.5253  0.4279  0.7975
24463SOL    HW274491   9.111   4.795   5.498 -0.7390 -0.2436 -1.1290
24464SOL     OW74492   1.534   1.460   2.975 -0.4762 -0.5469 -0.2167
24464SOL    HW174493   1.509   1.427   2.889  1.4875  0.3449 -1.2028
24464SOL    HW274494   1.455   1.502   3.009 -0.4724  2.3297 -3.2082
24465SOL     OW74495   5.104   6.745   0.103  0.4619  0.2105  0.1720
24465SOL    HW174496   5.054   6.698   0.037  1.9051 -0.6686 -0.3483
24465SOL    HW274497   5.130   6.827   0.060 -1.2971  1.1413  0.7787
24466SOL     OW74498   5.301   1.058   4.911 -0.3169  0.0145  0.7222
24466SOL    HW174499   5.319   0.994   4.843  1.0746  0.5643  0.5372
24466SOL    HW274500   5.277   1.137   4.864 -0.8774 -0.0332  0.9200
24467SOL     OW74501   3.576   0.331   6.354 -0.1161 -0.6009  0.4996
24467SOL    HW174502   3.662   0.310   6.389 -0.2219 -1.0920  0.4679
24467SOL    HW274503   3.549   0.252   6.307 -0.1855 -0.1301 -0.2736
24468SOL     OW74504   3.208   6.067   2.087  0.3160 -0.1106  0.3395
24468SOL    HW174505   3.238   6.100   2.002  2.0027  0.1701  1.0257
24468SOL    HW274506   3.121   6.030   2.068  0.4290  0.4245 -1.3934
24469SOL     OW74507   0.624   1.315   7.948  0.2024  0.1302 -0.3784
24469SOL    HW174508   0.612   1.407   7.921  0.6091  0.1181 -0.6136
24469SOL    HW274509   0.588   1.311   8.036  1.5049  0.8727  0.2132
24470SOL     OW74510   0.358   5.844   4.802 -0.3716  0.6254 -0.1828
24470SOL    HW174511   0.425   5.809   4.742  1.3425  0.5189  1.6783
24470SOL    HW274512   0.373   5.938   4.802  2.9863  0.3787  3.5162
24471SOL     OW74513   4.197   7.939   0.671  0.1072  0.6344 -0.1132
24471SOL    HW174514   4.227   7.909   0.757  0.2000 -0.1706 -0.4127
24471SOL    HW274515   4.144   8.016   0.689 -1.9729 -0.9529  0.9219
24472SOL     OW74516   6.723   0.393   4.481  0.1169  0.6627 -0.3287
24472SOL    HW174517   6.777   0.315   4.478  0.6444  0.8577  2.0443
24472SOL    HW274518   6.660   0.382   4.409  0.4106 -1.7339 -0.2845
24473SOL     OW74519   4.279   0.631   1.108  0.2558  0.4996 -0.0985
24473SOL    HW174520   4.252   0.617   1.018  1.3215  0.5087 -0.4418
24473SOL    HW274521   4.315   0.720   1.108  2.5902 -0.3641 -0.3058
24474SOL     OW74522   2.083   4.744   3.744 -0.1090  0.0215 -0.1342
24474SOL    HW174523   2.163   4.795   3.754 -0.6660  0.8443  0.2453
24474SOL    HW274524   2.077   4.692   3.824  0.3695 -0.5187 -0.4439
24475SOL     OW74525   1.854   4.161   6.251  0.4635  0.1473 -0.0612
24475SOL    HW174526   1.813   4.145   6.336  0.5918  0.5531  0.0823
24475SOL    HW274527   1.805   4.235   6.215 -0.1470 -0.5600 -0.7233
24476SOL     OW74528   5.344   4.018   3.969 -0.4028 -0.1905  0.3528
24476SOL    HW174529   5.371   3.989   4.056 -0.4046 -1.8114 -0.1619
24476SOL    HW274530   5.360   4.112   3.970  2.3560 -0.5699  1.1204
24477SOL     OW74531   2.885   2.949   7.396  0.0259 -0.0658 -0.5877
24477SOL    HW174532   2.802   2.911   7.424 -0.5380  0.7928 -1.0602
24477SOL    HW274533   2.866   3.042   7.384  1.5236  0.5111  1.1263
24478SOL     OW74534   0.368   4.715   8.157 -0.2780  0.6954 -0.5018
24478SOL    HW174535   0.396   4.686   8.244 -0.1912  0.6447 -0.5470
24478SOL    HW274536   0.285   4.669   8.141  0.3890 -0.3600 -1.0194
24479SOL     OW74537   8.000   5.981   3.282  0.5774 -0.0106 -0.1919
24479SOL    HW174538   8.082   6.020   3.311  0.0998  1.1640 -0.3607
24479SOL    HW274539   7.935   6.012   3.346  0.0853 -0.0255 -0.6772
24480SOL     OW74540   1.048   2.862   2.813 -0.0865  0.1587  0.0722
24480SOL    HW174541   1.021   2.941   2.767  2.0257  1.3117  0.6487
24480SOL    HW274542   0.975   2.841   2.871 -1.0812  1.0966 -0.7988
24481SOL     OW74543   6.385   8.175   2.800  0.6594 -0.8209  0.6324
24481SOL    HW174544   6.458   8.129   2.841  0.8868  0.4600  1.7068
24481SOL    HW274545   6.316   8.109   2.795  0.9135 -1.2660  2.3135
24482SOL     OW74546   6.800   3.371   8.853 -0.0510  0.1263 -0.2156
24482SOL    HW174547   6.722   3.360   8.907  0.1844 -0.0514  0.0901
24482SOL    HW274548   6.800   3.295   8.794 -0.0595  0.0786 -0.1538
24483SOL     OW74549   4.077   1.867   3.124 -0.2459  0.1263 -0.4809
24483SOL    HW174550   4.036   1.783   3.104  0.7266 -0.3767 -0.4354
24483SOL    HW274551   4.086   1.910   3.039  1.3396 -0.8158 -0.8277
24484SOL     OW74552   2.176   3.688   4.468 -0.0219  0.1790 -0.1623
24484SOL    HW174553   2.240   3.759   4.461  0.8063 -0.4994  0.3197
24484SOL    HW274554   2.092   3.732   4.478  0.4545  1.0909 -0.0831
24485SOL     OW74555   7.249   0.986   5.405 -0.0011  0.2461  0.0701
24485SOL    HW174556   7.197   1.065   5.420  0.7495  0.7010  0.3169
24485SOL    HW274557   7.197   0.934   5.343 -0.1018  1.3223 -0.7612
24486SOL     OW74558   0.578   8.477   0.054  0.1454  0.0616 -0.1055
24486SOL    HW174559   0.642   8.523   0.001 -0.2702  0.8478  0.0622
24486SOL    HW274560   0.551   8.402   0.000  2.0381 -0.9706  0.2782
24487SOL     OW74561   6.136   5.781   0.587  0.1410 -0.0719 -0.6371
24487SOL    HW174562   6.191   5.847   0.545  0.0309 -0.3880 -1.2972
24487SOL    HW274563   6.060   5.829   0.618  0.7527  0.3599  0.2383
24488SOL     OW74564   2.575   0.727   9.046 -0.1344  0.5502  0.0249
24488SOL    HW174565   2.576   0.802   9.105  0.8509  1.7628 -1.5003
24488SOL    HW274566   2.518   0.753   8.974  0.2351 -0.1542 -0.5409
24489SOL     OW74567   3.056   1.150   4.173 -0.3788  0.5490  0.1704
24489SOL    HW174568   3.121   1.215   4.148  1.0240 -1.0434 -0.5704
24489SOL    HW274569   2.972   1.190   4.150  0.4430  1.9451 -0.5541
24490SOL     OW74570   8.699   7.152   2.417 -0.1449  0.1880 -0.6287
24490SOL    HW174571   8.731   7.165   2.506  2.2014 -3.0942 -0.8092
24490SOL    HW274572   8.778   7.161   2.362 -0.3746 -3.0980 -1.6938
24491SOL     OW74573   4.181   4.790   8.286  0.1612  0.1334 -0.4881
24491SOL    HW174574   4.232   4.870   8.283 -0.3101  0.8024  3.4533
24491SOL    HW274575   4.243   4.723   8.316  0.0600 -0.5544 -1.7231
24492SOL     OW74576   4.863   2.231   3.788 -0.4444 -0.1148 -0.0362
24492SOL    HW174577   4.895   2.317   3.760  0.9698 -0.3174  0.8754
24492SOL    HW274578   4.833   2.244   3.877 -0.4103 -0.5178  0.0380
24493SOL     OW74579   0.497   7.318   3.177 -0.1551  0.0654  0.1922
24493SOL    HW174580   0.466   7.239   3.220  2.0243 -0.7389  0.4308
24493SOL    HW274581   0.542   7.367   3.246  0.6851  0.2634 -0.4755
24494SOL     OW74582   4.490   3.703   2.212  0.2414  0.0428  0.1347
24494SOL    HW174583   4.521   3.775   2.157 -1.5416  1.0954  0.4282
24494SOL    HW274584   4.529   3.720   2.297  2.0721 -0.9463 -0.4434
24495SOL     OW74585   4.649   3.814   1.383 -0.2233 -0.3912  0.1046
24495SOL    HW174586   4.672   3.833   1.474  1.7674  0.1066 -0.4444
24495SOL    HW274587   4.693   3.732   1.363 -0.3637 -0.3278 -0.5055
24496SOL     OW74588   1.313   6.217   6.211  0.2946  0.2019 -0.3807
24496SOL    HW174589   1.360   6.171   6.142  1.2997 -0.8892  0.9664
24496SOL    HW274590   1.373   6.287   6.238  0.8166 -0.6549  0.7547
24497SOL     OW74591   1.079   2.681   4.562  0.3265 -0.1252  0.0866
24497SOL    HW174592   1.037   2.606   4.520 -2.5703  1.8255 -0.8075
24497SOL    HW274593   1.070   2.664   4.656 -0.9123 -0.6210 -0.1030
24498SOL     OW74594   4.501   6.417   8.716  0.0836 -0.4158  0.2693
24498SOL    HW174595   4.422   6.364   8.708 -0.1065 -0.0882 -0.0944
24498SOL    HW274596   4.487   6.489   8.654 -0.0824  0.5815  1.4390
24499SOL     OW74597   2.353   1.101   0.553  0.0490  0.4768  0.1693
24499SOL    HW174598   2.328   1.087   0.644 -1.2608  3.6819  0.4121
24499SOL    HW274599   2.436   1.147   0.557 -0.0886  0.7729 -0.2356
24500SOL     OW74600   4.305   1.415   7.276  0.3126 -0.2691 -0.2699
24500SOL    HW174601   4.255   1.461   7.344  1.4120 -0.0451  0.3995
24500SOL    HW274602   4.334   1.334   7.318  0.3121 -0.5131 -0.7326
24501SOL     OW74603   0.098   7.424   3.791  0.3469  0.5340  0.2601
24501SOL    HW174604   0.170   7.469   3.834  0.0786  0.6010  0.6401
24501SOL    HW274605   0.141   7.365   3.728  0.7258  0.6563  0.4026
24502SOL     OW74606   5.522   0.031   3.011 -0.0045 -0.1713  0.2210
24502SOL    HW174607   5.442   0.030   2.958  0.3298  0.2312 -0.3032
24502SOL    HW274608   5.559  -0.056   3.001  0.4990  0.1659 -0.8972
24503SOL     OW74609   1.712   8.557   5.651 -0.2670  0.4267 -0.3747
24503SOL    HW174610   1.799   8.517   5.657 -0.2225  0.6405  0.5636
24503SOL    HW274611   1.701   8.576   5.558  0.4709 -0.0874 -0.5791
24504SOL     OW74612   7.280   0.643   7.959 -0.0263  0.3997  0.3028
24504SOL    HW174613   7.348   0.580   7.980  0.1170  0.1886 -0.7465
24504SOL    HW274614   7.256   0.682   8.043  3.1929  2.3756  0.4898
24505SOL     OW74615   7.435   7.779   0.212 -0.1782  0.0086  0.1266
24505SOL    HW174616   7.471   7.806   0.297 -0.8083 -0.4106  0.5383
24505SOL    HW274617   7.474   7.693   0.196 -1.0214 -0.4730  0.6021
24506SOL     OW74618   6.129   5.827   5.789 -0.5110  0.1500  0.2466
24506SOL    HW174619   6.153   5.817   5.697 -2.7643 -0.7101 -0.2984
24506SOL    HW274620   6.168   5.910   5.815 -1.3658  1.3371 -2.0286
24507SOL     OW74621   8.642   0.804   5.292 -0.1339 -0.1095 -0.0197
24507SOL    HW174622   8.701   0.733   5.268  0.4017  0.4136 -0.2718
24507SOL    HW274623   8.578   0.763   5.350  0.5117 -0.6760  0.3116
24508SOL     OW74624   5.597   2.078   3.661 -0.4035 -0.4870  0.1240
24508SOL    HW174625   5.530   2.061   3.595 -0.8922  0.6400  0.3183
24508SOL    HW274626   5.574   2.163   3.699  0.7572 -0.3805  0.6513
24509SOL     OW74627   5.682   0.701   1.563  0.2932  0.1358  0.3641
24509SOL    HW174628   5.682   0.657   1.478  0.1136  0.3459  0.2537
24509SOL    HW274629   5.771   0.736   1.573 -0.0353  1.2236 -0.3228
24510SOL     OW74630   1.469   1.018   1.938 -0.2594 -0.3841 -0.3731
24510SOL    HW174631   1.440   0.940   1.890 -1.6289 -0.1440 -0.0010
24510SOL    HW274632   1.407   1.086   1.911 -1.5449 -0.4164  2.2378
24511SOL     OW74633   4.238   0.337   3.362  0.0163  0.1199  0.5419
24511SOL    HW174634   4.250   0.419   3.409  1.2929 -0.4168  1.2152
24511SOL    HW274635   4.233   0.362   3.270 -0.8515  1.0439  0.8278
24512SOL     OW74636   7.359   1.340   2.354  0.1601  0.1108 -0.6808
24512SOL    HW174637   7.431   1.305   2.407  0.4358  2.5348  0.6994
24512SOL    HW274638   7.338   1.424   2.394 -0.8388  1.2897 -3.4025
24513SOL     OW74639   2.178   7.502   0.189  0.4697 -0.3893  0.8910
24513SOL    HW174640   2.152   7.593   0.199 -1.0368 -0.5331 -1.2735
24513SOL    HW274641   2.119   7.453   0.247  0.0435 -0.1510  0.6594
24514SOL     OW74642   3.022   6.604   6.750 -0.2022  0.0316  0.0046
24514SOL    HW174643   3.000   6.696   6.761  2.2586  0.5526  1.3789
24514SOL    HW274644   2.994   6.563   6.832 -0.8341 -0.3625 -0.4005
24515SOL     OW74645   0.607   7.180   0.803 -0.3635 -0.4483 -0.3724
24515SOL    HW174646   0.573   7.268   0.815 -0.9810 -0.6848 -0.3594
24515SOL    HW274647   0.533   7.122   0.823 -0.3263 -0.9431 -1.5989
24516SOL     OW74648   9.039   2.966   4.697  0.0150  0.3826 -0.0587
24516SOL    HW174649   9.034   2.871   4.706  0.2466  0.3583 -0.1869
24516SOL    HW274650   9.113   2.992   4.752  0.0629  0.4700 -0.1641
24517SOL     OW74651   9.052   7.509   4.747  0.2405  0.0915 -0.4630
24517SOL    HW174652   9.131   7.487   4.698 -0.0981 -1.9584 -0.1698
24517SOL    HW274653   8.990   7.538   4.680  0.9455  0.9215 -0.7855
24518SOL     OW74654   3.207   6.168   6.682 -0.0923 -0.6334  0.4760
24518SOL    HW174655   3.289   6.124   6.658  0.9793  1.2567  0.4687
24518SOL    HW274656   3.176   6.206   6.600  1.0829  1.8499  1.0995
24519SOL     OW74657   1.258   7.788   6.478  0.4580  1.1456  0.3509
24519SOL    HW174658   1.219   7.825   6.399  0.3218  0.1510 -0.0606
24519SOL    HW274659   1.201   7.715   6.501  0.9124  0.9685  0.9470
24520SOL     OW74660   4.054   0.488   7.244 -0.6512  0.2195 -0.0894
24520SOL    HW174661   4.053   0.395   7.265  0.1436 -0.4688 -2.6985
24520SOL    HW274662   4.062   0.491   7.149 -2.7402  2.9643 -0.3153
24521SOL     OW74663   2.879   5.599   8.638 -0.0996  0.1643 -0.7574
24521SOL    HW174664   2.957   5.546   8.619 -0.7054 -1.0437 -0.0021
24521SOL    HW274665   2.813   5.566   8.578 -0.7769 -0.6986  0.4114
24522SOL     OW74666   2.808   1.246   1.988 -0.0331  0.4078  0.3923
24522SOL    HW174667   2.827   1.244   2.082 -1.9786 -1.3614  0.8219
24522SOL    HW274668   2.713   1.254   1.983  0.0725  0.9729 -1.4625
24523SOL     OW74669   6.898   8.488   7.906 -0.0113  0.1738 -0.1113
24523SOL    HW174670   6.993   8.480   7.910 -0.1122 -0.9473  0.9964
24523SOL    HW274671   6.881   8.559   7.845  1.5162 -0.2189 -1.0267
24524SOL     OW74672   4.044   8.808   6.578  0.3100 -0.2224 -0.2208
24524SOL    HW174673   4.126   8.832   6.534  1.2782  0.0572  1.6590
24524SOL    HW274674   4.052   8.845   6.666 -1.3236 -1.2306  0.3912
24525SOL     OW74675   3.875   2.148   8.260 -0.6221 -0.1482  0.2572
24525SOL    HW174676   3.906   2.193   8.181 -0.1047 -1.7267 -0.4833
24525SOL    HW274677   3.906   2.202   8.333  1.9064 -0.4472 -0.5183
24526SOL     OW74678   6.070   2.054   1.811 -0.2996  1.1500  0.1109
24526SOL    HW174679   6.103   1.988   1.750 -1.9615  0.1831  0.2128
24526SOL    HW274680   6.062   2.008   1.895  0.1902  1.9748  0.6300
24527SOL     OW74681   7.547   4.929   0.345  0.9032  0.9732  0.6115
24527SOL    HW174682   7.533   4.931   0.440 -0.8661 -0.3465  0.4446
24527SOL    HW274683   7.588   5.013   0.325 -0.6478  2.2267  2.2867
24528SOL     OW74684   8.846   1.544   1.536 -0.0166  0.2541  0.1929
24528SOL    HW174685   8.785   1.542   1.461 -0.7328 -1.6291  0.7661
24528SOL    HW274686   8.805   1.487   1.601  1.9413 -0.3720  0.9493
24529SOL     OW74687   4.072   5.149   8.384  0.4424 -0.1033 -0.3322
24529SOL    HW174688   4.155   5.114   8.351  0.9575  1.2206 -0.5004
24529SOL    HW274689   4.070   5.122   8.476  1.9670  1.3509  0.1922
24530SOL     OW74690   6.007   3.867   9.015 -0.1007 -0.0752  0.3525
24530SOL    HW174691   6.067   3.897   9.084 -0.1025 -0.3452  0.4725
24530SOL    HW274692   5.974   3.783   9.047  0.6636 -0.6888 -0.4422
24531SOL     OW74693   7.388   3.784   4.841 -0.6904  0.0587 -0.0800
24531SOL    HW174694   7.449   3.714   4.864  0.5199  1.0833 -0.0514
24531SOL    HW274695   7.308   3.739   4.817 -0.4555 -1.2742  1.4395
24532SOL     OW74696   1.927   3.445   8.854  0.0629 -0.4746  0.1440
24532SOL    HW174697   1.905   3.360   8.892 -2.6220 -0.6550 -1.5604
24532SOL    HW274698   1.986   3.424   8.782 -1.9674 -1.1950 -1.4001
24533SOL     OW74699   0.678   5.801   5.115 -0.0661 -0.2183  0.3681
24533SOL    HW174700   0.721   5.870   5.165 -0.8393 -1.0693  2.3139
24533SOL    HW274701   0.670   5.837   5.026  0.1012  1.9284  1.1689
24534SOL     OW74702   0.351   2.471   4.688 -0.3774  0.4377  0.6047
24534SOL    HW174703   0.351   2.376   4.697  0.9956  0.3319 -0.3233
24534SOL    HW274704   0.282   2.489   4.624  0.4652 -0.0841 -0.4761
24535SOL     OW74705   6.312   5.331   5.002 -0.1119 -0.4692 -0.1622
24535SOL    HW174706   6.387   5.302   5.053  0.5702 -1.5392 -1.7055
24535SOL    HW274707   6.323   5.289   4.917 -1.4558  0.8751 -1.0505
24536SOL     OW74708   4.022   8.516   0.539  0.3652 -0.5541  0.0773
24536SOL    HW174709   3.953   8.468   0.586  0.5995 -1.1679 -0.2037
24536SOL    HW274710   3.991   8.607   0.539 -0.4672 -0.8220 -0.0713
24537SOL     OW74711   2.095   5.016   0.834  0.5611 -0.0490 -0.7137
24537SOL    HW174712   2.180   5.058   0.848 -0.8242  2.2634  1.5299
24537SOL    HW274713   2.117   4.928   0.804  3.7805 -0.0831  1.3034
24538SOL     OW74714   7.735   6.934   4.014  0.7523 -0.0805  0.1171
24538SOL    HW174715   7.754   6.996   4.084 -0.0273  0.6706 -0.3076
24538SOL    HW274716   7.815   6.929   3.963  0.2194  2.2812 -1.1042
24539SOL     OW74717   3.812   1.821   0.833 -0.1033  0.5496  0.0476
24539SOL    HW174718   3.866   1.768   0.891  1.2771  1.4757 -0.3160
24539SOL    HW274719   3.819   1.910   0.868  0.3533  1.0412 -1.2109
24540SOL     OW74720   0.042   1.482   6.320 -0.1456 -0.3235  0.3380
24540SOL    HW174721   0.109   1.477   6.387 -0.1554 -0.3227  0.3472
24540SOL    HW274722  -0.023   1.417   6.345  0.4672 -1.2426 -0.3524
24541SOL     OW74723   0.427   2.239   7.509  0.0510 -0.0249 -0.0796
24541SOL    HW174724   0.383   2.212   7.428  1.2449 -0.1520 -0.7197
24541SOL    HW274725   0.395   2.328   7.526 -0.1973  0.0091 -0.7001
24542SOL     OW74726   0.016   6.965   1.695 -0.1487  0.5346 -0.0150
24542SOL    HW174727   0.042   7.052   1.666 -1.9035  1.3240  0.6038
24542SOL    HW274728   0.098   6.917   1.704  1.2409  3.1153  2.9023
24543SOL     OW74729   2.969   2.971   0.055  0.0611 -0.2240 -0.0440
24543SOL    HW174730   3.021   2.901   0.018 -0.2337  0.0664 -1.0313
24543SOL    HW274731   3.032   3.027   0.101  0.3503 -0.8938  0.3791
24544SOL     OW74732   0.781   8.231   9.065  0.4246 -0.0904 -0.4159
24544SOL    HW174733   0.752   8.220   8.974  0.2219 -2.9766 -0.1069
24544SOL    HW274734   0.876   8.243   9.058  0.0263  4.3715 -1.1387
24545SOL     OW74735   2.671   1.797   5.507  0.3839 -0.2687 -0.1428
24545SOL    HW174736   2.638   1.824   5.593  0.2652 -0.9841  0.0402
24545SOL    HW274737   2.703   1.708   5.520  2.0176  0.2466 -0.4265
24546SOL     OW74738   7.605   4.029   5.226 -0.6336  0.0770  0.1660
24546SOL    HW174739   7.528   4.063   5.271 -2.2315 -2.6330 -0.2968
24546SOL    HW274740   7.595   4.057   5.135 -0.1940  1.0544  0.4033
24547SOL     OW74741   5.485   5.308   3.293 -0.2282  0.5911  0.2174
24547SOL    HW174742   5.432   5.276   3.366 -0.2069  1.3270  0.5586
24547SOL    HW274743   5.522   5.228   3.254  1.3393  0.2650  2.2121
24548SOL     OW74744   7.907   1.251   3.326 -0.4510 -0.4032  0.1707
24548SOL    HW174745   7.868   1.173   3.285 -0.8745 -0.1781  0.1450
24548SOL    HW274746   7.855   1.265   3.405  0.0497 -0.5384  0.5338
24549SOL     OW74747   1.107   4.354   5.700  0.4253 -0.1629 -0.2529
24549SOL    HW174748   1.051   4.383   5.772 -0.4171 -0.2882 -0.8429
24549SOL    HW274749   1.046   4.328   5.631  1.1879 -1.8144 -0.3351
24550SOL     OW74750   0.833   0.350   6.688 -0.5336  0.3052 -0.0615
24550SOL    HW174751   0.907   0.299   6.656 -1.3591 -0.3222 -1.0030
24550SOL    HW274752   0.834   0.430   6.636 -0.4578  0.3528  0.0117
24551SOL     OW74753   3.701   8.512   7.086 -0.5436 -0.1179 -0.3784
24551SOL    HW174754   3.763   8.556   7.027 -0.7661  1.3538  0.4291
24551SOL    HW274755   3.756   8.475   7.155 -0.5458  3.6112  1.9327
24552SOL     OW74756   3.853   5.577   2.424  0.2445  0.0287  0.0858
24552SOL    HW174757   3.857   5.482   2.414  2.4433 -0.2110  2.2789
24552SOL    HW274758   3.943   5.603   2.444 -0.7001  2.2487  1.9253
24553SOL     OW74759   6.277   8.196   4.281  0.3933 -0.3373  0.3091
24553SOL    HW174760   6.344   8.196   4.349 -0.0111 -0.9837  0.7116
24553SOL    HW274761   6.200   8.157   4.322  0.6831 -2.4829 -1.0179
24554SOL     OW74762   6.457   2.907   2.448 -0.3441  0.4128 -0.5804
24554SOL    HW174763   6.422   2.846   2.383 -1.6720 -0.8816  1.2448
24554SOL    HW274764   6.523   2.957   2.401 -1.5336 -0.1546 -3.0369
24555SOL     OW74765   4.661   4.376   0.953 -0.2874  0.4243 -0.5787
24555SOL    HW174766   4.663   4.470   0.939  0.4300  0.1837 -2.3300
24555SOL    HW274767   4.749   4.346   0.928 -0.4695 -0.7024  0.0495
24556SOL     OW74768   2.655   1.567   4.125 -0.2629  0.3850 -0.5095
24556SOL    HW174769   2.685   1.491   4.074 -2.7395 -0.1779 -1.3103
24556SOL    HW274770   2.733   1.621   4.137  0.6883  0.0820 -4.1424
24557SOL     OW74771   4.810   6.307   7.421 -0.0605 -0.6434  0.1877
24557SOL    HW174772   4.778   6.220   7.396 -0.9015  0.1279 -1.5625
24557SOL    HW274773   4.854   6.340   7.343  0.8645  0.2643  1.0527
24558SOL     OW74774   2.845   5.434   2.942 -0.0888  0.4517 -0.7339
24558SOL    HW174775   2.780   5.365   2.927  0.2147  0.3707 -1.7242
24558SOL    HW274776   2.798   5.516   2.924 -0.6367  0.5830  1.0678
24559SOL     OW74777   7.962   3.532   8.664  0.2186 -0.0640  0.0538
24559SOL    HW174778   8.025   3.601   8.642 -1.2104  1.6548  1.0391
24559SOL    HW274779   7.879   3.562   8.625 -0.4696 -1.1702  0.6198
24560SOL     OW74780   1.507   0.072   1.979 -0.4024  0.0869 -0.0651
24560SOL    HW174781   1.548   0.073   2.066  0.5777 -0.7292 -0.5003
24560SOL    HW274782   1.515  -0.019   1.949  0.2382  0.5690 -1.4479
24561SOL     OW74783   1.324   4.925   2.292 -0.0361  0.0632  0.0382
24561SOL    HW174784   1.287   4.837   2.282  0.3593 -0.2310  1.0098
24561SOL    HW274785   1.273   4.980   2.232 -2.5927 -0.1598  1.8490
24562SOL     OW74786   6.642   5.777   6.083  0.1218  0.1162  0.1492
24562SOL    HW174787   6.613   5.806   5.996  0.5775 -0.2176 -0.1210
24562SOL    HW274788   6.736   5.760   6.072 -0.0117 -0.8816  0.4551
24563SOL     OW74789   1.160   8.667   1.543  0.1361  0.8534  0.1064
24563SOL    HW174790   1.113   8.663   1.460 -0.0557  0.1853  0.2410
24563SOL    HW274791   1.240   8.616   1.528 -0.5637 -0.4723  0.7463
24564SOL     OW74792   2.426   8.136   7.356 -0.0220  0.6982  0.1311
24564SOL    HW174793   2.505   8.185   7.336  0.5924 -0.3027  0.0405
24564SOL    HW274794   2.366   8.157   7.284  1.3864 -1.1692 -1.6959
24565SOL     OW74795   7.255   4.497   4.452  0.0826  0.1048  0.0362
24565SOL    HW174796   7.180   4.508   4.510 -0.2728 -1.5131 -0.0506
24565SOL    HW274797   7.242   4.561   4.383 -0.6466  0.5814  0.6006
24566SOL     OW74798   4.510   2.126   1.278  0.0929  0.3027  0.3619
24566SOL    HW174799   4.596   2.109   1.315  2.0335  2.7337 -2.5217
24566SOL    HW274800   4.519   2.107   1.185 -1.7822  2.5880 -0.4115
24567SOL     OW74801   5.943   1.602   4.613 -0.1756 -0.7347 -0.6255
24567SOL    HW174802   6.013   1.661   4.640  0.3213 -0.3543 -2.5912
24567SOL    HW274803   5.868   1.627   4.666  0.4714  0.5724 -0.2985
24568SOL     OW74804   1.070   3.874   0.629 -0.1113 -0.8910  0.0170
24568SOL    HW174805   1.060   3.779   0.629 -0.8444 -0.8235  0.4104
24568SOL    HW274806   1.147   3.890   0.684  0.2342 -1.2714 -0.3480
24569SOL     OW74807   5.176   3.815   4.720  0.1644  0.0593  0.4256
24569SOL    HW174808   5.117   3.860   4.780 -0.3095 -0.5984  0.4634
24569SOL    HW274809   5.261   3.815   4.765  0.4702  1.8904 -0.0587
24570SOL     OW74810   6.227   5.047   1.730  0.1134 -0.0556 -0.1883
24570SOL    HW174811   6.169   5.008   1.796  0.2385  0.8922  0.4982
24570SOL    HW274812   6.293   4.979   1.714 -1.3256 -1.2855 -1.2317
24571SOL     OW74813   5.612   8.062   1.870  0.2432  0.3514  0.3541
24571SOL    HW174814   5.618   8.106   1.955  0.6360  1.6340 -0.3047
24571SOL    HW274815   5.698   8.075   1.830  0.8658 -2.2658  0.6713
24572SOL     OW74816   3.492   5.347   8.870 -0.5118  0.4092 -0.0924
24572SOL    HW174817   3.478   5.277   8.806 -0.4197 -0.0347  0.3692
24572SOL    HW274818   3.587   5.358   8.872 -0.3474 -0.9985  1.4593
24573SOL     OW74819   6.658   5.190   0.397 -0.2625  0.3213 -0.3417
24573SOL    HW174820   6.681   5.282   0.383  2.6398  0.2340  2.5762
24573SOL    HW274821   6.619   5.187   0.484 -0.7944 -1.1730 -0.5933
24574SOL     OW74822   6.963   6.422   5.034 -0.3378 -0.4762  0.2505
24574SOL    HW174823   7.012   6.440   4.954 -0.5850 -2.4283 -0.3890
24574SOL    HW274824   7.026   6.378   5.091 -0.1143  1.0537  1.2368
24575SOL     OW74825   8.872   0.971   6.157 -0.1211 -0.2458 -0.4636
24575SOL    HW174826   8.866   0.913   6.232 -1.3282  1.4911  0.8605
24575SOL    HW274827   8.966   0.987   6.146  0.0518 -0.1967  0.9607
24576SOL     OW74828   4.630   5.272   4.014  0.0593 -0.3113  0.1017
24576SOL    HW174829   4.669   5.216   3.947  0.5649  0.0741  0.0631
24576SOL    HW274830   4.573   5.214   4.064  0.6472 -0.8892  0.1217
24577SOL     OW74831   5.995   7.048   8.171  0.6519  0.4863 -0.2807
24577SOL    HW174832   5.934   7.107   8.215 -0.6759 -0.0020 -1.4052
24577SOL    HW274833   6.073   7.101   8.156 -0.2194  1.7183 -0.5746
24578SOL     OW74834   2.822   3.139   4.348 -0.1318 -0.5410 -0.1031
24578SOL    HW174835   2.808   3.046   4.330 -1.0829 -0.7105  1.3307
24578SOL    HW274836   2.735   3.173   4.368  0.2957  0.5269  0.0176
24579SOL     OW74837   1.231   0.122   4.150  0.6348  0.4628 -0.0676
24579SOL    HW174838   1.300   0.079   4.201  1.4860  1.2786 -0.4940
24579SOL    HW274839   1.149   0.089   4.188  1.2335 -1.5843 -0.4497
24580SOL     OW74840   0.718   3.441   8.383 -0.5589 -0.3086  0.9562
24580SOL    HW174841   0.708   3.510   8.449  1.4506 -0.3032  1.3221
24580SOL    HW274842   0.629   3.411   8.366 -1.3274  1.2387  2.0104
24581SOL     OW74843   2.020   3.550   1.819  0.2986  0.4090  0.2093
24581SOL    HW174844   1.964   3.612   1.772  1.1682  0.1373 -1.2398
24581SOL    HW274845   1.965   3.518   1.892 -1.1071  0.8061 -0.6417
24582SOL     OW74846   1.214   6.693   2.983 -0.3969 -0.6678 -0.0970
24582SOL    HW174847   1.219   6.783   2.950  0.9059  0.0717  1.9478
24582SOL    HW274848   1.188   6.642   2.907  0.2695  1.2270 -1.6966
24583SOL     OW74849   7.643   5.663   4.080 -0.2767  0.2450 -0.3891
24583SOL    HW174850   7.575   5.722   4.112  0.4308  0.7167  0.2459
24583SOL    HW274851   7.689   5.634   4.159  0.9951  0.8253 -0.8957
24584SOL     OW74852   0.868   7.221   7.483 -0.0446 -0.0421 -0.4192
24584SOL    HW174853   0.941   7.191   7.429  0.0160  0.1420 -0.4413
24584SOL    HW274854   0.897   7.305   7.517 -0.3786  0.1874 -0.6904
24585SOL     OW74855   0.698   3.389   0.754  0.3303  0.4977  0.6884
24585SOL    HW174856   0.659   3.356   0.673  0.2813  1.8721  0.1191
24585SOL    HW274857   0.782   3.343   0.761  0.1655  0.0870  0.0666
24586SOL     OW74858   3.817   8.093   0.330 -0.0943 -0.1175  0.2098
24586SOL    HW174859   3.801   8.154   0.258 -0.6192  1.4975  1.6338
24586SOL    HW274860   3.905   8.115   0.361 -0.0421 -0.5086  0.3445
24587SOL     OW74861   2.922   5.771   7.442 -0.0190 -0.5835 -0.1907
24587SOL    HW174862   2.917   5.852   7.493 -0.4676 -1.1314  0.6713
24587SOL    HW274863   2.876   5.791   7.361  1.0051  0.4187 -0.5571
24588SOL     OW74864   7.315   5.721   0.305  0.1117  0.1851 -0.3447
24588SOL    HW174865   7.342   5.640   0.348  1.2897 -0.1123 -1.5733
24588SOL    HW274866   7.284   5.693   0.219 -1.0803  0.8841 -0.1647
24589SOL     OW74867   0.597   4.077   7.175 -0.0617  0.4989  0.4958
24589SOL    HW174868   0.688   4.096   7.152 -0.2584 -0.7018 -1.4634
24589SOL    HW274869   0.554   4.061   7.091 -1.6147 -0.9918  1.5116
24590SOL     OW74870   5.534   4.876   5.170  0.5216  0.0249 -0.0689
24590SOL    HW174871   5.529   4.812   5.099 -0.6842  0.7075 -0.6325
24590SOL    HW274872   5.539   4.823   5.249  0.0682 -0.7620 -0.5485
24591SOL     OW74873   0.612   7.408   8.280 -0.3349 -0.5955 -0.5056
24591SOL    HW174874   0.667   7.433   8.355 -1.8107  0.7288  0.1760
24591SOL    HW274875   0.655   7.330   8.245  2.0814  0.4505 -0.1222
24592SOL     OW74876   4.094   1.928   1.603 -0.1617 -0.0735 -0.0116
24592SOL    HW174877   4.005   1.953   1.629  0.5334  0.2656  2.1861
24592SOL    HW274878   4.108   1.844   1.646  0.3239 -0.5249 -1.0150
24593SOL     OW74879   7.301   4.052   8.335 -0.8205  0.0117 -0.4900
24593SOL    HW174880   7.227   3.998   8.308 -1.0415  0.1666 -0.1940
24593SOL    HW274881   7.263   4.120   8.390 -0.2210 -1.2177  1.5414
24594SOL     OW74882   8.985   1.051   2.654 -0.4196 -0.0403  0.7725
24594SOL    HW174883   9.057   1.058   2.717  0.8256  1.6146 -0.7491
24594SOL    HW274884   8.994   0.963   2.617  0.6400  0.0319  0.8302
24595SOL     OW74885   0.978   3.291   2.129 -0.0522  0.3251 -0.9095
24595SOL    HW174886   0.962   3.385   2.114  1.5372  1.2430  2.4221
24595SOL    HW274887   0.893   3.257   2.158 -0.2737  1.0994 -0.6223
24596SOL     OW74888   6.696   5.995   7.173 -0.5198 -0.2727  0.0804
24596SOL    HW174889   6.705   6.052   7.250  0.0095 -0.3066  0.0468
24596SOL    HW274890   6.700   6.055   7.099 -0.0800 -0.3403  0.0487
24597SOL     OW74891   7.346   7.434   1.120  0.0408  0.7521 -0.1136
24597SOL    HW174892   7.419   7.419   1.181  0.6685  3.2973 -0.1128
24597SOL    HW274893   7.386   7.426   1.033  0.5997  2.8771 -0.1182
24598SOL     OW74894   8.595   6.335   0.657  0.0377  0.0475  0.4041
24598SOL    HW174895   8.554   6.297   0.579 -0.9716  0.2947  0.7906
24598SOL    HW274896   8.587   6.430   0.644  1.1711  0.1270  0.1537
24599SOL     OW74897   8.157   0.133   8.433  0.2275  0.0657  0.1514
24599SOL    HW174898   8.215   0.188   8.486 -0.8171 -0.1763  1.6074
24599SOL    HW274899   8.071   0.141   8.475 -0.2822 -1.4781 -0.5151
24600SOL     OW74900   7.076   8.292   3.048  0.4297  0.1290 -0.3296
24600SOL    HW174901   6.983   8.268   3.045  0.7666 -1.5912  1.0612
24600SOL    HW274902   7.103   8.296   2.957 -0.9070  0.2673 -0.7460
24601SOL     OW74903   3.342   8.199   8.855 -0.6028  0.2474 -0.1922
24601SOL    HW174904   3.262   8.218   8.806  0.9224  2.9524 -1.8598
24601SOL    HW274905   3.394   8.279   8.849  1.5008 -0.7683  2.3696
24602SOL     OW74906   6.408   0.136   6.082  0.7341  0.0024 -0.0644
24602SOL    HW174907   6.344   0.189   6.035 -1.4687 -1.0635  1.5451
24602SOL    HW274908   6.410   0.053   6.036 -0.9122 -0.7986  1.1865
24603SOL     OW74909   6.431   1.110   2.795  0.6502  0.5310  0.3128
24603SOL    HW174910   6.469   1.029   2.761  0.0716  0.0281  0.8338
24603SOL    HW274911   6.456   1.177   2.731 -0.9737 -0.4961 -1.5134
24604SOL     OW74912   6.703   8.899   2.814  0.0277  0.5986  0.0197
24604SOL    HW174913   6.764   8.970   2.795  0.8655 -0.2134 -0.4239
24604SOL    HW274914   6.757   8.830   2.853 -0.9880  0.6829  1.7137
24605SOL     OW74915   2.116   1.872   7.882 -0.0785 -0.2053  0.5195
24605SOL    HW174916   2.179   1.936   7.915  0.8765 -0.4821 -0.7001
24605SOL    HW274917   2.158   1.787   7.897 -0.6619 -0.4657  0.7168
24606SOL     OW74918   2.017   8.394   0.457 -0.7139 -0.1361 -0.0390
24606SOL    HW174919   1.981   8.342   0.529  0.4599 -1.6257 -0.4669
24606SOL    HW274920   1.942   8.411   0.400 -1.4793  0.2853  1.0474
24607SOL     OW74921   1.149   3.078   4.629 -0.7159  0.1537 -0.6080
24607SOL    HW174922   1.109   3.024   4.561  0.7631  1.2085 -2.4045
24607SOL    HW274923   1.107   3.049   4.710 -2.1248 -1.5625 -1.8670
24608SOL     OW74924   5.109   7.708   6.700 -0.1399 -0.0649 -0.3287
24608SOL    HW174925   5.178   7.756   6.654  1.0935 -1.1452  0.3464
24608SOL    HW274926   5.110   7.621   6.660  0.3973 -0.7693  1.1445
24609SOL     OW74927   2.494   8.550   3.126  0.1871 -0.0170  0.0648
24609SOL    HW174928   2.545   8.628   3.105 -0.0150 -0.0172 -0.4494
24609SOL    HW274929   2.522   8.526   3.214  0.5772  0.3743  0.0521
24610SOL     OW74930   0.008   7.448   6.346  0.1941  0.2944  0.4265
24610SOL    HW174931  -0.081   7.480   6.336 -0.1972 -0.5963  0.9409
24610SOL    HW274932   0.006   7.393   6.424  0.9719 -0.4953 -0.0805
24611SOL     OW74933   1.115   2.219   8.941 -0.2293 -0.2952 -0.3525
24611SOL    HW174934   1.134   2.312   8.953  3.3862 -1.0330  0.6522
24611SOL    HW274935   1.033   2.205   8.989  0.2655  1.9671  1.3113
24612SOL     OW74936   0.256   0.434   3.738 -0.7488  0.4112 -0.7180
24612SOL    HW174937   0.349   0.432   3.716  0.2565  3.1664  2.3908
24612SOL    HW274938   0.240   0.350   3.781 -0.4035 -1.0441 -3.2299
24613SOL     OW74939   3.645   7.984   3.937  0.1209  0.5670  0.1030
24613SOL    HW174940   3.627   7.913   3.876  0.6338  1.0027 -0.5782
24613SOL    HW274941   3.729   8.020   3.908 -0.6829  2.2141 -0.3162
24614SOL     OW74942   6.407   2.001   8.134 -0.5439 -0.1693  0.1272
24614SOL    HW174943   6.438   2.042   8.053 -0.0640 -0.1565  0.3149
24614SOL    HW274944   6.454   2.047   8.203  0.3169 -1.2978  0.3260
24615SOL     OW74945   5.137   7.699   2.683  0.0245  0.2064 -0.2228
24615SOL    HW174946   5.217   7.728   2.727 -1.1905  1.9117  1.0037
24615SOL    HW274947   5.167   7.642   2.613  2.1851 -1.1146  1.6368
24616SOL     OW74948   2.036   4.587   4.525 -0.3231  0.7189 -0.4451
24616SOL    HW174949   2.129   4.569   4.543 -0.7215 -1.1212  0.0404
24616SOL    HW274950   2.000   4.612   4.609 -0.8596 -1.6214  0.0981
24617SOL     OW74951   1.559   8.716   4.663 -0.2495  0.2140 -0.8880
24617SOL    HW174952   1.541   8.780   4.732 -0.6699  0.1527 -0.9369
24617SOL    HW274953   1.649   8.734   4.636 -0.1408  0.3494 -0.4409
24618SOL     OW74954   2.228   7.841   2.569  0.7383 -0.2791 -0.2948
24618SOL    HW174955   2.252   7.813   2.480  1.5445  0.2077 -0.2411
24618SOL    HW274956   2.306   7.821   2.621  0.2524 -0.5964  0.3182
24619SOL     OW74957   8.949   6.052   1.542  0.3036  0.3217 -0.0292
24619SOL    HW174958   8.901   5.973   1.516  2.4415 -0.8793 -0.5823
24619SOL    HW274959   8.973   6.036   1.634 -0.2699  0.8946  0.2304
24620SOL     OW74960   5.371   1.012   3.109  1.0615  0.4773  0.3003
24620SOL    HW174961   5.366   1.091   3.056  0.0225  0.7421  0.7764
24620SOL    HW274962   5.380   0.941   3.045  1.7684  0.9516 -0.1386
24621SOL     OW74963   1.729   7.234   7.767 -0.0965 -0.1954 -0.2509
24621SOL    HW174964   1.821   7.253   7.746 -0.0273  2.4750  1.9272
24621SOL    HW274965   1.679   7.293   7.710 -0.5233 -1.6666 -1.4544
24622SOL     OW74966   7.934   6.101   6.825 -0.1677  0.0506 -0.0801
24622SOL    HW174967   7.876   6.035   6.786 -1.4886  0.3736  1.2746
24622SOL    HW274968   7.898   6.184   6.795 -0.1226  0.2335  0.3678
24623SOL     OW74969   2.364   7.107   4.693  0.4994 -0.7324  0.3910
24623SOL    HW174970   2.342   7.158   4.615 -0.0255  0.3287  1.1878
24623SOL    HW274971   2.288   7.051   4.707  1.6180 -2.7975 -1.2431
24624SOL     OW74972   8.745   3.514   2.804 -0.3131  0.3289 -0.6051
24624SOL    HW174973   8.746   3.471   2.719 -0.3526  0.4620 -0.6725
24624SOL    HW274974   8.825   3.566   2.806 -1.2121  1.7956 -1.3132
24625SOL     OW74975   3.088   3.585   8.989  0.1240 -0.0273  0.7805
24625SOL    HW174976   2.996   3.589   9.012  0.2091 -0.0628  1.1322
24625SOL    HW274977   3.130   3.650   9.046  0.0700  1.3215 -0.6310
24626SOL     OW74978   0.703   4.775   9.052  0.1037 -0.3545 -0.2684
24626SOL    HW174979   0.727   4.865   9.072  0.0655 -0.6964  1.4339
24626SOL    HW274980   0.659   4.743   9.131  1.4249 -2.3135 -0.2449
24627SOL     OW74981   7.570   7.358   4.299 -0.0141  0.6497 -0.3362
24627SOL    HW174982   7.587   7.452   4.286 -0.6172  0.8622  0.3110
24627SOL    HW274983   7.475   7.350   4.290 -0.3567  0.6266  2.5344
24628SOL     OW74984   8.297   6.304   5.342 -0.3108  0.0814 -0.4576
24628SOL    HW174985   8.216   6.262   5.372 -1.3738 -0.1791 -3.4020
24628SOL    HW274986   8.334   6.243   5.278  2.1885  0.2793  0.6694
24629SOL     OW74987   5.917   7.369   3.197 -0.0566  0.3210 -0.2880
24629SOL    HW174988   5.929   7.435   3.129  0.9313  0.4636  0.0011
24629SOL    HW274989   5.833   7.390   3.238  0.3548  1.5492 -0.0395
24630SOL     OW74990   0.662   0.362   1.535  0.0476 -0.0954 -0.3029
24630SOL    HW174991   0.717   0.349   1.613  2.9435  1.5273 -1.8827
24630SOL    HW274992   0.630   0.452   1.544  0.2242  0.0271 -0.8744
24631SOL     OW74993   9.071   0.670   4.744  0.6413 -0.0528 -0.2743
24631SOL    HW174994   9.013   0.670   4.821 -0.0462 -2.1093 -0.7213
24631SOL    HW274995   9.048   0.750   4.697 -0.4099  0.1829  0.5948
24632SOL     OW74996   0.175   8.308   9.033 -0.1064  0.6556 -0.5314
24632SOL    HW174997   0.253   8.307   9.090 -0.5305 -0.4971  0.0601
24632SOL    HW274998   0.204   8.264   8.953  0.0380  0.8188 -0.5690
24633SOL     OW74999   6.126   5.744   5.125 -0.5334 -0.2911 -0.8629
24633SOL    HW175000   6.208   5.727   5.079 -0.1886  0.5513 -0.5907
24633SOL    HW275001   6.075   5.664   5.114  0.5186 -1.0163 -0.6227
24634SOL     OW75002   3.276   9.069   6.183  0.0275  0.4611  0.0642
24634SOL    HW175003   3.276   9.103   6.093  0.8009  0.2952 -0.0065
24634SOL    HW275004   3.215   9.126   6.229 -0.4977  0.4519 -0.6019
24635SOL     OW75005   0.801   3.648   0.107  0.2124  0.1412  0.2301
24635SOL    HW175006   0.832   3.699   0.182  0.1195  0.7998 -0.1680
24635SOL    HW275007   0.819   3.557   0.131 -1.5845  0.1542  1.8890
24636SOL     OW75008   5.646   7.265   5.270  0.5048  0.0669  0.1616
24636SOL    HW175009   5.590   7.309   5.206  2.0113  0.5897 -0.8755
24636SOL    HW275010   5.613   7.294   5.355 -2.9434 -2.3515 -0.1673
24637SOL     OW75011   1.367   8.993   6.974  0.4159 -0.6726  0.2953
24637SOL    HW175012   1.343   8.998   6.881  2.5618 -1.6168 -0.3575
24637SOL    HW275013   1.390   9.083   6.998 -0.6801 -0.3228  0.1026
24638SOL     OW75014   0.160   5.077   0.344 -0.2058  0.1808  0.2524
24638SOL    HW175015   0.238   5.099   0.292  0.1119 -0.3777  0.4754
24638SOL    HW275016   0.090   5.069   0.280 -0.1150  0.8283  0.0616
24639SOL     OW75017   0.528   8.748   8.990 -0.1726 -1.1255  0.4132
24639SOL    HW175018   0.483   8.677   8.945 -1.1284  0.2120 -0.8366
24639SOL    HW275019   0.532   8.721   9.082 -0.7180 -2.6593  0.0043
24640SOL     OW75020   1.139   0.771   8.019 -0.4100  0.2432  0.0925
24640SOL    HW175021   1.076   0.709   8.056 -0.7219 -0.0705 -0.9488
24640SOL    HW275022   1.159   0.737   7.932  0.4155  0.9015  0.0062
24641SOL     OW75023   6.143   0.603   7.167  0.1727  0.1896  0.3831
24641SOL    HW175024   6.163   0.601   7.073 -0.8531 -0.1015  0.1607
24641SOL    HW275025   6.053   0.572   7.173 -0.1755  1.3301  1.3578
24642SOL     OW75026   1.050   7.370   1.049 -0.4722  0.1654 -0.5914
24642SOL    HW175027   1.024   7.441   1.107  1.6645  1.7561 -1.4201
24642SOL    HW275028   0.978   7.362   0.986 -1.4504  0.4682  0.4623
24643SOL     OW75029   7.994   7.355   7.553  0.1842  0.3453 -0.3033
24643SOL    HW175030   7.901   7.370   7.539 -0.0787  0.2956  1.2035
24643SOL    HW275031   8.008   7.263   7.531 -0.0982  0.3895 -0.6625
24644SOL     OW75032   7.786   5.053   6.637  0.2527 -0.4254 -0.0830
24644SOL    HW175033   7.773   4.999   6.559 -0.1571 -1.0399  0.3949
24644SOL    HW275034   7.698   5.065   6.673  0.3631  0.3992 -0.0658
24645SOL     OW75035   6.786   3.954   3.925 -0.1259 -0.8633 -0.2594
24645SOL    HW175036   6.731   3.880   3.952 -0.9719 -0.4577 -0.8168
24645SOL    HW275037   6.822   3.926   3.841 -1.7079 -0.0534 -1.2594
24646SOL     OW75038   6.966   8.879   1.482 -0.0181  0.0291  0.0794
24646SOL    HW175039   7.055   8.910   1.462  0.1660  0.5012  1.4905
24646SOL    HW275040   6.912   8.958   1.482  0.0241  0.0819  1.5017
24647SOL     OW75041   0.006   8.310   3.387  0.1984  0.6232  0.5338
24647SOL    HW175042   0.017   8.216   3.401  1.1678  0.8300  1.2706
24647SOL    HW275043  -0.088   8.325   3.398  0.0957 -0.1866  0.8252
24648SOL     OW75044   7.131   1.886   1.171  0.3618 -0.2732  0.2919
24648SOL    HW175045   7.114   1.794   1.192 -0.4911  0.3631  2.5719
24648SOL    HW275046   7.069   1.936   1.225  1.7103  1.7069  0.1183
24649SOL     OW75047   0.301   5.363   5.914  0.2441 -0.4235 -0.3703
24649SOL    HW175048   0.240   5.432   5.886  0.7909 -0.3179 -1.3334
24649SOL    HW275049   0.258   5.322   5.990  0.7459  2.1898  1.4590
24650SOL     OW75050   5.383   4.353   4.666  0.0834  0.0997 -0.0121
24650SOL    HW175051   5.419   4.376   4.581  0.0298  0.9561  0.1864
24650SOL    HW275052   5.297   4.316   4.647  0.9133 -1.6999 -0.4710
24651SOL     OW75053   5.219   1.210   6.721  0.6236 -0.2137 -0.4000
24651SOL    HW175054   5.267   1.286   6.690  0.4623  0.2590  0.4775
24651SOL    HW275055   5.160   1.188   6.649  0.7036  0.4593 -0.6769
24652SOL     OW75056   3.603   1.457   2.893  0.1388  0.6471  0.0940
24652SOL    HW175057   3.550   1.532   2.866  0.7010  1.1268  0.2917
24652SOL    HW275058   3.682   1.496   2.932  0.3384 -0.0462  0.4022
24653SOL     OW75059   2.662   8.392   2.508  0.2379 -0.1968 -0.0818
24653SOL    HW175060   2.590   8.359   2.454 -1.4312  1.4442  1.0308
24653SOL    HW275061   2.726   8.425   2.445 -0.8794  0.0960 -1.0986
24654SOL     OW75062   3.936   0.507   5.493 -0.3541 -0.2782 -0.1071
24654SOL    HW175063   3.925   0.601   5.506  1.8208  0.0948 -0.6952
24654SOL    HW275064   3.848   0.477   5.467 -0.7385  1.8847 -1.6332
24655SOL     OW75065   2.405   0.190   6.346 -0.0978 -0.2754 -0.2304
24655SOL    HW175066   2.403   0.116   6.406  0.8272 -0.4315 -0.3702
24655SOL    HW275067   2.319   0.190   6.305 -0.3761 -0.8007  0.3380
24656SOL     OW75068   4.072   6.798   5.246 -0.5722 -0.3718 -0.2295
24656SOL    HW175069   4.164   6.805   5.221 -0.6632  1.1017 -0.2729
24656SOL    HW275070   4.048   6.888   5.270 -1.5535 -1.0323  1.3644
24657SOL     OW75071   0.789   8.815   0.713  0.1788  0.1453 -0.0256
24657SOL    HW175072   0.703   8.775   0.703  1.2030 -1.6936 -2.8136
24657SOL    HW275073   0.819   8.830   0.623  2.7134  0.8203  0.8377
24658SOL     OW75074   8.174   8.758   7.886  0.1965  0.5702  0.1492
24658SOL    HW175075   8.092   8.768   7.934  0.8023 -0.6809  1.5469
24658SOL    HW275076   8.194   8.665   7.893  2.2306  0.9924  0.7409
24659SOL     OW75077   6.529   8.678   5.302  0.2508 -0.2395  0.2900
24659SOL    HW175078   6.487   8.606   5.349  0.9451 -0.6711  0.2471
24659SOL    HW275079   6.563   8.735   5.371  0.3546 -0.3301  0.3118
24660SOL     OW75080   9.094   3.796   7.865 -0.0392 -0.1228  0.1576
24660SOL    HW175081   9.039   3.735   7.915 -1.6342  0.1351 -1.2065
24660SOL    HW275082   9.036   3.868   7.843  1.1899  0.7557 -0.2960
24661SOL     OW75083   8.335   2.298   7.512 -0.4266  0.2749 -0.4700
24661SOL    HW175084   8.369   2.278   7.600  0.7600  0.7373 -0.8003
24661SOL    HW275085   8.323   2.212   7.471  3.6809 -0.0170 -1.5297
24662SOL     OW75086   6.464   6.111   2.154  0.4186  0.2758  0.1380
24662SOL    HW175087   6.442   6.020   2.176  0.8140  0.0043 -0.5770
24662SOL    HW275088   6.403   6.163   2.207  0.5693 -0.3826  0.9919
24663SOL     OW75089   0.118   6.619   4.446 -0.0132 -0.0862 -0.5218
24663SOL    HW175090   0.135   6.677   4.372  0.1620  0.6476  0.0747
24663SOL    HW275091   0.140   6.531   4.414  1.7669  0.4200 -0.8177
24664SOL     OW75092   5.710   5.267   5.997 -0.2665  0.0603  0.7742
24664SOL    HW175093   5.739   5.264   6.088 -0.5295  0.1448  0.8626
24664SOL    HW275094   5.661   5.186   5.984 -2.6792  1.2725  1.5592
24665SOL     OW75095   5.053   0.939   2.297  0.3046 -0.9553  0.0267
24665SOL    HW175096   4.984   0.966   2.236  1.0530 -0.7165 -0.7248
24665SOL    HW275097   5.017   0.862   2.340 -1.3494  0.4131  1.2654
24666SOL     OW75098   4.409   0.840   0.319 -0.0382 -0.5121 -0.3077
24666SOL    HW175099   4.388   0.750   0.345  0.8698 -0.7382 -0.3287
24666SOL    HW275100   4.453   0.831   0.234  0.2743 -0.0694 -0.1960
24667SOL     OW75101   1.293   6.819   3.925  0.5210 -0.1166 -0.1532
24667SOL    HW175102   1.355   6.746   3.921 -1.1902 -1.6190 -1.1116
24667SOL    HW275103   1.325   6.881   3.859 -0.0368 -1.8068 -2.1222
24668SOL     OW75104   4.258   8.374   7.411  0.1513 -0.2579 -0.0612
24668SOL    HW175105   4.190   8.341   7.353 -0.5867  1.3205 -0.1309
24668SOL    HW275106   4.312   8.430   7.355  1.3470 -1.2405  0.0658
24669SOL     OW75107   7.492   1.791   0.099 -0.3383  0.2193  0.6654
24669SOL    HW175108   7.558   1.823   0.160  0.6103  0.9026 -0.6699
24669SOL    HW275109   7.448   1.870   0.068 -1.3860 -0.1847  1.0783
24670SOL     OW75110   5.810   3.823   3.532  0.0873  0.3276 -0.0386
24670SOL    HW175111   5.735   3.864   3.489 -0.2358  0.2534  0.4599
24670SOL    HW275112   5.773   3.754   3.586  0.1607  2.2442  2.6378
24671SOL     OW75113   6.328   7.441   2.546 -0.2927 -0.2353 -0.2142
24671SOL    HW175114   6.374   7.370   2.591  1.1764 -0.1851 -1.5396
24671SOL    HW275115   6.322   7.511   2.612  1.2518 -0.3739  0.1156
24672SOL     OW75116   8.645   7.289   4.609  0.2276 -0.1478 -0.6656
24672SOL    HW175117   8.674   7.224   4.544  2.2222  0.2363 -0.2197
24672SOL    HW275118   8.703   7.276   4.684  0.1896  1.6552 -0.2776
24673SOL     OW75119   5.950   0.309   1.540  0.4654  0.1312  0.1074
24673SOL    HW175120   6.010   0.380   1.517 -1.7171  2.4497  1.1136
24673SOL    HW275121   5.970   0.290   1.632 -0.1788  0.8049  0.4000
24674SOL     OW75122   8.875   6.822   3.141 -0.1317  0.6273  0.3211
24674SOL    HW175123   8.824   6.781   3.211 -0.8836  1.3542  0.2225
24674SOL    HW275124   8.819   6.894   3.111  1.6060  2.4869  1.3016
24675SOL     OW75125   1.172   1.951   8.871  0.1028 -0.0734  0.2745
24675SOL    HW175126   1.141   2.036   8.903 -1.7846 -0.3421 -0.6966
24675SOL    HW275127   1.267   1.956   8.879  0.1994  2.7313 -1.1288
24676SOL     OW75128   7.806   0.947   8.210  0.4229 -0.2152  0.7165
24676SOL    HW175129   7.851   0.980   8.132  1.0278 -2.2740  0.1232
24676SOL    HW275130   7.718   0.983   8.205  1.0981  1.4385  0.2594
24677SOL     OW75131   0.428   2.602   3.232 -0.3054 -0.2483  0.5555
24677SOL    HW175132   0.387   2.516   3.227  1.2507 -1.0187  0.7536
24677SOL    HW275133   0.385   2.653   3.163 -0.1706 -1.6500 -0.6084
24678SOL     OW75134   6.647   7.612   1.138 -0.0533 -0.6546 -0.6160
24678SOL    HW175135   6.556   7.601   1.167 -0.7474 -1.4520 -2.8865
24678SOL    HW275136   6.653   7.703   1.110 -0.5134 -0.8875 -1.5120
24679SOL     OW75137   5.770   7.856   7.101 -0.3773  0.1890 -0.0804
24679SOL    HW175138   5.772   7.766   7.070  0.4484 -0.3444  1.4097
24679SOL    HW275139   5.755   7.849   7.196  2.4294  1.4373  0.5735
24680SOL     OW75140   1.638   1.308   2.356  0.2078  0.0801  0.2262
24680SOL    HW175141   1.674   1.377   2.301  0.2535  0.5065  0.7716
24680SOL    HW275142   1.609   1.240   2.295 -1.4610  1.3437 -0.4539
24681SOL     OW75143   6.172   7.762   2.222 -0.3509 -0.5402  0.2448
24681SOL    HW175144   6.192   7.836   2.280 -2.6291  0.5868 -0.2729
24681SOL    HW275145   6.159   7.802   2.136 -0.7849 -1.6674 -0.2370
24682SOL     OW75146   5.169   8.091   0.974  0.2968  0.0743 -0.3691
24682SOL    HW175147   5.232   8.096   1.046  0.3272  1.5970 -0.4596
24682SOL    HW275148   5.084   8.083   1.016  0.2442  1.6955 -0.0961
24683SOL     OW75149   3.467   1.406   3.693 -0.2901 -0.3814  0.2812
24683SOL    HW175150   3.527   1.427   3.765 -0.1007 -2.0751  0.6587
24683SOL    HW275151   3.413   1.484   3.684  1.4662  0.9338  0.4231
24684SOL     OW75152   3.028   8.323   1.651  0.1380  0.4972  0.5553
24684SOL    HW175153   2.935   8.324   1.675 -0.1919  1.3345 -0.6139
24684SOL    HW275154   3.075   8.322   1.734 -0.8863 -2.2865  1.1929
24685SOL     OW75155   5.014   8.040   5.236 -0.2022  0.7024 -0.3900
24685SOL    HW175156   5.075   8.002   5.300  0.9171 -0.6409 -2.1313
24685SOL    HW275157   4.985   7.965   5.184 -1.8989  1.6050 -0.7973
24686SOL     OW75158   3.769   5.837   2.042  0.2153 -0.3900  0.1940
24686SOL    HW175159   3.677   5.821   2.023  0.1988 -0.1236  0.0408
24686SOL    HW275160   3.816   5.778   1.984  0.2097  1.6091 -1.9817
24687SOL     OW75161   4.130   3.723   4.867 -0.0255  0.6916  0.4441
24687SOL    HW175162   4.119   3.642   4.816  0.1032  1.4859 -0.8920
24687SOL    HW275163   4.224   3.727   4.884  0.2912  1.5746 -1.2928
24688SOL     OW75164   2.260   5.464   5.293 -0.3395 -0.3534 -0.2882
24688SOL    HW175165   2.333   5.405   5.315 -0.8046 -0.8086  0.0548
24688SOL    HW275166   2.299   5.529   5.234  0.4536 -0.3284  0.2347
24689SOL     OW75167   0.491   2.508   8.880 -0.3857 -0.1330 -0.3465
24689SOL    HW175168   0.537   2.486   8.799  1.9736  0.8261  0.6373
24689SOL    HW275169   0.474   2.601   8.874  0.5389  0.1159  0.5557
24690SOL     OW75170   4.461   4.318   5.031  0.1434 -0.5030  0.3366
24690SOL    HW175171   4.456   4.226   5.054 -0.8005 -0.5162  0.1135
24690SOL    HW275172   4.392   4.360   5.082  0.5963  0.0886  0.4759
24691SOL     OW75173   2.153   3.271   6.525 -0.3128 -0.0668  0.1665
24691SOL    HW175174   2.206   3.341   6.563  1.6915 -1.4022  0.0097
24691SOL    HW275175   2.209   3.194   6.530 -1.9837 -1.3976 -0.7637
24692SOL     OW75176   6.884   8.554   1.345  0.3845 -0.4229  0.4222
24692SOL    HW175177   6.969   8.536   1.302 -0.0224 -1.3492 -0.0363
24692SOL    HW275178   6.856   8.468   1.377 -1.3458 -0.5343 -1.2427
24693SOL     OW75179   3.153   4.596   0.977 -0.0006 -0.5218 -0.2420
24693SOL    HW175180   3.235   4.624   0.936 -0.6842 -0.8503 -1.8818
24693SOL    HW275181   3.116   4.676   1.013  1.0473 -0.3746  0.5803
24694SOL     OW75182   0.016   4.985   5.437 -0.4228 -0.0622 -0.4827
24694SOL    HW175183   0.083   4.992   5.369  0.6778 -2.4111  0.2334
24694SOL    HW275184   0.046   5.042   5.507 -0.3219  0.5411 -1.0062
24695SOL     OW75185   3.443   8.407   2.825  0.4227 -0.4290 -0.5017
24695SOL    HW175186   3.476   8.357   2.900 -0.3584 -0.4558 -0.1754
24695SOL    HW275187   3.504   8.481   2.817  0.4876 -0.4039  0.1808
24696SOL     OW75188   0.413   0.730   5.424  0.2243  0.0246 -0.0908
24696SOL    HW175189   0.503   0.730   5.394  0.1352  0.7299 -0.3817
24696SOL    HW275190   0.415   0.780   5.506  0.1210 -0.0726 -0.0288
24697SOL     OW75191   1.032   7.445   6.490  0.0837 -0.2982 -0.2646
24697SOL    HW175192   1.116   7.430   6.446 -0.0009 -0.6018 -0.3299
24697SOL    HW275193   0.985   7.362   6.479 -0.4852  0.0944 -0.8041
24698SOL     OW75194   7.116   4.878   3.153  0.1358 -0.2424 -0.5860
24698SOL    HW175195   7.097   4.785   3.157  1.9936 -0.6572 -0.5001
24698SOL    HW275196   7.155   4.891   3.067 -0.2548  0.4953 -0.6606
24699SOL     OW75197   5.486   3.286   6.450  0.2342 -0.4312 -0.6206
24699SOL    HW175198   5.560   3.340   6.426  1.6306 -3.1386 -2.9706
24699SOL    HW275199   5.515   3.239   6.528 -0.2571  0.7109  0.2831
24700SOL     OW75200   4.654   5.965   7.039 -1.0601  0.1258  0.0602
24700SOL    HW175201   4.727   6.027   7.042 -1.2492  0.3054  1.1312
24700SOL    HW275202   4.592   5.998   7.104 -1.1636 -1.1918  0.6536
24701SOL     OW75203   0.880   2.736   2.981  0.1908 -0.8057 -0.1757
24701SOL    HW175204   0.904   2.660   2.928 -2.0002 -1.0463 -0.9311
24701SOL    HW275205   0.784   2.738   2.978  0.1470  2.5893 -1.1064
24702SOL     OW75206   5.467   8.155   6.469 -0.0359 -0.0725 -0.2016
24702SOL    HW175207   5.434   8.116   6.549  0.0979 -0.9672 -0.5661
24702SOL    HW275208   5.396   8.145   6.406  0.0104  0.2565 -0.3078
24703SOL     OW75209   8.959   1.667   3.608  0.6381  0.7344  0.2229
24703SOL    HW175210   8.955   1.762   3.606  2.1029  0.8371 -2.7594
24703SOL    HW275211   8.982   1.641   3.519  0.8748 -2.4015  1.0517
24704SOL     OW75212   8.861   3.765   3.058  0.1764  0.2223  0.0209
24704SOL    HW175213   8.771   3.759   3.091  0.4551  1.9448  1.2391
24704SOL    HW275214   8.913   3.719   3.124  0.2734 -0.2312 -0.3649
24705SOL     OW75215   7.038   2.161   4.483 -0.1189 -0.2493  0.3326
24705SOL    HW175216   7.045   2.069   4.459  1.4238  0.4222 -2.1532
24705SOL    HW275217   7.058   2.163   4.577  0.5284 -2.3670  0.2939
24706SOL     OW75218   8.982   4.926   7.698 -0.5209 -1.0716  0.1970
24706SOL    HW175219   8.987   4.851   7.758 -0.0322 -1.4408 -0.2998
24706SOL    HW275220   8.890   4.931   7.673 -1.1162  0.1582  2.3225
24707SOL     OW75221   6.633   7.337   3.865 -0.9287 -0.3718  0.0061
24707SOL    HW175222   6.618   7.431   3.861 -1.6470 -0.4180  0.9646
24707SOL    HW275223   6.619   7.315   3.957  1.0043 -1.1485  0.1566
24708SOL     OW75224   6.165   5.235   7.094  0.0220 -0.1288 -0.5443
24708SOL    HW175225   6.202   5.219   7.181  2.6265 -0.1250 -1.5415
24708SOL    HW275226   6.120   5.154   7.071 -1.9672  0.3692  1.3206
24709SOL     OW75227   7.125   3.795   3.758 -0.0286 -0.1792  0.1974
24709SOL    HW175228   7.167   3.710   3.744  0.7368  0.0020  1.2635
24709SOL    HW275229   7.155   3.822   3.845 -1.4492  0.4951  0.5052
24710SOL     OW75230   7.213   8.363   3.384 -0.1572 -0.3369  0.2154
24710SOL    HW175231   7.194   8.339   3.294  0.1273 -1.9778  0.5640
24710SOL    HW275232   7.230   8.280   3.428  1.5511  0.5475  1.3469
24711SOL     OW75233   6.949   8.223   7.742  0.1159 -0.1050  0.5283
24711SOL    HW175234   7.012   8.156   7.768 -0.2647 -0.2498  1.0992
24711SOL    HW275235   6.904   8.247   7.823 -0.2209  0.3557  0.2153
24712SOL     OW75236   1.330   1.462   1.041  0.2395  0.2338 -0.4033
24712SOL    HW175237   1.274   1.513   1.100 -0.6372 -1.6992  0.5342
24712SOL    HW275238   1.313   1.498   0.954 -1.7163  0.3770 -0.0065
24713SOL     OW75239   7.488   0.957   8.187 -0.0643  0.5757 -0.4716
24713SOL    HW175240   7.408   0.981   8.235 -0.2944  0.6161 -0.8668
24713SOL    HW275241   7.513   0.873   8.225  0.3368  1.0759  0.4199
24714SOL     OW75242   7.894   6.898   1.701  0.1967 -0.5779 -0.4270
24714SOL    HW175243   7.828   6.906   1.632 -1.9957 -0.0222  1.5965
24714SOL    HW275244   7.933   6.986   1.707 -1.2335  0.0232  0.5125
24715SOL     OW75245   3.864   6.252   6.152  0.1293 -0.0387  0.5005
24715SOL    HW175246   3.872   6.286   6.064  0.6521  0.7058  0.8298
24715SOL    HW275247   3.929   6.301   6.203 -1.0465  0.4683  1.5610
24716SOL     OW75248   8.426   9.119   7.579 -0.0174 -0.1805 -0.2822
24716SOL    HW175249   8.456   9.084   7.495 -0.5209 -2.3471  0.3848
24716SOL    HW275250   8.345   9.071   7.598 -0.2195  0.6702  1.1881
24717SOL     OW75251   1.427   8.140   8.456  0.7179 -0.4775  0.1432
24717SOL    HW175252   1.452   8.051   8.432  1.4444 -0.1630 -0.3231
24717SOL    HW275253   1.477   8.159   8.536 -1.7188 -1.5307  2.0311
24718SOL     OW75254   3.826   2.812   7.263  0.2132 -0.6021  0.5095
24718SOL    HW175255   3.907   2.761   7.265  1.0994  0.7089 -0.2495
24718SOL    HW275256   3.839   2.879   7.330 -0.1833 -0.3081  0.2911
24719SOL     OW75257   5.657   8.226   8.092  0.3852  0.3380 -0.3083
24719SOL    HW175258   5.752   8.235   8.089  0.3490  1.6292  1.0935
24719SOL    HW275259   5.639   8.185   8.177 -0.3167  0.5195 -0.3624
24720SOL     OW75260   7.070   0.535   6.370  0.0794  0.1270 -0.2164
24720SOL    HW175261   7.161   0.519   6.345  0.3013 -1.8307  1.5095
24720SOL    HW275262   7.020   0.516   6.291  0.8795 -3.9425  0.0114
24721SOL     OW75263   8.243   0.702   8.924  0.3719 -0.0843  0.2174
24721SOL    HW175264   8.303   0.689   8.850  0.2380  1.8628 -0.2845
24721SOL    HW275265   8.166   0.649   8.902  0.6723 -0.1980 -0.6119
24722SOL     OW75266   1.821   3.327   1.627 -0.3121 -0.0684  0.1770
24722SOL    HW175267   1.756   3.257   1.634 -0.9784  0.4260 -0.8604
24722SOL    HW275268   1.778   3.396   1.577  0.8884  0.4245 -0.2216
24723SOL     OW75269   0.767   8.170   3.018  0.4796  0.2804 -0.0701
24723SOL    HW175270   0.785   8.264   3.005  1.9799 -0.1902 -1.7772
24723SOL    HW275271   0.685   8.169   3.068  0.8679  2.5015  0.7463
24724SOL     OW75272   5.496   8.630   3.369  0.3114  0.1971 -0.1950
24724SOL    HW175273   5.467   8.721   3.366 -1.9073 -0.4210  0.6471
24724SOL    HW275274   5.448   8.592   3.442  0.5316 -1.8768 -1.0703
24725SOL     OW75275   5.004   0.371   5.749  0.3423  0.1934 -0.4474
24725SOL    HW175276   5.073   0.361   5.814  0.0661  0.6365 -0.0802
24725SOL    HW275277   5.000   0.286   5.705  0.6257 -0.0629  0.0198
24726SOL     OW75278   2.631   4.849   5.398 -1.1675 -0.0826  0.2331
24726SOL    HW175279   2.613   4.873   5.489 -1.5079 -0.5158  0.2836
24726SOL    HW275280   2.566   4.898   5.348 -2.8806 -1.9778  0.4468
24727SOL     OW75281   8.660   6.375   1.181  0.5915 -0.6447 -0.5745
24727SOL    HW175282   8.673   6.313   1.109  0.1693 -0.9393 -0.4033
24727SOL    HW275283   8.654   6.320   1.259  2.7545 -0.2237 -0.0668
24728SOL     OW75284   1.485   6.405   4.165 -0.6176  0.4058  0.0544
24728SOL    HW175285   1.513   6.447   4.246 -0.6792  0.7360 -0.0917
24728SOL    HW275286   1.434   6.329   4.193  3.1346 -2.2800  0.4147
24729SOL     OW75287   6.647   0.146   7.379 -0.2806 -0.3189  0.0321
24729SOL    HW175288   6.658   0.056   7.346 -0.3487  0.1978 -1.4796
24729SOL    HW275289   6.686   0.201   7.311  0.4780  0.7721  1.3083
24730SOL     OW75290   2.253   6.931   1.922 -0.3236  0.0866  0.0649
24730SOL    HW175291   2.268   6.911   1.830  1.6946 -0.1216  0.3915
24730SOL    HW275292   2.236   6.846   1.963  0.3005 -0.0134  0.1252
24731SOL     OW75293   2.166   0.315   6.261  0.6568  0.2034  0.3254
24731SOL    HW175294   2.190   0.367   6.184  0.4119 -0.7552 -0.4172
24731SOL    HW275295   2.097   0.256   6.229  1.5004 -1.1438  0.9257
24732SOL     OW75296   9.121   7.587   2.025  0.2797  0.4461 -0.2937
24732SOL    HW175297   9.054   7.530   2.062 -1.3344  0.2194 -3.2126
24732SOL    HW275298   9.140   7.650   2.093 -1.7321 -0.4672  1.2196
24733SOL     OW75299   4.594   1.429   8.252 -0.3039  0.3635 -0.4178
24733SOL    HW175300   4.594   1.340   8.217  0.9821  1.0823 -2.4589
24733SOL    HW275301   4.685   1.444   8.279 -0.7579  0.6916  0.9727
24734SOL     OW75302   1.334   7.328   3.188  0.3865 -0.2232  0.2066
24734SOL    HW175303   1.340   7.388   3.114 -1.0482  0.0497  0.2774
24734SOL    HW275304   1.407   7.352   3.245  0.3552  0.8475 -0.1918
24735SOL     OW75305   6.164   4.099   7.245 -0.0683 -0.3435 -0.4960
24735SOL    HW175306   6.220   4.112   7.321 -2.5244 -0.2983  1.3960
24735SOL    HW275307   6.134   4.187   7.221  0.3178 -0.4057 -1.2420
24736SOL     OW75308   7.417   0.054   0.858  0.2471 -0.0821  0.1063
24736SOL    HW175309   7.356   0.099   0.916  1.0586 -0.3270  1.1791
24736SOL    HW275310   7.416  -0.037   0.888  0.2069 -0.3510 -0.6791
24737SOL     OW75311   6.815   1.613   8.157 -0.8661 -0.3955  0.0536
24737SOL    HW175312   6.750   1.643   8.094 -0.0548 -2.5231 -1.9111
24737SOL    HW275313   6.764   1.582   8.232 -1.8415  2.2469  0.5903
24738SOL     OW75314   3.805   1.107   2.138 -0.2950  0.6294  0.5834
24738SOL    HW175315   3.737   1.160   2.096  0.5053  2.3406  1.3779
24738SOL    HW275316   3.887   1.137   2.099  0.0726 -1.3341 -0.2757
24739SOL     OW75317   7.722   9.107   2.754 -0.2774  0.3901  0.1814
24739SOL    HW175318   7.708   9.186   2.807  0.7424 -0.0914  1.2328
24739SOL    HW275319   7.673   9.122   2.674 -0.2202  2.0347  0.4254
24740SOL     OW75320   7.229   8.961   8.424 -0.4267 -0.0118 -0.2673
24740SOL    HW175321   7.324   8.967   8.415 -0.5646  0.5813 -1.7516
24740SOL    HW275322   7.199   8.926   8.340 -1.6426  1.5808 -0.5523
24741SOL     OW75323   1.013   8.031   1.742 -0.7722 -0.1215  0.1243
24741SOL    HW175324   0.922   8.039   1.714 -0.7482 -0.4803 -0.0592
24741SOL    HW275325   1.063   8.020   1.660 -0.5892 -0.1386  0.2369
24742SOL     OW75326   6.505   8.579   2.442 -0.6169  0.2535  0.2185
24742SOL    HW175327   6.463   8.495   2.421 -0.7840  0.6016 -0.9174
24742SOL    HW275328   6.447   8.644   2.402 -0.0907  0.8615  0.4508
24743SOL     OW75329   8.956   0.880   3.368 -0.5237 -0.0550  0.1766
24743SOL    HW175330   8.933   0.788   3.379  2.0006 -0.7953 -0.0781
24743SOL    HW275331   8.893   0.914   3.305 -1.0100 -1.8169 -0.3296
24744SOL     OW75332   3.205   7.408   7.716 -0.0137  0.4500  0.0980
24744SOL    HW175333   3.218   7.325   7.763 -0.1151  0.1278 -0.4331
24744SOL    HW275334   3.253   7.396   7.634 -0.0145  0.9295  0.0269
24745SOL     OW75335   4.941   5.561   1.221  0.4383  0.1337  0.2190
24745SOL    HW175336   5.006   5.499   1.187 -0.2076 -0.0841 -0.6771
24745SOL    HW275337   4.891   5.587   1.144 -2.2279 -1.6973  1.1742
24746SOL     OW75338   5.646   5.886   4.114 -0.3753  0.7990  0.2593
24746SOL    HW175339   5.649   5.979   4.092 -1.8656  0.9274  0.5198
24746SOL    HW275340   5.553   5.867   4.126  0.0792  0.2189  4.1890
24747SOL     OW75341   2.030   6.290   2.506  0.3382 -0.4272 -0.2034
24747SOL    HW175342   2.051   6.207   2.548  1.9123 -0.1514 -0.3825
24747SOL    HW275343   1.961   6.268   2.443 -0.2235 -1.3208  0.7036
24748SOL     OW75344   6.314   7.391   7.504 -0.5362 -0.3738 -0.2288
24748SOL    HW175345   6.282   7.471   7.463  0.3339  0.4289  0.6100
24748SOL    HW275346   6.250   7.324   7.479 -2.2353  0.9251  0.4421
24749SOL     OW75347   2.933   6.003   0.652  0.1685  0.1264  0.3262
24749SOL    HW175348   2.873   6.077   0.639 -0.8961 -0.6539  0.6625
24749SOL    HW275349   3.019   6.043   0.659 -0.3679  1.3254  0.3083
24750SOL     OW75350   7.800   7.308   3.304 -0.0451 -0.4217  0.0384
24750SOL    HW175351   7.725   7.339   3.252 -0.9991  0.5854  1.8963
24750SOL    HW275352   7.874   7.360   3.272 -0.5680  0.0221 -0.4756
24751SOL     OW75353   0.942   3.447   8.224 -0.3613  0.8266  0.3280
24751SOL    HW175354   0.924   3.387   8.152  0.2386  1.3823 -0.2964
24751SOL    HW275355   0.866   3.437   8.283 -0.6153  0.0025 -0.1157
24752SOL     OW75356   2.392   7.105   7.700  0.5930 -0.2709 -0.1992
24752SOL    HW175357   2.333   7.068   7.634  0.2303  0.4281 -0.2675
24752SOL    HW275358   2.477   7.064   7.681  0.0615 -1.5722  0.1422
24753SOL     OW75359   8.460   4.991   8.455 -0.3743 -0.5490 -0.2347
24753SOL    HW175360   8.446   4.898   8.474 -2.9548 -0.2109 -0.0653
24753SOL    HW275361   8.435   5.001   8.363 -1.1467  0.1326  0.0363
24754SOL     OW75362   3.684   5.426   3.552 -0.2320  0.0408  0.4364
24754SOL    HW175363   3.591   5.448   3.546 -0.2145 -0.0245 -0.2165
24754SOL    HW275364   3.717   5.439   3.463  0.9621  2.5577  1.1706
24755SOL     OW75365   8.545   1.657   2.382 -0.2745  0.0174 -0.2480
24755SOL    HW175366   8.546   1.561   2.378  0.0377  0.0351 -0.5780
24755SOL    HW275367   8.621   1.679   2.436 -0.5582  0.0660  0.1380
24756SOL     OW75368   5.925   5.114   8.213  0.2246  0.0285 -0.2010
24756SOL    HW175369   5.879   5.137   8.132  0.1297  2.4572  0.4534
24756SOL    HW275370   6.002   5.065   8.184 -0.8512 -0.9129 -1.5821
24757SOL     OW75371   2.161   4.571   6.930 -0.1617 -0.3123  0.1175
24757SOL    HW175372   2.088   4.544   6.986 -0.7107  2.8953  1.1322
24757SOL    HW275373   2.119   4.607   6.852  0.4930 -1.2940 -0.7125
24758SOL     OW75374   2.678   4.007   5.272 -0.2254  0.6769  0.1856
24758SOL    HW175375   2.724   4.013   5.356 -1.2298 -1.5313  0.9917
24758SOL    HW275376   2.614   3.937   5.286 -2.4024  2.2074 -1.5280
24759SOL     OW75377   6.410   0.346   5.140 -0.1882  0.0061  0.2994
24759SOL    HW175378   6.437   0.406   5.071 -1.2416 -0.6754 -0.7270
24759SOL    HW275379   6.384   0.404   5.213 -0.0501  0.7531 -0.2326
24760SOL     OW75380   6.724   8.584   8.524  0.1473 -0.0422 -0.1747
24760SOL    HW175381   6.756   8.630   8.602 -1.7076  0.1929  0.5046
24760SOL    HW275382   6.630   8.576   8.538  0.0142 -1.5069 -1.6388
24761SOL     OW75383   4.518   0.675   6.472  0.1402  0.1223  0.0972
24761SOL    HW175384   4.584   0.728   6.428 -0.4890  0.7896 -0.0608
24761SOL    HW275385   4.544   0.676   6.564 -0.2237  1.2774  0.2056
24762SOL     OW75386   7.826   6.096   8.982  0.1580 -0.1228 -0.0847
24762SOL    HW175387   7.779   6.171   9.019  0.2317 -0.0327 -0.1730
24762SOL    HW275388   7.758   6.032   8.961  0.1083 -0.1387  0.1258
24763SOL     OW75389   6.217   3.270   5.180 -0.8693  0.0713 -0.6482
24763SOL    HW175390   6.284   3.202   5.189 -2.1777 -1.1116  0.5118
24763SOL    HW275391   6.142   3.226   5.141 -0.9872  1.4156 -2.0573
24764SOL     OW75392   7.037   8.181   0.973 -0.1601  0.1997  0.0884
24764SOL    HW175393   6.954   8.159   0.932 -0.0992  0.8542 -0.3936
24764SOL    HW275394   7.087   8.099   0.972 -0.8711 -0.2439  0.5661
24765SOL     OW75395   5.293   0.896   5.906  0.2166  0.1143 -0.2294
24765SOL    HW175396   5.377   0.853   5.921  0.5168  0.4544 -0.8701
24765SOL    HW275397   5.260   0.855   5.825 -0.9553 -1.0920  0.8156
24766SOL     OW75398   0.040   3.399   6.952 -0.1060 -0.1919 -0.0573
24766SOL    HW175399  -0.012   3.341   7.008  0.9780 -0.5491  0.5972
24766SOL    HW275400   0.075   3.465   7.012  1.0991 -0.5984 -0.2985
24767SOL     OW75401   7.851   1.055   4.145 -0.1040  0.2173  0.3694
24767SOL    HW175402   7.912   0.986   4.119 -0.1493 -0.2606  1.4880
24767SOL    HW275403   7.883   1.133   4.099 -1.2089 -0.8955 -2.5242
24768SOL     OW75404   8.686   2.916   4.974 -0.4369  0.3382  0.0238
24768SOL    HW175405   8.606   2.934   5.023 -1.7352 -2.0908 -1.0057
24768SOL    HW275406   8.667   2.946   4.885  1.0232  2.5536  0.3757
24769SOL     OW75407   0.712   5.968   2.283 -0.3683  0.1899  0.2983
24769SOL    HW175408   0.706   5.999   2.373  3.8368  0.9370  0.5103
24769SOL    HW275409   0.753   5.881   2.290 -2.1103 -0.7956 -0.8709
24770SOL     OW75410   6.583   6.262   4.347 -0.2773 -0.3001  0.0936
24770SOL    HW175411   6.544   6.318   4.415 -0.9747  1.4507 -1.6339
24770SOL    HW275412   6.512   6.206   4.318 -0.0698 -0.8140  0.5756
24771SOL     OW75413   0.275   1.969   5.901 -0.2410 -0.3007  0.2578
24771SOL    HW175414   0.334   1.991   5.973 -1.5560 -0.0852  1.2975
24771SOL    HW275415   0.213   2.042   5.897 -1.2280 -1.1354  0.0332
24772SOL     OW75416   8.414   6.242   4.217  0.1381  0.0785 -0.6238
24772SOL    HW175417   8.419   6.156   4.259  1.7968  0.9440  1.0533
24772SOL    HW275418   8.320   6.257   4.205 -0.1840 -1.9784 -1.0555
24773SOL     OW75419   2.373   6.250   8.093 -0.0038  0.0641  0.1447
24773SOL    HW175420   2.419   6.322   8.051 -0.4869  0.2051 -0.1573
24773SOL    HW275421   2.388   6.174   8.037 -2.8779  0.8060 -1.8925
24774SOL     OW75422   4.426   4.669   6.702 -0.4109  0.2027  1.1861
24774SOL    HW175423   4.381   4.706   6.778 -0.1564 -0.2930  1.5897
24774SOL    HW275424   4.490   4.608   6.740  0.0716  0.3300  0.5915
24775NA      NA75425   1.781   1.268   2.753  0.0789  0.1408 -0.3261
24776NA      NA75426   0.141   4.504   1.328  0.3847 -0.1215 -0.1273
24777NA      NA75427   8.211   5.335   7.340 -0.0950  0.6201  0.1042
24778NA      NA75428   6.613   5.916   4.069  0.4619 -0.3185  0.4401
24779NA      NA75429   7.039   0.409   3.156  0.3757  0.1923  0.6013
24780NA      NA75430   3.746   4.745   0.735 -0.4350 -0.3194 -0.2445
24781NA      NA75431   2.978   3.577   1.793  0.9070  0.2841  0.6028
24782NA      NA75432   6.365   8.288   4.101  0.0587 -0.1846  0.1803
24783NA      NA75433   7.488   6.642   0.036 -0.1918  0.5466 -0.3739
24784NA      NA75434   5.313   3.128   5.921 -0.3820  0.2746 -0.4576
24785NA      NA75435   8.399   5.322   2.345 -0.1004 -0.1634 -0.5316
24786NA      NA75436   4.289   7.837   0.489 -0.2080  0.2013 -0.5210
24787NA      NA75437   1.012   5.810   7.297  0.5157  0.1734  0.2344
24788NA      NA75438   8.307   8.793   5.952  0.1644  0.1232  0.0593
24789NA      NA75439   7.691   3.202   5.719 -0.0527  0.1179 -0.0801
24790NA      NA75440   0.084   7.499   3.214 -0.1321  0.1119  0.2775
24791NA      NA75441   2.273   6.367   6.618  0.0655 -0.1980  0.1364
24792NA      NA75442   8.572   8.602   6.920  0.0872  0.1888 -0.1830
24793NA      NA75443   6.666   0.714   8.993  0.0657 -0.1500 -0.0930
24794NA      NA75444   1.117   6.558   2.165  0.1182  0.3253 -0.5198
24795NA      NA75445   1.290   4.689   7.978  0.0745  0.0942  0.0069
24796NA      NA75446   8.131   4.512   3.615  0.1873  0.0460 -0.6040
24797NA      NA75447   3.633   2.739   7.346  0.4675  0.3052  0.1641
24798NA      NA75448   5.704   2.623   0.396 -0.2903 -0.1578 -0.1349
24799NA      NA75449   2.802   4.382   6.499  0.3782 -0.3835  0.6246
24800NA      NA75450   2.696   3.210   4.665  0.3223 -0.2393 -0.0045
24801NA      NA75451   2.157   4.443   7.543 -0.4724 -0.4232 -0.1495
24802NA      NA75452   1.497   0.454   3.390 -0.0295 -0.1688  0.0953
24803NA      NA75453   6.678   8.034   4.945 -0.0155 -0.9750  0.5990
24804NA      NA75454   4.039   5.213   8.192  0.2423 -0.1412 -0.0144
24805NA      NA75455   8.019   5.663   5.695 -0.2054  0.1008  0.0054
24806NA      NA75456   6.081   3.833   5.643  0.0434 -0.3395  0.0164
24807NA      NA75457   3.594   8.378   7.949  0.3122 -0.5187  0.5468
24808NA      NA75458   0.013   3.855   5.729 -0.1557 -0.3864 -0.0581
24809NA      NA75459   3.395   8.422   0.221 -0.2280 -0.3003  0.3441
24810NA      NA75460   7.176   3.705   8.981  0.4256 -0.0717 -0.2937
24811NA      NA75461   6.127   5.040   0.261  0.1536 -0.4509 -0.1857
24812NA      NA75462   3.305   7.830   7.633  0.1847 -0.8048 -0.3654
24813NA      NA75463   3.868   5.982   5.433 -0.6936  0.3303 -0.0207
24814NA      NA75464   6.649   4.873   2.873 -0.1500  0.1639  0.2712
24815NA      NA75465   3.488   8.072   2.519  0.2753 -0.1513 -0.1520
24816NA      NA75466   6.285   0.078   2.846 -0.3406 -0.3210 -0.0354
24817NA      NA75467   7.236   1.768   4.812  0.2938 -0.2049 -0.2162
24818NA      NA75468   7.780   2.354   0.764  0.6749 -0.1634 -0.2299
24819NA      NA75469   5.758   5.428   5.860 -0.1045  0.2180  0.3803
24820NA      NA75470   9.049   6.400   7.994  0.1246  0.0291  0.2934
24821NA      NA75471   7.080   5.725   0.785 -0.1012 -0.2198  0.3036
24822NA      NA75472   0.962   8.713   8.262 -0.0867 -0.5096 -0.6194
24823NA      NA75473   6.114   6.294   4.315 -0.2182 -0.3031 -0.4385
24824NA      NA75474   6.214   1.104   2.463  0.0745 -0.0415 -0.2334
24825NA      NA75475   6.728   4.176   0.936 -0.1733  0.1302 -0.4225
24826NA      NA75476   3.168   1.380   8.799 -0.0912 -0.4406 -0.3886
24827NA      NA75477   8.844   5.182   4.701 -0.2433  0.1101  0.1437
24828NA      NA75478   5.768   4.113   8.708 -0.1554  0.2468  0.1148
24829NA      NA75479   2.826   9.052   3.485 -0.0265 -0.3637 -0.0740
24830NA      NA75480   4.996   1.274   8.705 -0.0104 -0.3232  0.7629
24831NA      NA75481   2.477   0.450   4.561 -0.4507 -0.0040 -0.3235
24832NA      NA75482   2.764   3.925   1.043 -0.2560 -0.4619  0.0982
24833NA      NA75483   2.672   0.473   6.916 -0.3001 -0.1063  0.0718
24834NA      NA75484   2.841   4.954   2.668 -0.1033  0.1039 -0.1757
24835NA      NA75485   1.534   5.407   9.114  0.4248 -0.2178  0.4658
24836NA      NA75486   2.427   2.297   1.299 -0.6133 -0.1185  0.0045
24837NA      NA75487   5.947   0.991   4.094  0.3355 -0.2892 -0.1489
24838NA      NA75488   1.154   6.882   4.091 -0.0613  0.0667  0.1666
24839NA      NA75489   0.988   2.304   3.281  0.1047  0.0944 -0.3578
24840NA      NA75490   7.007   3.641   4.355  0.3481 -0.1744  0.1914
24841NA      NA75491   6.729   9.101   0.138  0.3979  0.1093 -0.2902
24842NA      NA75492   0.082   3.879   8.927  0.0185 -0.6066  0.2850
24843NA      NA75493   2.699   3.260   7.991  0.0263 -0.1954 -0.2229
24844NA      NA75494   8.519   3.874   2.936  0.1781  0.4159 -0.2976
24845NA      NA75495   6.534   8.819   2.700  0.1966  0.0946  0.1128
24846CL      CL75496   2.132   2.580   3.370 -0.2158  0.4109  0.1914
24847CL      CL75497   5.831   2.234   0.568  0.1387 -0.1395 -0.1560
24848CL      CL75498   5.190   5.000   4.869  0.2195  0.1577  0.0138
24849CL      CL75499   1.862   7.712   7.451  0.2271  0.1892 -0.1033
24850CL      CL75500   1.504   4.350   1.773 -0.0173 -0.2189 -0.3256
24851CL      CL75501   6.602   1.272   5.125  0.1268  0.0752 -0.1565
24852CL      CL75502   3.308   7.208   4.502 -0.1542  0.1280  0.1597
24853CL      CL75503   6.266   8.185   5.431 -0.1077 -0.0213  0.3453
24854CL      CL75504   6.652   0.828   4.360  0.0057  0.2108  0.0927
24855CL      CL75505   5.336   0.162   7.895  0.4549 -0.0634 -0.2779
24856CL      CL75506   1.701   4.412   5.716  0.1645 -0.3232  0.2652
24857CL      CL75507   2.300   7.963   4.388 -0.2401 -0.2540  0.0478
24858CL      CL75508   0.413   0.808   8.334  0.0364 -0.1479  0.2370
24859CL      CL75509   6.407   0.788   1.836  0.0985 -0.0701  0.1469
24860CL      CL75510   7.924   6.128   1.727 -0.1553 -0.0258  0.3177
24861CL      CL75511   6.090   8.998   8.509  0.0678 -0.2876  0.6179
24862CL      CL75512   8.966   2.712   2.590 -0.1207  0.0976  0.2201
24863CL      CL75513   6.873   0.151   4.401 -0.4954 -0.3074  0.1572
24864CL      CL75514   6.997   0.031   1.175  0.1337 -0.5829 -0.0009
24865CL      CL75515   7.670   1.253   7.928 -0.0473  0.0968 -0.0951
24866CL      CL75516   2.651   1.889   2.779 -0.0879 -0.4874 -0.1220
24867CL      CL75517   7.924   7.799   3.747 -0.7423 -0.3401 -0.0597
24868CL      CL75518   8.687   5.180   4.522  0.0216  0.2296  0.1381
24869CL      CL75519   5.073   6.048   0.100 -0.1800  0.2371  0.1168
24870CL      CL75520   3.891   0.927   8.609 -0.2943 -0.4973  0.4242
24871CL      CL75521   4.705   3.576   3.861 -0.2665 -0.0518  0.2120
24872CL      CL75522   1.172   4.916   8.395  0.1666 -0.0936  0.2340
24873CL      CL75523   7.404   6.183   7.653 -0.5538  0.3693  0.2112
24874CL      CL75524   8.320   0.953   1.085 -0.5283  0.0119  0.0141
24875CL      CL75525   1.130   0.199   7.253  0.2572  0.0256 -0.0586
24876CL      CL75526   6.177   0.014   3.465 -0.1891 -0.0444  0.0404
24877CL      CL75527   6.375   4.404   4.174 -0.5049 -0.0473 -0.4727
24878CL      CL75528   0.375   8.746   0.997  0.1698 -0.3036 -0.3203
24879CL      CL75529   0.515   4.480   4.939 -0.2365  0.1490 -0.1462
24880CL      CL75530   3.952   2.965   7.490 -0.0633  0.3990  0.1044
24881CL      CL75531   3.875   0.020   7.598 -0.2477  0.1022 -0.1712
24882CL      CL75532   5.374   3.036   6.139  0.1265  0.3089  0.1382
24883CL      CL75533   1.987   0.011   0.752  0.1618  0.2958 -0.0886
24884CL      CL75534   4.828   4.818   0.371  0.2807 -0.3660  0.2816
24885CL      CL75535   8.832   5.503   1.561 -0.3617  0.2224 -0.2888
24886CL      CL75536   5.460   0.863   3.976 -0.0835  0.5237 -0.3355
24887CL      CL75537   6.147   4.010   1.400  0.2210  0.4308  0.1945
24888CL      CL75538   0.520   6.896   1.664 -0.3005  0.0357  0.5471
24889CL      CL75539   8.854   5.739   0.679 -0.0794  0.0615 -0.2716
24890CL      CL75540   1.457   0.065   2.562  0.1720  0.0651 -0.2923
24891CL      CL75541   0.125   8.748   7.147 -0.1709  0.1830  0.4584
24892CL      CL75542   8.795   5.193   4.942 -0.0630  0.5885  0.4587
24893CL      CL75543   3.358   3.965   3.593 -0.2917 -0.0187  0.8756
24894CL      CL75544   5.241   3.002   8.059 -0.0434  0.7157 -0.3175
24895CL      CL75545   7.590   5.566   4.936  0.0785  0.0114  0.4586
24896CL      CL75546   3.461   7.743   7.827  0.0170  0.1587 -0.5782
24897CL      CL75547   8.202   3.236   2.224 -0.1569 -0.1003 -0.5666
24898CL      CL75548   3.113   5.731   5.592  0.2276 -0.0046  0.0016
24899CL      CL75549   7.138   3.545   4.169  0.1981 -0.2001 -0.0175
24900CL      CL75550   8.759   5.021   7.299 -0.0152 -0.3221  0.1171
24901CL      CL75551   4.490   1.768   3.154  0.2638 -0.6788 -0.5559
24902CL      CL75552   2.624   2.650   1.578  0.0689  0.1134 -0.1807
24903CL      CL75553   8.614   4.125   0.537 -0.3003  0.2394 -0.4923
24904CL      CL75554   0.603   6.706   4.464  0.0019 -0.0604 -0.2302
24905CL      CL75555   5.183   4.044   1.348  0.3899 -0.1170 -0.3180
24906CL      CL75556   8.951   4.183   2.827 -0.0595  0.5015 -0.0508
24907CL      CL75557   1.752   4.196   7.633 -0.1275 -0.2157  0.1090
24908CL      CL75558   4.023   8.138   6.196  0.2272  0.1709 -0.3542
24909CL      CL75559   4.238   3.687   0.636  0.7643  0.1769  0.0754
24910CL      CL75560   7.256   0.511   6.771 -0.4114  0.0172  0.3118
24911CL      CL75561   5.210   4.043   6.077 -0.1681  0.1706  0.0942
24912CL      CL75562   5.482   0.977   2.585  0.1241 -0.3279 -0.1037
24913CL      CL75563   5.330   0.846   4.671  0.2227  0.4905 -0.0725
24914CL      CL75564   7.190   4.473   5.605 -0.6062  0.0645 -0.0671
24915CL      CL75565   7.322   3.385   0.804  0.2947  0.0865 -0.0941
24916CL      CL75566   0.962   1.445   1.900 -0.4362  0.1604 -0.0322
   9.13338   9.13338   9.13338
