G2NP-PAMAM in water
23945
    1aaa     C1    1   2.188   2.174   5.893  0.3691 -0.2986 -0.2569
    1aaa     H1    2   2.269   2.247   5.888  2.3397 -2.3529 -0.0444
    1aaa     H2    3   2.099   2.230   5.862  1.0316  0.9264  0.0009
    1aaa     C2    4   2.160   2.138   6.041 -0.0227  0.0787  0.5197
    1aaa     H3    5   2.094   2.050   6.040 -0.1750  0.1908  0.8735
    1aaa     H4    6   2.244   2.079   6.080 -2.0200 -2.8489  0.7203
    1aaa     N1    7   2.128   2.242   6.139  0.3028 -0.4172 -0.2810
    1aaa     N2    8   2.221   2.055   5.798  0.0620 -0.6491 -0.4522
    1aaa     C3    9   2.101   1.996   5.740  0.8059  0.3996 -0.4540
    1aaa     H5   10   2.047   2.069   5.679 -1.9816 -0.9887  0.1814
    1aaa     H6   11   2.026   1.958   5.811 -0.6284  3.1403 -0.3781
    1aaa     C4   12   2.319   2.100   5.697 -0.2029 -0.5112 -0.7470
    1aaa     H7   13   2.347   2.019   5.629 -0.7725  0.5539 -2.3238
    1aaa     H8   14   2.277   2.180   5.635 -1.0564 -1.4741 -1.4336
    1aaa     C5   15   1.997   2.310   6.112  0.0504  0.6626  0.2900
    1aaa     H9   16   1.975   2.387   6.187 -0.2056  3.3983 -2.3627
    1aaa    H10   17   2.001   2.358   6.013 -1.4311  0.1566 -0.0467
    1aaa     C6   18   2.231   2.344   6.153  0.5012  0.4054 -0.6442
    1aaa    H11   19   2.191   2.416   6.226  0.5782 -0.4776  0.2891
    1aaa    H12   20   2.228   2.398   6.058 -3.0088  2.7552  0.5849
    1aaa     C7   21   1.883   2.201   6.109 -0.0101  0.0556  0.0403
    1aaa    H13   22   1.880   2.157   6.009  0.0684 -0.2976  0.1911
    1aaa    H14   23   1.903   2.116   6.176  2.6230  0.9684  0.5201
    1aaa     C8   24   2.364   2.292   6.215  0.0570  0.2659  0.1659
    1aaa    H15   25   2.345   2.247   6.313  0.4968  1.3643  0.7760
    1aaa    H16   26   2.405   2.215   6.149  2.9333  1.0652  0.8559
    1aaa     C9   27   2.461   2.150   5.751  1.2983 -0.3568 -0.1401
    1aaa    H17   28   2.518   2.188   5.666  1.6383  1.7455  0.9643
    1aaa    H18   29   2.459   2.233   5.823 -1.4239  1.6485 -2.3134
    1aaa    C10   30   2.138   1.872   5.657  0.4637  0.2123  0.1979
    1aaa    H19   31   2.190   1.900   5.564 -1.4167 -2.5072 -1.8437
    1aaa    H20   32   2.198   1.804   5.719 -1.8804 -2.2873 -0.0699
    1aaa    C11   33   2.544   2.042   5.805  0.4690 -0.2210 -0.2181
    1aaa    C12   34   2.022   1.795   5.606  0.3328 -0.5575 -0.6845
    1aaa    C13   35   1.748   2.261   6.142 -0.7436  0.0648  0.2403
    1aaa    C14   36   2.468   2.401   6.213  0.5409 -0.2604 -0.1845
    1aaa     O1   37   2.665   2.045   5.787  0.3434 -0.1055 -0.2746
    1aaa     O2   38   1.668   2.292   6.054  0.0562  0.5016 -0.2340
    1aaa     O3   39   2.486   2.485   6.123 -0.3096  0.1960 -0.3451
    1aaa     O4   40   1.967   1.827   5.507  0.5916  0.3864 -0.3150
    2bbb     C1   41   2.474   1.748   6.027 -0.2627  0.2144 -0.4773
    2bbb     H1   42   2.538   1.700   6.102 -0.2314 -3.2011 -2.4538
    2bbb     H2   43   2.453   1.679   5.943  1.4559 -0.6784 -0.2310
    2bbb     C2   44   2.561   1.871   5.983 -1.3630  0.0809 -0.1527
    2bbb     H3   45   2.595   1.917   6.077 -0.9094  2.2146 -1.2977
    2bbb     H4   46   2.655   1.841   5.936  0.0860 -0.8165  3.0132
    2bbb     N1   47   2.347   1.781   6.095  0.9974 -0.6229  0.3055
    2bbb     C3   48   2.366   1.845   6.225 -0.0311  0.2232  0.2481
    2bbb     H5   49   2.417   1.940   6.206 -0.9735  0.8827  0.9144
    2bbb     H6   50   2.431   1.780   6.284 -1.7318 -1.4345  0.3903
    2bbb     C4   51   2.246   1.675   6.094  0.4803  1.3294  0.1298
    2bbb     H7   52   2.276   1.592   6.030 -1.9225 -0.9721  1.7873
    2bbb     H8   53   2.222   1.630   6.191 -1.2464 -0.3405 -1.0067
    2bbb     C5   54   2.105   1.719   6.039  0.1375  0.5081 -0.1108
    2bbb     H9   55   2.056   1.794   6.103 -0.2585 -0.1948  0.4244
    2bbb    H10   56   2.117   1.762   5.939 -0.4946 -1.1715 -0.9439
    2bbb     C6   57   2.239   1.880   6.300  0.0820 -0.4229  0.0624
    2bbb    H11   58   2.164   1.937   6.244 -1.3612 -0.5875  1.7280
    2bbb    H12   59   2.185   1.791   6.336  0.2971 -0.1269  1.1595
    2bbb     C7   60   2.025   1.594   6.023  0.4068 -0.2154 -0.0716
    2bbb     C8   61   2.262   1.964   6.427  0.0194 -0.3948 -0.1858
    2bbb     O1   62   2.060   1.505   5.950  0.5171 -0.3074 -0.0530
    2bbb     O2   63   2.366   2.022   6.456  0.0173 -0.3621  0.4552
    2bbb     N4   64   2.480   1.951   5.887  0.1714 -0.1425  0.6460
    2bbb    H21   65   2.379   1.956   5.881  0.0013  0.4680  2.9855
    3bbb     C1   66   1.741   1.609   5.624 -0.6611  0.2516 -0.2623
    3bbb     H1   67   1.786   1.509   5.625 -1.7046 -0.2367 -0.4713
    3bbb     H2   68   1.776   1.646   5.527  1.7079  0.5208  0.6426
    3bbb     C2   69   1.828   1.700   5.723  0.5246  0.6268  0.1576
    3bbb     H3   70   1.794   1.804   5.729  0.6581  0.5908  3.1339
    3bbb     H4   71   1.814   1.644   5.816 -1.0415 -0.5954 -0.7566
    3bbb     N1   72   1.593   1.601   5.641 -0.4892  0.1295  0.6225
    3bbb     C3   73   1.555   1.514   5.758  0.1119  0.3593  0.5331
    3bbb     H5   74   1.611   1.551   5.844  1.3828  0.0787 -0.1534
    3bbb     H6   75   1.585   1.409   5.746  0.9485  0.4701  1.6278
    3bbb     C4   76   1.525   1.568   5.511  0.1157 -0.2332 -0.8527
    3bbb     H7   77   1.574   1.492   5.449  2.0284 -0.7577  1.1519
    3bbb     H8   78   1.426   1.530   5.537 -0.7328  2.6369  0.5607
    3bbb     C5   79   1.512   1.692   5.426  0.1244  0.0442 -0.0170
    3bbb     H9   80   1.604   1.752   5.426  0.2008 -0.0332  1.2427
    3bbb    H10   81   1.486   1.667   5.323 -1.2655 -0.6489  0.4765
    3bbb     C6   82   1.405   1.527   5.798  0.1801  0.1013 -0.7214
    3bbb    H11   83   1.381   1.632   5.817 -0.4595 -0.3137  0.8631
    3bbb    H12   84   1.333   1.472   5.735 -0.0336 -1.5119  0.8606
    3bbb     C7   85   1.402   1.781   5.487  0.0975  0.1814  0.2038
    3bbb     C8   86   1.400   1.455   5.923  0.1480 -0.0496 -1.2328
    3bbb     O1   87   1.295   1.801   5.432  0.0683 -0.4161  0.6735
    3bbb     O2   88   1.465   1.491   6.022  0.2511  0.0779 -0.0651
    3bbb     N4   89   1.972   1.706   5.697  0.1618  0.0467 -0.3098
    3bbb    H21   90   2.040   1.675   5.765 -0.8796 -2.1578 -0.2174
    4bbb     C1   91   1.650   2.526   6.340  0.1309  0.2520 -0.2252
    4bbb     H1   92   1.566   2.594   6.325  0.6676  1.1496  0.7000
    4bbb     H2   93   1.719   2.560   6.262  0.7541 -0.7223 -0.1170
    4bbb     C2   94   1.612   2.379   6.315  0.3197 -0.6348 -0.5059
    4bbb     H3   95   1.550   2.342   6.398 -3.4669 -0.4381 -3.0536
    4bbb     H4   96   1.531   2.385   6.242 -0.2576  0.8518  0.2121
    4bbb     N1   97   1.721   2.550   6.466  0.0949 -0.2796 -0.1328
    4bbb     C3   98   1.718   2.701   6.498 -0.5446  0.0725  0.2140
    4bbb     H5   99   1.740   2.759   6.408 -0.8015 -0.9135 -0.5082
    4bbb     H6  100   1.789   2.723   6.579 -0.4307  0.0674  0.1160
    4bbb     C4  101   1.861   2.505   6.460  0.4125 -0.1520 -0.5335
    4bbb     H7  102   1.868   2.407   6.412  0.5019  0.4160 -1.7466
    4bbb     H8  103   1.922   2.570   6.396 -0.3550  1.3659  0.2253
    4bbb     C5  104   1.908   2.484   6.601  0.0743 -0.5728  0.1075
    4bbb     H9  105   1.891   2.573   6.664 -2.8870  0.3353 -1.7423
    4bbb    H10  106   1.849   2.406   6.651 -1.5332 -0.4140 -1.4563
    4bbb     C6  107   1.582   2.731   6.549 -0.6158  0.1132  0.3262
    4bbb    H11  108   1.506   2.700   6.475 -1.1265 -1.0936  1.3274
    4bbb    H12  109   1.561   2.678   6.642  1.2425  2.2633  2.0885
    4bbb     C7  110   2.048   2.438   6.591  0.0528  0.2867 -0.3606
    4bbb     C8  111   1.577   2.879   6.578  0.1514 -0.1250 -0.0286
    4bbb     O1  112   2.058   2.326   6.551  0.0887  0.3291 -0.0247
    4bbb     O2  113   1.599   2.928   6.686  0.4766 -0.2041  0.0193
    4bbb     N4  114   1.717   2.287   6.273 -0.4968 -0.1957 -0.5165
    4bbb    H21  115   1.769   2.243   6.348  0.3517  1.4893 -0.0907
    5bbb     C1  116   2.762   2.342   6.336  0.4698  0.0157 -0.2850
    5bbb     H1  117   2.744   2.272   6.419  1.0418 -1.5577 -1.4474
    5bbb     H2  118   2.865   2.379   6.335  0.8268 -0.8955  0.4724
    5bbb     C2  119   2.666   2.465   6.354 -0.6714  0.3122 -0.2516
    5bbb     H3  120   2.673   2.503   6.457 -1.8501 -0.3696  0.0984
    5bbb     H4  121   2.682   2.538   6.274  2.5799  0.2388  0.1736
    5bbb     N1  122   2.737   2.268   6.217 -0.0469  0.4784  0.0856
    5bbb     C3  123   2.778   2.121   6.214 -0.3710 -0.1511  0.1550
    5bbb     H5  124   2.886   2.107   6.199 -0.2377  0.7736  0.1968
    5bbb     H6  125   2.731   2.085   6.122  1.6082  2.4902 -2.0907
    5bbb     C4  126   2.798   2.351   6.116  0.4072 -0.1107  0.0530
    5bbb     H7  127   2.755   2.452   6.118  1.0784  0.2058 -0.8437
    5bbb     H8  128   2.907   2.359   6.122  0.2196  2.2117  2.4439
    5bbb     C5  129   2.754   2.297   5.980 -0.3575 -0.4328  0.0034
    5bbb     H9  130   2.806   2.204   5.956  1.0229 -0.1703  1.8040
    5bbb    H10  131   2.646   2.276   5.982 -1.5508  4.4524  0.0130
    5bbb     C6  132   2.727   2.038   6.335  0.0021 -0.8395  0.3234
    5bbb    H11  133   2.760   2.077   6.431 -0.5347  2.2576 -0.6505
    5bbb    H12  134   2.620   2.063   6.334  0.2154  0.1313 -0.8398
    5bbb     C7  135   2.780   2.394   5.867  0.5454  0.1927  0.5985
    5bbb     C8  136   2.757   1.892   6.319  0.6344 -0.1345 -0.5470
    5bbb     O1  137   2.891   2.409   5.822  0.0731  0.0663  0.5472
    5bbb     O2  138   2.795   1.842   6.213 -0.1846 -0.5462  0.6067
    5bbb     N4  139   2.532   2.421   6.334  0.4211  0.2153 -0.2497
    5bbb    H21  140   2.489   2.363   6.406  1.7703 -0.9719 -0.3599
    6bbb     C1  141   1.824   1.366   6.203  0.1143 -0.7596  0.2064
    6bbb     H1  142   1.925   1.326   6.191  0.7233  0.5486  0.8195
    6bbb     H2  143   1.752   1.286   6.177 -0.0821 -0.2655 -0.8405
    6bbb     C2  144   1.802   1.477   6.094  0.0104  0.0693 -0.0994
    6bbb     H3  145   1.812   1.434   5.993  0.6446  1.3202 -0.5888
    6bbb     H4  146   1.704   1.526   6.092  0.1775  0.4898  1.3926
    6bbb     N1  147   1.808   1.426   6.342  0.3784 -0.0229 -0.3275
    6bbb     C3  148   1.694   1.506   6.365 -0.4464  0.9923  0.3244
    6bbb     H5  149   1.690   1.593   6.299  0.9314  1.5365  0.9264
    6bbb     H6  150   1.693   1.549   6.466 -1.2177 -0.3279  0.8996
    6bbb     C4  151   1.824   1.311   6.440  0.5216  0.5001  0.6250
    6bbb     H7  152   1.750   1.233   6.420  3.2279 -2.3157  0.8445
    6bbb     H8  153   1.922   1.262   6.435  0.7746  1.0022  0.6161
    6bbb     C5  154   1.820   1.353   6.586  0.3158  0.1019 -0.7900
    6bbb     H9  155   1.885   1.440   6.601  0.3149 -0.2192  1.4368
    6bbb    H10  156   1.716   1.387   6.602 -0.1211 -1.7172  0.5654
    6bbb     C6  157   1.573   1.424   6.340  0.3719 -0.2202  0.1822
    6bbb    H11  158   1.571   1.405   6.232  2.1495 -0.7966  0.2172
    6bbb    H12  159   1.571   1.325   6.388  1.7205 -1.8144 -2.7986
    6bbb     C7  160   1.843   1.246   6.690  0.0959 -0.8597 -0.2775
    6bbb     C8  161   1.449   1.495   6.373 -0.0203  1.1813  0.4762
    6bbb     O1  162   1.907   1.271   6.787  0.5060 -0.5029 -0.9139
    6bbb     O2  163   1.409   1.496   6.484  0.5468 -0.4307 -0.6360
    6bbb     N4  164   1.905   1.593   6.100  0.6976 -0.2895  0.3350
    6bbb    H21  165   1.881   1.681   6.144  0.4635  1.4478 -2.9664
    7bbb     C1  166   2.002   1.964   6.717  0.3074  0.7140 -0.0286
    7bbb     H1  167   1.914   2.013   6.674  0.6614  1.7050  0.3342
    7bbb     H2  168   2.021   2.011   6.815  1.8825 -0.9865  0.5280
    7bbb     C2  169   2.133   2.009   6.647  0.2364 -0.1916 -0.2657
    7bbb     H3  170   2.129   2.118   6.632  1.4058 -0.0195  0.5021
    7bbb     H4  171   2.211   1.981   6.719 -1.0160  1.0284  1.6615
    7bbb     N1  172   1.990   1.819   6.736  0.0048  0.0550  0.7579
    7bbb     C3  173   1.861   1.796   6.799  0.0429 -0.0893 -0.4014
    7bbb     H5  174   1.827   1.889   6.847  0.5870  1.0216 -2.0518
    7bbb     H6  175   1.869   1.717   6.874  1.0319  0.4769  0.0913
    7bbb     C4  176   2.094   1.751   6.820  0.0064  0.3552 -0.2686
    7bbb     H7  177   2.196   1.792   6.816  0.6993 -1.1411  0.9119
    7bbb     H8  178   2.060   1.758   6.924 -0.2460 -2.0518 -0.1399
    7bbb     C5  179   2.098   1.603   6.787 -0.0928  0.6863  0.0120
    7bbb     H9  180   2.002   1.555   6.810  0.4273 -1.1470 -1.4170
    7bbb    H10  181   2.110   1.597   6.679  0.2039  2.2616 -0.0669
    7bbb     C6  182   1.772   1.756   6.688  0.1685  0.6037 -0.2938
    7bbb    H11  183   1.768   1.829   6.606  0.4559  0.0110 -0.8462
    7bbb    H12  184   1.800   1.659   6.646  1.0893 -0.0757  1.7572
    7bbb     C7  185   2.206   1.530   6.863 -0.3951  1.1134 -0.1870
    7bbb     C8  186   1.628   1.741   6.744 -0.5735 -0.4040 -0.1551
    7bbb     O1  187   2.312   1.582   6.898  0.3616  0.0853  0.3182
    7bbb     O2  188   1.583   1.644   6.792 -0.0279 -0.1641 -0.5670
    7bbb     N4  189   2.155   1.944   6.514  0.3884 -0.1478  0.1222
    7bbb    H21  190   2.080   1.891   6.473 -1.3503  2.7365 -0.7323
    8bbb     C1  191   1.394   1.982   5.798 -0.0790  0.2062 -0.6795
    8bbb     H1  192   1.367   1.892   5.855  2.5545 -1.1205 -1.3809
    8bbb     H2  193   1.339   2.062   5.850 -1.9233 -0.3390 -1.6694
    8bbb     C2  194   1.345   1.955   5.659 -0.3435  0.1553 -0.2976
    8bbb     H3  195   1.243   1.919   5.677  0.5097 -1.9475  0.5811
    8bbb     H4  196   1.329   2.040   5.590 -2.1786 -0.3361 -0.5441
    8bbb     N1  197   1.541   1.993   5.801  0.7281  0.0324 -0.1655
    8bbb     C3  198   1.579   1.972   5.942  0.5944 -0.2593  0.0003
    8bbb     H5  199   1.504   2.024   6.003  0.0304  0.3472 -1.1964
    8bbb     H6  200   1.673   2.022   5.970  1.0261 -0.6603 -0.7170
    8bbb     C4  201   1.584   2.127   5.746  0.1261  0.0687 -0.4068
    8bbb     H7  202   1.520   2.150   5.660  1.0586  1.0864 -0.8528
    8bbb     H8  203   1.576   2.205   5.822 -2.5506 -0.8232  0.3501
    8bbb     C5  204   1.725   2.101   5.692 -0.2736 -0.3913  0.2038
    8bbb     H9  205   1.791   2.077   5.777  0.1096 -0.1883 -0.0318
    8bbb    H10  206   1.730   2.019   5.620 -0.0132 -0.3937  0.2243
    8bbb     C6  207   1.576   1.826   5.979 -0.4134  0.0787 -0.0073
    8bbb    H11  208   1.475   1.783   5.977 -0.9747  1.3865 -1.5752
    8bbb    H12  209   1.631   1.763   5.907 -1.6570  0.8703 -1.7012
    8bbb     C7  210   1.768   2.233   5.638 -0.1826  0.3049 -0.2688
    8bbb     C8  211   1.636   1.827   6.119  0.0245  0.3786 -0.6416
    8bbb     O1  212   1.826   2.311   5.703  0.0897  0.1539  0.0290
    8bbb     O2  213   1.752   1.854   6.147 -0.6596 -0.7440 -0.0493
    8bbb     N4  214   1.434   1.848   5.597  0.0340 -0.3427 -0.5778
    8bbb    H21  215   1.526   1.830   5.636  0.9182  1.5230 -1.6702
    9bbb     C1  216   1.293   1.107   6.020  0.9154  0.2475 -0.2539
    9bbb     H1  217   1.194   1.100   5.972  1.1693 -1.1125 -0.6254
    9bbb     H2  218   1.283   1.049   6.112  2.7450  2.7137  1.6465
    9bbb     C2  219   1.307   1.256   6.047 -0.2470 -0.0134  0.1540
    9bbb     H3  220   1.214   1.266   6.105 -1.6351 -0.7034 -1.8538
    9bbb     H4  221   1.382   1.285   6.122 -0.7887  1.8177  0.0270
    9bbb     N1  222   1.386   1.046   5.929  0.4622  0.1578 -0.2402
    9bbb     C3  223   1.521   1.063   5.969 -0.1331 -0.0733  0.3796
    9bbb     H5  224   1.557   0.980   6.029 -0.9576 -1.1453 -0.5528
    9bbb     H6  225   1.533   1.164   6.012  0.3725  0.6170 -1.2858
    9bbb     C4  226   1.358   0.910   5.877 -0.0457 -0.1629 -0.5469
    9bbb     H7  227   1.430   0.899   5.795  0.3562 -0.5050 -0.1550
    9bbb     H8  228   1.380   0.837   5.956  0.2817  0.2741 -0.2269
    9bbb     C5  229   1.221   0.888   5.818 -0.4997 -0.0843 -1.0798
    9bbb     H9  230   1.150   0.890   5.902 -0.4918  1.9183 -1.0661
    9bbb    H10  231   1.182   0.972   5.759 -2.3605  1.7472  2.4302
    9bbb     C6  232   1.605   1.070   5.836 -0.1929  0.5518 -0.3339
    9bbb    H11  233   1.615   0.965   5.803 -0.6690  0.4071 -0.0224
    9bbb    H12  234   1.568   1.134   5.755  0.4169 -0.0104 -1.0803
    9bbb     C7  235   1.209   0.767   5.741 -0.1638  0.7256  0.5162
    9bbb     C8  236   1.745   1.108   5.864 -0.2374  0.8865  0.2796
    9bbb     O1  237   1.297   0.685   5.727 -0.4567 -0.2124  0.1771
    9bbb     O2  238   1.808   1.092   5.963 -0.4089 -0.0192  0.1304
    9bbb     N4  239   1.321   1.345   5.931  0.2598 -0.0269  0.8702
    9bbb    H21  240   1.274   1.314   5.846  1.2259  1.4162 -0.2289
   10bbb     C1  241   2.258   2.478   6.855  0.3084 -0.1398  0.7068
   10bbb     H1  242   2.355   2.441   6.890  0.4906 -1.2477 -0.8435
   10bbb     H2  243   2.180   2.407   6.884  0.1390 -0.3145 -0.1516
   10bbb     C2  244   2.273   2.482   6.701 -0.0531 -0.1921 -0.7019
   10bbb     H3  245   2.351   2.559   6.691  0.1164 -0.0371  1.2765
   10bbb     H4  246   2.307   2.385   6.664 -0.2341 -0.6607  0.3284
   10bbb     N1  247   2.210   2.610   6.908 -0.5837 -0.0900  0.0769
   10bbb     C3  248   2.325   2.706   6.915  0.6445  0.5098  0.0964
   10bbb     H5  249   2.375   2.693   6.819  0.0362 -0.7489 -0.0636
   10bbb     H6  250   2.395   2.678   6.995 -0.0477 -0.6242  0.3152
   10bbb     C4  251   2.143   2.591   7.034  0.0490 -0.3904 -0.1288
   10bbb     H7  252   2.172   2.493   7.073  0.1821 -0.1417  0.4056
   10bbb     H8  253   2.171   2.672   7.102 -0.0521  0.0458 -0.5926
   10bbb     C5  254   1.996   2.607   7.009  0.7770  0.2334 -0.5191
   10bbb     H9  255   1.971   2.713   7.018 -0.5761 -0.1653  0.8727
   10bbb    H10  256   1.966   2.581   6.906 -0.5499 -0.6460  0.0632
   10bbb     C6  257   2.285   2.853   6.918 -0.2498  0.0289 -1.0555
   10bbb    H11  258   2.205   2.860   6.843 -0.5999 -2.2270 -0.9791
   10bbb    H12  259   2.228   2.874   7.009 -1.1040 -4.0706 -0.4329
   10bbb     C7  260   1.905   2.544   7.117 -0.0062  0.2554  0.0799
   10bbb     C8  261   2.410   2.940   6.899  0.6044 -0.8268  0.7316
   10bbb     O1  262   1.922   2.440   7.169  0.0560  0.4251 -0.3429
   10bbb     O2  263   2.521   2.925   6.939 -0.3664  0.3819 -0.0847
   10bbb     N4  264   2.146   2.518   6.640  0.3869 -0.2395  0.6279
   10bbb    H21  265   2.109   2.611   6.654  1.1971  0.8709 -3.3456
   11bbb     C1  266   1.583   3.153   6.311  0.6733  0.7153  0.8385
   11bbb     H1  267   1.614   3.258   6.322  1.8846  0.6685 -1.5085
   11bbb     H2  268   1.486   3.148   6.260  0.3093 -1.5109  1.6191
   11bbb     C2  269   1.567   3.104   6.453  0.0196  0.7810 -0.3310
   11bbb     H3  270   1.655   3.139   6.509  0.4137 -0.5534 -0.0801
   11bbb     H4  271   1.481   3.160   6.494  0.4310  0.1099  1.5827
   11bbb     N1  272   1.688   3.076   6.237  0.1324  0.4098 -0.6981
   11bbb     C3  273   1.702   3.111   6.096 -0.1003  0.0073 -0.2126
   11bbb     H5  274   1.784   3.054   6.051  1.5707  1.4573  0.8534
   11bbb     H6  275   1.724   3.218   6.091  1.3490 -0.2442  0.2218
   11bbb     C4  276   1.819   3.080   6.302  0.4449 -0.3193 -0.8646
   11bbb     H7  277   1.872   3.172   6.273  1.5383 -0.3266  0.9911
   11bbb     H8  278   1.814   3.076   6.411  0.6464  2.7386 -0.6470
   11bbb     C5  279   1.897   2.951   6.269 -0.1463 -0.1410  0.3621
   11bbb     H9  280   1.821   2.873   6.259 -1.0043  0.9642 -3.0370
   11bbb    H10  281   1.949   2.975   6.176 -2.1036  3.8852  0.0894
   11bbb     C6  282   1.582   3.076   6.005 -0.6483  0.1456 -0.5134
   11bbb    H11  283   1.578   2.967   6.002  0.8036  0.0098  0.8914
   11bbb    H12  284   1.485   3.120   6.033 -0.6893  0.8478 -1.6759
   11bbb     C7  285   2.007   2.923   6.357  0.2556 -0.0009  0.4210
   11bbb     C8  286   1.615   3.125   5.866 -0.4106  0.8429 -0.6379
   11bbb     O1  287   2.017   2.970   6.470 -0.1931 -0.5937 -0.0268
   11bbb     O2  288   1.714   3.191   5.841  0.4157 -0.2882 -0.4338
   11bbb     N4  289   1.540   2.955   6.472  0.3504 -0.2625 -0.4420
   11bbb    H21  290   1.516   2.897   6.393  2.7305 -0.7520 -0.8894
   12bbb     C1  291   2.504   2.604   5.679 -0.3815  0.0296  0.4077
   12bbb     H1  292   2.428   2.527   5.692 -0.4619  0.0643  0.1468
   12bbb     H2  293   2.501   2.638   5.575 -0.5993 -1.3775 -0.0608
   12bbb     C2  294   2.640   2.539   5.706 -0.4470  0.4626  0.7735
   12bbb     H3  295   2.651   2.466   5.626 -2.3216  0.1390  0.7696
   12bbb     H4  296   2.718   2.611   5.677 -0.2369 -0.3580 -0.8019
   12bbb     N1  297   2.476   2.715   5.768 -0.7670  0.0056 -0.2114
   12bbb     C3  298   2.551   2.832   5.726 -1.0067  0.5183  0.2480
   12bbb     H5  299   2.501   2.894   5.651 -0.7034 -0.6490 -0.9764
   12bbb     H6  300   2.646   2.805   5.677  0.0840  2.9448  0.9073
   12bbb     C4  301   2.331   2.751   5.780 -0.1182  0.1207  0.6756
   12bbb     H7  302   2.324   2.842   5.842 -1.8850  0.6126 -0.1636
   12bbb     H8  303   2.273   2.770   5.689 -0.4584 -1.3912  0.5617
   12bbb     C5  304   2.270   2.640   5.870  0.2056  0.0065  0.2058
   12bbb     H9  305   2.244   2.554   5.808  2.6985 -0.5408 -0.2068
   12bbb    H10  306   2.334   2.612   5.954 -0.8069  0.4041  1.1279
   12bbb     C6  307   2.595   2.916   5.846 -0.5513  0.4960 -0.0407
   12bbb    H11  308   2.659   2.997   5.807  0.0284  0.0591 -0.0128
   12bbb    H12  309   2.514   2.955   5.909  0.7133  2.3381  0.5475
   12bbb     C7  310   2.140   2.698   5.921  0.3307 -0.5369 -0.0243
   12bbb     C8  311   2.692   2.841   5.943  0.1984 -0.2034  0.3464
   12bbb     O1  312   2.138   2.745   6.033  0.3828 -0.5282  0.1086
   12bbb     O2  313   2.808   2.820   5.918 -0.2197  0.3654  0.0755
   12bbb     N4  314   2.667   2.465   5.831 -0.5849  0.1448 -0.3076
   12bbb    H21  315   2.591   2.448   5.895 -2.0205 -0.2206 -2.0176
   13bbb     C1  316   2.670   1.613   6.574  0.7724  0.4411  0.9724
   13bbb     H1  317   2.751   1.644   6.642  3.5483  0.0994 -1.9147
   13bbb     H2  318   2.680   1.504   6.568 -3.7047 -0.1981  1.8089
   13bbb     C2  319   2.706   1.669   6.433 -0.1721 -0.1233 -0.3504
   13bbb     H3  320   2.800   1.618   6.406 -0.6916 -0.4665 -1.5739
   13bbb     H4  321   2.635   1.645   6.352 -0.8072  1.4437 -0.2897
   13bbb     N1  322   2.534   1.641   6.622 -0.0174  0.1686  0.0375
   13bbb     C3  323   2.421   1.601   6.537 -0.6864 -0.0981 -0.0249
   13bbb     H5  324   2.431   1.643   6.437  1.5358  0.5717  0.4176
   13bbb     H6  325   2.331   1.635   6.589 -0.1205  0.8566  0.3647
   13bbb     C4  326   2.499   1.784   6.654  0.1211 -0.7119 -0.0865
   13bbb     H7  327   2.501   1.853   6.569  1.2446  0.9558  1.2311
   13bbb     H8  328   2.404   1.784   6.710  0.8869  0.3315  1.2595
   13bbb     C5  329   2.598   1.840   6.762  0.8957  0.3585 -0.3605
   13bbb     H9  330   2.596   1.786   6.857 -0.7306 -0.4344 -0.8263
   13bbb    H10  331   2.701   1.843   6.723  1.2180 -2.9714 -0.0140
   13bbb     C6  332   2.421   1.450   6.520 -0.2796 -0.3223 -0.2525
   13bbb    H11  333   2.504   1.430   6.451 -1.0451  1.0883 -1.6351
   13bbb    H12  334   2.425   1.399   6.618  1.4407  0.7216  0.2714
   13bbb     C7  335   2.555   1.983   6.775 -0.3062 -0.7126 -0.6177
   13bbb     C8  336   2.300   1.401   6.460  0.2727 -0.0037 -0.3423
   13bbb     O1  337   2.616   2.079   6.723  0.4832  0.6986 -0.0541
   13bbb     O2  338   2.190   1.415   6.519 -0.1916 -0.8438 -0.2564
   13bbb     N4  339   2.722   1.818   6.427 -0.2938  0.2825 -0.0693
   13bbb    H21  340   2.702   1.878   6.507  2.5707  0.4103  0.6524
   14ccc     C1  341   1.786   1.006   6.757  0.4281 -0.2631  0.2133
   14ccc     H1  342   1.841   1.030   6.849  0.7830 -1.3057  0.2832
   14ccc     H2  343   1.678   0.998   6.778  0.3021 -0.4254 -0.4745
   14ccc     C2  344   1.833   0.871   6.696  0.1285 -0.2001 -0.7661
   14ccc     H3  345   1.832   0.795   6.775  2.1414  0.1914 -0.3168
   14ccc     H4  346   1.772   0.853   6.606 -1.7470  1.7497  0.0261
   14ccc     N1  347   1.970   0.875   6.642  0.2038  0.4492 -0.2345
   14ccc     H5  348   1.998   0.784   6.603  2.3441  1.8300 -2.1971
   14ccc     H6  349   1.971   0.928   6.555  0.1358  0.4996 -0.2046
   14ccc     N2  350   1.793   1.123   6.666  0.2011  0.5098  0.0243
   14ccc     H7  351   1.749   1.111   6.575  0.7147 -2.2678  0.0607
   15ccc     C1  352   1.236   1.574   6.282 -0.0429  0.3128  0.5612
   15ccc     H1  353   1.198   1.546   6.182  0.9601  0.9132 -0.0028
   15ccc     H2  354   1.190   1.502   6.350 -1.4521  0.8978  0.2678
   15ccc     C2  355   1.192   1.716   6.322 -0.6991 -0.4699 -0.0232
   15ccc     H3  356   1.238   1.792   6.259 -0.5754  0.7949  1.5380
   15ccc     H4  357   1.084   1.730   6.308 -0.3541  0.0429 -2.7605
   15ccc     N1  358   1.236   1.735   6.460  0.0897  0.1701  0.7405
   15ccc     H5  359   1.177   1.675   6.516  0.6890 -1.8173 -0.6545
   15ccc     H6  360   1.315   1.670   6.467  0.0896  0.1944  0.9696
   15ccc     N2  361   1.382   1.551   6.271 -0.5822 -0.7006 -0.0019
   15ccc     H7  362   1.410   1.530   6.176 -2.4831  2.7634 -1.5186
   16ccc     C1  363   2.260   1.297   6.943 -0.6837  0.5038  0.4667
   16ccc     H1  364   2.355   1.290   6.888 -0.3852  0.8436  0.9243
   16ccc     H2  365   2.291   1.328   7.043 -1.2717  1.1779  0.4461
   16ccc     C2  366   2.208   1.149   6.955  0.0615  0.3407 -0.4104
   16ccc     H3  367   2.288   1.075   6.970 -2.0902 -2.9075 -3.3704
   16ccc     H4  368   2.135   1.150   7.036  1.7542  1.1940  1.1701
   16ccc     N1  369   2.138   1.105   6.833  0.9245  0.0895  0.6246
   16ccc     H5  370   2.067   1.178   6.821 -1.1695 -1.8404  0.4447
   16ccc     H6  371   2.197   1.110   6.750  1.4145 -0.2106  0.9578
   16ccc     N2  372   2.171   1.397   6.881  0.0941 -0.4399 -0.2848
   16ccc     H7  373   2.096   1.361   6.822  0.7463  0.1837 -1.5342
   17ccc     C1  374   1.405   1.849   6.774  0.4833  0.3642  0.4867
   17ccc     H1  375   1.354   1.773   6.714 -0.2857  0.4744  0.9907
   17ccc     H2  376   1.403   1.820   6.879 -1.4264 -1.7463 -0.0524
   17ccc     C2  377   1.339   1.993   6.767 -0.3692  0.5003 -0.3795
   17ccc     H3  378   1.236   1.989   6.804  0.2381  1.4710  1.5339
   17ccc     H4  379   1.410   2.045   6.833  2.0656 -1.0129 -1.6478
   17ccc     N1  380   1.356   2.051   6.631  0.4803 -0.3245  0.1413
   17ccc     H5  381   1.350   2.152   6.647  0.5276 -0.4943  1.2464
   17ccc     H6  382   1.457   2.057   6.622  0.4758 -0.7609 -0.2481
   17ccc     N2  383   1.549   1.854   6.732  0.0503  0.3997 -0.2435
   17ccc     H7  384   1.600   1.935   6.699  1.3646 -0.3901 -0.2452
   18ccc     C1  385   1.725   2.411   5.472 -0.6651  0.6717  0.0804
   18ccc     H1  386   1.823   2.453   5.496 -1.2369  2.7471 -0.9517
   18ccc     H2  387   1.724   2.414   5.362 -0.2016  0.7999  0.0786
   18ccc     C2  388   1.608   2.511   5.499  0.2863 -0.1759  0.9101
   18ccc     H3  389   1.512   2.466   5.472 -0.1351  2.4559 -2.6551
   18ccc     H4  390   1.606   2.535   5.606 -1.4712  2.3701  0.3868
   18ccc     N1  391   1.617   2.642   5.427 -0.2687  0.2642  0.3121
   18ccc     H5  392   1.599   2.609   5.332  2.6299 -0.6820 -0.0038
   18ccc     H6  393   1.528   2.691   5.441 -0.2354  0.2723  0.4932
   18ccc     N2  394   1.719   2.269   5.517 -0.4220  0.3348 -0.0178
   18ccc     H7  395   1.711   2.193   5.450  1.5674 -0.6992  0.8441
   19ccc     C1  396   1.551   1.917   6.333 -0.1648 -0.7031 -0.2071
   19ccc     H1  397   1.514   1.866   6.423  0.6446 -2.0746 -0.6255
   19ccc     H2  398   1.653   1.947   6.360 -0.7868  3.9696 -2.1194
   19ccc     C2  399   1.472   2.048   6.306 -0.3006 -0.2662 -0.2558
   19ccc     H3  400   1.512   2.118   6.381  1.6166 -1.0668 -0.4718
   19ccc     H4  401   1.494   2.089   6.207  0.7865 -0.2384 -0.0191
   19ccc     N1  402   1.331   2.041   6.303 -0.6255 -0.0297 -0.9457
   19ccc     H5  403   1.301   2.135   6.277 -1.9398 -0.2223 -0.2180
   19ccc     H6  404   1.299   1.999   6.215 -0.6767  1.5953 -1.7407
   19ccc     N2  405   1.542   1.825   6.218 -0.9936 -0.1037  0.0281
   19ccc     H7  406   1.452   1.790   6.187 -0.8712 -0.9468  0.5875
   20ccc     C1  407   1.044   0.644   5.592 -0.2211  0.4528  0.7563
   20ccc     H1  408   1.114   0.624   5.511 -0.7529  2.6724 -0.3266
   20ccc     H2  409   1.024   0.554   5.652  0.7091  1.3971  2.5685
   20ccc     C2  410   0.912   0.678   5.517 -0.1733  0.0952  0.1760
   20ccc     H3  411   0.938   0.767   5.459  0.5641 -0.0237  0.3251
   20ccc     H4  412   0.883   0.597   5.448 -1.6769  0.6411  0.1154
   20ccc     N1  413   0.805   0.701   5.614  0.0531  0.0767  0.3102
   20ccc     H5  414   0.849   0.763   5.683  2.3989 -0.2541 -0.7715
   20ccc     H6  415   0.744   0.766   5.565 -0.6011 -2.1431 -1.9816
   20ccc     N2  416   1.094   0.759   5.674  0.2213  0.5732  0.6000
   20ccc     H7  417   1.036   0.842   5.679 -2.5129 -1.2323  1.9571
   21ccc     C1  418   1.930   1.232   5.762  0.0051 -0.7527 -0.5607
   21ccc     H1  419   1.929   1.322   5.699 -1.7317  0.3123  0.9043
   21ccc     H2  420   1.941   1.276   5.861 -0.6714 -1.2410 -0.2625
   21ccc     C2  421   2.055   1.138   5.738  0.1462  0.1612 -0.2003
   21ccc     H3  422   2.035   1.077   5.650  1.3979  0.0169 -0.4016
   21ccc     H4  423   2.144   1.200   5.719  0.4457 -0.2280 -0.0758
   21ccc     N1  424   2.087   1.056   5.856 -0.2095  0.2945  0.9135
   21ccc     H5  425   2.017   1.089   5.922 -3.2874 -1.0435 -1.4220
   21ccc     H6  426   2.042   0.968   5.833  1.7698 -0.9313  1.4964
   21ccc     N2  427   1.802   1.161   5.756  0.1041 -0.0665  0.3110
   21ccc     H7  428   1.736   1.176   5.681 -0.0683 -0.0770  0.4617
   22ccc     C1  429   1.654   2.539   7.158  0.1838  0.2893  0.6210
   22ccc     H1  430   1.577   2.590   7.099  1.4055  0.0182 -1.2969
   22ccc     H2  431   1.683   2.452   7.098 -0.3740  1.4926 -1.4898
   22ccc     C2  432   1.595   2.518   7.305  0.1859  0.8843 -0.0866
   22ccc     H3  433   1.526   2.601   7.320 -0.2172  0.9739 -2.0655
   22ccc     H4  434   1.542   2.422   7.309 -1.7257  1.7843 -1.8476
   22ccc     N1  435   1.695   2.515   7.409 -0.3424 -0.0067  0.3026
   22ccc     H5  436   1.774   2.466   7.368  0.3353 -0.1572  1.7229
   22ccc     H6  437   1.739   2.604   7.391  1.7600 -1.2074 -0.9427
   22ccc     N2  438   1.785   2.612   7.147 -0.1986  0.4033 -0.0518
   22ccc     H7  439   1.781   2.708   7.115 -4.1527  0.0746 -0.9834
   23ccc     C1  440   2.470   3.174   6.802 -0.2271  0.0361 -0.9616
   23ccc     H1  441   2.479   3.229   6.896  1.6819  0.0266 -1.1027
   23ccc     H2  442   2.569   3.128   6.788 -0.5444 -1.7481  1.7660
   23ccc     C2  443   2.421   3.257   6.679  1.0315 -0.1540  0.2398
   23ccc     H3  444   2.333   3.313   6.711 -0.4205 -1.4681 -1.2523
   23ccc     H4  445   2.504   3.326   6.659  2.1077 -1.5885 -0.5509
   23ccc     N1  446   2.402   3.170   6.558 -0.0657 -0.5785  0.2646
   23ccc     H5  447   2.313   3.124   6.577  0.4556 -2.2668 -1.1376
   23ccc     H6  448   2.363   3.235   6.490 -0.5256 -2.2127 -1.1008
   23ccc     N2  449   2.379   3.052   6.828 -0.3311  0.1029  0.3240
   23ccc     H7  450   2.288   3.053   6.783  1.0256 -2.8546 -3.0004
   24ccc     C1  451   2.226   2.807   6.386 -0.7818  0.2874 -0.2842
   24ccc     H1  452   2.276   2.903   6.406  0.3751 -0.3062 -0.2496
   24ccc     H2  453   2.204   2.761   6.483  0.2880  0.4721  0.0633
   24ccc     C2  454   2.322   2.708   6.317  0.6554 -0.0263  0.5800
   24ccc     H3  455   2.406   2.694   6.386  0.2728 -2.0552  0.7142
   24ccc     H4  456   2.281   2.606   6.312  1.6877 -0.4038 -0.8933
   24ccc     N1  457   2.364   2.771   6.190  0.5056  0.3557  0.3527
   24ccc     H5  458   2.422   2.704   6.141 -1.3274 -1.3629  0.4115
   24ccc     H6  459   2.280   2.747   6.137  0.7206 -0.9286  0.5527
   24ccc     N2  460   2.104   2.835   6.314 -0.0289 -0.2677  0.3977
   24ccc     H7  461   2.100   2.813   6.215 -0.7339 -3.5903  1.0591
   25ccc     C1  462   1.524   3.139   5.632  0.2994 -0.0155 -0.3143
   25ccc     H1  463   1.418   3.128   5.603  0.9249 -1.1771 -2.3540
   25ccc     H2  464   1.550   3.244   5.617 -3.7382  0.8462 -3.0311
   25ccc     C2  465   1.619   3.054   5.543  0.5428 -0.3428  0.3274
   25ccc     H3  466   1.633   3.112   5.450 -3.1282  0.1019 -0.1008
   25ccc     H4  467   1.717   3.053   5.592  1.3527  2.0163 -1.0600
   25ccc     N1  468   1.564   2.922   5.511 -0.5586 -0.7066 -0.5513
   25ccc     H5  469   1.534   2.889   5.602  1.4798  0.4409  0.6079
   25ccc     H6  470   1.479   2.959   5.469  0.0992  0.9479 -0.4754
   25ccc     N2  471   1.520   3.094   5.777 -0.3909  0.0180  0.8022
   25ccc     H7  472   1.441   3.042   5.814 -0.0927 -1.3695 -0.3992
   26ccc     C1  473   1.904   2.759   5.865  0.7398 -0.8863 -0.6526
   26ccc     H1  474   1.851   2.693   5.934 -0.2060  0.5343  0.0072
   26ccc     H2  475   1.919   2.856   5.914 -2.8744  2.0229 -4.5989
   26ccc     C2  476   1.810   2.784   5.743 -0.1214  0.6058 -0.3050
   26ccc     H3  477   1.762   2.693   5.706  1.1169  0.3941 -1.4603
   26ccc     H4  478   1.722   2.847   5.764 -0.6432 -0.4211  0.6515
   26ccc     N1  479   1.880   2.828   5.625  0.0239  0.9454 -0.0230
   26ccc     H5  480   1.938   2.909   5.647  2.4347  0.0469 -2.5214
   26ccc     H6  481   1.959   2.763   5.620 -0.5362 -0.1407  2.8851
   26ccc     N2  482   2.034   2.694   5.832 -0.2096 -0.2890 -0.3209
   26ccc     H7  483   2.060   2.656   5.742  1.2325 -1.9821  0.7464
   27ccc     C1  484   2.706   2.814   6.188 -0.1756 -0.0220  0.5913
   27ccc     H1  485   2.657   2.739   6.252 -0.3244  0.0790  0.5958
   27ccc     H2  486   2.807   2.775   6.171 -0.0694  0.8081 -0.8471
   27ccc     C2  487   2.696   2.952   6.265 -0.7130  0.2919  0.6372
   27ccc     H3  488   2.758   2.948   6.355  0.3007  0.5889 -0.0377
   27ccc     H4  489   2.745   3.029   6.205  1.4778 -0.3944  1.4543
   27ccc     N1  490   2.555   2.986   6.298  0.2600  0.1875 -0.4805
   27ccc     H5  491   2.529   3.035   6.213  2.8276  2.1243 -0.2816
   27ccc     H6  492   2.498   2.910   6.263 -0.9498  1.1792 -0.7371
   27ccc     N2  493   2.630   2.807   6.064  0.5276 -0.7192  0.0850
   27ccc     H7  494   2.530   2.821   6.059  0.1966 -3.0458 -0.7168
   28ccc     C1  495   2.386   2.137   6.896 -0.2619  0.6877 -0.8280
   28ccc     H1  496   2.465   2.187   6.954 -0.6596  0.2079  0.1545
   28ccc     H2  497   2.378   2.196   6.805  3.2167  1.1651 -0.9603
   28ccc     C2  498   2.262   2.144   6.990 -0.4685  0.2817  0.0875
   28ccc     H3  499   2.243   2.247   7.020 -1.8295 -0.0861  0.5648
   28ccc     H4  500   2.173   2.111   6.934  0.0223  1.0934 -1.2094
   28ccc     N1  501   2.276   2.063   7.115  0.0840 -0.2921  0.3020
   28ccc     H5  502   2.297   1.967   7.086  0.3596 -0.8201  2.1343
   28ccc     H6  503   2.368   2.084   7.152  0.9136 -1.1921 -1.1453
   28ccc     N2  504   2.446   2.006   6.861  0.4981 -0.0215  0.1592
   28ccc     H7  505   2.411   1.924   6.908  2.2397 -1.2968 -0.6202
   29ccc     C1  506   2.192   1.311   6.254  0.6918 -1.0843  0.4291
   29ccc     H1  507   2.143   1.222   6.294  0.9123 -0.0177  3.3662
   29ccc     H2  508   2.119   1.393   6.261  1.5523 -0.2080 -0.4852
   29ccc     C2  509   2.226   1.285   6.103  0.2978  0.2856  0.3697
   29ccc     H3  510   2.135   1.282   6.041 -0.8746 -0.4224  2.0644
   29ccc     H4  511   2.284   1.370   6.067  1.1247 -0.0389  0.9138
   29ccc     N1  512   2.308   1.160   6.079 -0.1135  0.2787 -0.0442
   29ccc     H5  513   2.401   1.181   6.115 -0.4691  1.3777  0.2706
   29ccc     H6  514   2.264   1.099   6.148  0.3868 -1.7863 -1.4652
   29ccc     N2  515   2.311   1.340   6.338 -0.4007 -0.2610  1.3055
   29ccc     H7  516   2.403   1.335   6.297 -1.1534 -1.9901 -0.3022
   30SOL     OW  517   0.267   0.750   2.515  0.4435 -0.1576  0.2614
   30SOL    HW1  518   0.214   0.790   2.447  0.1701  0.4641  0.8248
   30SOL    HW2  519   0.218   0.765   2.596  1.3034  0.1371  0.7476
   31SOL     OW  520   1.367   4.170   0.543  0.5009  0.3447  0.5305
   31SOL    HW1  521   1.317   4.177   0.462 -0.0203 -1.6410  0.6245
   31SOL    HW2  522   1.309   4.204   0.611 -0.3436 -0.9204  0.4795
   32SOL     OW  523   3.211   4.377   0.682 -0.2683 -0.2454  1.0506
   32SOL    HW1  524   3.158   4.438   0.732 -0.5595 -0.3429  0.8642
   32SOL    HW2  525   3.172   4.379   0.594  0.5937  0.3701  0.6640
   33SOL     OW  526   4.688   3.263   4.816 -0.4917  0.4126 -0.2529
   33SOL    HW1  527   4.754   3.203   4.784 -2.4715 -1.4558 -1.0686
   33SOL    HW2  528   4.737   3.340   4.845  2.2854 -1.9223  1.7734
   34SOL     OW  529   1.944   1.966   4.716 -0.7218 -0.1081 -0.5548
   34SOL    HW1  530   1.974   2.057   4.714 -1.2602  0.1829  1.7720
   34SOL    HW2  531   1.856   1.971   4.753 -0.1315 -1.6905  1.2229
   35SOL     OW  532   4.196   3.788   3.359  0.4518 -0.2616  0.3064
   35SOL    HW1  533   4.151   3.713   3.320  0.5426 -0.9252  1.4054
   35SOL    HW2  534   4.143   3.811   3.435  2.0529 -1.3019  1.8546
   36SOL     OW  535   4.725   1.016   0.335  0.1612  0.2148 -0.1599
   36SOL    HW1  536   4.683   0.931   0.326 -2.3869  1.2701  1.0450
   36SOL    HW2  537   4.702   1.062   0.254  0.5969  0.1928 -0.3043
   37SOL     OW  538   1.583   2.726   4.471 -0.0610  0.5233  0.1699
   37SOL    HW1  539   1.518   2.687   4.414 -0.2043  2.3136 -0.9856
   37SOL    HW2  540   1.572   2.682   4.555 -1.0821 -0.9011 -0.6797
   38SOL     OW  541   0.904   0.571   1.354  0.2235 -0.2233  0.4532
   38SOL    HW1  542   0.815   0.540   1.366 -0.1804 -0.3062 -2.1441
   38SOL    HW2  543   0.900   0.665   1.369 -1.1558  0.3974 -2.9543
   39SOL     OW  544   4.740   5.508   2.231 -0.0255  0.2565  0.2186
   39SOL    HW1  545   4.740   5.428   2.177  2.0925  0.1842  0.2440
   39SOL    HW2  546   4.831   5.519   2.257 -0.5141  1.9555  1.3545
   40SOL     OW  547   5.746   3.135   5.935  0.5179  0.1366 -0.1979
   40SOL    HW1  548   5.678   3.158   5.872 -0.2865 -0.5962  0.3806
   40SOL    HW2  549   5.710   3.061   5.984  2.2818 -1.2204 -0.8103
   41SOL     OW  550   0.385   5.130   6.159 -0.3491  0.0774  0.2096
   41SOL    HW1  551   0.433   5.092   6.086  0.2341  0.5660  0.3306
   41SOL    HW2  552   0.364   5.219   6.130 -0.9091 -0.0301  0.2800
   42SOL     OW  553   4.187   4.262   5.589 -0.1059  0.5351  0.0174
   42SOL    HW1  554   4.197   4.357   5.592  0.4234  0.5107 -0.7230
   42SOL    HW2  555   4.197   4.239   5.496 -0.7641 -0.1856  0.1124
   43SOL     OW  556   2.266   1.597   2.579  0.1281 -0.4741  0.1902
   43SOL    HW1  557   2.220   1.559   2.504  1.2319  1.8218 -1.8100
   43SOL    HW2  558   2.341   1.539   2.593  1.0710  0.1077 -1.9424
   44SOL     OW  559   4.211   1.339   2.949 -0.2810  0.1731  0.3619
   44SOL    HW1  560   4.266   1.329   3.027 -0.6828 -0.4016  0.5786
   44SOL    HW2  561   4.241   1.421   2.909  0.2050  0.2645  0.8961
   45SOL     OW  562   1.056   2.854   3.276  0.3981  0.0052  0.4577
   45SOL    HW1  563   1.020   2.877   3.190  0.4660  0.9073  0.6561
   45SOL    HW2  564   0.981   2.817   3.324  0.2703 -0.1582  0.1357
   46SOL     OW  565   5.140   4.373   4.962 -0.0957 -0.4379 -0.2542
   46SOL    HW1  566   5.154   4.389   4.869 -1.4578  0.3284 -0.3445
   46SOL    HW2  567   5.182   4.447   5.006  1.6187 -1.4177 -0.1608
   47SOL     OW  568   4.742   5.963   4.574  0.4068 -0.1509  0.3365
   47SOL    HW1  569   4.669   5.959   4.512  0.1732 -0.7752  0.6377
   47SOL    HW2  570   4.718   6.033   4.635 -0.7299 -1.3896  1.3765
   48SOL     OW  571   2.884   3.764   6.219  0.2429  0.2116 -0.3316
   48SOL    HW1  572   2.797   3.801   6.234 -0.0904 -0.6741 -0.0418
   48SOL    HW2  573   2.938   3.799   6.290 -0.4895 -1.2090  0.9787
   49SOL     OW  574   5.611   0.711   2.717  0.3020  0.0940  0.0171
   49SOL    HW1  575   5.537   0.730   2.774  0.3590  1.9540 -0.4616
   49SOL    HW2  576   5.573   0.663   2.643 -0.1853 -0.1548  0.4217
   50SOL     OW  577   1.688   4.032   5.309  0.0667 -0.1845 -0.0009
   50SOL    HW1  578   1.769   4.007   5.354 -0.2302  0.0358  0.6668
   50SOL    HW2  579   1.714   4.045   5.218  1.3196  2.3604  0.6496
   51SOL     OW  580   1.312   4.640   5.048 -0.1108 -0.1147  0.2021
   51SOL    HW1  581   1.308   4.626   5.143  0.7857  0.7361  0.3704
   51SOL    HW2  582   1.332   4.553   5.012  2.9799  0.1369  1.0636
   52SOL     OW  583   5.866   1.978   3.080 -0.0522 -0.2976  0.3393
   52SOL    HW1  584   5.919   1.948   3.154  0.4170  0.1292  0.1853
   52SOL    HW2  585   5.876   2.073   3.080 -0.8012 -0.2144  0.2831
   53SOL     OW  586   3.029   6.142   4.565  0.4698  0.0203  0.2419
   53SOL    HW1  587   2.968   6.203   4.605  0.5064  0.5017 -0.4186
   53SOL    HW2  588   3.075   6.193   4.498 -0.2873 -0.9831 -1.0921
   54SOL     OW  589   3.606   5.838   5.579 -0.0300  0.4165 -0.3073
   54SOL    HW1  590   3.644   5.923   5.601 -0.8683  0.8381 -0.4341
   54SOL    HW2  591   3.665   5.775   5.619  1.4169  0.9951 -1.4455
   55SOL     OW  592   4.406   5.873   6.178 -0.4172 -0.2840  0.3795
   55SOL    HW1  593   4.466   5.799   6.188 -0.7425 -0.5975  0.0499
   55SOL    HW2  594   4.319   5.833   6.178 -0.5481 -0.1587 -1.8372
   56SOL     OW  595   2.118   1.153   2.450  0.1389  0.5105  0.5681
   56SOL    HW1  596   2.055   1.139   2.521 -3.1630 -2.7645 -2.5478
   56SOL    HW2  597   2.148   1.065   2.428  3.3019  1.6983 -0.3565
   57SOL     OW  598   4.782   6.188   5.286  0.3749  0.6368 -0.1913
   57SOL    HW1  599   4.706   6.145   5.247  0.1093  0.3801  0.6125
   57SOL    HW2  600   4.748   6.232   5.363  0.9435  0.9764 -0.1336
   58SOL     OW  601   5.970   0.531   6.015 -0.1365  0.4953  0.2776
   58SOL    HW1  602   5.969   0.445   6.056 -1.2102 -0.8044 -2.2372
   58SOL    HW2  603   6.007   0.589   6.081 -1.4848 -1.4439  2.9170
   59SOL     OW  604   2.147   3.177   5.975  0.3811 -0.0011 -0.8003
   59SOL    HW1  605   2.106   3.249   6.024  0.6323 -0.3373 -0.0760
   59SOL    HW2  606   2.192   3.220   5.902  2.4184  0.8685  0.8427
   60SOL     OW  607   2.298   1.654   1.159  0.0540  0.6964 -0.2399
   60SOL    HW1  608   2.386   1.678   1.129  1.1378 -2.5878 -0.0972
   60SOL    HW2  609   2.307   1.643   1.253 -0.2987 -0.2801 -0.3049
   61SOL     OW  610   2.671   6.173   3.479  0.0639  0.0130 -0.4393
   61SOL    HW1  611   2.585   6.132   3.491  0.0320  0.2071  0.0222
   61SOL    HW2  612   2.724   6.106   3.435 -0.3401 -0.0813 -0.7906
   62SOL     OW  613   0.769   4.545   5.333  0.7619 -0.1094  0.0970
   62SOL    HW1  614   0.725   4.582   5.410  1.0385 -0.2303  0.3116
   62SOL    HW2  615   0.751   4.608   5.263 -0.6418 -0.6594 -0.0810
   63SOL     OW  616   2.399   2.903   5.041  0.5880  0.3145 -0.2319
   63SOL    HW1  617   2.372   2.886   4.951  1.0813  0.2051 -0.3623
   63SOL    HW2  618   2.401   2.998   5.048  0.5881  0.3228 -0.3486
   64SOL     OW  619   4.977   2.738   6.025  0.0203 -0.9334 -0.2423
   64SOL    HW1  620   5.008   2.793   6.098  2.2593 -1.4219 -0.7417
   64SOL    HW2  621   4.903   2.690   6.061 -1.6152  1.8515  0.4173
   65SOL     OW  622   4.020   5.037   3.703  0.0927 -0.4551 -0.3371
   65SOL    HW1  623   4.107   5.001   3.685 -0.3743 -1.8024 -0.0865
   65SOL    HW2  624   4.035   5.109   3.764  1.0704 -0.3124 -0.7306
   66SOL     OW  625   1.513   3.943   4.319 -0.2099 -0.0344 -0.1904
   66SOL    HW1  626   1.589   3.906   4.364  0.1402 -0.1661 -0.8793
   66SOL    HW2  627   1.522   3.914   4.229  0.2228  1.9147 -0.8260
   67SOL     OW  628   1.868   4.776   0.329  0.6910 -0.4177 -0.2347
   67SOL    HW1  629   1.798   4.765   0.394  0.8233 -0.3936 -0.0875
   67SOL    HW2  630   1.941   4.724   0.363  1.8410  1.9665  1.2184
   68SOL     OW  631   1.192   4.034   5.548 -0.3781  0.6048 -0.4130
   68SOL    HW1  632   1.225   3.954   5.506  2.5549  1.7509 -0.5153
   68SOL    HW2  633   1.168   4.006   5.636 -1.0203 -0.7009 -0.9751
   69SOL     OW  634   0.776   1.700   5.458  0.5408 -0.0498  0.0164
   69SOL    HW1  635   0.774   1.744   5.543 -0.8864 -0.6695  0.3381
   69SOL    HW2  636   0.705   1.740   5.408  0.8823 -0.2176 -0.6151
   70SOL     OW  637   2.292   0.346   3.525  0.2630  0.7895  0.4778
   70SOL    HW1  638   2.283   0.294   3.605 -2.7002 -1.8857 -1.3915
   70SOL    HW2  639   2.351   0.295   3.470  0.9057  1.7450  0.2608
   71SOL     OW  640   0.631   1.341   1.800  0.0881  0.2406  0.2316
   71SOL    HW1  641   0.567   1.270   1.792  0.5774 -0.3021  0.9239
   71SOL    HW2  642   0.584   1.420   1.773 -0.4199 -0.3715 -0.7064
   72SOL     OW  643   0.803   5.243   1.872  0.7310  0.1934 -0.5250
   72SOL    HW1  644   0.859   5.304   1.921 -0.3224  0.2552  0.6484
   72SOL    HW2  645   0.789   5.287   1.787  2.3353  0.2221 -0.8114
   73SOL     OW  646   0.222   0.103   2.303  0.3831  0.1122 -0.0905
   73SOL    HW1  647   0.263   0.021   2.278  2.8089  1.3195 -0.4114
   73SOL    HW2  648   0.267   0.129   2.384 -0.1959  1.2234 -0.0986
   74SOL     OW  649   2.373   5.807   4.725  0.0304  0.0637 -0.6121
   74SOL    HW1  650   2.300   5.868   4.739 -0.3621 -0.2434 -1.2569
   74SOL    HW2  651   2.339   5.723   4.756 -0.2273 -0.2691 -1.7613
   75SOL     OW  652   5.452   4.596   2.560 -0.3971  0.1073  0.6965
   75SOL    HW1  653   5.421   4.658   2.626 -0.3149 -1.3582  2.1580
   75SOL    HW2  654   5.458   4.512   2.606 -0.5111 -1.0132 -1.2130
   76SOL     OW  655   1.723   0.088   5.511 -0.3812 -0.3509  0.1519
   76SOL    HW1  656   1.658   0.062   5.446 -0.8123  0.2849  0.3167
   76SOL    HW2  657   1.771   0.008   5.531 -1.3383 -0.9056  0.2758
   77SOL     OW  658   0.104   0.243   3.636 -0.2583  0.0096 -0.0026
   77SOL    HW1  659   0.099   0.227   3.730 -0.0813 -2.1398 -0.3116
   77SOL    HW2  660   0.019   0.280   3.614 -0.4192  0.2441  0.9577
   78SOL     OW  661   4.192   2.829   0.508 -0.5512 -0.4706  0.7064
   78SOL    HW1  662   4.143   2.753   0.541 -2.3268  0.1158 -0.4448
   78SOL    HW2  663   4.221   2.874   0.588 -1.2635 -1.2436  1.4301
   79SOL     OW  664   2.679   4.121   1.961 -0.5581  0.7274  0.2882
   79SOL    HW1  665   2.724   4.036   1.956  1.1131  1.5724  0.3792
   79SOL    HW2  666   2.681   4.143   2.054 -0.0134  1.3486  0.1375
   80SOL     OW  667   0.739   0.008   0.071  0.1484 -0.0553  0.1453
   80SOL    HW1  668   0.800  -0.018   0.001  0.5246  0.3935  0.3009
   80SOL    HW2  669   0.673  -0.061   0.072 -1.1568  1.0434 -2.2071
   81SOL     OW  670   4.380   1.129   4.882  0.5803  0.2758 -0.4804
   81SOL    HW1  671   4.331   1.208   4.858 -0.8141 -0.2934  0.3192
   81SOL    HW2  672   4.313   1.069   4.915  2.0688  0.5280  3.6410
   82SOL     OW  673   0.800   0.523   5.815  0.7958  0.1454  0.1139
   82SOL    HW1  674   0.855   0.454   5.778  0.2488  0.3869 -1.2127
   82SOL    HW2  675   0.782   0.582   5.741 -0.5921  0.4874  0.6960
   83SOL     OW  676   5.909   0.252   4.319 -0.2217  0.2300  0.4481
   83SOL    HW1  677   5.896   0.168   4.363 -1.2837  0.3250  0.3460
   83SOL    HW2  678   5.995   0.245   4.278  1.1015  0.3479  2.9941
   84SOL     OW  679   1.238   3.059   3.282 -0.3113  0.9938 -0.0947
   84SOL    HW1  680   1.177   2.986   3.272 -1.9242  2.0494  1.5601
   84SOL    HW2  681   1.300   3.029   3.349  0.8745  0.0769 -1.5029
   85SOL     OW  682   1.026   2.251   4.599  0.3991  0.4659  0.0399
   85SOL    HW1  683   1.086   2.317   4.633  1.8645  0.0036 -1.4989
   85SOL    HW2  684   1.041   2.174   4.654  1.8174  0.1232 -0.7738
   86SOL     OW  685   5.541   4.078   3.518  0.3086 -0.0420 -0.2319
   86SOL    HW1  686   5.453   4.042   3.507  0.5271 -0.8551  0.4934
   86SOL    HW2  687   5.531   4.172   3.506 -0.6213 -0.1493 -0.3739
   87SOL     OW  688   4.316   4.555   4.773 -0.1016 -0.1710  0.0662
   87SOL    HW1  689   4.370   4.477   4.756 -1.0042 -0.8568  0.2876
   87SOL    HW2  690   4.349   4.620   4.710 -0.7424 -1.4143 -1.6266
   88SOL     OW  691   1.862   3.811   1.164  0.3553  0.3215  0.6015
   88SOL    HW1  692   1.914   3.742   1.205  1.2755  0.6759  0.0457
   88SOL    HW2  693   1.822   3.770   1.088  1.0653  0.4491  0.1561
   89SOL     OW  694   4.538   3.733   5.133  0.4906  0.0956 -0.5541
   89SOL    HW1  695   4.503   3.747   5.221  0.0230  1.4981 -0.9312
   89SOL    HW2  696   4.574   3.644   5.135 -0.0742 -0.1285  0.8551
   90SOL     OW  697   5.364   1.241   0.763 -0.4167  0.6511  0.1283
   90SOL    HW1  698   5.286   1.270   0.716 -0.7992  1.5797  1.2762
   90SOL    HW2  699   5.329   1.193   0.839  0.1732 -0.4685 -0.2880
   91SOL     OW  700   0.312   5.360   3.213 -0.1003  0.1092 -0.0009
   91SOL    HW1  701   0.243   5.316   3.163  0.1315 -0.4761  0.1821
   91SOL    HW2  702   0.372   5.392   3.146  0.7523 -1.5687 -0.1011
   92SOL     OW  703   5.243   6.027   0.462  0.0370  0.0473 -0.4141
   92SOL    HW1  704   5.270   5.936   0.444  1.6312  0.9262 -3.0803
   92SOL    HW2  705   5.301   6.055   0.532  0.0171 -0.7808 -0.0499
   93SOL     OW  706   6.145   2.042   3.459  0.6702  0.0653 -0.1175
   93SOL    HW1  707   6.116   1.958   3.494 -2.9155  0.8703 -0.7395
   93SOL    HW2  708   6.134   2.103   3.532 -2.4552  0.9241 -1.1499
   94SOL     OW  709   4.659   5.681   0.594  0.8009 -0.5811 -0.1417
   94SOL    HW1  710   4.673   5.593   0.629  2.1894 -0.8485 -1.3023
   94SOL    HW2  711   4.697   5.739   0.660  2.8284 -1.0498 -0.8183
   95SOL     OW  712   3.434   0.377   1.951  0.1166  0.7816 -1.2024
   95SOL    HW1  713   3.382   0.316   2.003  1.9638  0.6610  0.6292
   95SOL    HW2  714   3.453   0.330   1.870  1.9887 -1.4211  0.3986
   96SOL     OW  715   5.611   3.683   1.197  0.7867 -0.4914 -0.2717
   96SOL    HW1  716   5.542   3.632   1.239  0.0505  0.2060 -0.6268
   96SOL    HW2  717   5.622   3.760   1.253 -0.0478  0.3341 -1.1941
   97SOL     OW  718   3.243   2.645   2.822 -0.3259  0.6317 -0.5472
   97SOL    HW1  719   3.154   2.625   2.850 -0.0102  0.6134  0.4892
   97SOL    HW2  720   3.271   2.568   2.773 -0.1060 -0.3377  1.0370
   98SOL     OW  721   5.521   4.738   3.930  0.3303  0.7240  0.1700
   98SOL    HW1  722   5.525   4.654   3.976  1.8647  0.5582 -0.1923
   98SOL    HW2  723   5.483   4.717   3.845  0.8365  0.3528  0.0278
   99SOL     OW  724   3.253   5.135   0.015  0.4862  0.0010 -0.8702
   99SOL    HW1  725   3.230   5.226   0.032 -0.3614 -0.6725  2.2749
   99SOL    HW2  726   3.182   5.102  -0.039  0.6828  1.0975 -1.8446
  100SOL     OW  727   2.635   1.947   1.226 -0.8793  0.0317 -0.8388
  100SOL    HW1  728   2.695   1.899   1.283 -1.1409 -1.5830 -1.8620
  100SOL    HW2  729   2.570   1.985   1.284 -0.5473 -0.6941  0.0148
  101SOL     OW  730   2.793   4.146   0.035  0.4653  0.0047  0.5002
  101SOL    HW1  731   2.882   4.116   0.017 -0.0303 -2.5765  1.8258
  101SOL    HW2  732   2.790   4.153   0.131 -0.4446  1.2073  0.4016
  102SOL     OW  733   4.713   5.346   2.457  0.3528 -0.6506  0.2559
  102SOL    HW1  734   4.708   5.411   2.387  3.5619  1.2711  1.6119
  102SOL    HW2  735   4.686   5.393   2.535  3.2771 -0.6442  1.3670
  103SOL     OW  736   5.574   5.138   5.575  0.5209 -0.3662  0.4301
  103SOL    HW1  737   5.657   5.162   5.534 -0.5913 -0.9280 -2.3723
  103SOL    HW2  738   5.507   5.169   5.514 -1.2670 -1.5889  1.6658
  104SOL     OW  739   2.920   6.014   3.816  0.0526  0.0875  0.5088
  104SOL    HW1  740   2.985   5.944   3.821  0.7140  0.4770 -1.4652
  104SOL    HW2  741   2.965   6.092   3.848 -0.0760 -0.0120  0.9385
  105SOL     OW  742   5.800   5.308   2.151  1.1458  0.3128  0.4159
  105SOL    HW1  743   5.790   5.348   2.237  0.2054  0.1623  0.3844
  105SOL    HW2  744   5.802   5.214   2.169  1.9238  0.3124  0.3572
  106SOL     OW  745   4.378   5.457   1.983 -0.8084 -0.0808 -0.6258
  106SOL    HW1  746   4.296   5.496   1.953 -0.5793  1.4680  0.6295
  106SOL    HW2  747   4.363   5.436   2.075 -0.2471 -1.1240 -0.7558
  107SOL     OW  748   3.498   1.223   5.531  0.1788 -0.1607 -0.5569
  107SOL    HW1  749   3.472   1.187   5.446  0.8686 -1.2454 -0.3294
  107SOL    HW2  750   3.527   1.147   5.581 -0.0637  0.4867  0.6006
  108SOL     OW  751   0.175   4.852   1.171 -0.2830  0.0647 -0.1988
  108SOL    HW1  752   0.227   4.892   1.101 -0.4867  1.1208  0.2496
  108SOL    HW2  753   0.090   4.835   1.131 -1.2388  2.9144  0.3972
  109SOL     OW  754   1.049   4.550   0.975 -0.3066  0.0852 -0.1250
  109SOL    HW1  755   1.079   4.483   1.037  0.1253 -0.3399 -0.7852
  109SOL    HW2  756   0.975   4.509   0.930 -1.4303  0.8544  0.9715
  110SOL     OW  757   6.145   1.625   0.628  0.2039  0.2883 -0.1265
  110SOL    HW1  758   6.168   1.547   0.578 -0.7953 -0.8179  1.0601
  110SOL    HW2  759   6.130   1.593   0.717 -0.3833  1.8178  0.3652
  111SOL     OW  760   1.658   0.010   4.044  0.0358 -0.2929  0.4779
  111SOL    HW1  761   1.692  -0.074   4.015  1.8668 -0.2351  2.2477
  111SOL    HW2  762   1.591  -0.013   4.109 -0.8191 -0.3705 -0.4099
  112SOL     OW  763   4.497   1.189   1.747 -0.1255 -0.5295 -0.7639
  112SOL    HW1  764   4.442   1.146   1.813  2.6460 -1.4324  1.1578
  112SOL    HW2  765   4.478   1.142   1.666 -2.0301 -0.8889 -0.1632
  113SOL     OW  766   4.976   1.386   2.354 -0.0209 -0.1375 -0.2312
  113SOL    HW1  767   5.055   1.430   2.320  1.2877 -1.8046  0.5347
  113SOL    HW2  768   4.924   1.366   2.276 -0.3999  2.1887 -0.6483
  114SOL     OW  769   5.593   2.045   3.196 -0.5183  0.0844 -0.4516
  114SOL    HW1  770   5.630   2.009   3.116 -1.6124  0.2231 -1.0366
  114SOL    HW2  771   5.646   2.123   3.213 -0.3304  0.1052 -1.0950
  115SOL     OW  772   2.181   3.650   3.316  0.0137  0.0461  0.3845
  115SOL    HW1  773   2.212   3.650   3.225 -0.3532  1.4780  0.2386
  115SOL    HW2  774   2.235   3.583   3.359  0.1581 -0.7001 -0.8822
  116SOL     OW  775   0.393   0.714   0.814 -0.3293 -0.2382  0.2417
  116SOL    HW1  776   0.417   0.749   0.901 -2.5583 -2.1889  1.7577
  116SOL    HW2  777   0.477   0.703   0.769  0.9167  0.8072  2.1400
  117SOL     OW  778   5.891   2.497   5.361 -0.2581  0.1408 -0.1268
  117SOL    HW1  779   5.981   2.520   5.386 -0.7314  0.1726  1.7285
  117SOL    HW2  780   5.880   2.408   5.395 -1.3959  0.6988  1.0320
  118SOL     OW  781   3.293   3.747   5.565  0.2233 -0.2315 -0.4017
  118SOL    HW1  782   3.366   3.735   5.505  0.6788 -0.3630  0.1603
  118SOL    HW2  783   3.330   3.727   5.651 -0.8269 -1.6630 -0.2599
  119SOL     OW  784   4.319   2.687   1.482  0.3341  0.2523 -0.1324
  119SOL    HW1  785   4.283   2.774   1.469 -0.6730 -0.1842 -0.3622
  119SOL    HW2  786   4.292   2.637   1.405  0.5511 -0.3704  0.1788
  120SOL     OW  787   3.182   3.849   3.866 -0.3736 -0.0100  0.2467
  120SOL    HW1  788   3.249   3.787   3.837 -1.0468 -0.2554 -0.7888
  120SOL    HW2  789   3.200   3.860   3.960  1.1396 -0.0393 -0.0067
  121SOL     OW  790   3.797   1.984   6.006 -0.0966  0.6806 -0.0495
  121SOL    HW1  791   3.887   2.017   6.014 -0.4682  1.3579  1.4716
  121SOL    HW2  792   3.752   2.050   5.954 -0.0349  0.9974  0.2939
  122SOL     OW  793   4.607   3.539   6.078  0.5990 -0.2017 -0.1248
  122SOL    HW1  794   4.515   3.516   6.067  0.7213 -0.0761 -1.6199
  122SOL    HW2  795   4.640   3.550   5.988  1.7942  0.8568  0.4195
  123SOL     OW  796   3.707   4.102   4.873 -0.2813  0.0507  0.0714
  123SOL    HW1  797   3.668   4.188   4.885  0.9739  0.8024 -0.9968
  123SOL    HW2  798   3.740   4.077   4.959 -0.3826  0.7693  0.3173
  124SOL     OW  799   2.217   4.243   1.644  0.0701 -0.0504  0.5011
  124SOL    HW1  800   2.205   4.301   1.719 -0.7849  0.8521 -0.3000
  124SOL    HW2  801   2.306   4.261   1.614  0.7377 -1.0469  1.7835
  125SOL     OW  802   4.442   1.724   2.047 -0.1032  0.0484 -0.4087
  125SOL    HW1  803   4.503   1.713   1.974  2.0005  1.2891  1.0510
  125SOL    HW2  804   4.468   1.658   2.111  0.9419  1.6771  0.9420
  126SOL     OW  805   1.925   3.263   1.642  0.1662 -0.2070  0.1342
  126SOL    HW1  806   1.951   3.221   1.560 -2.1477 -0.4343 -0.5633
  126SOL    HW2  807   1.910   3.190   1.703 -0.6765 -0.2312 -0.0828
  127SOL     OW  808   0.813   0.235   4.561  0.4374 -0.0773 -0.2287
  127SOL    HW1  809   0.822   0.151   4.515  0.1462  0.2591 -0.9211
  127SOL    HW2  810   0.790   0.211   4.651  2.8857 -0.8323  0.2916
  128SOL     OW  811   4.385   5.797   4.212  0.2528 -0.8753  0.1375
  128SOL    HW1  812   4.470   5.760   4.236  0.6288  0.8350  1.7207
  128SOL    HW2  813   4.324   5.723   4.216  1.4981 -1.9473 -0.1110
  129SOL     OW  814   3.128   5.462   4.041  0.5723 -0.2862 -0.6274
  129SOL    HW1  815   3.223   5.470   4.044  0.7218 -0.6137 -2.6592
  129SOL    HW2  816   3.102   5.522   3.971 -0.5094 -1.4755 -1.2796
  130SOL     OW  817   1.636   1.074   1.433 -0.2447 -0.3824  0.3200
  130SOL    HW1  818   1.652   0.983   1.459 -1.4348 -0.5207  0.6609
  130SOL    HW2  819   1.635   1.123   1.515 -1.4248 -0.3819  0.3228
  131SOL     OW  820   4.132   3.376   5.339  0.4682 -0.3804 -0.1689
  131SOL    HW1  821   4.053   3.335   5.304 -0.5132  1.8096 -0.7315
  131SOL    HW2  822   4.190   3.303   5.359 -1.2516 -2.0180 -0.7915
  132SOL     OW  823   3.229   4.614   2.479  1.2020  0.3971  0.0624
  132SOL    HW1  824   3.208   4.525   2.508 -0.6094  0.4605 -0.9090
  132SOL    HW2  825   3.290   4.602   2.407  2.0879  0.0288  0.8520
  133SOL     OW  826   5.216   2.085   2.449 -0.8389  0.1053  0.0451
  133SOL    HW1  827   5.264   2.003   2.447 -2.1573 -0.6997  0.1845
  133SOL    HW2  828   5.127   2.060   2.473 -1.4686  1.4777 -0.7506
  134SOL     OW  829   3.529   0.387   0.678 -0.0317 -0.2595 -0.3121
  134SOL    HW1  830   3.598   0.444   0.710  0.3714 -0.9965  0.1647
  134SOL    HW2  831   3.521   0.408   0.585  0.9467 -0.2702 -0.4092
  135SOL     OW  832   4.925   4.720   5.283  0.2015  0.2314  0.6995
  135SOL    HW1  833   4.854   4.701   5.344  0.2042  0.5949  0.8208
  135SOL    HW2  834   4.989   4.650   5.297 -0.5626 -0.6386 -0.0908
  136SOL     OW  835   3.537   3.767   0.035  0.2462 -0.2810  0.0075
  136SOL    HW1  836   3.541   3.791   0.127  0.3159 -1.7310  0.3999
  136SOL    HW2  837   3.628   3.765   0.006  0.1546  2.0043 -0.6266
  137SOL     OW  838   2.181   5.154   3.250  0.0991  0.7102  0.1355
  137SOL    HW1  839   2.135   5.228   3.211  0.4679  1.3702  0.9321
  137SOL    HW2  840   2.172   5.083   3.185  1.2900  1.9726 -1.5143
  138SOL     OW  841   2.210   3.109   3.194  0.6317 -0.4785  0.3328
  138SOL    HW1  842   2.118   3.083   3.204 -0.7052  3.7509  0.8718
  138SOL    HW2  843   2.228   3.098   3.101 -0.9515  0.0465 -0.0639
  139SOL     OW  844   0.473   3.031   0.466 -0.4649 -0.0748 -0.8112
  139SOL    HW1  845   0.457   2.998   0.554 -2.4490  2.4731 -0.0871
  139SOL    HW2  846   0.416   2.979   0.410 -0.0401 -0.9541 -0.4388
  140SOL     OW  847   5.867   2.271   5.510  0.0167 -0.1621 -0.2702
  140SOL    HW1  848   5.949   2.221   5.521 -0.3193 -0.7360 -0.3212
  140SOL    HW2  849   5.816   2.251   5.588 -0.0131  0.3270 -0.1626
  141SOL     OW  850   1.601   4.253   0.318 -0.6127 -0.2928  0.3398
  141SOL    HW1  851   1.519   4.218   0.284  0.4213 -0.0986 -2.7557
  141SOL    HW2  852   1.664   4.182   0.307  0.0278  0.1779  0.8463
  142SOL     OW  853   6.075   4.046   4.758 -0.1260  0.2406  0.2959
  142SOL    HW1  854   5.980   4.055   4.751 -0.1034 -0.0159 -0.4525
  142SOL    HW2  855   6.099   4.101   4.833 -0.6212  2.0358 -0.7779
  143SOL     OW  856   1.085   4.489   0.140 -0.2365  0.2631 -0.0307
  143SOL    HW1  857   1.077   4.431   0.216  1.0162  1.4358  1.0425
  143SOL    HW2  858   1.073   4.577   0.175  3.0756  1.0743 -0.6038
  144SOL     OW  859   4.674   1.858   5.055 -0.0686 -0.1545  0.0111
  144SOL    HW1  860   4.725   1.880   4.977  0.5651 -3.4495 -0.6251
  144SOL    HW2  861   4.738   1.853   5.126 -0.5685  2.2551  0.7601
  145SOL     OW  862   3.330   0.450   4.925  0.0046  0.0014  0.6281
  145SOL    HW1  863   3.389   0.457   4.999 -0.7832  0.0880  1.2643
  145SOL    HW2  864   3.244   0.434   4.964 -0.3680 -0.2901 -0.2782
  146SOL     OW  865   0.476   0.259   2.786  0.0066 -1.0082 -0.1913
  146SOL    HW1  866   0.509   0.204   2.715  0.6545 -0.5582 -0.2454
  146SOL    HW2  867   0.486   0.349   2.754 -0.4130 -0.8291  0.1640
  147SOL     OW  868   5.897   5.929   1.407  0.1561  0.2116 -0.2174
  147SOL    HW1  869   5.802   5.921   1.414  0.3019 -0.6561  0.9278
  147SOL    HW2  870   5.910   6.013   1.361 -1.1660 -0.2376 -1.4952
  148SOL     OW  871   0.410   3.158   3.822  0.0864  0.3280 -0.6880
  148SOL    HW1  872   0.338   3.203   3.867 -0.1820  0.4685 -1.2449
  148SOL    HW2  873   0.431   3.084   3.880 -1.0063 -0.1420 -0.8600
  149SOL     OW  874   3.913   2.640   0.995  0.0568 -0.3155 -0.1577
  149SOL    HW1  875   4.005   2.615   0.989 -0.4444 -2.3404 -0.0840
  149SOL    HW2  876   3.892   2.637   1.088 -0.2514 -0.5161 -0.2314
  150SOL     OW  877   0.255   2.564   4.173 -0.0764 -0.3058  0.3583
  150SOL    HW1  878   0.220   2.650   4.152  0.0875 -0.1416  0.7491
  150SOL    HW2  879   0.349   2.577   4.181  0.2421 -0.9565 -1.7507
  151SOL     OW  880   4.862   2.627   3.664 -0.0083 -0.3740 -0.1816
  151SOL    HW1  881   4.776   2.586   3.652  0.2303 -1.4626  1.5055
  151SOL    HW2  882   4.924   2.561   3.633  0.2843 -0.1540 -0.0655
  152SOL     OW  883   1.239   3.734   3.582  0.1404  0.0398  0.3715
  152SOL    HW1  884   1.243   3.640   3.600  0.9370  0.4577  2.6234
  152SOL    HW2  885   1.145   3.753   3.579 -0.0379 -0.8063 -0.2344
  153SOL     OW  886   5.122   0.095   6.090  0.4073  0.3343 -0.3492
  153SOL    HW1  887   5.130   0.010   6.133  0.0804 -0.7243 -2.2804
  153SOL    HW2  888   5.168   0.156   6.148 -0.4024 -0.9003  1.7081
  154SOL     OW  889   2.270   4.361   2.510  0.2123  0.0740  0.3496
  154SOL    HW1  890   2.314   4.309   2.443 -2.3229  0.0971 -1.4972
  154SOL    HW2  891   2.281   4.452   2.480  1.2153  0.3236  1.3977
  155SOL     OW  892   5.030   2.658   1.294 -0.0662  0.6674  0.1829
  155SOL    HW1  893   5.007   2.751   1.296 -1.7981  0.2834  0.0617
  155SOL    HW2  894   4.952   2.615   1.258  0.5678 -0.8644  0.5530
  156SOL     OW  895   2.043   5.273   4.846 -0.3917 -0.2907 -0.0483
  156SOL    HW1  896   2.136   5.268   4.868 -0.1909 -0.6865 -0.9422
  156SOL    HW2  897   2.041   5.323   4.765 -1.0615  0.6310  0.5204
  157SOL     OW  898   2.965   4.438   2.369 -0.4355  0.3441  0.2191
  157SOL    HW1  899   3.024   4.418   2.441 -1.9227  0.6445  1.5983
  157SOL    HW2  900   2.940   4.353   2.333  3.3422  0.2270 -2.6804
  158SOL     OW  901   5.436   4.278   0.952  0.2675 -0.2002 -0.6158
  158SOL    HW1  902   5.426   4.333   0.874 -0.4336 -1.8985 -1.7845
  158SOL    HW2  903   5.512   4.222   0.932  2.4801  1.8139  1.5334
  159SOL     OW  904   0.870   4.715   1.566  0.5743  0.5850 -0.0109
  159SOL    HW1  905   0.852   4.652   1.636 -0.1359  0.6906 -0.0880
  159SOL    HW2  906   0.965   4.714   1.556  0.8562  1.8341  2.1016
  160SOL     OW  907   2.177   2.555   2.660  0.2170  0.2939 -0.2985
  160SOL    HW1  908   2.162   2.647   2.640 -1.2097  0.2228  0.3599
  160SOL    HW2  909   2.197   2.554   2.754 -2.2334 -0.2639  0.2947
  161SOL     OW  910   2.820   2.688   0.668 -0.4728 -0.2819  0.2617
  161SOL    HW1  911   2.883   2.644   0.726  0.4330  0.0127 -0.4724
  161SOL    HW2  912   2.872   2.717   0.594 -1.5285 -0.2118 -0.4763
  162SOL     OW  913   4.491   1.931   6.139  0.0409 -0.2405  0.1680
  162SOL    HW1  914   4.477   1.937   6.045 -0.6614 -0.7405  0.2275
  162SOL    HW2  915   4.415   1.883   6.171  1.3187 -2.0173  0.7008
  163SOL     OW  916   0.743   0.236   1.354 -0.1326 -0.2310 -0.1097
  163SOL    HW1  917   0.782   0.169   1.410  1.2607 -0.4596 -1.2927
  163SOL    HW2  918   0.787   0.225   1.270  0.5370  2.5161 -0.2106
  164SOL     OW  919   0.623   0.244   3.482 -0.0128 -0.1071 -0.1062
  164SOL    HW1  920   0.603   0.279   3.568  1.1956  0.9106 -0.2250
  164SOL    HW2  921   0.718   0.232   3.481  0.0341  0.1832 -1.3896
  165SOL     OW  922   3.720   3.401   5.453  0.4846  0.3581  0.5629
  165SOL    HW1  923   3.726   3.473   5.390 -1.0226 -0.3810 -0.4806
  165SOL    HW2  924   3.647   3.426   5.510 -0.2232 -0.4256  0.0295
  166SOL     OW  925   4.419   4.773   2.080  0.5144  0.6196  0.3019
  166SOL    HW1  926   4.408   4.841   2.013 -0.2329 -1.3011 -1.6415
  166SOL    HW2  927   4.506   4.738   2.065  0.8270  0.9930  1.1794
  167SOL     OW  928   2.838   4.957   2.086  0.2189 -0.2769  0.3540
  167SOL    HW1  929   2.800   5.034   2.130 -0.4594  0.1291 -0.8748
  167SOL    HW2  930   2.930   4.980   2.074  0.0927  0.2236  0.2838
  168SOL     OW  931   2.049   2.806   0.433  0.2515 -0.0488  0.0757
  168SOL    HW1  932   1.985   2.831   0.500 -0.5087  0.6411 -0.9003
  168SOL    HW2  933   2.051   2.879   0.372  2.9274  0.5277  0.7369
  169SOL     OW  934   0.973   1.814   4.624  0.5736  0.0775  0.3949
  169SOL    HW1  935   0.881   1.826   4.649  0.6310  1.5231  0.0200
  169SOL    HW2  936   0.972   1.740   4.563 -0.7503  1.6263 -1.6171
  170SOL     OW  937   5.998   2.700   1.770  0.2750  0.5194 -0.0290
  170SOL    HW1  938   6.021   2.768   1.834  0.1857 -0.0932  0.6722
  170SOL    HW2  939   5.969   2.749   1.693 -0.7068  1.2870  0.7914
  171SOL     OW  940   5.567   4.511   4.068  0.1123  0.2589 -0.1181
  171SOL    HW1  941   5.636   4.565   4.107  1.4918  0.9461 -3.2470
  171SOL    HW2  942   5.557   4.438   4.129  3.8261 -0.0171  0.3873
  172SOL     OW  943   4.425   5.064   5.477  0.0224  0.0431  0.3385
  172SOL    HW1  944   4.421   5.050   5.572  0.9363  1.1553  0.5671
  172SOL    HW2  945   4.363   5.001   5.441 -0.8480  0.0620  1.7180
  173SOL     OW  946   5.525   3.844   1.497  0.2567 -0.4429  0.4592
  173SOL    HW1  947   5.544   3.750   1.503 -0.7963 -0.7009 -0.0488
  173SOL    HW2  948   5.604   3.882   1.458  0.5226 -1.1871  0.2592
  174SOL     OW  949   2.372   3.667   4.325  0.3522 -0.1314 -0.4831
  174SOL    HW1  950   2.343   3.701   4.240  1.1136  0.3172 -0.5684
  174SOL    HW2  951   2.441   3.727   4.353 -0.5884  0.3172  0.9457
  175SOL     OW  952   2.079   4.150   3.692  0.1988 -0.4537  0.3213
  175SOL    HW1  953   1.993   4.116   3.713 -0.0932 -0.1472 -0.3560
  175SOL    HW2  954   2.070   4.245   3.697 -0.2891 -0.2518 -2.4854
  176SOL     OW  955   0.704   1.687   4.308  0.3533  0.2841  0.1461
  176SOL    HW1  956   0.658   1.748   4.365 -1.5975 -0.4335 -0.5825
  176SOL    HW2  957   0.678   1.600   4.339 -0.7796 -0.1266 -1.7870
  177SOL     OW  958   5.732   0.598   2.037  0.7485 -0.0143  0.4999
  177SOL    HW1  959   5.662   0.585   1.973  2.1531 -0.6722 -0.9619
  177SOL    HW2  960   5.744   0.513   2.079  2.1491 -0.5225 -0.8565
  178SOL     OW  961   5.153   3.273   2.537  0.0576  0.4806 -0.7055
  178SOL    HW1  962   5.151   3.348   2.477 -0.5838  0.9781 -0.0855
  178SOL    HW2  963   5.070   3.279   2.585  0.7285  0.3407  0.5193
  179SOL     OW  964   3.413   1.369   2.658  1.0492  0.1065 -0.1717
  179SOL    HW1  965   3.501   1.357   2.693  0.8456  2.8608  1.5761
  179SOL    HW2  966   3.415   1.456   2.617  0.1608 -1.3827 -3.7850
  180SOL     OW  967   1.437   2.427   1.384 -0.1533  0.0846 -1.1866
  180SOL    HW1  968   1.470   2.366   1.451 -1.5127 -0.5581 -1.0770
  180SOL    HW2  969   1.344   2.407   1.377 -1.0402  3.2497  0.0111
  181SOL     OW  970   0.988   5.816   5.398  0.2273 -0.1836 -0.3621
  181SOL    HW1  971   0.909   5.797   5.346 -0.6275 -3.0697  1.7235
  181SOL    HW2  972   0.976   5.907   5.426 -1.7555 -0.1440 -1.1238
  182SOL     OW  973   0.785   2.247   4.480 -0.0177 -0.0848 -0.0626
  182SOL    HW1  974   0.786   2.309   4.406  0.0565  0.0823  0.0756
  182SOL    HW2  975   0.851   2.282   4.541 -0.6916  0.2648  0.4769
  183SOL     OW  976   0.432   5.088   3.159  1.0832 -0.0493 -0.1661
  183SOL    HW1  977   0.388   5.145   3.096  1.0735  0.2435  0.1065
  183SOL    HW2  978   0.474   5.147   3.220 -2.3460 -0.1627  2.6223
  184SOL     OW  979   1.509   3.717   5.646  0.5804 -0.3723 -0.0708
  184SOL    HW1  980   1.529   3.774   5.720 -1.0981 -0.9982  0.9251
  184SOL    HW2  981   1.442   3.764   5.596  1.4892 -0.0862 -1.0620
  185SOL     OW  982   5.340   3.506   4.346 -0.8997  0.3624  0.3630
  185SOL    HW1  983   5.432   3.498   4.371 -1.2233 -0.6394  1.3021
  185SOL    HW2  984   5.319   3.421   4.306 -1.4259  0.5825  0.1715
  186SOL     OW  985   1.274   1.167   2.970 -0.0869  0.1740  0.2690
  186SOL    HW1  986   1.367   1.149   2.986 -0.0549  0.3133  0.2472
  186SOL    HW2  987   1.237   1.082   2.946 -0.2179 -0.1095  1.4435
  187SOL     OW  988   1.678   2.748   2.002  0.4376  0.2174  0.3825
  187SOL    HW1  989   1.604   2.727   1.946  0.8762  1.0379 -0.5313
  187SOL    HW2  990   1.640   2.757   2.090 -0.3899 -0.2594  0.0824
  188SOL     OW  991   5.016   5.998   5.586 -0.2484 -1.0604  0.2935
  188SOL    HW1  992   4.998   5.997   5.492  2.2561 -1.5827 -0.2731
  188SOL    HW2  993   5.067   5.918   5.601  1.4529  0.1739  1.5835
  189SOL     OW  994   3.848   1.905   0.584 -0.0025 -0.0450  0.0574
  189SOL    HW1  995   3.754   1.893   0.596  0.2376 -1.1709  0.9382
  189SOL    HW2  996   3.856   1.991   0.543 -1.3416  0.5325  0.9561
  190SOL     OW  997   3.604   4.792   3.386  0.0809  0.1990 -0.0799
  190SOL    HW1  998   3.569   4.818   3.300 -0.9017 -0.7923 -0.0100
  190SOL    HW2  999   3.692   4.828   3.388  0.0776  0.3502 -1.4636
  191SOL     OW 1000   4.656   3.980   3.117  0.2620  0.1646  0.0207
  191SOL    HW1 1001   4.715   4.002   3.189  1.2429 -1.0612 -0.3821
  191SOL    HW2 1002   4.657   4.057   3.060  1.2411  0.2739  0.1751
  192SOL     OW 1003   2.111   4.025   5.246  0.0419 -0.2533  0.1789
  192SOL    HW1 1004   2.197   3.984   5.234 -0.4505 -1.0644 -0.6580
  192SOL    HW2 1005   2.085   4.053   5.158  0.4702  2.1246  0.7430
  193SOL     OW 1006   0.888   1.236   1.865 -0.4831  0.1691 -0.4498
  193SOL    HW1 1007   0.797   1.260   1.846 -1.4637 -1.5693  1.6441
  193SOL    HW2 1008   0.894   1.143   1.842  0.2226 -0.1841  1.0219
  194SOL     OW 1009   3.891   3.908   3.308  0.2334 -0.0065  0.6342
  194SOL    HW1 1010   3.952   3.889   3.379  0.3799  3.6318  1.7154
  194SOL    HW2 1011   3.814   3.855   3.327  2.3760 -3.5900  0.0619
  195SOL     OW 1012   1.300   4.488   1.405 -0.4828 -0.6466  0.0503
  195SOL    HW1 1013   1.242   4.460   1.334 -0.9095 -0.0529  0.1520
  195SOL    HW2 1014   1.285   4.425   1.475 -2.3114  0.4679  0.7166
  196SOL     OW 1015   2.730   4.302   0.820 -0.3806 -0.2780 -0.2395
  196SOL    HW1 1016   2.809   4.282   0.770 -0.3718 -0.7837 -0.0255
  196SOL    HW2 1017   2.720   4.229   0.881 -1.5579 -0.7108 -0.9225
  197SOL     OW 1018   4.170   3.499   2.214  0.8502  0.3835 -0.7753
  197SOL    HW1 1019   4.223   3.504   2.293 -0.0638  0.6788 -0.1675
  197SOL    HW2 1020   4.192   3.578   2.165 -1.4011  2.2654  1.0318
  198SOL     OW 1021   0.130   0.824   2.757 -0.2987 -0.4305 -0.0573
  198SOL    HW1 1022   0.063   0.861   2.699 -0.4769  0.3743  0.6334
  198SOL    HW2 1023   0.180   0.900   2.787 -0.4328 -0.7839  1.1027
  199SOL     OW 1024   0.976   3.062   0.822  0.4786 -0.4506 -0.4072
  199SOL    HW1 1025   0.919   3.132   0.791 -0.4454 -0.7701  0.5280
  199SOL    HW2 1026   0.917   2.991   0.846  1.1378 -0.3149  1.8369
  200SOL     OW 1027   3.503   3.968   2.899 -0.2614  0.1522 -0.0830
  200SOL    HW1 1028   3.450   4.021   2.958 -0.7056 -0.0065 -0.3311
  200SOL    HW2 1029   3.594   3.990   2.920 -0.4273  0.3863  0.3841
  201SOL     OW 1030   5.427   5.239   0.598  0.4054 -0.1028 -0.1096
  201SOL    HW1 1031   5.369   5.169   0.628  0.3898  0.3477  0.9813
  201SOL    HW2 1032   5.403   5.253   0.507 -1.3198  0.1714  0.3426
  202SOL     OW 1033   1.777   0.629   3.666 -0.2712 -0.1995  0.0926
  202SOL    HW1 1034   1.757   0.626   3.572 -0.2866 -0.7006  0.1126
  202SOL    HW2 1035   1.870   0.608   3.671  0.3840  2.3049 -0.0165
  203SOL     OW 1036   1.158   5.615   4.074 -0.0900  0.4194 -0.1493
  203SOL    HW1 1037   1.170   5.610   4.169 -0.1660  1.0257 -0.1042
  203SOL    HW2 1038   1.165   5.708   4.054  1.3124  0.1654 -0.9233
  204SOL     OW 1039   4.402   5.160   2.561 -0.2562 -0.7778 -0.6132
  204SOL    HW1 1040   4.397   5.079   2.613  0.9891  0.3173  1.3210
  204SOL    HW2 1041   4.384   5.230   2.624  0.2800  0.5576 -1.9009
  205SOL     OW 1042   1.035   4.503   3.268  0.1546 -0.8099 -0.2611
  205SOL    HW1 1043   1.127   4.499   3.296  0.3543  1.6846 -0.3019
  205SOL    HW2 1044   1.036   4.562   3.193 -1.3094 -2.0171 -1.2850
  206SOL     OW 1045   6.232   3.747   0.923  0.8533  0.2625 -0.3463
  206SOL    HW1 1046   6.153   3.724   0.875  0.1100  3.2264 -0.7741
  206SOL    HW2 1047   6.299   3.757   0.856  1.2543 -0.8400 -0.1324
  207SOL     OW 1048   3.360   1.451   5.812  0.1774  0.2876  0.0138
  207SOL    HW1 1049   3.388   1.381   5.753  1.1912  0.8844 -0.2421
  207SOL    HW2 1050   3.422   1.522   5.796  0.9058  0.2445  2.2413
  208SOL     OW 1051   3.446   4.993   6.145 -0.0817  0.6916 -0.2163
  208SOL    HW1 1052   3.366   4.976   6.195  0.6565  1.4887  1.2899
  208SOL    HW2 1053   3.461   5.087   6.154  3.3364  0.0594  3.2772
  209SOL     OW 1054   5.388   5.126   2.221 -0.8012  0.3537  0.7090
  209SOL    HW1 1055   5.374   5.151   2.129  0.2881  1.0950  0.7281
  209SOL    HW2 1056   5.315   5.166   2.268 -0.5580  1.2356  0.3576
  210SOL     OW 1057   6.002   3.355   5.452 -0.0503  0.1215  0.5149
  210SOL    HW1 1058   6.058   3.429   5.428 -0.3444  0.2929  0.3615
  210SOL    HW2 1059   5.913   3.387   5.439 -0.1839 -1.0889 -2.0768
  211SOL     OW 1060   4.480   5.115   2.982  0.4044 -0.0421  0.4321
  211SOL    HW1 1061   4.484   5.033   2.934 -0.8729  0.7306 -1.0733
  211SOL    HW2 1062   4.446   5.179   2.919 -0.8171  1.1414  2.1793
  212SOL     OW 1063   5.606   4.077   0.843  0.3589  0.2961 -0.2761
  212SOL    HW1 1064   5.569   3.992   0.865  1.5090  0.4245  2.6311
  212SOL    HW2 1065   5.700   4.067   0.858  0.3565  2.4223  1.8166
  213SOL     OW 1066   4.227   4.551   5.549  0.2267  0.2548  0.0654
  213SOL    HW1 1067   4.142   4.592   5.561  0.6152  0.5296  2.3746
  213SOL    HW2 1068   4.283   4.621   5.515 -0.3316  0.2211 -0.9315
  214SOL     OW 1069   0.308   6.020   2.351 -0.2401  0.0272  0.4700
  214SOL    HW1 1070   0.398   6.054   2.348 -0.6788  1.2621  0.6993
  214SOL    HW2 1071   0.296   5.992   2.442 -0.1736  0.0927  0.4992
  215SOL     OW 1072   2.447   1.090   2.556 -0.1117 -0.5354 -0.4382
  215SOL    HW1 1073   2.353   1.082   2.567 -0.2963  1.1382 -0.6042
  215SOL    HW2 1074   2.484   1.061   2.640 -0.8364 -0.0246  0.0610
  216SOL     OW 1075   0.529   3.477   2.757  0.1247  0.1007  0.1242
  216SOL    HW1 1076   0.469   3.443   2.824  0.4451 -0.3666  0.1834
  216SOL    HW2 1077   0.603   3.511   2.807  0.6145 -0.7458 -0.0036
  217SOL     OW 1078   5.785   2.274   0.321  0.6228 -0.0290  0.3716
  217SOL    HW1 1079   5.738   2.200   0.284 -0.4032  1.4026 -1.4030
  217SOL    HW2 1080   5.719   2.323   0.369  0.6963  0.9908 -0.5241
  218SOL     OW 1081   4.321   5.915   2.947  0.6632 -0.1288  0.4372
  218SOL    HW1 1082   4.395   5.930   3.005  1.0982 -0.4205 -0.0301
  218SOL    HW2 1083   4.350   5.846   2.888 -0.4053 -1.0788  0.9886
  219SOL     OW 1084   3.455   4.398   1.115 -0.3943  0.6590 -0.0971
  219SOL    HW1 1085   3.479   4.466   1.178  1.1275  0.0013  0.0728
  219SOL    HW2 1086   3.375   4.430   1.075 -0.4122  1.9409  0.8939
  220SOL     OW 1087   0.462   4.823   4.308 -0.9405 -0.2208  0.0791
  220SOL    HW1 1088   0.452   4.807   4.214 -2.8639 -0.4323  0.2928
  220SOL    HW2 1089   0.511   4.748   4.339  0.6567  0.3558 -0.8918
  221SOL     OW 1090   0.450   3.124   1.324  0.1551  0.1269 -0.8658
  221SOL    HW1 1091   0.406   3.183   1.384 -0.5883  0.2781 -1.5372
  221SOL    HW2 1092   0.507   3.071   1.379 -0.2844  0.4659 -0.0762
  222SOL     OW 1093   3.680   3.547   4.148  0.1386 -0.2554 -0.8344
  222SOL    HW1 1094   3.694   3.575   4.057 -0.7731 -1.2770 -1.3189
  222SOL    HW2 1095   3.754   3.584   4.196 -0.6050  2.3614 -1.5276
  223SOL     OW 1096   4.624   2.780   1.972 -0.1975 -0.1048 -0.0415
  223SOL    HW1 1097   4.668   2.697   1.952  2.1510  1.5051 -2.2075
  223SOL    HW2 1098   4.569   2.796   1.895  1.4280  1.5422 -0.9362
  224SOL     OW 1099   3.383   3.131   4.950 -0.3683 -0.5448  0.3300
  224SOL    HW1 1100   3.345   3.049   4.916 -1.5057  0.7452 -1.7723
  224SOL    HW2 1101   3.312   3.172   4.999 -0.5921  0.2320 -0.6074
  225SOL     OW 1102   3.292   4.095   4.300  0.3017 -0.0679 -0.6259
  225SOL    HW1 1103   3.372   4.147   4.299  1.7235 -2.0278  0.8047
  225SOL    HW2 1104   3.280   4.072   4.392 -2.0058  0.2642 -0.7934
  226SOL     OW 1105   3.197   3.410   1.042  0.4091 -0.7638 -0.5521
  226SOL    HW1 1106   3.241   3.348   1.100  0.0466 -0.3129  0.2359
  226SOL    HW2 1107   3.127   3.447   1.096 -0.2763 -0.7090 -1.4485
  227SOL     OW 1108   5.626   1.971   6.068  0.1058  0.6700 -0.7050
  227SOL    HW1 1109   5.684   2.044   6.089 -1.1137  1.6086 -0.4995
  227SOL    HW2 1110   5.574   2.002   5.994  0.0555 -0.2760 -1.0831
  228SOL     OW 1111   2.988   5.214   0.682 -0.1429  0.1983 -0.0736
  228SOL    HW1 1112   2.999   5.249   0.771 -0.2015 -0.3259  0.1462
  228SOL    HW2 1113   3.049   5.264   0.629 -0.8185  1.2019  0.0710
  229SOL     OW 1114   3.080   1.225   4.634  0.1242 -0.0871  0.0947
  229SOL    HW1 1115   3.024   1.150   4.616  3.4261 -3.1220  1.3293
  229SOL    HW2 1116   3.149   1.221   4.568  1.1154  1.0018  1.0033
  230SOL     OW 1117   2.482   1.385   2.473  0.1931 -0.0478 -0.1719
  230SOL    HW1 1118   2.480   1.299   2.515  1.9510 -0.7837 -1.4524
  230SOL    HW2 1119   2.439   1.371   2.389 -2.7783  1.2680  0.9967
  231SOL     OW 1120   0.610   0.420   2.404 -0.6041 -0.3425  0.0849
  231SOL    HW1 1121   0.532   0.475   2.403  0.3433  1.0665  0.2652
  231SOL    HW2 1122   0.675   0.470   2.355  0.9051 -0.3555  1.9468
  232SOL     OW 1123   5.655   1.102   3.702  0.3817 -0.3252 -0.8699
  232SOL    HW1 1124   5.633   1.170   3.766  2.3433 -1.2872  0.9346
  232SOL    HW2 1125   5.676   1.150   3.622  0.6534  1.1334  0.0390
  233SOL     OW 1126   3.361   0.729   1.399  0.5240  0.4505 -0.6819
  233SOL    HW1 1127   3.309   0.702   1.324  0.2838  1.0200 -0.7243
  233SOL    HW2 1128   3.313   0.804   1.436 -0.5599 -1.1326  1.3450
  234SOL     OW 1129   5.324   2.286   0.945 -0.3992 -0.2944 -0.5768
  234SOL    HW1 1130   5.332   2.242   1.030 -0.3070  1.1755  0.2241
  234SOL    HW2 1131   5.351   2.376   0.963  2.3051 -0.5429 -2.7779
  235SOL     OW 1132   2.805   4.776   4.375  0.0524  0.2880  0.0851
  235SOL    HW1 1133   2.742   4.772   4.447  1.6034  0.1435  1.4916
  235SOL    HW2 1134   2.850   4.691   4.377  0.7304  0.6236 -0.4678
  236SOL     OW 1135   3.585   3.780   0.328 -0.1770  0.4779  0.7849
  236SOL    HW1 1136   3.671   3.738   0.330 -0.7537 -1.0893 -1.7899
  236SOL    HW2 1137   3.604   3.874   0.325  1.8043  0.1998 -3.5972
  237SOL     OW 1138   0.663   5.600   3.805 -0.0528  0.4732  0.2084
  237SOL    HW1 1139   0.676   5.684   3.762  0.6307 -0.4275 -1.4358
  237SOL    HW2 1140   0.569   5.584   3.798  0.0796  0.2135 -1.2573
  238SOL     OW 1141   3.719   1.645   4.302 -0.2703 -0.3447 -0.0544
  238SOL    HW1 1142   3.689   1.606   4.385  0.8124 -0.3205  0.3755
  238SOL    HW2 1143   3.799   1.597   4.281 -0.3852 -0.1614 -0.9550
  239SOL     OW 1144   0.137   4.008   5.655 -0.9377  0.3125 -0.3079
  239SOL    HW1 1145   0.116   4.050   5.571 -0.2590 -0.3485 -0.8097
  239SOL    HW2 1146   0.129   4.079   5.719 -1.1865  0.8879 -0.9623
  240SOL     OW 1147   6.013   4.200   3.258  0.1570 -0.2089 -0.0520
  240SOL    HW1 1148   5.963   4.147   3.196  0.3771  0.6291 -0.9805
  240SOL    HW2 1149   5.975   4.180   3.344 -1.7140  0.3454 -0.7145
  241SOL     OW 1150   4.718   3.817   5.468 -0.5956 -0.1491  0.1732
  241SOL    HW1 1151   4.794   3.760   5.459  0.6067  1.0752  1.8709
  241SOL    HW2 1152   4.643   3.759   5.456  0.5706 -1.8636  0.7309
  242SOL     OW 1153   6.196   3.684   5.366 -0.5339 -0.6113  0.4010
  242SOL    HW1 1154   6.257   3.712   5.298 -1.1030 -0.7453 -0.1693
  242SOL    HW2 1155   6.119   3.739   5.353 -0.1158  0.3637  1.8419
  243SOL     OW 1156   0.297   1.035   2.795 -0.0232 -0.2744  0.2648
  243SOL    HW1 1157   0.311   1.124   2.827 -0.4114 -0.5038  1.1203
  243SOL    HW2 1158   0.376   0.988   2.820 -0.2896 -0.4321  0.8394
  244SOL     OW 1159   3.925   3.389   2.134 -0.0243 -0.1140 -0.0448
  244SOL    HW1 1160   4.008   3.420   2.171 -0.4996  0.5165  0.5137
  244SOL    HW2 1161   3.946   3.304   2.095  0.4454 -0.9611  1.9537
  245SOL     OW 1162   1.943   3.621   2.843 -1.3391  0.2180  0.6880
  245SOL    HW1 1163   1.880   3.577   2.901 -0.3508 -0.4125  1.3062
  245SOL    HW2 1164   2.002   3.667   2.902 -0.2345 -0.5385  0.1957
  246SOL     OW 1165   3.761   5.926   1.334  0.8489 -0.3430 -0.1069
  246SOL    HW1 1166   3.680   5.881   1.360  0.3600 -0.5164 -1.7658
  246SOL    HW2 1167   3.772   5.902   1.242  2.1163  0.6936 -0.2438
  247SOL     OW 1168   2.311   1.637   1.429 -0.1858 -0.3604  0.3035
  247SOL    HW1 1169   2.279   1.574   1.492  0.4419 -0.6223  0.3710
  247SOL    HW2 1170   2.406   1.639   1.443 -0.1433  0.2358 -0.0245
  248SOL     OW 1171   0.668   1.136   5.031 -0.5491 -0.2542 -0.4532
  248SOL    HW1 1172   0.627   1.177   5.108  0.7996 -0.4612  0.4145
  248SOL    HW2 1173   0.663   1.203   4.963 -5.0082 -1.2687 -1.4398
  249SOL     OW 1174   4.249   5.806   4.535  0.0597  0.0531  0.0954
  249SOL    HW1 1175   4.258   5.780   4.444 -0.5651 -2.1130  0.5968
  249SOL    HW2 1176   4.158   5.786   4.557  0.6769 -1.2551  1.6770
  250SOL     OW 1177   0.314   4.192   3.832  0.3402 -0.3087  0.7423
  250SOL    HW1 1178   0.269   4.270   3.799 -1.2387 -0.7534  1.7312
  250SOL    HW2 1179   0.257   4.120   3.807  1.7339 -1.1764 -0.0619
  251SOL     OW 1180   3.429   1.995   5.748 -0.2742 -0.6491 -0.1690
  251SOL    HW1 1181   3.389   1.996   5.836  0.5661 -1.9272  0.2624
  251SOL    HW2 1182   3.430   1.902   5.724 -0.1060 -0.3539 -1.3638
  252SOL     OW 1183   2.074   1.490   4.287 -0.0353 -0.4155 -0.2074
  252SOL    HW1 1184   2.013   1.443   4.343 -0.9769  1.0303  0.0394
  252SOL    HW2 1185   2.157   1.445   4.299 -0.5407 -1.0341  1.2116
  253SOL     OW 1186   0.529   2.657   2.828 -0.1557  0.5608 -0.1429
  253SOL    HW1 1187   0.437   2.631   2.824 -0.1330  0.3403  0.6750
  253SOL    HW2 1188   0.538   2.700   2.914  0.9603 -1.2065  0.6750
  254SOL     OW 1189   5.010   0.026   5.514 -0.2639 -0.0511  0.3265
  254SOL    HW1 1190   4.935   0.067   5.559 -1.6608 -0.5866 -1.4192
  254SOL    HW2 1191   5.021  -0.058   5.558 -1.5785 -0.5490 -0.2487
  255SOL     OW 1192   0.751   2.443   5.206  0.1399  0.1228 -0.5195
  255SOL    HW1 1193   0.696   2.498   5.151 -0.5052  0.0493  0.0219
  255SOL    HW2 1194   0.697   2.365   5.222  0.6449 -0.2175 -0.4750
  256SOL     OW 1195   3.330   1.677   3.538 -0.1067 -0.3426  0.3890
  256SOL    HW1 1196   3.364   1.688   3.449  0.7107 -0.3867  0.6918
  256SOL    HW2 1197   3.406   1.692   3.595 -0.4576 -1.0626  1.0528
  257SOL     OW 1198   1.664   2.234   2.221  0.3682  0.0034 -0.0664
  257SOL    HW1 1199   1.613   2.282   2.285  1.1505 -0.6285  1.0604
  257SOL    HW2 1200   1.631   2.265   2.136 -0.5099  1.0287  0.6217
  258SOL     OW 1201   1.521   5.977   3.721 -0.1078 -0.1992  0.1007
  258SOL    HW1 1202   1.433   5.941   3.735 -0.5439 -0.0230 -1.8812
  258SOL    HW2 1203   1.509   6.072   3.725  0.1827 -0.1859  0.7640
  259SOL     OW 1204   0.846   2.434   1.082 -0.2392 -0.3357 -0.3008
  259SOL    HW1 1205   0.816   2.481   1.160  0.3036 -1.7394  0.7790
  259SOL    HW2 1206   0.778   2.451   1.017 -0.8091  0.6877  0.5259
  260SOL     OW 1207   3.170   2.221   5.747 -0.0285  0.0577  0.5047
  260SOL    HW1 1208   3.229   2.168   5.695  0.2430  0.4300  0.4300
  260SOL    HW2 1209   3.088   2.171   5.750 -0.3174  0.4026 -0.9489
  261SOL     OW 1210   2.465   6.031   3.436 -0.0792  0.2822  0.7515
  261SOL    HW1 1211   2.407   6.010   3.510  0.6594  0.4097  1.3802
  261SOL    HW2 1212   2.463   5.953   3.381 -2.3463  0.9585 -0.2612
  262SOL     OW 1213   2.428   2.756   3.949 -0.4378  0.2232  0.9954
  262SOL    HW1 1214   2.478   2.826   3.991  0.6405 -0.8176  1.5053
  262SOL    HW2 1215   2.433   2.683   4.010 -0.7031 -0.6170  0.0385
  263SOL     OW 1216   4.980   1.627   4.663  0.4392  0.3692  0.8861
  263SOL    HW1 1217   4.892   1.598   4.638  0.9998 -0.1565 -0.6047
  263SOL    HW2 1218   5.023   1.547   4.694  0.9566  0.2206 -0.1574
  264SOL     OW 1219   5.009   4.503   0.170 -0.7268 -0.1301 -0.7212
  264SOL    HW1 1220   4.975   4.415   0.189 -0.5544  0.0861  0.7035
  264SOL    HW2 1221   4.931   4.557   0.158 -0.8662 -0.1630 -0.0145
  265SOL     OW 1222   0.678   3.644   4.008 -0.0858  0.2746  0.1765
  265SOL    HW1 1223   0.748   3.598   4.054 -0.0875 -1.4600 -1.4402
  265SOL    HW2 1224   0.597   3.610   4.047 -0.0679 -0.3601 -0.3259
  266SOL     OW 1225   2.555   3.786   3.461  0.1202  0.1255 -0.3743
  266SOL    HW1 1226   2.539   3.716   3.398  0.7465  0.1627 -0.5869
  266SOL    HW2 1227   2.632   3.757   3.510 -0.4415  0.0286  0.4803
  267SOL     OW 1228   3.056   0.827   3.804 -0.2220  0.4418 -0.0640
  267SOL    HW1 1229   2.988   0.761   3.797  1.0599 -1.0452  1.0127
  267SOL    HW2 1230   3.012   0.903   3.843 -1.1757 -0.6393  1.0429
  268SOL     OW 1231   0.450   6.234   0.118 -0.3296 -0.0105 -0.4817
  268SOL    HW1 1232   0.411   6.236   0.030  0.4060  0.5764 -0.7993
  268SOL    HW2 1233   0.390   6.285   0.172 -0.9574 -0.6467 -0.5659
  269SOL     OW 1234   1.087   5.224   4.226 -0.4497 -0.4827 -0.1200
  269SOL    HW1 1235   1.049   5.311   4.233  0.7257  0.3021 -2.4931
  269SOL    HW2 1236   1.012   5.165   4.231 -1.2551  0.6076  1.6141
  270SOL     OW 1237   0.426   3.423   0.677 -0.3795 -0.5462  0.0029
  270SOL    HW1 1238   0.476   3.500   0.647  0.1551 -0.9295 -0.0964
  270SOL    HW2 1239   0.460   3.406   0.765 -2.0743  0.6934  0.9641
  271SOL     OW 1240   4.667   5.076   5.304 -0.3352 -0.0546  0.2477
  271SOL    HW1 1241   4.594   5.092   5.364 -0.5377  1.4785 -0.3651
  271SOL    HW2 1242   4.635   5.008   5.245  0.3150 -2.5545  2.5619
  272SOL     OW 1243   5.829   5.665   3.594  0.6782 -0.3646 -0.0618
  272SOL    HW1 1244   5.741   5.645   3.625 -0.1832  0.8470 -1.5469
  272SOL    HW2 1245   5.888   5.634   3.663 -0.9661 -0.1796  1.4669
  273SOL     OW 1246   5.157   3.780   2.677 -0.6386  0.0357 -0.5431
  273SOL    HW1 1247   5.082   3.764   2.620  0.2515  2.1209 -2.4568
  273SOL    HW2 1248   5.153   3.874   2.696 -0.1975 -0.3654  1.9216
  274SOL     OW 1249   0.049   3.542   4.712  0.0090 -0.9556 -0.5911
  274SOL    HW1 1250   0.009   3.483   4.648  0.9412 -0.8737 -1.2743
  274SOL    HW2 1251   0.018   3.629   4.687 -2.5256 -1.2040  1.2753
  275SOL     OW 1252   6.030   1.490   1.582  0.1375 -0.2286  0.1475
  275SOL    HW1 1253   6.042   1.473   1.489  0.3264 -1.4524  0.3725
  275SOL    HW2 1254   5.989   1.410   1.616 -0.8297  0.5696  0.9426
  276SOL     OW 1255   0.990   0.395   4.921  0.3334 -0.3340  0.0662
  276SOL    HW1 1256   0.929   0.462   4.891 -1.5398 -1.9700 -0.0297
  276SOL    HW2 1257   0.999   0.412   5.015  0.9988  0.8556 -0.1925
  277SOL     OW 1258   3.289   3.765   0.280  0.0051  0.1638  0.3397
  277SOL    HW1 1259   3.255   3.684   0.317 -0.4413  0.2115  0.0424
  277SOL    HW2 1260   3.383   3.764   0.301 -0.0449 -0.3117  0.5425
  278SOL     OW 1261   2.386   3.273   2.427 -0.5397  0.0527 -0.3461
  278SOL    HW1 1262   2.307   3.293   2.377 -0.9032 -0.2871  0.0817
  278SOL    HW2 1263   2.364   3.194   2.477 -0.1648  0.3454  0.2986
  279SOL     OW 1264   2.301   3.050   1.746  0.6436 -0.1633  0.1873
  279SOL    HW1 1265   2.222   3.020   1.702  0.9683  1.5850 -1.7739
  279SOL    HW2 1266   2.367   3.056   1.677  1.3283  2.2917  0.9315
  280SOL     OW 1267   1.271   1.733   4.645 -0.4687 -0.2124  0.3052
  280SOL    HW1 1268   1.234   1.751   4.559 -0.5399 -0.4094  0.2930
  280SOL    HW2 1269   1.277   1.637   4.649 -0.5451 -0.2077  0.5513
  281SOL     OW 1270   4.565   3.696   2.454 -0.4068  0.1520  0.8274
  281SOL    HW1 1271   4.576   3.626   2.518  1.6609 -0.0963  0.2698
  281SOL    HW2 1272   4.544   3.774   2.507  0.3332 -0.2416  1.7181
  282SOL     OW 1273   5.665   1.712   1.024 -0.5811 -0.1925 -0.2471
  282SOL    HW1 1274   5.757   1.738   1.030 -0.4793 -0.7821  0.9884
  282SOL    HW2 1275   5.661   1.657   0.946  0.4743 -1.4772  0.5526
  283SOL     OW 1276   4.422   2.329   2.802 -0.1119  0.4812 -0.2422
  283SOL    HW1 1277   4.418   2.246   2.755  0.5446  1.3522 -1.9209
  283SOL    HW2 1278   4.350   2.325   2.865 -2.7024  0.2484 -3.0062
  284SOL     OW 1279   5.912   1.579   5.158 -0.4579  0.0254  0.4837
  284SOL    HW1 1280   5.937   1.608   5.246 -0.0250  0.7877  0.1170
  284SOL    HW2 1281   5.844   1.641   5.131 -0.4485 -0.0870  0.2013
  285SOL     OW 1282   4.297   4.218   3.240 -0.6685 -0.1967  0.1734
  285SOL    HW1 1283   4.234   4.148   3.223  1.2475 -1.8401 -0.6182
  285SOL    HW2 1284   4.293   4.274   3.163 -0.2591 -1.0644 -0.5039
  286SOL     OW 1285   3.256   5.977   0.375 -0.2844  0.6427  0.3101
  286SOL    HW1 1286   3.200   5.916   0.423  2.5222 -2.7326 -0.3355
  286SOL    HW2 1287   3.298   6.029   0.443  0.4756 -1.1576  1.2829
  287SOL     OW 1288   5.309   4.819   3.106  0.1919 -0.1402  0.1201
  287SOL    HW1 1289   5.279   4.907   3.083 -0.1844 -0.0190  1.0441
  287SOL    HW2 1290   5.314   4.820   3.202 -0.0953 -1.2186  0.1539
  288SOL     OW 1291   6.113   0.373   3.223 -0.3310 -0.4065 -0.7567
  288SOL    HW1 1292   6.122   0.408   3.134 -3.2639  0.2209 -0.9008
  288SOL    HW2 1293   6.026   0.402   3.252  0.0274 -1.6498  1.8538
  289SOL     OW 1294   3.745   4.257   5.911 -0.3214  0.1482 -0.0421
  289SOL    HW1 1295   3.699   4.256   5.828  1.0621  0.5074 -0.8365
  289SOL    HW2 1296   3.836   4.275   5.889  0.1801 -0.2658  1.4983
  290SOL     OW 1297   5.102   4.467   4.392  0.0433 -0.3283 -0.0824
  290SOL    HW1 1298   5.173   4.404   4.401 -0.0246 -0.3392  0.3598
  290SOL    HW2 1299   5.039   4.425   4.333  0.8220  0.0480 -1.2084
  291SOL     OW 1300   4.113   2.861   4.677  0.0674 -0.2923  0.1536
  291SOL    HW1 1301   4.172   2.898   4.743 -1.1896  0.7991  0.6998
  291SOL    HW2 1302   4.060   2.797   4.724  0.9975 -1.5147 -0.4064
  292SOL     OW 1303   5.615   2.010   5.496 -0.4894  0.3467 -0.1045
  292SOL    HW1 1304   5.525   2.030   5.473 -0.8793  0.7761  1.6692
  292SOL    HW2 1305   5.639   2.076   5.561  1.4867  0.9170 -1.3280
  293SOL     OW 1306   5.711   3.860   3.496  0.0043 -0.2072  0.2756
  293SOL    HW1 1307   5.648   3.932   3.509  0.2955  0.0763  0.1270
  293SOL    HW2 1308   5.668   3.803   3.432 -0.9252 -1.0058  1.5666
  294SOL     OW 1309   2.471   3.403   2.671  0.3365  0.4254  0.4320
  294SOL    HW1 1310   2.445   3.374   2.584  0.6316  2.0191 -0.2260
  294SOL    HW2 1311   2.567   3.406   2.667  0.5176 -1.6438  1.5748
  295SOL     OW 1312   1.948   5.399   4.257  0.8147 -0.8529 -0.0409
  295SOL    HW1 1313   2.004   5.416   4.333 -0.0871 -0.3912  0.5482
  295SOL    HW2 1314   1.887   5.332   4.287 -0.1877  0.0375 -0.0041
  296SOL     OW 1315   4.118   1.269   5.149 -0.4239 -0.5570  0.0575
  296SOL    HW1 1316   4.212   1.261   5.131  0.1878 -1.4378  3.1261
  296SOL    HW2 1317   4.110   1.255   5.243 -3.9824 -3.3421 -0.4387
  297SOL     OW 1318   2.476   6.087   4.420 -0.5923 -0.7369  0.1485
  297SOL    HW1 1319   2.508   6.004   4.457  1.0860  0.5503  1.7618
  297SOL    HW2 1320   2.535   6.105   4.347 -0.3701 -0.5147  0.3816
  298SOL     OW 1321   0.548   2.818   3.065 -0.0879 -0.1351 -0.1060
  298SOL    HW1 1322   0.610   2.892   3.062  0.7790 -0.8769 -1.9514
  298SOL    HW2 1323   0.462   2.859   3.072  0.3822  1.0831 -1.0560
  299SOL     OW 1324   4.972   1.960   2.455  0.7665  0.2026 -0.1792
  299SOL    HW1 1325   4.957   2.002   2.539 -0.9136  0.3721 -0.5277
  299SOL    HW2 1326   4.958   1.867   2.471 -1.5761  0.4117 -0.6249
  300SOL     OW 1327   0.035   4.502   2.874  0.0461  0.1065  0.4679
  300SOL    HW1 1328   0.044   4.411   2.846 -0.0429 -0.2269  1.4837
  300SOL    HW2 1329  -0.059   4.518   2.877  0.0425  0.0311  0.8814
  301SOL     OW 1330   2.762   6.019   2.622  0.0146 -0.1654 -0.0049
  301SOL    HW1 1331   2.777   5.992   2.531  0.5970  1.1868 -0.3404
  301SOL    HW2 1332   2.695   6.088   2.615  0.3271  0.1999  0.5407
  302SOL     OW 1333   4.550   5.886   5.548  0.3148  0.3786  0.3964
  302SOL    HW1 1334   4.631   5.838   5.531 -1.0970 -2.8100  1.7978
  302SOL    HW2 1335   4.554   5.908   5.641 -0.8026 -0.6914  0.7172
  303SOL     OW 1336   4.583   3.916   0.883 -0.1020  0.0710 -0.1869
  303SOL    HW1 1337   4.527   3.979   0.928 -1.1067 -1.5638  0.9360
  303SOL    HW2 1338   4.576   3.940   0.790 -1.1651  1.0422  0.1171
  304SOL     OW 1339   4.542   2.859   4.034  0.1920  0.2422 -0.3433
  304SOL    HW1 1340   4.558   2.953   4.025 -1.5366  0.7047  0.9556
  304SOL    HW2 1341   4.630   2.821   4.043  0.9387  1.6569 -1.2050
  305SOL     OW 1342   5.220   0.592   5.984 -0.3020  0.4001  0.1344
  305SOL    HW1 1343   5.162   0.664   5.957  0.0875  0.3699 -0.8300
  305SOL    HW2 1344   5.294   0.597   5.923  0.1685 -0.2579  0.6393
  306SOL     OW 1345   4.528   1.887   1.314  0.3827  0.7811  0.0840
  306SOL    HW1 1346   4.481   1.957   1.269  1.7552  0.7398 -1.4959
  306SOL    HW2 1347   4.595   1.931   1.365 -2.5788  1.0536  4.2693
  307SOL     OW 1348   2.379   5.500   3.434  0.1829  0.2622 -0.2654
  307SOL    HW1 1349   2.382   5.464   3.345  0.2997 -1.6080  0.4424
  307SOL    HW2 1350   2.286   5.519   3.448 -0.0099 -0.5130 -0.4056
  308SOL     OW 1351   2.747   0.575   3.289  0.6897 -0.3314  0.4285
  308SOL    HW1 1352   2.729   0.503   3.349  0.3242 -1.2465 -0.7282
  308SOL    HW2 1353   2.824   0.618   3.324  1.0451 -1.4308  1.0347
  309SOL     OW 1354   2.654   4.955   1.878  0.0157 -0.2686  0.1353
  309SOL    HW1 1355   2.736   4.981   1.919 -0.0399  0.8869 -0.4392
  309SOL    HW2 1356   2.587   5.000   1.930 -0.4808 -2.8114  1.9100
  310SOL     OW 1357   4.289   5.742   2.468 -0.1676 -0.2283  0.0443
  310SOL    HW1 1358   4.383   5.755   2.484 -0.3223 -1.6966  2.6212
  310SOL    HW2 1359   4.253   5.831   2.469  0.7766  0.1812  2.3208
  311SOL     OW 1360   1.299   3.485   3.837 -0.5850 -0.0169 -0.9729
  311SOL    HW1 1361   1.270   3.441   3.916 -0.3229  0.8740 -0.3700
  311SOL    HW2 1362   1.222   3.534   3.807  0.7488  4.6383  2.1717
  312SOL     OW 1363   5.206   4.729   2.455 -0.2721 -0.0358 -0.2688
  312SOL    HW1 1364   5.154   4.767   2.526  1.3277  2.8322 -0.4714
  312SOL    HW2 1365   5.287   4.700   2.498 -0.4314 -0.9050 -0.5337
  313SOL     OW 1366   4.903   2.873   5.275 -0.3305 -0.4436  0.0677
  313SOL    HW1 1367   4.855   2.939   5.225 -0.5126 -0.7187 -0.1220
  313SOL    HW2 1368   4.966   2.836   5.212 -0.7017 -0.9362 -0.0193
  314SOL     OW 1369   1.391   3.632   2.554  0.4428  0.0493  0.0294
  314SOL    HW1 1370   1.382   3.609   2.646  2.1246 -0.6640  0.0598
  314SOL    HW2 1371   1.343   3.563   2.507 -0.1400  0.2331  0.3519
  315SOL     OW 1372   0.549   3.761   1.587  0.4260 -0.4030 -0.6701
  315SOL    HW1 1373   0.627   3.804   1.553 -1.1904  3.6382  0.2131
  315SOL    HW2 1374   0.531   3.805   1.670 -1.9514 -2.2955 -0.0512
  316SOL     OW 1375   1.005   2.066   4.372  0.3502 -0.3905 -0.0193
  316SOL    HW1 1376   0.984   2.148   4.417 -0.0894 -1.0782  1.0805
  316SOL    HW2 1377   1.087   2.038   4.412  0.7386 -0.2684 -0.7170
  317SOL     OW 1378   3.860   6.141   4.111  0.3063  0.0192  0.4117
  317SOL    HW1 1379   3.786   6.085   4.132  1.4748 -1.1564  1.5863
  317SOL    HW2 1380   3.909   6.093   4.045  1.3643 -0.4295  1.4902
  318SOL     OW 1381   5.340   4.022   0.612 -0.8779  0.0245  0.2045
  318SOL    HW1 1382   5.371   4.096   0.560  0.6460  0.2243  1.3254
  318SOL    HW2 1383   5.311   4.061   0.694 -0.6227 -0.5519  0.5761
  319SOL     OW 1384   2.781   3.698   2.468 -0.4236  0.1228  0.1995
  319SOL    HW1 1385   2.724   3.751   2.413 -1.7964 -1.1598  0.3335
  319SOL    HW2 1386   2.767   3.732   2.557  0.7638  1.2912 -0.0344
  320SOL     OW 1387   4.642   1.001   0.857 -0.1636 -0.1884  0.3816
  320SOL    HW1 1388   4.653   1.029   0.948  0.0947  0.7095  0.0855
  320SOL    HW2 1389   4.548   1.010   0.841 -0.5149 -2.0258  1.0619
  321SOL     OW 1390   1.218   4.256   0.762 -0.1046  0.1251  0.0855
  321SOL    HW1 1391   1.234   4.344   0.797  0.4893 -0.3400  1.0176
  321SOL    HW2 1392   1.129   4.261   0.728  0.8274  1.8594 -2.3758
  322SOL     OW 1393   4.181   5.251   3.173  0.3639  0.0824 -0.6126
  322SOL    HW1 1394   4.178   5.343   3.198  1.7576 -0.4128  1.7386
  322SOL    HW2 1395   4.100   5.213   3.207  0.0706  0.3159 -1.0479
  323SOL     OW 1396   0.592   3.157   0.010  0.2057  0.4795  0.0464
  323SOL    HW1 1397   0.602   3.101   0.087  0.0017  0.3815  0.0031
  323SOL    HW2 1398   0.597   3.247   0.045  1.7085  0.4515 -0.0363
  324SOL     OW 1399   1.355   1.600   2.423  0.0035 -0.2741  0.2970
  324SOL    HW1 1400   1.450   1.609   2.432 -0.0785  1.1549 -0.0645
  324SOL    HW2 1401   1.319   1.679   2.463 -1.1212 -1.2935  1.4183
  325SOL     OW 1402   0.238   1.339   1.642  0.0156 -0.1773 -0.6738
  325SOL    HW1 1403   0.219   1.430   1.665 -0.7053 -0.5334  0.2496
  325SOL    HW2 1404   0.266   1.342   1.551  2.5672  1.2739  0.0639
  326SOL     OW 1405   3.424   4.395   0.415 -0.4492  1.0207 -0.1662
  326SOL    HW1 1406   3.467   4.401   0.330 -1.2393  2.1664 -0.5049
  326SOL    HW2 1407   3.496   4.392   0.478  0.1333  1.0533 -0.8159
  327SOL     OW 1408   1.217   3.732   0.840 -0.3976 -0.1963 -0.3750
  327SOL    HW1 1409   1.187   3.645   0.864  1.6710 -0.7095  0.5445
  327SOL    HW2 1410   1.254   3.722   0.752 -1.3492  0.0716 -0.8190
  328SOL     OW 1411   4.613   1.870   0.365  0.2690  0.1667 -0.1407
  328SOL    HW1 1412   4.590   1.909   0.449 -0.9280  1.0399 -0.8556
  328SOL    HW2 1413   4.585   1.778   0.373  0.5156  0.1431  0.5378
  329SOL     OW 1414   4.047   4.349   1.994  0.1623 -0.0185 -0.0386
  329SOL    HW1 1415   4.129   4.381   2.030  0.4030  0.2321 -0.7824
  329SOL    HW2 1416   4.012   4.290   2.060  0.8213  0.0654  0.3841
  330SOL     OW 1417   1.828   3.586   4.598 -0.3404 -0.2917  0.6813
  330SOL    HW1 1418   1.898   3.560   4.659 -1.2104 -2.4087  0.8598
  330SOL    HW2 1419   1.827   3.517   4.532  0.0729  1.5757 -1.3865
  331SOL     OW 1420   3.314   0.034   6.033  0.3645 -0.3784  0.2003
  331SOL    HW1 1421   3.389   0.062   6.086  0.2692 -0.4579  0.3792
  331SOL    HW2 1422   3.350  -0.029   5.972  0.5995  0.1935 -0.2612
  332SOL     OW 1423   0.811   3.969   5.379  0.0244  0.9000  0.1541
  332SOL    HW1 1424   0.825   3.972   5.284  0.0587  0.2848  0.1362
  332SOL    HW2 1425   0.859   3.892   5.408 -0.7535  0.5438  0.5334
  333SOL     OW 1426   5.339   5.167   6.029  0.1173  0.0696 -0.4181
  333SOL    HW1 1427   5.426   5.187   5.995  0.8433 -1.4764  0.4500
  333SOL    HW2 1428   5.295   5.119   5.959 -0.6428  2.1386 -1.4479
  334SOL     OW 1429   5.034   5.474   3.381  0.0827  0.1590 -0.3087
  334SOL    HW1 1430   4.976   5.455   3.454  1.3059  1.6765  1.1507
  334SOL    HW2 1431   4.987   5.539   3.329 -0.4434 -0.2985 -0.4115
  335SOL     OW 1432   3.984   0.140   4.068 -0.1818 -0.4720 -0.3157
  335SOL    HW1 1433   3.911   0.188   4.106 -0.6793 -1.3629 -0.1263
  335SOL    HW2 1434   3.985   0.056   4.116  3.0107  0.7183  2.1000
  336SOL     OW 1435   2.342   4.565   5.092 -0.1177  0.5484  0.1553
  336SOL    HW1 1436   2.258   4.529   5.065 -0.3203  0.1242  1.2875
  336SOL    HW2 1437   2.384   4.495   5.143  1.1566  0.5695 -0.8276
  337SOL     OW 1438   5.777   4.327   4.486 -0.6100  0.2992  0.5011
  337SOL    HW1 1439   5.827   4.403   4.458  1.7791 -1.0589  0.8047
  337SOL    HW2 1440   5.707   4.362   4.541 -0.6657  2.3585 -0.7952
  338SOL     OW 1441   2.653   2.608   3.342 -0.3709 -0.1599  0.5663
  338SOL    HW1 1442   2.724   2.546   3.358 -0.2533  0.1099  1.1264
  338SOL    HW2 1443   2.678   2.653   3.261 -0.6875 -1.1539 -0.0966
  339SOL     OW 1444   1.198   5.601   1.681  0.1012 -0.0569 -0.1464
  339SOL    HW1 1445   1.225   5.658   1.609 -0.3837 -1.3782 -1.4039
  339SOL    HW2 1446   1.269   5.538   1.689 -1.0270 -1.5240 -1.2665
  340SOL     OW 1447   1.119   5.677   1.932  0.0278 -0.2953 -0.5879
  340SOL    HW1 1448   1.201   5.707   1.972 -0.2009 -0.6369  0.1430
  340SOL    HW2 1449   1.143   5.655   1.842  0.5682  0.3906 -0.6200
  341SOL     OW 1450   2.226   3.194   4.849 -0.8171 -0.4599 -0.1906
  341SOL    HW1 1451   2.227   3.104   4.818 -0.5511 -0.0692 -1.3672
  341SOL    HW2 1452   2.231   3.187   4.945 -1.3754 -1.6898 -0.2429
  342SOL     OW 1453   2.373   3.638   2.831 -0.5866 -0.0963 -0.4490
  342SOL    HW1 1454   2.469   3.637   2.836 -0.6224  0.7947  1.4744
  342SOL    HW2 1455   2.354   3.646   2.738  1.1222 -2.9151 -1.1724
  343SOL     OW 1456   3.340   5.597   4.264 -0.7847  0.5519  0.3989
  343SOL    HW1 1457   3.362   5.593   4.171  0.4244 -1.0316  0.6948
  343SOL    HW2 1458   3.270   5.662   4.270 -0.7136  0.8720 -1.5683
  344SOL     OW 1459   0.282   5.048   0.164  0.0813  0.3448 -0.0739
  344SOL    HW1 1460   0.327   5.064   0.081  0.1741  0.1192 -0.0674
  344SOL    HW2 1461   0.282   5.133   0.208  0.0504  0.4604 -0.2955
  345SOL     OW 1462   0.962   2.529   2.819 -0.1449  0.1556 -0.3774
  345SOL    HW1 1463   1.026   2.597   2.840  1.2188 -1.5367  1.3194
  345SOL    HW2 1464   0.911   2.566   2.747  1.7823  2.1685 -0.8381
  346SOL     OW 1465   0.793   2.889   0.882 -0.1507  0.0655 -0.4083
  346SOL    HW1 1466   0.737   2.850   0.814 -0.8695 -2.2541  1.3720
  346SOL    HW2 1467   0.771   2.840   0.962  2.5785  0.8516  0.9428
  347SOL     OW 1468   5.345   6.153   2.742  0.2650 -0.0468 -0.2514
  347SOL    HW1 1469   5.433   6.125   2.715  0.0986 -1.6238  0.6790
  347SOL    HW2 1470   5.324   6.095   2.816 -1.7326  0.0033 -0.7346
  348SOL     OW 1471   5.024   2.947   1.020  0.3336  0.8793  0.3606
  348SOL    HW1 1472   4.977   3.008   0.963  0.1149  0.0677 -0.3476
  348SOL    HW2 1473   4.994   2.969   1.108 -0.9568  0.7763 -0.0221
  349SOL     OW 1474   4.151   6.092   3.252 -0.1008  0.1537 -0.0053
  349SOL    HW1 1475   4.224   6.035   3.277 -0.5094  0.2937  1.6344
  349SOL    HW2 1476   4.112   6.118   3.335  0.6000  3.5784 -0.6053
  350SOL     OW 1477   5.613   5.217   2.420 -0.2421  0.3148 -0.6009
  350SOL    HW1 1478   5.557   5.226   2.343  1.1145  1.5445 -1.4908
  350SOL    HW2 1479   5.630   5.123   2.426 -2.0021 -0.0388 -0.5584
  351SOL     OW 1480   2.804   6.015   1.526  0.3578  0.0257 -0.4873
  351SOL    HW1 1481   2.814   6.107   1.503 -0.6852  0.2972  0.0654
  351SOL    HW2 1482   2.780   6.016   1.619 -1.4724 -0.6606 -0.8977
  352SOL     OW 1483   6.049   0.057   1.845 -0.2058  0.1124  0.1792
  352SOL    HW1 1484   6.096  -0.018   1.882 -2.1961 -0.6958  1.2575
  352SOL    HW2 1485   6.090   0.133   1.886  0.4418 -0.5153  0.7335
  353SOL     OW 1486   1.735   4.927   5.445  0.0222 -0.7423  0.3320
  353SOL    HW1 1487   1.682   4.955   5.519  0.9449 -0.0985  0.7762
  353SOL    HW2 1488   1.691   4.964   5.368 -0.8559 -1.2876  0.5668
  354SOL     OW 1489   0.444   4.389   0.107 -0.0864  0.3330 -0.2836
  354SOL    HW1 1490   0.353   4.381   0.134 -0.4415 -0.7097 -1.7097
  354SOL    HW2 1491   0.441   4.424   0.018  0.9749  1.4423  0.0753
  355SOL     OW 1492   1.874   2.098   2.931  0.4447 -0.3545 -0.1915
  355SOL    HW1 1493   1.887   2.045   3.009 -1.4627 -1.0562 -0.2978
  355SOL    HW2 1494   1.882   2.036   2.858  0.6464 -0.0089 -0.4698
  356SOL     OW 1495   0.395   0.361   1.957  0.2316  0.3137 -0.9740
  356SOL    HW1 1496   0.356   0.444   1.984 -0.8641  0.0796 -1.8143
  356SOL    HW2 1497   0.490   0.378   1.960  0.0567  1.2594 -0.1114
  357SOL     OW 1498   0.029   2.857   4.115 -0.4579  0.6355 -0.2356
  357SOL    HW1 1499  -0.039   2.922   4.129  2.1056  3.3219  1.0428
  357SOL    HW2 1500   0.091   2.872   4.187  1.0399 -2.2354 -0.7842
  358SOL     OW 1501   4.602   0.545   0.730 -0.2420 -0.2063 -0.1840
  358SOL    HW1 1502   4.622   0.467   0.679 -0.5951 -1.5332  1.6104
  358SOL    HW2 1503   4.681   0.561   0.782 -1.0143 -0.8882  1.2657
  359SOL     OW 1504   1.100   4.124   2.561  0.0580  0.3444  0.6493
  359SOL    HW1 1505   1.027   4.087   2.612  0.0311 -0.4001  0.0861
  359SOL    HW2 1506   1.178   4.102   2.612 -0.2108  2.9508  2.3440
  360SOL     OW 1507   1.806   0.459   4.484 -0.1087  0.0377 -0.2615
  360SOL    HW1 1508   1.838   0.509   4.559 -1.6518 -0.2641  0.6353
  360SOL    HW2 1509   1.873   0.391   4.470  0.3512  0.2875  0.6473
  361SOL     OW 1510   1.686   4.355   4.752  0.2058 -0.6346 -0.1288
  361SOL    HW1 1511   1.669   4.292   4.683  1.0570 -1.6931  0.5968
  361SOL    HW2 1512   1.667   4.307   4.833 -1.5084  0.8004  0.3879
  362SOL     OW 1513   4.764   3.071   3.597  0.4139  0.5130  0.4484
  362SOL    HW1 1514   4.746   3.162   3.621  1.7535  1.1023 -0.6140
  362SOL    HW2 1515   4.811   3.077   3.514 -0.0926 -1.2042 -0.0104
  363SOL     OW 1516   0.347   2.856   4.639 -0.2871  0.6234 -0.2006
  363SOL    HW1 1517   0.287   2.928   4.621  1.4422  2.3191  0.4650
  363SOL    HW2 1518   0.428   2.881   4.593  0.7319 -0.2890  1.0284
  364SOL     OW 1519   5.904   1.732   4.450 -0.2286  0.4235 -0.4245
  364SOL    HW1 1520   5.982   1.690   4.415  0.5477  0.9417  0.6310
  364SOL    HW2 1521   5.925   1.826   4.449 -1.0495  0.6122 -0.6493
  365SOL     OW 1522   2.855   6.023   0.531 -0.5168  0.1890 -0.0498
  365SOL    HW1 1523   2.807   6.069   0.599  0.9275 -0.1163  1.2228
  365SOL    HW2 1524   2.866   6.087   0.461  1.1544  1.7228  1.5346
  366SOL     OW 1525   4.638   1.890   0.816 -0.2160  0.1128 -0.5590
  366SOL    HW1 1526   4.643   1.970   0.868  0.7634 -0.0645 -0.3587
  366SOL    HW2 1527   4.665   1.821   0.876  0.9078 -0.1023 -1.2858
  367SOL     OW 1528   1.995   0.292   2.640 -0.3358 -0.6814  0.6665
  367SOL    HW1 1529   1.908   0.267   2.670 -0.1383 -1.9242  0.2476
  367SOL    HW2 1530   2.054   0.267   2.711 -0.3590  0.7694  1.2392
  368SOL     OW 1531   1.551   0.827   2.236  0.4145 -0.3306  0.2537
  368SOL    HW1 1532   1.536   0.914   2.275  1.6074 -0.1283  0.2738
  368SOL    HW2 1533   1.616   0.786   2.292 -2.3067 -2.5238  2.1294
  369SOL     OW 1534   2.764   0.957   1.539  0.0689  0.3298  0.0914
  369SOL    HW1 1535   2.849   0.985   1.574 -0.5018  0.9979  0.9750
  369SOL    HW2 1536   2.727   0.902   1.607 -0.0936 -0.2074 -0.4212
  370SOL     OW 1537   1.052   4.754   0.767  0.3052  0.1163 -0.3117
  370SOL    HW1 1538   1.133   4.721   0.806  0.0398 -0.2584 -0.0663
  370SOL    HW2 1539   1.046   4.845   0.796 -0.3716 -0.4290  1.3282
  371SOL     OW 1540   5.144   5.466   6.090  0.1634 -0.5641 -0.0434
  371SOL    HW1 1541   5.230   5.482   6.053 -0.3912  1.5387 -0.5411
  371SOL    HW2 1542   5.100   5.551   6.088 -1.5573 -1.3555  1.1630
  372SOL     OW 1543   4.887   2.136   4.436  0.4887  0.3492 -0.5350
  372SOL    HW1 1544   4.816   2.118   4.497  0.2691  1.3122 -0.4804
  372SOL    HW2 1545   4.967   2.117   4.486  0.2828 -0.3439 -0.4636
  373SOL     OW 1546   2.497   4.784   4.257 -0.3917 -0.0074 -0.1036
  373SOL    HW1 1547   2.544   4.706   4.285 -0.9158  0.3566  1.9958
  373SOL    HW2 1548   2.523   4.852   4.320 -0.9687  1.1563 -1.0632
  374SOL     OW 1549   2.965   0.042   3.880  0.0747  0.5254 -0.0139
  374SOL    HW1 1550   3.032   0.048   3.947  1.7591 -0.1170 -1.5654
  374SOL    HW2 1551   2.991   0.105   3.813 -0.8607  0.2594 -0.6605
  375SOL     OW 1552   2.015   1.613   0.167 -0.7234 -0.2462 -0.0787
  375SOL    HW1 1553   1.950   1.549   0.139  0.5907 -0.6197 -2.5243
  375SOL    HW2 1554   2.086   1.560   0.204 -0.0619 -0.1896 -1.2101
  376SOL     OW 1555   2.152   3.373   5.791  0.3694  0.1645  0.4236
  376SOL    HW1 1556   2.191   3.425   5.720 -0.1491  0.3549  0.2715
  376SOL    HW2 1557   2.074   3.335   5.752  0.4213 -0.2430  0.7167
  377SOL     OW 1558   5.673   2.915   3.790  0.2304 -0.1636 -0.1776
  377SOL    HW1 1559   5.742   2.934   3.727 -0.1347  1.3989 -0.1552
  377SOL    HW2 1560   5.610   2.861   3.742  0.3350  0.3551 -0.9068
  378SOL     OW 1561   6.060   5.620   2.696  0.7082  0.2045 -0.0681
  378SOL    HW1 1562   6.112   5.691   2.736  0.4409 -0.5462  1.7017
  378SOL    HW2 1563   6.073   5.546   2.755 -2.1709 -0.0749  0.3187
  379SOL     OW 1564   5.040   2.705   2.087  0.2702  0.5383  0.2081
  379SOL    HW1 1565   5.016   2.792   2.120  0.2976  0.3268  0.7914
  379SOL    HW2 1566   5.047   2.717   1.992  1.0375  1.3529  0.3577
  380SOL     OW 1567   0.142   1.735   3.798  0.2298  0.2339  0.0948
  380SOL    HW1 1568   0.231   1.761   3.776  0.2593  2.4282  2.2587
  380SOL    HW2 1569   0.101   1.714   3.715  2.6749 -0.6138 -0.9786
  381SOL     OW 1570   3.671   5.139   2.439 -0.0986 -0.0061  0.2830
  381SOL    HW1 1571   3.664   5.043   2.434 -0.5878  0.0947 -2.2657
  381SOL    HW2 1572   3.612   5.163   2.510 -1.0312 -1.5146  0.0786
  382SOL     OW 1573   6.033   2.278   1.994  0.6546  0.1943 -0.0145
  382SOL    HW1 1574   6.080   2.339   1.937 -0.2496 -0.5927 -1.6659
  382SOL    HW2 1575   5.968   2.331   2.039  0.2874  0.5599 -0.9693
  383SOL     OW 1576   5.868   0.653   3.137  0.4419  0.0297  0.3739
  383SOL    HW1 1577   5.790   0.680   3.090  0.8127 -0.2662 -0.4188
  383SOL    HW2 1578   5.915   0.735   3.156 -1.5171  0.5815  3.5806
  384SOL     OW 1579   4.101   1.773   1.757 -0.1257  0.0889 -0.6635
  384SOL    HW1 1580   4.075   1.820   1.678 -0.3547  1.2608  0.0705
  384SOL    HW2 1581   4.105   1.841   1.824  2.0519 -0.5121 -0.0986
  385SOL     OW 1582   2.284   1.202   3.914  0.1583 -0.2677  0.4861
  385SOL    HW1 1583   2.189   1.207   3.916  0.1028  0.1132  4.4714
  385SOL    HW2 1584   2.314   1.293   3.926  0.8561 -0.7301  2.6944
  386SOL     OW 1585   4.258   4.897   4.078 -0.4908 -0.4428 -0.0422
  386SOL    HW1 1586   4.293   4.955   4.146 -1.9449 -0.7321  0.9900
  386SOL    HW2 1587   4.329   4.891   4.014  0.0846  1.6325  0.3253
  387SOL     OW 1588   4.880   0.325   3.212 -0.0819  0.2600 -0.5117
  387SOL    HW1 1589   4.895   0.389   3.282  1.0987 -0.0214 -0.4769
  387SOL    HW2 1590   4.810   0.364   3.159 -0.2592  0.9790  0.2194
  388SOL     OW 1591   3.947   0.958   4.610 -0.2693 -0.5985 -0.2138
  388SOL    HW1 1592   3.935   0.949   4.515 -1.1103  0.0372 -0.1798
  388SOL    HW2 1593   4.041   0.944   4.623  0.1688  0.9574 -1.3513
  389SOL     OW 1594   0.419   6.142   5.598 -0.4393 -0.4600  0.2702
  389SOL    HW1 1595   0.429   6.170   5.689  0.1283 -2.2620  0.8068
  389SOL    HW2 1596   0.459   6.055   5.595 -0.3161 -0.3869 -1.7494
  390SOL     OW 1597   4.089   2.856   3.025  0.2465  0.0719  0.5060
  390SOL    HW1 1598   4.037   2.886   3.099 -0.6759  2.4126 -0.9718
  390SOL    HW2 1599   4.024   2.824   2.962  0.8212  0.0924 -0.1104
  391SOL     OW 1600   2.477   2.594   4.399 -0.0132  0.1772  0.4350
  391SOL    HW1 1601   2.454   2.631   4.484 -0.6930  0.7592  0.0111
  391SOL    HW2 1602   2.566   2.561   4.410 -0.8316 -1.6764  1.9862
  392SOL     OW 1603   2.645   4.971   4.096 -0.6351 -0.1861 -0.7873
  392SOL    HW1 1604   2.578   4.990   4.031 -1.4570 -0.7288 -0.1194
  392SOL    HW2 1605   2.615   4.891   4.139  1.0785 -1.1757 -1.3281
  393SOL     OW 1606   0.660   5.529   1.938 -0.8321 -0.3233 -0.2974
  393SOL    HW1 1607   0.752   5.503   1.942 -0.9139 -0.5850 -0.0507
  393SOL    HW2 1608   0.613   5.448   1.914 -1.2555 -0.8291  1.9499
  394SOL     OW 1609   2.645   1.443   5.079 -0.0958  0.1246  0.5251
  394SOL    HW1 1610   2.563   1.423   5.123 -0.3130 -0.3539 -0.0804
  394SOL    HW2 1611   2.702   1.369   5.101 -0.0166  0.1722  0.4801
  395SOL     OW 1612   6.135   0.998   6.176  1.3385 -0.3726 -0.3282
  395SOL    HW1 1613   6.226   1.015   6.151  1.3850  0.4641  0.3847
  395SOL    HW2 1614   6.112   1.069   6.235  0.1766 -0.5113 -0.5827
  396SOL     OW 1615   6.198   3.469   1.306 -0.6023 -0.0639 -0.2560
  396SOL    HW1 1616   6.108   3.495   1.284 -0.8015  0.0344  0.6387
  396SOL    HW2 1617   6.251   3.504   1.235 -0.6422  4.2127  1.5385
  397SOL     OW 1618   6.109   1.716   5.787  0.1214 -0.0558  0.2478
  397SOL    HW1 1619   6.097   1.658   5.862 -0.1649 -1.2151 -0.6631
  397SOL    HW2 1620   6.030   1.770   5.785 -0.9011 -1.5272 -0.4753
  398SOL     OW 1621   3.139   3.345   2.833 -0.5702 -0.5524  0.9564
  398SOL    HW1 1622   3.153   3.290   2.755 -2.1735 -1.4265  1.2452
  398SOL    HW2 1623   3.070   3.406   2.807  1.4296  1.6431  0.5249
  399SOL     OW 1624   0.302   3.858   2.337 -0.2746  0.0265  0.4181
  399SOL    HW1 1625   0.334   3.830   2.423 -0.1976 -2.2520 -0.2994
  399SOL    HW2 1626   0.374   3.908   2.300 -0.1609  0.7056  1.4950
  400SOL     OW 1627   6.226   0.146   3.333  0.2724  0.2816 -0.2050
  400SOL    HW1 1628   6.314   0.161   3.369  0.4443 -0.6051 -0.2280
  400SOL    HW2 1629   6.203   0.228   3.289  1.4540  0.2436 -0.9382
  401SOL     OW 1630   3.518   3.444   0.977 -0.1610  0.2636  0.1334
  401SOL    HW1 1631   3.488   3.362   1.015  0.0706  0.3484  0.5020
  401SOL    HW2 1632   3.477   3.447   0.891 -2.3709  1.0631  1.1638
  402SOL     OW 1633   1.727   2.657   1.484  0.1494  0.2040 -0.2597
  402SOL    HW1 1634   1.813   2.700   1.482 -0.4265  1.3788 -0.5957
  402SOL    HW2 1635   1.724   2.613   1.569  1.0808  0.1204 -0.2538
  403SOL     OW 1636   5.451   3.801   0.513 -0.0435 -0.3671  0.2103
  403SOL    HW1 1637   5.443   3.896   0.519  1.9316 -0.1939  0.8944
  403SOL    HW2 1638   5.453   3.771   0.603  0.8988 -0.8668  0.0390
  404SOL     OW 1639   1.922   4.229   3.965  0.2792 -0.4210 -0.4574
  404SOL    HW1 1640   1.920   4.211   3.871  1.1718 -0.2082 -0.5264
  404SOL    HW2 1641   1.892   4.320   3.973 -0.6354 -0.7131 -0.4475
  405SOL     OW 1642   2.085   5.083   0.543 -1.1870 -0.3542  0.4864
  405SOL    HW1 1643   2.085   5.178   0.545 -0.9931 -0.3696  2.0073
  405SOL    HW2 1644   2.056   5.061   0.454 -0.9800  1.1049  0.0332
  406SOL     OW 1645   2.336   2.777   3.085 -0.0182  1.0395  0.6793
  406SOL    HW1 1646   2.426   2.774   3.117 -0.3031  1.0200  1.5127
  406SOL    HW2 1647   2.341   2.825   3.002  0.9293 -0.0401  0.0775
  407SOL     OW 1648   1.751   5.796   3.348 -0.0660 -0.2020  0.2075
  407SOL    HW1 1649   1.818   5.856   3.380 -1.4323  1.5452 -0.0340
  407SOL    HW2 1650   1.675   5.814   3.404 -0.6904 -1.3279 -0.2442
  408SOL     OW 1651   3.504   1.785   5.246  0.0212  0.1677  0.5107
  408SOL    HW1 1652   3.413   1.800   5.220  0.2479  1.5283  0.4374
  408SOL    HW2 1653   3.543   1.736   5.173 -0.5797 -0.2193  0.4445
  409SOL     OW 1654   2.743   2.011   5.504 -0.6706  0.0408 -0.0168
  409SOL    HW1 1655   2.780   2.089   5.462 -2.5068  1.1756  0.3592
  409SOL    HW2 1656   2.713   2.042   5.590  2.5887 -2.1122  2.1424
  410SOL     OW 1657   1.890   4.306   6.164  1.0161  0.0599  0.6031
  410SOL    HW1 1658   1.873   4.345   6.078 -1.4404 -0.8187  0.6197
  410SOL    HW2 1659   1.908   4.381   6.220  1.4552  0.7427 -0.4116
  411SOL     OW 1660   5.553   4.920   4.566  0.4339 -0.7438 -0.1247
  411SOL    HW1 1661   5.472   4.971   4.556 -0.2097 -1.7279 -0.1180
  411SOL    HW2 1662   5.589   4.948   4.650  0.4439  0.1755 -0.4313
  412SOL     OW 1663   3.349   1.005   0.302  0.0082  0.0976  0.0345
  412SOL    HW1 1664   3.313   1.067   0.238 -0.4977 -0.1685  0.0490
  412SOL    HW2 1665   3.273   0.979   0.355  0.5660  0.9356  1.2883
  413SOL     OW 1666   4.654   2.629   1.206 -0.2602 -0.0275 -0.5643
  413SOL    HW1 1667   4.727   2.652   1.148  0.4136 -0.0190  0.2593
  413SOL    HW2 1668   4.582   2.684   1.177 -0.0503 -0.2803 -1.6215
  414SOL     OW 1669   1.047   3.674   2.936  0.0920 -0.0202  0.3249
  414SOL    HW1 1670   1.065   3.734   3.008  0.7922 -0.0565  0.1813
  414SOL    HW2 1671   1.064   3.726   2.857 -1.3788  0.2517  0.1525
  415SOL     OW 1672   1.198   5.184   2.616  0.2128 -0.2385 -0.2496
  415SOL    HW1 1673   1.169   5.197   2.706  0.9649 -1.4267  0.2021
  415SOL    HW2 1674   1.203   5.272   2.578  2.2734  0.5489  1.6535
  416SOL     OW 1675   4.002   4.464   2.377 -0.1119  0.3499 -0.1623
  416SOL    HW1 1676   3.987   4.385   2.324 -1.3329 -0.5885  1.5036
  416SOL    HW2 1677   4.055   4.433   2.451 -2.8560  0.4017  1.9823
  417SOL     OW 1678   0.366   4.765   0.018 -0.3987 -0.0639 -0.1602
  417SOL    HW1 1679   0.459   4.747   0.028  0.4694  1.8202 -3.4651
  417SOL    HW2 1680   0.347   4.832   0.084  0.3401 -1.0234  1.0609
  418SOL     OW 1681   4.898   4.835   1.119  0.2271  0.4551 -0.4998
  418SOL    HW1 1682   4.873   4.759   1.171 -0.4491  0.8229 -0.2774
  418SOL    HW2 1683   4.824   4.850   1.061  0.4685  0.7826 -0.7262
  419SOL     OW 1684   2.252   5.853   1.874 -0.1612  0.6247 -0.0246
  419SOL    HW1 1685   2.156   5.848   1.872 -0.1660  0.7525 -1.2990
  419SOL    HW2 1686   2.279   5.825   1.786  1.1004 -1.4297  0.9428
  420SOL     OW 1687   2.048   4.875   2.251 -0.6739 -0.1427 -0.5867
  420SOL    HW1 1688   2.056   4.843   2.162 -0.5227 -0.6633 -0.3876
  420SOL    HW2 1689   2.134   4.911   2.272  0.1442 -2.4364  0.2729
  421SOL     OW 1690   0.996   5.037   2.110 -0.1145  0.2861  0.3977
  421SOL    HW1 1691   1.008   4.954   2.064  0.1405  0.5146  0.0513
  421SOL    HW2 1692   0.970   5.099   2.042 -1.0854  0.3127  0.7798
  422SOL     OW 1693   5.781   0.821   1.750 -0.0723 -0.0712  0.1525
  422SOL    HW1 1694   5.869   0.819   1.786  1.7300 -0.9280 -3.7684
  422SOL    HW2 1695   5.729   0.770   1.812  1.9620  0.8031  2.8194
  423SOL     OW 1696   5.615   1.574   0.487  0.3902 -0.4114 -0.1378
  423SOL    HW1 1697   5.657   1.505   0.435  0.2830 -0.0875 -0.6515
  423SOL    HW2 1698   5.620   1.652   0.432  0.2892 -0.0633  0.3438
  424SOL     OW 1699   2.577   1.986   4.328 -0.4380  0.0998 -0.1557
  424SOL    HW1 1700   2.604   2.034   4.406 -2.2920  0.2704  0.4210
  424SOL    HW2 1701   2.501   1.935   4.356 -0.7410 -0.3439 -1.6915
  425SOL     OW 1702   3.127   6.095   2.089 -0.4412 -0.3324  0.4062
  425SOL    HW1 1703   3.061   6.034   2.122  1.0863 -2.3383 -0.0446
  425SOL    HW2 1704   3.206   6.075   2.139  0.3079  0.8022 -0.2612
  426SOL     OW 1705   0.012   4.561   2.575 -0.0683 -0.1811  0.4831
  426SOL    HW1 1706  -0.037   4.632   2.534 -2.3717 -1.6920  0.4475
  426SOL    HW2 1707  -0.046   4.529   2.644  1.3368 -1.3934  1.1499
  427SOL     OW 1708   6.159   3.179   3.352 -0.8983  0.5828  0.2507
  427SOL    HW1 1709   6.199   3.173   3.439 -1.2415  1.3077  0.4681
  427SOL    HW2 1710   6.077   3.129   3.359 -0.5658  0.0128  0.1209
  428SOL     OW 1711   3.016   5.897   1.747  0.1922  0.7064 -0.5903
  428SOL    HW1 1712   3.081   5.828   1.750 -0.3854  0.1284 -1.1288
  428SOL    HW2 1713   2.966   5.880   1.667 -1.8466 -0.0157  0.7462
  429SOL     OW 1714   2.359   4.959   2.302  0.6722 -0.5390  0.9146
  429SOL    HW1 1715   2.438   4.906   2.309  1.2723  0.3056  0.5714
  429SOL    HW2 1716   2.333   4.975   2.393  1.5448  0.1382  1.0553
  430SOL     OW 1717   0.823   2.174   1.018 -0.1563  0.3097 -0.4995
  430SOL    HW1 1718   0.828   2.270   1.024 -0.1859  0.2529  0.6066
  430SOL    HW2 1719   0.730   2.156   1.004 -0.2076  0.4160 -0.2912
  431SOL     OW 1720   4.038   0.409   5.836  0.1144 -0.0465 -0.2419
  431SOL    HW1 1721   3.972   0.373   5.895  0.2182 -0.1486 -0.1875
  431SOL    HW2 1722   4.103   0.339   5.827  0.2400  0.0709 -0.2551
  432SOL     OW 1723   0.323   1.055   4.276  0.1194  0.8262  0.1692
  432SOL    HW1 1724   0.321   1.117   4.203  0.5811  1.4587  0.6919
  432SOL    HW2 1725   0.332   0.969   4.233  1.1350  1.2439 -0.4970
  433SOL     OW 1726   3.626   3.876   2.357  0.0316  0.0841 -0.7070
  433SOL    HW1 1727   3.596   3.857   2.446  0.5310 -0.8578 -0.7315
  433SOL    HW2 1728   3.562   3.834   2.300  0.5023 -0.5638 -0.7707
  434SOL     OW 1729   1.034   5.879   2.660 -0.5129 -0.4120  0.1876
  434SOL    HW1 1730   1.078   5.823   2.725  0.4662 -0.0529 -0.1524
  434SOL    HW2 1731   1.103   5.938   2.629 -1.1685 -0.0516 -0.5972
  435SOL     OW 1732   2.552   2.162   1.005 -0.3008 -0.2148  0.1747
  435SOL    HW1 1733   2.581   2.123   1.087  1.2875  0.5145 -0.0139
  435SOL    HW2 1734   2.603   2.117   0.937 -1.3646 -0.5834 -0.4116
  436SOL     OW 1735   4.803   2.533   2.625 -0.6732 -0.4701  0.4367
  436SOL    HW1 1736   4.752   2.591   2.681 -0.4320 -1.3780  1.6644
  436SOL    HW2 1737   4.873   2.500   2.682  0.2235 -0.6316 -0.7026
  437SOL     OW 1738   3.888   6.191   3.679 -0.3543  1.0390 -0.0645
  437SOL    HW1 1739   3.818   6.140   3.637  0.5384  0.5501 -1.0176
  437SOL    HW2 1740   3.923   6.132   3.746 -0.5640  1.1145  0.1114
  438SOL     OW 1741   1.863   0.179   1.776  0.2404 -0.1306 -0.5731
  438SOL    HW1 1742   1.888   0.107   1.718  0.9393  0.0542 -0.5087
  438SOL    HW2 1743   1.785   0.218   1.734 -0.3571 -1.1344 -0.4207
  439SOL     OW 1744   5.736   4.648   5.331 -0.8631  0.1000 -0.0790
  439SOL    HW1 1745   5.815   4.629   5.380 -0.7487 -2.0560 -1.0131
  439SOL    HW2 1746   5.716   4.739   5.352  0.8592  0.1506  1.5413
  440SOL     OW 1747   2.546   4.825   0.942 -0.4300  0.4072 -0.2319
  440SOL    HW1 1748   2.553   4.798   1.033  0.5562  0.8297 -0.1713
  440SOL    HW2 1749   2.460   4.867   0.936  0.8061  3.5045  1.3773
  441SOL     OW 1750   0.566   4.695   5.877 -0.2256 -0.1259  0.1596
  441SOL    HW1 1751   0.540   4.724   5.790 -2.2076 -0.0449  0.7371
  441SOL    HW2 1752   0.611   4.612   5.862 -0.7290 -0.2236 -0.9113
  442SOL     OW 1753   0.461   4.120   5.769  0.6285 -0.2745 -0.5538
  442SOL    HW1 1754   0.522   4.055   5.804  0.4776  0.7182  1.7855
  442SOL    HW2 1755   0.409   4.073   5.704  1.6979 -2.0050 -0.2183
  443SOL     OW 1756   4.135   0.939   5.315 -0.1441  0.4577  0.5861
  443SOL    HW1 1757   4.204   0.919   5.251 -1.6663  0.0121 -0.9982
  443SOL    HW2 1758   4.168   0.905   5.398  1.0468 -0.8031 -0.3643
  444SOL     OW 1759   4.490   4.081   3.420 -0.5147  0.4211 -0.1038
  444SOL    HW1 1760   4.542   4.150   3.463  1.0302 -1.1497  0.6778
  444SOL    HW2 1761   4.460   4.121   3.339  1.6318  1.5607 -0.4235
  445SOL     OW 1762   2.480   4.389   6.077  0.1159  0.0329  0.6249
  445SOL    HW1 1763   2.393   4.371   6.043  0.1797  0.8351 -0.0058
  445SOL    HW2 1764   2.516   4.456   6.018  0.3727  1.2192  2.0484
  446SOL     OW 1765   3.289   5.416   3.742  0.4410  0.0852  0.7846
  446SOL    HW1 1766   3.384   5.407   3.751  0.3429 -1.7326  0.5098
  446SOL    HW2 1767   3.261   5.332   3.705 -1.0170  1.4485 -1.3713
  447SOL     OW 1768   5.581   4.765   6.234  0.0386  0.6241  0.1998
  447SOL    HW1 1769   5.614   4.785   6.146 -1.3999 -1.6049 -0.9526
  447SOL    HW2 1770   5.495   4.807   6.238 -2.0581 -2.9999 -1.4435
  448SOL     OW 1771   4.736   5.564   5.669  0.2527 -0.2203 -0.1438
  448SOL    HW1 1772   4.799   5.493   5.658  0.3730 -0.3416  1.1777
  448SOL    HW2 1773   4.773   5.637   5.619  1.3266 -0.3660  0.4076
  449SOL     OW 1774   1.595   1.274   3.595  0.5447  0.3346  0.0944
  449SOL    HW1 1775   1.659   1.344   3.612  0.8425  0.3700 -1.0672
  449SOL    HW2 1776   1.510   1.318   3.601  0.6745  0.5291  0.5580
  450SOL     OW 1777   1.170   0.631   2.697 -0.3478  0.0333  0.2048
  450SOL    HW1 1778   1.082   0.668   2.694  0.0098  1.0435  1.1918
  450SOL    HW2 1779   1.217   0.688   2.759  0.5060 -1.4975  1.0203
  451SOL     OW 1780   2.423   3.735   0.686  0.0923 -0.1409  0.1298
  451SOL    HW1 1781   2.430   3.675   0.612 -2.3431 -0.8665  0.4256
  451SOL    HW2 1782   2.335   3.770   0.681  1.3154  3.2759  0.1661
  452SOL     OW 1783   4.328   1.231   0.073  0.6466 -0.0260 -0.3746
  452SOL    HW1 1784   4.285   1.316   0.062  1.7083  0.4798 -0.6761
  452SOL    HW2 1785   4.410   1.238   0.025  1.8446 -0.4074  1.5020
  453SOL     OW 1786   3.845   0.979   1.767  0.1417  0.0609 -0.0231
  453SOL    HW1 1787   3.939   1.001   1.767  0.7754 -2.3427  0.0924
  453SOL    HW2 1788   3.826   0.957   1.858 -1.1466  2.5761  0.4000
  454SOL     OW 1789   5.118   2.530   0.199 -0.1452 -0.5853 -0.2497
  454SOL    HW1 1790   5.169   2.557   0.122 -0.2139  0.6524  0.1068
  454SOL    HW2 1791   5.122   2.435   0.199  0.5024 -0.5751 -1.3512
  455SOL     OW 1792   4.741   0.338   2.715 -0.1837  0.4491 -0.2026
  455SOL    HW1 1793   4.684   0.336   2.638  0.4022  1.5328 -0.6957
  455SOL    HW2 1794   4.687   0.302   2.786 -0.0458 -2.5715 -1.5034
  456SOL     OW 1795   3.406   5.426   5.508 -0.1656  0.2906  0.1056
  456SOL    HW1 1796   3.439   5.411   5.420 -0.8763  1.0984 -0.3109
  456SOL    HW2 1797   3.393   5.521   5.513 -1.2911  0.1171  0.6527
  457SOL     OW 1798   1.742   4.524   3.086  0.7506  0.3040 -0.7469
  457SOL    HW1 1799   1.649   4.508   3.071  0.4513  1.1260  0.1665
  457SOL    HW2 1800   1.753   4.516   3.180  1.3526  1.4492 -0.7042
  458SOL     OW 1801   4.118   4.352   0.104  0.5107 -0.1267 -0.0361
  458SOL    HW1 1802   4.168   4.362   0.023  1.4105  1.1431  0.6402
  458SOL    HW2 1803   4.184   4.357   0.174 -0.2000 -1.5410  0.7843
  459SOL     OW 1804   1.697   1.881   1.290 -0.4205 -0.5374 -0.2183
  459SOL    HW1 1805   1.766   1.935   1.251  0.3752 -2.0144 -0.9324
  459SOL    HW2 1806   1.732   1.853   1.374 -0.9437  0.2338  0.2752
  460SOL     OW 1807   5.310   5.674   4.653  0.2519 -0.3231  0.0507
  460SOL    HW1 1808   5.364   5.740   4.612 -0.2207 -0.7476 -1.3062
  460SOL    HW2 1809   5.240   5.723   4.697 -0.0851  0.1010 -0.9262
  461SOL     OW 1810   5.983   5.643   2.434  0.0961 -0.4864  0.1467
  461SOL    HW1 1811   5.938   5.559   2.443 -2.0041  0.6447  0.7706
  461SOL    HW2 1812   6.013   5.663   2.523  3.0446 -1.7660 -0.4316
  462SOL     OW 1813   5.289   3.484   1.979 -0.4182  0.3519  0.5178
  462SOL    HW1 1814   5.288   3.423   2.053 -0.1118 -0.9223 -0.5076
  462SOL    HW2 1815   5.198   3.489   1.951 -0.3897  0.0737  0.3713
  463SOL     OW 1816   3.798   0.549   0.208  0.4516  0.1559 -0.2895
  463SOL    HW1 1817   3.706   0.534   0.227  0.8103  0.4936  2.0142
  463SOL    HW2 1818   3.800   0.578   0.116 -1.6379 -0.3647 -0.5425
  464SOL     OW 1819   1.214   1.811   2.051 -0.3250 -0.0293 -0.5930
  464SOL    HW1 1820   1.142   1.873   2.047  0.1202  0.9222  2.6461
  464SOL    HW2 1821   1.289   1.864   2.081  0.4499 -1.8271  0.8122
  465SOL     OW 1822   4.184   0.674   4.886  0.6540  0.3556  0.2618
  465SOL    HW1 1823   4.262   0.621   4.904  0.5442  0.1695  0.1797
  465SOL    HW2 1824   4.117   0.640   4.945 -0.2099 -1.3564 -1.6228
  466SOL     OW 1825   3.884   3.161   3.752  0.4710 -0.0748 -0.2101
  466SOL    HW1 1826   3.793   3.149   3.781  0.8155 -0.8651  0.6050
  466SOL    HW2 1827   3.892   3.255   3.736 -0.2827  0.1139  0.4491
  467SOL     OW 1828   3.046   3.769   1.198 -0.4511 -0.4620 -0.0581
  467SOL    HW1 1829   3.006   3.855   1.215 -0.4166 -0.5329  0.3925
  467SOL    HW2 1830   2.975   3.717   1.159  0.1137  0.4485 -2.5269
  468SOL     OW 1831   0.123   5.133   4.926  0.0654  0.1073  0.2815
  468SOL    HW1 1832   0.164   5.218   4.916  1.5320 -0.6492 -0.4336
  468SOL    HW2 1833   0.060   5.128   4.854  1.0217  0.0336 -0.5754
  469SOL     OW 1834   5.822   2.166   6.073  0.2314 -0.4125 -0.3736
  469SOL    HW1 1835   5.868   2.231   6.019  0.9559 -3.2435 -3.5257
  469SOL    HW2 1836   5.887   2.138   6.138  0.7503  0.2436 -0.5949
  470SOL     OW 1837   5.576   5.644   3.653  0.3973 -0.0818  0.0394
  470SOL    HW1 1838   5.516   5.718   3.647 -0.9550 -1.2282 -0.9892
  470SOL    HW2 1839   5.523   5.568   3.632  2.1677 -1.1637 -0.6926
  471SOL     OW 1840   5.028   5.003   4.216  0.5361  0.4302 -0.5193
  471SOL    HW1 1841   5.012   5.040   4.130 -0.1228  1.3190 -0.0249
  471SOL    HW2 1842   5.087   5.065   4.258 -0.9875  1.2290  0.5069
  472SOL     OW 1843   3.942   6.078   4.954  0.0364 -0.7387 -0.0253
  472SOL    HW1 1844   3.904   6.120   4.876 -1.2014 -1.7590 -0.0128
  472SOL    HW2 1845   3.978   5.995   4.921  1.4422 -0.2099  0.1386
  473SOL     OW 1846   3.660   5.673   3.723 -0.1023  0.2411 -0.7726
  473SOL    HW1 1847   3.623   5.588   3.698  0.6200 -0.3740  0.1837
  473SOL    HW2 1848   3.714   5.699   3.649 -0.3541 -0.1154 -1.0860
  474SOL     OW 1849   4.896   3.837   2.309 -0.0854 -0.3499 -0.3023
  474SOL    HW1 1850   4.848   3.784   2.244  0.7651 -0.2370 -1.0433
  474SOL    HW2 1851   4.893   3.785   2.389 -1.2878 -0.4290 -0.3698
  475SOL     OW 1852   5.480   0.155   1.073 -0.0921 -0.1917 -0.1662
  475SOL    HW1 1853   5.548   0.199   1.022 -0.7883  0.1374 -0.8365
  475SOL    HW2 1854   5.445   0.088   1.013 -2.6678  1.8510 -1.1320
  476SOL     OW 1855   4.847   4.472   0.934  0.3166 -0.8682 -0.7792
  476SOL    HW1 1856   4.922   4.465   0.993  0.7699 -0.6246 -1.3181
  476SOL    HW2 1857   4.885   4.469   0.847 -0.4065 -1.8415 -1.0754
  477SOL     OW 1858   1.651   0.487   5.095  0.0693 -0.7980  0.2105
  477SOL    HW1 1859   1.706   0.564   5.078 -0.1729 -0.4339  1.0295
  477SOL    HW2 1860   1.577   0.522   5.145  0.3810 -1.7055  1.3298
  478SOL     OW 1861   2.788   3.650   5.991  0.2235 -0.5074 -0.6131
  478SOL    HW1 1862   2.852   3.685   6.052  0.4331  0.3653 -1.3205
  478SOL    HW2 1863   2.837   3.588   5.936  0.3217 -0.3083 -0.7490
  479SOL     OW 1864   1.262   0.596   0.440 -0.1613  0.4071  0.3760
  479SOL    HW1 1865   1.313   0.543   0.379 -1.2570 -0.9532  0.6087
  479SOL    HW2 1866   1.202   0.645   0.383  0.2831  0.7919  0.2256
  480SOL     OW 1867   4.476   4.220   1.669  0.4407 -0.4229  0.0749
  480SOL    HW1 1868   4.497   4.278   1.596  0.7489 -0.1399  0.3843
  480SOL    HW2 1869   4.380   4.224   1.676  0.5275  1.1579  0.9637
  481SOL     OW 1870   5.976   2.496   0.345 -0.0327  0.3563 -0.2532
  481SOL    HW1 1871   5.896   2.490   0.293 -0.0032 -1.1778 -0.1839
  481SOL    HW2 1872   6.033   2.554   0.295 -0.8403  0.7187 -0.7751
  482SOL     OW 1873   1.313   2.145   2.207  0.7196  0.4101  0.2555
  482SOL    HW1 1874   1.298   2.184   2.121 -0.6743  0.9897  0.7482
  482SOL    HW2 1875   1.362   2.065   2.188  2.1387  1.4918 -0.9125
  483SOL     OW 1876   4.064   5.691   2.292  0.6410 -0.1109 -0.5219
  483SOL    HW1 1877   4.107   5.730   2.369  0.8714 -0.5062 -0.4472
  483SOL    HW2 1878   4.043   5.602   2.319 -1.3959  0.4468 -0.1214
  484SOL     OW 1879   4.221   0.415   1.170  0.5118  0.1179  0.2470
  484SOL    HW1 1880   4.196   0.407   1.078 -0.7809  0.6811  0.5313
  484SOL    HW2 1881   4.139   0.404   1.218  1.1816 -0.2274  1.3425
  485SOL     OW 1882   5.993   5.319   0.519 -0.3363 -0.4322 -0.1251
  485SOL    HW1 1883   6.052   5.254   0.557 -0.9291 -0.7061  0.3529
  485SOL    HW2 1884   5.908   5.275   0.514 -0.2330 -0.4706 -1.9878
  486SOL     OW 1885   5.314   0.191   2.855  0.1085  0.1801  0.2057
  486SOL    HW1 1886   5.232   0.232   2.827 -0.3912 -0.5597  0.5391
  486SOL    HW2 1887   5.323   0.115   2.797  1.8830  1.6204 -1.5338
  487SOL     OW 1888   1.692   1.861   3.236 -0.5882  0.3988  0.2732
  487SOL    HW1 1889   1.711   1.767   3.235  2.2687  0.8727 -1.9568
  487SOL    HW2 1890   1.608   1.869   3.190  0.5332 -0.9030 -2.1443
  488SOL     OW 1891   1.632   3.552   4.979 -0.1737  0.4536 -0.1931
  488SOL    HW1 1892   1.616   3.612   5.053  0.4839  0.4905 -0.0774
  488SOL    HW2 1893   1.661   3.471   5.020 -0.3110  0.3044 -0.3909
  489SOL     OW 1894   1.899   0.450   0.357  0.7019 -0.1306  0.6442
  489SOL    HW1 1895   1.805   0.464   0.370  0.9003  1.1243  0.8158
  489SOL    HW2 1896   1.923   0.389   0.427 -0.0214 -0.6142  0.4789
  490SOL     OW 1897   4.076   3.241   1.595  0.3077 -0.0908 -0.2311
  490SOL    HW1 1898   4.016   3.174   1.628  0.7894  0.1662  1.2246
  490SOL    HW2 1899   4.156   3.193   1.574 -0.0546 -0.2812 -1.2592
  491SOL     OW 1900   5.837   2.784   4.524 -0.5062  0.1792 -0.4082
  491SOL    HW1 1901   5.835   2.699   4.568 -1.0738  0.6650  0.5254
  491SOL    HW2 1902   5.748   2.818   4.532 -0.1591  1.1004 -0.2856
  492SOL     OW 1903   2.197   0.171   1.648  0.2357 -0.1291  0.3670
  492SOL    HW1 1904   2.292   0.159   1.654  0.2053 -0.0637  1.0643
  492SOL    HW2 1905   2.161   0.083   1.662  0.2629 -0.8370 -3.1150
  493SOL     OW 1906   1.969   5.668   2.163  0.8335  0.2269 -0.3808
  493SOL    HW1 1907   2.059   5.646   2.188  0.1812 -0.7078  1.3334
  493SOL    HW2 1908   1.956   5.757   2.197  0.3291 -0.6055  1.7605
  494SOL     OW 1909   6.074   1.856   4.135 -0.1278  0.7331  0.0188
  494SOL    HW1 1910   6.125   1.785   4.095 -0.5591 -0.1031  0.9099
  494SOL    HW2 1911   6.111   1.936   4.098 -1.5060  0.0195 -3.2603
  495SOL     OW 1912   0.895   2.358   2.277 -0.6679  0.2011 -0.3149
  495SOL    HW1 1913   0.961   2.305   2.321 -1.5179  0.1859  0.9873
  495SOL    HW2 1914   0.837   2.294   2.235 -1.0474  0.1290  0.3086
  496SOL     OW 1915   0.316   5.066   2.877  0.8827  0.2424 -0.7084
  496SOL    HW1 1916   0.284   4.995   2.932  1.0815  0.3015 -0.5154
  496SOL    HW2 1917   0.389   5.028   2.828  0.6346  0.1581 -1.0151
  497SOL     OW 1918   6.205   5.132   2.603  0.3021 -0.7172  0.0237
  497SOL    HW1 1919   6.156   5.197   2.553  0.2334 -0.6548  0.1681
  497SOL    HW2 1920   6.151   5.118   2.682  1.1238  0.2701  0.7830
  498SOL     OW 1921   3.346   1.560   4.432  0.0506 -0.3670 -0.0992
  498SOL    HW1 1922   3.420   1.607   4.394  0.8659 -1.4595  0.0665
  498SOL    HW2 1923   3.280   1.559   4.363  0.2651  0.4595 -0.3247
  499SOL     OW 1924   3.341   3.428   3.596 -0.1078  0.4439  0.7267
  499SOL    HW1 1925   3.267   3.477   3.631 -0.9450 -0.4493  0.2539
  499SOL    HW2 1926   3.385   3.489   3.537 -1.7931  0.3117 -0.7384
  500SOL     OW 1927   6.192   0.712   5.559 -0.0497 -0.6684 -0.0022
  500SOL    HW1 1928   6.207   0.755   5.475 -0.4584 -0.2021  0.1583
  500SOL    HW2 1929   6.278   0.678   5.584  0.2289 -0.1792 -0.2652
  501SOL     OW 1930   3.666   1.956   0.007 -0.1487  0.1124 -0.0151
  501SOL    HW1 1931   3.693   1.998  -0.074 -0.4979 -1.4018 -0.9531
  501SOL    HW2 1932   3.580   1.919  -0.013 -0.3258 -0.1326  1.1131
  502SOL     OW 1933   0.759   2.707   3.201 -0.3732  0.6046 -0.1033
  502SOL    HW1 1934   0.671   2.721   3.166 -0.4258  0.1574 -0.1554
  502SOL    HW2 1935   0.817   2.751   3.139 -0.5314  0.5744 -0.2725
  503SOL     OW 1936   0.011   6.135   3.720 -0.4815 -0.0389 -0.4871
  503SOL    HW1 1937  -0.050   6.086   3.775 -0.4555 -1.4916 -1.6833
  503SOL    HW2 1938   0.093   6.136   3.769 -1.1925  1.1405  0.7304
  504SOL     OW 1939   2.128   3.351   2.335 -0.3272 -0.0544 -0.0217
  504SOL    HW1 1940   2.183   3.391   2.268  0.2807  0.1425  0.5732
  504SOL    HW2 1941   2.060   3.417   2.353  0.4568  0.5896  0.6916
  505SOL     OW 1942   2.242   0.260   1.125  0.0241  0.2495 -0.4299
  505SOL    HW1 1943   2.170   0.302   1.172  0.8545 -0.5650  1.6849
  505SOL    HW2 1944   2.206   0.241   1.038 -1.9145  0.9192  0.1783
  506SOL     OW 1945   1.104   4.309   5.945 -0.0317  0.1909  0.1115
  506SOL    HW1 1946   1.163   4.353   6.007 -1.2769  1.6238  0.3390
  506SOL    HW2 1947   1.018   4.313   5.987 -0.3946 -1.4083 -0.4421
  507SOL     OW 1948   4.507   2.841   5.975  0.1114  0.7915 -0.1296
  507SOL    HW1 1949   4.437   2.839   6.040 -1.3612  2.3297 -1.5754
  507SOL    HW2 1950   4.514   2.750   5.944  0.9069 -0.0008  2.1214
  508SOL     OW 1951   3.214   3.939   2.791  0.1307 -0.2623 -0.5799
  508SOL    HW1 1952   3.216   3.930   2.695  0.0355  1.1885 -0.7477
  508SOL    HW2 1953   3.298   3.902   2.820 -0.4395 -2.0523 -1.0566
  509SOL     OW 1954   5.780   5.020   5.142 -0.0399 -0.8343 -0.1259
  509SOL    HW1 1955   5.843   4.951   5.124  0.1137 -0.4872 -0.9708
  509SOL    HW2 1956   5.698   4.975   5.162  0.1826 -1.2646 -0.1900
  510SOL     OW 1957   2.330   0.639   5.222 -0.5706 -0.0708  0.0818
  510SOL    HW1 1958   2.418   0.675   5.231 -0.8022  0.1684  1.8502
  510SOL    HW2 1959   2.282   0.704   5.171 -0.5218  1.3444  1.7495
  511SOL     OW 1960   1.740   5.078   3.516  0.3959 -0.1189  0.2746
  511SOL    HW1 1961   1.738   5.078   3.420  0.0136  1.4092  0.2472
  511SOL    HW2 1962   1.715   5.167   3.540  1.6726 -0.1228  1.7759
  512SOL     OW 1963   5.431   3.293   1.176  0.5618 -0.0456 -0.1148
  512SOL    HW1 1964   5.389   3.331   1.099  1.4011 -0.5991 -0.8602
  512SOL    HW2 1965   5.385   3.210   1.190 -1.6073  1.3694  1.8106
  513SOL     OW 1966   6.148   0.062   2.216 -0.2498  0.2180  0.0955
  513SOL    HW1 1967   6.219   0.127   2.225 -0.6600  0.5079  1.4271
  513SOL    HW2 1968   6.068   0.114   2.219 -0.5525 -0.1289 -1.2509
  514SOL     OW 1969   0.847   4.190   1.992 -0.2560  0.2949 -0.2972
  514SOL    HW1 1970   0.920   4.215   2.048 -1.5178 -0.2710  1.7201
  514SOL    HW2 1971   0.867   4.100   1.965 -1.1203 -0.6739  2.0168
  515SOL     OW 1972   4.307   3.016   2.696  0.0614  0.2033  0.1379
  515SOL    HW1 1973   4.328   3.062   2.777  0.7395  2.4218 -1.2145
  515SOL    HW2 1974   4.252   3.077   2.647  1.8695  0.1028 -2.1990
  516SOL     OW 1975   3.878   0.906   3.915  0.0728 -0.3994 -0.2696
  516SOL    HW1 1976   3.819   0.882   3.987 -0.0463  0.3251 -0.1163
  516SOL    HW2 1977   3.839   0.985   3.877  2.3948  1.8454  1.6573
  517SOL     OW 1978   1.694   2.003   5.359 -0.6945  0.6024 -0.8323
  517SOL    HW1 1979   1.790   1.994   5.364 -0.8234 -0.9859 -0.9047
  517SOL    HW2 1980   1.665   1.927   5.310 -2.2025 -0.1025  1.0245
  518SOL     OW 1981   0.549   2.691   3.749  0.1274 -0.0424 -0.2177
  518SOL    HW1 1982   0.570   2.612   3.799 -0.1157  1.0655  1.7575
  518SOL    HW2 1983   0.553   2.664   3.657 -1.3327 -2.6882  0.4053
  519SOL     OW 1984   5.009   0.034   5.161  0.0818 -0.3234 -0.4839
  519SOL    HW1 1985   4.939   0.001   5.217  0.8080  0.7259  1.1040
  519SOL    HW2 1986   5.046   0.108   5.209  1.8638 -0.4433 -1.5694
  520SOL     OW 1987   0.892   2.878   4.731 -0.5759  0.4991 -0.5713
  520SOL    HW1 1988   0.869   2.785   4.729 -1.5122  0.6822  0.4471
  520SOL    HW2 1989   0.985   2.881   4.710 -0.0342 -0.8624  1.3635
  521SOL     OW 1990   3.699   5.102   0.849 -0.4130  1.0337  0.4303
  521SOL    HW1 1991   3.666   5.020   0.887 -0.0160  1.1350  1.0072
  521SOL    HW2 1992   3.734   5.076   0.764 -2.0390  0.9357 -0.2419
  522SOL     OW 1993   1.269   3.368   1.467 -0.8036  0.1492  0.2077
  522SOL    HW1 1994   1.241   3.354   1.557 -1.8135  1.4130  0.1161
  522SOL    HW2 1995   1.305   3.283   1.439 -0.8573 -0.3709  1.6431
  523SOL     OW 1996   3.556   3.336   2.966  0.1041 -0.8222  0.0528
  523SOL    HW1 1997   3.553   3.387   2.885 -0.3413 -0.5537  0.2385
  523SOL    HW2 1998   3.499   3.261   2.949 -0.8663 -0.2068  0.4934
  524SOL     OW 1999   2.999   1.352   3.199 -0.6224  0.4069 -0.1981
  524SOL    HW1 2000   2.926   1.372   3.258 -0.2753  0.3715  0.2524
  524SOL    HW2 2001   3.077   1.380   3.247 -0.3019  0.0072 -0.4737
  525SOL     OW 2002   1.765   3.079   0.821 -0.0864 -0.4562  0.2938
  525SOL    HW1 2003   1.778   3.081   0.727  1.1544  2.1741  0.4200
  525SOL    HW2 2004   1.673   3.056   0.833  0.1176 -2.3713 -1.4542
  526SOL     OW 2005   5.889   3.438   2.712  0.8395 -0.2458  0.2578
  526SOL    HW1 2006   5.920   3.523   2.742 -0.9837  0.9484 -0.9798
  526SOL    HW2 2007   5.968   3.388   2.694  1.9581  0.7756  2.0647
  527SOL     OW 2008   1.780   5.085   2.189  0.2360  0.6674  0.2947
  527SOL    HW1 2009   1.798   5.023   2.260  1.3978  0.3702 -0.2481
  527SOL    HW2 2010   1.807   5.169   2.223  1.1148  0.4727  0.0871
  528SOL     OW 2011   0.652   0.175   2.553 -0.0712 -0.4841 -0.2183
  528SOL    HW1 2012   0.737   0.164   2.596 -1.0735 -0.4620  1.8601
  528SOL    HW2 2013   0.654   0.264   2.518  1.6609 -1.2790 -2.4193
  529SOL     OW 2014   4.231   1.952   0.817 -0.3788  0.4006  0.0007
  529SOL    HW1 2015   4.224   2.047   0.826 -2.0096  0.3423 -0.2023
  529SOL    HW2 2016   4.259   1.921   0.903 -0.2664  1.0263  0.1946
  530SOL     OW 2017   2.019   1.420   4.704 -0.0031 -0.4813  0.3400
  530SOL    HW1 2018   2.025   1.466   4.620  1.0470 -0.8113  0.2259
  530SOL    HW2 2019   1.935   1.448   4.740 -0.3180 -0.0777 -0.6688
  531SOL     OW 2020   4.927   2.234   5.379  0.4533 -0.6440  0.3647
  531SOL    HW1 2021   4.846   2.271   5.413  0.3710 -0.5594  0.0775
  531SOL    HW2 2022   4.986   2.308   5.371  0.2595 -0.5517 -0.2955
  532SOL     OW 2023   3.332   0.297   4.430  0.4109  0.5295 -0.7277
  532SOL    HW1 2024   3.244   0.335   4.420  0.0178 -0.2327 -0.2246
  532SOL    HW2 2025   3.382   0.366   4.473 -0.2871  0.5209  0.1294
  533SOL     OW 2026   0.009   0.637   5.902 -0.1398 -0.4215  0.2585
  533SOL    HW1 2027  -0.038   0.674   5.978 -0.2093 -1.6642  0.8427
  533SOL    HW2 2028  -0.059   0.625   5.836 -0.1821  0.1292  0.1924
  534SOL     OW 2029   1.623   0.031   5.258  0.4120  0.0279 -0.2655
  534SOL    HW1 2030   1.635  -0.040   5.194 -0.7858 -0.8099  0.3955
  534SOL    HW2 2031   1.676   0.103   5.224  1.7489 -1.2123 -0.9054
  535SOL     OW 2032   3.481   0.505   1.008 -0.3291  0.5601  0.1378
  535SOL    HW1 2033   3.451   0.429   0.959  1.3631  1.3446 -2.2934
  535SOL    HW2 2034   3.510   0.469   1.092 -0.9864 -1.2256 -0.3534
  536SOL     OW 2035   0.170   5.280   1.782 -0.6549 -0.2100  0.4792
  536SOL    HW1 2036   0.181   5.351   1.845 -1.5260  0.3491  0.0167
  536SOL    HW2 2037   0.256   5.236   1.780  0.3351  1.6543 -0.2303
  537SOL     OW 2038   4.484   3.261   1.520  0.0783  0.6910  0.0651
  537SOL    HW1 2039   4.461   3.316   1.596  1.5346  0.8240  0.4302
  537SOL    HW2 2040   4.426   3.185   1.528 -0.7467  1.3496  0.5399
  538SOL     OW 2041   1.769   4.002   5.648 -0.5630  0.1479  0.4352
  538SOL    HW1 2042   1.678   4.016   5.625 -0.3684 -0.9503 -1.2285
  538SOL    HW2 2043   1.806   3.956   5.572  1.3267  0.4191  1.1287
  539SOL     OW 2044   0.579   5.513   1.386 -0.5674 -0.0037  0.2012
  539SOL    HW1 2045   0.520   5.483   1.456 -1.0923 -1.4552 -0.8028
  539SOL    HW2 2046   0.523   5.562   1.326 -1.0766 -2.2295 -1.2782
  540SOL     OW 2047   3.826   0.225   3.817 -0.9322  0.0632  0.3644
  540SOL    HW1 2048   3.735   0.220   3.786  0.0719 -0.7391 -2.9425
  540SOL    HW2 2049   3.843   0.139   3.856 -1.3795 -0.0896  0.2251
  541SOL     OW 2050   0.476   5.860   0.690  0.2613 -0.0186  0.4112
  541SOL    HW1 2051   0.503   5.770   0.711  0.3269 -0.0053  0.3842
  541SOL    HW2 2052   0.406   5.879   0.752  1.1752  0.4024  1.3464
  542SOL     OW 2053   1.488   3.890   5.947  0.2378  0.2916  0.0919
  542SOL    HW1 2054   1.430   3.955   5.985  1.0679  0.8249  0.4748
  542SOL    HW2 2055   1.530   3.934   5.873  0.3423  0.0001 -0.0255
  543SOL     OW 2056   0.391   1.836   3.858  0.2044  0.5153  0.1223
  543SOL    HW1 2057   0.411   1.846   3.951  2.7288  1.6135 -0.4382
  543SOL    HW2 2058   0.444   1.762   3.830  0.5071  1.0142 -0.6659
  544SOL     OW 2059   3.309   2.175   0.848 -0.0631 -0.4172  0.2161
  544SOL    HW1 2060   3.397   2.160   0.813  0.0564 -0.3758  0.4926
  544SOL    HW2 2061   3.284   2.261   0.814 -0.1772 -0.6270 -0.2252
  545SOL     OW 2062   1.907   2.311   1.934  0.2517  0.0529  0.3357
  545SOL    HW1 2063   1.944   2.300   2.021 -1.5720 -1.1744  1.0312
  545SOL    HW2 2064   1.887   2.405   1.928  0.4115  0.1569  1.2449
  546SOL     OW 2065   3.388   1.159   1.740  0.1069 -0.1555 -0.9581
  546SOL    HW1 2066   3.356   1.244   1.709 -0.6896  0.0448  0.3764
  546SOL    HW2 2067   3.480   1.174   1.761  0.1148  0.2278 -1.2659
  547SOL     OW 2068   2.986   0.148   3.582 -0.0297 -0.0316 -0.0185
  547SOL    HW1 2069   2.962   0.230   3.626  0.3927  0.1829 -0.1817
  547SOL    HW2 2070   2.952   0.159   3.493 -0.9041 -0.4743  0.2492
  548SOL     OW 2071   5.621   4.786   5.984 -0.2736  0.6811 -0.3124
  548SOL    HW1 2072   5.552   4.727   5.956  0.4767 -0.7689  0.8105
  548SOL    HW2 2073   5.639   4.839   5.906 -0.5947 -0.9145 -1.5232
  549SOL     OW 2074   6.213   2.737   4.498  0.1136  0.3433 -0.2160
  549SOL    HW1 2075   6.280   2.702   4.439 -2.1747 -1.3855 -1.9559
  549SOL    HW2 2076   6.143   2.767   4.441 -0.8775  1.5777  1.5552
  550SOL     OW 2077   1.812   3.404   3.147 -0.1077 -0.2778 -0.3182
  550SOL    HW1 2078   1.753   3.333   3.124 -0.0363  0.0366 -1.5293
  550SOL    HW2 2079   1.788   3.427   3.237  0.4425 -2.3805  0.4169
  551SOL     OW 2080   1.305   0.742   1.466 -0.3483  0.2297 -0.4847
  551SOL    HW1 2081   1.293   0.649   1.486  0.0168  0.1252 -0.7441
  551SOL    HW2 2082   1.257   0.788   1.535  1.7836 -0.0773  1.2941
  552SOL     OW 2083   1.005   4.301   2.391 -0.6787 -0.1969  0.2066
  552SOL    HW1 2084   1.061   4.238   2.435 -0.1536 -0.2631 -0.5470
  552SOL    HW2 2085   0.918   4.261   2.393 -0.6469 -0.2456  1.0754
  553SOL     OW 2086   4.303   3.018   0.301  0.1721  0.0163 -0.2270
  553SOL    HW1 2087   4.233   3.081   0.287 -0.4946 -0.4739  0.7398
  553SOL    HW2 2088   4.279   2.974   0.383  0.0916 -2.1475 -1.3347
  554SOL     OW 2089   6.221   3.738   5.901 -0.2728 -0.4571 -0.0968
  554SOL    HW1 2090   6.307   3.777   5.883  0.0071 -0.5533  0.9682
  554SOL    HW2 2091   6.206   3.680   5.827 -0.0679  0.6261 -1.0115
  555SOL     OW 2092   2.155   1.870   3.945  0.0945 -0.2910 -0.2898
  555SOL    HW1 2093   2.136   1.952   3.991  0.8557 -0.3669  0.1737
  555SOL    HW2 2094   2.070   1.825   3.941 -0.4545  0.7699 -1.0821
  556SOL     OW 2095   2.499   2.464   1.229 -0.2119 -0.3337 -0.1537
  556SOL    HW1 2096   2.468   2.483   1.140  1.0489  0.8763 -0.3689
  556SOL    HW2 2097   2.593   2.453   1.219 -0.4169 -3.6637  0.5098
  557SOL     OW 2098   1.436   0.923   2.550  0.5517  0.4160 -0.0204
  557SOL    HW1 2099   1.495   0.934   2.625  1.7762 -0.0697 -0.8762
  557SOL    HW2 2100   1.465   0.989   2.487  1.6334 -1.2188 -1.3192
  558SOL     OW 2101   5.087   3.840   1.951  0.6375 -0.2070 -0.3077
  558SOL    HW1 2102   5.155   3.907   1.941 -0.0398  1.2656  3.2232
  558SOL    HW2 2103   5.015   3.885   1.994 -1.3180 -2.4703 -0.9929
  559SOL     OW 2104   2.901   2.148   2.055 -0.4265 -0.7332  0.0411
  559SOL    HW1 2105   2.878   2.095   2.131 -0.5633  0.3244  0.7692
  559SOL    HW2 2106   2.851   2.229   2.067  0.6671  0.0365 -0.3980
  560SOL     OW 2107   2.623   5.032   0.494 -0.1765 -0.6986  0.1434
  560SOL    HW1 2108   2.707   4.986   0.499  0.2910 -0.1698 -2.0409
  560SOL    HW2 2109   2.558   4.966   0.518  0.8102 -1.1283  1.8385
  561SOL     OW 2110   4.100   2.239   2.447  0.3998  0.0758  0.0206
  561SOL    HW1 2111   4.059   2.154   2.437  1.1547 -0.1238 -1.8825
  561SOL    HW2 2112   4.179   2.234   2.393  0.3492  2.0336 -0.3210
  562SOL     OW 2113   1.448   3.939   5.319 -0.2765  0.2316 -0.2052
  562SOL    HW1 2114   1.535   3.978   5.328 -0.5448  0.5279  1.5608
  562SOL    HW2 2115   1.394   4.008   5.280  0.3624 -0.1145 -1.7490
  563SOL     OW 2116   3.478   6.218   5.421 -0.1375  0.0198  0.2703
  563SOL    HW1 2117   3.444   6.217   5.331 -0.5944 -0.8072  0.4330
  563SOL    HW2 2118   3.567   6.185   5.413  0.0753  0.6440  0.0347
  564SOL     OW 2119   0.607   3.324   3.030 -0.2575  0.2922  0.5793
  564SOL    HW1 2120   0.601   3.229   3.035 -0.6221  0.0252 -2.7064
  564SOL    HW2 2121   0.517   3.354   3.038 -0.1360  0.3882  1.6752
  565SOL     OW 2122   2.907   5.762   0.157  0.5859  0.4224 -0.4909
  565SOL    HW1 2123   2.900   5.701   0.085  0.0468 -0.7854  0.5467
  565SOL    HW2 2124   2.817   5.791   0.173  0.5890  0.0952  0.1674
  566SOL     OW 2125   1.389   0.409   4.695 -0.5871  0.0831  0.1926
  566SOL    HW1 2126   1.457   0.356   4.737  0.7840  1.0010 -0.7752
  566SOL    HW2 2127   1.400   0.391   4.601 -2.5387 -0.7253  0.0717
  567SOL     OW 2128   3.880   1.406   0.653  0.5522  0.7634  0.0803
  567SOL    HW1 2129   3.921   1.325   0.682 -1.3244 -0.6542 -1.0035
  567SOL    HW2 2130   3.901   1.469   0.722  1.4479 -0.8228  1.3400
  568SOL     OW 2131   5.061   0.247   5.373 -0.3314 -0.8777 -0.1998
  568SOL    HW1 2132   5.062   0.163   5.419  1.4885 -1.4815 -1.2565
  568SOL    HW2 2133   5.099   0.309   5.435 -1.0545 -0.9628  0.3367
  569SOL     OW 2134   3.723   0.163   0.847  0.1143 -0.2671 -0.2729
  569SOL    HW1 2135   3.682   0.187   0.930  0.0859  0.9768 -0.6378
  569SOL    HW2 2136   3.811   0.201   0.852 -1.2560  3.6662 -2.5203
  570SOL     OW 2137   1.208   2.011   3.897  0.0115  0.0898  0.0718
  570SOL    HW1 2138   1.213   1.999   3.802 -1.3890  0.6651 -0.0943
  570SOL    HW2 2139   1.284   1.963   3.931 -0.1572 -1.1890 -1.2478
  571SOL     OW 2140   2.699   4.488   0.031 -0.8230  0.5876 -0.7019
  571SOL    HW1 2141   2.628   4.425   0.028 -0.5666  0.0724  1.6370
  571SOL    HW2 2142   2.656   4.573   0.026 -1.4057  0.2592 -1.3734
  572SOL     OW 2143   3.983   1.574   0.842 -0.6298  0.1769 -0.2292
  572SOL    HW1 2144   4.033   1.518   0.902  0.9643  0.4164 -1.2532
  572SOL    HW2 2145   3.929   1.628   0.898  1.0854  0.6533  1.0528
  573SOL     OW 2146   5.915   3.044   4.732  0.2487  0.0473 -0.5415
  573SOL    HW1 2147   5.948   2.960   4.700  0.1294 -0.5236  0.7511
  573SOL    HW2 2148   5.948   3.049   4.822 -1.6132  0.3113  0.1714
  574SOL     OW 2149   3.612   1.188   4.739  0.1093  0.4754  0.6614
  574SOL    HW1 2150   3.551   1.240   4.686  1.6843 -0.2111 -2.0449
  574SOL    HW2 2151   3.698   1.213   4.706  1.0548 -1.8084  1.2471
  575SOL     OW 2152   5.554   1.044   4.482 -0.1835  0.4904 -0.2067
  575SOL    HW1 2153   5.547   0.979   4.413 -0.0419  0.8729 -0.5835
  575SOL    HW2 2154   5.505   1.007   4.555 -1.5618  0.7256 -0.9862
  576SOL     OW 2155   2.546   2.200   4.538  0.3448 -0.5224 -0.3323
  576SOL    HW1 2156   2.527   2.236   4.625 -0.4536 -0.1636 -0.6521
  576SOL    HW2 2157   2.461   2.188   4.497  0.6938 -1.1784 -0.8791
  577SOL     OW 2158   0.827   2.320   1.926  0.0028  0.0426 -0.1829
  577SOL    HW1 2159   0.823   2.296   2.019  0.8878 -0.6245 -0.3067
  577SOL    HW2 2160   0.737   2.310   1.895 -0.5962  1.5973  0.9043
  578SOL     OW 2161   3.827   1.748   3.282 -0.1967 -0.0826 -0.0508
  578SOL    HW1 2162   3.902   1.807   3.282 -1.5687  1.7909 -0.5779
  578SOL    HW2 2163   3.805   1.737   3.190 -0.3233 -0.9531  0.0778
  579SOL     OW 2164   2.795   1.980   3.029 -0.8976  0.1446  0.3378
  579SOL    HW1 2165   2.764   2.032   3.103 -0.4535 -0.8222  1.2179
  579SOL    HW2 2166   2.841   2.043   2.973 -1.6092  0.9637  0.6545
  580SOL     OW 2167   6.164   3.898   3.067 -0.1154  0.0773  0.0082
  580SOL    HW1 2168   6.164   3.806   3.042 -0.1984  0.4674 -1.5336
  580SOL    HW2 2169   6.244   3.909   3.119  0.1427 -0.7655 -0.1971
  581SOL     OW 2170   0.618   5.762   3.513 -0.4418  0.2165  0.4729
  581SOL    HW1 2171   0.710   5.755   3.541 -0.4991  0.2138  0.6648
  581SOL    HW2 2172   0.620   5.827   3.443 -0.3102  0.3084  0.5605
  582SOL     OW 2173   1.614   5.601   1.001 -0.2794  0.9847 -0.0563
  582SOL    HW1 2174   1.532   5.564   0.969 -0.7698  0.8110  1.3138
  582SOL    HW2 2175   1.604   5.695   0.990 -0.5001  0.9363 -0.2744
  583SOL     OW 2176   3.143   3.104   2.273 -0.3393 -0.1332 -0.5588
  583SOL    HW1 2177   3.216   3.043   2.289 -0.1762  0.4742  1.1893
  583SOL    HW2 2178   3.163   3.144   2.188  0.6136 -1.0068 -0.7661
  584SOL     OW 2179   6.148   1.577   4.307  0.3658 -0.4120 -0.0737
  584SOL    HW1 2180   6.101   1.507   4.351 -0.0101  0.9466  1.8359
  584SOL    HW2 2181   6.238   1.570   4.338 -0.0698  1.0536  1.7214
  585SOL     OW 2182   3.966   4.703   3.396 -0.0377  0.5889  0.2485
  585SOL    HW1 2183   3.980   4.721   3.303 -0.6366  0.8605  0.2077
  585SOL    HW2 2184   4.014   4.622   3.412 -0.6928  0.0307 -0.5185
  586SOL     OW 2185   4.516   5.090   0.203  0.5357 -0.5508  0.1989
  586SOL    HW1 2186   4.497   5.066   0.113 -0.7234  1.0458 -0.0131
  586SOL    HW2 2187   4.610   5.108   0.204  0.7888 -1.7602 -0.4829
  587SOL     OW 2188   5.693   5.809   6.133  0.3822 -0.6548 -0.1798
  587SOL    HW1 2189   5.726   5.844   6.216  2.0525 -2.1520 -0.1378
  587SOL    HW2 2190   5.676   5.716   6.151  1.3125 -1.1442 -1.6403
  588SOL     OW 2191   4.367   5.840   5.093  0.0994 -0.2527  0.0798
  588SOL    HW1 2192   4.403   5.751   5.096 -0.9168 -0.6690  2.0465
  588SOL    HW2 2193   4.364   5.868   5.185 -2.2144  0.6877 -0.1950
  589SOL     OW 2194   3.410   3.574   6.070  0.5465 -0.0220  0.0429
  589SOL    HW1 2195   3.472   3.507   6.042  0.2482  0.5262 -2.0675
  589SOL    HW2 2196   3.462   3.636   6.121  2.4357  1.6774 -3.5576
  590SOL     OW 2197   6.169   0.577   4.088 -0.3552  0.3685 -0.3239
  590SOL    HW1 2198   6.209   0.573   4.001 -0.2877 -1.3115 -0.2485
  590SOL    HW2 2199   6.241   0.593   4.148  0.0252 -1.1313 -0.3411
  591SOL     OW 2200   1.965   4.736   4.645  0.3188 -0.0631 -0.2784
  591SOL    HW1 2201   1.951   4.654   4.691 -1.1622  0.7105  0.7236
  591SOL    HW2 2202   1.879   4.778   4.643  1.2956  2.1432  0.5756
  592SOL     OW 2203   5.740   3.545   6.193  0.1858 -0.1292 -0.0175
  592SOL    HW1 2204   5.667   3.602   6.219  0.9406  0.1238  1.6512
  592SOL    HW2 2205   5.735   3.542   6.097 -0.4847  1.9250 -0.0839
  593SOL     OW 2206   2.760   3.864   4.942  0.3214  0.4338 -0.1454
  593SOL    HW1 2207   2.816   3.895   5.013 -0.5636 -0.6287  1.0539
  593SOL    HW2 2208   2.701   3.802   4.983 -0.2909 -0.1392 -1.8065
  594SOL     OW 2209   0.221   4.167   1.113  0.2315  0.1975  0.0436
  594SOL    HW1 2210   0.307   4.166   1.070  0.1234 -0.1128 -0.1721
  594SOL    HW2 2211   0.176   4.241   1.073  0.6335  0.7764  0.6373
  595SOL     OW 2212   4.076   6.055   2.044 -0.0643 -0.2672 -0.1488
  595SOL    HW1 2213   4.163   6.016   2.032 -0.7677 -2.0579  0.1859
  595SOL    HW2 2214   4.021   6.012   1.979 -0.6192  1.2285 -0.7114
  596SOL     OW 2215   1.480   3.168   0.532  0.8821 -0.6506 -0.2155
  596SOL    HW1 2216   1.407   3.120   0.572  0.5914 -0.6080 -0.6909
  596SOL    HW2 2217   1.529   3.101   0.484  0.7393 -0.5527 -0.4982
  597SOL     OW 2218   0.728   5.405   3.658 -0.2837 -0.0745  0.1429
  597SOL    HW1 2219   0.733   5.440   3.569  0.8174  0.1643  0.2809
  597SOL    HW2 2220   0.708   5.480   3.713 -0.0762 -0.0578  0.1960
  598SOL     OW 2221   4.263   3.648   4.324 -0.1527 -0.3245  0.0485
  598SOL    HW1 2222   4.294   3.689   4.405 -1.5202  0.5209  0.1618
  598SOL    HW2 2223   4.199   3.710   4.288  0.4660 -0.6536 -1.7235
  599SOL     OW 2224   0.962   4.735   4.321 -0.7193 -0.2949 -0.2109
  599SOL    HW1 2225   1.016   4.723   4.243 -1.6934  2.7806 -1.5329
  599SOL    HW2 2226   0.872   4.737   4.287 -1.1673  1.0444  0.9388
  600SOL     OW 2227   0.916   1.820   2.704  1.1664 -0.0589  0.4160
  600SOL    HW1 2228   0.879   1.820   2.792 -1.0815  3.6176 -0.3183
  600SOL    HW2 2229   0.908   1.729   2.675 -0.6792 -0.8256  2.9530
  601SOL     OW 2230   0.115   1.209   1.891 -0.3187 -0.1934 -0.1059
  601SOL    HW1 2231   0.119   1.258   1.973 -0.4664  0.5598 -0.5425
  601SOL    HW2 2232   0.143   1.272   1.824 -0.6495 -0.6644 -0.6938
  602SOL     OW 2233   0.570   3.767   5.433 -0.3605 -0.3062 -0.8198
  602SOL    HW1 2234   0.612   3.851   5.418 -0.1308 -0.5132 -1.3391
  602SOL    HW2 2235   0.563   3.761   5.528 -1.5404  0.8683 -0.8068
  603SOL     OW 2236   4.976   1.036   4.450  0.7100 -0.1318  0.3715
  603SOL    HW1 2237   4.895   1.003   4.412  0.5921 -0.8894  1.2504
  603SOL    HW2 2238   4.954   1.053   4.542  1.3160  0.4836  0.4067
  604SOL     OW 2239   5.308   0.685   3.155 -0.6820  0.4476  0.0544
  604SOL    HW1 2240   5.265   0.601   3.168  1.7714 -0.6804  1.5664
  604SOL    HW2 2241   5.358   0.675   3.074  1.2260 -0.3947  1.2519
  605SOL     OW 2242   5.079   5.977   1.657  0.4131  0.1877  0.1436
  605SOL    HW1 2243   5.023   5.899   1.667  0.9578 -0.0884  1.2226
  605SOL    HW2 2244   5.157   5.944   1.612 -0.4393  0.6599 -1.7530
  606SOL     OW 2245   4.066   2.370   0.322 -0.1775 -0.0425 -0.0414
  606SOL    HW1 2246   4.152   2.363   0.363  0.1136 -3.0477 -0.9476
  606SOL    HW2 2247   4.045   2.281   0.294 -2.1646  1.1124 -2.7149
  607SOL     OW 2248   5.719   1.760   1.778  0.4471  0.6942  0.2636
  607SOL    HW1 2249   5.702   1.851   1.757  1.5481  1.1380  1.1932
  607SOL    HW2 2250   5.812   1.748   1.760 -0.2709 -1.1718 -3.0208
  608SOL     OW 2251   3.933   1.588   1.817  0.2193  0.0327 -0.2078
  608SOL    HW1 2252   4.005   1.648   1.838 -0.0971 -0.2451  1.9098
  608SOL    HW2 2253   3.934   1.524   1.888 -2.8117  0.6750  0.5670
  609SOL     OW 2254   0.129   1.036   1.068  0.5397  0.0258  0.5223
  609SOL    HW1 2255   0.153   0.970   1.133  0.3963 -0.6310 -0.0750
  609SOL    HW2 2256   0.196   1.029   1.000  0.0764 -0.0691  0.0659
  610SOL     OW 2257   2.403   1.207   3.443 -0.3497 -0.0805  0.2357
  610SOL    HW1 2258   2.365   1.157   3.371  1.4372  1.1040 -1.6476
  610SOL    HW2 2259   2.361   1.293   3.436  3.2286  1.7264 -2.7605
  611SOL     OW 2260   1.076   0.028   0.503 -0.2077 -0.5522  0.0845
  611SOL    HW1 2261   1.118   0.061   0.582 -1.0663 -2.4861  1.4298
  611SOL    HW2 2262   1.144  -0.023   0.459 -0.5916 -2.3072  1.4080
  612SOL     OW 2263   2.300   3.807   1.607  0.7534  0.2879 -0.4249
  612SOL    HW1 2264   2.257   3.804   1.522 -0.4485  0.8458  0.1302
  612SOL    HW2 2265   2.234   3.845   1.665  1.2434 -0.8339  0.9279
  613SOL     OW 2266   4.584   0.005   2.713 -0.6928  0.2329  0.0864
  613SOL    HW1 2267   4.679  -0.003   2.717 -0.4496  2.2490 -0.8061
  613SOL    HW2 2268   4.555  -0.014   2.803  0.5190 -0.3699  0.3777
  614SOL     OW 2269   2.047   6.132   0.325  0.0339  0.3947 -0.3513
  614SOL    HW1 2270   2.035   6.190   0.251 -2.6271 -0.8954 -1.0590
  614SOL    HW2 2271   1.990   6.168   0.394  1.4449  0.8252  0.6286
  615SOL     OW 2272   3.965   4.512   1.600 -0.2649 -0.5853 -1.1335
  615SOL    HW1 2273   3.964   4.607   1.590 -0.4788 -0.3216  1.0346
  615SOL    HW2 2274   4.053   4.492   1.632 -1.1343 -0.6993  1.4169
  616SOL     OW 2275   6.068   2.261   0.483 -0.0147  0.7280  0.2861
  616SOL    HW1 2276   6.152   2.255   0.438 -0.3770  1.4337 -0.4937
  616SOL    HW2 2277   6.016   2.322   0.431 -1.9481 -1.5861 -0.7123
  617SOL     OW 2278   3.886   2.012   3.695  0.2416 -0.1875  0.3007
  617SOL    HW1 2279   3.941   1.957   3.640 -1.0182  0.5492 -1.7886
  617SOL    HW2 2280   3.943   2.086   3.719  0.4254  0.2107 -1.2343
  618SOL     OW 2281   4.912   3.035   1.257 -0.5386 -0.0025  0.1608
  618SOL    HW1 2282   4.950   3.010   1.341  0.6386 -3.6466 -1.2921
  618SOL    HW2 2283   4.819   3.052   1.278 -0.0181  0.5878  2.3362
  619SOL     OW 2284   1.251   0.083   2.448 -0.4537 -0.0512  0.2404
  619SOL    HW1 2285   1.344   0.091   2.427 -0.5425  0.7368  0.1328
  619SOL    HW2 2286   1.213   0.036   2.374 -0.2763  0.3172 -0.0879
  620SOL     OW 2287   1.016   1.398   1.453  0.3158  0.4916  0.6348
  620SOL    HW1 2288   0.936   1.368   1.495  0.4148  0.9999  1.2003
  620SOL    HW2 2289   1.039   1.328   1.392 -1.2281  0.8750 -0.4359
  621SOL     OW 2290   5.969   1.362   5.379 -0.2967  0.5357  1.0324
  621SOL    HW1 2291   5.948   1.355   5.472  2.7650 -0.5733  1.7762
  621SOL    HW2 2292   6.046   1.419   5.377 -1.1376  1.6835 -1.0155
  622SOL     OW 2293   5.589   2.698   1.350 -0.0821  0.1876 -0.4858
  622SOL    HW1 2294   5.636   2.777   1.324  0.0297  0.2337 -0.1505
  622SOL    HW2 2295   5.582   2.646   1.270 -1.2923  1.1050 -1.0020
  623SOL     OW 2296   1.340   6.178   1.833 -0.0442  0.6164 -0.1348
  623SOL    HW1 2297   1.429   6.175   1.868 -0.8029  2.0722  2.1829
  623SOL    HW2 2298   1.320   6.087   1.811  1.4449  0.0086  0.8623
  624SOL     OW 2299   2.312   2.202   3.706  0.2334  0.2412 -0.2003
  624SOL    HW1 2300   2.341   2.269   3.644  1.1089  0.6277  0.6038
  624SOL    HW2 2301   2.259   2.250   3.770 -1.0064 -0.2216 -0.8334
  625SOL     OW 2302   1.796   6.119   6.015  0.1398 -0.1201  0.2067
  625SOL    HW1 2303   1.862   6.136   5.947 -1.3368 -1.5564 -1.7139
  625SOL    HW2 2304   1.837   6.054   6.072 -0.0344 -2.1169 -1.8062
  626SOL     OW 2305   4.767   5.159   3.023 -0.0119  0.1923 -0.4635
  626SOL    HW1 2306   4.671   5.150   3.020 -0.4058  2.7073  1.2036
  626SOL    HW2 2307   4.793   5.172   2.932 -1.3684  0.3317 -0.8573
  627SOL     OW 2308   1.626   6.084   1.958 -0.2103 -0.0732  0.3369
  627SOL    HW1 2309   1.666   6.064   1.873  0.0545  0.9037  0.2187
  627SOL    HW2 2310   1.605   5.999   1.995  0.0230 -0.5273 -0.5446
  628SOL     OW 2311   1.935   2.918   3.547 -0.0671  0.1378 -0.6824
  628SOL    HW1 2312   1.933   2.922   3.642  3.0205  0.1720 -0.4991
  628SOL    HW2 2313   2.015   2.869   3.527 -0.1785  0.8567 -3.2390
  629SOL     OW 2314   6.092   4.709   0.425 -0.2961 -0.3192 -0.3912
  629SOL    HW1 2315   6.100   4.679   0.515 -1.8634  0.4750  0.0595
  629SOL    HW2 2316   6.148   4.786   0.420  0.6004 -0.9662 -0.4023
  630SOL     OW 2317   5.454   0.994   0.017  0.2749 -0.0213  0.1057
  630SOL    HW1 2318   5.426   1.005   0.108  1.1344 -2.1084  0.6646
  630SOL    HW2 2319   5.401   1.058  -0.032 -0.6778  0.6820  1.9548
  631SOL     OW 2320   0.920   5.609   0.643  0.0513  0.6098 -0.6701
  631SOL    HW1 2321   0.850   5.554   0.678  1.3622  0.1671  1.3931
  631SOL    HW2 2322   0.975   5.631   0.718  1.1889  2.3854 -1.9242
  632SOL     OW 2323   0.658   4.867   0.139 -0.1156  0.1853  0.4926
  632SOL    HW1 2324   0.644   4.790   0.084 -0.7279  0.7537 -0.1652
  632SOL    HW2 2325   0.729   4.841   0.198 -1.1565 -1.3187  1.1294
  633SOL     OW 2326   4.447   0.109   5.902  0.2443  0.2159 -0.0470
  633SOL    HW1 2327   4.540   0.118   5.879  0.5033 -1.2071  0.3570
  633SOL    HW2 2328   4.447   0.056   5.982 -0.9189  0.0425 -0.1487
  634SOL     OW 2329   5.388   3.770   2.855 -0.2121 -0.8798  0.1181
  634SOL    HW1 2330   5.307   3.755   2.808 -0.0934 -1.2552  0.0300
  634SOL    HW2 2331   5.392   3.700   2.920 -1.0463  0.3934  1.6191
  635SOL     OW 2332   5.926   2.250   4.376  0.1118 -0.4450  0.3425
  635SOL    HW1 2333   5.956   2.278   4.463 -0.2671 -1.4047  0.7958
  635SOL    HW2 2334   6.004   2.257   4.321 -0.2516  2.9514  0.0037
  636SOL     OW 2335   2.925   3.353   1.686 -0.1732 -0.3513  0.4603
  636SOL    HW1 2336   2.833   3.328   1.688 -0.4866  0.7400  0.5415
  636SOL    HW2 2337   2.964   3.308   1.761 -1.0669  0.6751  1.5758
  637SOL     OW 2338   0.382   4.630   3.906 -0.3461  0.2051 -0.0505
  637SOL    HW1 2339   0.434   4.551   3.888 -2.0963 -0.9688 -0.2934
  637SOL    HW2 2340   0.307   4.621   3.847 -1.0639  1.5819  0.6310
  638SOL     OW 2341   1.078   3.832   2.703 -0.4201 -0.3685 -0.0558
  638SOL    HW1 2342   1.089   3.837   2.608 -1.1599 -1.6463 -0.2390
  638SOL    HW2 2343   0.993   3.873   2.720  0.5212  1.5254  0.3004
  639SOL     OW 2344   0.844   0.922   2.785 -0.2955  0.5009  0.1926
  639SOL    HW1 2345   0.754   0.894   2.802  0.6205 -2.6719  0.3926
  639SOL    HW2 2346   0.856   0.910   2.691  0.3169 -0.5308  0.3868
  640SOL     OW 2347   5.631   2.076   5.216  0.8797 -0.8695  0.3201
  640SOL    HW1 2348   5.656   2.169   5.216  0.4730 -0.7566 -0.3722
  640SOL    HW2 2349   5.604   2.059   5.306  0.7959 -0.2724  0.4133
  641SOL     OW 2350   5.005   5.005   2.412  0.1164 -0.2627 -0.0710
  641SOL    HW1 2351   5.028   4.956   2.491  0.0854  0.0506  0.1356
  641SOL    HW2 2352   4.941   5.070   2.442  0.5353  0.2315 -0.2409
  642SOL     OW 2353   3.179   5.923   1.339  0.0241  0.5067  0.9746
  642SOL    HW1 2354   3.246   5.959   1.396  1.6065 -0.8850  0.0784
  642SOL    HW2 2355   3.191   5.969   1.256  1.5930 -1.4429  0.0422
  643SOL     OW 2356   5.119   5.605   4.315 -0.1062 -0.1250  0.0651
  643SOL    HW1 2357   5.040   5.555   4.337 -0.1026  0.4726  1.6007
  643SOL    HW2 2358   5.191   5.543   4.326 -0.3434 -0.6538 -1.2747
  644SOL     OW 2359   3.104   6.102   1.579 -0.4947  0.4109  0.6638
  644SOL    HW1 2360   3.078   6.044   1.650  0.3764 -0.8586 -0.0014
  644SOL    HW2 2361   3.193   6.130   1.602 -0.5213  0.6440  0.4862
  645SOL     OW 2362   4.085   1.987   2.286 -0.4307  0.2720 -0.3455
  645SOL    HW1 2363   4.023   1.952   2.222  0.2991  0.5763 -1.2406
  645SOL    HW2 2364   4.171   1.959   2.253 -0.1100 -0.6965  1.2116
  646SOL     OW 2365   3.374   2.751   4.496  0.3747  0.0574 -0.0849
  646SOL    HW1 2366   3.361   2.673   4.550 -0.3673  1.0059  1.1563
  646SOL    HW2 2367   3.427   2.809   4.550 -1.3535  1.5005  0.1541
  647SOL     OW 2368   2.856   0.620   1.011  0.3720 -0.0761  0.1675
  647SOL    HW1 2369   2.932   0.663   0.972 -0.7712  0.2603 -1.7866
  647SOL    HW2 2370   2.810   0.689   1.058 -0.2856  0.4103 -1.1425
  648SOL     OW 2371   5.845   3.440   4.674  0.0822  0.0743  0.5049
  648SOL    HW1 2372   5.936   3.424   4.649 -0.2624  0.7766 -1.3141
  648SOL    HW2 2373   5.793   3.412   4.599 -1.1217  0.8897  0.9989
  649SOL     OW 2374   0.805   1.598   5.038 -0.3073 -0.4059  0.5474
  649SOL    HW1 2375   0.747   1.536   4.994  0.1606 -0.3035 -0.2285
  649SOL    HW2 2376   0.752   1.677   5.048 -0.1370 -0.1051 -0.7044
  650SOL     OW 2377   2.857   2.625   2.555  0.6960 -0.3082 -0.3577
  650SOL    HW1 2378   2.825   2.540   2.526 -1.4058 -0.5402  2.2310
  650SOL    HW2 2379   2.809   2.688   2.502 -0.9604 -0.7420  0.5547
  651SOL     OW 2380   1.957   3.534   2.391  0.1863  0.1925 -0.4065
  651SOL    HW1 2381   1.983   3.591   2.319  0.9931  0.8836  0.4237
  651SOL    HW2 2382   1.956   3.590   2.468 -0.4399 -0.5908  0.1827
  652SOL     OW 2383   6.146   2.507   5.403  1.0995  0.1435  0.9539
  652SOL    HW1 2384   6.205   2.524   5.330 -1.0694 -1.2198 -1.2916
  652SOL    HW2 2385   6.143   2.412   5.409 -1.0835  0.1401  0.6997
  653SOL     OW 2386   3.764   4.269   5.129 -0.2832 -0.1776  0.0473
  653SOL    HW1 2387   3.824   4.278   5.203 -0.8202 -1.1537  0.6228
  653SOL    HW2 2388   3.679   4.296   5.163 -0.2904  0.6622 -0.6062
  654SOL     OW 2389   0.716   0.274   4.124  0.0226  0.2017  0.1742
  654SOL    HW1 2390   0.790   0.214   4.124 -0.3080 -0.2477  2.0667
  654SOL    HW2 2391   0.710   0.306   4.214 -0.9836  1.6303 -0.3509
  655SOL     OW 2392   2.257   3.804   0.414 -0.3453 -0.1787  0.0778
  655SOL    HW1 2393   2.280   3.726   0.365 -2.3613  0.6860 -2.4475
  655SOL    HW2 2394   2.318   3.871   0.384 -1.1074  0.1612 -0.7704
  656SOL     OW 2395   4.534   5.621   6.190  0.1021 -0.0729  0.2858
  656SOL    HW1 2396   4.497   5.537   6.216  0.5152 -0.2333  0.3633
  656SOL    HW2 2397   4.627   5.614   6.211  0.4339 -0.1703 -1.1341
  657SOL     OW 2398   1.777   4.402   2.699  0.1536  0.0031  0.2376
  657SOL    HW1 2399   1.779   4.343   2.774  0.2782  1.6888  1.6217
  657SOL    HW2 2400   1.868   4.424   2.682  0.2407 -1.3021 -1.2410
  658SOL     OW 2401   5.657   0.017   4.418  0.2877 -0.1825 -0.0564
  658SOL    HW1 2402   5.645  -0.024   4.503 -0.6239 -1.1967 -0.6499
  658SOL    HW2 2403   5.611  -0.040   4.356  1.0007  0.4787 -1.2495
  659SOL     OW 2404   1.955   1.218   3.233 -0.1463 -0.1030  0.1948
  659SOL    HW1 2405   1.881   1.232   3.174  1.4683 -1.3025 -2.2726
  659SOL    HW2 2406   1.989   1.306   3.250 -1.8857  0.4332  1.1183
  660SOL     OW 2407   1.173   6.188   5.315 -0.7601  0.4898 -0.6274
  660SOL    HW1 2408   1.105   6.150   5.372 -0.1951  0.4456  0.0352
  660SOL    HW2 2409   1.151   6.156   5.228  0.3321 -2.3657  0.0369
  661SOL     OW 2410   0.858   1.921   1.941  0.5650 -0.1468 -0.6230
  661SOL    HW1 2411   0.874   1.827   1.931  1.0833 -0.0271 -0.9647
  661SOL    HW2 2412   0.940   1.956   1.976  0.4544  0.2114 -0.7178
  662SOL     OW 2413   3.447   1.594   1.953 -0.5355  0.7669  0.5814
  662SOL    HW1 2414   3.414   1.510   1.919 -1.8718  1.2049  0.7354
  662SOL    HW2 2415   3.375   1.655   1.939 -0.0137  1.6264  1.5379
  663SOL     OW 2416   0.533   1.619   3.759 -0.3625  0.2986  0.4561
  663SOL    HW1 2417   0.531   1.524   3.755  1.1805  0.2795 -1.4730
  663SOL    HW2 2418   0.603   1.639   3.821 -0.1637  0.1548  0.2794
  664SOL     OW 2419   4.967   6.004   5.325  0.0721 -0.0306  0.0476
  664SOL    HW1 2420   4.901   6.067   5.296  1.2864  1.9499  1.3551
  664SOL    HW2 2421   4.967   5.937   5.257 -1.3113  1.3377 -1.4068
  665SOL     OW 2422   3.900   6.073   3.111  0.2423 -0.1359 -0.4800
  665SOL    HW1 2423   3.846   6.058   3.188 -0.6343 -1.2956 -1.2931
  665SOL    HW2 2424   3.970   6.131   3.142 -1.5234  1.5626  0.5625
  666SOL     OW 2425   3.744   6.037   5.743  0.5316  0.2554  0.4840
  666SOL    HW1 2426   3.673   6.085   5.786  1.2044 -0.1911  2.1555
  666SOL    HW2 2427   3.818   6.098   5.745  1.0848 -0.4280  1.6527
  667SOL     OW 2428   3.611   5.650   4.904  0.2093 -0.0845 -0.0165
  667SOL    HW1 2429   3.546   5.677   4.839  0.9779 -1.0039 -1.2068
  667SOL    HW2 2430   3.577   5.684   4.987  0.4204  3.3125 -1.1553
  668SOL     OW 2431   3.142   5.322   1.399  0.3284 -0.6238  0.0718
  668SOL    HW1 2432   3.101   5.389   1.343  1.4325  0.3974  0.4363
  668SOL    HW2 2433   3.126   5.240   1.353 -0.4795 -0.0381 -0.7456
  669SOL     OW 2434   3.138   1.879   5.160 -0.6136 -0.4173  0.0086
  669SOL    HW1 2435   3.171   1.957   5.204 -0.8053 -0.6505  0.5693
  669SOL    HW2 2436   3.112   1.910   5.073  0.7553 -0.1574 -0.3419
  670SOL     OW 2437   3.099   3.397   0.802 -0.2011 -0.5113  0.1193
  670SOL    HW1 2438   3.124   3.311   0.769  1.4455  0.5527 -1.5973
  670SOL    HW2 2439   3.142   3.403   0.888  0.5822 -0.9881 -0.2290
  671SOL     OW 2440   1.532   1.618   4.338  0.3938  0.4588 -0.4135
  671SOL    HW1 2441   1.602   1.679   4.359  0.1431  0.5249  0.2846
  671SOL    HW2 2442   1.451   1.669   4.349  0.2475  0.7283 -2.3800
  672SOL     OW 2443   4.632   3.804   4.875 -0.1053  0.1979 -0.0161
  672SOL    HW1 2444   4.567   3.811   4.945 -0.2682  0.2836 -0.1749
  672SOL    HW2 2445   4.590   3.750   4.808  0.4648 -0.8158  0.4246
  673SOL     OW 2446   0.576   1.311   0.522 -0.1342  0.0715 -0.1097
  673SOL    HW1 2447   0.670   1.315   0.507  0.2825  1.3824  2.3124
  673SOL    HW2 2448   0.553   1.399   0.551 -1.7034 -0.7728  1.3667
  674SOL     OW 2449   2.626   4.130   4.768 -0.0968 -0.3774 -0.2768
  674SOL    HW1 2450   2.668   4.088   4.693  0.7613  1.5525 -0.9424
  674SOL    HW2 2451   2.698   4.173   4.815 -0.7644 -0.6971  1.0801
  675SOL     OW 2452   1.040   1.280   0.099  0.5340 -0.2759 -0.5665
  675SOL    HW1 2453   1.002   1.256   0.015 -0.8742  0.3288 -0.1256
  675SOL    HW2 2454   0.982   1.242   0.164 -0.0892  1.7210  0.1306
  676SOL     OW 2455   4.108   4.085   5.380  0.4307  0.2692 -0.4104
  676SOL    HW1 2456   4.080   4.004   5.422  0.8563 -0.2044 -1.0363
  676SOL    HW2 2457   4.177   4.059   5.319  0.6267  1.1087 -0.5636
  677SOL     OW 2458   0.317   6.171   1.881  0.5108  0.0701 -0.5320
  677SOL    HW1 2459   0.289   6.130   1.963 -0.3657  0.7114 -0.5044
  677SOL    HW2 2460   0.265   6.128   1.813  1.7055 -0.9297 -0.8523
  678SOL     OW 2461   3.565   4.455   5.208 -0.4147 -0.1760 -0.3180
  678SOL    HW1 2462   3.508   4.408   5.269 -0.4170  0.3542  0.0982
  678SOL    HW2 2463   3.611   4.519   5.263  0.4339 -0.4587 -0.6804
  679SOL     OW 2464   0.062   6.016   5.487  1.1268 -0.2105  0.5727
  679SOL    HW1 2465   0.117   5.955   5.438 -0.3231 -0.9532 -0.2200
  679SOL    HW2 2466   0.044   6.086   5.425 -0.1338 -0.8016  0.2274
  680SOL     OW 2467   2.282   5.944   5.294  0.2093  0.7016 -0.4654
  680SOL    HW1 2468   2.325   5.865   5.326 -0.0285  1.1309  1.0090
  680SOL    HW2 2469   2.210   5.913   5.240  2.2328 -0.0414 -2.9148
  681SOL     OW 2470   2.025   4.745   2.749 -0.0869 -0.2134  0.4345
  681SOL    HW1 2471   2.043   4.691   2.826  2.6091 -0.9550 -0.6246
  681SOL    HW2 2472   2.044   4.688   2.674 -0.9218  1.0348 -0.7821
  682SOL     OW 2473   5.610   3.030   1.091  0.0852  0.0979  0.6677
  682SOL    HW1 2474   5.539   3.012   1.030 -0.8807  2.0594  1.1329
  682SOL    HW2 2475   5.614   3.125   1.096  1.2430  0.0046  2.3812
  683SOL     OW 2476   6.234   0.363   0.529  0.2918  0.2085 -0.7460
  683SOL    HW1 2477   6.194   0.414   0.599  1.2467  0.9375 -0.7108
  683SOL    HW2 2478   6.321   0.400   0.519  0.5069 -0.5073 -1.6857
  684SOL     OW 2479   1.289   2.959   5.399 -0.5181 -0.0577 -0.4027
  684SOL    HW1 2480   1.241   2.991   5.475 -0.7479  2.7084 -1.5805
  684SOL    HW2 2481   1.281   2.864   5.403 -1.7535  0.0820  2.1890
  685SOL     OW 2482   5.062   4.706   3.044  0.2125  0.2102  0.0463
  685SOL    HW1 2483   5.057   4.652   3.124  0.8554 -2.1457 -1.3852
  685SOL    HW2 2484   5.148   4.748   3.050 -0.0121  0.5801  0.8817
  686SOL     OW 2485   0.515   5.241   1.902 -0.4659 -0.3639  0.5944
  686SOL    HW1 2486   0.479   5.169   1.851  0.2652 -1.4884  1.5923
  686SOL    HW2 2487   0.580   5.199   1.960  2.4018  1.4772 -1.0202
  687SOL     OW 2488   4.401   0.495   2.690 -0.2492  0.2914 -0.2224
  687SOL    HW1 2489   4.321   0.530   2.651 -0.2200  0.4789 -0.1204
  687SOL    HW2 2490   4.429   0.564   2.750  0.3021  0.4725 -0.6839
  688SOL     OW 2491   2.247   5.931   0.193 -0.4115  0.2264  0.4936
  688SOL    HW1 2492   2.327   5.879   0.182 -0.7507 -0.2410  0.2148
  688SOL    HW2 2493   2.249   5.994   0.121  0.1376  0.7893  0.9893
  689SOL     OW 2494   0.394   2.632   0.587  0.4152 -0.0017 -0.2730
  689SOL    HW1 2495   0.342   2.561   0.626  0.9312  0.9750  2.3722
  689SOL    HW2 2496   0.329   2.699   0.565  0.2622  0.2428  0.8294
  690SOL     OW 2497   5.304   1.679   4.084 -0.3091  0.2472 -0.2113
  690SOL    HW1 2498   5.225   1.664   4.136  0.2031 -0.4993  0.3792
  690SOL    HW2 2499   5.272   1.711   4.000 -1.1439  1.8547  0.6791
  691SOL     OW 2500   5.730   1.681   4.190  0.3532 -0.6651 -0.3577
  691SOL    HW1 2501   5.767   1.690   4.278  1.6211  0.3919 -0.9615
  691SOL    HW2 2502   5.713   1.588   4.180  0.7906 -0.8777  0.7709
  692SOL     OW 2503   5.291   2.527   4.760  0.0440  0.3356 -0.1530
  692SOL    HW1 2504   5.352   2.496   4.693  0.0796  0.8616 -0.3685
  692SOL    HW2 2505   5.335   2.508   4.843 -0.2284 -0.8024 -0.2503
  693SOL     OW 2506   4.557   2.488   1.594  0.8073  0.1242 -0.2219
  693SOL    HW1 2507   4.551   2.401   1.555  2.5387  0.6285 -1.7468
  693SOL    HW2 2508   4.554   2.473   1.688  2.6186 -1.7529 -0.4232
  694SOL     OW 2509   3.883   3.287   4.635  0.3392 -0.5178 -0.2177
  694SOL    HW1 2510   3.881   3.192   4.646 -2.9970 -0.6969 -0.9787
  694SOL    HW2 2511   3.832   3.321   4.709  3.3779  0.9935  1.3410
  695SOL     OW 2512   0.692   5.250   6.091  0.3352  0.0876  0.2286
  695SOL    HW1 2513   0.763   5.310   6.068  0.0136  0.0825 -0.7959
  695SOL    HW2 2514   0.730   5.163   6.078  0.4675  0.0701  0.7019
  696SOL     OW 2515   5.309   1.153   6.055  0.3502  0.7708 -0.0119
  696SOL    HW1 2516   5.216   1.168   6.075  0.4408  0.4899  0.6721
  696SOL    HW2 2517   5.308   1.093   5.981 -0.0601 -1.2878  1.5626
  697SOL     OW 2518   4.364   3.999   4.787  0.7733  0.3462 -0.1588
  697SOL    HW1 2519   4.341   3.976   4.877  0.0203 -0.8497 -0.6394
  697SOL    HW2 2520   4.304   4.070   4.764 -0.0712 -0.3608 -0.2053
  698SOL     OW 2521   5.258   4.699   5.464  0.5057  0.5576 -0.6447
  698SOL    HW1 2522   5.215   4.638   5.405 -0.0861 -0.1648  0.4966
  698SOL    HW2 2523   5.326   4.648   5.506 -0.2313  0.5475  0.5944
  699SOL     OW 2524   5.928   3.669   3.307  0.6256  0.3648 -0.5763
  699SOL    HW1 2525   5.959   3.755   3.332 -0.0210 -0.0379  1.8166
  699SOL    HW2 2526   5.923   3.673   3.211  4.4865  1.5810 -0.8980
  700SOL     OW 2527   0.382   2.244   2.723  0.4504 -0.1785 -0.1074
  700SOL    HW1 2528   0.440   2.317   2.741  2.5791 -1.8125  0.0146
  700SOL    HW2 2529   0.363   2.250   2.629 -0.4610  1.2210  0.1434
  701SOL     OW 2530   3.440   0.613   4.308 -0.1631  0.1404  0.5066
  701SOL    HW1 2531   3.368   0.663   4.348  1.4975  1.6830  1.6912
  701SOL    HW2 2532   3.519   0.659   4.335  1.3623 -2.0852  0.0653
  702SOL     OW 2533   3.082   0.456   1.505 -0.4111 -0.2374 -0.5705
  702SOL    HW1 2534   3.059   0.374   1.548  0.9287 -0.3742 -0.0462
  702SOL    HW2 2535   3.028   0.459   1.426 -0.8727 -1.3481 -0.3048
  703SOL     OW 2536   3.448   4.129   1.133  0.0722  0.1601  0.2717
  703SOL    HW1 2537   3.472   4.222   1.125  0.2571  0.1444  0.6384
  703SOL    HW2 2538   3.407   4.108   1.049 -0.6201  0.7640  0.4413
  704SOL     OW 2539   2.057   3.779   4.939  0.3153  0.7454 -0.0205
  704SOL    HW1 2540   2.061   3.683   4.932 -1.4297  0.7280 -1.2140
  704SOL    HW2 2541   2.118   3.810   4.872 -0.4613  0.4746 -0.8535
  705SOL     OW 2542   5.209   1.169   2.170  0.2244 -0.4380 -0.3239
  705SOL    HW1 2543   5.205   1.264   2.156  0.1992 -0.3379  0.3358
  705SOL    HW2 2544   5.178   1.132   2.087 -0.1059  0.1300 -0.4660
  706SOL     OW 2545   3.906   0.015   4.380  0.5035  0.3897 -0.2686
  706SOL    HW1 2546   3.984   0.067   4.395  0.5908 -0.0309  0.8070
  706SOL    HW2 2547   3.909  -0.007   4.287  2.0985 -0.3130 -0.0756
  707SOL     OW 2548   4.108   0.188   6.043 -0.1652  0.8326  0.0052
  707SOL    HW1 2549   4.038   0.170   6.105  0.2587  0.2725  0.3343
  707SOL    HW2 2550   4.184   0.207   6.097  0.8648 -2.1213 -0.2258
  708SOL     OW 2551   2.787   4.345   1.894 -0.2901 -0.3476 -0.1960
  708SOL    HW1 2552   2.743   4.261   1.901 -2.1361  0.5273 -0.7295
  708SOL    HW2 2553   2.750   4.398   1.964  0.4976  0.1783 -0.1637
  709SOL     OW 2554   2.015   5.948   2.171 -0.1300  0.2722 -0.1656
  709SOL    HW1 2555   1.976   6.034   2.155 -0.2605  0.6497  1.8584
  709SOL    HW2 2556   2.102   5.967   2.206  0.2775 -0.4596 -0.7488
  710SOL     OW 2557   3.184   1.635   5.091 -0.2939 -0.2624 -0.7835
  710SOL    HW1 2558   3.155   1.721   5.123 -0.3329 -0.4679 -0.2595
  710SOL    HW2 2559   3.261   1.654   5.038  1.7845 -0.1769  2.0361
  711SOL     OW 2560   2.971   5.457   1.246  0.2285 -0.4156 -0.1983
  711SOL    HW1 2561   2.895   5.490   1.294  0.7622 -0.3072  0.5909
  711SOL    HW2 2562   2.934   5.392   1.185 -0.2941 -1.8912  1.5899
  712SOL     OW 2563   0.214   0.394   0.963  0.1827 -0.9034 -0.3183
  712SOL    HW1 2564   0.209   0.490   0.971  2.2608 -0.8464  1.1330
  712SOL    HW2 2565   0.244   0.364   1.048  2.1336 -2.5767 -1.4914
  713SOL     OW 2566   5.689   0.025   1.284 -0.0364 -0.0209  0.1662
  713SOL    HW1 2567   5.721   0.091   1.222 -0.2594  2.3523  2.3938
  713SOL    HW2 2568   5.766   0.001   1.335 -0.1241 -0.9413 -0.1157
  714SOL     OW 2569   2.911   2.204   5.390  0.5225  0.1450  0.6337
  714SOL    HW1 2570   2.857   2.284   5.392  1.4517  0.7955  0.3657
  714SOL    HW2 2571   2.988   2.229   5.339  2.1259 -0.0774  2.7855
  715SOL     OW 2572   5.799   1.676   6.184 -0.5677  0.3176 -0.2904
  715SOL    HW1 2573   5.711   1.664   6.221 -0.4524  0.4307  0.0253
  715SOL    HW2 2574   5.841   1.739   6.242 -0.3304  0.3849 -0.5327
  716SOL     OW 2575   0.066   3.802   0.618 -0.0291 -0.0744 -0.2612
  716SOL    HW1 2576   0.026   3.884   0.588 -2.4009 -1.3930 -1.0314
  716SOL    HW2 2577   0.160   3.816   0.609 -0.3089  2.7390  0.2028
  717SOL     OW 2578   1.429   6.131   5.406 -0.1699  0.4916 -0.4486
  717SOL    HW1 2579   1.345   6.161   5.371  0.6412  0.9980 -2.0860
  717SOL    HW2 2580   1.494   6.162   5.343  1.4686  1.7560  1.6831
  718SOL     OW 2581   4.426   0.823   4.299  0.8938  0.1312  0.0194
  718SOL    HW1 2582   4.492   0.840   4.231  0.9522 -0.2251 -0.0153
  718SOL    HW2 2583   4.477   0.802   4.377  0.8497  1.5543  0.4643
  719SOL     OW 2584   5.462   0.811   0.291 -0.1722 -0.5211 -0.6568
  719SOL    HW1 2585   5.414   0.848   0.365 -0.3219 -1.5377 -0.2362
  719SOL    HW2 2586   5.542   0.865   0.285  1.0976 -1.9303  1.8570
  720SOL     OW 2587   2.844   1.265   5.146 -0.0733 -0.2968  1.1207
  720SOL    HW1 2588   2.839   1.192   5.208  2.4200 -1.0969  0.4942
  720SOL    HW2 2589   2.912   1.322   5.181 -1.2293  1.1968  1.0140
  721SOL     OW 2590   5.407   3.831   3.243 -0.0143 -0.1806 -0.8187
  721SOL    HW1 2591   5.352   3.779   3.301 -0.4487  0.1644 -0.9132
  721SOL    HW2 2592   5.345   3.889   3.198  0.4214  0.1684 -0.9709
  722SOL     OW 2593   1.451   1.091   0.846  0.0057 -0.1601 -0.1133
  722SOL    HW1 2594   1.435   1.148   0.770 -0.5812 -1.6286 -1.1627
  722SOL    HW2 2595   1.368   1.045   0.858  0.8634 -1.7838 -0.1978
  723SOL     OW 2596   5.646   3.376   2.012 -0.3056  0.5730  0.7973
  723SOL    HW1 2597   5.690   3.410   2.090  0.5427 -2.8413  1.9533
  723SOL    HW2 2598   5.611   3.291   2.038  0.7807 -1.1779 -2.7248
  724SOL     OW 2599   1.805   4.183   2.867 -0.5261 -0.1075  0.2310
  724SOL    HW1 2600   1.837   4.228   2.945 -3.1274  2.4377 -0.0085
  724SOL    HW2 2601   1.745   4.116   2.900 -0.5639  0.0354  0.4497
  725SOL     OW 2602   4.870   2.543   1.675  0.1915  0.6612  0.7837
  725SOL    HW1 2603   4.825   2.600   1.612  0.4951  0.3457  0.2749
  725SOL    HW2 2604   4.834   2.568   1.760 -0.3861  0.9423  0.4612
  726SOL     OW 2605   1.694   0.038   0.926  0.2375  0.2944  0.0034
  726SOL    HW1 2606   1.716   0.024   1.018  1.1293  1.2385 -0.0450
  726SOL    HW2 2607   1.654   0.125   0.924 -0.6718 -0.1246 -0.3672
  727SOL     OW 2608   5.170   3.835   0.524  0.0085  0.0790 -0.2199
  727SOL    HW1 2609   5.162   3.862   0.433  0.5575 -0.2931 -0.3800
  727SOL    HW2 2610   5.241   3.889   0.559 -0.0507  0.0618 -0.0697
  728SOL     OW 2611   5.222   5.174   5.412  0.2706  0.1006  0.0373
  728SOL    HW1 2612   5.216   5.107   5.481  2.5042  0.2348  0.4428
  728SOL    HW2 2613   5.304   5.219   5.430  0.2634  1.0169 -1.9735
  729SOL     OW 2614   0.718   1.873   4.116 -0.0514  0.0762  0.2123
  729SOL    HW1 2615   0.691   1.789   4.154  2.4694 -1.3487 -0.9254
  729SOL    HW2 2616   0.706   1.936   4.187 -1.2021 -1.3580  1.3809
  730SOL     OW 2617   2.192   2.219   2.832  0.1191  0.0942 -0.7437
  730SOL    HW1 2618   2.108   2.181   2.808 -0.4475 -0.0527  1.3237
  730SOL    HW2 2619   2.169   2.296   2.885  1.2868  0.8691 -1.3244
  731SOL     OW 2620   0.142   5.383   3.848 -0.2912  0.1499 -0.0905
  731SOL    HW1 2621   0.081   5.451   3.818  1.8955  2.3149  0.0929
  731SOL    HW2 2622   0.176   5.344   3.767 -0.2734  0.4479 -0.2251
  732SOL     OW 2623   4.242   0.840   3.197  0.2318  0.5756  0.7365
  732SOL    HW1 2624   4.299   0.768   3.222 -2.4025 -1.0786  2.5053
  732SOL    HW2 2625   4.177   0.845   3.267 -1.8688  2.2636 -1.1544
  733SOL     OW 2626   2.844   4.049   5.594 -0.0641 -0.1563  0.3107
  733SOL    HW1 2627   2.853   4.052   5.690 -0.5887 -0.7604  0.3838
  733SOL    HW2 2628   2.834   3.956   5.574 -1.5774  0.0910 -0.1717
  734SOL     OW 2629   2.520   2.601   2.837  0.3244  0.3939 -0.3101
  734SOL    HW1 2630   2.429   2.617   2.862  0.4968  0.1606  0.5059
  734SOL    HW2 2631   2.562   2.687   2.846  0.1951  0.5026 -0.6895
  735SOL     OW 2632   5.076   0.740   1.974  0.3225 -0.3103 -0.6034
  735SOL    HW1 2633   5.045   0.650   1.963  0.0114 -0.0952 -1.5408
  735SOL    HW2 2634   5.002   0.794   1.948 -0.5360  0.2912  2.5910
  736SOL     OW 2635   1.411   3.375   2.397 -0.7845 -0.2812 -0.0802
  736SOL    HW1 2636   1.500   3.407   2.382 -0.9350  0.3549  0.3771
  736SOL    HW2 2637   1.357   3.422   2.334 -1.0197  0.4400  0.6589
  737SOL     OW 2638   5.445   2.811   2.658 -0.3261 -0.2924 -0.6636
  737SOL    HW1 2639   5.437   2.742   2.592  0.0128 -0.8925 -0.0897
  737SOL    HW2 2640   5.418   2.891   2.613 -1.6991 -0.9438 -1.0699
  738SOL     OW 2641   3.834   2.177   5.555 -0.4391 -0.6305 -0.0646
  738SOL    HW1 2642   3.848   2.090   5.518 -0.7346 -0.4933 -0.5024
  738SOL    HW2 2643   3.895   2.234   5.507 -3.5841  0.3353 -3.3192
  739SOL     OW 2644   0.335   2.992   0.198 -0.1214  0.3668  0.1101
  739SOL    HW1 2645   0.427   2.969   0.212 -0.1460 -1.0427 -1.6336
  739SOL    HW2 2646   0.338   3.074   0.149  0.1200  1.3675  1.7364
  740SOL     OW 2647   5.055   3.216   4.045 -1.1447  0.0478  0.1040
  740SOL    HW1 2648   5.034   3.152   4.113 -2.2870  0.2821 -0.0158
  740SOL    HW2 2649   5.114   3.170   3.986  0.3582  0.0161  1.5362
  741SOL     OW 2650   5.312   4.623   0.915 -0.5589 -0.0914 -0.6419
  741SOL    HW1 2651   5.231   4.661   0.880 -0.1509  0.1247 -1.3627
  741SOL    HW2 2652   5.294   4.610   1.008 -1.3112  0.2576 -0.7344
  742SOL     OW 2653   4.486   5.075   4.592  0.4043  0.4276 -0.3623
  742SOL    HW1 2654   4.502   5.090   4.499  0.3148 -0.2352 -0.4928
  742SOL    HW2 2655   4.448   5.156   4.624 -1.4722 -0.0043 -1.3581
  743SOL     OW 2656   2.515   2.538   4.145  0.3697  0.1005 -0.3288
  743SOL    HW1 2657   2.611   2.542   4.153  0.2370  0.9746  1.6141
  743SOL    HW2 2658   2.484   2.556   4.234 -1.6195  0.1504 -0.9946
  744SOL     OW 2659   1.103   4.061   3.337  0.1717 -0.1962  0.0331
  744SOL    HW1 2660   1.136   4.082   3.424 -0.0858 -0.8392  0.2939
  744SOL    HW2 2661   1.050   4.136   3.312  0.4449  0.0973  0.3240
  745SOL     OW 2662   0.358   0.651   3.004  0.4385  0.2037  0.1307
  745SOL    HW1 2663   0.306   0.621   2.929  1.1516  2.2913 -1.2777
  745SOL    HW2 2664   0.293   0.684   3.066 -0.0944 -0.1909 -0.2049
  746SOL     OW 2665   2.945   1.891   3.336 -0.7812 -0.1293 -0.4755
  746SOL    HW1 2666   2.947   1.840   3.417 -2.0117  1.1778  0.4146
  746SOL    HW2 2667   2.867   1.946   3.343 -1.2632 -0.3787 -2.8189
  747SOL     OW 2668   2.909   3.517   1.211  0.1782  0.2009 -0.1230
  747SOL    HW1 2669   2.865   3.432   1.213 -1.5223  1.0291 -1.0153
  747SOL    HW2 2670   2.967   3.515   1.287  0.4667 -1.8837 -0.3160
  748SOL     OW 2671   4.042   1.003   3.034  0.0779 -0.6201  0.2003
  748SOL    HW1 2672   4.120   1.019   2.980 -0.7566 -0.8602 -1.1103
  748SOL    HW2 2673   4.074   1.013   3.124  1.3153  0.6269 -0.3296
  749SOL     OW 2674   4.780   0.688   4.331  0.3220 -0.1811 -0.1122
  749SOL    HW1 2675   4.840   0.640   4.388  0.3165 -0.0028  0.0425
  749SOL    HW2 2676   4.706   0.711   4.387 -0.0182 -0.6400 -0.3703
  750SOL     OW 2677   4.517   4.014   0.083  0.2361 -0.1755  0.0683
  750SOL    HW1 2678   4.612   4.028   0.078  0.0972  0.6109 -0.6985
  750SOL    HW2 2679   4.489   4.009  -0.008 -0.4736 -0.2881  0.2869
  751SOL     OW 2680   3.244   2.130   0.303 -0.3455  0.2181 -0.3275
  751SOL    HW1 2681   3.313   2.193   0.282  0.3120 -0.1183  0.6877
  751SOL    HW2 2682   3.211   2.101   0.219  0.1417  1.0599 -0.8228
  752SOL     OW 2683   0.131   4.171   0.117  0.2716 -0.3054  0.0313
  752SOL    HW1 2684   0.168   4.191   0.031  0.4471 -2.0521 -0.3456
  752SOL    HW2 2685   0.041   4.203   0.114  0.5161  0.3382 -0.5155
  753SOL     OW 2686   5.150   0.872   3.339 -0.0370 -0.1496 -0.6174
  753SOL    HW1 2687   5.153   0.814   3.263 -0.5524 -0.6874 -0.2357
  753SOL    HW2 2688   5.060   0.867   3.370  0.2658 -0.2634  0.2827
  754SOL     OW 2689   3.612   2.177   0.948  0.1517 -0.3196  0.4289
  754SOL    HW1 2690   3.615   2.181   0.853 -1.0646  1.8828  0.3993
  754SOL    HW2 2691   3.678   2.240   0.977 -0.5921  0.2405  0.9673
  755SOL     OW 2692   0.385   2.828   1.919  0.1896 -0.2807 -0.3113
  755SOL    HW1 2693   0.430   2.744   1.911  1.6660  0.3715  0.8463
  755SOL    HW2 2694   0.341   2.839   1.834  1.1917 -1.5138 -1.0281
  756SOL     OW 2695   3.166   2.255   3.367 -0.5319 -0.3615 -0.0468
  756SOL    HW1 2696   3.199   2.328   3.419 -3.3959  0.4732  0.7368
  756SOL    HW2 2697   3.230   2.247   3.296  1.9502  0.3189  1.9383
  757SOL     OW 2698   2.803   4.086   3.742  0.7604 -0.4858  0.3691
  757SOL    HW1 2699   2.739   4.150   3.772  1.0919  0.1540 -0.2552
  757SOL    HW2 2700   2.772   4.060   3.655  0.1058 -1.9114  0.9798
  758SOL     OW 2701   1.686   4.236   1.435  0.5271 -0.1866 -0.1756
  758SOL    HW1 2702   1.742   4.180   1.382  1.8493  1.1129 -0.2175
  758SOL    HW2 2703   1.746   4.291   1.486 -0.6916  0.9653  0.1119
  759SOL     OW 2704   4.599   4.846   4.126  0.1173  0.4703 -0.1582
  759SOL    HW1 2705   4.667   4.782   4.149 -1.4970 -1.5993 -0.7407
  759SOL    HW2 2706   4.571   4.882   4.210 -0.0179 -0.8053  0.3753
  760SOL     OW 2707   1.054   2.054   2.073 -0.2419 -0.1107 -0.0576
  760SOL    HW1 2708   1.129   2.111   2.087 -0.6451 -0.0540  2.1152
  760SOL    HW2 2709   0.978   2.111   2.081 -0.5882 -0.5695 -0.0364
  761SOL     OW 2710   1.183   1.951   6.056  0.6042  0.3884 -0.3629
  761SOL    HW1 2711   1.134   1.907   5.987  1.5474 -0.4195 -0.5357
  761SOL    HW2 2712   1.115   1.983   6.116 -0.1648 -0.0416 -0.9782
  762SOL     OW 2713   5.520   1.240   4.941 -0.0564  0.2331 -0.3903
  762SOL    HW1 2714   5.599   1.187   4.945 -0.4121 -0.2477  0.7391
  762SOL    HW2 2715   5.544   1.322   4.986  0.0564  0.4457 -0.8323
  763SOL     OW 2716   0.885   3.749   0.252  0.0598  0.4864 -0.2269
  763SOL    HW1 2717   0.916   3.767   0.341 -2.0050  1.7191  0.2946
  763SOL    HW2 2718   0.908   3.657   0.238  2.2677  0.8270  0.7532
  764SOL     OW 2719   2.619   5.443   3.562  0.0054  0.2125 -0.2841
  764SOL    HW1 2720   2.665   5.370   3.519  1.6263  1.8600 -1.5157
  764SOL    HW2 2721   2.533   5.443   3.521  0.7950  0.4130 -2.0811
  765SOL     OW 2722   3.455   1.659   0.635 -0.1770  0.1229  0.4408
  765SOL    HW1 2723   3.395   1.632   0.565 -0.8045 -0.4160  1.1634
  765SOL    HW2 2724   3.529   1.599   0.627 -0.5767 -0.4105  0.6806
  766SOL     OW 2725   3.053   1.302   2.195  0.1775 -0.1332  0.0062
  766SOL    HW1 2726   2.993   1.235   2.164  1.0186 -0.1631 -1.6766
  766SOL    HW2 2727   3.101   1.261   2.267 -1.6956 -0.1342  1.3200
  767SOL     OW 2728   3.351   5.318   4.819  0.0332  0.0042  0.1875
  767SOL    HW1 2729   3.348   5.407   4.785  1.3534  1.1716  2.8830
  767SOL    HW2 2730   3.262   5.284   4.806 -1.1007  2.4731  1.0301
  768SOL     OW 2731   6.124   2.907   1.911  0.2637 -0.1099 -0.4944
  768SOL    HW1 2732   6.203   2.957   1.890 -0.7809  1.6657 -0.3407
  768SOL    HW2 2733   6.117   2.913   2.007 -1.3639  1.9010 -0.6742
  769SOL     OW 2734   4.508   4.271   2.589 -0.0781  0.4183  0.4233
  769SOL    HW1 2735   4.527   4.345   2.647 -1.5059  0.7742  0.4925
  769SOL    HW2 2736   4.440   4.304   2.530 -0.5884 -0.7698  0.3179
  770SOL     OW 2737   1.864   0.302   0.654 -0.1656 -0.0275 -0.3511
  770SOL    HW1 2738   1.786   0.251   0.634 -0.4923  0.4136 -0.2214
  770SOL    HW2 2739   1.832   0.377   0.704  0.4049 -0.1237  0.1779
  771SOL     OW 2740   5.563   0.847   3.523  0.3817 -0.4482 -0.2382
  771SOL    HW1 2741   5.471   0.873   3.534  0.4697  0.6200 -1.6998
  771SOL    HW2 2742   5.607   0.883   3.600 -0.4868 -1.4371  0.7574
  772SOL     OW 2743   3.039   0.892   2.156  0.2252 -0.0734 -0.2465
  772SOL    HW1 2744   3.042   0.928   2.244  0.4066 -1.1050  0.1805
  772SOL    HW2 2745   3.098   0.948   2.105 -0.1103  0.7124  0.2016
  773SOL     OW 2746   5.570   4.786   3.593 -0.1753 -0.1909 -0.4562
  773SOL    HW1 2747   5.509   4.724   3.634  0.3523 -1.0139 -0.8840
  773SOL    HW2 2748   5.646   4.733   3.570 -0.5164  0.1696 -2.6601
  774SOL     OW 2749   1.275   0.094   2.715 -0.2886 -0.2593 -0.1931
  774SOL    HW1 2750   1.272   0.185   2.744  0.1367  0.2205 -1.5690
  774SOL    HW2 2751   1.243   0.097   2.625 -2.7706 -1.8562  0.5513
  775SOL     OW 2752   1.645   0.304   1.664 -0.4601  0.6509  0.3666
  775SOL    HW1 2753   1.550   0.305   1.675 -0.5078  0.8778 -0.0328
  775SOL    HW2 2754   1.658   0.320   1.571 -0.0988 -1.5666 -0.0388
  776SOL     OW 2755   3.304   3.248   0.457 -0.1045  0.0445  0.3613
  776SOL    HW1 2756   3.226   3.197   0.479  0.4211 -0.6037  0.7798
  776SOL    HW2 2757   3.340   3.274   0.542 -0.2056  0.8746  0.1545
  777SOL     OW 2758   0.503   0.725   1.381  0.0757 -0.0233 -0.2478
  777SOL    HW1 2759   0.519   0.639   1.420  0.9545 -0.1818 -0.9336
  777SOL    HW2 2760   0.440   0.766   1.440  0.3445 -0.7752  0.5952
  778SOL     OW 2761   5.861   3.868   1.059 -0.3880  0.5243 -0.0380
  778SOL    HW1 2762   5.844   3.776   1.080 -0.0034  0.4322 -0.1061
  778SOL    HW2 2763   5.946   3.886   1.101 -0.3372  0.7707 -0.2450
  779SOL     OW 2764   3.706   0.684   4.365 -0.1859 -0.3086  0.2999
  779SOL    HW1 2765   3.794   0.648   4.367  0.0597  0.3397  1.1260
  779SOL    HW2 2766   3.676   0.681   4.455 -0.3830  1.0126  0.2966
  780SOL     OW 2767   0.975   3.447   1.924 -0.0804 -0.0025 -0.2844
  780SOL    HW1 2768   0.929   3.467   1.842  1.0016  0.9661 -0.6799
  780SOL    HW2 2769   0.938   3.508   1.988  0.4181  0.5570 -0.5239
  781SOL     OW 2770   0.615   2.719   5.172 -0.6627 -0.4377  0.6078
  781SOL    HW1 2771   0.688   2.775   5.148 -1.1583 -0.5219 -1.2009
  781SOL    HW2 2772   0.566   2.770   5.237  1.6371 -0.9138  2.8894
  782SOL     OW 2773   4.971   3.899   6.203 -0.0367  0.1354 -0.3068
  782SOL    HW1 2774   5.012   3.862   6.282 -1.0767  2.1912  1.3056
  782SOL    HW2 2775   4.895   3.843   6.188 -0.3579  0.2526  0.7460
  783SOL     OW 2776   1.478   1.556   2.007  1.2859  0.0668  0.4838
  783SOL    HW1 2777   1.460   1.569   1.914  0.2833 -1.2001  0.4705
  783SOL    HW2 2778   1.393   1.538   2.046  1.8475 -0.6555  1.4289
  784SOL     OW 2779   5.281   1.128   3.298 -0.3930 -0.4057  0.5329
  784SOL    HW1 2780   5.255   1.139   3.207  1.1391 -1.8803 -0.1283
  784SOL    HW2 2781   5.259   1.037   3.318 -0.1593 -0.2703  1.4451
  785SOL     OW 2782   3.692   6.065   5.114  0.4242  0.4824  0.0740
  785SOL    HW1 2783   3.742   5.990   5.080  1.3558  0.4366  1.4724
  785SOL    HW2 2784   3.671   6.041   5.204 -1.8070  0.6885 -0.3534
  786SOL     OW 2785   5.147   5.566   2.778  0.2733 -0.2273  0.0496
  786SOL    HW1 2786   5.157   5.556   2.683 -0.2214  1.9953 -0.2952
  786SOL    HW2 2787   5.236   5.578   2.811  0.4540 -1.0850 -0.0862
  787SOL     OW 2788   2.210   2.110   3.294  0.2242  0.1469 -0.1223
  787SOL    HW1 2789   2.293   2.126   3.338  0.3545  2.0974 -0.9941
  787SOL    HW2 2790   2.234   2.086   3.204 -0.1182 -1.4567  0.1812
  788SOL     OW 2791   1.783   2.307   2.556 -0.2550  0.2450  0.3023
  788SOL    HW1 2792   1.869   2.265   2.546 -0.2001  0.4522 -0.1500
  788SOL    HW2 2793   1.793   2.367   2.630  0.0559  0.4251  0.1174
  789SOL     OW 2794   3.274   0.178   2.070 -0.1699 -0.4251 -0.7904
  789SOL    HW1 2795   3.318   0.099   2.100 -1.1742 -0.8284 -0.3079
  789SOL    HW2 2796   3.195   0.183   2.125  0.2568  1.3260 -0.2946
  790SOL     OW 2797   5.121   3.969   4.866  0.4037  0.2067  0.3393
  790SOL    HW1 2798   5.125   3.895   4.927  1.7685  0.4898  0.6271
  790SOL    HW2 2799   5.104   3.929   4.781  0.4187 -0.3636  0.5994
  791SOL     OW 2800   5.401   5.257   0.028 -0.2836 -0.3924 -0.0182
  791SOL    HW1 2801   5.404   5.353   0.021  0.5923 -0.4618 -0.8110
  791SOL    HW2 2802   5.365   5.229  -0.057 -1.7830 -0.7299  0.6926
  792SOL     OW 2803   0.506   5.918   2.066  0.5550 -0.6786 -0.0890
  792SOL    HW1 2804   0.541   5.897   1.980  0.7960 -1.5371  0.2113
  792SOL    HW2 2805   0.447   5.846   2.087 -0.2630  0.0052  0.0550
  793SOL     OW 2806   5.083   5.010   1.105 -1.0633 -0.0518 -0.2446
  793SOL    HW1 2807   5.063   5.017   1.011 -0.9671 -0.5367 -0.3039
  793SOL    HW2 2808   5.033   4.934   1.134 -1.2694  0.2338  0.1491
  794SOL     OW 2809   4.711   4.161   3.552 -1.0116  0.3994 -1.0819
  794SOL    HW1 2810   4.728   4.255   3.545 -0.1041  0.2351 -1.2616
  794SOL    HW2 2811   4.735   4.126   3.467  0.6511 -0.2650 -0.3749
  795SOL     OW 2812   4.576   0.091   3.440  0.0030 -0.3069  0.0340
  795SOL    HW1 2813   4.502   0.071   3.497  0.2100  0.3929  0.5632
  795SOL    HW2 2814   4.543   0.159   3.381  0.4656  0.6283  0.8308
  796SOL     OW 2815   2.141   1.411   2.396  0.1532 -0.3533  0.3078
  796SOL    HW1 2816   2.122   1.317   2.396  0.0695 -0.3371  0.8140
  796SOL    HW2 2817   2.223   1.418   2.348 -1.9965 -0.2153 -3.7324
  797SOL     OW 2818   5.908   3.830   5.094 -0.3397 -0.2893 -0.2803
  797SOL    HW1 2819   5.878   3.834   5.004 -0.8993 -0.2531 -0.0933
  797SOL    HW2 2820   5.963   3.751   5.098 -1.7567 -1.3095 -0.2249
  798SOL     OW 2821   4.165   5.610   0.194 -0.6412 -0.2606 -0.5938
  798SOL    HW1 2822   4.248   5.585   0.235 -1.3453 -0.2860  0.8658
  798SOL    HW2 2823   4.100   5.601   0.264 -1.6776  0.9749 -1.3661
  799SOL     OW 2824   4.085   5.388   4.395  0.1917 -0.2979  0.3937
  799SOL    HW1 2825   4.036   5.441   4.457 -1.0027 -1.5073  0.5285
  799SOL    HW2 2826   4.177   5.398   4.421 -0.2555 -0.4599  2.0980
  800SOL     OW 2827   1.116   0.741   2.194 -0.1218  0.2674  0.0946
  800SOL    HW1 2828   1.147   0.830   2.180 -1.1397  0.7787  0.9341
  800SOL    HW2 2829   1.172   0.707   2.264  0.8338 -0.0760 -0.8130
  801SOL     OW 2830   3.613   3.087   6.061 -0.3802  0.1516  0.2189
  801SOL    HW1 2831   3.541   3.115   6.117 -2.4167 -1.3445 -1.5112
  801SOL    HW2 2832   3.646   3.007   6.103 -0.2917  0.3536  0.5410
  802SOL     OW 2833   0.129   0.481   3.412 -0.5736  0.3192  0.4383
  802SOL    HW1 2834   0.063   0.506   3.476 -0.7842 -0.8103  0.6841
  802SOL    HW2 2835   0.208   0.466   3.464 -0.8936 -1.1690  0.5447
  803SOL     OW 2836   3.981   3.689   5.025 -0.0156 -0.0830 -0.2434
  803SOL    HW1 2837   4.067   3.667   5.060 -0.1481 -0.5081 -0.1702
  803SOL    HW2 2838   3.995   3.701   4.931 -0.0304 -1.0554 -0.3851
  804SOL     OW 2839   3.737   2.275   6.119 -0.0047  0.3744  0.5936
  804SOL    HW1 2840   3.645   2.291   6.099 -0.0130  2.0816  1.7824
  804SOL    HW2 2841   3.785   2.341   6.070  0.4385  0.6300  1.3449
  805SOL     OW 2842   1.274   6.190   4.854  0.2328  0.7836 -0.0173
  805SOL    HW1 2843   1.210   6.157   4.916  0.7038 -1.7231 -0.7537
  805SOL    HW2 2844   1.229   6.186   4.769  0.9554  0.1279 -0.3785
  806SOL     OW 2845   5.792   4.256   4.132  0.0464 -0.7606  0.3582
  806SOL    HW1 2846   5.708   4.253   4.178  0.2117  0.2993  0.7789
  806SOL    HW2 2847   5.854   4.290   4.198  0.1347  1.6072 -0.8223
  807SOL     OW 2848   2.180   5.960   3.244 -0.2217  0.4928  0.4714
  807SOL    HW1 2849   2.198   5.956   3.337  1.3322  0.1257  0.1771
  807SOL    HW2 2850   2.204   5.873   3.211  0.5100  1.0416 -0.4781
  808SOL     OW 2851   3.167   1.179   2.388 -0.3070  0.4823  0.1715
  808SOL    HW1 2852   3.154   1.218   2.475  0.7685  1.0671  0.0835
  808SOL    HW2 2853   3.126   1.093   2.394  0.5578  0.1412  1.5588
  809SOL     OW 2854   3.837   2.913   3.173 -0.2439 -0.1813 -0.1911
  809SOL    HW1 2855   3.775   2.928   3.245 -1.6662 -2.1804 -0.9062
  809SOL    HW2 2856   3.813   2.977   3.106 -1.7185 -1.0380 -0.5233
  810SOL     OW 2857   4.559   6.182   1.903  0.0395  0.0898  0.1757
  810SOL    HW1 2858   4.491   6.130   1.946 -2.1314  1.6399 -1.1317
  810SOL    HW2 2859   4.625   6.119   1.877  0.5851 -1.1616  3.9706
  811SOL     OW 2860   0.491   5.605   4.800  0.0414  0.2761 -0.0161
  811SOL    HW1 2861   0.417   5.567   4.753 -0.3213 -1.9599  2.1663
  811SOL    HW2 2862   0.526   5.672   4.740 -2.3865 -0.0770 -1.9824
  812SOL     OW 2863   4.989   3.943   1.535 -0.1704  0.0222  0.8873
  812SOL    HW1 2864   4.968   4.036   1.544  0.7679  0.4789 -1.1533
  812SOL    HW2 2865   5.083   3.942   1.517 -0.3976 -1.2176 -0.3564
  813SOL     OW 2866   5.343   2.593   1.458 -0.5864  0.1360 -0.1359
  813SOL    HW1 2867   5.314   2.554   1.375 -1.4409 -1.4175  0.8454
  813SOL    HW2 2868   5.410   2.656   1.432 -1.5563  0.4459 -2.0975
  814SOL     OW 2869   0.500   1.284   0.814 -0.3676 -0.0825 -0.4726
  814SOL    HW1 2870   0.490   1.378   0.799  1.6542  0.1591 -0.6513
  814SOL    HW2 2871   0.528   1.249   0.729 -1.3833 -0.9039 -0.4788
  815SOL     OW 2872   3.018   1.491   6.177  0.4218 -0.0094 -0.2936
  815SOL    HW1 2873   3.065   1.492   6.093 -0.7639 -0.9356 -0.9884
  815SOL    HW2 2874   3.086   1.512   6.242  0.8627  3.5271 -1.6755
  816SOL     OW 2875   0.246   5.887   5.709 -0.2651 -0.2863  0.1252
  816SOL    HW1 2876   0.331   5.865   5.747 -0.8151 -1.7308  0.5778
  816SOL    HW2 2877   0.260   5.971   5.666  1.3629 -0.4448  0.2939
  817SOL     OW 2878   2.228   2.008   1.681 -0.3999 -0.0827  0.2569
  817SOL    HW1 2879   2.145   2.053   1.662 -0.6002 -1.1289 -1.5802
  817SOL    HW2 2880   2.231   1.936   1.618  1.2838 -0.8898  1.1945
  818SOL     OW 2881   4.073   2.660   6.018 -0.1531 -0.1436 -0.4512
  818SOL    HW1 2882   4.093   2.747   5.984 -0.7242 -0.8978 -2.9025
  818SOL    HW2 2883   3.977   2.659   6.026 -0.0209  0.3990  2.5406
  819SOL     OW 2884   2.865   0.550   1.374  0.0258  0.1399  0.5138
  819SOL    HW1 2885   2.842   0.634   1.336 -0.1920  0.7594  1.9525
  819SOL    HW2 2886   2.788   0.524   1.424  0.5411 -0.3254  1.0882
  820SOL     OW 2887   4.956   2.939   4.795  0.0943  0.8318  0.2213
  820SOL    HW1 2888   5.001   3.011   4.752  0.8606  1.8832  2.5699
  820SOL    HW2 2889   4.990   2.860   4.753  1.1240  1.7566 -0.7315
  821SOL     OW 2890   4.249   1.750   4.623 -0.2026 -0.3780 -0.7697
  821SOL    HW1 2891   4.202   1.672   4.595 -1.3013  0.1443 -0.4025
  821SOL    HW2 2892   4.242   1.751   4.718  1.0092 -0.5681 -0.6582
  822SOL     OW 2893   3.391   2.100   2.781  0.6049  0.0673 -0.0837
  822SOL    HW1 2894   3.468   2.135   2.827  0.8557 -1.3117  0.5990
  822SOL    HW2 2895   3.316   2.140   2.826  0.8971  0.7885 -0.2220
  823SOL     OW 2896   2.537   4.870   2.991 -0.8188  0.5351  0.4761
  823SOL    HW1 2897   2.610   4.932   2.994 -1.3447  1.1418  1.1394
  823SOL    HW2 2898   2.573   4.789   3.027  0.6353 -0.4159 -2.7942
  824SOL     OW 2899   5.492   4.175   4.471 -0.3938  0.6460  0.0361
  824SOL    HW1 2900   5.585   4.171   4.452 -0.5366  1.1618 -0.8193
  824SOL    HW2 2901   5.484   4.142   4.561  0.6005  0.5745  0.1050
  825SOL     OW 2902   2.029   4.009   3.120 -0.2499 -0.0460  0.3040
  825SOL    HW1 2903   1.983   3.965   3.192 -1.5937  1.2356  0.3044
  825SOL    HW2 2904   2.013   3.954   3.043 -0.8158 -0.2359  0.5504
  826SOL     OW 2905   4.091   0.193   3.202  0.0868  0.5262  0.0477
  826SOL    HW1 2906   4.041   0.186   3.283 -1.2744  0.6237 -0.7419
  826SOL    HW2 2907   4.182   0.177   3.227 -0.2074  1.2685  1.6993
  827SOL     OW 2908   4.294   5.593   4.755 -0.5656  0.0460  0.4753
  827SOL    HW1 2909   4.254   5.529   4.696 -2.0768  0.1037  1.3980
  827SOL    HW2 2910   4.350   5.646   4.698 -0.3236 -1.2416 -0.5268
  828SOL     OW 2911   4.126   0.043   0.267  0.1384  0.1201  0.2750
  828SOL    HW1 2912   4.151   0.121   0.217  0.1520 -0.3670 -0.4951
  828SOL    HW2 2913   4.099   0.077   0.353 -2.2544  1.2251 -0.8427
  829SOL     OW 2914   6.200   2.929   3.667  0.4365  0.3592 -0.1404
  829SOL    HW1 2915   6.141   2.862   3.631 -2.5909  1.6502  2.0127
  829SOL    HW2 2916   6.242   2.886   3.742  0.7764  0.0352 -0.5075
  830SOL     OW 2917   4.241   1.583   5.642  0.1145 -0.7269  0.1287
  830SOL    HW1 2918   4.169   1.627   5.595  0.3566 -0.9432 -0.4447
  830SOL    HW2 2919   4.266   1.511   5.585  0.3888 -1.0138  0.6136
  831SOL     OW 2920   5.102   0.448   0.122 -0.1206  0.4672  0.4404
  831SOL    HW1 2921   5.102   0.543   0.135 -0.8578  0.4973  0.2317
  831SOL    HW2 2922   5.138   0.413   0.203 -2.8551  0.7543  1.8788
  832SOL     OW 2923   0.058   4.052   4.567 -0.0184 -0.0564  0.1494
  832SOL    HW1 2924   0.148   4.063   4.596  0.0534 -0.0631 -0.0707
  832SOL    HW2 2925   0.007   4.051   4.648  0.0095  1.5563  0.2089
  833SOL     OW 2926   5.345   5.436   4.305 -0.0215 -0.2571 -1.2986
  833SOL    HW1 2927   5.385   5.505   4.252 -0.7265 -0.8743 -2.6748
  833SOL    HW2 2928   5.417   5.402   4.358  0.3909  1.3483 -0.7514
  834SOL     OW 2929   4.807   0.348   1.962 -0.2346 -0.5255  0.6282
  834SOL    HW1 2930   4.893   0.389   1.955 -0.8845  0.6559 -0.8594
  834SOL    HW2 2931   4.825   0.254   1.955  0.8477 -0.2444 -0.7749
  835SOL     OW 2932   6.213   2.405   2.506  0.0253 -0.1354 -0.1802
  835SOL    HW1 2933   6.263   2.382   2.584 -1.7704  1.0549  1.4094
  835SOL    HW2 2934   6.194   2.499   2.516 -2.5110 -0.5244 -0.6656
  836SOL     OW 2935   2.300   5.463   5.279 -0.2358  0.2245 -0.0515
  836SOL    HW1 2936   2.311   5.537   5.338 -0.2483 -0.1879  0.4742
  836SOL    HW2 2937   2.387   5.452   5.239 -0.5923  1.4049 -1.2028
  837SOL     OW 2938   1.956   1.719   4.619  0.1740  0.2119  0.1927
  837SOL    HW1 2939   2.042   1.687   4.590  0.0399 -0.8668  0.9246
  837SOL    HW2 2940   1.975   1.804   4.657  0.6259  0.8398 -1.3490
  838SOL     OW 2941   1.576   5.793   5.158 -0.2590  0.3311  0.4944
  838SOL    HW1 2942   1.574   5.741   5.077 -1.3524  1.3619 -0.1834
  838SOL    HW2 2943   1.514   5.750   5.216 -0.1053  0.0750  0.4693
  839SOL     OW 2944   1.406   0.402   0.289  0.3986  0.0004  0.1437
  839SOL    HW1 2945   1.353   0.344   0.343 -1.5186  0.6560 -0.9352
  839SOL    HW2 2946   1.410   0.358   0.204  1.0560  0.2690  0.0316
  840SOL     OW 2947   5.815   5.642   1.934  0.7325 -0.5165 -0.3514
  840SOL    HW1 2948   5.858   5.701   1.997 -1.7756  0.5812  0.4608
  840SOL    HW2 2949   5.834   5.680   1.849  1.1428  0.0929  0.0004
  841SOL     OW 2950   3.479   2.932   0.414 -0.2861 -0.1541 -0.2467
  841SOL    HW1 2951   3.404   2.874   0.426 -0.7711  0.1468 -1.6592
  841SOL    HW2 2952   3.485   2.981   0.496  0.9842 -3.0700  1.5862
  842SOL     OW 2953   1.706   5.025   4.852 -0.6187  0.7301  0.2030
  842SOL    HW1 2954   1.708   5.120   4.842 -1.8061  0.6783 -0.6895
  842SOL    HW2 2955   1.647   5.010   4.926 -1.0078  0.6664 -0.1170
  843SOL     OW 2956   2.916   4.585   0.801 -0.1350 -0.4700 -0.8993
  843SOL    HW1 2957   2.861   4.537   0.740 -0.0033 -0.1911 -1.2449
  843SOL    HW2 2958   2.885   4.560   0.888  0.6556 -2.0215 -1.0411
  844SOL     OW 2959   4.778   2.169   1.805 -0.2132  0.3784  0.3801
  844SOL    HW1 2960   4.778   2.133   1.894 -0.3916  0.3965  0.3871
  844SOL    HW2 2961   4.871   2.176   1.782 -0.1310  1.5056  1.0247
  845SOL     OW 2962   0.739   3.911   1.474 -0.5677 -0.4693 -0.1361
  845SOL    HW1 2963   0.728   3.832   1.422 -0.6748 -0.1285 -0.6314
  845SOL    HW2 2964   0.715   3.982   1.416  0.2415 -0.0121  0.0774
  846SOL     OW 2965   0.562   4.532   0.308 -0.2421  0.0483  0.1457
  846SOL    HW1 2966   0.507   4.598   0.351  1.1371  1.2617  0.1239
  846SOL    HW2 2967   0.503   4.488   0.247 -1.7893 -0.4184  1.8602
  847SOL     OW 2968   2.119   5.584   3.481  0.2433  0.0824  0.8538
  847SOL    HW1 2969   2.094   5.656   3.540 -0.8730  1.1967 -0.8672
  847SOL    HW2 2970   2.036   5.540   3.461  0.7180 -0.7753  0.7416
  848SOL     OW 2971   5.379   0.921   2.505  0.0385  0.2520 -0.3350
  848SOL    HW1 2972   5.393   0.996   2.448 -1.6090  1.4497  0.7648
  848SOL    HW2 2973   5.326   0.861   2.453 -0.4362  0.7914 -0.4766
  849SOL     OW 2974   5.622   0.745   2.254  0.1979 -0.2353 -0.4578
  849SOL    HW1 2975   5.575   0.703   2.327 -0.8494  0.9620 -0.4163
  849SOL    HW2 2976   5.637   0.674   2.192 -1.5066 -0.7041 -0.3787
  850SOL     OW 2977   5.219   4.982   1.955 -0.2589  0.2059 -0.0317
  850SOL    HW1 2978   5.266   4.952   1.877  0.1484 -0.3659  0.4295
  850SOL    HW2 2979   5.169   4.905   1.984  0.6562 -0.0036  1.0546
  851SOL     OW 2980   5.694   5.876   0.459  0.3491  0.2081 -0.1456
  851SOL    HW1 2981   5.712   5.791   0.420 -1.8904  0.2209 -1.3391
  851SOL    HW2 2982   5.657   5.856   0.545 -1.2881 -0.1066 -0.8973
  852SOL     OW 2983   1.213   4.842   3.303  0.1828 -0.0380 -0.0571
  852SOL    HW1 2984   1.120   4.861   3.295 -0.2661 -1.3773  1.3986
  852SOL    HW2 2985   1.220   4.787   3.381  2.1745 -0.1416 -0.2408
  853SOL     OW 2986   4.467   3.133   3.150  0.8629 -0.1293 -0.1416
  853SOL    HW1 2987   4.515   3.131   3.067  1.1890 -0.5304  0.0530
  853SOL    HW2 2988   4.492   3.216   3.190  1.7868 -0.5515  0.1817
  854SOL     OW 2989   3.217   2.841   0.852  0.2193  0.5067  0.0150
  854SOL    HW1 2990   3.193   2.914   0.794 -0.1712  1.6450  1.5632
  854SOL    HW2 2991   3.143   2.832   0.911 -0.4692 -2.2570 -1.1201
  855SOL     OW 2992   5.825   1.400   1.956  0.4034  0.3269 -0.1905
  855SOL    HW1 2993   5.920   1.406   1.947  0.3952  0.2440 -0.3299
  855SOL    HW2 2994   5.808   1.308   1.973  0.2638  0.1579 -1.1994
  856SOL     OW 2995   1.870   2.146   0.873  0.1295 -0.1507  0.1025
  856SOL    HW1 2996   1.846   2.233   0.905  0.3326  1.1869 -3.0849
  856SOL    HW2 2997   1.787   2.101   0.859 -0.0547  0.2743 -0.1648
  857SOL     OW 2998   1.682   5.533   2.119 -0.2062  0.0264 -0.4787
  857SOL    HW1 2999   1.663   5.594   2.190 -1.6098  1.3438 -1.9288
  857SOL    HW2 3000   1.747   5.578   2.065  0.7858 -0.9334 -0.1317
  858SOL     OW 3001   1.475   4.031   0.154 -0.5791 -0.8444  0.3055
  858SOL    HW1 3002   1.545   4.081   0.112 -0.0934 -1.1310  0.7598
  858SOL    HW2 3003   1.462   3.956   0.095  0.9197 -1.8810  1.2065
  859SOL     OW 3004   0.813   1.590   0.785  0.5128  0.2629 -0.3491
  859SOL    HW1 3005   0.820   1.574   0.879  0.0452 -0.5635 -0.4483
  859SOL    HW2 3006   0.820   1.686   0.777 -2.9692  0.7918  0.9164
  860SOL     OW 3007   2.895   3.933   5.227  0.4148  0.1017  0.3676
  860SOL    HW1 3008   2.810   3.891   5.216  1.0272 -0.7640 -1.4619
  860SOL    HW2 3009   2.948   3.868   5.272  0.7408 -0.2722 -0.5335
  861SOL     OW 3010   2.969   4.874   3.613 -1.0287 -0.3150 -0.6344
  861SOL    HW1 3011   3.047   4.850   3.664  0.5104  2.0778 -1.6757
  861SOL    HW2 3012   2.948   4.795   3.563  1.6768 -0.6316 -1.4351
  862SOL     OW 3013   1.522   5.276   2.983  0.2303  0.0860 -0.0774
  862SOL    HW1 3014   1.496   5.211   2.917 -0.1370 -0.3046  0.4476
  862SOL    HW2 3015   1.607   5.308   2.952  0.4085 -0.6307 -0.3519
  863SOL     OW 3016   1.831   1.591   1.278 -0.5104  0.1731  0.4229
  863SOL    HW1 3017   1.815   1.671   1.329  1.7721  1.0229 -0.0426
  863SOL    HW2 3018   1.868   1.623   1.196 -1.1601 -1.3134 -0.4778
  864SOL     OW 3019   0.608   0.259   1.689  0.5017 -0.1260 -0.6516
  864SOL    HW1 3020   0.532   0.244   1.633 -1.5688  2.3846  1.2491
  864SOL    HW2 3021   0.599   0.194   1.759  0.5252 -0.2693 -0.7793
  865SOL     OW 3022   0.487   4.297   2.175 -0.9632 -0.1236 -0.2107
  865SOL    HW1 3023   0.397   4.277   2.149 -1.1744 -0.0395  0.4404
  865SOL    HW2 3024   0.479   4.374   2.231 -0.3441  0.7207 -1.2380
  866SOL     OW 3025   4.864   6.018   0.178 -0.5197  0.1377  0.0165
  866SOL    HW1 3026   4.815   6.087   0.223  0.4415  1.8791 -1.4645
  866SOL    HW2 3027   4.920   5.980   0.246 -1.4455  0.4582  0.9814
  867SOL     OW 3028   5.573   6.153   0.475  0.5673 -0.0026  0.0126
  867SOL    HW1 3029   5.597   6.067   0.440  0.0974 -0.0603 -0.1876
  867SOL    HW2 3030   5.517   6.133   0.550 -0.4959  0.1192 -0.7239
  868SOL     OW 3031   2.301   4.169   1.988  0.5003  0.3816  0.3592
  868SOL    HW1 3032   2.366   4.137   1.925  0.2526  3.7678 -1.9181
  868SOL    HW2 3033   2.352   4.223   2.049  0.1969  0.9587  0.1174
  869SOL     OW 3034   4.445   0.343   0.334 -0.6969 -0.1397 -0.1929
  869SOL    HW1 3035   4.364   0.388   0.356 -0.3815  0.0610  0.5950
  869SOL    HW2 3036   4.486   0.398   0.268 -0.7335  0.2717  0.1253
  870SOL     OW 3037   4.404   4.561   3.111 -0.0619  0.2767 -0.2567
  870SOL    HW1 3038   4.378   4.495   3.174  0.3664  0.5928  0.2596
  870SOL    HW2 3039   4.358   4.640   3.139  0.9020  0.6735  0.2762
  871SOL     OW 3040   3.619   2.175   2.931 -0.1116  0.1600 -0.7584
  871SOL    HW1 3041   3.714   2.189   2.926 -0.0519 -0.3076 -0.9220
  871SOL    HW2 3042   3.608   2.108   2.999 -0.4472  1.4571  0.5261
  872SOL     OW 3043   1.476   1.848   1.780  0.1856  0.5998  0.6236
  872SOL    HW1 3044   1.401   1.907   1.780 -1.4570 -1.3599  0.8816
  872SOL    HW2 3045   1.437   1.760   1.777  2.5203 -0.4868 -1.9495
  873SOL     OW 3046   4.395   4.398   4.056  0.3024 -0.0031  0.5838
  873SOL    HW1 3047   4.397   4.465   3.988  1.8901 -1.2087 -0.6336
  873SOL    HW2 3048   4.303   4.371   4.060  0.3510 -0.8565 -2.1101
  874SOL     OW 3049   3.724   2.773   1.805 -0.4187  0.3279 -0.0285
  874SOL    HW1 3050   3.712   2.680   1.783  1.2679 -0.0598  0.5286
  874SOL    HW2 3051   3.811   2.794   1.771 -0.3587  1.4176  0.7726
  875SOL     OW 3052   3.178   2.993   4.052 -0.3028 -0.5117 -0.1873
  875SOL    HW1 3053   3.083   2.990   4.050 -0.2840 -1.6289 -0.6035
  875SOL    HW2 3054   3.203   2.937   4.126  0.0088  2.5562  2.2177
  876SOL     OW 3055   4.133   3.099   3.831 -0.2051  0.4248  0.4261
  876SOL    HW1 3056   4.181   3.108   3.749  1.1412 -1.9922  0.8498
  876SOL    HW2 3057   4.041   3.089   3.804 -0.0190  1.4536 -0.6465
  877SOL     OW 3058   5.530   1.249   3.351 -0.1417  0.6708  0.0236
  877SOL    HW1 3059   5.523   1.312   3.422  1.3558  1.1410 -0.2030
  877SOL    HW2 3060   5.440   1.223   3.332 -0.6235  1.2030  1.4839
  878SOL     OW 3061   3.101   5.553   3.566  0.0217  0.7428 -0.2466
  878SOL    HW1 3062   3.190   5.525   3.587 -1.1900 -2.3497  1.4171
  878SOL    HW2 3063   3.059   5.475   3.529 -2.0203  2.1126 -1.0320
  879SOL     OW 3064   5.763   1.311   4.181 -0.7864 -0.0825  0.0402
  879SOL    HW1 3065   5.717   1.227   4.178 -1.5601  0.0845  3.3094
  879SOL    HW2 3066   5.793   1.325   4.091 -3.1925 -2.4025 -1.2739
  880SOL     OW 3067   2.179   5.698   5.090 -0.2793 -0.5304  0.6268
  880SOL    HW1 3068   2.108   5.758   5.067  0.7083  0.3283 -0.3090
  880SOL    HW2 3069   2.134   5.617   5.114 -1.5648 -0.1221 -0.2523
  881SOL     OW 3070   2.463   6.147   1.613  0.3780 -0.2103 -0.1923
  881SOL    HW1 3071   2.460   6.233   1.655  2.5596  0.1797 -0.7229
  881SOL    HW2 3072   2.412   6.158   1.533 -0.5628  0.1526  0.4428
  882SOL     OW 3073   0.640   3.033   0.238 -0.0852 -0.2754 -0.0247
  882SOL    HW1 3074   0.595   3.043   0.322 -0.7579 -1.2875 -0.2544
  882SOL    HW2 3075   0.702   2.962   0.252  0.3419  0.0611 -0.1760
  883SOL     OW 3076   5.585   2.743   3.013 -0.6068 -0.1758 -0.2513
  883SOL    HW1 3077   5.513   2.709   3.066 -0.6432  0.1118 -0.1107
  883SOL    HW2 3078   5.564   2.836   3.002 -0.2369 -0.0803 -0.1728
  884SOL     OW 3079   5.044   0.654   4.462 -0.2281  0.0398 -0.4625
  884SOL    HW1 3080   5.064   0.746   4.445 -1.0119  0.0168 -1.5846
  884SOL    HW2 3081   5.128   0.609   4.451  0.2528  0.6640  0.5524
  885SOL     OW 3082   5.390   3.557   3.031  0.0904  0.6188 -0.4286
  885SOL    HW1 3083   5.455   3.514   3.086 -1.2710 -0.5616  0.3392
  885SOL    HW2 3084   5.306   3.533   3.071 -0.9125  0.4205 -2.5521
  886SOL     OW 3085   3.591   0.791   1.102  0.0751  0.5436  0.1464
  886SOL    HW1 3086   3.534   0.865   1.082 -0.5925 -0.1047 -0.4546
  886SOL    HW2 3087   3.531   0.717   1.112  0.6398  0.2707  1.7843
  887SOL     OW 3088   3.938   3.826   0.687  0.1135  0.1851 -0.1768
  887SOL    HW1 3089   3.933   3.918   0.715 -0.6422  0.7651 -2.0989
  887SOL    HW2 3090   4.003   3.787   0.746  0.6488  2.0163  0.5116
  888SOL     OW 3091   3.527   3.239   0.271  0.2140 -0.6475  0.1598
  888SOL    HW1 3092   3.567   3.304   0.328  0.0845 -0.9889  0.6517
  888SOL    HW2 3093   3.471   3.187   0.330 -0.0807 -0.8743 -0.3159
  889SOL     OW 3094   1.740   3.464   0.822 -0.0766  0.2284 -0.6839
  889SOL    HW1 3095   1.736   3.478   0.917 -0.1025 -0.6243 -0.5507
  889SOL    HW2 3096   1.833   3.445   0.806  0.1337  1.4109 -0.9989
  890SOL     OW 3097   5.287   1.797   2.560 -0.2224  0.0554  0.1287
  890SOL    HW1 3098   5.363   1.855   2.553 -1.4905  1.9113  1.0059
  890SOL    HW2 3099   5.282   1.753   2.475  2.4161 -0.9291  0.3953
  891SOL     OW 3100   0.955   3.786   5.457  0.0071  0.1884 -0.0682
  891SOL    HW1 3101   1.050   3.777   5.466 -0.0846 -1.2228 -0.3320
  891SOL    HW2 3102   0.918   3.726   5.522 -0.7104  0.6617 -0.0226
  892SOL     OW 3103   4.916   4.709   1.534  0.0236 -0.1026 -0.3576
  892SOL    HW1 3104   4.978   4.782   1.536 -0.4255  0.3116 -1.0821
  892SOL    HW2 3105   4.833   4.748   1.507  0.1335 -1.1012 -2.3874
  893SOL     OW 3106   5.702   3.979   2.919 -0.8232 -0.8708  0.4734
  893SOL    HW1 3107   5.655   3.901   2.888 -2.6529 -0.4219  1.9444
  893SOL    HW2 3108   5.741   3.952   3.002 -0.2529 -0.6223  0.2895
  894SOL     OW 3109   1.515   5.443   5.769 -0.1487  0.3842 -0.6949
  894SOL    HW1 3110   1.440   5.391   5.800 -0.0993 -0.4505 -1.8927
  894SOL    HW2 3111   1.490   5.534   5.786 -0.0902 -0.0111  1.7861
  895SOL     OW 3112   0.590   5.948   3.954  0.2781  0.0973 -0.1836
  895SOL    HW1 3113   0.680   5.936   3.985  0.3085  1.5702  0.3707
  895SOL    HW2 3114   0.545   5.989   4.028 -0.1562  1.8541 -1.3770
  896SOL     OW 3115   4.874   4.881   0.664 -0.3772 -0.2420 -0.2014
  896SOL    HW1 3116   4.925   4.840   0.734 -0.7743 -0.4132 -0.0088
  896SOL    HW2 3117   4.885   4.823   0.589 -0.3664 -0.3294 -0.1328
  897SOL     OW 3118   1.308   2.434   2.547  0.2271 -0.2429  0.4695
  897SOL    HW1 3119   1.340   2.505   2.603 -0.0785  1.0725 -0.9646
  897SOL    HW2 3120   1.216   2.455   2.531  0.3551 -0.4632 -0.6736
  898SOL     OW 3121   0.986   0.756   3.025  0.1849  0.5021 -0.1160
  898SOL    HW1 3122   0.963   0.675   3.071 -1.6217  1.1200  0.1443
  898SOL    HW2 3123   0.929   0.756   2.948  1.4349  0.6783 -1.0541
  899SOL     OW 3124   2.834   3.574   0.889  0.7528 -0.1764  0.0869
  899SOL    HW1 3125   2.899   3.514   0.851 -0.0225 -0.1864 -1.3254
  899SOL    HW2 3126   2.792   3.523   0.958  0.5544 -1.0705 -0.6673
  900SOL     OW 3127   4.264   0.479   2.040  0.3917 -0.3776  0.3247
  900SOL    HW1 3128   4.214   0.488   1.959  0.6311  1.7366  0.3758
  900SOL    HW2 3129   4.354   0.498   2.015  0.6047 -0.5760  0.9237
  901SOL     OW 3130   1.005   3.908   3.587 -0.1250  0.4612  0.1171
  901SOL    HW1 3131   1.085   3.961   3.589  0.0495  0.1695  1.7425
  901SOL    HW2 3132   0.952   3.942   3.659 -1.5145  0.6860 -0.9674
  902SOL     OW 3133   0.461   0.502   0.279 -0.3721 -0.2196 -0.3017
  902SOL    HW1 3134   0.402   0.448   0.227  0.7931 -2.0668  0.2208
  902SOL    HW2 3135   0.538   0.514   0.223  0.6014 -1.6402  0.6625
  903SOL     OW 3136   2.920   3.475   5.766  0.6820 -0.0210  0.5185
  903SOL    HW1 3137   2.913   3.391   5.721  0.1200  0.8346 -1.0569
  903SOL    HW2 3138   2.961   3.533   5.702 -1.2486  1.5559  0.6281
  904SOL     OW 3139   4.665   4.485   4.869 -0.4346 -0.5871 -0.0424
  904SOL    HW1 3140   4.598   4.485   4.800  0.1673 -0.5830 -0.6337
  904SOL    HW2 3141   4.717   4.563   4.851 -0.7460 -0.1428  0.9000
  905SOL     OW 3142   4.247   2.907   1.312 -0.2170 -0.2755 -0.3314
  905SOL    HW1 3143   4.168   2.861   1.283 -0.7029  0.5834 -0.4292
  905SOL    HW2 3144   4.276   2.955   1.234  0.2881 -0.4310 -0.2391
  906SOL     OW 3145   2.929   1.542   0.836 -0.7469 -0.4402 -0.0106
  906SOL    HW1 3146   2.985   1.485   0.888 -0.6448  0.3461  0.7861
  906SOL    HW2 3147   2.983   1.569   0.762  0.0377  0.4746  0.8570
  907SOL     OW 3148   5.084   1.232   0.753  0.2510 -0.0792  0.4892
  907SOL    HW1 3149   5.094   1.148   0.797 -0.4851  0.3561  1.5294
  907SOL    HW2 3150   5.053   1.210   0.666  1.2834 -0.9365  0.3153
  908SOL     OW 3151   1.434   1.068   0.152 -0.1051  0.3836  0.4150
  908SOL    HW1 3152   1.390   1.145   0.190 -1.0215 -0.3209  0.8010
  908SOL    HW2 3153   1.363   1.005   0.137  0.6857 -0.5140  0.4111
  909SOL     OW 3154   3.805   4.066   6.104  0.9445 -0.3960 -0.6768
  909SOL    HW1 3155   3.832   4.150   6.068  0.3446 -0.4585 -1.2879
  909SOL    HW2 3156   3.727   4.042   6.054 -1.0207  0.3486  1.7781
  910SOL     OW 3157   2.582   5.534   4.619 -0.2763 -0.3147 -0.3506
  910SOL    HW1 3158   2.545   5.621   4.609  0.8541  0.3279  0.6958
  910SOL    HW2 3159   2.624   5.536   4.706  0.2754 -1.6968 -0.5569
  911SOL     OW 3160   0.784   2.806   0.556 -0.7754  0.7458  0.3139
  911SOL    HW1 3161   0.803   2.754   0.477 -1.1334  1.4255 -0.2325
  911SOL    HW2 3162   0.833   2.887   0.543 -0.1288  0.5170  1.2139
  912SOL     OW 3163   3.389   6.044   5.009  0.1890  0.6186 -0.1207
  912SOL    HW1 3164   3.419   6.093   5.086 -0.7482  0.0839  0.6017
  912SOL    HW2 3165   3.346   6.110   4.954 -0.4294  0.7498  0.5052
  913SOL     OW 3166   0.983   0.196   3.156 -0.4086  0.1024  0.0520
  913SOL    HW1 3167   1.017   0.282   3.132 -1.0080  0.3208 -0.0094
  913SOL    HW2 3168   0.894   0.194   3.121  0.0579 -1.0643 -1.1734
  914SOL     OW 3169   4.573   5.827   3.243 -0.1058  0.5773 -0.1939
  914SOL    HW1 3170   4.633   5.758   3.216 -0.2944 -0.9671  2.9233
  914SOL    HW2 3171   4.630   5.898   3.274  0.1448  0.1607  0.3280
  915SOL     OW 3172   0.852   3.118   3.548  0.1312  0.1699  0.4025
  915SOL    HW1 3173   0.840   3.070   3.630 -0.9257  0.0119  0.1688
  915SOL    HW2 3174   0.876   3.051   3.484  2.9968  0.5354  0.9573
  916SOL     OW 3175   3.003   2.624   2.945  0.5347 -0.0351 -0.5398
  916SOL    HW1 3176   3.024   2.631   3.038  1.2017 -0.1962 -0.6702
  916SOL    HW2 3177   2.937   2.555   2.940  0.8416 -0.3579 -0.2302
  917SOL     OW 3178   5.163   2.816   4.425  0.4966  0.4841 -0.1982
  917SOL    HW1 3179   5.214   2.735   4.416  0.3428  0.4054 -0.3607
  917SOL    HW2 3180   5.073   2.789   4.407  0.1919  0.3461  1.4000
  918SOL     OW 3181   4.660   0.199   1.010  0.2640 -0.0893 -0.5770
  918SOL    HW1 3182   4.581   0.249   1.026  0.9914  0.7199  0.6548
  918SOL    HW2 3183   4.695   0.233   0.928  0.4822  1.1079 -0.0028
  919SOL     OW 3184   4.658   4.841   1.593 -0.3632 -0.2469  0.2818
  919SOL    HW1 3185   4.599   4.778   1.634  0.5742 -1.4564 -0.1923
  919SOL    HW2 3186   4.682   4.901   1.664 -1.1402 -0.5026  0.7734
  920SOL     OW 3187   5.928   3.310   6.101  0.1801  0.1724  0.1534
  920SOL    HW1 3188   6.007   3.289   6.052  0.5164  0.6411  0.4834
  920SOL    HW2 3189   5.864   3.245   6.072  1.2865 -1.5864  1.4358
  921SOL     OW 3190   4.779   5.507   3.790 -0.1533 -0.2517  0.0901
  921SOL    HW1 3191   4.853   5.560   3.818 -1.5846  2.1410 -0.3469
  921SOL    HW2 3192   4.793   5.495   3.696  0.3329 -0.9668  0.2455
  922SOL     OW 3193   1.420   4.219   3.256  0.1149  0.1679  0.8472
  922SOL    HW1 3194   1.415   4.131   3.293  0.2316  0.2922  1.1677
  922SOL    HW2 3195   1.512   4.231   3.233 -0.1817 -0.4039 -0.7431
  923SOL     OW 3196   0.731   0.112   0.711 -0.0015  0.6347 -0.5044
  923SOL    HW1 3197   0.805   0.111   0.771 -0.6109  0.8533  0.2822
  923SOL    HW2 3198   0.679   0.035   0.736  0.2925  0.1091 -1.4880
  924SOL     OW 3199   4.539   5.736   0.928 -0.4237 -0.2367  0.0509
  924SOL    HW1 3200   4.607   5.763   0.989 -1.0339  0.7151  0.3390
  924SOL    HW2 3201   4.519   5.816   0.877 -2.4013 -0.0390  1.0446
  925SOL     OW 3202   2.342   2.893   2.349 -0.5446  0.4989  0.2932
  925SOL    HW1 3203   2.363   2.937   2.431 -2.0917  2.4963 -0.3117
  925SOL    HW2 3204   2.384   2.947   2.282  0.0389 -0.6642 -0.3002
  926SOL     OW 3205   6.178   4.279   5.418  0.0697 -0.4438 -0.4455
  926SOL    HW1 3206   6.234   4.349   5.452 -0.6197  1.4164 -2.8681
  926SOL    HW2 3207   6.110   4.268   5.484 -0.0982  1.6058 -0.1970
  927SOL     OW 3208   0.372   1.874   4.123 -0.7513 -0.4720 -0.4138
  927SOL    HW1 3209   0.423   1.897   4.201 -0.6368 -0.3895 -0.5137
  927SOL    HW2 3210   0.281   1.885   4.150 -0.7288 -0.9393 -0.1324
  928SOL     OW 3211   5.931   5.386   2.837  0.4289  0.1159  0.1504
  928SOL    HW1 3212   5.971   5.299   2.839 -1.0238 -0.6665 -1.6319
  928SOL    HW2 3213   5.917   5.403   2.743 -1.9939  0.9627  0.5998
  929SOL     OW 3214   0.946   1.715   0.417  0.0410  0.1301  0.4563
  929SOL    HW1 3215   0.912   1.647   0.359 -1.3251 -1.6382  3.1464
  929SOL    HW2 3216   1.033   1.685   0.441  0.4382  0.6536 -0.2648
  930SOL     OW 3217   3.298   3.874   2.098 -0.0287 -0.5928  0.0702
  930SOL    HW1 3218   3.316   3.838   2.011  0.9582  1.3496 -0.5752
  930SOL    HW2 3219   3.247   3.953   2.081 -0.8873 -0.8349  1.3541
  931SOL     OW 3220   4.877   4.959   5.415 -0.1426  0.3223 -0.3394
  931SOL    HW1 3221   4.799   4.985   5.367 -0.8898 -0.6180  0.3391
  931SOL    HW2 3222   4.896   4.870   5.385 -1.9629 -1.2180  2.6454
  932SOL     OW 3223   2.461   5.793   4.092 -0.1705 -0.6300 -0.1812
  932SOL    HW1 3224   2.431   5.726   4.030 -0.5040 -1.4940  0.8760
  932SOL    HW2 3225   2.466   5.873   4.040  0.2551 -1.4713 -1.4895
  933SOL     OW 3226   5.338   3.606   5.716 -0.2780 -0.1493 -0.6700
  933SOL    HW1 3227   5.303   3.547   5.782 -1.4582 -0.0751 -1.1992
  933SOL    HW2 3228   5.273   3.604   5.645 -1.8809  3.7871  0.3766
  934SOL     OW 3229   4.320   4.096   0.955 -0.1553 -0.0159  0.4180
  934SOL    HW1 3230   4.390   4.128   1.011  0.6825 -1.8733  0.5141
  934SOL    HW2 3231   4.305   4.167   0.893  2.7864 -0.0371 -0.4798
  935SOL     OW 3232   2.888   3.827   0.812 -0.4348 -0.4429 -0.0792
  935SOL    HW1 3233   2.885   3.737   0.844 -1.7795 -0.6046 -0.5980
  935SOL    HW2 3234   2.828   3.828   0.738 -0.7651  0.9869  0.1866
  936SOL     OW 3235   2.895   3.024   2.111  0.3784 -0.3696 -0.3536
  936SOL    HW1 3236   2.919   3.117   2.119  0.4754 -0.1489 -2.6516
  936SOL    HW2 3237   2.940   2.994   2.032 -1.9476 -1.5876 -1.3098
  937SOL     OW 3238   0.968   4.101   5.138  0.5152  0.1887 -0.3595
  937SOL    HW1 3239   0.916   4.148   5.204 -1.0046 -0.8882 -0.7524
  937SOL    HW2 3240   0.911   4.097   5.061  1.9126  0.6118 -1.4579
  938SOL     OW 3241   0.810   4.731   0.904  0.0395  0.0044 -0.6031
  938SOL    HW1 3242   0.827   4.780   0.985 -0.4870  0.9953 -1.0769
  938SOL    HW2 3243   0.896   4.722   0.863  0.1125  0.8120 -0.6522
  939SOL     OW 3244   5.014   3.755   5.953  0.0679  0.1644 -0.1567
  939SOL    HW1 3245   5.094   3.774   5.903  0.3454 -0.3125  0.0938
  939SOL    HW2 3246   4.960   3.833   5.942  1.9525  2.0338  2.4309
  940SOL     OW 3247   5.844   5.695   4.402 -0.0712 -0.1376  0.1107
  940SOL    HW1 3248   5.897   5.760   4.355  1.0302 -0.3483  1.0260
  940SOL    HW2 3249   5.884   5.611   4.380 -0.2888 -0.3392  0.4893
  941SOL     OW 3250   0.164   5.929   0.441 -0.5194  0.6029 -0.0643
  941SOL    HW1 3251   0.245   5.881   0.430 -0.6819  0.2718  0.1452
  941SOL    HW2 3252   0.191   6.018   0.465 -0.2186  0.6196 -0.4688
  942SOL     OW 3253   3.947   2.204   0.696 -0.1632 -0.2984 -0.1680
  942SOL    HW1 3254   3.943   2.124   0.747  0.2802  0.8765  1.8232
  942SOL    HW2 3255   3.884   2.191   0.625 -1.2765 -1.7852  1.0236
  943SOL     OW 3256   5.536   4.281   4.204 -0.1995 -0.3398 -0.5534
  943SOL    HW1 3257   5.484   4.307   4.280  0.1333 -0.5353 -0.2538
  943SOL    HW2 3258   5.483   4.214   4.160 -0.0394 -0.8238 -0.0312
  944SOL     OW 3259   2.399   1.561   3.651  0.3422 -0.2240 -0.1511
  944SOL    HW1 3260   2.400   1.614   3.731 -0.1482  0.3078 -0.4871
  944SOL    HW2 3261   2.457   1.487   3.670  1.6245  0.8247  0.0550
  945SOL     OW 3262   5.982   1.419   1.030 -0.0535  0.6807 -0.3051
  945SOL    HW1 3263   6.054   1.357   1.013 -0.6263 -0.1475  0.2407
  945SOL    HW2 3264   6.002   1.494   0.974  0.2663 -0.2936 -1.5486
  946SOL     OW 3265   3.097   0.321   0.795  0.3375  0.2970 -0.0268
  946SOL    HW1 3266   3.071   0.229   0.791 -1.0974  0.6148  1.0697
  946SOL    HW2 3267   3.102   0.339   0.889 -0.8718  1.7045 -0.2025
  947SOL     OW 3268   2.078   0.649   0.916  0.3697  0.3057  0.2997
  947SOL    HW1 3269   2.058   0.579   0.853  2.0722  0.7415 -0.7831
  947SOL    HW2 3270   2.152   0.616   0.966 -0.3737  0.3580  1.4847
  948SOL     OW 3271   1.498   5.715   5.787  0.1395 -0.7339 -0.3709
  948SOL    HW1 3272   1.404   5.697   5.784  0.1130 -0.4974 -1.4931
  948SOL    HW2 3273   1.511   5.783   5.721  0.8995  0.2173  0.7172
  949SOL     OW 3274   4.591   5.932   2.981 -0.0971 -0.6710  0.0985
  949SOL    HW1 3275   4.585   5.878   3.060  1.3612 -0.8873  0.0786
  949SOL    HW2 3276   4.643   5.880   2.920 -2.2796 -1.0880 -1.5247
  950SOL     OW 3277   2.888   1.504   2.044 -0.1596 -0.3669  0.0332
  950SOL    HW1 3278   2.958   1.446   2.075  3.2266  2.6421 -1.2420
  950SOL    HW2 3279   2.895   1.501   1.949 -0.4170  1.4141 -0.0836
  951SOL     OW 3280   0.552   6.234   3.600 -0.6182  0.6269 -0.1580
  951SOL    HW1 3281   0.578   6.316   3.558  2.9305 -0.4580 -0.4054
  951SOL    HW2 3282   0.550   6.254   3.694  1.1389  0.8580 -0.1370
  952SOL     OW 3283   3.669   3.717   5.893  0.6400  0.3965  0.2519
  952SOL    HW1 3284   3.692   3.800   5.851  0.1277 -0.2934 -1.5016
  952SOL    HW2 3285   3.714   3.651   5.841 -1.7231 -0.6524 -0.5957
  953SOL     OW 3286   2.729   1.575   1.744  0.7819  0.0863  0.4417
  953SOL    HW1 3287   2.642   1.550   1.773  1.6184 -1.6889  1.6116
  953SOL    HW2 3288   2.776   1.492   1.733  2.4631  1.0015  0.2937
  954SOL     OW 3289   4.617   4.989   4.807 -0.0798  0.5158 -0.1501
  954SOL    HW1 3290   4.681   5.044   4.852 -0.9224 -0.2831  2.2441
  954SOL    HW2 3291   4.585   5.042   4.735  0.0815  2.6865  1.2777
  955SOL     OW 3292   2.818   5.486   3.088  0.2974  0.2122 -0.6125
  955SOL    HW1 3293   2.760   5.412   3.070  0.3910  0.3109 -1.3463
  955SOL    HW2 3294   2.906   5.453   3.066  0.3277  0.5706 -1.0513
  956SOL     OW 3295   6.193   0.826   3.545  0.4107  0.1840  0.9814
  956SOL    HW1 3296   6.142   0.884   3.489  1.1025 -1.5913 -1.6800
  956SOL    HW2 3297   6.283   0.833   3.511  0.7694 -1.3329  1.5264
  957SOL     OW 3298   4.408   1.449   5.055  0.5228  0.3009 -0.2383
  957SOL    HW1 3299   4.358   1.453   5.137 -0.7668  2.7039 -1.0670
  957SOL    HW2 3300   4.342   1.452   4.986  1.7065  1.8526 -1.3647
  958SOL     OW 3301   0.589   0.314   4.858  0.8361  0.1490  0.2247
  958SOL    HW1 3302   0.508   0.310   4.807 -0.5641 -0.7899  2.3451
  958SOL    HW2 3303   0.589   0.402   4.896  1.4771  0.5813 -0.7620
  959SOL     OW 3304   4.264   1.542   1.735 -0.2276  0.4620  0.2120
  959SOL    HW1 3305   4.234   1.482   1.667 -1.0123 -0.5366  1.3916
  959SOL    HW2 3306   4.201   1.614   1.734 -0.4842  0.2352  0.1719
  960SOL     OW 3307   0.476   5.628   4.169 -0.2917 -0.5567 -0.1171
  960SOL    HW1 3308   0.530   5.560   4.130 -0.9490 -1.0065 -0.2642
  960SOL    HW2 3309   0.395   5.628   4.118  0.8624  2.5806 -2.2860
  961SOL     OW 3310   2.145   2.056   4.191 -0.0430 -0.2908  0.0875
  961SOL    HW1 3311   2.190   2.139   4.208  1.6128 -1.2335  0.5355
  961SOL    HW2 3312   2.162   2.003   4.268 -0.6430 -1.2385 -0.4115
  962SOL     OW 3313   2.386   4.379   5.318  0.1237 -0.0665 -0.4768
  962SOL    HW1 3314   2.315   4.316   5.309  0.6416 -0.6992 -0.2958
  962SOL    HW2 3315   2.424   4.359   5.404 -0.4325  1.2800  0.1036
  963SOL     OW 3316   4.034   4.412   3.499  0.0715 -0.2911 -0.2483
  963SOL    HW1 3317   4.048   4.347   3.568 -0.5597  0.4310  0.5763
  963SOL    HW2 3318   4.058   4.366   3.418  1.4997 -0.9124  0.5089
  964SOL     OW 3319   3.013   1.343   0.435  0.0019  0.5195 -0.1685
  964SOL    HW1 3320   2.986   1.308   0.350 -2.0399  0.2503  0.5218
  964SOL    HW2 3321   3.082   1.284   0.466 -1.3339 -1.2083 -0.3342
  965SOL     OW 3322   1.258   5.624   0.504  0.0306 -0.3757 -0.3440
  965SOL    HW1 3323   1.290   5.639   0.415 -0.6115 -1.8212 -0.8457
  965SOL    HW2 3324   1.219   5.537   0.501 -0.6920 -0.1316  1.1653
  966SOL     OW 3325   6.005   3.672   2.769 -0.1346  0.0255 -0.2304
  966SOL    HW1 3326   6.073   3.677   2.835 -1.1371 -0.7676  0.8968
  966SOL    HW2 3327   6.037   3.727   2.697  0.7696  1.2717  1.0770
  967SOL     OW 3328   3.193   1.819   2.434  0.3008 -0.1020 -0.1506
  967SOL    HW1 3329   3.261   1.885   2.446 -0.6409  0.9340 -0.3432
  967SOL    HW2 3330   3.130   1.836   2.505  0.4736 -1.3787  0.3522
  968SOL     OW 3331   0.219   3.783   5.523 -0.2789 -0.0634  0.2343
  968SOL    HW1 3332   0.133   3.766   5.483 -0.3217 -0.7421  0.6037
  968SOL    HW2 3333   0.204   3.859   5.580  0.0529  1.7058 -1.9025
  969SOL     OW 3334   3.383   6.092   4.063 -0.0708  0.2116  0.0895
  969SOL    HW1 3335   3.392   6.057   3.975  2.9237  0.2278  0.2891
  969SOL    HW2 3336   3.416   6.181   4.058 -1.1001  0.6721  0.9958
  970SOL     OW 3337   2.650   0.967   5.644  0.5174 -0.4249 -0.6967
  970SOL    HW1 3338   2.581   0.976   5.578  0.0519  1.9230 -0.0190
  970SOL    HW2 3339   2.605   0.930   5.720 -0.3158  1.9290  0.0436
  971SOL     OW 3340   4.443   0.688   0.498 -0.0736  0.2533 -0.7540
  971SOL    HW1 3341   4.489   0.637   0.565 -2.8900  0.1554  1.3111
  971SOL    HW2 3342   4.512   0.721   0.441  2.4605 -0.3640  1.7103
  972SOL     OW 3343   0.890   0.167   3.459  0.0733  0.5154  0.3169
  972SOL    HW1 3344   0.971   0.210   3.430 -1.7684  3.5449 -0.9248
  972SOL    HW2 3345   0.870   0.104   3.390  0.2437  1.4003 -0.5669
  973SOL     OW 3346   2.574   3.535   3.347 -0.0013 -0.3588 -0.0364
  973SOL    HW1 3347   2.499   3.481   3.323 -0.5452 -1.4502  3.4879
  973SOL    HW2 3348   2.649   3.490   3.309 -0.7968 -1.5255 -0.2893
  974SOL     OW 3349   2.392   1.006   2.229 -0.0877  0.0951 -0.0800
  974SOL    HW1 3350   2.425   1.013   2.318 -1.1891  0.7266  0.2885
  974SOL    HW2 3351   2.337   0.928   2.228  0.0402  0.0050 -0.2481
  975SOL     OW 3352   1.961   0.189   4.153 -0.2099 -0.1187 -0.3778
  975SOL    HW1 3353   2.051   0.216   4.135  1.1087 -2.3498  2.0731
  975SOL    HW2 3354   1.907   0.260   4.119  2.6025  2.9147  0.9389
  976SOL     OW 3355   0.071   5.775   1.014  0.1238 -0.3595 -0.7767
  976SOL    HW1 3356   0.138   5.805   1.075 -0.8728  0.3811 -0.0035
  976SOL    HW2 3357   0.080   5.680   1.012 -0.5690 -0.5351  1.4824
  977SOL     OW 3358   1.419   0.186   0.962  0.5390 -0.1196  0.3009
  977SOL    HW1 3359   1.371   0.185   1.045 -1.0311 -0.1761 -0.5590
  977SOL    HW2 3360   1.505   0.222   0.984  0.5960 -1.2566  2.1597
  978SOL     OW 3361   0.031   2.225   3.327  0.8106 -0.4884  0.6645
  978SOL    HW1 3362   0.016   2.153   3.388  1.1851 -1.1771 -0.0546
  978SOL    HW2 3363  -0.038   2.215   3.261  0.4048  0.2584  0.9515
  979SOL     OW 3364   0.164   3.350   0.831 -0.3038  0.2093 -0.4005
  979SOL    HW1 3365   0.095   3.369   0.767  0.3344 -0.8999 -1.4408
  979SOL    HW2 3366   0.245   3.347   0.780  0.1968 -0.8573  0.4189
  980SOL     OW 3367   4.570   2.187   1.616  0.1015 -0.0296 -0.5256
  980SOL    HW1 3368   4.648   2.192   1.670 -0.1992 -2.0844  0.1769
  980SOL    HW2 3369   4.501   2.157   1.675 -1.2891  1.8051 -1.1098
  981SOL     OW 3370   5.303   3.368   0.904 -0.4028  0.2185 -0.3823
  981SOL    HW1 3371   5.250   3.443   0.875  0.3608  0.8900 -0.1025
  981SOL    HW2 3372   5.252   3.291   0.879 -0.8052  0.8150 -1.4782
  982SOL     OW 3373   0.604   4.761   3.803 -0.1815  0.2019  0.1933
  982SOL    HW1 3374   0.537   4.771   3.871 -0.7233 -2.3445  0.1116
  982SOL    HW2 3375   0.594   4.671   3.772 -1.4102  1.7485 -4.7865
  983SOL     OW 3376   1.413   0.778   1.970 -0.3086  0.0183  0.5018
  983SOL    HW1 3377   1.490   0.732   1.936 -1.0393 -0.1907 -0.9783
  983SOL    HW2 3378   1.434   0.797   2.061 -0.1092 -3.6406  1.3773
  984SOL     OW 3379   1.860   3.921   2.597 -0.4379  0.8768 -0.0948
  984SOL    HW1 3380   1.774   3.955   2.623  0.0856  1.4727  0.9284
  984SOL    HW2 3381   1.870   3.949   2.506 -0.9900  1.5070  0.0293
  985SOL     OW 3382   0.947   6.006   4.381 -0.0758  0.1621 -0.2660
  985SOL    HW1 3383   1.037   5.997   4.413  0.2222  1.2236 -0.7342
  985SOL    HW2 3384   0.898   5.939   4.428  0.7446  0.2911  0.8316
  986SOL     OW 3385   1.045   1.807   5.889 -0.5723 -0.5596 -0.0890
  986SOL    HW1 3386   1.040   1.767   5.802 -0.8972 -1.1462  0.1939
  986SOL    HW2 3387   0.957   1.795   5.926 -0.7382  0.6025 -0.0722
  987SOL     OW 3388   5.948   4.687   2.064 -0.7366  0.5837  0.2134
  987SOL    HW1 3389   6.004   4.635   2.122 -1.0866  0.0914  0.1178
  987SOL    HW2 3390   5.990   4.682   1.978 -0.8179  0.3883  0.1856
  988SOL     OW 3391   3.364   2.080   3.279 -0.1743  0.0884  0.1545
  988SOL    HW1 3392   3.354   2.061   3.372 -1.1893  1.4558  0.3552
  988SOL    HW2 3393   3.453   2.113   3.270  0.1695 -0.7344  0.5098
  989SOL     OW 3394   5.727   0.248   3.356 -0.0323  0.4509 -0.7666
  989SOL    HW1 3395   5.774   0.165   3.370  1.5066  1.6578  2.0730
  989SOL    HW2 3396   5.641   0.233   3.395 -0.1273 -0.0990 -1.1689
  990SOL     OW 3397   5.803   2.319   0.662 -0.4545 -0.6608 -0.1905
  990SOL    HW1 3398   5.734   2.255   0.672 -0.7112 -0.2105  0.9991
  990SOL    HW2 3399   5.838   2.302   0.574 -0.6019 -2.3200  0.0360
  991SOL     OW 3400   2.333   5.356   0.199  0.5708 -0.0072 -0.3593
  991SOL    HW1 3401   2.393   5.296   0.153 -0.5839 -1.4707 -0.0462
  991SOL    HW2 3402   2.246   5.321   0.181 -0.1657  1.6906 -0.2526
  992SOL     OW 3403   5.876   1.079   2.673  0.0400  0.2976  0.3403
  992SOL    HW1 3404   5.890   1.046   2.762 -1.5232  0.2224  0.5779
  992SOL    HW2 3405   5.804   1.026   2.639  1.2317 -0.3275 -1.3344
  993SOL     OW 3406   2.721   4.415   2.630 -0.5544  0.6922  0.1864
  993SOL    HW1 3407   2.788   4.347   2.628 -0.3089  0.9440 -0.1221
  993SOL    HW2 3408   2.672   4.397   2.710  0.1116  0.7353  0.6115
  994SOL     OW 3409   6.233   2.288   4.710  0.2350 -0.0229  0.3530
  994SOL    HW1 3410   6.193   2.223   4.768  0.2674 -1.0352 -0.7255
  994SOL    HW2 3411   6.264   2.357   4.769 -3.1614  0.9011  1.2445
  995SOL     OW 3412   4.367   5.359   0.953 -0.0560 -0.0913 -0.2668
  995SOL    HW1 3413   4.359   5.311   1.035  1.8333  0.2841  0.1983
  995SOL    HW2 3414   4.409   5.442   0.978  1.2924 -0.2951 -1.6632
  996SOL     OW 3415   5.297   5.806   4.916 -0.0138 -0.0879 -0.3104
  996SOL    HW1 3416   5.347   5.743   4.865 -1.0506 -1.9413  0.8533
  996SOL    HW2 3417   5.362   5.868   4.948  1.1755 -1.0787 -0.7308
  997SOL     OW 3418   4.417   1.345   3.461  0.1580 -0.9725  0.6666
  997SOL    HW1 3419   4.487   1.283   3.480 -0.7287 -2.7745 -1.5420
  997SOL    HW2 3420   4.344   1.291   3.432 -0.6195  1.0911 -1.5569
  998SOL     OW 3421   2.467   2.089   4.074  0.5368 -0.4064  0.4468
  998SOL    HW1 3422   2.538   2.148   4.051 -0.8167  1.6488  1.2437
  998SOL    HW2 3423   2.502   2.033   4.143  1.7072 -0.2097  0.0279
  999SOL     OW 3424   3.640   1.596   2.776 -0.0104 -0.3872  0.3992
  999SOL    HW1 3425   3.671   1.645   2.700  2.6976  0.1346  1.7356
  999SOL    HW2 3426   3.577   1.654   2.818 -0.5139 -0.1353 -0.6473
 1000SOL     OW 3427   6.160   4.347   0.095 -0.1164  0.7762  0.0415
 1000SOL    HW1 3428   6.226   4.401   0.052  0.4976 -0.2850 -0.3843
 1000SOL    HW2 3429   6.104   4.409   0.141  0.4534  1.7782 -0.5959
 1001SOL     OW 3430   3.013   1.463   2.522 -0.7779 -0.4204 -0.0741
 1001SOL    HW1 3431   3.063   1.399   2.573  1.0405 -1.0549 -2.5136
 1001SOL    HW2 3432   3.040   1.548   2.556  0.4204 -0.8290  0.0091
 1002SOL     OW 3433   3.211   5.576   0.845  0.2624 -0.2751 -0.2680
 1002SOL    HW1 3434   3.137   5.530   0.884 -1.8995  3.4802  0.5508
 1002SOL    HW2 3435   3.284   5.561   0.906 -0.5358 -1.8555  0.3467
 1003SOL     OW 3436   5.870   5.978   2.028 -0.0542  0.0836  0.5814
 1003SOL    HW1 3437   5.940   6.043   2.033 -0.8155  1.0759 -0.9135
 1003SOL    HW2 3438   5.878   5.928   2.109  0.8980  1.6869  1.5314
 1004SOL     OW 3439   3.064   2.703   1.248 -0.0696  0.0332  0.3218
 1004SOL    HW1 3440   3.144   2.729   1.203 -1.3971  2.9034 -0.5776
 1004SOL    HW2 3441   3.060   2.758   1.326 -0.6420 -0.8699  0.9590
 1005SOL     OW 3442   0.063   2.948   5.247  0.1384 -0.2894 -0.0364
 1005SOL    HW1 3443   0.006   2.988   5.313  0.9596  0.6835  0.1280
 1005SOL    HW2 3444   0.007   2.889   5.198 -0.8410  0.1210  0.5642
 1006SOL     OW 3445   0.931   2.848   5.304  0.5749 -0.2676  0.1883
 1006SOL    HW1 3446   0.960   2.939   5.305 -1.2585  0.3627  0.0892
 1006SOL    HW2 3447   0.949   2.817   5.215  2.0221 -0.3101  0.4754
 1007SOL     OW 3448   4.259   3.107   4.524 -0.1344 -0.5499  0.2798
 1007SOL    HW1 3449   4.276   3.155   4.605 -0.6161  0.3582 -0.1441
 1007SOL    HW2 3450   4.226   3.173   4.464 -1.9380 -1.6287  0.0361
 1008SOL     OW 3451   4.517   1.631   4.302  0.0328 -0.3357  0.2616
 1008SOL    HW1 3452   4.496   1.538   4.288 -1.4020 -0.0261  0.2365
 1008SOL    HW2 3453   4.603   1.629   4.344 -0.3328 -1.7176  1.0228
 1009SOL     OW 3454   3.956   5.050   3.204  0.4305 -0.0741 -0.2911
 1009SOL    HW1 3455   4.015   4.978   3.182 -0.2963 -0.9726  0.5871
 1009SOL    HW2 3456   3.908   5.018   3.281 -0.6116  0.9634 -0.4940
 1010SOL     OW 3457   5.236   5.422   4.672  0.3565 -0.3318  0.0104
 1010SOL    HW1 3458   5.294   5.384   4.607 -1.1417  0.9409 -2.2018
 1010SOL    HW2 3459   5.261   5.514   4.678 -1.6773  0.4018 -1.4545
 1011SOL     OW 3460   5.902   3.138   1.261  0.2038  0.3827  0.0404
 1011SOL    HW1 3461   5.839   3.192   1.213  0.4364 -0.4949 -1.2770
 1011SOL    HW2 3462   5.982   3.142   1.210  0.9113  0.5745  1.1220
 1012SOL     OW 3463   5.287   2.730   5.385  0.5611  0.8341  0.1439
 1012SOL    HW1 3464   5.301   2.679   5.305 -1.3470  0.0230  0.2814
 1012SOL    HW2 3465   5.221   2.794   5.361  2.1480  2.6130  0.2835
 1013SOL     OW 3466   2.836   0.418   4.002  0.0463 -0.1774  0.2148
 1013SOL    HW1 3467   2.776   0.492   4.003 -2.3300 -1.9713  0.4645
 1013SOL    HW2 3468   2.830   0.381   4.090  0.6269 -1.0941 -0.1147
 1014SOL     OW 3469   3.682   5.969   0.343  0.1848  0.1919  0.0035
 1014SOL    HW1 3470   3.623   5.987   0.269 -0.4488  0.7471  0.6276
 1014SOL    HW2 3471   3.762   6.016   0.321  0.6669 -1.1102 -1.1682
 1015SOL     OW 3472   2.168   3.535   0.953 -0.2494 -0.0059 -0.2453
 1015SOL    HW1 3473   2.152   3.535   1.047 -0.9625 -2.8087 -0.2709
 1015SOL    HW2 3474   2.262   3.520   0.945 -0.3784 -1.0612  0.0662
 1016SOL     OW 3475   1.883   4.745   1.129  0.2279 -0.0218 -0.0113
 1016SOL    HW1 3476   1.855   4.672   1.184  1.0015 -0.1374  0.2464
 1016SOL    HW2 3477   1.957   4.783   1.176  1.2582 -0.4528 -1.2321
 1017SOL     OW 3478   5.335   0.148   5.116  0.1915 -0.2758  0.1611
 1017SOL    HW1 3479   5.340   0.149   5.021  0.1392 -0.1174  0.1599
 1017SOL    HW2 3480   5.299   0.233   5.139 -1.3943 -0.9478  0.2492
 1018SOL     OW 3481   1.935   5.536   2.472  0.4684 -0.0305  0.1954
 1018SOL    HW1 3482   2.000   5.512   2.539  1.4737 -0.3053 -0.8567
 1018SOL    HW2 3483   1.943   5.631   2.464  0.1905  0.0309  0.6160
 1019SOL     OW 3484   2.590   0.051   4.608 -0.0247 -0.1495  0.6255
 1019SOL    HW1 3485   2.574  -0.021   4.547 -0.9370  0.8258 -0.3129
 1019SOL    HW2 3486   2.517   0.045   4.670  0.1684 -0.3153  0.8413
 1020SOL     OW 3487   3.729   3.043   0.172  0.4071  0.0762  0.0925
 1020SOL    HW1 3488   3.741   3.008   0.083 -1.4458 -0.2460 -0.0626
 1020SOL    HW2 3489   3.655   3.103   0.164  0.5996  0.4977  1.3203
 1021SOL     OW 3490   3.806   4.169   1.589 -0.0684 -0.2319  0.5515
 1021SOL    HW1 3491   3.859   4.120   1.525  2.2338  1.1460  1.2662
 1021SOL    HW2 3492   3.819   4.122   1.671  0.4031  0.3463  0.8128
 1022SOL     OW 3493   1.647   3.979   2.983 -0.5104 -0.3824 -0.0465
 1022SOL    HW1 3494   1.554   3.992   2.996 -0.4284  1.4043 -0.9623
 1022SOL    HW2 3495   1.653   3.908   2.918 -1.4161  1.8562 -2.7773
 1023SOL     OW 3496   2.492   3.979   2.728 -0.5421 -0.0285  0.8681
 1023SOL    HW1 3497   2.443   4.018   2.801 -1.7502 -0.2970  0.2261
 1023SOL    HW2 3498   2.551   3.917   2.770 -0.7772  0.2631  1.6674
 1024SOL     OW 3499   4.584   3.667   1.269 -0.7930  0.1707 -0.1731
 1024SOL    HW1 3500   4.652   3.731   1.249 -1.1684  0.4568 -0.5418
 1024SOL    HW2 3501   4.502   3.716   1.265 -1.0699 -0.2897 -0.3025
 1025SOL     OW 3502   2.252   5.002   3.013  0.2448  0.4575  0.5281
 1025SOL    HW1 3503   2.342   4.974   2.995 -0.7814 -1.7706 -1.7781
 1025SOL    HW2 3504   2.240   5.080   2.959  0.3696 -0.1562 -0.4214
 1026SOL     OW 3505   0.783   3.505   3.406 -0.4566 -0.5472 -0.1534
 1026SOL    HW1 3506   0.863   3.524   3.357 -1.2238 -1.2662 -1.7855
 1026SOL    HW2 3507   0.745   3.590   3.424  1.5574 -0.0469  2.3533
 1027SOL     OW 3508   5.848   0.876   5.844 -0.5764  0.0244  0.4169
 1027SOL    HW1 3509   5.838   0.943   5.776  3.1846  2.1186  1.5967
 1027SOL    HW2 3510   5.854   0.793   5.796 -0.9028  1.0750 -1.5094
 1028SOL     OW 3511   5.586   4.405   2.385 -0.3560 -0.5455  0.3897
 1028SOL    HW1 3512   5.538   4.478   2.425  0.5575  0.3270 -0.0723
 1028SOL    HW2 3513   5.671   4.406   2.429  2.3949  3.1226 -4.1600
 1029SOL     OW 3514   0.362   3.478   5.039  0.8704 -0.3547 -0.3435
 1029SOL    HW1 3515   0.449   3.446   5.061  0.5830  0.4972  2.3738
 1029SOL    HW2 3516   0.350   3.555   5.094 -1.2744  0.1026 -1.3277
 1030SOL     OW 3517   4.045   3.799   1.127  0.5265  1.3268  0.0390
 1030SOL    HW1 3518   4.031   3.873   1.187  0.5595  1.2627  0.1259
 1030SOL    HW2 3519   4.100   3.738   1.176  0.7566  1.3823 -0.1473
 1031SOL     OW 3520   5.038   2.211   1.361  0.2290  0.1628 -0.6278
 1031SOL    HW1 3521   4.985   2.150   1.309 -0.2235  0.1736 -0.1836
 1031SOL    HW2 3522   4.979   2.241   1.430  0.2117  1.7121 -1.2900
 1032SOL     OW 3523   0.189   4.341   2.078  0.1829 -0.3648 -0.7250
 1032SOL    HW1 3524   0.221   4.420   2.035 -1.6210  0.2730 -1.0049
 1032SOL    HW2 3525   0.135   4.373   2.150 -2.0392 -1.2316 -1.9025
 1033SOL     OW 3526   4.473   0.027   0.639 -0.5513 -0.5613  0.1591
 1033SOL    HW1 3527   4.565   0.034   0.615 -0.6306 -1.3295 -0.3896
 1033SOL    HW2 3528   4.442  -0.053   0.596 -1.5478 -0.1615  0.0926
 1034SOL     OW 3529   4.417   4.742   5.660  0.6759  0.2091  0.1504
 1034SOL    HW1 3530   4.392   4.831   5.685 -0.3614 -0.2911  0.9538
 1034SOL    HW2 3531   4.500   4.728   5.705 -0.1281  0.0860  1.6751
 1035SOL     OW 3532   5.050   0.710   0.855 -0.1234 -0.1594 -0.2322
 1035SOL    HW1 3533   5.088   0.790   0.820 -0.1991 -0.3121 -0.6697
 1035SOL    HW2 3534   5.126   0.657   0.881 -0.0820  0.9701  2.2143
 1036SOL     OW 3535   5.039   4.688   2.222 -0.0566  0.5104  0.7436
 1036SOL    HW1 3536   4.955   4.656   2.255 -0.0162  1.0392  1.3880
 1036SOL    HW2 3537   5.091   4.703   2.301  0.0155  1.9048  0.4559
 1037SOL     OW 3538   2.946   2.257   4.754 -0.1262  0.0797  0.2166
 1037SOL    HW1 3539   2.872   2.206   4.785  0.1662 -2.2833 -2.5429
 1037SOL    HW2 3540   2.960   2.228   4.664  1.9617  3.0060 -0.5698
 1038SOL     OW 3541   6.194   6.121   0.944 -1.0382 -0.1134  0.2140
 1038SOL    HW1 3542   6.282   6.155   0.956 -0.7801 -1.0770  1.2411
 1038SOL    HW2 3543   6.144   6.195   0.910  0.0226  0.6069  0.1727
 1039SOL     OW 3544   5.443   4.644   2.154 -0.2601 -0.3791  0.1232
 1039SOL    HW1 3545   5.389   4.589   2.211  0.7561 -1.3972  0.1447
 1039SOL    HW2 3546   5.452   4.726   2.202 -1.1444 -0.4738  0.4652
 1040SOL     OW 3547   4.064   1.028   1.448  0.5842 -0.3843  0.5016
 1040SOL    HW1 3548   3.975   1.053   1.473  0.3143 -1.3878  0.6259
 1040SOL    HW2 3549   4.108   1.110   1.425 -0.7506  0.0034 -0.7821
 1041SOL     OW 3550   5.295   0.390   6.142 -0.2893  1.1003 -0.6323
 1041SOL    HW1 3551   5.225   0.395   6.207  0.1421  0.7727 -0.1364
 1041SOL    HW2 3552   5.278   0.463   6.083 -2.3957 -0.3093 -1.8734
 1042SOL     OW 3553   5.327   2.581   1.754  0.0057  0.1666 -0.2487
 1042SOL    HW1 3554   5.318   2.665   1.800 -0.6228  1.6678 -2.9127
 1042SOL    HW2 3555   5.298   2.599   1.664 -1.2530 -3.1965 -0.6866
 1043SOL     OW 3556   3.714   4.443   1.328  0.1479  0.0628  0.0030
 1043SOL    HW1 3557   3.708   4.358   1.283  1.4114  0.6647 -1.3874
 1043SOL    HW2 3558   3.667   4.504   1.270  0.3208  0.5478  0.3706
 1044SOL     OW 3559   5.096   2.866   5.083  0.0679  0.2747  0.3343
 1044SOL    HW1 3560   5.039   2.874   5.007  0.2951  0.3276  0.1684
 1044SOL    HW2 3561   5.127   2.956   5.099  1.6710 -0.0325 -0.7882
 1045SOL     OW 3562   3.614   0.546   3.912  0.5731  0.0023  0.7896
 1045SOL    HW1 3563   3.677   0.579   3.976  2.6590  0.7462 -1.4758
 1045SOL    HW2 3564   3.668   0.502   3.846 -1.7382 -4.3499  1.4263
 1046SOL     OW 3565   3.048   5.531   4.665  0.1142 -0.7356  0.0107
 1046SOL    HW1 3566   3.030   5.521   4.571 -0.3204  1.6794 -0.2352
 1046SOL    HW2 3567   3.144   5.529   4.671  0.1409 -1.0955 -0.4479
 1047SOL     OW 3568   3.098   2.306   1.932 -0.4001 -0.2930 -0.2738
 1047SOL    HW1 3569   3.025   2.253   1.965 -0.5695 -0.6347 -1.1852
 1047SOL    HW2 3570   3.060   2.391   1.912 -0.5465 -0.4587 -0.7103
 1048SOL     OW 3571   4.994   1.608   5.001 -0.1955  0.0671 -0.3351
 1048SOL    HW1 3572   4.977   1.632   4.910  4.8032 -0.2719 -1.6476
 1048SOL    HW2 3573   5.013   1.691   5.045  0.9696 -0.0166 -0.6355
 1049SOL     OW 3574   1.779   5.094   4.053  0.5008 -0.4037 -0.4951
 1049SOL    HW1 3575   1.737   5.132   3.976 -0.8983 -1.3463 -0.2445
 1049SOL    HW2 3576   1.756   5.001   4.049 -0.5428 -0.3007  1.6207
 1050SOL     OW 3577   3.762   6.168   5.391 -0.3507 -0.5056 -0.7430
 1050SOL    HW1 3578   3.787   6.126   5.474 -3.4062 -0.6248  0.2369
 1050SOL    HW2 3579   3.813   6.249   5.390 -0.4366 -0.3594  1.4339
 1051SOL     OW 3580   4.201   4.310   2.997 -0.5850 -0.2295  0.4149
 1051SOL    HW1 3581   4.155   4.229   3.015  0.2134 -0.7096  0.3336
 1051SOL    HW2 3582   4.219   4.308   2.903  1.4074 -1.0448  0.7678
 1052SOL     OW 3583   4.004   2.762   1.303 -0.1509 -0.3939 -0.0892
 1052SOL    HW1 3584   4.069   2.692   1.292 -1.8451 -1.9609 -0.6188
 1052SOL    HW2 3585   3.949   2.732   1.376 -0.0683  1.0982  0.6181
 1053SOL     OW 3586   0.305   1.986   2.347  0.1098 -0.3941  0.3705
 1053SOL    HW1 3587   0.314   1.943   2.432 -0.2333  0.4424  0.8405
 1053SOL    HW2 3588   0.369   2.057   2.350  1.2780 -1.3699 -0.7309
 1054SOL     OW 3589   2.112   6.000   0.947 -0.2595  0.0040  0.4510
 1054SOL    HW1 3590   2.032   5.981   0.996  0.0263 -3.3639 -0.1425
 1054SOL    HW2 3591   2.088   5.986   0.855  0.6143  0.7086  0.0951
 1055SOL     OW 3592   5.207   0.733   0.140  0.5390  0.1487  0.0756
 1055SOL    HW1 3593   5.170   0.795   0.203 -0.2125  0.0110 -0.2223
 1055SOL    HW2 3594   5.301   0.751   0.141  0.4440  0.6405  0.6974
 1056SOL     OW 3595   1.686   3.506   5.637 -0.0443 -0.2310  0.4202
 1056SOL    HW1 3596   1.696   3.494   5.542  0.6969 -1.0196  0.5904
 1056SOL    HW2 3597   1.635   3.587   5.645 -0.1855 -0.1963 -0.6511
 1057SOL     OW 3598   6.047   0.770   2.349 -0.2976 -0.2736 -0.3273
 1057SOL    HW1 3599   6.027   0.677   2.354  0.7879 -0.4978  0.0848
 1057SOL    HW2 3600   5.974   0.813   2.394 -0.3370 -0.9925  0.3189
 1058SOL     OW 3601   0.262   2.891   2.628 -0.0825 -0.5230 -0.5377
 1058SOL    HW1 3602   0.211   2.960   2.586 -1.0173 -0.1033  1.1916
 1058SOL    HW2 3603   0.235   2.811   2.584  0.0593  0.0483 -1.6978
 1059SOL     OW 3604   5.148   0.299   4.562 -0.4369 -0.3435  0.1840
 1059SOL    HW1 3605   5.177   0.350   4.637 -2.4013 -0.8724  1.3693
 1059SOL    HW2 3606   5.087   0.235   4.598 -1.4864 -0.5797 -1.8489
 1060SOL     OW 3607   5.707   3.687   2.858 -0.3758  0.5311  0.3231
 1060SOL    HW1 3608   5.801   3.672   2.845 -0.3019  1.4810 -0.3098
 1060SOL    HW2 3609   5.668   3.670   2.772 -0.5364  1.9175  0.0993
 1061SOL     OW 3610   2.928   4.603   2.646  0.1482 -0.0627 -0.2510
 1061SOL    HW1 3611   2.853   4.544   2.645  0.5254 -0.5476 -0.5768
 1061SOL    HW2 3612   3.002   4.547   2.623  0.3843  0.7223 -1.4652
 1062SOL     OW 3613   3.802   3.224   2.307 -0.2615 -0.8012 -0.6268
 1062SOL    HW1 3614   3.732   3.163   2.284 -1.2742 -0.0420  0.3573
 1062SOL    HW2 3615   3.807   3.283   2.231  0.8948 -2.1862 -1.6968
 1063SOL     OW 3616   4.457   0.385   4.678 -0.6680 -0.0092  0.8418
 1063SOL    HW1 3617   4.426   0.421   4.761 -1.3608 -0.1447  0.6527
 1063SOL    HW2 3618   4.416   0.299   4.672 -1.3089  0.3265 -0.0128
 1064SOL     OW 3619   3.014   5.588   3.823 -0.9001  0.2632  0.7270
 1064SOL    HW1 3620   3.040   5.564   3.734  1.0736  0.1786  1.2776
 1064SOL    HW2 3621   2.918   5.593   3.820 -0.8677  0.2729 -1.3867
 1065SOL     OW 3622   3.565   5.164   4.847  0.0467  0.3792  0.0087
 1065SOL    HW1 3623   3.618   5.175   4.768 -0.5089  0.9660 -0.2923
 1065SOL    HW2 3624   3.496   5.229   4.838 -0.6697 -0.3086  0.4411
 1066SOL     OW 3625   4.391   4.995   5.757  0.0239 -0.0487 -0.4611
 1066SOL    HW1 3626   4.396   4.968   5.848  1.5722  1.3990 -0.0701
 1066SOL    HW2 3627   4.343   5.078   5.759  2.7003  1.6237 -0.4800
 1067SOL     OW 3628   2.673   6.020   6.183  0.2942 -0.4969  0.3234
 1067SOL    HW1 3629   2.673   6.044   6.090  0.4778 -0.1208  0.4170
 1067SOL    HW2 3630   2.626   5.937   6.186  0.7753 -0.8001 -0.1807
 1068SOL     OW 3631   3.019   0.132   2.197 -0.7566  0.0798  0.1289
 1068SOL    HW1 3632   3.026   0.061   2.261  1.5068  0.8998  0.9189
 1068SOL    HW2 3633   3.019   0.212   2.250 -2.3578  0.7186 -0.7753
 1069SOL     OW 3634   4.553   4.524   0.885 -0.2719 -0.8941  0.6747
 1069SOL    HW1 3635   4.539   4.526   0.791 -0.8333  4.1359  0.6011
 1069SOL    HW2 3636   4.644   4.494   0.896  0.3512 -0.0457 -1.6411
 1070SOL     OW 3637   1.775   1.650   1.915 -0.1817 -0.2388  0.2827
 1070SOL    HW1 3638   1.829   1.626   1.990  0.8281  0.9243 -0.0466
 1070SOL    HW2 3639   1.742   1.738   1.936 -2.8136 -1.2738  0.9229
 1071SOL     OW 3640   5.816   5.356   1.342 -0.0032 -0.3803 -0.1722
 1071SOL    HW1 3641   5.741   5.379   1.397  1.6489 -1.3074  2.6783
 1071SOL    HW2 3642   5.892   5.386   1.392  1.6273 -1.3083 -1.9831
 1072SOL     OW 3643   4.103   2.903   5.890 -0.1223  0.0461  0.0181
 1072SOL    HW1 3644   4.055   2.980   5.919 -0.5083 -0.3990  0.5838
 1072SOL    HW2 3645   4.174   2.938   5.837  0.7924  0.9115  1.7311
 1073SOL     OW 3646   5.470   1.429   5.629  0.3348  0.3321  0.0954
 1073SOL    HW1 3647   5.547   1.454   5.680 -0.1374 -0.1180  1.0504
 1073SOL    HW2 3648   5.500   1.353   5.578  1.2888  1.7775 -1.5881
 1074SOL     OW 3649   5.295   1.756   3.632  0.0128 -0.0053  0.0266
 1074SOL    HW1 3650   5.349   1.835   3.625 -0.3194  0.0907 -1.8484
 1074SOL    HW2 3651   5.350   1.694   3.679  1.9276 -0.0164 -2.0861
 1075SOL     OW 3652   5.844   2.575   1.049 -0.0708  0.1062 -0.1673
 1075SOL    HW1 3653   5.834   2.667   1.074  0.6028  0.1147  0.0903
 1075SOL    HW2 3654   5.767   2.532   1.086  0.3220  0.3223  0.9248
 1076SOL     OW 3655   0.344   3.122   4.865 -0.0494  0.0250 -0.0629
 1076SOL    HW1 3656   0.410   3.188   4.843  0.4198 -0.7078 -0.9425
 1076SOL    HW2 3657   0.260   3.167   4.859  0.3498  0.9732  1.0655
 1077SOL     OW 3658   6.131   2.487   5.765  0.5638  0.1206 -0.2108
 1077SOL    HW1 3659   6.134   2.550   5.692 -1.9380  0.0302 -0.4677
 1077SOL    HW2 3660   6.214   2.501   5.811  2.4506 -0.0838 -3.2344
 1078SOL     OW 3661   3.927   4.838   0.745 -0.3424  0.7166  0.2993
 1078SOL    HW1 3662   3.978   4.901   0.795  0.1574 -0.0161  0.7384
 1078SOL    HW2 3663   3.866   4.801   0.809 -0.6782  0.7969  0.0295
 1079SOL     OW 3664   1.598   4.657   4.867 -0.0721  0.2719  0.1285
 1079SOL    HW1 3665   1.630   4.698   4.947 -0.2221  1.0882 -0.2152
 1079SOL    HW2 3666   1.616   4.564   4.878  2.7077  0.6853 -0.1362
 1080SOL     OW 3667   5.383   3.450   2.755 -0.0858 -0.1222  0.2684
 1080SOL    HW1 3668   5.411   3.478   2.842  0.8462 -0.1421 -0.0166
 1080SOL    HW2 3669   5.380   3.354   2.761  2.5856 -0.3294 -0.4386
 1081SOL     OW 3670   3.906   4.189   4.544  0.2153 -0.0043  0.0730
 1081SOL    HW1 3671   3.914   4.264   4.602 -0.2267 -0.0511  0.1998
 1081SOL    HW2 3672   3.893   4.226   4.457  1.5834  0.0740 -0.1223
 1082SOL     OW 3673   1.897   4.345   5.231  0.8528  0.2589 -0.3332
 1082SOL    HW1 3674   1.966   4.296   5.185  4.1489  3.0370  1.2069
 1082SOL    HW2 3675   1.879   4.420   5.175  0.5713  0.6177  0.2283
 1083SOL     OW 3676   3.091   4.959   2.954 -0.4494  0.2390 -0.0783
 1083SOL    HW1 3677   3.181   4.945   2.924 -0.3978  1.7631 -0.7232
 1083SOL    HW2 3678   3.037   4.938   2.878 -0.5316  0.9251 -0.2095
 1084SOL     OW 3679   2.227   2.375   3.899  0.2524 -0.2015  0.3054
 1084SOL    HW1 3680   2.150   2.432   3.896  0.5736  0.2448  0.3955
 1084SOL    HW2 3681   2.268   2.395   3.984  1.0284  0.3145 -0.1768
 1085SOL     OW 3682   5.332   0.489   2.638  0.0057 -0.1501  0.0923
 1085SOL    HW1 3683   5.269   0.419   2.622 -0.1629  0.0753 -0.2494
 1085SOL    HW2 3684   5.301   0.562   2.584 -0.4784  0.5901  1.3233
 1086SOL     OW 3685   6.206   1.878   1.148  0.1354  0.4420  1.1296
 1086SOL    HW1 3686   6.168   1.791   1.158  0.1817  0.3026  0.2121
 1086SOL    HW2 3687   6.130   1.937   1.146 -0.1046  0.1389 -0.9465
 1087SOL     OW 3688   1.743   0.761   1.035 -0.5418  0.3143 -0.4042
 1087SOL    HW1 3689   1.653   0.774   1.005 -0.3525  2.6107 -0.1917
 1087SOL    HW2 3690   1.776   0.850   1.050  1.4522 -0.5098  0.4528
 1088SOL     OW 3691   1.051   5.262   0.064 -0.8508  0.1808 -0.0199
 1088SOL    HW1 3692   0.990   5.235   0.133 -0.6151  0.9371  0.5022
 1088SOL    HW2 3693   1.098   5.183   0.042  0.6331  0.3162  2.2917
 1089SOL     OW 3694   2.881   4.605   1.079 -0.0483  0.3151 -0.2977
 1089SOL    HW1 3695   2.801   4.593   1.130 -0.4529 -1.6542 -1.2860
 1089SOL    HW2 3696   2.921   4.685   1.114 -0.4599 -0.7085  2.8249
 1090SOL     OW 3697   5.390   1.537   1.872  0.3211  0.0178  0.0563
 1090SOL    HW1 3698   5.476   1.537   1.914  0.8759 -0.2321 -1.0730
 1090SOL    HW2 3699   5.337   1.593   1.929  1.3153  0.4583  0.5820
 1091SOL     OW 3700   6.131   3.797   2.570 -0.1512 -0.5494 -0.3570
 1091SOL    HW1 3701   6.052   3.820   2.520 -0.1799  0.5688  0.1678
 1091SOL    HW2 3702   6.201   3.848   2.529 -0.1687  0.3601  0.6796
 1092SOL     OW 3703   2.980   0.512   0.636 -0.1059 -0.0499  0.0465
 1092SOL    HW1 3704   3.017   0.454   0.703 -0.7352 -0.8230 -0.2668
 1092SOL    HW2 3705   2.890   0.483   0.627 -0.2746  0.6424 -0.5000
 1093SOL     OW 3706   4.360   6.195   3.848  0.4317  0.2838  0.0328
 1093SOL    HW1 3707   4.331   6.105   3.862  0.9745  0.0015 -0.6152
 1093SOL    HW2 3708   4.282   6.248   3.861 -0.0949 -0.3595 -0.4680
 1094SOL     OW 3709   2.809   0.554   4.268 -0.0616  0.0772 -0.6496
 1094SOL    HW1 3710   2.733   0.591   4.223  0.7161  0.5638 -1.6215
 1094SOL    HW2 3711   2.864   0.630   4.288  0.2243 -0.2795 -0.0575
 1095SOL     OW 3712   1.975   2.437   5.228 -0.6671 -0.4238 -0.3513
 1095SOL    HW1 3713   2.065   2.452   5.199 -0.4822  0.0755  0.4411
 1095SOL    HW2 3714   1.922   2.492   5.169 -0.5242 -1.1765 -1.2062
 1096SOL     OW 3715   2.131   3.109   0.422  0.5070 -0.8375 -0.2789
 1096SOL    HW1 3716   2.106   3.088   0.332  1.7503  2.4393 -1.5564
 1096SOL    HW2 3717   2.066   3.173   0.451  2.2852  1.1076 -0.3888
 1097SOL     OW 3718   2.675   4.775   6.221 -0.4077  0.6152  1.0831
 1097SOL    HW1 3719   2.695   4.781   6.128  1.6514  1.1253  1.4912
 1097SOL    HW2 3720   2.614   4.847   6.237 -1.0343  0.3265  0.0910
 1098SOL     OW 3721   5.255   0.601   2.415 -0.0634 -0.3078  0.2350
 1098SOL    HW1 3722   5.252   0.673   2.352  4.8898 -0.1983 -0.3210
 1098SOL    HW2 3723   5.193   0.537   2.381 -2.4935  2.3797 -0.8745
 1099SOL     OW 3724   5.379   0.093   0.412 -0.2923  0.2165 -0.6234
 1099SOL    HW1 3725   5.449   0.034   0.438 -1.1431  0.0874  1.5904
 1099SOL    HW2 3726   5.312   0.035   0.375 -0.3204  0.0190 -0.2699
 1100SOL     OW 3727   2.729   0.148   1.727 -0.3043  0.0041 -0.2456
 1100SOL    HW1 3728   2.770   0.213   1.784 -1.5552 -0.5856  1.4221
 1100SOL    HW2 3729   2.789   0.139   1.654  1.1393  1.1736  0.7349
 1101SOL     OW 3730   3.386   1.609   4.017  0.5558 -0.1971 -0.1556
 1101SOL    HW1 3731   3.464   1.659   4.042 -0.0604  0.1963  1.0296
 1101SOL    HW2 3732   3.356   1.568   4.098 -1.2091  0.7258 -0.3043
 1102SOL     OW 3733   5.030   4.733   0.846 -0.2585 -0.0956 -0.2367
 1102SOL    HW1 3734   5.025   4.712   0.940  1.5354  0.1553 -0.0589
 1102SOL    HW2 3735   5.036   4.648   0.803 -0.4141 -0.1891 -0.0743
 1103SOL     OW 3736   0.791   5.052   0.803 -0.1911  0.1452 -0.0534
 1103SOL    HW1 3737   0.762   5.139   0.774 -0.3305  1.8826  4.5452
 1103SOL    HW2 3738   0.709   5.005   0.822 -0.0716 -0.3445 -0.6882
 1104SOL     OW 3739   2.538   0.651   5.790  0.2089  0.0787  0.0058
 1104SOL    HW1 3740   2.491   0.578   5.831  0.7994  1.0311  2.6221
 1104SOL    HW2 3741   2.629   0.638   5.815  0.6635  0.5980 -1.2977
 1105SOL     OW 3742   4.501   2.498   3.202 -0.1168  0.3178 -0.0557
 1105SOL    HW1 3743   4.441   2.567   3.174 -1.0190  0.1295  1.3610
 1105SOL    HW2 3744   4.499   2.500   3.297  3.1728  1.1805  0.0937
 1106SOL     OW 3745   0.365   1.064   0.944 -0.0447  0.0428  0.7689
 1106SOL    HW1 3746   0.442   1.118   0.927  0.2222 -1.0561 -2.0873
 1106SOL    HW2 3747   0.400   0.976   0.956 -0.8267 -0.5440 -1.0050
 1107SOL     OW 3748   0.329   0.098   4.757 -0.1103  0.3582 -0.1358
 1107SOL    HW1 3749   0.310   0.104   4.663  1.0001  1.6907 -0.3153
 1107SOL    HW2 3750   0.379   0.018   4.767  1.6339  1.2699 -1.0785
 1108SOL     OW 3751   2.035   3.058   5.709 -0.1495 -0.2120 -0.2804
 1108SOL    HW1 3752   2.064   3.087   5.796 -1.5671  3.0412 -0.7331
 1108SOL    HW2 3753   2.100   3.096   5.649 -0.3108 -0.6983 -0.7697
 1109SOL     OW 3754   2.075   4.520   4.171  0.4996 -0.1212  0.3852
 1109SOL    HW1 3755   2.009   4.521   4.240  0.0334 -2.7136  0.0738
 1109SOL    HW2 3756   2.114   4.433   4.176  0.8437 -0.1904 -2.2697
 1110SOL     OW 3757   5.372   5.576   1.193  1.0528  0.3683  0.0861
 1110SOL    HW1 3758   5.349   5.601   1.104  1.6196 -1.9418 -0.7831
 1110SOL    HW2 3759   5.408   5.488   1.185  0.8248 -0.0501  2.6497
 1111SOL     OW 3760   5.018   5.363   2.078 -0.2469  0.2564  0.1182
 1111SOL    HW1 3761   5.015   5.445   2.128 -2.3488  1.2019 -1.4095
 1111SOL    HW2 3762   4.926   5.339   2.066  0.3111 -1.9352 -0.1610
 1112SOL     OW 3763   0.088   3.136   0.431  0.1999  0.0143 -0.4407
 1112SOL    HW1 3764   0.084   3.161   0.523  0.7200 -1.0810 -0.0998
 1112SOL    HW2 3765   0.171   3.172   0.400 -0.6401  1.6449 -0.9011
 1113SOL     OW 3766   0.344   2.028   3.187 -0.1752  0.6833  0.2326
 1113SOL    HW1 3767   0.438   2.030   3.169 -0.4475 -0.9834 -1.7747
 1113SOL    HW2 3768   0.328   2.104   3.242  2.6844 -0.1697  2.4524
 1114SOL     OW 3769   0.779   4.688   2.486  0.5520 -0.0567 -0.3592
 1114SOL    HW1 3770   0.846   4.629   2.521  1.0278  1.2786  1.0899
 1114SOL    HW2 3771   0.825   4.768   2.464 -0.2550  0.1753 -1.2823
 1115SOL     OW 3772   0.332   5.396   2.026  0.1007  0.5070  0.4779
 1115SOL    HW1 3773   0.275   5.356   2.092 -0.2557  0.7639  0.3303
 1115SOL    HW2 3774   0.389   5.324   1.997 -1.9752 -0.5093 -1.3823
 1116SOL     OW 3775   3.666   6.050   2.198  0.5240  0.0244  0.1974
 1116SOL    HW1 3776   3.752   6.052   2.241  0.8587 -0.5282 -0.4080
 1116SOL    HW2 3777   3.620   5.978   2.241  0.3309  0.3709  0.5755
 1117SOL     OW 3778   3.329   2.591   1.829  0.1320  0.1266  0.4722
 1117SOL    HW1 3779   3.327   2.571   1.735 -0.3630 -0.5907  0.6218
 1117SOL    HW2 3780   3.305   2.683   1.834  0.7232  0.3229 -0.1411
 1118SOL     OW 3781   4.913   1.025   0.810  0.4562 -0.5902  0.0879
 1118SOL    HW1 3782   4.916   0.970   0.732 -1.0017 -0.6230  0.0362
 1118SOL    HW2 3783   4.833   1.000   0.855  1.3263 -0.6555  1.6838
 1119SOL     OW 3784   5.530   5.555   0.437  0.2127 -0.2973 -0.2420
 1119SOL    HW1 3785   5.450   5.510   0.411 -0.0915  0.4188 -0.5628
 1119SOL    HW2 3786   5.591   5.538   0.366 -0.0511  0.1812 -0.5863
 1120SOL     OW 3787   5.555   6.112   4.621  0.2514  0.1581  0.1437
 1120SOL    HW1 3788   5.490   6.167   4.664  0.9149  0.7117  0.4682
 1120SOL    HW2 3789   5.505   6.054   4.564 -0.5389  0.3777  0.6049
 1121SOL     OW 3790   5.200   5.218   1.270 -0.1974 -0.1082 -0.0390
 1121SOL    HW1 3791   5.136   5.230   1.340  0.0418 -0.1337  0.1876
 1121SOL    HW2 3792   5.159   5.158   1.209 -0.4390 -0.0249  0.0424
 1122SOL     OW 3793   1.599   1.461   2.417 -0.1178 -0.4527 -0.2184
 1122SOL    HW1 3794   1.690   1.459   2.448 -0.7221  1.2002  1.9471
 1122SOL    HW2 3795   1.603   1.427   2.328  2.5774 -0.7101 -0.0773
 1123SOL     OW 3796   5.765   2.269   3.185 -0.2550 -0.6977  0.0493
 1123SOL    HW1 3797   5.771   2.325   3.262  0.7154  1.3485 -1.4140
 1123SOL    HW2 3798   5.726   2.325   3.117  1.7987 -1.3801 -1.8123
 1124SOL     OW 3799   0.405   1.175   2.502 -0.0682 -0.2935  0.0039
 1124SOL    HW1 3800   0.465   1.156   2.574 -0.1446 -0.9608 -0.1020
 1124SOL    HW2 3801   0.318   1.164   2.541 -0.1527  1.3802  0.3513
 1125SOL     OW 3802   3.855   1.700   3.785  0.0193 -0.6307  0.8551
 1125SOL    HW1 3803   3.905   1.714   3.705  0.1810 -1.9427  0.7051
 1125SOL    HW2 3804   3.886   1.767   3.845 -0.0659  0.3343 -0.1488
 1126SOL     OW 3805   2.361   0.494   4.285 -0.2456  0.1533 -0.0658
 1126SOL    HW1 3806   2.415   0.465   4.212 -0.3061 -1.2622  0.4081
 1126SOL    HW2 3807   2.421   0.543   4.342  0.6539 -1.6215  0.5919
 1127SOL     OW 3808   4.490   0.655   2.953  0.6783 -0.4432 -0.1525
 1127SOL    HW1 3809   4.582   0.665   2.927  0.8106 -0.2376  0.3844
 1127SOL    HW2 3810   4.492   0.655   3.049 -0.0056  0.8967 -0.1170
 1128SOL     OW 3811   6.072   4.740   3.525  0.1795  0.2373 -0.1058
 1128SOL    HW1 3812   6.059   4.688   3.605 -1.0176 -0.7861 -0.9425
 1128SOL    HW2 3813   5.991   4.731   3.476  1.2191  0.0779 -1.8911
 1129SOL     OW 3814   0.141   1.178   2.537 -0.4191  0.4456 -0.3909
 1129SOL    HW1 3815   0.103   1.165   2.624  1.0001  1.1736  0.3649
 1129SOL    HW2 3816   0.065   1.178   2.478 -1.2819 -2.1372  0.5506
 1130SOL     OW 3817   5.963   0.924   3.316  0.5231  0.2447 -0.7367
 1130SOL    HW1 3818   5.895   0.988   3.296 -0.5074 -0.9640 -1.2448
 1130SOL    HW2 3819   5.924   0.868   3.383  1.2558 -0.1113 -0.5908
 1131SOL     OW 3820   5.848   2.868   3.586 -0.0618 -0.2971 -0.4485
 1131SOL    HW1 3821   5.877   2.777   3.577 -1.0149 -0.5448 -1.1133
 1131SOL    HW2 3822   5.853   2.904   3.498 -1.4002 -0.2442 -0.5269
 1132SOL     OW 3823   5.963   2.177   0.124  0.3301  0.0777  0.4524
 1132SOL    HW1 3824   5.917   2.225   0.193  1.8370  0.6886  1.0557
 1132SOL    HW2 3825   6.053   2.171   0.154  0.6274 -1.3061 -0.6054
 1133SOL     OW 3826   4.007   4.955   2.842  0.8769  0.4735 -0.0204
 1133SOL    HW1 3827   4.011   4.911   2.927 -1.5460  0.5228  0.1906
 1133SOL    HW2 3828   3.914   4.964   2.824  1.3131  0.2452 -2.8383
 1134SOL     OW 3829   5.474   1.486   4.087  0.1047  0.4430 -0.1350
 1134SOL    HW1 3830   5.439   1.570   4.114 -0.4270  0.4069 -0.6849
 1134SOL    HW2 3831   5.420   1.421   4.132  0.2132  0.3898 -0.0794
 1135SOL     OW 3832   0.809   4.495   1.759 -0.1385  0.6838  0.6603
 1135SOL    HW1 3833   0.812   4.536   1.845 -0.3077 -0.9356  1.4715
 1135SOL    HW2 3834   0.742   4.427   1.767 -0.6514  0.9546 -0.9588
 1136SOL     OW 3835   2.972   3.248   5.560 -0.5881 -0.2633 -0.7951
 1136SOL    HW1 3836   2.925   3.173   5.523 -0.6024  0.3809 -2.1663
 1136SOL    HW2 3837   3.038   3.269   5.494  0.6624 -0.2171  0.4207
 1137SOL     OW 3838   3.981   2.960   0.934 -0.5184  0.3781  0.2589
 1137SOL    HW1 3839   3.916   2.903   0.975  1.3890 -0.4661  2.3606
 1137SOL    HW2 3840   3.930   3.030   0.894 -2.7420 -0.6726  1.0818
 1138SOL     OW 3841   5.557   2.397   4.706 -0.3119  0.0569 -0.1273
 1138SOL    HW1 3842   5.586   2.486   4.727  1.4467 -0.5251  0.1539
 1138SOL    HW2 3843   5.606   2.342   4.767 -2.3702 -1.0403  0.6257
 1139SOL     OW 3844   0.002   1.440   0.434  0.3967  0.3603 -0.0320
 1139SOL    HW1 3845   0.075   1.381   0.417  0.7249  0.6910  0.2240
 1139SOL    HW2 3846  -0.075   1.390   0.407  0.8187  0.5396 -1.6195
 1140SOL     OW 3847   0.868   4.743   5.966 -0.7739 -0.9687  0.0041
 1140SOL    HW1 3848   0.847   4.699   5.883 -1.6917 -0.1190 -0.2317
 1140SOL    HW2 3849   0.892   4.832   5.940 -0.6181 -0.8264  0.6186
 1141SOL     OW 3850   2.938   5.197   2.906  0.1555 -0.3461  0.3245
 1141SOL    HW1 3851   3.002   5.127   2.892  0.0657 -0.3575 -0.0415
 1141SOL    HW2 3852   2.952   5.257   2.834 -0.6816 -0.6812 -0.1354
 1142SOL     OW 3853   0.348   1.507   0.075  0.0854 -0.2041  0.4819
 1142SOL    HW1 3854   0.440   1.503   0.103 -0.1220 -0.3091  1.1455
 1142SOL    HW2 3855   0.352   1.487  -0.019  1.0378  2.5985 -0.1794
 1143SOL     OW 3856   5.220   3.091   5.453  1.0197  0.2948  0.5442
 1143SOL    HW1 3857   5.155   3.036   5.497  2.1483 -1.1365  0.5067
 1143SOL    HW2 3858   5.235   3.163   5.513 -0.0308  0.2290  0.8990
 1144SOL     OW 3859   5.654   1.923   3.420 -0.1986 -0.9037  0.2059
 1144SOL    HW1 3860   5.641   1.973   3.340  0.3168 -2.1490 -0.7053
 1144SOL    HW2 3861   5.661   1.832   3.390  0.9344 -1.3045  1.5515
 1145SOL     OW 3862   0.642   0.933   1.252 -0.4406  0.2116 -0.6407
 1145SOL    HW1 3863   0.615   0.844   1.274 -0.9512  0.4560 -0.2675
 1145SOL    HW2 3864   0.654   0.976   1.336  0.4620  0.3101 -0.8083
 1146SOL     OW 3865   1.658   3.957   2.101 -0.2482  0.0540  0.7702
 1146SOL    HW1 3866   1.594   4.027   2.091 -2.0624 -1.8229 -1.9046
 1146SOL    HW2 3867   1.607   3.881   2.127  1.2859 -0.9223  1.0533
 1147SOL     OW 3868   2.787   4.682   1.977  0.0808 -0.0434  0.0174
 1147SOL    HW1 3869   2.809   4.765   2.019 -1.3228  0.3003  0.1305
 1147SOL    HW2 3870   2.773   4.704   1.885 -0.6921 -0.0720  0.1238
 1148SOL     OW 3871   1.124   5.857   0.577  0.0088 -0.0856 -0.0249
 1148SOL    HW1 3872   1.036   5.828   0.600 -0.4133  1.8325  1.0047
 1148SOL    HW2 3873   1.173   5.776   0.562 -1.8755 -1.2055 -0.5372
 1149SOL     OW 3874   2.926   0.587   3.050 -0.0190  0.0605  0.7852
 1149SOL    HW1 3875   3.015   0.597   3.084 -0.6030  1.4948  2.0433
 1149SOL    HW2 3876   2.891   0.511   3.096  0.7212 -0.8799 -0.1602
 1150SOL     OW 3877   5.147   4.534   5.274 -0.8598  0.1173  0.3696
 1150SOL    HW1 3878   5.172   4.504   5.187 -1.8009  0.2102  0.0512
 1150SOL    HW2 3879   5.106   4.457   5.314 -0.6670  0.1493  0.6245
 1151SOL     OW 3880   4.905   0.214   3.929  0.5023  0.7416 -0.0766
 1151SOL    HW1 3881   4.952   0.259   3.859  0.7356 -0.3998 -0.6860
 1151SOL    HW2 3882   4.840   0.161   3.884  1.1418 -0.5839  0.4965
 1152SOL     OW 3883   0.231   3.372   4.238 -0.0973 -0.1950 -0.1358
 1152SOL    HW1 3884   0.242   3.461   4.272 -1.0566  0.6539 -1.8813
 1152SOL    HW2 3885   0.150   3.341   4.279  0.4790 -0.4639  0.8266
 1153SOL     OW 3886   1.080   4.998   5.849 -0.1984 -0.2859 -0.4267
 1153SOL    HW1 3887   1.030   4.950   5.784  0.3177 -1.5320  0.0532
 1153SOL    HW2 3888   1.169   5.004   5.812 -0.2518  0.3103 -0.4773
 1154SOL     OW 3889   4.158   3.430   2.832 -0.1805  0.1061  0.3080
 1154SOL    HW1 3890   4.085   3.374   2.805 -1.4818  1.5413  0.6621
 1154SOL    HW2 3891   4.188   3.392   2.915 -0.3286 -0.6794  0.0068
 1155SOL     OW 3892   0.928   0.236   0.900 -0.1127 -0.3070  0.1590
 1155SOL    HW1 3893   0.879   0.217   0.980 -0.7017  1.8548  0.3896
 1155SOL    HW2 3894   0.957   0.327   0.911  2.4698 -0.9366 -0.7671
 1156SOL     OW 3895   5.264   5.258   1.999  0.7768 -0.0637  0.5081
 1156SOL    HW1 3896   5.241   5.166   1.988  0.6062 -0.3904  2.9591
 1156SOL    HW2 3897   5.180   5.305   1.990  0.4271 -0.4343  1.6329
 1157SOL     OW 3898   2.618   1.459   1.140  0.0191 -0.0994 -0.2925
 1157SOL    HW1 3899   2.616   1.429   1.050  3.8872 -1.0207 -0.2290
 1157SOL    HW2 3900   2.607   1.554   1.134 -2.3778 -0.3697 -1.3816
 1158SOL     OW 3901   1.197   2.159   5.147 -0.7414 -0.6053 -0.1791
 1158SOL    HW1 3902   1.260   2.200   5.088 -0.2971 -1.2893 -0.1892
 1158SOL    HW2 3903   1.159   2.087   5.097 -1.3088 -0.3856 -0.0674
 1159SOL     OW 3904   4.471   0.978   1.556  0.2852  0.1561 -0.1540
 1159SOL    HW1 3905   4.451   0.888   1.580  0.1184  0.0047 -0.8295
 1159SOL    HW2 3906   4.560   0.974   1.522 -0.1010  0.0433 -1.1865
 1160SOL     OW 3907   5.069   0.195   3.695  0.2018  0.1514 -0.5415
 1160SOL    HW1 3908   5.012   0.217   3.621  0.8696  0.6988 -0.8971
 1160SOL    HW2 3909   5.054   0.101   3.709  0.6264 -0.1385 -1.8521
 1161SOL     OW 3910   4.807   0.852   2.402  0.2810 -0.7483 -0.3884
 1161SOL    HW1 3911   4.847   0.765   2.402  0.9354 -0.4657  0.7344
 1161SOL    HW2 3912   4.766   0.860   2.316  1.8189 -1.4262 -1.2191
 1162SOL     OW 3913   5.214   1.878   0.006 -0.0368  0.4597 -0.7151
 1162SOL    HW1 3914   5.148   1.947   0.007  0.9342  1.4013 -0.6458
 1162SOL    HW2 3915   5.277   1.903   0.074  0.0918 -0.7294 -0.3702
 1163SOL     OW 3916   1.318   5.761   2.160 -0.2824 -0.3165  0.0825
 1163SOL    HW1 3917   1.251   5.693   2.162 -1.0983  0.4598  0.3178
 1163SOL    HW2 3918   1.355   5.762   2.248 -1.8333  0.9975  0.7806
 1164SOL     OW 3919   4.935   3.292   1.962  0.0361 -0.2240 -0.1449
 1164SOL    HW1 3920   4.846   3.280   1.994  0.5285 -0.0012  1.4345
 1164SOL    HW2 3921   4.933   3.374   1.913 -0.9244 -0.9766 -1.4264
 1165SOL     OW 3922   2.740   1.753   2.791  0.5482 -0.1456 -0.1014
 1165SOL    HW1 3923   2.793   1.681   2.758  0.8036  0.5908 -1.4025
 1165SOL    HW2 3924   2.763   1.761   2.883  0.0083 -2.1428  0.2457
 1166SOL     OW 3925   2.796   3.458   3.239 -0.4161 -0.4936 -0.3430
 1166SOL    HW1 3926   2.883   3.492   3.260 -0.2662 -1.5888  0.9677
 1166SOL    HW2 3927   2.799   3.442   3.144  0.0319  1.5273 -0.7031
 1167SOL     OW 3928   3.315   0.240   5.619  0.2120  0.1313  0.4345
 1167SOL    HW1 3929   3.300   0.335   5.616 -2.0754 -0.1893  0.3682
 1167SOL    HW2 3930   3.232   0.202   5.592  0.2858 -1.9471  2.8431
 1168SOL     OW 3931   3.643   1.872   0.283 -0.1119 -0.3553 -0.1483
 1168SOL    HW1 3932   3.718   1.839   0.332 -0.3852  1.4223  1.6332
 1168SOL    HW2 3933   3.681   1.918   0.208  0.6454  0.6153  0.7893
 1169SOL     OW 3934   5.382   5.789   0.470 -0.5315  0.3568  0.3033
 1169SOL    HW1 3935   5.439   5.791   0.547 -1.7564  1.0140  1.2299
 1169SOL    HW2 3936   5.384   5.697   0.442 -0.4646 -0.0170  1.4493
 1170SOL     OW 3937   3.599   3.289   1.237 -0.6132  0.4997 -0.2564
 1170SOL    HW1 3938   3.643   3.219   1.190 -0.6764 -0.3790  0.9345
 1170SOL    HW2 3939   3.668   3.330   1.289 -0.9516 -0.1761  0.7777
 1171SOL     OW 3940   6.214   3.373   5.908 -0.0340 -0.1362  0.2783
 1171SOL    HW1 3941   6.194   3.443   5.969  1.4510  2.0829 -1.6039
 1171SOL    HW2 3942   6.278   3.318   5.954 -0.8290 -0.0006  1.5925
 1172SOL     OW 3943   2.369   5.844   2.782  0.0097  0.3377  0.0697
 1172SOL    HW1 3944   2.321   5.870   2.703  0.9108 -1.6657 -1.2117
 1172SOL    HW2 3945   2.396   5.927   2.821  0.6875  1.4252 -2.4809
 1173SOL     OW 3946   4.759   3.441   4.319  0.3684  0.3245 -0.1375
 1173SOL    HW1 3947   4.843   3.460   4.275  0.2813  0.8589 -0.0872
 1173SOL    HW2 3948   4.697   3.500   4.277  0.1201  0.2834  0.1695
 1174SOL     OW 3949   5.089   0.741   2.750 -0.3420  0.0423 -0.5816
 1174SOL    HW1 3950   5.083   0.764   2.657  1.4144 -2.0943 -1.3252
 1174SOL    HW2 3951   5.038   0.660   2.757 -1.4735  0.8272  0.6290
 1175SOL     OW 3952   2.645   1.101   2.349  0.2337 -0.2240 -0.2209
 1175SOL    HW1 3953   2.591   1.085   2.426  0.5552 -0.7714 -0.1050
 1175SOL    HW2 3954   2.702   1.174   2.374  0.6080 -0.6543  0.2053
 1176SOL     OW 3955   1.849   0.338   2.300  0.2421 -0.3042  0.6610
 1176SOL    HW1 3956   1.775   0.278   2.292  0.2814 -0.5127  1.7683
 1176SOL    HW2 3957   1.810   0.425   2.289  0.2614 -0.5120 -1.4571
 1177SOL     OW 3958   2.073   1.678   2.742  0.5129 -0.9195  0.5929
 1177SOL    HW1 3959   1.996   1.652   2.691  0.4897  0.5750 -0.1736
 1177SOL    HW2 3960   2.147   1.643   2.692  0.5863  1.6946 -1.3441
 1178SOL     OW 3961   5.431   3.386   3.260  0.0471 -0.3002 -0.1600
 1178SOL    HW1 3962   5.410   3.399   3.352  1.2644 -2.0808  0.4069
 1178SOL    HW2 3963   5.526   3.396   3.255  0.1402 -1.4000 -0.9879
 1179SOL     OW 3964   2.590   0.799   3.248 -0.0231 -0.7826 -0.0229
 1179SOL    HW1 3965   2.644   0.721   3.254  1.8571  0.4061 -0.4510
 1179SOL    HW2 3966   2.614   0.850   3.326  1.3217  0.8095 -1.3979
 1180SOL     OW 3967   4.301   1.490   0.005 -0.2293 -0.0473 -0.3836
 1180SOL    HW1 3968   4.287   1.504  -0.089  0.4471  0.5695 -0.3952
 1180SOL    HW2 3969   4.284   1.575   0.044  3.5397  0.8862 -0.4019
 1181SOL     OW 3970   3.923   0.853   2.546  0.3616  0.5138  0.6816
 1181SOL    HW1 3971   3.887   0.942   2.548 -2.7462 -0.6105  2.0933
 1181SOL    HW2 3972   3.866   0.806   2.485 -0.8484 -1.3985  3.0826
 1182SOL     OW 3973   2.789   5.760   0.808 -0.3870  0.4326 -0.0756
 1182SOL    HW1 3974   2.790   5.670   0.775 -3.2745  0.1724  0.2678
 1182SOL    HW2 3975   2.793   5.750   0.903 -1.4995  0.5927 -0.0014
 1183SOL     OW 3976   3.155   1.956   2.155  0.4635 -0.3808 -0.8083
 1183SOL    HW1 3977   3.161   2.008   2.235 -0.2829 -0.3223 -0.7785
 1183SOL    HW2 3978   3.097   2.007   2.098  0.0259 -0.9966 -0.9226
 1184SOL     OW 3979   6.125   5.498   0.703 -0.2861 -0.2551 -0.5767
 1184SOL    HW1 3980   6.084   5.420   0.665 -0.0627 -0.2255 -0.8833
 1184SOL    HW2 3981   6.099   5.570   0.644 -1.5936  0.1462  0.4282
 1185SOL     OW 3982   2.997   3.079   2.525  0.0589 -0.2766  0.7992
 1185SOL    HW1 3983   3.069   3.107   2.580  1.4435  0.3529 -1.2325
 1185SOL    HW2 3984   3.032   3.080   2.436 -2.3194 -0.4121 -0.2253
 1186SOL     OW 3985   0.451   0.954   0.642  0.0209  0.0562  0.0391
 1186SOL    HW1 3986   0.416   1.030   0.687  0.4570 -0.4949  1.3406
 1186SOL    HW2 3987   0.411   0.879   0.687  1.8505 -0.5546  0.7324
 1187SOL     OW 3988   3.964   1.479   2.873  0.0908 -0.2449  0.2824
 1187SOL    HW1 3989   3.899   1.432   2.821  0.4979 -1.0436  0.4728
 1187SOL    HW2 3990   4.047   1.434   2.855  0.5507  0.6079  0.2257
 1188SOL     OW 3991   0.376   2.304   2.449 -0.0791 -0.3772  0.5115
 1188SOL    HW1 3992   0.318   2.315   2.374 -1.7372  1.5040  1.9722
 1188SOL    HW2 3993   0.450   2.361   2.430 -0.5431  0.1791  0.3662
 1189SOL     OW 3994   0.813   1.519   5.660 -0.5142 -0.2317  0.1279
 1189SOL    HW1 3995   0.832   1.427   5.676 -0.1986  0.2067  2.6304
 1189SOL    HW2 3996   0.719   1.527   5.674 -0.3518  0.0247  1.1424
 1190SOL     OW 3997   1.862   5.860   6.159 -0.3695 -0.0725 -0.0997
 1190SOL    HW1 3998   1.948   5.827   6.133 -1.0035 -0.4081 -1.8352
 1190SOL    HW2 3999   1.863   5.853   6.255  1.7629  0.5347 -0.0195
 1191SOL     OW 4000   0.229   4.247   6.109 -0.2159 -0.2717 -0.2391
 1191SOL    HW1 4001   0.271   4.330   6.085 -2.8353  2.0973  2.6527
 1191SOL    HW2 4002   0.162   4.234   6.042  1.6604 -1.4649 -2.0309
 1192SOL     OW 4003   3.890   2.497   3.753  0.0353  0.0724 -0.0132
 1192SOL    HW1 4004   3.903   2.590   3.770  0.5495 -0.0351  0.2123
 1192SOL    HW2 4005   3.938   2.453   3.824 -0.5270 -0.3591  0.1060
 1193SOL     OW 4006   1.557   0.379   4.425 -0.0797  0.0072  0.1475
 1193SOL    HW1 4007   1.535   0.286   4.425  0.3056 -0.0873  0.2399
 1193SOL    HW2 4008   1.651   0.381   4.441  0.0871  0.3723 -0.8176
 1194SOL     OW 4009   2.330   4.683   2.503  0.3975 -0.3495  0.2275
 1194SOL    HW1 4010   2.248   4.722   2.473  1.4906  0.6122 -1.6923
 1194SOL    HW2 4011   2.350   4.729   2.585  0.6572  1.8738 -0.9922
 1195SOL     OW 4012   5.755   1.998   0.693  0.4073  0.4053  0.0865
 1195SOL    HW1 4013   5.675   1.974   0.739  0.4956 -1.2282 -0.5609
 1195SOL    HW2 4014   5.822   2.004   0.761  0.8799 -3.4586  0.1448
 1196SOL     OW 4015   3.824   2.147   0.462  0.0485  0.0035 -0.0756
 1196SOL    HW1 4016   3.756   2.148   0.395  0.6402  1.3234 -0.6882
 1196SOL    HW2 4017   3.904   2.172   0.415  0.6007  0.2939  0.9961
 1197SOL     OW 4018   2.453   5.238   2.927  0.1723 -0.1378  0.3315
 1197SOL    HW1 4019   2.460   5.191   2.844  0.2424  0.5855 -0.0832
 1197SOL    HW2 4020   2.500   5.320   2.912 -2.7690  1.6411 -0.1326
 1198SOL     OW 4021   0.036   2.824   5.823 -0.2133 -0.2619 -0.2898
 1198SOL    HW1 4022   0.089   2.904   5.813 -1.2674  0.2520 -2.3050
 1198SOL    HW2 4023   0.008   2.803   5.734 -2.8122 -0.8879  0.5929
 1199SOL     OW 4024   0.214   4.473   0.284  0.2211  0.1810  0.0300
 1199SOL    HW1 4025   0.133   4.480   0.232 -1.7942 -0.3099  2.8682
 1199SOL    HW2 4026   0.246   4.563   0.291 -2.5308  1.1230  2.2980
 1200SOL     OW 4027   3.478   5.797   5.094  0.9986 -0.3277  0.3213
 1200SOL    HW1 4028   3.518   5.834   5.173 -0.7135 -0.2810  1.2151
 1200SOL    HW2 4029   3.434   5.871   5.053  0.2429 -0.7293  0.3906
 1201SOL     OW 4030   2.764   5.540   4.075 -0.4453 -0.4280 -0.4657
 1201SOL    HW1 4031   2.766   5.445   4.064 -0.2614 -0.4384 -0.3290
 1201SOL    HW2 4032   2.733   5.573   3.990  0.4138 -0.5546 -0.8473
 1202SOL     OW 4033   5.348   4.083   4.151  0.0950  0.3443  0.3192
 1202SOL    HW1 4034   5.340   4.034   4.069  3.6684  0.1345 -0.0497
 1202SOL    HW2 4035   5.286   4.040   4.211 -2.1160  0.0791 -1.9826
 1203SOL     OW 4036   4.624   1.057   4.802  0.5218  0.3829 -1.2508
 1203SOL    HW1 4037   4.530   1.059   4.822  0.1217 -0.6810 -2.8094
 1203SOL    HW2 4038   4.663   1.008   4.874 -0.3203 -0.2719 -1.2238
 1204SOL     OW 4039   0.180   0.010   3.119 -0.0301  0.6949 -0.0450
 1204SOL    HW1 4040   0.137   0.070   3.180 -0.6059  1.4396 -1.1495
 1204SOL    HW2 4041   0.242   0.066   3.071 -0.6588  0.4631 -1.1682
 1205SOL     OW 4042   5.587   4.827   4.301 -0.2987 -0.4750  0.0588
 1205SOL    HW1 4043   5.582   4.847   4.395  1.0368 -0.7393  0.2026
 1205SOL    HW2 4044   5.503   4.856   4.266 -1.1027 -1.0424  1.4621
 1206SOL     OW 4045   1.614   5.612   1.555 -0.1647 -0.0247 -0.3649
 1206SOL    HW1 4046   1.647   5.596   1.467  0.1785 -0.0792 -0.2274
 1206SOL    HW2 4047   1.537   5.556   1.563 -2.5492  2.6761 -1.9975
 1207SOL     OW 4048   3.565   4.867   2.483  0.3941 -0.0429 -0.1508
 1207SOL    HW1 4049   3.620   4.797   2.518  0.3563 -0.4167 -0.8165
 1207SOL    HW2 4050   3.488   4.869   2.540 -0.0199 -1.1499 -0.6295
 1208SOL     OW 4051   5.371   0.339   2.048  0.3022 -0.6876 -0.7550
 1208SOL    HW1 4052   5.358   0.360   1.955 -2.7392 -1.8997 -0.6957
 1208SOL    HW2 4053   5.367   0.424   2.092  0.2514 -0.2541 -1.5745
 1209SOL     OW 4054   4.174   5.713   2.032  0.9410 -0.4112  0.4318
 1209SOL    HW1 4055   4.144   5.736   2.120 -1.1605  1.0460 -0.5674
 1209SOL    HW2 4056   4.223   5.791   2.003  0.3801 -0.2825 -0.1916
 1210SOL     OW 4057   3.162   0.774   2.632 -1.0799 -0.2367 -0.2399
 1210SOL    HW1 4058   3.208   0.810   2.707 -1.2063  0.7713 -0.6404
 1210SOL    HW2 4059   3.171   0.679   2.642 -0.5910 -0.0977  0.7210
 1211SOL     OW 4060   4.638   3.416   0.995  0.1223  0.1806  0.3234
 1211SOL    HW1 4061   4.726   3.388   0.969 -0.8182 -2.3076 -0.4449
 1211SOL    HW2 4062   4.604   3.460   0.918  0.3992  0.4545  0.3538
 1212SOL     OW 4063   6.123   0.197   5.174 -0.5450 -0.2561  0.7698
 1212SOL    HW1 4064   6.212   0.227   5.157 -0.6955  0.4089  1.1544
 1212SOL    HW2 4065   6.133   0.125   5.237 -0.0768 -1.9502 -1.1171
 1213SOL     OW 4066   4.306   5.477   2.462 -0.1318 -0.0464  0.1236
 1213SOL    HW1 4067   4.308   5.572   2.470  2.0127 -0.0749  0.6106
 1213SOL    HW2 4068   4.372   5.447   2.524  0.5624 -1.7398 -1.3597
 1214SOL     OW 4069   5.312   1.782   2.853  0.5607  1.0332 -0.3293
 1214SOL    HW1 4070   5.336   1.862   2.900  0.9119  2.0365 -2.1448
 1214SOL    HW2 4071   5.396   1.740   2.834  0.3614 -0.2229  1.2463
 1215SOL     OW 4072   3.195   1.978   5.934 -0.0035 -0.5496  0.3319
 1215SOL    HW1 4073   3.152   2.006   6.015 -0.5903 -1.2701  0.2794
 1215SOL    HW2 4074   3.130   1.992   5.865  1.0556  1.6132 -0.2973
 1216SOL     OW 4075   2.015   4.020   2.805 -0.2031 -0.0217  0.5014
 1216SOL    HW1 4076   1.967   4.000   2.725  0.2732  0.6097  0.0488
 1216SOL    HW2 4077   1.971   4.097   2.841 -0.7894 -0.6569  1.1768
 1217SOL     OW 4078   5.178   3.885   4.284  0.6633  0.0791  0.4258
 1217SOL    HW1 4079   5.131   3.842   4.355  0.5528  1.7986  1.4460
 1217SOL    HW2 4080   5.117   3.952   4.253  0.5112 -0.9248 -1.6671
 1218SOL     OW 4081   2.997   0.737   5.559  0.6061 -0.3590 -0.1456
 1218SOL    HW1 4082   3.064   0.691   5.508  0.7280 -0.3167 -0.0265
 1218SOL    HW2 4083   3.044   0.767   5.638  0.1023 -1.6991  0.7040
 1219SOL     OW 4084   3.112   5.012   3.285 -0.6286 -0.1424 -0.0097
 1219SOL    HW1 4085   3.065   5.090   3.256 -2.1406  0.4018  3.3877
 1219SOL    HW2 4086   3.043   4.950   3.308  0.4613 -1.3053  0.2443
 1220SOL     OW 4087   3.298   2.488   5.251 -0.3632 -0.1376 -0.0904
 1220SOL    HW1 4088   3.268   2.574   5.279 -0.6463 -0.7196  1.4489
 1220SOL    HW2 4089   3.381   2.475   5.297 -1.5227 -1.6989  1.6888
 1221SOL     OW 4090   4.184   0.647   5.708  0.4916  0.5175 -0.6953
 1221SOL    HW1 4091   4.117   0.589   5.745  0.9247  0.1542 -0.4602
 1221SOL    HW2 4092   4.255   0.588   5.684  1.3568  1.0411  0.4718
 1222SOL     OW 4093   2.810   0.379   2.522 -0.3172 -0.1400 -0.1292
 1222SOL    HW1 4094   2.782   0.452   2.577 -0.4845 -0.7246  0.5687
 1222SOL    HW2 4095   2.743   0.313   2.534 -0.8221  0.0453 -1.7280
 1223SOL     OW 4096   2.857   3.276   4.495  0.2076 -0.2338  0.0370
 1223SOL    HW1 4097   2.768   3.277   4.528  0.5055  0.8146  0.8704
 1223SOL    HW2 4098   2.853   3.322   4.411 -0.3175 -1.7247 -0.7878
 1224SOL     OW 4099   2.076   4.414   3.429 -0.2939  0.8763 -0.1751
 1224SOL    HW1 4100   2.070   4.494   3.376 -1.3438  0.3774 -0.8436
 1224SOL    HW2 4101   2.139   4.436   3.498  0.3905  1.8551 -1.0763
 1225SOL     OW 4102   4.194   4.837   1.375 -0.0682 -0.3179  0.0898
 1225SOL    HW1 4103   4.262   4.770   1.382 -0.7360 -0.8964  1.4727
 1225SOL    HW2 4104   4.239   4.913   1.339  0.8907 -1.2434 -0.7521
 1226SOL     OW 4105   6.083   2.746   4.852  0.0303 -0.0383  0.5299
 1226SOL    HW1 4106   6.120   2.681   4.912 -0.1400  0.5784  1.3220
 1226SOL    HW2 4107   6.000   2.708   4.823  0.1471 -0.3737  0.6350
 1227SOL     OW 4108   0.759   4.799   5.211 -0.1665 -0.1877 -0.0163
 1227SOL    HW1 4109   0.838   4.809   5.264 -1.4515  0.5799  1.8806
 1227SOL    HW2 4110   0.691   4.843   5.262 -1.7099 -0.3584 -1.8443
 1228SOL     OW 4111   3.220   4.796   5.715 -0.6636 -0.5473  0.5135
 1228SOL    HW1 4112   3.252   4.788   5.805 -0.9328  0.7446  0.7532
 1228SOL    HW2 4113   3.273   4.867   5.677 -2.1184  0.5278  0.4191
 1229SOL     OW 4114   4.416   0.341   3.110  0.0393  0.5072  0.2436
 1229SOL    HW1 4115   4.355   0.380   3.047  0.1030 -0.4795 -0.4599
 1229SOL    HW2 4116   4.369   0.264   3.143  0.6784  0.0441  0.0994
 1230SOL     OW 4117   3.410   4.296   4.966 -0.3270  0.0347  0.4069
 1230SOL    HW1 4118   3.399   4.382   5.006  0.1567 -0.5164  1.8177
 1230SOL    HW2 4119   3.321   4.259   4.963 -0.2052 -0.6053  2.7211
 1231SOL     OW 4120   2.303   5.106   1.708  0.2057  0.6180 -0.1360
 1231SOL    HW1 4121   2.212   5.132   1.717  0.5726  1.9214  0.0107
 1231SOL    HW2 4122   2.300   5.010   1.702 -1.0505  0.5259  1.3636
 1232SOL     OW 4123   2.818   3.778   5.555 -0.9088  0.3161 -0.3418
 1232SOL    HW1 4124   2.885   3.720   5.592 -2.0464 -0.7144  0.1762
 1232SOL    HW2 4125   2.809   3.749   5.464  1.7438  2.7179 -1.5283
 1233SOL     OW 4126   4.528   4.453   2.186  0.0405  0.0810 -0.0095
 1233SOL    HW1 4127   4.572   4.534   2.212  0.7313 -0.8346  1.8830
 1233SOL    HW2 4128   4.599   4.388   2.183 -0.7274 -0.7727  0.0322
 1234SOL     OW 4129   2.730   5.277   4.774  0.1816  0.0092 -0.2463
 1234SOL    HW1 4130   2.725   5.353   4.832 -1.2733  0.1160 -0.4702
 1234SOL    HW2 4131   2.679   5.209   4.818  1.3282 -0.8179 -0.1300
 1235SOL     OW 4132   0.989   1.174   6.090 -0.3584  0.9286  0.0979
 1235SOL    HW1 4133   0.945   1.091   6.074 -2.8185  1.5710  2.6067
 1235SOL    HW2 4134   0.989   1.219   6.006 -1.2574 -0.6169 -0.7607
 1236SOL     OW 4135   0.941   3.609   2.170 -0.1897 -0.9029 -0.9953
 1236SOL    HW1 4136   0.988   3.685   2.137  0.4922 -1.2308 -0.7882
 1236SOL    HW2 4137   0.869   3.646   2.222  1.3304 -0.3526  0.8355
 1237SOL     OW 4138   1.283   6.042   0.446  0.8035  0.7446  0.3076
 1237SOL    HW1 4139   1.243   5.968   0.492  3.4198  0.2215  2.0038
 1237SOL    HW2 4140   1.312   6.006   0.362  0.0149  0.4923  0.1354
 1238SOL     OW 4141   1.926   5.264   1.854 -0.6050 -0.0685 -0.0349
 1238SOL    HW1 4142   1.977   5.186   1.875  1.2804  1.4877  1.4979
 1238SOL    HW2 4143   1.859   5.233   1.793 -0.1155 -2.9142  0.7472
 1239SOL     OW 4144   1.995   1.367   1.751 -0.0352 -0.0148 -0.1737
 1239SOL    HW1 4145   1.906   1.339   1.773 -0.8003  2.7489  0.5781
 1239SOL    HW2 4146   2.048   1.335   1.824 -0.6631 -0.4172  0.1199
 1240SOL     OW 4147   0.864   0.305   2.098 -0.3641  0.2504 -0.5211
 1240SOL    HW1 4148   0.904   0.391   2.108  0.7145 -0.1603 -1.0615
 1240SOL    HW2 4149   0.775   0.323   2.069 -0.3651  1.1873  0.0249
 1241SOL     OW 4150   4.945   1.169   3.724  0.5499  0.2334  0.5859
 1241SOL    HW1 4151   5.027   1.193   3.682  0.2778  0.1102 -0.0257
 1241SOL    HW2 4152   4.904   1.252   3.747  1.3883  0.2929  1.9968
 1242SOL     OW 4153   3.877   0.392   0.765 -0.0687  0.1541  0.0747
 1242SOL    HW1 4154   3.868   0.429   0.677 -0.8406  1.6020  0.7270
 1242SOL    HW2 4155   3.811   0.438   0.817  0.4689 -0.5777  1.4503
 1243SOL     OW 4156   1.398   5.291   0.044 -0.2808 -0.1677 -0.2424
 1243SOL    HW1 4157   1.379   5.313   0.135  1.3977  0.0832  0.0735
 1243SOL    HW2 4158   1.439   5.204   0.048  2.3917  0.9908 -0.4007
 1244SOL     OW 4159   4.741   4.437   3.188 -0.4294  0.1971  0.5107
 1244SOL    HW1 4160   4.738   4.421   3.283  0.6117  2.8197  1.0652
 1244SOL    HW2 4161   4.822   4.395   3.159 -0.2646  0.1987  0.9563
 1245SOL     OW 4162   3.239   2.494   4.347 -0.1690  0.4976 -0.0141
 1245SOL    HW1 4163   3.227   2.582   4.310  4.2265  1.2593 -0.0753
 1245SOL    HW2 4164   3.274   2.442   4.275  0.3067 -0.4081  0.8436
 1246SOL     OW 4165   3.023   6.055   4.965 -1.4252 -0.3274 -0.3224
 1246SOL    HW1 4166   3.006   5.997   4.891 -1.4681  0.1186 -0.6651
 1246SOL    HW2 4167   3.083   6.121   4.931  0.6367 -1.5594  0.7236
 1247SOL     OW 4168   5.636   0.304   4.431 -0.0943 -0.1607  0.0443
 1247SOL    HW1 4169   5.652   0.216   4.397 -1.1798  0.7244 -3.0660
 1247SOL    HW2 4170   5.541   0.308   4.444 -0.0503  0.5319  0.2056
 1248SOL     OW 4171   5.511   1.178   1.139  0.0567 -0.7454 -0.3100
 1248SOL    HW1 4172   5.511   1.265   1.098 -1.1219 -0.6178 -0.0578
 1248SOL    HW2 4173   5.602   1.150   1.133  0.2908  0.1270 -1.1994
 1249SOL     OW 4174   2.626   4.283   3.776 -0.0424 -0.0465 -0.6626
 1249SOL    HW1 4175   2.564   4.295   3.704  1.2462  2.4812 -1.5089
 1249SOL    HW2 4176   2.651   4.372   3.800 -0.4161 -0.7808  3.0119
 1250SOL     OW 4177   2.384   1.793   0.806  0.3965 -0.2347  0.0477
 1250SOL    HW1 4178   2.424   1.761   0.887 -0.7665 -0.7747  0.4136
 1250SOL    HW2 4179   2.376   1.716   0.750  0.9089  0.0816 -0.4808
 1251SOL     OW 4180   3.387   4.268   2.328  0.1585 -0.8434 -0.7527
 1251SOL    HW1 4181   3.335   4.283   2.248 -0.8560 -1.9398 -0.3285
 1251SOL    HW2 4182   3.477   4.267   2.297 -0.0401  0.9502 -1.5416
 1252SOL     OW 4183   0.647   6.227   3.886 -0.1354  0.1706  0.5813
 1252SOL    HW1 4184   0.635   6.132   3.878 -1.8747  0.3957  0.0861
 1252SOL    HW2 4185   0.729   6.237   3.934  1.1830 -1.5575 -1.1253
 1253SOL     OW 4186   3.675   4.139   3.973  0.3831 -0.2206  0.4474
 1253SOL    HW1 4187   3.747   4.106   3.919  1.2529  0.8623  0.8867
 1253SOL    HW2 4188   3.657   4.226   3.938 -0.5772 -0.3908  0.4948
 1254SOL     OW 4189   3.369   1.777   2.183  0.0786 -0.1269  0.6327
 1254SOL    HW1 4190   3.451   1.750   2.140 -0.1395 -1.3217  0.9369
 1254SOL    HW2 4191   3.390   1.861   2.222  1.3896 -0.7277  1.2992
 1255SOL     OW 4192   0.808   5.361   1.613  0.3819 -0.1225  0.2100
 1255SOL    HW1 4193   0.865   5.368   1.536  0.3722 -2.7984 -0.1627
 1255SOL    HW2 4194   0.823   5.441   1.662  1.5152  1.0050 -1.8366
 1256SOL     OW 4195   3.303   4.898   2.615 -0.1876  0.5776 -0.4569
 1256SOL    HW1 4196   3.230   4.933   2.563 -0.1633  1.5446  0.1314
 1256SOL    HW2 4197   3.306   4.955   2.693 -0.3078 -0.8984  0.6805
 1257SOL     OW 4198   4.463   2.183   1.312 -0.0679  0.0003  0.5528
 1257SOL    HW1 4199   4.504   2.165   1.396  1.3320  0.1590 -0.0726
 1257SOL    HW2 4200   4.390   2.242   1.333  0.7121  0.6438  1.5777
 1258SOL     OW 4201   3.649   2.130   5.837  0.2964  0.6571 -0.2490
 1258SOL    HW1 4202   3.699   2.164   5.762  0.2981  0.5127 -0.3123
 1258SOL    HW2 4203   3.576   2.083   5.798  0.4024  0.4204 -0.1603
 1259SOL     OW 4204   0.056   1.665   2.611 -0.1508 -0.1368 -0.0057
 1259SOL    HW1 4205   0.054   1.645   2.518  0.4148  0.5279 -0.1652
 1259SOL    HW2 4206  -0.031   1.699   2.631 -0.7728 -1.6841  0.0384
 1260SOL     OW 4207   5.817   1.304   2.545 -0.0689 -0.2887 -0.0205
 1260SOL    HW1 4208   5.868   1.308   2.464  1.2288 -2.0028  0.6474
 1260SOL    HW2 4209   5.837   1.218   2.582 -0.2965  0.5833  2.3224
 1261SOL     OW 4210   4.542   1.202   3.798 -0.2939 -0.4562  0.0719
 1261SOL    HW1 4211   4.576   1.275   3.851  1.0271 -0.1286 -1.1709
 1261SOL    HW2 4212   4.450   1.196   3.823  0.0979  0.1802  1.8358
 1262SOL     OW 4213   4.065   1.285   1.899  0.0108  0.2437  0.4161
 1262SOL    HW1 4214   4.109   1.204   1.926  0.0273  0.5331  1.3025
 1262SOL    HW2 4215   4.074   1.287   1.804  1.8446  0.2535  0.5579
 1263SOL     OW 4216   1.472   5.034   2.178  0.5388 -0.9408 -0.6345
 1263SOL    HW1 4217   1.540   5.101   2.166 -0.2549  0.2522  1.0404
 1263SOL    HW2 4218   1.424   5.063   2.256 -0.0774 -3.2982 -0.0633
 1264SOL     OW 4219   4.915   1.135   0.504  0.0267 -0.1580 -0.0888
 1264SOL    HW1 4220   4.847   1.197   0.532  0.2571  0.0522  0.0132
 1264SOL    HW2 4221   4.870   1.074   0.446 -0.1294  0.3191 -0.4732
 1265SOL     OW 4222   4.365   0.487   4.930  0.6979  0.2256 -0.4165
 1265SOL    HW1 4223   4.460   0.479   4.939  0.6132 -0.5325 -0.1143
 1265SOL    HW2 4224   4.330   0.407   4.969 -0.1581  1.2556  1.0412
 1266SOL     OW 4225   5.021   5.615   0.325  0.4851 -0.2863  0.0663
 1266SOL    HW1 4226   5.026   5.538   0.382 -0.4114 -0.5315 -0.1663
 1266SOL    HW2 4227   5.007   5.578   0.238 -3.1068  0.1518  0.3300
 1267SOL     OW 4228   1.947   5.540   5.239  0.2104 -0.5326 -0.3301
 1267SOL    HW1 4229   1.927   5.449   5.263 -0.2939 -0.5270 -0.7214
 1267SOL    HW2 4230   1.957   5.539   5.144  1.7768 -0.4685 -0.1822
 1268SOL     OW 4231   2.260   3.948   3.727  0.2270 -0.6771 -0.3454
 1268SOL    HW1 4232   2.190   4.013   3.721  0.1101 -0.6150  1.2727
 1268SOL    HW2 4233   2.318   3.969   3.654  0.7007  1.8678  0.6686
 1269SOL     OW 4234   4.147   0.560   1.792  0.8376 -0.1086  0.0436
 1269SOL    HW1 4235   4.130   0.626   1.725  0.1028 -0.8442 -0.5195
 1269SOL    HW2 4236   4.166   0.480   1.742  1.4303 -0.3920  0.7082
 1270SOL     OW 4237   0.223   4.546   3.082 -0.1837  0.0582  0.2927
 1270SOL    HW1 4238   0.202   4.462   3.123 -1.1001  1.2516  2.4115
 1270SOL    HW2 4239   0.159   4.554   3.011 -0.0092 -1.0707 -0.0096
 1271SOL     OW 4240   3.304   0.400   3.637 -0.0916 -0.2121  0.4422
 1271SOL    HW1 4241   3.239   0.433   3.575  1.5220  0.0494 -1.2030
 1271SOL    HW2 4242   3.315   0.471   3.700 -2.1537 -0.6962  1.4218
 1272SOL     OW 4243   4.587   6.118   5.120  0.0713 -0.1656  0.5321
 1272SOL    HW1 4244   4.542   6.200   5.100 -0.1019  0.1211  1.9785
 1272SOL    HW2 4245   4.525   6.049   5.096 -0.5319  0.1820  1.0884
 1273SOL     OW 4246   3.405   3.987   6.166 -0.6008  0.0131  0.5160
 1273SOL    HW1 4247   3.462   3.926   6.213  0.6841  0.0150 -0.9382
 1273SOL    HW2 4248   3.327   3.936   6.145 -0.3197 -0.5837  0.8976
 1274SOL     OW 4249   2.084   1.585   3.792  0.3236  0.9784  0.2388
 1274SOL    HW1 4250   2.040   1.563   3.875  3.7585  1.8529  2.5314
 1274SOL    HW2 4251   2.163   1.530   3.792  0.8375  1.6096 -2.1009
 1275SOL     OW 4252   4.036   3.884   3.547 -0.3567  0.5461  0.5069
 1275SOL    HW1 4253   3.995   3.815   3.599  0.0140  0.1716  0.3038
 1275SOL    HW2 4254   4.057   3.953   3.610  0.8732 -0.2531  1.0105
 1276SOL     OW 4255   0.012   0.389   6.234 -0.3774 -0.3859 -0.0858
 1276SOL    HW1 4256   0.058   0.462   6.192  0.2272 -0.7319 -0.0293
 1276SOL    HW2 4257  -0.068   0.429   6.268 -0.0213  0.2705  0.0160
 1277SOL     OW 4258   4.068   6.230   3.477  0.3199 -0.1096  0.4525
 1277SOL    HW1 4259   4.034   6.313   3.443  0.4913 -0.4029 -0.4660
 1277SOL    HW2 4260   3.996   6.192   3.527 -0.0365  0.1989  0.1758
 1278SOL     OW 4261   3.602   2.743   3.912 -0.6270 -0.1846  0.3842
 1278SOL    HW1 4262   3.573   2.833   3.928 -2.1234 -0.8234  1.4944
 1278SOL    HW2 4263   3.624   2.709   3.999  0.7003 -0.6649 -0.1109
 1279SOL     OW 4264   5.833   6.167   4.057 -0.8085 -0.1447 -0.1771
 1279SOL    HW1 4265   5.828   6.261   4.036  0.5406 -0.3558 -1.5718
 1279SOL    HW2 4266   5.907   6.135   4.006 -0.3266 -1.6914  1.4120
 1280SOL     OW 4267   2.363   3.260   0.048 -0.8010  0.1131  0.4468
 1280SOL    HW1 4268   2.352   3.182  -0.005  0.2305 -1.2307  2.1051
 1280SOL    HW2 4269   2.372   3.331  -0.015 -1.2182 -1.1670 -1.1191
 1281SOL     OW 4270   5.223   3.627   0.874  0.1189  0.5837  0.3863
 1281SOL    HW1 4271   5.137   3.632   0.833 -0.0935  1.4563  0.9269
 1281SOL    HW2 4272   5.232   3.709   0.923  1.0625  0.2990  0.7181
 1282SOL     OW 4273   0.607   4.451   5.661  0.3090  0.1059 -0.1715
 1282SOL    HW1 4274   0.690   4.408   5.641 -0.1919 -0.8957 -0.1029
 1282SOL    HW2 4275   0.562   4.457   5.577 -0.9499 -2.3435  0.2436
 1283SOL     OW 4276   1.578   2.070   1.530 -0.0644  0.2484  0.2634
 1283SOL    HW1 4277   1.599   2.113   1.447 -0.6556  0.3141  0.1473
 1283SOL    HW2 4278   1.510   2.007   1.508 -0.5465  0.5835  0.7822
 1284SOL     OW 4279   4.344   1.094   3.184 -0.5018  1.0625  0.9714
 1284SOL    HW1 4280   4.361   1.113   3.092  0.6309  0.3041  1.0023
 1284SOL    HW2 4281   4.329   0.999   3.187 -0.9178  1.1357  1.5201
 1285SOL     OW 4282   2.483   1.893   4.867 -0.3584  0.3030  0.5599
 1285SOL    HW1 4283   2.393   1.918   4.888 -0.2868  0.3095  0.8664
 1285SOL    HW2 4284   2.515   1.851   4.947  0.7586  2.6355  1.4380
 1286SOL     OW 4285   0.452   3.096   1.748  0.2045  0.0344  0.5189
 1286SOL    HW1 4286   0.542   3.097   1.718  0.0530  1.5889  0.0108
 1286SOL    HW2 4287   0.415   3.016   1.711  1.5087 -0.9532  1.2501
 1287SOL     OW 4288   0.452   5.142   1.136  0.0758 -0.4025 -0.3310
 1287SOL    HW1 4289   0.388   5.081   1.173  0.7236 -1.3867 -0.7783
 1287SOL    HW2 4290   0.428   5.227   1.172 -1.2952 -0.7946 -0.2607
 1288SOL     OW 4291   2.359   4.439   0.149 -0.3790 -0.0826 -0.4846
 1288SOL    HW1 4292   2.441   4.438   0.198 -0.6876  2.4242  0.2040
 1288SOL    HW2 4293   2.297   4.484   0.206 -1.5335  0.3639 -2.0146
 1289SOL     OW 4294   5.762   6.144   3.548 -0.0632  0.5247 -0.0558
 1289SOL    HW1 4295   5.794   6.227   3.582  0.0864  1.3246 -2.0008
 1289SOL    HW2 4296   5.830   6.114   3.487  0.1545 -1.3502  1.0144
 1290SOL     OW 4297   6.192   4.809   0.077 -0.0049  0.4969 -0.4868
 1290SOL    HW1 4298   6.196   4.892   0.124  3.1269  0.4946 -0.5501
 1290SOL    HW2 4299   6.209   4.832  -0.014 -0.1297 -0.1158 -0.6700
 1291SOL     OW 4300   0.393   4.851   1.001 -0.5326  0.4365 -0.1997
 1291SOL    HW1 4301   0.486   4.866   0.986 -0.3902  0.6327  0.7812
 1291SOL    HW2 4302   0.387   4.758   1.023 -0.2806  0.8136  1.6084
 1292SOL     OW 4303   1.665   1.352   3.931  0.2185 -0.0619 -0.3733
 1292SOL    HW1 4304   1.748   1.313   3.906 -0.5889 -1.1433 -1.4396
 1292SOL    HW2 4305   1.601   1.282   3.921 -0.7258  0.5016  1.2385
 1293SOL     OW 4306   4.990   1.891   1.851  0.3490 -0.3738 -0.6140
 1293SOL    HW1 4307   4.976   1.970   1.798 -0.5419 -0.9084 -1.2118
 1293SOL    HW2 4308   5.036   1.831   1.792  1.5460 -0.1215  0.0211
 1294SOL     OW 4309   4.217   1.365   4.858  0.4644  0.5182  0.4294
 1294SOL    HW1 4310   4.165   1.435   4.899  0.4485  1.8984 -1.7609
 1294SOL    HW2 4311   4.215   1.386   4.765  1.1724 -1.9961 -0.2244
 1295SOL     OW 4312   5.076   2.345   4.788  0.1499  0.2852 -0.5024
 1295SOL    HW1 4313   5.161   2.387   4.787 -0.4273  1.4777 -0.6165
 1295SOL    HW2 4314   5.089   2.263   4.740  1.2358  0.4222 -0.4590
 1296SOL     OW 4315   0.874   1.784   2.304  0.3108 -0.0229 -0.1701
 1296SOL    HW1 4316   0.808   1.773   2.372  1.8002 -2.2257  1.0565
 1296SOL    HW2 4317   0.864   1.707   2.248  1.7274 -0.3698  0.0013
 1297SOL     OW 4318   3.150   0.170   5.849  0.2670  0.4209  0.8869
 1297SOL    HW1 4319   3.182   0.111   5.917  1.8492 -2.1764 -1.8905
 1297SOL    HW2 4320   3.227   0.193   5.798 -0.9826  1.4937 -0.6223
 1298SOL     OW 4321   3.238   4.451   1.346 -0.8120 -0.0500 -0.0932
 1298SOL    HW1 4322   3.326   4.461   1.311 -0.8949  0.7568 -0.1057
 1298SOL    HW2 4323   3.197   4.384   1.292 -0.3598 -0.0845 -0.3920
 1299SOL     OW 4324   4.735   3.912   5.884 -0.2302 -0.2134 -0.1213
 1299SOL    HW1 4325   4.773   3.947   5.803  0.2920 -1.2694 -0.3504
 1299SOL    HW2 4326   4.645   3.889   5.861 -0.8055  1.5284  0.2046
 1300SOL     OW 4327   0.909   0.123   1.934 -1.0026  0.8572  0.3577
 1300SOL    HW1 4328   0.906   0.190   2.002 -0.7664  0.7935  0.4343
 1300SOL    HW2 4329   0.878   0.167   1.855 -2.9496  0.4784  0.8577
 1301SOL     OW 4330   1.383   4.353   2.585  0.4790 -0.2198 -0.4624
 1301SOL    HW1 4331   1.296   4.376   2.617  0.2863 -0.0331 -1.1130
 1301SOL    HW2 4332   1.391   4.259   2.604  0.3626 -0.1252  0.0990
 1302SOL     OW 4333   1.144   1.989   2.752 -0.0275 -0.2733  0.1878
 1302SOL    HW1 4334   1.133   2.081   2.728  0.8118 -0.1694  0.1629
 1302SOL    HW2 4335   1.056   1.952   2.747 -0.5215  0.7347  1.0754
 1303SOL     OW 4336   2.581   4.799   4.576  0.2559 -0.4689  0.1460
 1303SOL    HW1 4337   2.549   4.887   4.553 -0.0754 -1.0888 -2.0585
 1303SOL    HW2 4338   2.607   4.806   4.667 -0.1295  1.8223  0.1491
 1304SOL     OW 4339   3.477   0.073   4.300 -0.7938 -0.0522  0.1021
 1304SOL    HW1 4340   3.478   0.168   4.310 -0.1058  0.0110 -0.4612
 1304SOL    HW2 4341   3.552   0.042   4.351  0.5309 -0.0431 -1.7422
 1305SOL     OW 4342   5.088   1.302   4.007 -0.1493  0.0497 -0.1570
 1305SOL    HW1 4343   5.150   1.316   4.079 -0.5286  0.3316  0.1135
 1305SOL    HW2 4344   5.022   1.244   4.044  0.4386 -1.0133 -0.7221
 1306SOL     OW 4345   2.932   5.387   6.085  0.1805 -0.0905 -0.4072
 1306SOL    HW1 4346   2.867   5.412   6.150 -0.8922 -2.3492 -0.5087
 1306SOL    HW2 4347   3.012   5.371   6.137 -0.5834 -1.5923  0.3729
 1307SOL     OW 4348   3.638   0.485   2.099  1.2274 -0.0329 -0.0944
 1307SOL    HW1 4349   3.684   0.528   2.026  2.4995 -1.2832 -0.0804
 1307SOL    HW2 4350   3.562   0.445   2.058  0.9818  0.7426 -0.4177
 1308SOL     OW 4351   0.188   2.617   2.549  0.4715  0.2913 -0.2473
 1308SOL    HW1 4352   0.244   2.611   2.472 -1.2564 -1.9299 -1.5026
 1308SOL    HW2 4353   0.194   2.530   2.589 -0.4944  0.6546  0.7272
 1309SOL     OW 4354   2.746   4.619   5.528  0.7786  0.0853 -0.2813
 1309SOL    HW1 4355   2.820   4.638   5.470  0.7982 -2.2896 -1.1377
 1309SOL    HW2 4356   2.669   4.622   5.471  0.3226  1.2733  0.3528
 1310SOL     OW 4357   0.579   6.181   0.465 -0.1338 -0.2236 -0.1265
 1310SOL    HW1 4358   0.672   6.164   0.455  0.2625  0.4056  1.9141
 1310SOL    HW2 4359   0.572   6.276   0.475 -1.2307 -0.0501 -2.0340
 1311SOL     OW 4360   5.368   1.507   2.481 -0.0974 -0.4072 -0.3291
 1311SOL    HW1 4361   5.329   1.543   2.560  1.1185  0.9434 -0.3064
 1311SOL    HW2 4362   5.461   1.496   2.502 -0.0720 -1.6780 -1.0094
 1312SOL     OW 4363   0.439   2.473   6.226 -0.0410  0.5352 -0.0619
 1312SOL    HW1 4364   0.472   2.546   6.173 -0.2766 -0.5304 -1.7146
 1312SOL    HW2 4365   0.428   2.401   6.165  0.3075 -0.9649  1.5613
 1313SOL     OW 4366   0.915   5.624   1.646  0.4059 -0.1222 -0.3670
 1313SOL    HW1 4367   1.003   5.625   1.682 -0.1178  0.7362  0.9310
 1313SOL    HW2 4368   0.865   5.685   1.700 -1.0858 -0.8592 -0.8354
 1314SOL     OW 4369   2.251   6.116   0.551 -0.1263 -0.5324 -0.0507
 1314SOL    HW1 4370   2.232   6.188   0.490  0.7255  0.1476  0.4529
 1314SOL    HW2 4371   2.178   6.056   0.541 -0.4724  0.0267 -1.0553
 1315SOL     OW 4372   0.624   1.802   6.091  0.5712 -0.9498  0.7526
 1315SOL    HW1 4373   0.619   1.708   6.079  0.9009 -0.9174  0.3539
 1315SOL    HW2 4374   0.533   1.829   6.106  0.0839 -1.0112 -1.6446
 1316SOL     OW 4375   1.344   0.582   4.924 -0.3555  0.4439 -0.1254
 1316SOL    HW1 4376   1.352   0.512   4.859  0.6468  0.9447 -0.5725
 1316SOL    HW2 4377   1.358   0.540   5.008  1.5611  0.2912 -0.4814
 1317SOL     OW 4378   2.023   4.962   4.499  0.3043  0.0187 -0.5716
 1317SOL    HW1 4379   2.001   4.882   4.547  0.0225 -0.5305 -1.5905
 1317SOL    HW2 4380   2.098   4.939   4.444  1.8026  1.1442  0.8849
 1318SOL     OW 4381   4.724   1.994   1.461 -0.4560  0.2065 -0.0851
 1318SOL    HW1 4382   4.728   2.074   1.514  0.2244 -0.4347  0.8771
 1318SOL    HW2 4383   4.700   1.926   1.524 -2.2664 -0.1617 -1.1283
 1319SOL     OW 4384   2.144   3.308   4.009 -0.0115 -0.0447 -0.2922
 1319SOL    HW1 4385   2.167   3.398   3.986  0.1883  0.4140  1.5339
 1319SOL    HW2 4386   2.140   3.262   3.925  1.9902  1.1641 -1.1317
 1320SOL     OW 4387   5.548   5.647   4.915  0.6285  0.7155  0.0647
 1320SOL    HW1 4388   5.622   5.672   4.860  0.5869  0.8165  0.0548
 1320SOL    HW2 4389   5.535   5.553   4.898  2.8216 -0.1588  2.4319
 1321SOL     OW 4390   6.060   3.168   4.500  0.5187 -0.2848  0.1177
 1321SOL    HW1 4391   6.031   3.089   4.455 -2.1335  0.1909  0.8294
 1321SOL    HW2 4392   6.046   3.148   4.593  1.0308  0.5770  0.3887
 1322SOL     OW 4393   1.673   5.396   5.076  0.5440  0.4897  0.3065
 1322SOL    HW1 4394   1.729   5.364   5.147 -1.1904 -1.7002  0.7889
 1322SOL    HW2 4395   1.677   5.492   5.085  3.4953  0.4144  0.7810
 1323SOL     OW 4396   3.945   5.583   0.015 -0.5920  0.7793 -0.4490
 1323SOL    HW1 4397   3.866   5.531   0.030  1.3923 -1.8377  2.5256
 1323SOL    HW2 4398   3.949   5.643   0.090  1.0058 -0.4119  0.5071
 1324SOL     OW 4399   3.139   5.780   4.283 -0.0103  0.2604 -0.4456
 1324SOL    HW1 4400   3.070   5.789   4.217 -1.4753 -2.7837  0.5001
 1324SOL    HW2 4401   3.093   5.787   4.366  1.2307  0.3650  0.2527
 1325SOL     OW 4402   3.134   0.372   1.047 -0.3632 -0.2498  0.1822
 1325SOL    HW1 4403   3.217   0.329   1.069 -0.7024 -0.5432  0.9531
 1325SOL    HW2 4404   3.081   0.362   1.126 -0.7950  0.7671  0.0349
 1326SOL     OW 4405   1.487   0.197   2.325 -0.2763 -0.2081 -0.0222
 1326SOL    HW1 4406   1.542   0.119   2.313  0.8859  0.4957  0.5899
 1326SOL    HW2 4407   1.502   0.249   2.246  0.8496  0.5132  0.6459
 1327SOL     OW 4408   5.749   4.622   1.113  0.0410 -0.2755 -0.0368
 1327SOL    HW1 4409   5.692   4.631   1.189  0.8346 -1.0768  0.6753
 1327SOL    HW2 4410   5.690   4.629   1.038 -1.0361 -1.2851  0.6837
 1328SOL     OW 4411   2.667   3.319   0.196  0.0132  0.0639 -0.7315
 1328SOL    HW1 4412   2.740   3.360   0.149 -1.7167  1.4697 -2.3619
 1328SOL    HW2 4413   2.625   3.392   0.242 -1.5295 -0.2838 -1.4979
 1329SOL     OW 4414   2.000   5.938   0.543  0.2803 -0.3434 -0.6169
 1329SOL    HW1 4415   1.912   5.943   0.506 -0.0143  0.8316  0.1686
 1329SOL    HW2 4416   1.989   5.893   0.626  0.3741 -0.0304 -0.4303
 1330SOL     OW 4417   5.331   5.580   1.467 -0.2715 -0.1685  0.3949
 1330SOL    HW1 4418   5.320   5.572   1.372 -0.5899 -2.3005  0.5656
 1330SOL    HW2 4419   5.419   5.546   1.484 -0.3445 -0.1166  0.9039
 1331SOL     OW 4420   0.675   3.240   2.504 -0.1028 -0.0945 -0.1202
 1331SOL    HW1 4421   0.594   3.216   2.459 -0.5263  0.0993  0.5293
 1331SOL    HW2 4422   0.738   3.256   2.433  0.7680 -4.6666 -0.7502
 1332SOL     OW 4423   5.519   0.736   1.558 -0.2057  0.1166 -1.1212
 1332SOL    HW1 4424   5.522   0.822   1.516 -2.6397  1.0029  0.2760
 1332SOL    HW2 4425   5.455   0.687   1.507  0.1180 -0.3749 -1.0597
 1333SOL     OW 4426   1.430   0.962   0.439  0.0691 -0.6984 -0.0506
 1333SOL    HW1 4427   1.432   0.972   0.344 -1.9915 -1.3768 -0.2089
 1333SOL    HW2 4428   1.382   1.039   0.470  3.1788  1.0739  0.7844
 1334SOL     OW 4429   0.248   3.307   3.976 -0.2205 -0.5446 -0.4526
 1334SOL    HW1 4430   0.153   3.302   3.966 -0.2924  1.4457 -1.0640
 1334SOL    HW2 4431   0.262   3.333   4.067 -0.1931 -1.8561 -0.0611
 1335SOL     OW 4432   5.673   3.357   4.058 -0.0377  0.4882 -0.0282
 1335SOL    HW1 4433   5.631   3.280   4.020 -0.7616  0.8050  0.1025
 1335SOL    HW2 4434   5.604   3.424   4.060 -0.2535  0.2908  2.4183
 1336SOL     OW 4435   5.496   1.934   3.642 -0.2013 -0.3042 -0.5368
 1336SOL    HW1 4436   5.559   1.906   3.575  2.4831  1.0025  1.2292
 1336SOL    HW2 4437   5.551   1.958   3.717 -2.8393  1.3091  1.0285
 1337SOL     OW 4438   2.092   3.891   4.567 -0.6163  0.1831 -0.4624
 1337SOL    HW1 4439   2.040   3.837   4.507  0.5358 -2.5545  0.8161
 1337SOL    HW2 4440   2.165   3.835   4.593  1.2090  2.7413  0.3258
 1338SOL     OW 4441   0.011   1.014   0.252  0.2939  0.7620 -0.2867
 1338SOL    HW1 4442   0.043   0.964   0.327 -0.5821  0.5172 -0.0662
 1338SOL    HW2 4443  -0.034   1.089   0.291  0.8810  1.2894 -0.5987
 1339SOL     OW 4444   4.423   0.925   6.166 -0.7860  0.1774 -0.1683
 1339SOL    HW1 4445   4.446   0.844   6.121 -0.0730 -0.5720  1.4428
 1339SOL    HW2 4446   4.328   0.932   6.157 -0.8797 -0.9326 -0.1983
 1340SOL     OW 4447   4.339   1.330   0.600  0.8911 -0.1813  0.5246
 1340SOL    HW1 4448   4.403   1.400   0.608  0.2213  0.5655 -0.4420
 1340SOL    HW2 4449   4.280   1.359   0.530  0.1493 -1.3530  0.6369
 1341SOL     OW 4450   6.144   2.332   4.217  0.4730 -0.1805 -0.1805
 1341SOL    HW1 4451   6.157   2.427   4.221 -0.1309 -0.0159 -1.6325
 1341SOL    HW2 4452   6.193   2.298   4.292 -0.7790  1.4122  1.4623
 1342SOL     OW 4453   5.415   1.562   3.842 -0.0775  0.4551 -0.6341
 1342SOL    HW1 4454   5.499   1.596   3.811  0.3382  0.2807  0.2747
 1342SOL    HW2 4455   5.433   1.529   3.930 -0.4868 -1.9649 -1.3916
 1343SOL     OW 4456   1.973   4.271   3.072  0.0483  0.3913  0.3067
 1343SOL    HW1 4457   2.051   4.326   3.085  0.1324  0.2175  0.5398
 1343SOL    HW2 4458   2.000   4.184   3.101 -0.1758  0.2904  0.2114
 1344SOL     OW 4459   3.263   3.158   5.727  0.9954 -0.3859  0.1826
 1344SOL    HW1 4460   3.176   3.121   5.741  0.9510  0.0138  1.0250
 1344SOL    HW2 4461   3.317   3.084   5.700 -0.0442 -0.3071 -2.4174
 1345SOL     OW 4462   5.462   3.401   5.980 -0.3694  0.2368  0.4993
 1345SOL    HW1 4463   5.473   3.313   5.945  0.7276 -0.0789  1.5567
 1345SOL    HW2 4464   5.530   3.453   5.936  0.2281  0.1038  1.2312
 1346SOL     OW 4465   3.560   5.346   0.818 -0.1319  0.4463 -0.3349
 1346SOL    HW1 4466   3.483   5.341   0.762 -0.7479 -0.4860  0.5383
 1346SOL    HW2 4467   3.582   5.254   0.836  0.7281  0.7134  0.0405
 1347SOL     OW 4468   0.860   3.149   1.092  0.1085 -0.1350 -0.3836
 1347SOL    HW1 4469   0.900   3.072   1.050 -0.9997  0.6757 -3.1637
 1347SOL    HW2 4470   0.767   3.126   1.100  0.4510 -0.8106  3.1802
 1348SOL     OW 4471   5.542   4.664   3.112 -0.7837 -0.2845 -0.2206
 1348SOL    HW1 4472   5.624   4.708   3.134 -1.0231 -0.6731  1.6170
 1348SOL    HW2 4473   5.474   4.730   3.126 -1.1219 -1.0440  2.3248
 1349SOL     OW 4474   5.666   4.998   3.947 -0.1062  0.1839 -0.2418
 1349SOL    HW1 4475   5.632   5.045   3.871  0.3296 -0.4477 -0.8396
 1349SOL    HW2 4476   5.631   4.910   3.939  0.0380  0.0775  0.2300
 1350SOL     OW 4477   2.821   2.401   2.230 -0.4731 -0.3893 -0.6100
 1350SOL    HW1 4478   2.763   2.336   2.191 -2.4259  1.0297 -0.2237
 1350SOL    HW2 4479   2.802   2.397   2.324 -1.7097  1.6716 -0.7157
 1351SOL     OW 4480   2.481   2.245   0.324 -0.5651 -0.0408 -0.0074
 1351SOL    HW1 4481   2.550   2.208   0.379 -1.4549 -1.5736  0.1234
 1351SOL    HW2 4482   2.432   2.169   0.291 -0.0213  0.7865 -3.0402
 1352SOL     OW 4483   4.857   2.131   5.867  0.0293  0.1329  0.1570
 1352SOL    HW1 4484   4.927   2.066   5.862  0.2065  0.4181 -1.7812
 1352SOL    HW2 4485   4.902   2.216   5.857 -0.3519  0.5047  1.3348
 1353SOL     OW 4486   4.535   1.790   2.825 -0.8352 -0.0117  0.1027
 1353SOL    HW1 4487   4.606   1.854   2.829 -1.3505  0.6059 -0.3692
 1353SOL    HW2 4488   4.457   1.839   2.850 -1.9654  0.6769 -3.9277
 1354SOL     OW 4489   4.727   4.198   6.028 -0.0360 -0.0129 -0.3460
 1354SOL    HW1 4490   4.726   4.222   5.935  0.5627  1.3381 -0.0240
 1354SOL    HW2 4491   4.706   4.105   6.028 -1.1104  0.1849 -1.7564
 1355SOL     OW 4492   2.938   4.185   0.710  0.4397  0.1945 -0.0595
 1355SOL    HW1 4493   2.964   4.172   0.619 -0.2838 -3.0432  0.0650
 1355SOL    HW2 4494   3.018   4.170   0.760  0.5390  0.5905 -0.0976
 1356SOL     OW 4495   2.170   0.001   4.987  0.3452  0.5730  0.2607
 1356SOL    HW1 4496   2.150   0.089   4.957  1.1876  0.9483  0.7937
 1356SOL    HW2 4497   2.102  -0.018   5.051  0.6130  1.1331  0.7134
 1357SOL     OW 4498   5.194   2.363   0.678 -0.0004  0.2421 -0.3704
 1357SOL    HW1 4499   5.159   2.373   0.590  1.3410 -1.9841 -1.2400
 1357SOL    HW2 4500   5.275   2.414   0.678  0.1280  0.0370 -0.5056
 1358SOL     OW 4501   0.094   4.573   0.039  0.0949 -0.0648 -0.4877
 1358SOL    HW1 4502   0.173   4.614   0.004  0.1097  1.1248  0.8330
 1358SOL    HW2 4503   0.030   4.644   0.041 -0.3338 -0.4717  0.5035
 1359SOL     OW 4504   2.199   3.700   5.323 -0.0937 -0.3980  0.3775
 1359SOL    HW1 4505   2.132   3.635   5.299  0.5265 -1.3474  1.1277
 1359SOL    HW2 4506   2.223   3.742   5.240 -1.6904  0.0584  0.1051
 1360SOL     OW 4507   0.616   2.076   4.690  0.0485  0.0194 -0.0201
 1360SOL    HW1 4508   0.651   2.133   4.622 -0.2040 -0.6128 -0.6971
 1360SOL    HW2 4509   0.527   2.108   4.706 -0.7809 -1.2753 -1.7288
 1361SOL     OW 4510   2.159   4.434   1.840 -0.5325  0.5567 -0.2328
 1361SOL    HW1 4511   2.204   4.499   1.894  0.4971 -0.1904 -0.1610
 1361SOL    HW2 4512   2.079   4.414   1.888 -0.8182  1.6820 -0.2061
 1362SOL     OW 4513   6.162   6.020   2.289  0.5598  0.1846 -0.5002
 1362SOL    HW1 4514   6.257   6.021   2.297  0.4858 -1.3050  1.0323
 1362SOL    HW2 4515   6.135   6.106   2.322  1.3919  1.1331 -2.1363
 1363SOL     OW 4516   5.205   3.250   5.739  0.8088  0.5896  0.0084
 1363SOL    HW1 4517   5.181   3.319   5.800  1.6964  1.3476 -0.4622
 1363SOL    HW2 4518   5.143   3.179   5.756 -1.0734  2.0366 -0.4767
 1364SOL     OW 4519   2.781   2.823   4.443 -0.0666 -0.4267  1.0165
 1364SOL    HW1 4520   2.761   2.878   4.518  1.5074  1.4619  0.1632
 1364SOL    HW2 4521   2.761   2.878   4.367  2.2128 -0.6984  0.1297
 1365SOL     OW 4522   5.323   5.497   2.103 -0.4673  0.0531  0.2819
 1365SOL    HW1 4523   5.313   5.406   2.075 -4.0267  0.5436 -0.4658
 1365SOL    HW2 4524   5.347   5.544   2.024  0.1104 -0.0473  0.3952
 1366SOL     OW 4525   4.437   3.363   0.120 -0.9355  0.3003  0.0712
 1366SOL    HW1 4526   4.400   3.320   0.044 -1.1519  0.1980  0.2333
 1366SOL    HW2 4527   4.365   3.368   0.183 -0.8596  0.7221  0.1266
 1367SOL     OW 4528   3.980   2.731   2.349  0.1784 -0.3691  0.4728
 1367SOL    HW1 4529   4.068   2.693   2.345  0.1738 -0.2268 -1.4715
 1367SOL    HW2 4530   3.966   2.746   2.443  2.3427 -0.1299  0.8272
 1368SOL     OW 4531   1.473   4.170   1.603  0.3342 -0.0720  0.0563
 1368SOL    HW1 4532   1.538   4.174   1.533  1.6673  0.6828  1.2954
 1368SOL    HW2 4533   1.463   4.076   1.621 -0.1979 -0.2947 -1.2672
 1369SOL     OW 4534   6.162   3.544   4.452  0.0749 -0.1345 -0.2507
 1369SOL    HW1 4535   6.132   3.627   4.489  3.4973  1.3764 -0.5614
 1369SOL    HW2 4536   6.126   3.543   4.363  1.4000  1.9527 -0.8759
 1370SOL     OW 4537   0.483   4.208   4.933  0.3122 -0.1896 -0.2950
 1370SOL    HW1 4538   0.549   4.252   4.986  0.7407 -0.6918 -0.3966
 1370SOL    HW2 4539   0.498   4.240   4.844 -1.5746  2.0546  0.1000
 1371SOL     OW 4540   2.832   1.885   4.219 -0.3917  0.1749 -0.5765
 1371SOL    HW1 4541   2.759   1.945   4.229 -1.4878 -1.1280 -0.4965
 1371SOL    HW2 4542   2.830   1.860   4.126 -0.2669 -0.1361 -0.4972
 1372SOL     OW 4543   1.276   5.773   1.495  0.1317  0.9780  0.0106
 1372SOL    HW1 4544   1.288   5.774   1.400  1.2905 -1.0746  0.0706
 1372SOL    HW2 4545   1.323   5.851   1.526 -2.7748  3.4331 -1.2279
 1373SOL     OW 4546   2.189   0.433   5.116 -0.6374 -0.9458 -0.2120
 1373SOL    HW1 4547   2.244   0.511   5.129 -0.1602 -1.1364 -1.0279
 1373SOL    HW2 4548   2.125   0.438   5.187 -0.0125 -0.3331  0.3383
 1374SOL     OW 4549   0.061   3.161   4.720  0.1975  0.1444  0.4063
 1374SOL    HW1 4550   0.031   3.070   4.725 -0.1246  0.2417  0.2757
 1374SOL    HW2 4551   0.032   3.200   4.803  1.0829 -0.0929  0.8327
 1375SOL     OW 4552   4.975   3.568   1.154  0.0915  0.4931 -0.0728
 1375SOL    HW1 4553   5.034   3.624   1.206  0.6708 -1.4517  1.4589
 1375SOL    HW2 4554   4.945   3.501   1.215 -3.1040  0.8984 -1.0380
 1376SOL     OW 4555   1.270   3.449   4.916 -0.1340 -0.0355  0.4513
 1376SOL    HW1 4556   1.287   3.416   4.828 -1.9996 -1.0455  0.4074
 1376SOL    HW2 4557   1.326   3.396   4.973  1.3259  0.8453 -0.1323
 1377SOL     OW 4558   0.690   3.656   2.940 -0.0349 -0.2963  0.2572
 1377SOL    HW1 4559   0.734   3.573   2.960 -0.4702 -0.5479  0.1891
 1377SOL    HW2 4560   0.658   3.687   3.025  0.8467  0.2264  0.4092
 1378SOL     OW 4561   6.229   1.011   4.359  0.6773 -0.5084 -0.6449
 1378SOL    HW1 4562   6.204   1.102   4.342 -0.1633 -0.5819  0.1214
 1378SOL    HW2 4563   6.309   1.017   4.411 -1.1364 -0.0700  2.3130
 1379SOL     OW 4564   3.916   0.512   4.141  0.5267  0.0183 -0.0865
 1379SOL    HW1 4565   3.855   0.438   4.143  2.2733 -1.5231 -0.4630
 1379SOL    HW2 4566   3.914   0.548   4.230 -0.0791 -0.7341  0.2108
 1380SOL     OW 4567   4.389   3.735   1.016 -0.1512 -0.3944 -0.7738
 1380SOL    HW1 4568   4.438   3.656   0.995 -0.7293 -0.3131 -2.5302
 1380SOL    HW2 4569   4.432   3.805   0.966  0.4171  0.4578  0.8287
 1381SOL     OW 4570   3.920   3.413   2.496 -0.4082 -0.2008 -1.0048
 1381SOL    HW1 4571   3.911   3.355   2.420  1.5466  0.3407 -1.7241
 1381SOL    HW2 4572   3.842   3.396   2.549 -1.9656 -0.4499 -3.2250
 1382SOL     OW 4573   3.526   0.932   3.420 -0.1646  0.4419 -0.5059
 1382SOL    HW1 4574   3.509   1.023   3.444  1.7319  0.5967  0.4883
 1382SOL    HW2 4575   3.524   0.932   3.324 -0.4583  1.4663 -0.5126
 1383SOL     OW 4576   1.916   3.891   5.900  0.0218 -1.1662  0.0497
 1383SOL    HW1 4577   1.863   3.941   5.838 -0.3059 -0.5175  0.8389
 1383SOL    HW2 4578   1.930   3.951   5.973  0.4867 -1.8859  0.5594
 1384SOL     OW 4579   0.838   5.041   1.443 -0.4070 -0.0410 -0.1625
 1384SOL    HW1 4580   0.845   4.995   1.527 -0.1586  2.0848  1.0454
 1384SOL    HW2 4581   0.916   5.096   1.439 -2.0599  2.4459 -0.1417
 1385SOL     OW 4582   6.104   5.308   2.430 -0.2395 -0.5992  0.2231
 1385SOL    HW1 4583   6.190   5.334   2.463  0.3706 -0.4302 -1.3728
 1385SOL    HW2 4584   6.104   5.339   2.339 -2.0798 -0.4160  0.2505
 1386SOL     OW 4585   2.859   3.897   4.204 -0.2053  0.5613 -0.0647
 1386SOL    HW1 4586   2.844   3.992   4.200 -3.4952  0.1317 -0.1505
 1386SOL    HW2 4587   2.852   3.868   4.113  0.6938  0.1851 -0.0263
 1387SOL     OW 4588   2.806   4.974   0.716 -0.7910  0.3794  0.5906
 1387SOL    HW1 4589   2.876   4.931   0.666 -1.1596 -1.1141  1.3106
 1387SOL    HW2 4590   2.835   5.065   0.722  0.9510 -0.1185  0.5738
 1388SOL     OW 4591   3.244   0.237   5.321  0.4683 -0.3990 -0.5803
 1388SOL    HW1 4592   3.305   0.171   5.354  0.3097 -0.0566  0.4401
 1388SOL    HW2 4593   3.162   0.219   5.368  0.3495  0.3619 -0.4898
 1389SOL     OW 4594   4.949   5.470   1.245 -0.6353 -0.0813  0.4238
 1389SOL    HW1 4595   4.951   5.389   1.194  3.0013  1.0875 -1.7260
 1389SOL    HW2 4596   4.888   5.527   1.197 -1.4128 -0.7823  0.5762
 1390SOL     OW 4597   0.246   1.658   2.816  0.9030 -0.4449  0.1728
 1390SOL    HW1 4598   0.300   1.737   2.806 -0.9943  0.7801 -0.9145
 1390SOL    HW2 4599   0.201   1.649   2.733 -0.8753 -1.1876  1.1612
 1391SOL     OW 4600   3.507   2.923   4.662 -0.2526  0.6102 -0.5698
 1391SOL    HW1 4601   3.492   3.006   4.706 -0.5121 -0.4401  1.4458
 1391SOL    HW2 4602   3.561   2.872   4.723  0.0497 -0.6392 -1.8196
 1392SOL     OW 4603   3.738   6.017   3.461  0.6325  0.2577 -0.5146
 1392SOL    HW1 4604   3.688   5.996   3.382 -1.1933 -0.9279  0.8447
 1392SOL    HW2 4605   3.683   6.080   3.508  0.2842 -1.1783  1.0939
 1393SOL     OW 4606   2.633   2.542   0.803 -0.3583  0.6758 -0.2690
 1393SOL    HW1 4607   2.714   2.499   0.831 -0.5142 -0.2546 -1.2093
 1393SOL    HW2 4608   2.663   2.622   0.760  0.0484  0.4654 -0.3863
 1394SOL     OW 4609   0.436   1.438   3.392  0.4816 -0.2379  0.6485
 1394SOL    HW1 4610   0.429   1.397   3.478 -0.8933 -1.8413 -0.1813
 1394SOL    HW2 4611   0.420   1.531   3.409 -3.0763 -0.8936  1.8052
 1395SOL     OW 4612   1.711   1.377   2.135  0.2625 -0.1899  0.3787
 1395SOL    HW1 4613   1.709   1.472   2.148 -1.5324 -0.1350 -0.1064
 1395SOL    HW2 4614   1.738   1.365   2.044 -0.2564 -0.1172  0.2152
 1396SOL     OW 4615   1.920   0.642   5.425  0.2911  0.5673  0.6619
 1396SOL    HW1 4616   1.864   0.676   5.495 -0.8599  0.1235 -0.0032
 1396SOL    HW2 4617   1.941   0.553   5.452 -0.3547  0.3128  0.3361
 1397SOL     OW 4618   3.528   3.207   4.742  0.4023 -0.1252  0.1388
 1397SOL    HW1 4619   3.466   3.189   4.813  0.3201 -1.1923 -0.1729
 1397SOL    HW2 4620   3.595   3.262   4.781  0.6210 -1.0927  1.1861
 1398SOL     OW 4621   1.904   0.009   0.527 -0.0701 -0.2441  0.0611
 1398SOL    HW1 4622   1.903   0.101   0.553 -0.4423  0.0125 -0.8148
 1398SOL    HW2 4623   1.907  -0.039   0.609  1.1519  0.5575  0.5201
 1399SOL     OW 4624   4.611   4.694   5.831  0.5422 -0.2549 -0.2351
 1399SOL    HW1 4625   4.540   4.679   5.893  0.2282  1.0035 -0.2599
 1399SOL    HW2 4626   4.683   4.638   5.862  0.7022  0.9846  1.7789
 1400SOL     OW 4627   3.960   5.181   1.206  0.3726  0.0832 -0.3758
 1400SOL    HW1 4628   3.906   5.103   1.192  0.7403 -0.2415 -0.0222
 1400SOL    HW2 4629   3.993   5.171   1.295 -0.4249  1.1747  0.0761
 1401SOL     OW 4630   3.826   4.832   5.807 -0.0826  0.1879  0.4642
 1401SOL    HW1 4631   3.761   4.813   5.874 -0.1167 -0.4699  0.2527
 1401SOL    HW2 4632   3.819   4.927   5.792 -0.4002  0.2592  1.0429
 1402SOL     OW 4633   1.397   0.271   3.059  0.4371 -0.3774  0.4513
 1402SOL    HW1 4634   1.461   0.327   3.102  0.9934  1.0732 -2.0846
 1402SOL    HW2 4635   1.406   0.291   2.966 -1.8199 -2.1504 -0.2382
 1403SOL     OW 4636   2.864   1.870   4.893  0.0270  0.1262  0.4912
 1403SOL    HW1 4637   2.833   1.848   4.981  0.9840  1.4454  1.1846
 1403SOL    HW2 4638   2.952   1.905   4.907  1.5118 -2.5605 -1.3041
 1404SOL     OW 4639   5.332   4.371   6.008  0.1208  0.0267  0.2568
 1404SOL    HW1 4640   5.312   4.371   6.102 -0.2961 -0.3273  0.1720
 1404SOL    HW2 4641   5.424   4.343   6.003  0.6241  1.5008  0.6449
 1405SOL     OW 4642   5.132   4.110   3.935  0.2096  0.2350 -0.1978
 1405SOL    HW1 4643   5.093   4.041   3.988  0.8490  0.1928  0.2316
 1405SOL    HW2 4644   5.212   4.071   3.901 -0.1300  0.3038 -1.1017
 1406SOL     OW 4645   4.025   4.360   0.819  0.1890 -0.1156  0.7314
 1406SOL    HW1 4646   4.089   4.402   0.875  0.1841 -0.3171  0.8862
 1406SOL    HW2 4647   3.998   4.429   0.758  2.3501 -0.6318 -0.9517
 1407SOL     OW 4648   5.299   4.564   1.894  0.0359  0.2812 -0.3937
 1407SOL    HW1 4649   5.223   4.622   1.894 -0.4675 -0.3633 -0.7160
 1407SOL    HW2 4650   5.335   4.571   1.982  0.3546  1.5507 -0.5995
 1408SOL     OW 4651   3.384   5.123   3.333  0.4020  0.1841 -0.3354
 1408SOL    HW1 4652   3.289   5.113   3.329  0.4436  0.0998 -1.3441
 1408SOL    HW2 4653   3.405   5.115   3.426 -0.5135 -0.3419 -0.1632
 1409SOL     OW 4654   1.381   6.220   6.034  0.3894 -0.4633  0.0445
 1409SOL    HW1 4655   1.442   6.266   6.090  0.0645  2.9571 -2.1399
 1409SOL    HW2 4656   1.300   6.215   6.085  0.4515  1.4557  0.4020
 1410SOL     OW 4657   1.841   5.095   3.216  0.0645 -0.3531  0.3501
 1410SOL    HW1 4658   1.813   5.105   3.125  1.6212  0.2142 -0.1002
 1410SOL    HW2 4659   1.907   5.027   3.213  0.8138  0.3349  0.8916
 1411SOL     OW 4660   1.642   4.228   5.001 -0.3899 -0.1171  0.3875
 1411SOL    HW1 4661   1.590   4.148   4.998 -0.6345  0.0778 -0.8984
 1411SOL    HW2 4662   1.582   4.294   5.036 -0.7844 -0.0762 -0.3388
 1412SOL     OW 4663   6.079   5.129   2.844  0.4931  0.4815 -0.3799
 1412SOL    HW1 4664   6.161   5.091   2.876  1.0317 -0.1171 -2.3282
 1412SOL    HW2 4665   6.011   5.071   2.879  1.0463 -0.1425 -0.3236
 1413SOL     OW 4666   0.446   4.160   0.949 -0.3065 -0.7619 -0.8169
 1413SOL    HW1 4667   0.512   4.096   0.977 -0.1057  1.0021  3.5170
 1413SOL    HW2 4668   0.495   4.224   0.898  0.1142 -2.2516 -2.3916
 1414SOL     OW 4669   2.133   0.263   4.912 -0.5176 -0.0410  0.1300
 1414SOL    HW1 4670   2.144   0.331   4.978  0.3731 -1.9904  2.0977
 1414SOL    HW2 4671   2.220   0.256   4.871 -0.7012  0.2264 -0.3104
 1415SOL     OW 4672   4.503   5.443   3.448  0.9922  0.3196  0.1017
 1415SOL    HW1 4673   4.410   5.437   3.426  0.8201  0.7690  0.6753
 1415SOL    HW2 4674   4.515   5.534   3.476  1.4565  0.0914  0.6626
 1416SOL     OW 4675   4.798   4.020   0.211 -0.5387  0.0789  0.5005
 1416SOL    HW1 4676   4.764   3.953   0.270 -0.1642  0.2434  0.9194
 1416SOL    HW2 4677   4.838   3.972   0.139 -0.4568 -0.1428  0.6934
 1417SOL     OW 4678   1.452   1.416   5.229  0.0573  0.3815 -0.2283
 1417SOL    HW1 4679   1.381   1.409   5.165  0.3839  3.1030 -1.0194
 1417SOL    HW2 4680   1.525   1.368   5.190 -0.7793 -0.9353 -0.2233
 1418SOL     OW 4681   3.860   2.589   0.022  0.1055 -0.2741  0.1811
 1418SOL    HW1 4682   3.835   2.581  -0.070  0.8894 -0.6476 -0.0043
 1418SOL    HW2 4683   3.777   2.603   0.068 -0.2271  0.5869 -0.6524
 1419SOL     OW 4684   1.204   1.726   5.177  0.3274 -0.2981 -0.2703
 1419SOL    HW1 4685   1.243   1.759   5.258  0.6411 -0.1999 -0.4588
 1419SOL    HW2 4686   1.118   1.694   5.203  0.2445  0.1513  0.0196
 1420SOL     OW 4687   5.673   2.336   5.287  0.2565 -0.1693  0.0602
 1420SOL    HW1 4688   5.671   2.383   5.204  2.6469  0.2355  0.1713
 1420SOL    HW2 4689   5.716   2.397   5.348 -0.3548 -0.9289  1.2972
 1421SOL     OW 4690   1.828   1.567   5.120  0.0824  0.9949 -0.4278
 1421SOL    HW1 4691   1.781   1.549   5.039 -0.1082  0.2113 -0.1478
 1421SOL    HW2 4692   1.796   1.502   5.182  2.1265 -0.1314 -0.4606
 1422SOL     OW 4693   2.468   0.640   2.723 -0.0676  0.3655  0.1232
 1422SOL    HW1 4694   2.536   0.613   2.784 -0.1049 -0.3255 -0.1399
 1422SOL    HW2 4695   2.515   0.659   2.641 -0.3351 -1.5954 -0.5306
 1423SOL     OW 4696   3.067   5.620   5.455 -0.1120  0.3361 -0.8597
 1423SOL    HW1 4697   3.157   5.638   5.432 -0.2395 -0.0492 -1.6911
 1423SOL    HW2 4698   3.041   5.548   5.398 -1.0719  0.7050 -0.9146
 1424SOL     OW 4699   0.361   0.176   3.012  0.2499 -0.3609 -0.2895
 1424SOL    HW1 4700   0.384   0.212   2.927 -1.1547  0.3038 -0.4195
 1424SOL    HW2 4701   0.374   0.248   3.074  1.3224 -0.8561  0.0977
 1425SOL     OW 4702   5.942   2.301   3.507 -0.1927 -0.1667  0.0099
 1425SOL    HW1 4703   5.987   2.244   3.569 -0.7876  0.1643  0.7665
 1425SOL    HW2 4704   5.849   2.280   3.518 -0.4962  1.3569  0.7709
 1426SOL     OW 4705   3.423   2.057   0.487  0.6577  0.0574  0.2010
 1426SOL    HW1 4706   3.341   2.087   0.447  0.3867  0.8069  1.2908
 1426SOL    HW2 4707   3.489   2.069   0.419 -0.1818 -0.9272 -0.8395
 1427SOL     OW 4708   0.519   0.524   4.566  0.1538 -0.1363  0.4412
 1427SOL    HW1 4709   0.491   0.463   4.634  2.3551  0.1583  1.7172
 1427SOL    HW2 4710   0.513   0.611   4.608  1.1754  0.0817  0.1555
 1428SOL     OW 4711   2.066   2.393   5.653 -0.0671 -0.2722 -0.0163
 1428SOL    HW1 4712   2.077   2.339   5.574  0.1309 -1.1006  0.5656
 1428SOL    HW2 4713   1.974   2.384   5.675 -0.1633  0.1077 -0.2467
 1429SOL     OW 4714   2.954   3.069   2.910 -0.0079 -0.1294 -0.1130
 1429SOL    HW1 4715   2.987   3.003   2.848  1.4511  0.9760 -0.5717
 1429SOL    HW2 4716   3.001   3.050   2.991  0.2502  0.2139 -0.1832
 1430SOL     OW 4717   4.766   3.755   2.758 -0.0614 -0.4530 -0.0534
 1430SOL    HW1 4718   4.729   3.789   2.839  1.2076  2.5857 -0.5978
 1430SOL    HW2 4719   4.708   3.684   2.733 -1.2100 -0.6679  2.8357
 1431SOL     OW 4720   3.375   2.313   4.194 -0.0671 -0.6339 -0.2157
 1431SOL    HW1 4721   3.440   2.249   4.225  0.1999 -0.6553 -0.8079
 1431SOL    HW2 4722   3.414   2.350   4.115 -0.2578  0.2150  0.0803
 1432SOL     OW 4723   3.782   1.119   0.552  0.2796 -0.1038 -0.1121
 1432SOL    HW1 4724   3.783   1.199   0.500 -2.0356 -0.3670 -0.6811
 1432SOL    HW2 4725   3.847   1.135   0.621 -0.3392  2.4165  0.0095
 1433SOL     OW 4726   3.826   1.658   2.312  0.2178  0.1059  0.2251
 1433SOL    HW1 4727   3.901   1.601   2.331 -0.7133 -1.3157 -0.1947
 1433SOL    HW2 4728   3.847   1.696   2.227  1.4222  1.4150  1.0667
 1434SOL     OW 4729   5.937   0.095   3.376 -0.0353 -0.3573 -0.5126
 1434SOL    HW1 4730   6.023   0.129   3.401 -0.6514  0.2034  0.9663
 1434SOL    HW2 4731   5.948   0.066   3.285  1.5784  0.1338 -0.5067
 1435SOL     OW 4732   0.463   5.436   3.023  0.0976  0.1822  0.2833
 1435SOL    HW1 4733   0.468   5.384   2.943  1.7859 -1.3480  1.2998
 1435SOL    HW2 4734   0.424   5.519   2.995 -1.6225 -1.1754 -1.6146
 1436SOL     OW 4735   4.828   5.420   5.221  0.2410 -0.4238  0.1235
 1436SOL    HW1 4736   4.897   5.371   5.267  1.2302 -0.3659 -1.2330
 1436SOL    HW2 4737   4.870   5.504   5.199 -1.8477  1.8037  3.7109
 1437SOL     OW 4738   1.431   2.495   4.363  0.4599 -0.0117 -0.2443
 1437SOL    HW1 4739   1.446   2.402   4.349  4.1693  0.3941 -0.2004
 1437SOL    HW2 4740   1.480   2.538   4.293 -0.9950  1.9263 -0.1453
 1438SOL     OW 4741   3.211   4.887   2.082 -0.5324 -0.0145  0.8521
 1438SOL    HW1 4742   3.149   4.958   2.066 -0.7435 -0.0008  1.6808
 1438SOL    HW2 4743   3.298   4.928   2.077 -0.6192  0.1285  0.5066
 1439SOL     OW 4744   3.614   4.051   0.305 -0.1724 -0.4610 -0.4999
 1439SOL    HW1 4745   3.674   4.117   0.340  0.6485 -1.4049 -0.0504
 1439SOL    HW2 4746   3.551   4.100   0.253  0.6825  0.6200 -0.5485
 1440SOL     OW 4747   3.452   0.465   4.606 -0.0742 -0.0351  0.6755
 1440SOL    HW1 4748   3.540   0.492   4.631  0.1636 -0.5067  0.3857
 1440SOL    HW2 4749   3.396   0.539   4.627  0.4682  0.4540  0.4195
 1441SOL     OW 4750   4.760   3.706   0.791  0.9612 -0.3017  0.2458
 1441SOL    HW1 4751   4.707   3.772   0.836 -0.8600 -1.0517 -0.6784
 1441SOL    HW2 4752   4.850   3.724   0.817  0.3856  1.8433  0.8764
 1442SOL     OW 4753   0.160   4.684   1.696  1.4490 -0.3690  0.1218
 1442SOL    HW1 4754   0.109   4.705   1.619  1.2171 -1.4537 -0.0399
 1442SOL    HW2 4755   0.147   4.758   1.755 -1.1393 -1.0419  0.4974
 1443SOL     OW 4756   3.008   5.947   0.872  0.1677 -0.3498 -0.2725
 1443SOL    HW1 4757   3.071   5.920   0.805 -0.9407 -3.4860 -0.1983
 1443SOL    HW2 4758   2.936   5.885   0.865 -2.8672  2.8044 -0.0939
 1444SOL     OW 4759   3.662   2.444   2.489  0.0353 -0.1119  0.1650
 1444SOL    HW1 4760   3.607   2.376   2.451  0.0502 -1.5439  2.5274
 1444SOL    HW2 4761   3.638   2.446   2.582  0.9251  2.2637  0.4291
 1445SOL     OW 4762   5.076   0.326   2.803 -0.4747  0.5902 -0.0857
 1445SOL    HW1 4763   4.998   0.290   2.845 -0.5197  0.3528 -0.3774
 1445SOL    HW2 4764   5.045   0.407   2.762 -0.4261  0.8406  0.3539
 1446SOL     OW 4765   4.243   5.610   3.021  0.0768 -1.0271  0.1550
 1446SOL    HW1 4766   4.256   5.657   2.938 -0.2097  1.2437  1.3167
 1446SOL    HW2 4767   4.316   5.548   3.024 -0.2813 -1.6563 -2.0767
 1447SOL     OW 4768   0.332   3.279   0.384 -0.6391  0.1662  0.1633
 1447SOL    HW1 4769   0.352   3.345   0.450 -1.9881 -0.7644  1.5464
 1447SOL    HW2 4770   0.389   3.205   0.406  0.1518  0.4558 -0.7952
 1448SOL     OW 4771   1.512   4.492   4.352 -0.3545 -0.0012  0.4685
 1448SOL    HW1 4772   1.484   4.401   4.359 -0.6333  0.1748  2.0625
 1448SOL    HW2 4773   1.547   4.513   4.438 -0.8804  1.5737  0.3362
 1449SOL     OW 4774   5.481   3.875   4.882  0.1242  0.0172  0.4955
 1449SOL    HW1 4775   5.482   3.786   4.917 -2.3496 -0.1364  0.3400
 1449SOL    HW2 4776   5.534   3.869   4.802  0.1885 -1.2619  0.6008
 1450SOL     OW 4777   5.886   4.377   5.854  0.1820  0.4399 -0.7198
 1450SOL    HW1 4778   5.969   4.419   5.879  1.3519 -0.7478 -2.4270
 1450SOL    HW2 4779   5.825   4.406   5.921  1.5064  2.8632 -0.4002
 1451SOL     OW 4780   5.849   0.184   3.948  0.8183 -0.4939  0.1345
 1451SOL    HW1 4781   5.868   0.174   3.855 -1.5642 -0.2579 -0.4570
 1451SOL    HW2 4782   5.834   0.278   3.960 -1.2589 -0.7724  0.1558
 1452SOL     OW 4783   4.563   6.021   6.031 -0.4030  0.4345  0.3531
 1452SOL    HW1 4784   4.490   5.988   6.083  0.1131 -0.7090  0.3908
 1452SOL    HW2 4785   4.635   5.961   6.050 -0.3699 -0.4653 -2.1329
 1453SOL     OW 4786   1.784   0.263   5.234 -0.6534  0.3440  0.9783
 1453SOL    HW1 4787   1.757   0.327   5.168  0.2242  0.2806  0.5426
 1453SOL    HW2 4788   1.738   0.289   5.314 -1.5308  0.5762  0.4170
 1454SOL     OW 4789   3.872   3.031   1.331  0.1033 -0.1382 -0.0369
 1454SOL    HW1 4790   3.905   2.960   1.276 -0.2060 -0.7827  0.5922
 1454SOL    HW2 4791   3.901   3.111   1.287 -2.4261 -0.5019 -2.6738
 1455SOL     OW 4792   3.415   4.202   3.566  0.2516 -0.4927 -0.4384
 1455SOL    HW1 4793   3.435   4.296   3.569  1.5178 -0.6518 -2.0256
 1455SOL    HW2 4794   3.415   4.175   3.657  1.5676  0.7524 -0.0199
 1456SOL     OW 4795   4.502   0.042   2.338 -0.2822  0.3464  0.1746
 1456SOL    HW1 4796   4.437   0.081   2.398  0.3961  2.2850 -0.2849
 1456SOL    HW2 4797   4.531  -0.037   2.383 -1.9740  0.1507  1.0100
 1457SOL     OW 4798   2.936   2.568   4.830 -0.2201  0.0530 -0.2612
 1457SOL    HW1 4799   2.855   2.594   4.786  0.5513  1.5291 -0.8736
 1457SOL    HW2 4800   2.950   2.477   4.803 -1.8984 -0.3897  0.2454
 1458SOL     OW 4801   4.024   1.366   5.434  0.4972  0.0979  0.2419
 1458SOL    HW1 4802   3.946   1.400   5.390  0.3809  0.5008  0.7541
 1458SOL    HW2 4803   4.001   1.365   5.527  0.7569 -0.7025  0.3065
 1459SOL     OW 4804   5.104   1.585   3.545  0.2508 -0.0080  0.3124
 1459SOL    HW1 4805   5.143   1.644   3.609  1.6078 -1.7697  1.1921
 1459SOL    HW2 4806   5.093   1.502   3.592 -0.1763 -0.9133 -1.2964
 1460SOL     OW 4807   2.674   0.276   1.345 -0.0366 -0.2478  0.2735
 1460SOL    HW1 4808   2.625   0.354   1.371  0.4969 -0.4449  1.9696
 1460SOL    HW2 4809   2.611   0.222   1.297 -0.4249  1.1762 -0.8825
 1461SOL     OW 4810   5.332   6.107   3.589  0.3620 -0.5917  0.1414
 1461SOL    HW1 4811   5.393   6.109   3.515  0.8352  1.5289  0.5156
 1461SOL    HW2 4812   5.389   6.117   3.666 -0.2594 -1.1516  0.6770
 1462SOL     OW 4813   5.919   4.811   3.961  0.3853 -0.0016 -0.2896
 1462SOL    HW1 4814   5.873   4.766   4.032  1.2168  0.3365  0.4842
 1462SOL    HW2 4815   5.854   4.871   3.924 -0.9511 -2.1992 -1.7575
 1463SOL     OW 4816   6.197   5.159   6.139  0.5239 -0.5322 -0.3110
 1463SOL    HW1 4817   6.197   5.144   6.233 -0.3242 -0.7372 -0.3306
 1463SOL    HW2 4818   6.184   5.072   6.100 -1.6529 -0.1910 -0.5102
 1464SOL     OW 4819   0.352   0.495   2.393 -0.6887 -0.1139 -0.1755
 1464SOL    HW1 4820   0.336   0.503   2.299 -2.2828 -0.0342  0.0774
 1464SOL    HW2 4821   0.299   0.565   2.433  1.0651  0.7821  0.7087
 1465SOL     OW 4822   3.995   0.911   5.824  0.4054  0.0193 -0.1954
 1465SOL    HW1 4823   4.016   0.958   5.744 -1.8470  0.2362 -0.7091
 1465SOL    HW2 4824   3.957   0.828   5.794  1.1603 -0.6759  0.6863
 1466SOL     OW 4825   0.619   4.305   1.923 -0.0206  0.0245  0.4447
 1466SOL    HW1 4826   0.566   4.308   2.002 -0.3556 -0.5509  0.2515
 1466SOL    HW2 4827   0.703   4.271   1.952 -0.1169 -0.1070  0.5741
 1467SOL     OW 4828   4.109   2.722   1.989  0.1538 -0.3468  0.1150
 1467SOL    HW1 4829   4.020   2.688   1.991  0.7999 -2.1114  0.9535
 1467SOL    HW2 4830   4.129   2.741   2.081  0.6775 -0.0720 -0.0549
 1468SOL     OW 4831   0.698   4.338   5.114 -0.2510 -0.1271 -0.0106
 1468SOL    HW1 4832   0.733   4.426   5.109 -0.3243 -0.1602 -2.5428
 1468SOL    HW2 4833   0.651   4.335   5.197  2.5333  1.0868  1.7492
 1469SOL     OW 4834   5.106   1.517   1.519 -0.0638  0.3948  0.1024
 1469SOL    HW1 4835   5.082   1.491   1.430 -0.7342  0.4482  0.2630
 1469SOL    HW2 4836   5.198   1.544   1.512  0.2136 -0.6060 -0.3621
 1470SOL     OW 4837   2.314   6.060   2.060 -0.5178 -0.2040  0.2160
 1470SOL    HW1 4838   2.295   5.975   2.021  0.8615  0.0493 -1.1262
 1470SOL    HW2 4839   2.356   6.110   1.990 -0.0844  1.1176  1.3633
 1471SOL     OW 4840   4.347   2.124   2.630 -0.4314  0.2400 -0.5270
 1471SOL    HW1 4841   4.352   2.177   2.551 -1.0781 -1.0304 -1.4537
 1471SOL    HW2 4842   4.320   2.037   2.600  0.9804 -0.7578  0.8898
 1472SOL     OW 4843   1.795   0.537   0.090  0.4260 -0.1372  0.1580
 1472SOL    HW1 4844   1.768   0.447   0.072  0.6695 -0.0373 -0.7465
 1472SOL    HW2 4845   1.830   0.534   0.179 -1.0309 -0.5912  0.7398
 1473SOL     OW 4846   3.251   1.903   4.093  0.4454  0.4894 -0.5261
 1473SOL    HW1 4847   3.200   1.979   4.120 -1.1084 -1.2209  1.6208
 1473SOL    HW2 4848   3.186   1.841   4.060  1.3879 -0.8184  0.0127
 1474SOL     OW 4849   4.912   2.013   4.194 -0.1748 -0.1086  0.4466
 1474SOL    HW1 4850   4.826   2.032   4.156  0.3961  1.1645 -0.2564
 1474SOL    HW2 4851   4.919   2.072   4.269 -0.0140 -0.4234  0.6852
 1475SOL     OW 4852   3.519   4.250   4.249 -0.6222 -0.1131 -0.3100
 1475SOL    HW1 4853   3.512   4.324   4.189  1.0882  1.0628  0.8340
 1475SOL    HW2 4854   3.544   4.176   4.193  0.0763  0.7487 -1.1678
 1476SOL     OW 4855   0.417   1.981   3.564 -0.1467 -0.1960  0.4679
 1476SOL    HW1 4856   0.493   1.989   3.622  1.5856 -0.5262 -1.6419
 1476SOL    HW2 4857   0.363   2.058   3.585  0.8038  0.1167  1.9147
 1477SOL     OW 4858   5.798   4.000   3.202  0.1697  0.3593  0.3403
 1477SOL    HW1 4859   5.813   4.001   3.296 -2.3889  0.0083  0.8343
 1477SOL    HW2 4860   5.746   3.921   3.187  0.8803  0.1783 -1.4567
 1478SOL     OW 4861   2.869   0.613   3.723 -0.1160  0.3469  0.0865
 1478SOL    HW1 4862   2.774   0.617   3.723 -0.1380  3.2867  2.3116
 1478SOL    HW2 4863   2.890   0.523   3.749 -2.2247 -0.4731 -0.8855
 1479SOL     OW 4864   0.185   5.987   4.749  0.0337  0.2101 -0.6235
 1479SOL    HW1 4865   0.168   6.036   4.830 -0.6136 -0.8775 -0.0738
 1479SOL    HW2 4866   0.274   6.011   4.725  0.1251  0.7938  0.2495
 1480SOL     OW 4867   4.885   4.089   4.193 -0.2437 -0.3015 -0.6073
 1480SOL    HW1 4868   4.830   4.014   4.168 -0.4321  0.2005 -1.7495
 1480SOL    HW2 4869   4.852   4.114   4.280 -1.2693 -0.5419 -0.9047
 1481SOL     OW 4870   3.784   3.908   4.403  0.0581  0.0623  0.0415
 1481SOL    HW1 4871   3.720   3.939   4.467 -0.3964 -0.1879 -0.2841
 1481SOL    HW2 4872   3.735   3.903   4.321  0.2395 -1.0202 -0.0264
 1482SOL     OW 4873   4.138   3.738   0.889 -0.0274 -0.1295  0.5771
 1482SOL    HW1 4874   4.115   3.771   0.975  0.5094  0.9424  0.3320
 1482SOL    HW2 4875   4.212   3.679   0.904  0.5431  0.6272  0.7781
 1483SOL     OW 4876   4.094   4.935   5.873 -0.2071 -0.3440 -0.2349
 1483SOL    HW1 4877   4.014   4.908   5.918  0.0941 -0.8504  0.0114
 1483SOL    HW2 4878   4.142   4.853   5.858  1.3735  0.1204  1.7489
 1484SOL     OW 4879   1.868   3.861   1.975 -0.5073  0.7915 -0.3018
 1484SOL    HW1 4880   1.782   3.881   2.010  0.4234  1.0550  2.0369
 1484SOL    HW2 4881   1.918   3.942   1.987  0.1449  0.5765 -1.4242
 1485SOL     OW 4882   0.804   5.314   2.854 -0.2662  0.5933  0.3573
 1485SOL    HW1 4883   0.717   5.288   2.825 -0.1124  0.6499 -0.1594
 1485SOL    HW2 4884   0.862   5.243   2.825 -0.1915  0.3815  1.0145
 1486SOL     OW 4885   5.601   3.477   4.469  0.2576 -0.0409 -0.1458
 1486SOL    HW1 4886   5.648   3.395   4.483 -1.1552 -1.3185 -2.2936
 1486SOL    HW2 4887   5.663   3.532   4.423  0.4034 -0.9016 -1.0122
 1487SOL     OW 4888   1.375   5.055   5.786  0.5663 -0.2766  0.1651
 1487SOL    HW1 4889   1.359   5.089   5.874 -1.4382 -0.8973  0.0853
 1487SOL    HW2 4890   1.363   5.132   5.729 -2.1974 -0.6107  0.1423
 1488SOL     OW 4891   5.993   0.769   1.149 -0.2252  0.0442 -0.0848
 1488SOL    HW1 4892   6.086   0.780   1.166  0.1054 -0.2971 -1.5821
 1488SOL    HW2 4893   5.960   0.859   1.139 -0.2472  0.2100  1.2484
 1489SOL     OW 4894   0.561   0.056   1.886 -0.1007 -0.1126  0.1846
 1489SOL    HW1 4895   0.481   0.004   1.885 -0.9248  1.1153 -0.2764
 1489SOL    HW2 4896   0.571   0.083   1.978 -1.8944  2.1612 -0.2105
 1490SOL     OW 4897   0.220   3.285   5.457 -0.1439  0.0223  0.2915
 1490SOL    HW1 4898   0.154   3.319   5.516 -0.0779 -1.0913  1.0472
 1490SOL    HW2 4899   0.303   3.314   5.493 -0.1459  0.0260  0.2935
 1491SOL     OW 4900   5.118   0.022   4.909  0.6204 -0.1783  0.3602
 1491SOL    HW1 4901   5.079   0.036   4.995  1.3911 -0.5316  0.7754
 1491SOL    HW2 4902   5.177   0.097   4.897  0.6184 -0.2007  0.2067
 1492SOL     OW 4903   2.153   1.577   2.965 -0.1192  0.2957 -0.3369
 1492SOL    HW1 4904   2.103   1.629   2.902 -0.3085  0.2258 -0.2453
 1492SOL    HW2 4905   2.245   1.600   2.949 -0.2462  1.2139  0.2008
 1493SOL     OW 4906   0.131   4.738   4.633  0.3438 -0.4055 -0.1792
 1493SOL    HW1 4907   0.199   4.681   4.670  0.2603  0.1261  0.8306
 1493SOL    HW2 4908   0.180   4.813   4.597  0.5547 -1.5846 -2.5302
 1494SOL     OW 4909   2.779   3.877   3.937 -0.0734  0.1388 -0.1012
 1494SOL    HW1 4910   2.707   3.826   3.900  1.2282 -2.4827  0.7397
 1494SOL    HW2 4911   2.795   3.946   3.873 -2.0461 -0.3659 -1.2263
 1495SOL     OW 4912   1.369   4.359   0.982 -0.2088  0.1991  0.4398
 1495SOL    HW1 4913   1.440   4.312   1.026 -0.4217  0.2707  0.8649
 1495SOL    HW2 4914   1.380   4.450   1.011 -1.2724 -0.0147  1.5698
 1496SOL     OW 4915   0.271   4.640   1.322 -0.1518  0.0150  0.2249
 1496SOL    HW1 4916   0.299   4.687   1.400 -0.1750  1.8499 -0.8042
 1496SOL    HW2 4917   0.254   4.709   1.258  0.4815 -1.4415 -1.6010
 1497SOL     OW 4918   5.266   0.040   3.334 -0.0665 -0.0942 -0.0653
 1497SOL    HW1 4919   5.226   0.096   3.267 -1.2972 -1.0790 -0.1846
 1497SOL    HW2 4920   5.219  -0.043   3.327 -0.3159 -0.1949  2.0984
 1498SOL     OW 4921   0.724   3.047   5.442  0.7338  0.4061 -0.3246
 1498SOL    HW1 4922   0.761   3.060   5.529  1.7602 -0.9631 -0.5314
 1498SOL    HW2 4923   0.800   3.050   5.383  0.3182 -0.7411 -0.9379
 1499SOL     OW 4924   1.784   2.926   2.235  0.5824 -0.0332 -1.0621
 1499SOL    HW1 4925   1.696   2.893   2.254 -0.0320  1.9370 -0.1843
 1499SOL    HW2 4926   1.829   2.923   2.319  0.5913  1.0491 -1.0128
 1500SOL     OW 4927   2.522   3.790   5.338 -0.4325 -0.0904  1.0483
 1500SOL    HW1 4928   2.578   3.712   5.335 -1.2314 -0.6633  0.5168
 1500SOL    HW2 4929   2.489   3.792   5.428  1.1131  0.7632  1.6294
 1501SOL     OW 4930   1.218   2.603   4.119 -0.4801 -0.2040  0.6197
 1501SOL    HW1 4931   1.233   2.528   4.061 -1.8014 -0.0178 -0.0105
 1501SOL    HW2 4932   1.237   2.679   4.063 -1.0356 -0.0362  0.6593
 1502SOL     OW 4933   5.361   5.298   0.933 -0.0053  0.0070  0.3433
 1502SOL    HW1 4934   5.357   5.322   1.025  0.0865  2.5927 -0.2449
 1502SOL    HW2 4935   5.430   5.233   0.927  1.2100  1.1074  1.8672
 1503SOL     OW 4936   2.655   2.825   3.109 -0.1693  0.6900 -0.3594
 1503SOL    HW1 4937   2.615   2.855   3.027 -1.0352  2.3836  0.6193
 1503SOL    HW2 4938   2.683   2.906   3.152 -1.4738  0.0219  1.8885
 1504SOL     OW 4939   4.158   4.312   1.742  0.1407  0.2631  0.3371
 1504SOL    HW1 4940   4.194   4.401   1.737 -0.1287  0.3369 -0.2858
 1504SOL    HW2 4941   4.115   4.309   1.828  1.6349  0.1665  1.1099
 1505SOL     OW 4942   5.817   4.547   0.738 -0.3693 -0.6683 -0.1046
 1505SOL    HW1 4943   5.823   4.617   0.674  0.1995 -1.3097 -0.7764
 1505SOL    HW2 4944   5.805   4.467   0.686  0.4015 -1.2384  0.5535
 1506SOL     OW 4945   4.248   3.677   5.064 -0.0626 -0.4374  0.0474
 1506SOL    HW1 4946   4.283   3.588   5.053  0.6226 -0.3315  1.1982
 1506SOL    HW2 4947   4.319   3.725   5.106 -0.6130  0.5338 -0.1103
 1507SOL     OW 4948   0.069   3.958   2.437 -0.1087  0.3641 -0.4105
 1507SOL    HW1 4949   0.078   4.046   2.401  0.7667 -0.3336 -1.9979
 1507SOL    HW2 4950   0.155   3.918   2.424  0.6879  0.3774  3.5233
 1508SOL     OW 4951   1.926   5.472   6.190 -0.4752  0.2424 -0.3167
 1508SOL    HW1 4952   1.834   5.483   6.213 -0.8156 -1.1166 -0.9280
 1508SOL    HW2 4953   1.924   5.437   6.101  0.5342 -1.9645  0.4685
 1509SOL     OW 4954   3.045   5.489   4.406 -0.1506 -0.0316  0.3170
 1509SOL    HW1 4955   2.997   5.441   4.339  0.5506 -0.0116 -0.2175
 1509SOL    HW2 4956   3.126   5.516   4.363  0.7515 -0.8271  1.4361
 1510SOL     OW 4957   0.108   2.608   4.748  0.3605  0.2611 -0.2464
 1510SOL    HW1 4958   0.151   2.688   4.778 -1.4581  1.2626 -0.2005
 1510SOL    HW2 4959   0.111   2.614   4.652 -1.7854  1.5741 -0.2809
 1511SOL     OW 4960   5.078   2.718   4.086  0.0422  0.0249 -0.0970
 1511SOL    HW1 4961   5.054   2.627   4.069  0.1181 -0.0434  0.1501
 1511SOL    HW2 4962   5.173   2.720   4.078  0.0692  0.0134  0.2060
 1512SOL     OW 4963   5.220   0.800   5.591 -0.1332 -0.0964  0.0825
 1512SOL    HW1 4964   5.167   0.851   5.530 -0.5290 -1.4335 -0.7426
 1512SOL    HW2 4965   5.161   0.780   5.663 -0.4885 -0.7713 -0.3829
 1513SOL     OW 4966   2.540   1.543   4.857  0.1451  0.2297  0.1463
 1513SOL    HW1 4967   2.557   1.545   4.951  0.4284 -1.5829  0.1563
 1513SOL    HW2 4968   2.449   1.571   4.849  0.6475  2.2241  0.7679
 1514SOL     OW 4969   2.385   0.995   5.514 -0.0359  0.4810  0.2605
 1514SOL    HW1 4970   2.433   0.967   5.436  0.4073  0.2836  0.5991
 1514SOL    HW2 4971   2.330   0.919   5.535 -0.5351  0.7212 -0.1500
 1515SOL     OW 4972   3.544   3.112   3.155  0.6930 -0.5824  0.4545
 1515SOL    HW1 4973   3.611   3.136   3.091 -0.3144  3.8533  0.7166
 1515SOL    HW2 4974   3.467   3.093   3.101  0.9550 -1.0970  0.2581
 1516SOL     OW 4975   0.702   2.485   1.325  0.0550 -0.1117  0.3120
 1516SOL    HW1 4976   0.671   2.524   1.406 -0.4316 -0.1170  0.1295
 1516SOL    HW2 4977   0.648   2.406   1.314 -1.0691  0.7863 -0.8942
 1517SOL     OW 4978   1.568   4.238   1.159  0.2379  0.2472 -0.2031
 1517SOL    HW1 4979   1.548   4.313   1.215  0.3941  0.0670  0.0915
 1517SOL    HW2 4980   1.573   4.164   1.218  1.0783  0.1721 -0.3655
 1518SOL     OW 4981   2.161   3.782   5.756  0.1625 -0.6297  0.0079
 1518SOL    HW1 4982   2.081   3.793   5.807  0.0899  0.7245 -0.3547
 1518SOL    HW2 4983   2.138   3.718   5.689 -0.3829 -0.8384  0.3899
 1519SOL     OW 4984   3.167   2.679   4.708 -0.0256  0.0714 -0.2347
 1519SOL    HW1 4985   3.115   2.670   4.628  0.2057 -2.6034 -0.1811
 1519SOL    HW2 4986   3.104   2.666   4.779  0.1897 -0.1501 -0.0814
 1520SOL     OW 4987   4.341   2.286   3.741 -0.0920 -0.1885  0.5185
 1520SOL    HW1 4988   4.269   2.231   3.773 -0.7547 -0.0924 -0.7687
 1520SOL    HW2 4989   4.312   2.376   3.760 -0.3388 -0.1474 -0.0500
 1521SOL     OW 4990   0.387   5.070   1.709  0.3268  0.0940 -0.0962
 1521SOL    HW1 4991   0.437   4.990   1.724  0.9313  0.3189 -0.8809
 1521SOL    HW2 4992   0.442   5.123   1.652 -0.6367  0.5104 -0.6625
 1522SOL     OW 4993   1.744   2.330   3.356  0.6853 -0.2224  0.1816
 1522SOL    HW1 4994   1.741   2.236   3.374  1.2314 -0.3967 -0.5591
 1522SOL    HW2 4995   1.815   2.339   3.291  1.7621  0.8926  1.4559
 1523SOL     OW 4996   2.352   2.849   4.240 -0.4385  0.2501  0.0962
 1523SOL    HW1 4997   2.329   2.874   4.329  1.0567  1.1924  0.2645
 1523SOL    HW2 4998   2.303   2.769   4.223 -0.4699 -0.1505  1.9054
 1524SOL     OW 4999   4.104   1.011   1.741 -0.1811 -0.3006 -0.1283
 1524SOL    HW1 5000   4.117   0.916   1.736 -0.1658 -0.3111  0.1141
 1524SOL    HW2 5001   4.125   1.042   1.653  1.0480 -0.3758  0.1094
 1525SOL     OW 5002   3.882   0.818   1.171 -0.2687 -0.2434  0.5396
 1525SOL    HW1 5003   3.841   0.781   1.249  0.6030  0.1738  1.2100
 1525SOL    HW2 5004   3.811   0.820   1.106 -1.0749 -0.3477  1.3893
 1526SOL     OW 5005   5.862   2.792   3.085  0.7288  0.0176  0.2272
 1526SOL    HW1 5006   5.881   2.698   3.087 -0.5828 -0.2659  2.3005
 1526SOL    HW2 5007   5.768   2.798   3.070  1.1410  1.1280 -2.3017
 1527SOL     OW 5008   5.553   5.191   3.786  0.2089 -0.4603 -0.1028
 1527SOL    HW1 5009   5.539   5.279   3.821 -0.0297 -0.7120  0.4550
 1527SOL    HW2 5010   5.616   5.203   3.715  1.6480 -0.0895  1.1906
 1528SOL     OW 5011   5.482   2.542   0.163  0.2537  0.6735  0.0711
 1528SOL    HW1 5012   5.475   2.471   0.226  0.1136  0.9411  0.3591
 1528SOL    HW2 5013   5.422   2.519   0.092  3.1471 -1.5895 -1.9033
 1529SOL     OW 5014   0.290   4.647   5.349 -0.3545  0.1115 -0.4113
 1529SOL    HW1 5015   0.207   4.666   5.305 -1.0968  1.1278  1.3635
 1529SOL    HW2 5016   0.341   4.727   5.341 -0.0464 -0.0768 -0.3787
 1530SOL     OW 5017   0.218   6.083   1.634 -0.6051 -0.2957  0.4990
 1530SOL    HW1 5018   0.160   6.113   1.565  0.6682 -1.1475 -0.9869
 1530SOL    HW2 5019   0.228   5.989   1.619  0.3130 -0.3599  1.3732
 1531SOL     OW 5020   1.496   3.400   5.326 -0.3955 -0.0418 -0.0232
 1531SOL    HW1 5021   1.440   3.460   5.377  0.4257  0.0995  0.7367
 1531SOL    HW2 5022   1.435   3.335   5.290 -0.9725 -0.2830  1.3404
 1532SOL     OW 5023   6.107   2.178   5.094 -0.2062  0.8613 -0.2665
 1532SOL    HW1 5024   6.169   2.246   5.068  0.9391 -0.9916 -2.7214
 1532SOL    HW2 5025   6.155   2.122   5.155 -0.0884  0.4515 -0.7371
 1533SOL     OW 5026   3.608   4.632   4.479 -0.4876  0.0897 -0.3812
 1533SOL    HW1 5027   3.577   4.710   4.433  3.1295  2.4117  0.6635
 1533SOL    HW2 5028   3.576   4.643   4.569  0.9662  1.1150  0.0565
 1534SOL     OW 5029   5.656   5.408   4.725 -0.0040  0.3235  0.3643
 1534SOL    HW1 5030   5.582   5.384   4.670 -0.1744 -0.8208  1.0587
 1534SOL    HW2 5031   5.691   5.487   4.685  0.5498 -1.0443 -2.0322
 1535SOL     OW 5032   4.908   1.906   4.881  0.4031 -0.1318  0.1426
 1535SOL    HW1 5033   4.952   1.946   4.956  0.2481 -1.0320  0.7272
 1535SOL    HW2 5034   4.978   1.886   4.819  0.3650  2.1717 -0.7417
 1536SOL     OW 5035   4.759   5.270   2.060 -0.1546  0.5176 -0.3791
 1536SOL    HW1 5036   4.667   5.248   2.044 -0.3651  1.0949  0.0002
 1536SOL    HW2 5037   4.793   5.198   2.112 -0.7551  0.9182  0.6002
 1537SOL     OW 5038   0.892   0.009   4.070 -0.7047  0.2705 -0.0892
 1537SOL    HW1 5039   0.957   0.074   4.099  0.5545 -0.7772 -0.4560
 1537SOL    HW2 5040   0.944  -0.068   4.047 -2.0720 -0.4985 -0.7229
 1538SOL     OW 5041   4.349   3.127   0.769 -0.1925  0.3155  0.5017
 1538SOL    HW1 5042   4.305   3.161   0.691  0.8343  1.5293  0.4133
 1538SOL    HW2 5043   4.312   3.175   0.842  0.4561  0.8336  0.5010
 1539SOL     OW 5044   1.750   1.277   3.052 -0.1454 -0.4957  0.1509
 1539SOL    HW1 5045   1.712   1.191   3.067 -1.5924  0.1149  0.0950
 1539SOL    HW2 5046   1.758   1.284   2.957  1.2476 -1.0722  0.1940
 1540SOL     OW 5047   0.513   0.291   5.725  0.0124  0.0242  0.3067
 1540SOL    HW1 5048   0.555   0.366   5.683 -1.2539  0.1658 -0.7824
 1540SOL    HW2 5049   0.543   0.215   5.675  0.0485 -0.0169  0.3914
 1541SOL     OW 5050   0.124   0.879   5.285 -0.2635 -0.1705 -0.0905
 1541SOL    HW1 5051   0.191   0.828   5.239  1.6223  0.6744  1.6010
 1541SOL    HW2 5052   0.105   0.952   5.226  0.5814 -0.2198 -0.4339
 1542SOL     OW 5053   5.387   4.013   3.852  0.5668 -0.3039 -0.7125
 1542SOL    HW1 5054   5.397   3.940   3.791  1.0097 -0.8151 -0.0403
 1542SOL    HW2 5055   5.476   4.043   3.870  0.3536  0.9491 -1.6156
 1543SOL     OW 5056   1.526   3.882   3.924 -0.2119 -0.2413  0.3630
 1543SOL    HW1 5057   1.432   3.888   3.905 -0.0801 -0.5434 -0.3898
 1543SOL    HW2 5058   1.550   3.969   3.956 -0.3916  0.3429 -1.0534
 1544SOL     OW 5059   4.038   3.197   1.199  0.1203 -0.8077  0.4501
 1544SOL    HW1 5060   3.988   3.256   1.142  0.1102 -0.5555  0.7193
 1544SOL    HW2 5061   4.097   3.254   1.248  0.4029 -1.0659  0.4141
 1545SOL     OW 5062   2.221   0.764   0.592 -0.2452 -0.7801  0.2020
 1545SOL    HW1 5063   2.278   0.735   0.663 -2.2675  0.1614  2.3653
 1545SOL    HW2 5064   2.257   0.723   0.513  3.7955  0.3828  1.2312
 1546SOL     OW 5065   3.201   3.093   3.415 -0.6475  0.0619  0.0758
 1546SOL    HW1 5066   3.235   3.178   3.387  0.6554  0.0960  1.6060
 1546SOL    HW2 5067   3.278   3.036   3.417 -1.4318 -1.0564 -0.5096
 1547SOL     OW 5068   5.074   0.869   6.147 -0.6353  0.3777 -0.0183
 1547SOL    HW1 5069   5.132   0.805   6.188 -1.0599  0.1021  0.1663
 1547SOL    HW2 5070   5.068   0.940   6.210 -0.3574  0.4867 -0.1149
 1548SOL     OW 5071   5.402   1.273   4.436 -0.1702  0.6407  0.1655
 1548SOL    HW1 5072   5.340   1.200   4.437 -0.3347  0.6636 -2.1347
 1548SOL    HW2 5073   5.487   1.232   4.451 -0.3791  0.1353 -0.0063
 1549SOL     OW 5074   2.890   4.477   1.439 -0.1984 -0.1413  0.1759
 1549SOL    HW1 5075   2.840   4.424   1.377  0.9647  0.2997 -1.2025
 1549SOL    HW2 5076   2.971   4.429   1.452  0.6037  0.9502 -0.6039
 1550SOL     OW 5077   0.115   0.307   5.283  0.5789 -0.3234  0.3738
 1550SOL    HW1 5078   0.192   0.364   5.287 -0.1648  0.7805 -0.5171
 1550SOL    HW2 5079   0.087   0.298   5.374  2.8947 -2.4120  1.0219
 1551SOL     OW 5080   6.115   0.863   4.132  0.1922 -0.2281 -0.3400
 1551SOL    HW1 5081   6.140   0.771   4.118 -3.8834 -1.8008  1.1050
 1551SOL    HW2 5082   6.164   0.889   4.209  0.3582 -1.7075  0.0948
 1552SOL     OW 5083   0.626   5.863   4.342 -0.0767  0.3333  0.4249
 1552SOL    HW1 5084   0.695   5.881   4.277 -1.7772  2.0799 -1.0112
 1552SOL    HW2 5085   0.547   5.851   4.290 -1.6216  2.3014  2.1311
 1553SOL     OW 5086   4.671   3.434   1.388  0.0719 -0.5229  0.2427
 1553SOL    HW1 5087   4.628   3.502   1.336  0.6544 -0.5553 -0.2983
 1553SOL    HW2 5088   4.607   3.362   1.392 -0.5278  0.0290  0.7784
 1554SOL     OW 5089   3.276   3.221   1.490 -0.2602  1.0347  0.0028
 1554SOL    HW1 5090   3.299   3.288   1.425  0.2263  1.2169  0.3503
 1554SOL    HW2 5091   3.331   3.146   1.468  1.3326  1.7461  1.3172
 1555SOL     OW 5092   5.054   5.294   3.697  0.2547 -0.0535  0.5014
 1555SOL    HW1 5093   5.090   5.379   3.721  0.5324  0.1591 -0.6189
 1555SOL    HW2 5094   5.130   5.243   3.668 -0.1903  0.1136 -1.0649
 1556SOL     OW 5095   0.632   5.815   4.615  0.4735 -0.7036 -0.1838
 1556SOL    HW1 5096   0.720   5.778   4.600  1.5555  2.2976 -2.1167
 1556SOL    HW2 5097   0.591   5.816   4.528 -0.0261  1.1948  0.0290
 1557SOL     OW 5098   1.480   1.315   2.626 -0.1060  0.4381 -0.4812
 1557SOL    HW1 5099   1.555   1.259   2.648  0.7111  0.5817 -2.6311
 1557SOL    HW2 5100   1.516   1.383   2.569 -1.4924  1.8793  0.2685
 1558SOL     OW 5101   5.468   2.541   2.018 -0.2051 -0.2709 -0.3803
 1558SOL    HW1 5102   5.418   2.622   2.026 -1.4174 -1.0715  0.3954
 1558SOL    HW2 5103   5.483   2.532   1.924 -1.5959 -0.0495 -0.6442
 1559SOL     OW 5104   2.742   1.733   3.569  0.3441 -0.0107 -0.4599
 1559SOL    HW1 5105   2.806   1.682   3.618 -0.4450  0.8690  1.6092
 1559SOL    HW2 5106   2.740   1.818   3.613 -0.6361  0.7334 -1.8577
 1560SOL     OW 5107   2.677   4.987   5.863 -0.8434 -0.9273  0.2345
 1560SOL    HW1 5108   2.689   4.897   5.833 -0.9865 -1.0362  0.4978
 1560SOL    HW2 5109   2.582   5.002   5.856 -0.7290 -0.5062 -0.6202
 1561SOL     OW 5110   1.510   0.016   4.740 -1.1152 -0.1050  0.2548
 1561SOL    HW1 5111   1.557   0.028   4.823  1.0336 -1.5495 -0.6578
 1561SOL    HW2 5112   1.419   0.005   4.766 -0.3692 -1.5709  2.5739
 1562SOL     OW 5113   1.294   0.202   4.077 -0.4752  0.4236 -0.4317
 1562SOL    HW1 5114   1.264   0.258   4.006 -1.1851  0.7826  0.1434
 1562SOL    HW2 5115   1.387   0.223   4.086 -0.8732  1.9821  0.2019
 1563SOL     OW 5116   2.310   3.312   1.486  0.6774 -0.0741 -0.1026
 1563SOL    HW1 5117   2.216   3.310   1.502  0.6669  0.6233 -0.0217
 1563SOL    HW2 5118   2.321   3.381   1.420  1.3699  1.8191  1.8646
 1564SOL     OW 5119   5.706   2.234   0.964 -0.6205 -0.0430 -0.0139
 1564SOL    HW1 5120   5.674   2.323   0.978 -1.2182  0.1641 -2.2841
 1564SOL    HW2 5121   5.655   2.202   0.890  0.8056 -1.6312 -0.3686
 1565SOL     OW 5122   0.993   5.383   4.798  0.4359  0.0878 -0.2567
 1565SOL    HW1 5123   0.994   5.343   4.711 -0.7175  1.5773 -1.0103
 1565SOL    HW2 5124   1.081   5.422   4.807  0.4967  0.1040 -0.8576
 1566SOL     OW 5125   6.200   5.685   3.482  0.1125  0.0781 -0.1268
 1566SOL    HW1 5126   6.249   5.680   3.563  2.4430 -0.8263 -1.4914
 1566SOL    HW2 5127   6.125   5.626   3.495  0.6402 -0.3223  1.2184
 1567SOL     OW 5128   4.334   0.845   5.836  0.6459  0.0816  0.0603
 1567SOL    HW1 5129   4.286   0.773   5.795 -0.9084  1.2409 -0.2723
 1567SOL    HW2 5130   4.280   0.869   5.912  0.5273  1.5919 -0.4738
 1568SOL     OW 5131   0.049   1.897   0.742 -0.7422 -0.2960  0.4180
 1568SOL    HW1 5132   0.003   1.981   0.735  0.0258  0.0276 -1.2070
 1568SOL    HW2 5133   0.007   1.841   0.676  0.0812 -0.5303  0.0799
 1569SOL     OW 5134   5.350   2.077   5.423  0.2308 -0.1050  0.3492
 1569SOL    HW1 5135   5.325   2.128   5.346  0.2706 -1.5262 -0.6333
 1569SOL    HW2 5136   5.302   2.118   5.495 -1.1302  0.2335 -0.6986
 1570SOL     OW 5137   4.898   3.148   5.696 -0.0006 -1.1609  0.4271
 1570SOL    HW1 5138   4.923   3.080   5.633 -0.4363 -0.5509 -0.4215
 1570SOL    HW2 5139   4.826   3.195   5.654 -0.3231 -0.7502  1.3980
 1571SOL     OW 5140   5.161   3.348   1.382 -0.1967 -0.1767  0.3460
 1571SOL    HW1 5141   5.207   3.289   1.322  0.7953  0.5284  0.3756
 1571SOL    HW2 5142   5.068   3.332   1.366  0.0447 -0.1533 -1.2334
 1572SOL     OW 5143   3.178   0.149   5.000 -0.2675 -0.1988 -0.1054
 1572SOL    HW1 5144   3.242   0.105   4.943 -0.7755  1.9222 -2.5089
 1572SOL    HW2 5145   3.097   0.149   4.950 -1.4281 -0.3015  1.6798
 1573SOL     OW 5146   0.019   6.180   4.043  0.2727 -0.2381  0.2940
 1573SOL    HW1 5147  -0.050   6.116   4.022 -1.2963  1.3810  0.2446
 1573SOL    HW2 5148   0.092   6.157   3.986 -1.0777 -0.6328 -1.3451
 1574SOL     OW 5149   0.674   2.361   0.792 -0.4174 -0.4290  0.0456
 1574SOL    HW1 5150   0.605   2.422   0.768  0.6890 -0.2299 -2.9877
 1574SOL    HW2 5151   0.628   2.287   0.832 -2.2254  0.3624 -0.4830
 1575SOL     OW 5152   2.828   0.330   1.898 -0.3822  0.1834 -0.0431
 1575SOL    HW1 5153   2.860   0.328   1.988 -0.0557 -0.1230 -0.1632
 1575SOL    HW2 5154   2.768   0.405   1.895  0.6460  1.0322  0.0820
 1576SOL     OW 5155   2.049   1.483   3.204 -0.9476 -0.3867  0.1334
 1576SOL    HW1 5156   1.957   1.491   3.179 -1.0001  0.1322  0.4919
 1576SOL    HW2 5157   2.097   1.495   3.122 -1.2220 -1.5853 -0.2249
 1577SOL     OW 5158   3.172   5.795   0.697 -0.2076 -0.1522 -0.0400
 1577SOL    HW1 5159   3.121   5.750   0.630 -0.0120 -1.4771  0.6695
 1577SOL    HW2 5160   3.202   5.725   0.755 -0.0335  0.9224  1.1976
 1578SOL     OW 5161   1.680   4.395   2.380 -0.2060 -0.9036 -0.5825
 1578SOL    HW1 5162   1.618   4.334   2.341 -1.1279 -0.4612  0.1606
 1578SOL    HW2 5163   1.629   4.475   2.396  0.2223 -0.9272  1.1247
 1579SOL     OW 5164   3.245   1.560   1.353  0.0381 -0.7733  0.4989
 1579SOL    HW1 5165   3.170   1.531   1.302  1.0812 -0.9162 -1.0525
 1579SOL    HW2 5166   3.315   1.570   1.288  1.3790 -0.7156  1.8910
 1580SOL     OW 5167   2.628   5.990   0.767 -0.1714  0.1412  0.2998
 1580SOL    HW1 5168   2.569   5.977   0.693 -1.1399 -1.7096  1.3228
 1580SOL    HW2 5169   2.676   5.907   0.774 -1.3382 -0.4125  2.7454
 1581SOL     OW 5170   0.545   5.046   0.470 -0.0903  0.0258  0.2542
 1581SOL    HW1 5171   0.457   5.069   0.498  0.0634 -2.1953  2.9421
 1581SOL    HW2 5172   0.538   5.032   0.375 -2.6021 -0.1826  0.4268
 1582SOL     OW 5173   2.040   2.587   3.645 -0.2522  0.1557 -0.2110
 1582SOL    HW1 5174   2.093   2.591   3.725  0.2689  1.1612 -0.5864
 1582SOL    HW2 5175   1.951   2.608   3.673 -0.2076 -0.2373  0.2216
 1583SOL     OW 5176   2.242   4.904   3.767 -1.0062 -0.2350 -0.1115
 1583SOL    HW1 5177   2.182   4.936   3.833  0.1207 -1.5259  1.6336
 1583SOL    HW2 5178   2.191   4.903   3.686 -2.3542  1.6018  0.6532
 1584SOL     OW 5179   1.461   2.254   5.296  0.4283  0.1787  0.0726
 1584SOL    HW1 5180   1.484   2.189   5.362  0.2205  0.2756  0.2414
 1584SOL    HW2 5181   1.366   2.251   5.291  0.4209  0.4304  0.0404
 1585SOL     OW 5182   1.323   0.686   2.377 -0.3687 -0.1552 -0.4672
 1585SOL    HW1 5183   1.408   0.674   2.335 -0.2726  0.5100 -0.4734
 1585SOL    HW2 5184   1.338   0.751   2.445 -1.2090  1.2755 -1.5848
 1586SOL     OW 5185   5.393   4.850   1.352 -0.0231  0.8148  0.1763
 1586SOL    HW1 5186   5.350   4.931   1.380 -0.7720  0.5490 -0.1906
 1586SOL    HW2 5187   5.329   4.781   1.370  0.7735  0.2390  0.8865
 1587SOL     OW 5188   1.721   4.676   2.687  0.6646 -0.2436 -0.2457
 1587SOL    HW1 5189   1.750   4.585   2.695 -0.0229 -0.5690 -1.3219
 1587SOL    HW2 5190   1.793   4.721   2.643  2.3775  0.4919  2.9260
 1588SOL     OW 5191   1.963   3.588   5.742 -0.1468  0.1273 -0.0400
 1588SOL    HW1 5192   1.878   3.545   5.734 -0.4093  0.4204  1.0122
 1588SOL    HW2 5193   2.001   3.551   5.821 -1.4795  3.5158  2.4939
 1589SOL     OW 5194   0.698   1.803   4.652 -0.3833  0.1234  0.8563
 1589SOL    HW1 5195   0.639   1.728   4.645 -1.3775  1.0209 -0.9480
 1589SOL    HW2 5196   0.641   1.880   4.652  0.6067  0.9394  2.7090
 1590SOL     OW 5197   3.664   1.332   0.330 -0.4152  0.0238 -0.0120
 1590SOL    HW1 5198   3.691   1.416   0.292 -0.2584 -0.1850 -0.3621
 1590SOL    HW2 5199   3.684   1.267   0.263  0.9476 -0.5044  0.8417
 1591SOL     OW 5200   6.028   2.007   1.966  0.2678 -0.4865  0.1913
 1591SOL    HW1 5201   5.956   1.951   1.995  0.1733  0.3368  1.6485
 1591SOL    HW2 5202   5.991   2.096   1.966  1.0290 -0.1585  0.1077
 1592SOL     OW 5203   4.085   5.825   4.859  0.1113 -0.3793  0.2074
 1592SOL    HW1 5204   4.050   5.778   4.784  0.9986 -1.0107  0.1846
 1592SOL    HW2 5205   4.162   5.775   4.886  1.1166  1.0821  0.1520
 1593SOL     OW 5206   2.950   1.069   5.400 -0.1806  0.2213 -0.5248
 1593SOL    HW1 5207   3.008   1.143   5.380 -1.0042  0.9489 -0.2944
 1593SOL    HW2 5208   2.985   1.033   5.481 -1.8104  2.6008  1.3724
 1594SOL     OW 5209   3.967   3.684   2.838 -0.0786 -0.2721  0.0328
 1594SOL    HW1 5210   3.928   3.723   2.916  1.5804 -0.7698  1.1415
 1594SOL    HW2 5211   3.976   3.591   2.859 -0.8348 -0.6820 -1.2896
 1595SOL     OW 5212   5.875   0.735   4.287 -0.2362 -0.5681  0.2003
 1595SOL    HW1 5213   5.787   0.721   4.252  0.0576  0.0794 -0.8484
 1595SOL    HW2 5214   5.930   0.743   4.210  0.1400  2.9038  0.6751
 1596SOL     OW 5215   5.109   5.141   5.022  0.6176  0.0354  0.2293
 1596SOL    HW1 5216   5.105   5.222   4.972 -1.8074  0.0753  0.3442
 1596SOL    HW2 5217   5.073   5.164   5.108  0.8788 -0.9253  0.6138
 1597SOL     OW 5218   2.745   1.293   1.712  0.1892 -0.4495 -0.3509
 1597SOL    HW1 5219   2.704   1.279   1.797  0.9283 -3.4855 -0.3784
 1597SOL    HW2 5220   2.686   1.249   1.650  0.3090  0.6203 -1.2499
 1598SOL     OW 5221   4.468   4.356   4.659  0.3204 -0.1576 -0.1578
 1598SOL    HW1 5222   4.547   4.348   4.605 -0.0814 -1.7700 -0.5568
 1598SOL    HW2 5223   4.397   4.323   4.605 -1.0698  3.0654 -0.5309
 1599SOL     OW 5224   1.949   4.088   4.724 -0.0059  0.2364 -0.8009
 1599SOL    HW1 5225   1.999   4.159   4.685 -0.8178  1.8529  0.9480
 1599SOL    HW2 5226   1.984   4.008   4.683  2.6647  1.4159 -0.9957
 1600SOL     OW 5227   2.313   1.545   2.000 -0.3392  0.0667 -0.3738
 1600SOL    HW1 5228   2.335   1.588   2.083 -1.0902  1.4230 -0.8578
 1600SOL    HW2 5229   2.229   1.503   2.017  0.7343 -1.9731  0.3333
 1601SOL     OW 5230   1.701   3.347   5.139  0.1235  0.4473  0.0881
 1601SOL    HW1 5231   1.633   3.359   5.205 -1.8359 -2.4984 -1.1715
 1601SOL    HW2 5232   1.782   3.374   5.182 -1.4334  1.1732  2.7382
 1602SOL     OW 5233   5.048   5.597   1.489  0.0863  0.8539  0.2919
 1602SOL    HW1 5234   5.144   5.594   1.489  0.2292 -1.3202  3.9835
 1602SOL    HW2 5235   5.023   5.554   1.408  2.2978  0.2054 -0.1305
 1603SOL     OW 5236   3.891   1.872   4.029  0.0888  0.4831 -0.5737
 1603SOL    HW1 5237   3.932   1.802   4.080 -1.3418  0.2582  0.3325
 1603SOL    HW2 5238   3.915   1.953   4.075 -0.5074  0.3472 -0.0042
 1604SOL     OW 5239   2.748   2.628   4.649 -0.0876  0.5563 -0.1523
 1604SOL    HW1 5240   2.760   2.548   4.599  3.9537  0.7127  0.2331
 1604SOL    HW2 5241   2.732   2.696   4.583  1.6033  0.1882 -0.9967
 1605SOL     OW 5242   4.806   4.296   2.693 -0.1083  0.1513  0.0338
 1605SOL    HW1 5243   4.799   4.209   2.654 -0.0827 -0.9579  2.3548
 1605SOL    HW2 5244   4.720   4.311   2.732  0.6687 -0.0373  1.9351
 1606SOL     OW 5245   2.773   5.607   2.434 -0.5380  0.1871  0.1018
 1606SOL    HW1 5246   2.713   5.537   2.408 -1.6952  0.5422  1.6318
 1606SOL    HW2 5247   2.737   5.640   2.517 -0.5581  3.2068 -0.9760
 1607SOL     OW 5248   4.157   3.392   4.628 -0.2076  0.2601  0.1436
 1607SOL    HW1 5249   4.166   3.392   4.533 -0.5381  1.1355  0.0967
 1607SOL    HW2 5250   4.062   3.394   4.643 -0.2158  3.2753  0.3991
 1608SOL     OW 5251   6.203   4.900   6.056 -0.5279  0.0598 -0.2116
 1608SOL    HW1 5252   6.114   4.867   6.042 -0.4540  0.0495 -0.6738
 1608SOL    HW2 5253   6.241   4.905   5.968 -0.2459  0.5512 -0.0675
 1609SOL     OW 5254   4.176   4.617   0.435 -0.4504 -0.6278 -0.1218
 1609SOL    HW1 5255   4.198   4.525   0.416 -0.5602 -0.6022 -0.3842
 1609SOL    HW2 5256   4.131   4.647   0.356  1.4229  0.2783 -0.9250
 1610SOL     OW 5257   1.143   2.650   6.114 -0.4525  0.1735 -0.1757
 1610SOL    HW1 5258   1.189   2.672   6.194 -1.9790 -2.0572  1.4213
 1610SOL    HW2 5259   1.056   2.689   6.125 -1.5281 -2.2637  0.4929
 1611SOL     OW 5260   2.555   1.576   3.428  0.3733  0.1505 -0.0907
 1611SOL    HW1 5261   2.494   1.540   3.492 -1.3667  2.3165 -0.4060
 1611SOL    HW2 5262   2.609   1.638   3.477  0.8006 -0.0774 -0.2603
 1612SOL     OW 5263   3.331   2.420   3.496  0.1280  0.6172 -0.0176
 1612SOL    HW1 5264   3.324   2.496   3.553 -1.3999  0.1862  0.4378
 1612SOL    HW2 5265   3.423   2.395   3.499  0.3213  1.4064  1.2128
 1613SOL     OW 5266   5.555   4.460   5.273 -0.4394  0.1387  0.3800
 1613SOL    HW1 5267   5.634   4.511   5.291 -0.6807  0.1537  1.4623
 1613SOL    HW2 5268   5.584   4.392   5.211 -0.4786  2.5215 -2.4600
 1614SOL     OW 5269   5.400   3.162   0.381 -0.1766  0.5243  0.0814
 1614SOL    HW1 5270   5.434   3.215   0.309  0.1234  0.7383  0.3779
 1614SOL    HW2 5271   5.322   3.209   0.410 -2.1662 -1.1340 -2.0988
 1615SOL     OW 5272   1.180   0.428   3.658  0.4444  0.0401 -0.1275
 1615SOL    HW1 5273   1.253   0.390   3.706  0.9775  0.7785 -0.3526
 1615SOL    HW2 5274   1.216   0.451   3.573 -0.0816  0.3085 -0.2812
 1616SOL     OW 5275   1.186   0.492   5.945 -0.0345  0.2785  0.0820
 1616SOL    HW1 5276   1.240   0.529   5.875  0.2284 -0.4073 -0.0826
 1616SOL    HW2 5277   1.244   0.489   6.021  0.0441 -0.0920  0.0092
 1617SOL     OW 5278   5.053   4.612   4.683 -0.1476  0.5251 -0.3369
 1617SOL    HW1 5279   4.997   4.659   4.745 -0.5478  0.9104 -0.9754
 1617SOL    HW2 5280   5.098   4.681   4.634  0.7995  0.2188  0.0721
 1618SOL     OW 5281   4.337   1.957   2.114  0.5357 -0.0021  0.7198
 1618SOL    HW1 5282   4.310   1.998   2.032 -0.5534  0.2578  1.1999
 1618SOL    HW2 5283   4.391   1.883   2.086  0.3077  0.1666 -0.2195
 1619SOL     OW 5284   3.655   1.311   4.444  0.7982  0.5008  0.0006
 1619SOL    HW1 5285   3.626   1.249   4.377 -1.3613 -1.9335  2.9169
 1619SOL    HW2 5286   3.745   1.285   4.463 -0.3447 -2.6473  1.8386
 1620SOL     OW 5287   5.620   1.312   3.882 -0.2769 -0.1412 -0.0689
 1620SOL    HW1 5288   5.574   1.381   3.931  2.9028  1.8330  0.3968
 1620SOL    HW2 5289   5.640   1.246   3.949 -0.6376 -0.0454  0.1406
 1621SOL     OW 5290   0.088   1.260   1.371  0.4938 -0.0853  0.0927
 1621SOL    HW1 5291   0.170   1.275   1.324 -0.1586  1.3775 -0.6276
 1621SOL    HW2 5292   0.029   1.221   1.306  0.7999 -1.8065  0.7954
 1622SOL     OW 5293   4.623   0.349   5.290  0.1548 -0.1778 -0.2869
 1622SOL    HW1 5294   4.622   0.268   5.341 -1.0327  0.2354  0.3928
 1622SOL    HW2 5295   4.712   0.382   5.298  1.0351 -2.0801 -1.6722
 1623SOL     OW 5296   1.344   1.611   2.999  0.2048  0.0561 -0.5493
 1623SOL    HW1 5297   1.412   1.544   2.998 -1.0469 -1.2791 -0.6465
 1623SOL    HW2 5298   1.272   1.571   3.048 -0.8351  1.0683 -1.1979
 1624SOL     OW 5299   0.072   2.613   2.095 -0.0663  0.3911 -0.4121
 1624SOL    HW1 5300   0.132   2.539   2.102  0.0847  0.4702 -0.8461
 1624SOL    HW2 5301   0.023   2.597   2.015  1.4243  1.8160 -1.6742
 1625SOL     OW 5302   0.534   1.217   5.277  0.0278 -0.7077  0.2551
 1625SOL    HW1 5303   0.603   1.283   5.281  1.0075 -1.5657 -1.4630
 1625SOL    HW2 5304   0.558   1.153   5.344  0.7184 -0.8340 -0.1122
 1626SOL     OW 5305   5.333   4.988   0.610  0.3811 -0.2093  0.1537
 1626SOL    HW1 5306   5.348   4.910   0.557  0.9868 -0.5886  0.8520
 1626SOL    HW2 5307   5.403   4.985   0.676 -0.7917 -0.1827  1.4532
 1627SOL     OW 5308   4.447   3.940   2.092 -0.3541 -0.0245 -0.4680
 1627SOL    HW1 5309   4.520   3.978   2.140  0.5326 -2.2944  0.0851
 1627SOL    HW2 5310   4.462   3.968   2.001  0.7303  0.2202 -0.2316
 1628SOL     OW 5311   4.969   2.292   2.832 -0.2618 -0.4671  0.0878
 1628SOL    HW1 5312   4.874   2.298   2.844 -0.3719 -1.1263 -0.3431
 1628SOL    HW2 5313   4.979   2.260   2.742  0.3290 -1.4480  0.4835
 1629SOL     OW 5314   0.111   3.557   2.559 -0.4732  0.2882  0.2757
 1629SOL    HW1 5315   0.153   3.630   2.605  1.0992 -0.6923  0.4783
 1629SOL    HW2 5316   0.030   3.541   2.607 -0.1162  0.9499  1.1240
 1630SOL     OW 5317   1.399   4.796   4.467  0.3816  0.0364 -0.3023
 1630SOL    HW1 5318   1.398   4.721   4.408 -0.3532 -0.6022  0.4945
 1630SOL    HW2 5319   1.381   4.759   4.554 -0.1328  1.1417  0.0887
 1631SOL     OW 5320   1.079   1.655   4.214 -0.1654  0.1797  0.3661
 1631SOL    HW1 5321   1.064   1.591   4.144  0.4216  0.2246  0.1944
 1631SOL    HW2 5322   1.014   1.724   4.197 -0.7788 -0.3535  0.5380
 1632SOL     OW 5323   0.404   4.487   6.095 -0.0664  0.5899 -0.3906
 1632SOL    HW1 5324   0.359   4.566   6.064 -1.5307 -1.3884 -3.9200
 1632SOL    HW2 5325   0.464   4.464   6.023  0.7371 -1.1986  0.7804
 1633SOL     OW 5326   1.776   6.010   4.852  0.1450 -0.2377  0.2540
 1633SOL    HW1 5327   1.747   5.952   4.782 -0.6816  1.3451 -0.7682
 1633SOL    HW2 5328   1.813   6.087   4.807  0.2605  0.4972  1.5420
 1634SOL     OW 5329   5.671   3.387   5.774 -0.2640  0.0238  0.1334
 1634SOL    HW1 5330   5.695   3.474   5.807 -0.6954  0.5094 -0.7891
 1634SOL    HW2 5331   5.753   3.351   5.740 -0.0190 -0.0630  0.8167
 1635SOL     OW 5332   5.597   0.991   0.447  0.1902  0.2214  0.0300
 1635SOL    HW1 5333   5.581   1.076   0.488 -0.2212 -0.5959  1.6519
 1635SOL    HW2 5334   5.691   0.989   0.430  0.2727  0.8266  0.4046
 1636SOL     OW 5335   0.059   0.503   4.705 -0.3071 -0.5103 -0.4397
 1636SOL    HW1 5336   0.001   0.510   4.781 -0.1682  1.3133 -0.4744
 1636SOL    HW2 5337   0.045   0.584   4.657  2.6430  0.2299 -0.1982
 1637SOL     OW 5338   2.531   4.432   0.377  0.6449  0.0591 -0.2452
 1637SOL    HW1 5339   2.466   4.410   0.444 -1.6374  1.0047 -2.0344
 1637SOL    HW2 5340   2.567   4.516   0.407 -2.3805  1.9521 -1.4138
 1638SOL     OW 5341   3.501   5.373   0.436 -0.1449  0.0600  0.2527
 1638SOL    HW1 5342   3.461   5.346   0.518  0.2062  0.2143  0.4743
 1638SOL    HW2 5343   3.484   5.300   0.376  2.2306 -1.4483  1.2869
 1639SOL     OW 5344   3.311   5.131   3.912 -0.2626  0.9070  0.1031
 1639SOL    HW1 5345   3.249   5.137   3.840 -0.2206  0.4810  0.0302
 1639SOL    HW2 5346   3.258   5.104   3.987  0.0586 -0.8934 -0.2842
 1640SOL     OW 5347   4.235   1.827   0.439 -0.2069 -0.7244 -0.4640
 1640SOL    HW1 5348   4.320   1.783   0.432 -1.4077 -2.9676 -3.9469
 1640SOL    HW2 5349   4.181   1.767   0.490  0.0069  0.3383  1.0879
 1641SOL     OW 5350   0.441   4.073   6.191  0.1717  0.1861  0.3920
 1641SOL    HW1 5351   0.404   3.985   6.202  1.7994 -0.4647  0.9493
 1641SOL    HW2 5352   0.364   4.130   6.184 -0.9229 -1.2575  0.0826
 1642SOL     OW 5353   5.389   4.977   4.156  0.1944 -0.8508 -0.4483
 1642SOL    HW1 5354   5.386   5.058   4.105  1.1238 -1.2835 -1.2108
 1642SOL    HW2 5355   5.304   4.935   4.140 -0.6149  0.3223  0.5788
 1643SOL     OW 5356   5.219   3.534   0.599  0.0295 -0.0636 -0.1277
 1643SOL    HW1 5357   5.203   3.619   0.558  0.1873  0.2540  0.4546
 1643SOL    HW2 5358   5.290   3.551   0.660 -0.8581 -0.2978  0.9931
 1644SOL     OW 5359   4.692   4.255   0.470  0.4677 -0.1246  0.3955
 1644SOL    HW1 5360   4.658   4.231   0.383 -0.9366 -0.5104  1.0220
 1644SOL    HW2 5361   4.689   4.351   0.470 -0.4514 -0.1387  0.3475
 1645SOL     OW 5362   4.258   4.769   1.780  0.0179  0.1207 -0.2666
 1645SOL    HW1 5363   4.319   4.838   1.807  1.9079 -1.4348 -0.3113
 1645SOL    HW2 5364   4.199   4.760   1.855  0.2718  1.2001  0.0862
 1646SOL     OW 5365   6.002   1.836   0.583  0.3701 -0.0783  0.3875
 1646SOL    HW1 5366   5.911   1.806   0.575  0.9851 -1.9336 -0.2486
 1646SOL    HW2 5367   6.052   1.756   0.602  1.9954  0.7396 -0.2219
 1647SOL     OW 5368   1.104   1.708   3.143 -0.3989  0.5924 -0.4387
 1647SOL    HW1 5369   1.022   1.662   3.160  0.0701 -1.0440 -2.1595
 1647SOL    HW2 5370   1.079   1.799   3.127 -1.5177  0.7238  1.7141
 1648SOL     OW 5371   0.885   6.154   2.534  0.6111  0.0269 -0.4364
 1648SOL    HW1 5372   0.879   6.097   2.458 -0.4124 -0.0020 -0.3517
 1648SOL    HW2 5373   0.877   6.243   2.498  0.2056  0.0172 -0.3765
 1649SOL     OW 5374   5.604   2.005   1.648  0.2299  0.1590  0.1939
 1649SOL    HW1 5375   5.629   2.097   1.656  0.6894 -0.0501  1.3116
 1649SOL    HW2 5376   5.670   1.967   1.590 -0.9396  0.8722 -1.7149
 1650SOL     OW 5377   0.181   0.840   5.766  0.2172 -0.7374  0.0201
 1650SOL    HW1 5378   0.141   0.765   5.810  0.1728 -0.0954  1.1306
 1650SOL    HW2 5379   0.275   0.824   5.772  0.2655 -0.1168  1.4228
 1651SOL     OW 5380   4.457   3.830   3.448 -0.5584  0.3236 -0.5590
 1651SOL    HW1 5381   4.414   3.808   3.366  0.3912  0.4727 -1.1173
 1651SOL    HW2 5382   4.466   3.925   3.446  1.8344  0.1346 -1.5445
 1652SOL     OW 5383   3.244   4.833   0.708 -0.1975  0.0230  0.1508
 1652SOL    HW1 5384   3.275   4.764   0.649  0.2766  0.3315  0.0399
 1652SOL    HW2 5385   3.213   4.902   0.649  0.7590  0.5508  0.2595
 1653SOL     OW 5386   4.378   0.164   1.691  0.6319  0.0298  0.3414
 1653SOL    HW1 5387   4.403   0.139   1.779  2.8949  0.3311 -0.1524
 1653SOL    HW2 5388   4.288   0.132   1.681  0.3664 -0.0958  2.6813
 1654SOL     OW 5389   5.948   4.260   2.147  0.4663  0.7020  0.2492
 1654SOL    HW1 5390   5.998   4.240   2.068  0.4012  0.0538  0.3698
 1654SOL    HW2 5391   5.917   4.350   2.133  0.8322  0.7555 -0.2589
 1655SOL     OW 5392   1.107   1.247   3.225  0.7040  0.5083  0.6209
 1655SOL    HW1 5393   1.156   1.256   3.144  0.7864  0.6490  0.6868
 1655SOL    HW2 5394   1.097   1.152   3.237 -2.3647  0.4071 -1.4141
 1656SOL     OW 5395   1.421   2.982   4.621 -0.6940  0.0368  0.3969
 1656SOL    HW1 5396   1.495   2.922   4.607 -0.5039 -0.2052  2.1913
 1656SOL    HW2 5397   1.434   3.052   4.557  0.8542 -0.2229  0.3917
 1657SOL     OW 5398   0.232   2.719   1.129 -0.0354  0.0997  0.2602
 1657SOL    HW1 5399   0.145   2.705   1.092 -0.0355  0.4688  0.1175
 1657SOL    HW2 5400   0.228   2.807   1.168  0.0578 -0.1597  0.8672
 1658SOL     OW 5401   1.800   3.093   0.568 -0.1620  0.6249  0.6053
 1658SOL    HW1 5402   1.733   3.047   0.518 -1.9933  1.2361  2.4047
 1658SOL    HW2 5403   1.835   3.158   0.507 -2.2162  1.2483  0.0179
 1659SOL     OW 5404   4.243   2.773   2.236 -0.2210 -0.4494 -0.3798
 1659SOL    HW1 5405   4.253   2.778   2.331 -0.3619 -1.3646 -0.3074
 1659SOL    HW2 5406   4.333   2.768   2.203 -0.1140  1.1501 -0.3944
 1660SOL     OW 5407   3.064   1.775   0.233  0.1711 -0.3509 -0.7882
 1660SOL    HW1 5408   3.016   1.842   0.184 -0.6455 -0.7926 -0.6211
 1660SOL    HW2 5409   3.066   1.807   0.323  0.7466 -0.0385 -0.9075
 1661SOL     OW 5410   5.090   4.512   4.036 -0.6453 -0.2031 -0.4214
 1661SOL    HW1 5411   5.082   4.595   4.084  0.7737 -0.7093  0.7745
 1661SOL    HW2 5412   5.025   4.455   4.076 -1.0088  0.0535 -0.6394
 1662SOL     OW 5413   0.278   0.399   0.112 -0.4952  0.6088 -0.2030
 1662SOL    HW1 5414   0.202   0.341   0.118  0.1039 -0.1956 -0.2192
 1662SOL    HW2 5415   0.253   0.465   0.047 -0.9846  0.0435 -0.6012
 1663SOL     OW 5416   3.108   0.518   4.427 -0.5185  0.3051  0.0436
 1663SOL    HW1 5417   3.155   0.563   4.498 -0.8955 -2.2747  2.0653
 1663SOL    HW2 5418   3.016   0.526   4.451 -0.6514 -0.5380 -0.1654
 1664SOL     OW 5419   3.760   3.055   1.820  0.3773 -0.4195 -0.0590
 1664SOL    HW1 5420   3.689   2.991   1.820 -0.6184  0.6419 -1.0724
 1664SOL    HW2 5421   3.818   3.026   1.750 -0.0596 -0.2254 -0.5044
 1665SOL     OW 5422   4.064   0.656   0.209 -0.4226  0.0683 -0.4432
 1665SOL    HW1 5423   4.067   0.655   0.305 -1.6077 -0.7400 -0.3946
 1665SOL    HW2 5424   3.972   0.638   0.188 -0.0214 -0.5451 -1.7415
 1666SOL     OW 5425   2.904   0.290   0.272  0.2026 -0.2072 -0.6923
 1666SOL    HW1 5426   2.830   0.254   0.223 -1.6279  0.9176  1.0596
 1666SOL    HW2 5427   2.930   0.368   0.223  0.7335 -1.0064 -1.7076
 1667SOL     OW 5428   1.874   3.625   3.725 -0.0826  0.0302  0.0124
 1667SOL    HW1 5429   1.821   3.674   3.662 -0.5239 -0.7788 -0.2650
 1667SOL    HW2 5430   1.857   3.533   3.704  1.7005 -0.2674 -0.3108
 1668SOL     OW 5431   0.679   5.996   5.309 -0.3934 -0.0125  0.2872
 1668SOL    HW1 5432   0.645   5.935   5.374  1.4860 -1.1508  0.2772
 1668SOL    HW2 5433   0.603   6.020   5.256 -1.5955 -0.5551  1.7086
 1669SOL     OW 5434   3.520   4.104   0.594 -0.0874 -0.2253 -0.0025
 1669SOL    HW1 5435   3.608   4.099   0.557 -0.4949 -0.9668 -0.9166
 1669SOL    HW2 5436   3.462   4.084   0.521 -0.9572 -0.8679  0.8320
 1670SOL     OW 5437   3.124   1.303   4.956  0.4008 -0.3675  0.1444
 1670SOL    HW1 5438   3.035   1.270   4.954 -0.4609  1.7696  0.2153
 1670SOL    HW2 5439   3.121   1.384   4.904  2.1321  0.0819  0.6716
 1671SOL     OW 5440   3.829   2.779   3.737  0.2830  0.4722 -0.0404
 1671SOL    HW1 5441   3.878   2.802   3.816  0.7310 -2.5840  0.6944
 1671SOL    HW2 5442   3.739   2.766   3.768 -0.1219  1.8036 -0.5775
 1672SOL     OW 5443   0.647   0.822   0.458 -0.3531 -0.5597 -0.8941
 1672SOL    HW1 5444   0.634   0.762   0.532  0.4936  1.8140  1.3241
 1672SOL    HW2 5445   0.721   0.785   0.410  0.6877 -0.9222  0.8992
 1673SOL     OW 5446   1.227   0.077   3.082  0.2459  0.3918  0.5767
 1673SOL    HW1 5447   1.284   0.152   3.070  0.2568  0.5340  1.4394
 1673SOL    HW2 5448   1.141   0.114   3.100  0.1946  0.1961  0.7415
 1674SOL     OW 5449   2.935   4.106   3.172  0.0176 -0.0148  0.2026
 1674SOL    HW1 5450   2.949   4.076   3.082 -1.1201 -0.9886  0.3250
 1674SOL    HW2 5451   2.909   4.028   3.220 -3.0950  1.0814  0.5303
 1675SOL     OW 5452   1.700   3.438   2.363  0.2422  0.1074 -0.0409
 1675SOL    HW1 5453   1.788   3.470   2.380  1.3861 -2.7281 -0.1154
 1675SOL    HW2 5454   1.682   3.465   2.273  1.9951 -1.0776 -0.8116
 1676SOL     OW 5455   3.887   3.233   5.326 -0.3688  0.3960  0.3841
 1676SOL    HW1 5456   3.814   3.285   5.361 -0.2715  0.6603  0.1995
 1676SOL    HW2 5457   3.879   3.149   5.370  1.3944  1.5659  3.2266
 1677SOL     OW 5458   0.211   0.166   1.724  0.1250 -0.4040 -0.1614
 1677SOL    HW1 5459   0.254   0.081   1.724  2.6931  0.8009  0.8907
 1677SOL    HW2 5460   0.176   0.175   1.813 -1.4727 -0.8986 -0.6895
 1678SOL     OW 5461   4.730   5.608   3.174 -0.3344 -0.0552 -0.1754
 1678SOL    HW1 5462   4.728   5.622   3.079 -1.4047  1.6903  0.0525
 1678SOL    HW2 5463   4.714   5.515   3.185  1.3195 -0.5938 -1.7327
 1679SOL     OW 5464   2.735   5.918   5.365 -0.1033 -0.0799  0.3574
 1679SOL    HW1 5465   2.650   5.924   5.408 -0.9241 -0.8842 -1.1194
 1679SOL    HW2 5466   2.729   5.975   5.289  0.7764  0.0440  0.3593
 1680SOL     OW 5467   4.641   1.267   2.699 -0.0725 -0.2986  0.3734
 1680SOL    HW1 5468   4.650   1.280   2.605  0.2378 -1.5974  0.2011
 1680SOL    HW2 5469   4.730   1.260   2.732 -0.1939 -0.8665  0.5975
 1681SOL     OW 5470   0.790   1.835   3.118 -0.3441 -0.1874  0.1870
 1681SOL    HW1 5471   0.752   1.788   3.193  1.2162 -2.1590 -0.1530
 1681SOL    HW2 5472   0.720   1.838   3.053 -1.0034 -0.5212  0.8634
 1682SOL     OW 5473   0.812   0.346   3.871 -0.5445  0.2709  0.3242
 1682SOL    HW1 5474   0.814   0.317   3.962 -0.6237  3.0891  1.3078
 1682SOL    HW2 5475   0.719   0.345   3.848 -0.5419 -0.2491  0.3140
 1683SOL     OW 5476   2.469   4.466   4.835  0.2171  0.2635  0.0607
 1683SOL    HW1 5477   2.501   4.514   4.759  0.5895 -0.5720 -0.3208
 1683SOL    HW2 5478   2.443   4.534   4.897  3.1171  1.0488  0.5793
 1684SOL     OW 5479   5.790   1.161   1.059 -0.2335  0.1360 -0.3718
 1684SOL    HW1 5480   5.807   1.255   1.068  1.4050 -0.1873  0.2314
 1684SOL    HW2 5481   5.869   1.119   1.094 -1.4077 -1.4925  0.4245
 1685SOL     OW 5482   2.352   4.124   0.825  0.6985 -0.0332 -0.3125
 1685SOL    HW1 5483   2.330   4.217   0.823  1.0808  0.3310  3.7758
 1685SOL    HW2 5484   2.437   4.118   0.780  0.2323  1.3888 -1.4397
 1686SOL     OW 5485   1.356   2.631   4.927  0.5099  0.0983 -0.4190
 1686SOL    HW1 5486   1.333   2.723   4.941 -2.9749 -0.4739 -1.4014
 1686SOL    HW2 5487   1.306   2.584   4.993 -0.3105 -1.2434 -1.9318
 1687SOL     OW 5488   2.893   6.190   3.134 -0.8320 -0.0592  0.4388
 1687SOL    HW1 5489   2.862   6.123   3.195 -1.3686  0.3158  0.5892
 1687SOL    HW2 5490   2.880   6.153   3.047  0.6762 -0.9236  0.5412
 1688SOL     OW 5491   0.533   3.315   4.810 -0.2834 -0.1169 -0.1657
 1688SOL    HW1 5492   0.586   3.381   4.856  1.1038 -1.4238  0.2078
 1688SOL    HW2 5493   0.456   3.363   4.780 -0.9428  0.9980  2.8864
 1689SOL     OW 5494   5.955   0.966   3.924  0.1617  0.0673 -0.2544
 1689SOL    HW1 5495   6.011   0.935   3.995  1.7034  1.1763 -0.9171
 1689SOL    HW2 5496   5.970   0.904   3.852  0.1214  0.0557 -0.2529
 1690SOL     OW 5497   3.036   4.256   3.365  0.0226  0.1620 -0.1523
 1690SOL    HW1 5498   3.109   4.198   3.347 -0.6913 -1.1213  0.9018
 1690SOL    HW2 5499   2.976   4.242   3.291  0.3160  0.3632 -0.4338
 1691SOL     OW 5500   5.048   2.336   5.063 -0.2996  0.3316 -0.2814
 1691SOL    HW1 5501   5.074   2.423   5.093  2.7550 -0.7743  0.6191
 1691SOL    HW2 5502   5.061   2.339   4.968  1.2840  0.4683 -0.0917
 1692SOL     OW 5503   1.636   5.433   0.643  0.1438  0.0086 -0.4945
 1692SOL    HW1 5504   1.591   5.445   0.559 -0.1354  0.4612 -0.2880
 1692SOL    HW2 5505   1.565   5.428   0.707  0.3770  2.2706  0.0291
 1693SOL     OW 5506   4.842   4.723   4.832 -0.1428  0.0755  0.0055
 1693SOL    HW1 5507   4.846   4.788   4.761  0.3039  0.2685  0.2053
 1693SOL    HW2 5508   4.890   4.763   4.904  0.4548 -0.6357  0.0106
 1694SOL     OW 5509   2.145   2.601   4.938 -0.2667 -0.2886  0.2271
 1694SOL    HW1 5510   2.167   2.531   5.000 -0.3061 -1.2264 -0.7833
 1694SOL    HW2 5511   2.194   2.580   4.859  0.4918  1.3958  0.2112
 1695SOL     OW 5512   3.090   4.350   0.412 -0.1988 -0.3235  0.1905
 1695SOL    HW1 5513   3.164   4.378   0.357  1.2011  0.4501  2.3395
 1695SOL    HW2 5514   3.067   4.264   0.378  1.5040 -0.4595 -0.7534
 1696SOL     OW 5515   3.411   1.121   2.273 -0.1827  0.0449 -0.2388
 1696SOL    HW1 5516   3.341   1.147   2.333  0.0442  0.8500 -0.3123
 1696SOL    HW2 5517   3.437   1.202   2.230  1.2491 -0.1118  0.2758
 1697SOL     OW 5518   5.907   5.048   4.627  0.2799 -0.1915 -0.0674
 1697SOL    HW1 5519   5.862   4.965   4.611  1.8464 -0.6495 -2.7417
 1697SOL    HW2 5520   5.945   5.039   4.714  0.4175 -2.3151 -0.3030
 1698SOL     OW 5521   5.193   5.519   3.626 -0.4794  0.3599  0.7157
 1698SOL    HW1 5522   5.142   5.570   3.688 -1.0496 -0.1447  0.6708
 1698SOL    HW2 5523   5.140   5.516   3.546 -0.1692  0.2243  0.5078
 1699SOL     OW 5524   4.912   0.167   5.922  0.8225 -0.0877 -0.3869
 1699SOL    HW1 5525   4.958   0.084   5.920  1.2042  0.1243 -0.5466
 1699SOL    HW2 5526   4.981   0.233   5.917  0.7322  0.3110  2.3525
 1700SOL     OW 5527   1.908   4.373   1.946  0.3175 -0.4707  0.0119
 1700SOL    HW1 5528   1.839   4.420   1.993  1.5054  0.7035  0.6395
 1700SOL    HW2 5529   1.862   4.325   1.877 -1.0677  0.6605  0.1200
 1701SOL     OW 5530   3.552   0.910   2.197  0.1838  0.2860  0.2418
 1701SOL    HW1 5531   3.523   0.893   2.107  1.3094  0.0485 -0.0901
 1701SOL    HW2 5532   3.494   0.979   2.228 -1.4479 -0.9155 -0.0106
 1702SOL     OW 5533   3.060   1.928   5.497  0.0846 -0.3951 -0.0759
 1702SOL    HW1 5534   3.119   1.979   5.441  0.3254  1.2713  1.6140
 1702SOL    HW2 5535   2.979   1.979   5.499 -0.0852 -0.6854  0.6938
 1703SOL     OW 5536   2.761   3.286   1.307  0.2549  0.3550  0.0728
 1703SOL    HW1 5537   2.849   3.256   1.330  0.7080  0.5218 -1.3230
 1703SOL    HW2 5538   2.755   3.269   1.213 -0.0760  3.1154 -0.4816
 1704SOL     OW 5539   0.691   0.845   3.107  0.2690 -0.0867  0.0026
 1704SOL    HW1 5540   0.680   0.936   3.078  2.7945  0.1566 -0.3975
 1704SOL    HW2 5541   0.633   0.837   3.182 -0.7635  1.5402 -0.5614
 1705SOL     OW 5542   3.545   5.436   3.087  0.0521  0.2997 -0.1526
 1705SOL    HW1 5543   3.508   5.360   3.132 -3.4482  1.2020 -1.2152
 1705SOL    HW2 5544   3.544   5.412   2.994  0.1837  1.1490 -0.3787
 1706SOL     OW 5545   5.360   1.351   3.686  0.1539  0.1795  0.1793
 1706SOL    HW1 5546   5.371   1.418   3.753  1.0139 -0.7797  1.0332
 1706SOL    HW2 5547   5.426   1.372   3.620  0.4765  0.1497  0.4854
 1707SOL     OW 5548   5.363   2.826   0.855  0.0155 -0.2382 -0.1430
 1707SOL    HW1 5549   5.450   2.796   0.829 -0.9349 -0.3707 -3.7915
 1707SOL    HW2 5550   5.303   2.766   0.810 -1.9394  1.4781  0.0213
 1708SOL     OW 5551   5.914   3.139   0.517  0.3666 -0.3145  0.2799
 1708SOL    HW1 5552   5.934   3.222   0.475  4.1019 -1.0031  0.3439
 1708SOL    HW2 5553   5.904   3.161   0.610 -0.6182  0.2589  0.0549
 1709SOL     OW 5554   3.822   5.775   2.157 -0.3425  0.0694  0.0281
 1709SOL    HW1 5555   3.827   5.851   2.214  0.0534 -0.3911  0.6248
 1709SOL    HW2 5556   3.906   5.730   2.169 -0.6495 -0.5701 -0.1483
 1710SOL     OW 5557   3.614   2.685   4.789  0.0413  0.0026  0.6155
 1710SOL    HW1 5558   3.615   2.613   4.726 -1.9110 -0.9385  1.5516
 1710SOL    HW2 5559   3.640   2.644   4.872 -1.6314  0.1912  1.2778
 1711SOL     OW 5560   0.246   5.887   1.182  0.9002  0.0071 -0.1732
 1711SOL    HW1 5561   0.260   5.918   1.272  1.2172 -0.1034 -0.1837
 1711SOL    HW2 5562   0.283   5.956   1.127 -0.6942  0.8326 -0.2731
 1712SOL     OW 5563   5.677   5.527   5.918  0.1717  0.2191  0.4387
 1712SOL    HW1 5564   5.691   5.584   5.843 -1.0998 -0.0481 -0.0251
 1712SOL    HW2 5565   5.756   5.537   5.971  0.1342  2.1641  0.2077
 1713SOL     OW 5566   0.161   5.642   4.933 -0.4998  0.1971  0.8363
 1713SOL    HW1 5567   0.177   5.676   5.021  2.5340 -1.1905  0.9607
 1713SOL    HW2 5568   0.181   5.715   4.874 -0.6813  0.5819  1.2507
 1714SOL     OW 5569   0.736   0.813   4.397  0.0032 -0.5827 -0.0464
 1714SOL    HW1 5570   0.764   0.736   4.347  4.1996  0.4608  0.2864
 1714SOL    HW2 5571   0.706   0.875   4.330  0.6351 -1.0404 -0.7789
 1715SOL     OW 5572   2.069   4.788   5.280 -0.2739  0.0484  0.2745
 1715SOL    HW1 5573   2.144   4.735   5.307  0.8246  0.5786 -1.6303
 1715SOL    HW2 5574   2.013   4.790   5.358  1.4956 -0.6443  1.6368
 1716SOL     OW 5575   0.752   0.828   5.275  0.4210  0.4736  0.0131
 1716SOL    HW1 5576   0.803   0.908   5.260 -0.3805  0.9667 -0.1245
 1716SOL    HW2 5577   0.744   0.788   5.189 -1.3907  1.6091 -0.3890
 1717SOL     OW 5578   4.289   6.189   3.052 -0.2125 -0.7216  0.0104
 1717SOL    HW1 5579   4.266   6.172   3.143 -1.4155 -0.5432 -0.2409
 1717SOL    HW2 5580   4.269   6.108   3.006 -0.8725 -0.3832 -0.3100
 1718SOL     OW 5581   5.036   2.893   0.015  0.0251  0.0368 -0.2852
 1718SOL    HW1 5582   4.983   2.967   0.046  0.6187 -0.7162  2.8477
 1718SOL    HW2 5583   5.109   2.887   0.077 -0.5031 -3.7225  0.2468
 1719SOL     OW 5584   4.460   4.956   1.883 -0.8561 -0.3319 -0.8540
 1719SOL    HW1 5585   4.552   4.960   1.857 -0.8158  1.4428 -0.6123
 1719SOL    HW2 5586   4.433   5.048   1.889 -3.4365 -0.7405 -3.6207
 1720SOL     OW 5587   2.982   0.326   2.854 -0.3940 -0.1670 -0.4384
 1720SOL    HW1 5588   2.987   0.260   2.785 -0.3457  0.2895 -0.8801
 1720SOL    HW2 5589   2.890   0.350   2.858 -0.5769 -0.9779  0.4150
 1721SOL     OW 5590   2.484   3.368   3.932  0.1676 -0.3587  0.3065
 1721SOL    HW1 5591   2.392   3.391   3.946 -0.7210 -3.3254  0.0213
 1721SOL    HW2 5592   2.483   3.308   3.857  2.7575  1.8349 -1.6978
 1722SOL     OW 5593   4.383   3.388   4.960 -0.2630  0.6518  0.1502
 1722SOL    HW1 5594   4.373   3.460   4.897  1.2045 -1.2188 -2.4136
 1722SOL    HW2 5595   4.295   3.352   4.969 -0.2899 -0.1440 -2.3784
 1723SOL     OW 5596   0.095   0.571   2.862 -0.0545 -0.8930  0.2516
 1723SOL    HW1 5597   0.051   0.571   2.947 -0.1935 -0.4584  0.1808
 1723SOL    HW2 5598   0.098   0.663   2.836 -1.0417 -1.1102 -0.7442
 1724SOL     OW 5599   4.255   6.072   5.769  0.2177  0.3455 -0.4239
 1724SOL    HW1 5600   4.236   5.979   5.770  1.6367  0.0318 -0.5978
 1724SOL    HW2 5601   4.276   6.093   5.860 -0.6438  0.6199 -0.2852
 1725SOL     OW 5602   4.351   1.232   2.246  0.5281  0.2432 -0.0936
 1725SOL    HW1 5603   4.295   1.181   2.188 -1.1004  2.6089 -0.7303
 1725SOL    HW2 5604   4.299   1.245   2.325  0.1568  2.3046 -0.6120
 1726SOL     OW 5605   4.133   3.287   5.018  0.6801  0.1612 -0.1242
 1726SOL    HW1 5606   4.111   3.223   5.086  0.8434  2.0562  1.8511
 1726SOL    HW2 5607   4.079   3.262   4.943  0.1742 -1.7979  0.8194
 1727SOL     OW 5608   0.033   2.760   0.721 -0.3572 -0.8558 -0.3532
 1727SOL    HW1 5609  -0.049   2.729   0.682 -0.9552 -0.9111  0.9195
 1727SOL    HW2 5610   0.078   2.805   0.649 -1.5534 -0.7187 -1.0394
 1728SOL     OW 5611   6.112   1.846   2.302 -0.3026  0.2574  0.1281
 1728SOL    HW1 5612   6.141   1.933   2.329  1.5386 -0.3913  0.3952
 1728SOL    HW2 5613   6.033   1.830   2.353 -1.2077  2.1232 -0.6094
 1729SOL     OW 5614   4.573   5.827   1.469 -0.4665  0.2219  0.2569
 1729SOL    HW1 5615   4.582   5.876   1.550  0.3854  2.5120 -1.1315
 1729SOL    HW2 5616   4.552   5.892   1.403 -0.2610 -1.4290 -1.5435
 1730SOL     OW 5617   1.360   4.250   3.812 -0.4387 -0.1765 -0.0011
 1730SOL    HW1 5618   1.421   4.285   3.746  0.7590 -0.6998  0.7819
 1730SOL    HW2 5619   1.404   4.266   3.895 -2.8706  2.4596  0.9335
 1731SOL     OW 5620   3.793   2.296   1.797 -0.0138  0.7282  0.1806
 1731SOL    HW1 5621   3.712   2.330   1.833  0.4730  0.8206  1.2121
 1731SOL    HW2 5622   3.862   2.327   1.856  0.7695  0.5590 -0.6044
 1732SOL     OW 5623   4.849   0.504   5.862  0.6011  0.2816 -0.3242
 1732SOL    HW1 5624   4.828   0.586   5.908 -0.4951 -0.6566  0.9496
 1732SOL    HW2 5625   4.887   0.449   5.930 -0.9699 -1.1158 -0.5180
 1733SOL     OW 5626   5.647   4.200   1.562 -0.2166  0.0711 -0.3094
 1733SOL    HW1 5627   5.572   4.227   1.616 -0.8434 -2.8241  0.4172
 1733SOL    HW2 5628   5.723   4.210   1.619 -0.1583  1.7537 -0.6163
 1734SOL     OW 5629   5.307   1.101   0.232  0.1808  0.2215  0.5325
 1734SOL    HW1 5630   5.279   1.067   0.317 -0.8132 -0.3633 -0.0168
 1734SOL    HW2 5631   5.237   1.160   0.205 -0.8111 -1.5864 -1.0553
 1735SOL     OW 5632   5.871   0.286   1.177 -0.3446 -0.0411 -0.1034
 1735SOL    HW1 5633   5.883   0.349   1.106  1.4115  0.1330  0.3055
 1735SOL    HW2 5634   5.952   0.234   1.177 -0.9040 -0.9598  0.8781
 1736SOL     OW 5635   4.742   3.880   1.197 -0.0589 -0.6014  0.4601
 1736SOL    HW1 5636   4.792   3.906   1.119 -0.3225  0.1364  0.5221
 1736SOL    HW2 5637   4.759   3.949   1.260  0.7675 -1.5974  1.3498
 1737SOL     OW 5638   3.364   2.150   1.108  0.1988 -0.1550 -0.4242
 1737SOL    HW1 5639   3.310   2.134   1.030 -0.1470 -2.4566  0.1898
 1737SOL    HW2 5640   3.443   2.191   1.075 -0.0472 -0.8486 -1.9764
 1738SOL     OW 5641   3.644   4.913   3.095 -0.0367 -0.0201 -0.0449
 1738SOL    HW1 5642   3.708   4.979   3.069 -1.1170  0.5690 -1.3069
 1738SOL    HW2 5643   3.688   4.829   3.078  0.1155  0.3680 -1.7230
 1739SOL     OW 5644   2.181   0.930   3.404 -0.3678 -0.4071  0.0654
 1739SOL    HW1 5645   2.098   0.956   3.365 -0.3450 -0.1465  0.1868
 1739SOL    HW2 5646   2.216   0.864   3.344  0.3764  1.0543 -1.1581
 1740SOL     OW 5647   3.779   0.661   1.917  0.7636 -0.0051  0.1400
 1740SOL    HW1 5648   3.779   0.673   1.822  2.2601 -2.2792 -0.2313
 1740SOL    HW2 5649   3.788   0.749   1.953 -0.9236  1.0312 -1.7390
 1741SOL     OW 5650   1.057   2.386   3.501  0.6796 -0.8315 -1.0094
 1741SOL    HW1 5651   1.072   2.397   3.407  2.5079 -0.3882 -0.6942
 1741SOL    HW2 5652   0.975   2.434   3.517 -0.2040 -1.7464 -2.5167
 1742SOL     OW 5653   4.267   3.585   4.781 -0.1624  0.2286  0.0775
 1742SOL    HW1 5654   4.205   3.650   4.813  0.4006 -0.0150  1.7584
 1742SOL    HW2 5655   4.213   3.512   4.750 -0.7265 -0.1668  1.9238
 1743SOL     OW 5656   1.929   2.787   2.462  0.1221  0.0521  0.6870
 1743SOL    HW1 5657   1.973   2.872   2.461 -0.8582  0.6093 -2.0985
 1743SOL    HW2 5658   1.979   2.733   2.402 -1.2031 -0.2318 -0.2082
 1744SOL     OW 5659   0.465   0.515   2.683  0.4864 -0.0122 -0.2707
 1744SOL    HW1 5660   0.374   0.542   2.669  0.3279 -0.9829 -1.2688
 1744SOL    HW2 5661   0.516   0.592   2.657 -0.0367  0.4962  0.1701
 1745SOL     OW 5662   6.137   4.138   2.974 -0.2431  0.7433 -0.3083
 1745SOL    HW1 5663   6.135   4.054   3.018  0.7757  1.1832  0.6247
 1745SOL    HW2 5664   6.051   4.146   2.933 -0.2114 -0.9228 -0.7795
 1746SOL     OW 5665   1.187   3.995   5.042 -0.1985  0.1393  0.9381
 1746SOL    HW1 5666   1.214   4.080   5.078 -1.6233  0.4230  1.3954
 1746SOL    HW2 5667   1.104   3.976   5.085 -0.9333 -0.5001 -0.6673
 1747SOL     OW 5668   5.052   3.035   2.443  0.0197 -0.0287  0.0932
 1747SOL    HW1 5669   5.093   3.107   2.489 -2.8570  0.8273  1.4825
 1747SOL    HW2 5670   5.030   3.071   2.357  1.3558 -0.2719 -0.3840
 1748SOL     OW 5671   5.609   3.039   5.098 -0.1231 -0.2922 -0.2353
 1748SOL    HW1 5672   5.648   3.000   5.020 -0.9116 -0.3219 -0.6247
 1748SOL    HW2 5673   5.533   2.985   5.116 -1.6185  1.3928 -1.1595
 1749SOL     OW 5674   5.151   5.853   3.063 -0.0509  0.3933 -0.2601
 1749SOL    HW1 5675   5.194   5.773   3.095 -1.2999  0.6077  2.2080
 1749SOL    HW2 5676   5.220   5.918   3.060  0.3582  0.0263  0.8615
 1750SOL     OW 5677   0.457   2.117   3.821  0.0016  0.4823 -0.0283
 1750SOL    HW1 5678   0.435   2.024   3.824 -1.1968  0.7443  0.1631
 1750SOL    HW2 5679   0.431   2.150   3.907  0.5721  0.9608 -0.0354
 1751SOL     OW 5680   5.495   3.768   5.969 -0.0995  0.3026 -0.0017
 1751SOL    HW1 5681   5.407   3.805   5.968 -0.5058 -0.6243  0.0149
 1751SOL    HW2 5682   5.553   3.843   5.979 -1.0149  0.7406  2.9679
 1752SOL     OW 5683   4.490   2.240   0.219  0.3199  0.4656  0.7013
 1752SOL    HW1 5684   4.465   2.322   0.261 -1.7796 -0.9042  2.3458
 1752SOL    HW2 5685   4.572   2.214   0.262  1.6092  2.1668 -0.6136
 1753SOL     OW 5686   5.028   3.556   5.241 -0.2327  0.2469  0.1422
 1753SOL    HW1 5687   4.986   3.563   5.326 -0.5638  2.3355 -0.1378
 1753SOL    HW2 5688   5.010   3.466   5.212 -1.2119 -0.0855  1.6870
 1754SOL     OW 5689   5.003   5.276   2.518 -0.3861  0.4999 -0.1662
 1754SOL    HW1 5690   4.960   5.232   2.591  0.7314 -0.9248 -0.3213
 1754SOL    HW2 5691   4.940   5.342   2.489 -1.8964 -0.6268  0.4388
 1755SOL     OW 5692   2.731   0.039   2.207 -0.3941  0.4628  0.1767
 1755SOL    HW1 5693   2.723  -0.005   2.123 -2.4587 -1.1796  1.1367
 1755SOL    HW2 5694   2.817   0.080   2.204  0.4674 -1.2689 -1.9284
 1756SOL     OW 5695   4.828   4.391   4.580  0.3156 -0.2087  0.1944
 1756SOL    HW1 5696   4.802   4.309   4.537 -1.9502 -1.0965  2.9552
 1756SOL    HW2 5697   4.863   4.363   4.665  0.6280  1.6368  0.7193
 1757SOL     OW 5698   1.285   1.666   1.349 -0.1414  0.3997 -0.2247
 1757SOL    HW1 5699   1.360   1.698   1.298  0.1603  0.5323  0.2918
 1757SOL    HW2 5700   1.210   1.680   1.292  0.2546  0.0396 -0.8541
 1758SOL     OW 5701   2.319   4.717   0.242  0.4133 -0.3494 -0.1389
 1758SOL    HW1 5702   2.336   4.684   0.154  0.5807 -1.7144  0.3765
 1758SOL    HW2 5703   2.405   4.719   0.283  0.2489 -0.3775  0.2086
 1759SOL     OW 5704   5.689   2.076   2.691 -0.0806  0.0150 -0.5002
 1759SOL    HW1 5705   5.772   2.053   2.651  0.9165  2.0318  0.2688
 1759SOL    HW2 5706   5.686   2.172   2.687 -1.4897  0.0903  1.1788
 1760SOL     OW 5707   4.753   5.718   0.192  0.3864 -0.1669 -0.1575
 1760SOL    HW1 5708   4.827   5.703   0.251 -0.6290 -0.4276  1.1066
 1760SOL    HW2 5709   4.700   5.784   0.238  0.6956  1.3524 -1.8614
 1761SOL     OW 5710   4.981   4.225   1.519  0.0210  0.1114  0.2223
 1761SOL    HW1 5711   5.072   4.254   1.517 -0.3832  1.3931 -0.9435
 1761SOL    HW2 5712   4.930   4.306   1.526 -1.0340 -0.6249  1.7061
 1762SOL     OW 5713   4.931   0.583   4.721  0.1980  0.3212  0.1183
 1762SOL    HW1 5714   4.878   0.522   4.671  1.1032 -0.4223  0.0259
 1762SOL    HW2 5715   4.983   0.630   4.655  1.8070 -1.0570  0.3310
 1763SOL     OW 5716   5.557   5.597   4.238 -0.2326 -0.2927 -0.7628
 1763SOL    HW1 5717   5.643   5.556   4.252 -0.1785  0.0264 -0.0946
 1763SOL    HW2 5718   5.567   5.644   4.156 -0.0051 -0.8623 -1.0718
 1764SOL     OW 5719   2.505   2.999   2.552  0.5227  0.0434  0.2870
 1764SOL    HW1 5720   2.490   2.992   2.646 -0.4336  1.0517  0.2323
 1764SOL    HW2 5721   2.576   3.063   2.544 -0.8342  1.6123  0.2817
 1765SOL     OW 5722   0.028   2.087   5.309 -0.2340 -0.0267 -0.3331
 1765SOL    HW1 5723  -0.008   2.124   5.389  0.6705 -0.2733  0.1930
 1765SOL    HW2 5724   0.063   2.002   5.334  2.8566  1.1492 -0.2516
 1766SOL     OW 5725   1.579   5.636   4.953 -0.2770  0.4676 -0.1496
 1766SOL    HW1 5726   1.509   5.596   4.902 -0.2850 -0.0430  0.2570
 1766SOL    HW2 5727   1.654   5.639   4.894  0.0231 -1.0655  0.1089
 1767SOL     OW 5728   5.676   1.999   3.825 -0.4904  0.2463  0.1317
 1767SOL    HW1 5729   5.619   2.021   3.899 -0.1541  0.5380  0.3086
 1767SOL    HW2 5730   5.735   1.933   3.860  0.1439  0.9100  0.3471
 1768SOL     OW 5731   2.020   3.135   2.663 -0.0717 -0.2862 -0.3539
 1768SOL    HW1 5732   1.977   3.080   2.728 -0.5722  1.6143  1.0409
 1768SOL    HW2 5733   2.081   3.188   2.713  0.3980  0.4269 -1.6224
 1769SOL     OW 5734   3.234   0.339   2.531  0.1518 -0.3575  0.0101
 1769SOL    HW1 5735   3.158   0.344   2.472 -0.6352 -0.2908  0.9883
 1769SOL    HW2 5736   3.293   0.277   2.489 -0.2942 -0.1626 -0.9437
 1770SOL     OW 5737   6.026   5.282   4.037  0.0998 -0.3911  0.3520
 1770SOL    HW1 5738   6.049   5.247   4.123 -0.5255 -0.5243  0.4664
 1770SOL    HW2 5739   6.047   5.211   3.976 -0.1718 -0.5792  0.4754
 1771SOL     OW 5740   4.748   1.940   1.995 -0.5699 -0.0043  0.0513
 1771SOL    HW1 5741   4.835   1.913   1.966 -0.4495  1.0298 -0.6141
 1771SOL    HW2 5742   4.743   1.910   2.086  0.3973 -0.2756  0.0297
 1772SOL     OW 5743   1.986   6.089   4.508 -0.8140 -0.2224 -0.0141
 1772SOL    HW1 5744   2.060   6.129   4.553  0.3153  0.3483 -2.2515
 1772SOL    HW2 5745   1.911   6.143   4.534 -0.0023  0.7958  0.2928
 1773SOL     OW 5746   0.546   0.770   1.733  0.3055  0.4490 -0.0334
 1773SOL    HW1 5747   0.638   0.748   1.749  0.0270  0.1118  1.2094
 1773SOL    HW2 5748   0.505   0.687   1.709  0.4806  0.7457 -1.3891
 1774SOL     OW 5749   2.897   2.351   0.890  0.2320 -0.2111 -0.0244
 1774SOL    HW1 5750   2.899   2.273   0.945 -1.2968 -1.1130 -1.1600
 1774SOL    HW2 5751   2.864   2.320   0.805  0.1154  1.5759 -0.6844
 1775SOL     OW 5752   3.113   3.890   5.402  0.0722 -0.0376  0.4523
 1775SOL    HW1 5753   3.085   3.978   5.429 -0.0885 -0.5402  2.0552
 1775SOL    HW2 5754   3.180   3.866   5.466 -1.0443 -1.7112  1.0831
 1776SOL     OW 5755   4.435   5.908   1.236 -0.4850 -0.0827 -0.2010
 1776SOL    HW1 5756   4.401   5.822   1.261 -1.9321  0.2850 -0.8040
 1776SOL    HW2 5757   4.367   5.969   1.262  0.3883  0.8614 -0.0811
 1777SOL     OW 5758   3.687   2.636   3.324  0.0355 -0.2068 -0.2356
 1777SOL    HW1 5759   3.775   2.652   3.359 -0.4047 -0.9306  1.2813
 1777SOL    HW2 5760   3.666   2.715   3.275  1.2518  0.2606 -0.0414
 1778SOL     OW 5761   3.123   0.496   3.456 -0.3615 -0.7592 -0.5357
 1778SOL    HW1 5762   3.114   0.474   3.363 -1.6884 -1.1808 -0.3331
 1778SOL    HW2 5763   3.045   0.547   3.476  0.5433  0.4298  0.0581
 1779SOL     OW 5764   1.741   2.705   2.758 -0.6452 -1.0182 -0.7447
 1779SOL    HW1 5765   1.692   2.704   2.840  1.2871 -2.8204  0.4887
 1779SOL    HW2 5766   1.821   2.753   2.778 -1.0143  0.2990 -2.2069
 1780SOL     OW 5767   5.366   1.913   1.299  0.0155  0.6118  0.1507
 1780SOL    HW1 5768   5.385   1.917   1.392  1.0765  0.3375 -0.0405
 1780SOL    HW2 5769   5.448   1.884   1.259 -0.7180 -0.2561 -0.7650
 1781SOL     OW 5770   4.100   5.212   0.286  0.4935 -0.3246  0.0913
 1781SOL    HW1 5771   4.168   5.273   0.316 -1.6809  2.2064  0.2576
 1781SOL    HW2 5772   4.028   5.224   0.348 -0.7999 -1.5757 -1.1000
 1782SOL     OW 5773   1.894   2.155   4.143  0.2737  0.4728  0.1619
 1782SOL    HW1 5774   1.839   2.100   4.087  1.8174 -0.4259 -0.5159
 1782SOL    HW2 5775   1.967   2.099   4.168  1.5335  1.9937  0.0454
 1783SOL     OW 5776   5.911   4.095   3.501  0.9309  0.4705  0.2446
 1783SOL    HW1 5777   5.853   4.022   3.523  1.6415  0.1975  1.3294
 1783SOL    HW2 5778   5.958   4.113   3.583  2.7516  0.3299 -0.7237
 1784SOL     OW 5779   0.847   2.130   1.566 -0.3631  0.1077  0.2077
 1784SOL    HW1 5780   0.763   2.099   1.602  0.3575 -0.1758  1.7558
 1784SOL    HW2 5781   0.910   2.062   1.591  0.6257  1.1276  0.6052
 1785SOL     OW 5782   4.910   5.299   0.326 -0.4872  0.1909  0.5269
 1785SOL    HW1 5783   4.825   5.316   0.366 -0.9342  0.4228 -0.4782
 1785SOL    HW2 5784   4.914   5.358   0.251  0.2112 -0.3975  0.0840
 1786SOL     OW 5785   0.464   0.841   1.046  0.8289  0.0615 -0.7344
 1786SOL    HW1 5786   0.524   0.899   1.093  1.4756 -0.6900 -0.6142
 1786SOL    HW2 5787   0.387   0.835   1.102 -0.5958  3.1731 -2.0693
 1787SOL     OW 5788   3.995   2.613   4.567 -0.0184 -0.0840 -0.1019
 1787SOL    HW1 5789   3.994   2.623   4.663 -2.3041  2.8463 -0.2744
 1787SOL    HW2 5790   4.087   2.622   4.543  0.4490  0.5568  1.7206
 1788SOL     OW 5791   5.793   0.148   1.799 -0.1227 -0.2725  0.0704
 1788SOL    HW1 5792   5.872   0.095   1.789  1.0553  1.0830  1.6017
 1788SOL    HW2 5793   5.781   0.188   1.713  1.2866  0.0305 -0.0126
 1789SOL     OW 5794   1.381   3.050   3.510 -0.5297  0.1285 -0.3137
 1789SOL    HW1 5795   1.476   3.036   3.512 -0.6494 -0.7170  0.0264
 1789SOL    HW2 5796   1.368   3.136   3.548  0.0526 -0.0424  0.2849
 1790SOL     OW 5797   0.119   0.605   3.855  0.0569  0.3877 -0.2945
 1790SOL    HW1 5798   0.210   0.579   3.844  0.3622  1.7394 -1.2101
 1790SOL    HW2 5799   0.124   0.691   3.897 -0.8900 -0.4754  1.7430
 1791SOL     OW 5800   3.756   4.993   0.587  0.3239  0.1259  0.3241
 1791SOL    HW1 5801   3.822   4.927   0.609 -0.1218 -0.3212  0.3154
 1791SOL    HW2 5802   3.789   5.034   0.507  0.6062 -0.0770  0.3345
 1792SOL     OW 5803   3.093   1.242   5.671 -0.1875  0.3514  0.7810
 1792SOL    HW1 5804   3.165   1.205   5.722 -1.0956 -1.0797  1.0596
 1792SOL    HW2 5805   3.135   1.274   5.591  1.0109  1.1706  1.6893
 1793SOL     OW 5806   2.453   3.499   0.893  0.7553 -0.3794 -0.3651
 1793SOL    HW1 5807   2.451   3.549   0.812 -0.5109 -1.4341 -1.0171
 1793SOL    HW2 5808   2.494   3.558   0.957  2.3352  0.2455 -1.8857
 1794SOL     OW 5809   4.689   1.333   6.002  0.6464  0.5579  0.5187
 1794SOL    HW1 5810   4.665   1.252   5.956 -1.9026  1.0866  0.8213
 1794SOL    HW2 5811   4.764   1.366   5.952 -0.3386 -0.2794 -1.6376
 1795SOL     OW 5812   2.286   2.967   5.365 -0.0661  0.2526  0.4919
 1795SOL    HW1 5813   2.272   2.994   5.455 -1.2334 -1.4294  0.8764
 1795SOL    HW2 5814   2.373   2.926   5.364  0.0021  0.3939  0.8269
 1796SOL     OW 5815   5.552   5.190   2.703  0.3445 -0.7098 -0.1961
 1796SOL    HW1 5816   5.573   5.161   2.614 -2.7085  0.9824 -1.6229
 1796SOL    HW2 5817   5.567   5.285   2.701 -2.7492 -0.1173 -0.0211
 1797SOL     OW 5818   0.674   2.422   4.822  0.1053  0.1788  1.1683
 1797SOL    HW1 5819   0.662   2.460   4.735 -0.7580  0.2036  1.2941
 1797SOL    HW2 5820   0.595   2.445   4.870 -1.0272 -2.7447  0.9016
 1798SOL     OW 5821   3.992   4.990   4.298 -0.2939  0.0346 -0.6025
 1798SOL    HW1 5822   4.049   4.926   4.342 -0.9341 -1.6131 -2.0523
 1798SOL    HW2 5823   3.943   5.031   4.369 -0.5299 -1.7746  0.3370
 1799SOL     OW 5824   3.724   5.555   5.921  0.2050  0.2996  0.3199
 1799SOL    HW1 5825   3.752   5.481   5.973 -2.7158 -1.8623 -0.8916
 1799SOL    HW2 5826   3.686   5.616   5.984 -1.1719 -1.2199  1.0401
 1800SOL     OW 5827   0.891   4.043   0.188  0.8374 -0.8198  0.4824
 1800SOL    HW1 5828   0.871   3.957   0.224 -1.4978 -0.0866  1.0979
 1800SOL    HW2 5829   0.807   4.075   0.154  1.7889  0.9470 -0.3345
 1801SOL     OW 5830   4.711   2.664   1.491 -0.3857 -0.0414 -0.3165
 1801SOL    HW1 5831   4.644   2.623   1.545 -0.5331  0.6521  0.0285
 1801SOL    HW2 5832   4.686   2.642   1.401 -0.9787  0.0704 -0.1833
 1802SOL     OW 5833   0.143   5.584   5.677  0.3370 -0.4782 -0.0107
 1802SOL    HW1 5834   0.168   5.675   5.664  0.4588 -0.4779  0.2087
 1802SOL    HW2 5835   0.171   5.564   5.767 -2.1161  0.0647  0.9419
 1803SOL     OW 5836   2.707   5.598   3.825 -0.1479  0.2363  0.6110
 1803SOL    HW1 5837   2.676   5.682   3.790  0.5896  0.3563  0.2053
 1803SOL    HW2 5838   2.672   5.533   3.764  2.1904  0.5344 -1.2295
 1804SOL     OW 5839   4.232   4.846   5.190 -0.2155  0.2000  0.1128
 1804SOL    HW1 5840   4.302   4.828   5.252  0.5374 -0.0516 -0.7722
 1804SOL    HW2 5841   4.246   4.782   5.119  1.7872  3.2700 -2.5661
 1805SOL     OW 5842   2.726   6.136   5.931  0.0356 -0.0286  0.2119
 1805SOL    HW1 5843   2.805   6.091   5.902 -0.5284 -0.8884 -0.0248
 1805SOL    HW2 5844   2.668   6.134   5.855 -0.5389 -0.1675  0.6445
 1806SOL     OW 5845   5.093   1.121   1.918  0.1362  0.4557  0.5643
 1806SOL    HW1 5846   5.131   1.200   1.879 -1.2381  0.3819 -1.0288
 1806SOL    HW2 5847   5.016   1.102   1.865 -0.2867 -1.2576  1.6898
 1807SOL     OW 5848   4.576   5.011   6.189  0.2162 -0.2963 -0.5728
 1807SOL    HW1 5849   4.655   5.060   6.163 -0.0502 -0.0594 -0.9461
 1807SOL    HW2 5850   4.536   4.986   6.106  0.5888 -1.5577 -0.3850
 1808SOL     OW 5851   6.115   5.280   5.361  0.2616 -0.1501  0.2652
 1808SOL    HW1 5852   6.133   5.243   5.274 -1.3005  1.6450 -0.9347
 1808SOL    HW2 5853   6.078   5.366   5.342 -1.5514 -0.2968  2.6768
 1809SOL     OW 5854   2.059   1.944   2.599  0.4417 -0.2813 -0.4893
 1809SOL    HW1 5855   2.144   1.971   2.562  1.0973  0.5199  1.4872
 1809SOL    HW2 5856   2.082   1.882   2.668 -0.5172  0.5258  0.5881
 1810SOL     OW 5857   3.290   5.812   3.315 -0.5836  0.1463 -0.9863
 1810SOL    HW1 5858   3.201   5.789   3.288  0.2421 -1.6943 -2.3051
 1810SOL    HW2 5859   3.345   5.789   3.240  0.9409  2.1937 -0.6106
 1811SOL     OW 5860   4.136   2.975   3.331  0.3864  0.8194 -0.2686
 1811SOL    HW1 5861   4.082   2.923   3.391  0.2528  1.4959  0.2229
 1811SOL    HW2 5862   4.220   2.930   3.328 -0.3339 -0.5305 -1.4321
 1812SOL     OW 5863   4.227   3.015   1.073 -0.6083  0.5608 -0.0140
 1812SOL    HW1 5864   4.179   3.094   1.098  1.2734  1.2090  1.8923
 1812SOL    HW2 5865   4.162   2.960   1.031 -2.1339  2.8551 -0.8863
 1813SOL     OW 5866   0.201   1.327   2.135 -0.3332 -0.6317  0.0934
 1813SOL    HW1 5867   0.293   1.310   2.154 -0.3432 -0.8099 -0.0146
 1813SOL    HW2 5868   0.192   1.422   2.140 -0.1542 -0.6183  0.1517
 1814SOL     OW 5869   4.962   1.581   6.097  0.2800  0.1936  0.1380
 1814SOL    HW1 5870   4.907   1.654   6.069 -0.6029  0.1098  1.5533
 1814SOL    HW2 5871   4.967   1.524   6.020 -1.6011  0.2347 -0.0650
 1815SOL     OW 5872   5.824   6.202   5.428  0.2402  0.3100 -0.2354
 1815SOL    HW1 5873   5.797   6.213   5.337  1.4624  1.1878 -0.5139
 1815SOL    HW2 5874   5.762   6.138   5.464 -0.6780  0.4653 -1.4828
 1816SOL     OW 5875   3.122   3.841   3.554  0.6836  0.1488 -0.0087
 1816SOL    HW1 5876   3.213   3.822   3.578  0.6614 -0.6169 -0.5149
 1816SOL    HW2 5877   3.101   3.920   3.604  1.8796  0.8019 -0.4655
 1817SOL     OW 5878   0.127   2.000   2.687 -0.0118 -0.6805  0.2477
 1817SOL    HW1 5879   0.207   1.998   2.739  0.5474 -1.0165 -0.6071
 1817SOL    HW2 5880   0.082   1.919   2.708  1.3320 -1.9659 -1.4615
 1818SOL     OW 5881   4.950   0.367   0.499 -0.3491 -0.1128  0.4368
 1818SOL    HW1 5882   4.873   0.378   0.444  0.2655 -1.0323 -0.6463
 1818SOL    HW2 5883   4.962   0.452   0.540  0.5140  1.3873 -2.6427
 1819SOL     OW 5884   5.047   5.023   0.824  0.7300  0.6325 -0.2639
 1819SOL    HW1 5885   4.976   5.001   0.763  0.8545 -0.6229  0.0137
 1819SOL    HW2 5886   5.115   4.959   0.806  1.2594  0.9929  0.3868
 1820SOL     OW 5887   4.292   5.761   3.815 -0.9531 -0.4467 -0.1595
 1820SOL    HW1 5888   4.332   5.675   3.806 -0.8909 -0.5335  0.8394
 1820SOL    HW2 5889   4.198   5.744   3.819 -0.8596 -0.6730  1.9564
 1821SOL     OW 5890   4.473   5.316   5.784 -0.2724  0.0811 -0.1478
 1821SOL    HW1 5891   4.450   5.318   5.877  0.2205  2.8196 -0.0087
 1821SOL    HW2 5892   4.392   5.289   5.741 -0.8029 -0.2471  0.9979
 1822SOL     OW 5893   5.168   0.106   1.756  0.4007 -0.0750 -0.2226
 1822SOL    HW1 5894   5.197   0.057   1.680 -1.7861 -0.6516 -0.7556
 1822SOL    HW2 5895   5.084   0.144   1.730 -1.5811 -2.1318  2.5379
 1823SOL     OW 5896   2.117   4.207   0.361  0.4893 -0.8128  0.0068
 1823SOL    HW1 5897   2.070   4.146   0.418  0.1180  1.8488  2.7956
 1823SOL    HW2 5898   2.053   4.274   0.340  1.8961  0.7125  0.3855
 1824SOL     OW 5899   0.408   4.844   4.046 -0.0702  0.4656 -0.0802
 1824SOL    HW1 5900   0.403   4.763   3.994 -0.4779  1.0839 -1.0262
 1824SOL    HW2 5901   0.317   4.873   4.053  0.1914  1.5502 -0.9101
 1825SOL     OW 5902   0.965   5.549   5.565 -0.2072 -0.4477  0.2065
 1825SOL    HW1 5903   0.970   5.640   5.536 -2.0100  0.2214  1.7499
 1825SOL    HW2 5904   0.944   5.500   5.486  1.2292  0.3906 -0.7353
 1826SOL     OW 5905   0.769   4.332   3.642  0.6677 -0.1735  0.4413
 1826SOL    HW1 5906   0.725   4.260   3.687  1.7465  0.0432  1.8997
 1826SOL    HW2 5907   0.845   4.291   3.601 -0.2047 -0.3340 -1.1148
 1827SOL     OW 5908   2.698   2.984   4.878 -0.0924  0.0503  0.7851
 1827SOL    HW1 5909   2.666   3.062   4.924  0.9859 -0.8396  3.2413
 1827SOL    HW2 5910   2.789   3.004   4.856 -0.8399  0.8024 -1.9194
 1828SOL     OW 5911   4.279   1.879   2.556  0.1466 -0.6579 -0.0736
 1828SOL    HW1 5912   4.230   1.887   2.474 -0.9119  0.3289  0.6304
 1828SOL    HW2 5913   4.274   1.785   2.578 -0.7833 -0.6913 -0.4113
 1829SOL     OW 5914   0.825   6.148   0.416 -0.2729  0.1691 -0.2540
 1829SOL    HW1 5915   0.877   6.078   0.375 -1.3901 -0.5234 -0.5443
 1829SOL    HW2 5916   0.872   6.170   0.496  0.9250  0.1835 -0.9460
 1830SOL     OW 5917   5.164   2.762   0.692  0.0410 -0.1275  0.4418
 1830SOL    HW1 5918   5.100   2.832   0.703  1.3638  1.2179  0.0185
 1830SOL    HW2 5919   5.167   2.746   0.598  1.8119  1.3797  0.1702
 1831SOL     OW 5920   3.601   4.642   3.921  0.4886  0.1324  0.4784
 1831SOL    HW1 5921   3.609   4.650   3.826 -0.7621  1.1083  0.4205
 1831SOL    HW2 5922   3.680   4.595   3.948  1.0602  0.1848 -0.9904
 1832SOL     OW 5923   6.118   6.192   2.531  0.0410 -0.5958 -0.2452
 1832SOL    HW1 5924   6.089   6.243   2.607 -0.5314 -0.7844 -0.3375
 1832SOL    HW2 5925   6.038   6.157   2.493  0.4307 -1.5913 -0.1740
 1833SOL     OW 5926   0.132   0.574   4.308  0.2601  0.2476 -0.1045
 1833SOL    HW1 5927   0.119   0.646   4.370 -0.1897 -0.6181  0.8149
 1833SOL    HW2 5928   0.215   0.534   4.335 -0.4623 -0.7944  0.6303
 1834SOL     OW 5929   5.862   3.133   3.597  0.0596  0.1182 -0.6064
 1834SOL    HW1 5930   5.850   3.144   3.503 -2.4228 -0.6390 -0.4431
 1834SOL    HW2 5931   5.878   3.039   3.608 -1.4847 -0.1115 -0.1519
 1835SOL     OW 5932   4.897   0.968   3.932  0.0326 -0.2940  0.4221
 1835SOL    HW1 5933   4.920   1.038   3.871  0.7526 -0.4847  0.4722
 1835SOL    HW2 5934   4.855   0.902   3.877 -0.8960  0.2813  0.4171
 1836SOL     OW 5935   4.123   0.092   3.820 -0.0023  0.1030 -0.1799
 1836SOL    HW1 5936   4.081   0.137   3.893 -0.1195  1.4125 -1.0212
 1836SOL    HW2 5937   4.057   0.092   3.750  1.1006  1.5878 -1.2922
 1837SOL     OW 5938   3.945   0.903   5.127 -0.2246 -0.4848 -0.0428
 1837SOL    HW1 5939   3.863   0.900   5.177 -0.9200 -1.3976 -1.1656
 1837SOL    HW2 5940   4.012   0.922   5.192 -1.5446  2.6536  0.5984
 1838SOL     OW 5941   4.547   5.603   4.985  0.2756 -0.0284  0.0385
 1838SOL    HW1 5942   4.530   5.669   4.917  2.2775  0.5122  0.0063
 1838SOL    HW2 5943   4.596   5.534   4.939 -1.0908 -1.2032  0.2584
 1839SOL     OW 5944   5.464   1.423   6.059 -0.0836  0.5734  0.1876
 1839SOL    HW1 5945   5.416   1.462   5.986 -0.0431  1.3796  0.5821
 1839SOL    HW2 5946   5.440   1.330   6.057 -2.0275  1.0184  0.6429
 1840SOL     OW 5947   1.450   0.115   4.502 -0.2857  0.7499 -0.5513
 1840SOL    HW1 5948   1.461   0.055   4.429  1.3329  1.5209 -0.9810
 1840SOL    HW2 5949   1.476   0.064   4.579 -0.1008  0.5165 -0.7664
 1841SOL     OW 5950   4.160   1.057   3.836  0.1970 -0.1294 -0.6474
 1841SOL    HW1 5951   4.131   1.144   3.863  1.2046 -0.1389  0.5872
 1841SOL    HW2 5952   4.097   1.030   3.769 -1.4593  0.6285  0.5271
 1842SOL     OW 5953   5.596   3.333   5.165 -0.3538  0.1210  0.2130
 1842SOL    HW1 5954   5.614   3.376   5.081 -1.0368 -1.0692 -0.5749
 1842SOL    HW2 5955   5.623   3.242   5.151  0.4515  0.1190  1.6208
 1843SOL     OW 5956   6.020   5.897   4.331  0.0403  0.2430 -0.5525
 1843SOL    HW1 5957   6.062   5.876   4.414 -1.6089  1.2900  0.5915
 1843SOL    HW2 5958   5.996   5.989   4.338  0.8475  0.6899 -2.6584
 1844SOL     OW 5959   0.777   4.538   0.693  0.2633 -0.3573 -0.3825
 1844SOL    HW1 5960   0.773   4.554   0.787  0.9806  0.3230 -0.4633
 1844SOL    HW2 5961   0.831   4.609   0.658 -0.1676 -0.4806 -1.3385
 1845SOL     OW 5962   4.507   1.717   3.294  0.8779 -0.1202  0.1100
 1845SOL    HW1 5963   4.595   1.754   3.301  1.1061 -0.7389  0.6234
 1845SOL    HW2 5964   4.450   1.793   3.278  1.0035  0.8560  3.3948
 1846SOL     OW 5965   6.038   0.036   3.134 -0.1742  0.1051  0.1084
 1846SOL    HW1 5966   6.112   0.063   3.080  1.9463 -2.6843  1.3472
 1846SOL    HW2 5967   5.979  -0.009   3.074  1.1807 -1.1966 -0.3252
 1847SOL     OW 5968   5.529   0.541   6.224 -0.2109  0.5745  0.8559
 1847SOL    HW1 5969   5.457   0.479   6.211 -0.3428  1.0842 -1.0709
 1847SOL    HW2 5970   5.550   0.573   6.137  3.0955 -0.3323  1.2046
 1848SOL     OW 5971   6.205   5.965   0.255  0.3637  0.6500 -0.2856
 1848SOL    HW1 5972   6.262   5.955   0.331 -2.3998 -2.7447  1.6486
 1848SOL    HW2 5973   6.122   5.997   0.291 -0.7969 -0.3237 -1.9282
 1849SOL     OW 5974   4.719   1.595   2.895  0.0208 -0.0926 -0.0794
 1849SOL    HW1 5975   4.636   1.634   2.869  1.1395  2.2687 -0.4553
 1849SOL    HW2 5976   4.721   1.604   2.990 -0.1281 -0.0655 -0.0795
 1850SOL     OW 5977   3.994   0.400   2.726 -0.0283 -0.5844 -0.1492
 1850SOL    HW1 5978   3.965   0.375   2.814  1.0679  0.1235  0.4388
 1850SOL    HW2 5979   3.927   0.364   2.668 -1.1867 -0.4273  1.0240
 1851SOL     OW 5980   3.056   1.901   3.866 -0.5434 -0.1758  0.0991
 1851SOL    HW1 5981   3.116   1.958   3.818  0.2701 -1.1561 -0.0828
 1851SOL    HW2 5982   3.035   1.831   3.803 -1.4258 -0.1558  0.3586
 1852SOL     OW 5983   5.491   0.290   0.657 -0.1273 -0.7663 -0.0522
 1852SOL    HW1 5984   5.439   0.218   0.621 -0.7470 -0.2169 -0.2715
 1852SOL    HW2 5985   5.450   0.369   0.621 -0.6498 -0.2075  1.6926
 1853SOL     OW 5986   1.029   3.329   5.735 -0.2170  0.2998 -0.5675
 1853SOL    HW1 5987   1.083   3.402   5.766  0.6534 -0.9769  1.0212
 1853SOL    HW2 5988   1.026   3.268   5.808 -1.5437 -0.9445 -1.6059
 1854SOL     OW 5989   3.103   5.838   2.333 -0.6758 -0.4868  0.1188
 1854SOL    HW1 5990   3.162   5.901   2.374 -0.6544 -0.2830 -0.2168
 1854SOL    HW2 5991   3.111   5.759   2.386 -1.0593 -0.0591  0.8214
 1855SOL     OW 5992   2.235   4.843   1.714 -0.0855  0.0205  0.7901
 1855SOL    HW1 5993   2.161   4.788   1.691  0.5872 -1.0615  1.1562
 1855SOL    HW2 5994   2.312   4.788   1.702  1.0141  1.9471 -2.4326
 1856SOL     OW 5995   4.378   0.209   0.827  0.1729  0.4096  0.1994
 1856SOL    HW1 5996   4.290   0.213   0.788 -0.0239 -0.8323  0.4647
 1856SOL    HW2 5997   4.428   0.154   0.767  0.2668 -0.3220  0.9277
 1857SOL     OW 5998   1.532   6.054   5.915  0.5803  0.3264 -0.1836
 1857SOL    HW1 5999   1.619   6.072   5.950 -0.4082  0.5399  2.3936
 1857SOL    HW2 6000   1.474   6.110   5.966 -1.0501  0.4426 -2.0838
 1858SOL     OW 6001   3.889   0.393   5.486 -0.1166 -0.4011 -0.3898
 1858SOL    HW1 6002   3.840   0.460   5.437  0.4307  0.7700  0.6101
 1858SOL    HW2 6003   3.953   0.443   5.536 -1.4106 -1.3835  2.4585
 1859SOL     OW 6004   2.178   3.747   1.941 -0.1071 -0.4107 -0.0045
 1859SOL    HW1 6005   2.272   3.763   1.945 -0.3647  1.1015  0.5521
 1859SOL    HW2 6006   2.141   3.828   1.907 -1.3885 -0.1809  1.7884
 1860SOL     OW 6007   2.145   2.663   3.237  0.1229  0.4133  0.2705
 1860SOL    HW1 6008   2.159   2.708   3.321  0.0872  0.6206  0.1669
 1860SOL    HW2 6009   2.201   2.710   3.175  0.3777  0.0725  0.2378
 1861SOL     OW 6010   0.131   2.306   5.030 -0.0255  0.5191 -0.3498
 1861SOL    HW1 6011   0.199   2.356   4.985  1.8784 -1.8944 -0.3610
 1861SOL    HW2 6012   0.149   2.319   5.123 -3.0700  4.3019  0.0029
 1862SOL     OW 6013   2.006   5.768   1.443 -0.5252  0.1433 -0.0967
 1862SOL    HW1 6014   1.936   5.807   1.389 -1.7304 -1.9418 -0.1354
 1862SOL    HW2 6015   1.960   5.729   1.517  0.9441  1.3641  1.5401
 1863SOL     OW 6016   2.496   2.769   3.509 -0.5721 -0.5036 -0.3667
 1863SOL    HW1 6017   2.566   2.728   3.459  1.1142  0.8588  0.7746
 1863SOL    HW2 6018   2.463   2.839   3.452  0.3023  0.0601 -0.1975
 1864SOL     OW 6019   4.741   4.808   3.679 -0.3375  0.1333 -0.3826
 1864SOL    HW1 6020   4.709   4.824   3.590  0.7958 -1.6268 -1.1608
 1864SOL    HW2 6021   4.809   4.874   3.692 -1.6910  1.5281 -0.1079
 1865SOL     OW 6022   3.738   4.027   1.044 -0.3151 -0.1892 -0.1691
 1865SOL    HW1 6023   3.787   3.949   1.018 -0.5952 -0.6691  0.7235
 1865SOL    HW2 6024   3.685   4.049   0.968  1.3778  0.4456 -1.2433
 1866SOL     OW 6025   3.831   2.046   1.702  0.5286  0.2514  0.2485
 1866SOL    HW1 6026   3.795   2.124   1.743  1.4225  1.2527 -0.7897
 1866SOL    HW2 6027   3.876   2.079   1.624  2.5660 -1.0725  0.7974
 1867SOL     OW 6028   1.263   3.770   5.454 -0.1967  0.6443 -0.1095
 1867SOL    HW1 6029   1.278   3.684   5.416 -3.2574  0.6146 -1.5247
 1867SOL    HW2 6030   1.329   3.826   5.414 -0.3487 -0.3608 -1.8394
 1868SOL     OW 6031   3.106   3.368   6.071  0.4436  0.5007 -0.1412
 1868SOL    HW1 6032   3.148   3.285   6.048 -1.2945 -0.1276 -1.1647
 1868SOL    HW2 6033   3.012   3.350   6.067  0.0302  2.3410  0.3082
 1869SOL     OW 6034   0.295   0.116   5.181  0.0035 -0.2243 -0.0078
 1869SOL    HW1 6035   0.255   0.129   5.267 -1.0088 -2.9106  0.0418
 1869SOL    HW2 6036   0.240   0.167   5.121  1.0286  2.1056  0.9161
 1870SOL     OW 6037   0.917   4.890   5.657  0.0271 -0.5123 -0.0786
 1870SOL    HW1 6038   0.919   4.900   5.561 -1.9759 -1.3792 -0.2647
 1870SOL    HW2 6039   0.828   4.913   5.681  0.9422  1.2888  1.8399
 1871SOL     OW 6040   6.113   4.632   1.857  0.8105  0.1959 -0.4705
 1871SOL    HW1 6041   6.136   4.646   1.765  1.9143 -0.8744 -0.3960
 1871SOL    HW2 6042   6.162   4.553   1.881  0.5679  0.4880  1.0504
 1872SOL     OW 6043   4.383   5.165   4.173 -0.1767  0.3411  0.1569
 1872SOL    HW1 6044   4.401   5.258   4.157  2.7240 -0.4180 -1.7050
 1872SOL    HW2 6045   4.464   5.120   4.148 -1.4822 -2.7245  0.9777
 1873SOL     OW 6046   2.512   5.507   1.872 -0.3910 -0.1034 -0.5289
 1873SOL    HW1 6047   2.600   5.471   1.862  0.4919  1.5222  0.8536
 1873SOL    HW2 6048   2.454   5.434   1.850  1.2572 -0.9443 -2.5067
 1874SOL     OW 6049   1.024   1.633   1.235 -0.6609  0.1488  0.4758
 1874SOL    HW1 6050   1.004   1.552   1.281  1.0967  0.1530  1.3613
 1874SOL    HW2 6051   1.009   1.702   1.300  0.0227  0.3200  0.4664
 1875SOL     OW 6052   0.917   0.106   3.706 -0.1913  0.3454  0.1106
 1875SOL    HW1 6053   0.900   0.130   3.615 -0.6455  1.1914  0.4084
 1875SOL    HW2 6054   0.875   0.175   3.757 -0.8350 -0.6583  0.9891
 1876SOL     OW 6055   1.793   3.846   0.714  0.0766 -0.0680  0.3004
 1876SOL    HW1 6056   1.719   3.877   0.663  1.5578  2.6129 -0.3880
 1876SOL    HW2 6057   1.866   3.844   0.652  1.1822 -0.0463  1.5506
 1877SOL     OW 6058   5.634   1.531   1.520  0.4268  0.2942 -0.2641
 1877SOL    HW1 6059   5.662   1.457   1.575  0.7099  1.7882  1.7059
 1877SOL    HW2 6060   5.565   1.573   1.570 -1.7273 -0.1775 -2.6239
 1878SOL     OW 6061   5.924   1.235   3.917  0.6750 -0.3066  0.2441
 1878SOL    HW1 6062   5.842   1.249   3.870  2.8343  0.3044 -3.8665
 1878SOL    HW2 6063   5.944   1.142   3.904  0.9562 -0.3008  0.6100
 1879SOL     OW 6064   3.208   4.545   5.145 -0.2618  0.0395  0.3692
 1879SOL    HW1 6065   3.158   4.617   5.108  0.4095  0.2902 -0.0736
 1879SOL    HW2 6066   3.146   4.472   5.150 -0.4302  0.0598 -1.0525
 1880SOL     OW 6067   2.863   1.196   4.889 -0.2335 -0.1279 -0.0033
 1880SOL    HW1 6068   2.850   1.240   4.973 -2.5984  0.0264 -0.3885
 1880SOL    HW2 6069   2.894   1.108   4.913  0.6421  0.4128  0.9297
 1881SOL     OW 6070   1.328   3.235   5.211  0.1365 -0.0771  0.3703
 1881SOL    HW1 6071   1.351   3.142   5.205  0.7322  0.1249 -0.9188
 1881SOL    HW2 6072   1.239   3.240   5.176 -0.2476 -0.2761  1.2986
 1882SOL     OW 6073   5.274   3.999   2.992 -0.1238 -0.4164  0.1996
 1882SOL    HW1 6074   5.319   3.928   2.947  0.0537 -0.0122 -0.2710
 1882SOL    HW2 6075   5.325   4.077   2.971 -0.1393 -0.1885  0.9652
 1883SOL     OW 6076   2.668   1.546   5.846  0.2224  0.7573 -0.4423
 1883SOL    HW1 6077   2.692   1.574   5.935 -0.9023  0.8987 -0.1608
 1883SOL    HW2 6078   2.744   1.498   5.814  1.4496  2.4569 -0.1863
 1884SOL     OW 6079   3.393   2.606   3.698 -0.4384 -0.8625 -0.4978
 1884SOL    HW1 6080   3.462   2.613   3.764  0.2286 -0.6681 -1.2079
 1884SOL    HW2 6081   3.316   2.645   3.740 -0.6394 -2.6732  0.9763
 1885SOL     OW 6082   6.187   0.271   1.950 -0.4056 -0.0893 -0.0844
 1885SOL    HW1 6083   6.275   0.235   1.967 -0.1997 -0.0486 -1.0033
 1885SOL    HW2 6084   6.190   0.359   1.986  0.2658  0.2715 -1.0007
 1886SOL     OW 6085   2.962   5.150   1.767 -0.2847 -0.0175  0.0287
 1886SOL    HW1 6086   2.945   5.056   1.758 -4.2012  0.1205  3.2975
 1886SOL    HW2 6087   2.918   5.189   1.691 -0.3021 -0.7161 -0.3290
 1887SOL     OW 6088   1.134   5.044   5.261 -0.6336  0.0376 -0.5512
 1887SOL    HW1 6089   1.205   4.986   5.288 -1.7403 -1.0240  0.1868
 1887SOL    HW2 6090   1.130   5.034   5.166 -0.0171 -0.1324 -0.5672
 1888SOL     OW 6091   3.913   5.002   3.978  0.1856  0.1361 -0.1145
 1888SOL    HW1 6092   3.940   4.993   4.070 -0.4253  1.8859  0.2826
 1888SOL    HW2 6093   3.983   4.962   3.928  1.8458  1.4781  1.0157
 1889SOL     OW 6094   0.778   0.467   5.240 -0.0907  0.2714 -0.1711
 1889SOL    HW1 6095   0.686   0.444   5.225 -0.4792 -0.1317  2.3841
 1889SOL    HW2 6096   0.783   0.560   5.220 -0.9747  0.2309 -0.6602
 1890SOL     OW 6097   5.232   5.737   2.429  0.6020 -0.1656 -0.0274
 1890SOL    HW1 6098   5.235   5.656   2.481 -1.0150  0.6189  1.3529
 1890SOL    HW2 6099   5.183   5.799   2.483 -0.3872  0.9748 -2.1239
 1891SOL     OW 6100   3.412   1.628   1.113 -0.5357 -0.0717  0.2933
 1891SOL    HW1 6101   3.360   1.587   1.044  0.1980  0.1552 -0.4126
 1891SOL    HW2 6102   3.393   1.721   1.106 -0.1578 -0.0052  0.1306
 1892SOL     OW 6103   1.268   4.778   2.336  0.1142 -0.4565 -0.3337
 1892SOL    HW1 6104   1.362   4.794   2.322  0.1967 -1.4918 -1.0811
 1892SOL    HW2 6105   1.244   4.838   2.407  0.9578  1.0330 -1.2451
 1893SOL     OW 6106   3.494   4.876   4.047 -0.2145  0.4157 -0.3034
 1893SOL    HW1 6107   3.558   4.809   4.023 -0.6774 -0.3431  0.5404
 1893SOL    HW2 6108   3.452   4.899   3.964 -0.7377 -1.0736 -0.4939
 1894SOL     OW 6109   2.308   5.222   2.678 -0.0033 -0.0120  0.3946
 1894SOL    HW1 6110   2.239   5.231   2.743 -2.0933  0.8376 -1.8234
 1894SOL    HW2 6111   2.335   5.312   2.658 -0.6027 -0.1359 -1.0942
 1895SOL     OW 6112   1.748   4.780   2.345  0.5714 -0.8407  0.2762
 1895SOL    HW1 6113   1.695   4.786   2.266 -0.0363  1.6217  0.7669
 1895SOL    HW2 6114   1.684   4.790   2.417  1.4296  0.2484  0.9302
 1896SOL     OW 6115   0.183   0.838   3.978 -0.3430 -0.7691  0.3357
 1896SOL    HW1 6116   0.254   0.824   4.041 -0.2019  0.0397  0.3691
 1896SOL    HW2 6117   0.147   0.924   4.002 -0.3019 -0.4620 -0.6730
 1897SOL     OW 6118   4.342   0.381   3.621  0.0261  0.0801  0.0826
 1897SOL    HW1 6119   4.287   0.333   3.683 -1.0553 -1.2788 -1.8318
 1897SOL    HW2 6120   4.431   0.371   3.654 -0.6164  0.4889  2.0708
 1898SOL     OW 6121   4.718   4.244   5.753  0.9364 -0.3122 -0.0163
 1898SOL    HW1 6122   4.622   4.249   5.752  0.9543  0.2761  0.4679
 1898SOL    HW2 6123   4.740   4.181   5.684  0.1061 -1.9967  1.1806
 1899SOL     OW 6124   3.092   2.008   4.907  0.0251 -0.6237  0.2317
 1899SOL    HW1 6125   3.073   2.098   4.933 -0.9790 -0.7660  0.0180
 1899SOL    HW2 6126   3.162   2.016   4.842 -1.3884  0.1692 -1.2550
 1900SOL     OW 6127   4.943   1.855   3.086  0.3996  0.0911 -0.0276
 1900SOL    HW1 6128   4.978   1.801   3.016 -1.0419  0.1914 -0.8781
 1900SOL    HW2 6129   4.951   1.801   3.165 -0.5602 -1.1907 -0.7675
 1901SOL     OW 6130   3.258   5.100   0.801  0.2051  0.1880 -0.0888
 1901SOL    HW1 6131   3.317   5.117   0.727  1.6403 -1.6403  0.5624
 1901SOL    HW2 6132   3.254   5.005   0.807 -1.6720  0.2743  0.8552
 1902SOL     OW 6133   1.886   4.609   4.370  0.7213  0.2385  0.1986
 1902SOL    HW1 6134   1.804   4.577   4.408  0.9106 -0.1490  0.2920
 1902SOL    HW2 6135   1.895   4.699   4.401 -0.9474  1.1938 -1.8358
 1903SOL     OW 6136   3.037   5.785   0.465  0.2828 -0.1523 -0.1118
 1903SOL    HW1 6137   3.001   5.873   0.478  0.6833 -0.1682  1.3276
 1903SOL    HW2 6138   2.964   5.735   0.430 -0.5375  0.3078  0.8744
 1904SOL     OW 6139   0.455   2.174   6.205  0.2602 -0.2474 -0.2444
 1904SOL    HW1 6140   0.363   2.154   6.222  0.0990 -1.0700 -1.8622
 1904SOL    HW2 6141   0.488   2.209   6.288 -1.0367 -1.6568  0.9280
 1905SOL     OW 6142   6.157   2.623   4.187 -0.1089 -0.2614  0.8387
 1905SOL    HW1 6143   6.106   2.663   4.258  2.4087  0.7210  2.2185
 1905SOL    HW2 6144   6.206   2.696   4.149  0.9012 -1.2847  0.1224
 1906SOL     OW 6145   3.035   1.098   0.705  0.2432  0.2210 -0.0830
 1906SOL    HW1 6146   3.013   1.097   0.798  0.3704  0.6813 -0.0453
 1906SOL    HW2 6147   3.010   1.011   0.674 -1.1293  0.5348  0.0727
 1907SOL     OW 6148   4.127   3.729   5.771  0.0557  0.6066  0.5512
 1907SOL    HW1 6149   4.216   3.714   5.739 -0.3406  0.9910 -0.7978
 1907SOL    HW2 6150   4.120   3.676   5.850  1.2775  0.0745  0.3194
 1908SOL     OW 6151   5.527   5.027   3.491  0.3838 -0.5553 -0.6370
 1908SOL    HW1 6152   5.577   5.094   3.538  0.4525 -0.3205 -1.0417
 1908SOL    HW2 6153   5.539   4.947   3.543 -1.5019  0.1875  1.0991
 1909SOL     OW 6154   1.927   1.625   1.694 -0.2869 -0.5216  0.0021
 1909SOL    HW1 6155   1.952   1.533   1.702  1.3634  0.0149  1.6327
 1909SOL    HW2 6156   1.864   1.639   1.766  1.1861  0.1158  1.2225
 1910SOL     OW 6157   5.491   3.185   0.833 -0.2591 -0.3308 -0.0812
 1910SOL    HW1 6158   5.447   3.129   0.769 -0.0933 -1.0466  0.4161
 1910SOL    HW2 6159   5.429   3.255   0.851 -0.7438 -0.7233 -0.2168
 1911SOL     OW 6160   0.354   1.435   6.036 -0.1059  0.4761  0.0631
 1911SOL    HW1 6161   0.277   1.481   6.004 -1.0307  0.3232  1.9776
 1911SOL    HW2 6162   0.322   1.348   6.061  0.7751  0.2550  0.4854
 1912SOL     OW 6163   5.079   6.170   4.026  0.1287  0.4262 -0.0406
 1912SOL    HW1 6164   5.095   6.235   4.094  1.6475  0.0659 -0.0149
 1912SOL    HW2 6165   4.984   6.157   4.027 -0.1412  2.1459  0.3864
 1913SOL     OW 6166   3.233   2.989   1.211  0.4166  0.4726  0.0360
 1913SOL    HW1 6167   3.285   3.001   1.290  0.7895  0.4649 -0.2052
 1913SOL    HW2 6168   3.274   2.915   1.166  0.1349  0.3998 -0.1051
 1914SOL     OW 6169   5.714   4.268   5.124  0.0875  0.0747  0.5802
 1914SOL    HW1 6170   5.663   4.191   5.097 -1.0618 -0.2412  3.3849
 1914SOL    HW2 6171   5.785   4.232   5.177  1.4046  0.7801 -0.6271
 1915SOL     OW 6172   4.049   3.962   5.926 -0.1999 -0.1888  0.1885
 1915SOL    HW1 6173   4.121   3.908   5.892  1.7680  1.3450  1.6420
 1915SOL    HW2 6174   4.035   3.928   6.015 -1.8300 -0.9178 -0.3021
 1916SOL     OW 6175   4.172   0.805   4.391 -0.9268  0.2534 -0.1976
 1916SOL    HW1 6176   4.266   0.798   4.371 -0.5115 -1.1776  1.8208
 1916SOL    HW2 6177   4.128   0.797   4.307  0.7393 -0.7818 -1.0282
 1917SOL     OW 6178   0.656   4.068   1.231  0.0069 -0.3688 -0.1670
 1917SOL    HW1 6179   0.725   4.093   1.170  0.0772 -0.2117 -0.0235
 1917SOL    HW2 6180   0.594   4.017   1.178  0.3052 -0.6320 -0.2622
 1918SOL     OW 6181   4.143   2.607   3.348  0.3522 -0.1071 -0.0443
 1918SOL    HW1 6182   4.090   2.670   3.397  1.7780 -0.2103  1.7503
 1918SOL    HW2 6183   4.182   2.551   3.416  2.4994 -0.2119 -1.2587
 1919SOL     OW 6184   4.488   3.425   1.764  0.1049  0.1420  0.1758
 1919SOL    HW1 6185   4.530   3.343   1.788 -0.6028 -0.1521  0.4587
 1919SOL    HW2 6186   4.557   3.477   1.722  0.4118 -0.8111 -0.5160
 1920SOL     OW 6187   3.008   2.913   3.579  0.4139  0.6675  0.4222
 1920SOL    HW1 6188   3.101   2.894   3.597  0.1494 -0.3726  0.7447
 1920SOL    HW2 6189   3.010   2.966   3.499  1.2546  0.1630  0.0966
 1921SOL     OW 6190   2.081   3.397   0.315  0.2806 -0.0470  0.6505
 1921SOL    HW1 6191   2.157   3.446   0.283  1.1857 -1.2908  0.8519
 1921SOL    HW2 6192   2.058   3.440   0.397  0.9098  0.2065  0.7000
 1922SOL     OW 6193   5.133   1.686   1.735 -0.2055 -0.6362  0.3628
 1922SOL    HW1 6194   5.216   1.643   1.756  0.0426 -0.2614  0.1506
 1922SOL    HW2 6195   5.110   1.654   1.648  0.1200 -0.1415  0.0849
 1923SOL     OW 6196   4.541   3.986   2.557 -0.1139 -0.2554 -0.6236
 1923SOL    HW1 6197   4.559   4.077   2.534 -0.2865 -0.1688 -0.4177
 1923SOL    HW2 6198   4.489   3.991   2.637  0.2514 -0.5442 -0.3617
 1924SOL     OW 6199   2.248   5.419   3.765  0.7260  0.1216 -0.4196
 1924SOL    HW1 6200   2.204   5.462   3.692  2.1419  1.2719 -0.6502
 1924SOL    HW2 6201   2.274   5.334   3.730 -1.9730 -0.9611 -0.0090
 1925SOL     OW 6202   2.430   2.770   4.612 -0.0821  0.4174 -0.0886
 1925SOL    HW1 6203   2.500   2.834   4.597  0.6953 -0.6534 -1.2628
 1925SOL    HW2 6204   2.351   2.812   4.579  0.5783  0.4553 -1.7177
 1926SOL     OW 6205   4.434   4.021   0.335  0.0506 -0.1135  0.4216
 1926SOL    HW1 6206   4.458   3.968   0.259 -1.5078 -1.4092  0.7572
 1926SOL    HW2 6207   4.448   4.111   0.307 -0.2072 -0.5697 -1.3112
 1927SOL     OW 6208   4.682   5.661   5.230  0.3100  0.2971  0.6700
 1927SOL    HW1 6209   4.612   5.636   5.290  1.1629  1.0524  2.0320
 1927SOL    HW2 6210   4.654   5.628   5.145 -1.2742 -0.1811  1.3454
 1928SOL     OW 6211   6.084   1.419   1.905 -0.6408  0.2447  0.2271
 1928SOL    HW1 6212   6.097   1.331   1.868 -0.8621 -0.3985  1.5974
 1928SOL    HW2 6213   6.152   1.472   1.864  0.4955 -0.9352  0.5012
 1929SOL     OW 6214   1.900   2.289   4.978 -0.3103  0.2553  0.3848
 1929SOL    HW1 6215   1.844   2.229   5.027  2.6073 -1.9955  1.2386
 1929SOL    HW2 6216   1.851   2.371   4.975 -2.9677 -1.1265  2.2797
 1930SOL     OW 6217   4.955   5.852   2.286 -0.0441 -0.1299  0.2852
 1930SOL    HW1 6218   5.023   5.920   2.286 -0.9057  0.8114  2.0394
 1930SOL    HW2 6219   4.996   5.777   2.244  1.3314  1.1100 -0.6809
 1931SOL     OW 6220   5.137   0.319   2.446 -0.2417 -0.2034  0.1084
 1931SOL    HW1 6221   5.108   0.304   2.356 -0.6568  0.7172  0.0791
 1931SOL    HW2 6222   5.061   0.298   2.500 -0.6161  1.0428  0.1073
 1932SOL     OW 6223   1.376   3.263   2.645 -0.3196 -0.0957 -0.6264
 1932SOL    HW1 6224   1.382   3.298   2.556 -3.1462 -0.4401 -1.0359
 1932SOL    HW2 6225   1.330   3.331   2.694 -2.2437 -1.4729 -0.4315
 1933SOL     OW 6226   4.237   0.969   0.386 -0.5017  0.1163  0.1594
 1933SOL    HW1 6227   4.318   0.966   0.336 -1.0000 -1.3141 -0.6259
 1933SOL    HW2 6228   4.172   1.002   0.324 -0.8232 -0.2077  0.3181
 1934SOL     OW 6229   3.381   4.957   2.870 -0.2935 -0.8121  0.3672
 1934SOL    HW1 6230   3.377   4.869   2.908 -1.4206 -1.3495 -0.9087
 1934SOL    HW2 6231   3.459   4.997   2.909 -0.6471 -1.7898  2.1863
 1935SOL     OW 6232   5.229   0.104   0.765  0.4859 -0.4031  0.3229
 1935SOL    HW1 6233   5.137   0.085   0.779  0.5847 -0.5338  0.7827
 1935SOL    HW2 6234   5.247   0.178   0.822  0.7453 -0.5757  0.4638
 1936SOL     OW 6235   3.801   5.067   0.354  0.3273 -0.5081  0.0895
 1936SOL    HW1 6236   3.799   5.010   0.277  3.4432  1.8936 -2.0063
 1936SOL    HW2 6237   3.728   5.128   0.340 -0.7479 -1.6340  0.5024
 1937SOL     OW 6238   6.119   4.559   1.381 -0.1703  0.4902 -0.1796
 1937SOL    HW1 6239   6.142   4.638   1.430  0.8923  0.4442 -0.5790
 1937SOL    HW2 6240   6.130   4.583   1.289  1.1293 -0.3832 -0.2879
 1938SOL     OW 6241   4.693   4.546   0.405 -0.0734  0.0187  0.0952
 1938SOL    HW1 6242   4.656   4.514   0.323  0.6362  0.0496 -0.2452
 1938SOL    HW2 6243   4.617   4.579   0.454 -0.4663  0.3002 -0.6786
 1939SOL     OW 6244   5.561   5.083   1.980 -0.0445  0.0787 -0.0352
 1939SOL    HW1 6245   5.514   5.122   2.053 -0.9628 -2.0841  0.6055
 1939SOL    HW2 6246   5.645   5.054   2.017  0.2242  0.5263 -0.2776
 1940SOL     OW 6247   5.433   3.690   1.826  0.4260  0.1849 -0.6229
 1940SOL    HW1 6248   5.415   3.752   1.897  0.0357 -1.0294  0.3876
 1940SOL    HW2 6249   5.380   3.613   1.848 -0.4570  0.1285 -2.7744
 1941SOL     OW 6250   1.857   3.765   5.176  0.2821  0.5531 -0.1595
 1941SOL    HW1 6251   1.934   3.785   5.122  0.6788 -1.6824 -0.5260
 1941SOL    HW2 6252   1.879   3.683   5.219 -0.4954  1.6633  2.5867
 1942SOL     OW 6253   1.750   0.241   3.422 -0.4190 -0.2464  0.0844
 1942SOL    HW1 6254   1.684   0.304   3.450 -0.8201 -0.9762  0.8111
 1942SOL    HW2 6255   1.817   0.244   3.490  0.1315  0.2318 -0.4691
 1943SOL     OW 6256   3.872   0.588   2.220 -0.6367 -0.6198  0.1280
 1943SOL    HW1 6257   3.825   0.617   2.299  0.0737 -0.2559  0.4215
 1943SOL    HW2 6258   3.810   0.529   2.177 -0.0658 -3.1025  2.4104
 1944SOL     OW 6259   3.647   1.481   0.550 -0.0944  0.3071 -0.4240
 1944SOL    HW1 6260   3.731   1.467   0.594 -1.1287 -1.9294  1.0178
 1944SOL    HW2 6261   3.654   1.433   0.468 -0.0110  0.0298 -0.2537
 1945SOL     OW 6262   5.235   1.308   0.509  0.0075  0.0184 -0.0537
 1945SOL    HW1 6263   5.293   1.278   0.440  0.4025 -0.0676  0.3093
 1945SOL    HW2 6264   5.284   1.378   0.553 -0.4911  0.5023 -0.2516
 1946SOL     OW 6265   3.586   1.011   1.462 -0.1872  0.2086 -0.1370
 1946SOL    HW1 6266   3.587   0.975   1.550 -0.7969  1.1122  0.2496
 1946SOL    HW2 6267   3.580   0.934   1.405  0.2193 -0.3767  0.5997
 1947SOL     OW 6268   2.701   4.051   3.478  0.0257 -0.1045  0.2868
 1947SOL    HW1 6269   2.647   4.103   3.418 -0.3478  0.2015  0.8821
 1947SOL    HW2 6270   2.651   3.970   3.490  0.5582 -0.5687 -0.5601
 1948SOL     OW 6271   2.646   2.910   1.201 -0.8651  0.0891 -0.1294
 1948SOL    HW1 6272   2.718   2.922   1.262  0.3528  2.1910 -1.8653
 1948SOL    HW2 6273   2.665   2.826   1.158  0.6865  0.7039 -0.7040
 1949SOL     OW 6274   4.998   2.944   5.516  0.2797 -0.4033  0.6035
 1949SOL    HW1 6275   4.969   2.922   5.427  2.5392 -0.5526 -0.1628
 1949SOL    HW2 6276   4.961   2.875   5.571 -1.3384 -0.1873 -0.1658
 1950SOL     OW 6277   2.891   4.517   4.418 -0.2042 -0.2148  0.0987
 1950SOL    HW1 6278   2.984   4.509   4.396 -0.1015  0.3476  0.3266
 1950SOL    HW2 6279   2.870   4.434   4.461 -0.0121 -0.6830 -0.6758
 1951SOL     OW 6280   5.468   3.138   4.705 -0.0749  0.1662  0.0755
 1951SOL    HW1 6281   5.540   3.185   4.748 -1.0550  0.9920  0.8645
 1951SOL    HW2 6282   5.404   3.206   4.685 -1.2325 -0.7366  0.6230
 1952SOL     OW 6283   2.039   6.145   1.913 -0.0694  0.1290  0.0750
 1952SOL    HW1 6284   1.951   6.145   1.874  0.3274  1.6130 -0.9417
 1952SOL    HW2 6285   2.092   6.095   1.851 -0.0339 -0.1295  0.3098
 1953SOL     OW 6286   3.937   5.232   2.368 -0.6446  0.5835  0.1230
 1953SOL    HW1 6287   3.847   5.205   2.387 -0.3497 -0.0588  0.6061
 1953SOL    HW2 6288   3.969   5.271   2.449 -0.7127  1.4650 -0.2554
 1954SOL     OW 6289   4.955   5.389   5.632 -0.1212  0.5158  0.3882
 1954SOL    HW1 6290   5.010   5.369   5.707  0.1417 -1.9470 -0.3543
 1954SOL    HW2 6291   4.900   5.311   5.622 -1.9424  1.8418 -0.4539
 1955SOL     OW 6292   2.873   4.905   0.162  0.2545  0.2775  1.1984
 1955SOL    HW1 6293   2.815   4.847   0.113  1.8571 -1.2295  0.9815
 1955SOL    HW2 6294   2.867   4.989   0.117 -0.1151 -0.4398 -0.1354
 1956SOL     OW 6295   2.111   4.994   5.074 -0.0068 -0.6023  0.0509
 1956SOL    HW1 6296   2.066   4.977   4.991 -1.7316  1.5757  0.4371
 1956SOL    HW2 6297   2.099   4.913   5.124 -0.6335 -1.2593 -1.1156
 1957SOL     OW 6298   2.686   4.482   2.109  0.3968  0.3931 -0.0441
 1957SOL    HW1 6299   2.714   4.488   2.200  3.7718 -1.8042 -0.7631
 1957SOL    HW2 6300   2.737   4.548   2.063  0.7770 -0.3494 -0.7106
 1958SOL     OW 6301   3.314   0.337   6.100 -0.1659  0.2096  0.1960
 1958SOL    HW1 6302   3.312   0.282   6.178 -0.6550 -0.3846 -0.2203
 1958SOL    HW2 6303   3.226   0.373   6.094 -0.1803  0.1161 -0.1697
 1959SOL     OW 6304   2.782   4.349   5.364  0.0145  0.7374 -0.4073
 1959SOL    HW1 6305   2.735   4.402   5.299 -0.1268  1.1130 -0.0013
 1959SOL    HW2 6306   2.720   4.280   5.388 -0.1860  0.9884 -0.1835
 1960SOL     OW 6307   3.805   1.100   2.520 -0.0445  0.5794  0.1027
 1960SOL    HW1 6308   3.794   1.193   2.541 -0.6737  0.8773 -1.4632
 1960SOL    HW2 6309   3.724   1.059   2.550 -1.0702  1.0535 -1.8405
 1961SOL     OW 6310   1.505   3.369   0.753  0.5026  0.1613 -0.1773
 1961SOL    HW1 6311   1.593   3.390   0.783  1.0961 -0.3448 -1.4965
 1961SOL    HW2 6312   1.518   3.298   0.690 -0.8232  0.2614 -0.5838
 1962SOL     OW 6313   1.962   2.840   1.998  0.3530  0.4277 -0.5448
 1962SOL    HW1 6314   2.013   2.867   2.074 -1.4228 -0.8905  1.2021
 1962SOL    HW2 6315   1.872   2.831   2.031 -0.3368 -0.9500 -2.6035
 1963SOL     OW 6316   2.541   0.626   4.468  0.0881  0.0200 -0.1277
 1963SOL    HW1 6317   2.559   0.570   4.543 -0.4660  0.1871  0.1338
 1963SOL    HW2 6318   2.600   0.701   4.479 -0.1523  0.1544  0.2675
 1964SOL     OW 6319   0.432   3.181   4.297 -0.2258  0.9352  0.0861
 1964SOL    HW1 6320   0.354   3.236   4.285  1.0788  3.3222  1.6146
 1964SOL    HW2 6321   0.407   3.118   4.364 -2.3510 -1.8036 -2.9803
 1965SOL     OW 6322   4.570   0.639   4.754 -0.0307  0.1050  0.0036
 1965SOL    HW1 6323   4.650   0.599   4.789  0.0668  1.1786  1.0529
 1965SOL    HW2 6324   4.527   0.568   4.707  0.7865 -0.8872  0.7117
 1966SOL     OW 6325   1.543   4.981   3.094  0.6566  0.1852  0.0738
 1966SOL    HW1 6326   1.593   4.900   3.102  0.6803  0.0771 -1.0225
 1966SOL    HW2 6327   1.598   5.038   3.041 -0.7355 -0.2803 -1.9904
 1967SOL     OW 6328   4.051   5.034   0.895 -0.2877 -0.4046  0.0605
 1967SOL    HW1 6329   4.003   5.011   0.975  0.3212  0.3556  0.6677
 1967SOL    HW2 6330   4.045   5.130   0.890 -0.3083 -0.4423 -0.8086
 1968SOL     OW 6331   0.174   0.615   5.410 -0.2314  0.3283  0.0806
 1968SOL    HW1 6332   0.246   0.555   5.392  1.0035  1.3395  1.4265
 1968SOL    HW2 6333   0.216   0.699   5.426 -1.7915  1.1694 -0.0003
 1969SOL     OW 6334   1.929   5.492   4.628 -0.0087  0.0400 -0.0657
 1969SOL    HW1 6335   1.983   5.565   4.597  1.5858 -0.0291  2.2582
 1969SOL    HW2 6336   1.965   5.415   4.583 -0.2290  0.4077 -0.8706
 1970SOL     OW 6337   3.239   0.720   3.978  0.1794  0.2585  0.2574
 1970SOL    HW1 6338   3.171   0.739   3.914 -0.1411 -2.0076 -0.1379
 1970SOL    HW2 6339   3.192   0.692   4.056  0.6210 -0.6470  0.2103
 1971SOL     OW 6340   5.726   5.184   3.575  0.0411 -0.6053  0.0286
 1971SOL    HW1 6341   5.818   5.204   3.596 -0.4165  0.0891  1.5314
 1971SOL    HW2 6342   5.704   5.245   3.505  0.3303  0.2627  0.6641
 1972SOL     OW 6343   4.370   1.035   5.169  0.0644 -0.3293 -0.0836
 1972SOL    HW1 6344   4.425   1.079   5.103 -0.2128 -1.0014 -0.7842
 1972SOL    HW2 6345   4.391   0.942   5.158 -1.3808 -0.6211 -0.5384
 1973SOL     OW 6346   2.636   2.719   2.395  0.0087 -0.6499 -0.0435
 1973SOL    HW1 6347   2.590   2.664   2.458 -0.5906  0.1353  0.2272
 1973SOL    HW2 6348   2.589   2.803   2.398  0.7342 -0.2090 -0.6316
 1974SOL     OW 6349   4.920   4.056   0.838  0.5680  0.5428  0.1230
 1974SOL    HW1 6350   4.882   4.077   0.752  0.6394  2.4643  0.5134
 1974SOL    HW2 6351   4.848   4.069   0.900  0.9364  0.7672  0.5085
 1975SOL     OW 6352   2.531   5.051   4.456  0.4992 -0.1647  0.3825
 1975SOL    HW1 6353   2.566   5.116   4.517 -0.6358  0.4548  0.4157
 1975SOL    HW2 6354   2.450   5.091   4.424 -0.3270 -1.6503  0.5456
 1976SOL     OW 6355   2.598   5.439   1.142 -0.6002  0.0190  0.3500
 1976SOL    HW1 6356   2.614   5.448   1.048  1.0489 -0.6339  0.5296
 1976SOL    HW2 6357   2.639   5.355   1.165 -0.5463  0.4013  1.7338
 1977SOL     OW 6358   3.555   0.064   0.006  0.2160 -0.2267 -0.0505
 1977SOL    HW1 6359   3.547  -0.019   0.053  3.0597  0.7872  2.5829
 1977SOL    HW2 6360   3.497   0.124   0.053  0.3694 -0.0446 -0.0925
 1978SOL     OW 6361   5.718   1.459   4.401  0.2565 -0.1016  0.2950
 1978SOL    HW1 6362   5.733   1.400   4.476 -0.5193 -1.6199 -0.6952
 1978SOL    HW2 6363   5.739   1.406   4.325 -0.2701  0.9899 -0.6351
 1979SOL     OW 6364   4.142   3.198   2.551  0.3423 -0.2370 -0.1718
 1979SOL    HW1 6365   4.121   3.150   2.472  0.0015 -1.1749  0.4683
 1979SOL    HW2 6366   4.140   3.290   2.525  1.3806 -0.5602 -1.5080
 1980SOL     OW 6367   4.966   1.439   0.496  0.2975 -0.0875  0.1919
 1980SOL    HW1 6368   5.049   1.392   0.503  0.0303 -0.4570  0.9424
 1980SOL    HW2 6369   4.900   1.371   0.486  0.2960  0.2337 -3.4546
 1981SOL     OW 6370   1.635   5.221   1.280 -0.3986 -0.4465 -0.0130
 1981SOL    HW1 6371   1.556   5.168   1.274 -0.3576 -0.4396 -0.6858
 1981SOL    HW2 6372   1.699   5.165   1.324 -1.4044  0.3012  2.5706
 1982SOL     OW 6373   0.595   5.927   5.608 -0.2021  0.0337 -0.0987
 1982SOL    HW1 6374   0.576   5.836   5.587 -1.1543  0.1694  0.0930
 1982SOL    HW2 6375   0.688   5.928   5.631 -0.2200 -0.9193  0.0618
 1983SOL     OW 6376   4.862   2.892   3.767 -0.2702 -0.5923  0.6021
 1983SOL    HW1 6377   4.804   2.947   3.715 -1.4754 -1.8062  0.5983
 1983SOL    HW2 6378   4.860   2.807   3.723  0.0170 -1.1745  1.6781
 1984SOL     OW 6379   0.937   0.098   4.968  0.5467  0.3478  0.0055
 1984SOL    HW1 6380   0.868   0.085   4.902  0.0205  0.0009  0.6072
 1984SOL    HW2 6381   0.971   0.185   4.950 -1.0412  1.1175  0.5859
 1985SOL     OW 6382   1.698   5.680   6.019  0.1217  0.4457  0.3568
 1985SOL    HW1 6383   1.654   5.749   5.968  1.8501  1.2374 -0.1372
 1985SOL    HW2 6384   1.735   5.726   6.094  0.1908 -0.1899  0.7163
 1986SOL     OW 6385   1.612   5.149   5.977  0.6361 -0.1254 -0.1882
 1986SOL    HW1 6386   1.543   5.216   5.974  1.1427  0.4401  0.3557
 1986SOL    HW2 6387   1.693   5.199   5.967  1.1288 -0.4377  1.8353
 1987SOL     OW 6388   2.932   4.932   4.075 -0.1759 -0.1015 -0.0303
 1987SOL    HW1 6389   2.852   4.965   4.115  0.0279 -0.6072  0.8139
 1987SOL    HW2 6390   3.001   4.958   4.136 -0.0910 -2.7631  1.1297
 1988SOL     OW 6391   1.860   3.236   3.763  0.3673  0.0093  0.0503
 1988SOL    HW1 6392   1.790   3.267   3.821 -0.5994  0.1170 -1.1384
 1988SOL    HW2 6393   1.820   3.164   3.713  2.0879 -2.2225  1.6458
 1989SOL     OW 6394   5.128   0.860   5.875  0.5995  0.2135  0.1130
 1989SOL    HW1 6395   5.101   0.876   5.965 -0.3485  0.7865 -0.2599
 1989SOL    HW2 6396   5.219   0.887   5.872  0.5325  0.5360  0.8103
 1990SOL     OW 6397   2.299   2.552   4.707 -0.0621 -0.3952 -0.0792
 1990SOL    HW1 6398   2.344   2.635   4.692  1.0341 -0.5756  1.8828
 1990SOL    HW2 6399   2.241   2.542   4.632  0.4209  1.7096 -0.7900
 1991SOL     OW 6400   0.293   0.059   0.717 -1.0185  0.2617 -0.4028
 1991SOL    HW1 6401   0.280   0.151   0.740 -3.1156  0.2004 -1.1188
 1991SOL    HW2 6402   0.248   0.011   0.787 -0.5812 -0.1961 -0.4328
 1992SOL     OW 6403   0.732   4.364   4.073 -0.0865 -0.1373 -0.1283
 1992SOL    HW1 6404   0.813   4.314   4.074 -0.3388 -0.7311 -2.5362
 1992SOL    HW2 6405   0.675   4.316   4.012 -1.2562  1.6800 -0.5504
 1993SOL     OW 6406   0.846   1.981   1.212 -0.0438 -0.2676  0.4444
 1993SOL    HW1 6407   0.759   1.943   1.216 -1.3235  2.5300  2.8030
 1993SOL    HW2 6408   0.839   2.052   1.149  0.0832  0.8442  1.6392
 1994SOL     OW 6409   2.666   3.374   1.995 -0.0859 -0.4639  0.3645
 1994SOL    HW1 6410   2.643   3.337   1.910 -1.1959  1.5532 -0.2908
 1994SOL    HW2 6411   2.588   3.359   2.050 -0.2285  0.1326  0.3368
 1995SOL     OW 6412   2.167   1.355   1.454 -0.3083 -0.2320 -0.0901
 1995SOL    HW1 6413   2.097   1.290   1.449  0.9413 -1.5418 -1.6788
 1995SOL    HW2 6414   2.176   1.373   1.548 -2.4327 -0.3537  0.1821
 1996SOL     OW 6415   3.444   1.088   5.287 -0.2805  0.3477 -0.4878
 1996SOL    HW1 6416   3.425   1.012   5.342 -0.7310  1.1970  0.5696
 1996SOL    HW2 6417   3.539   1.085   5.274  0.3364  1.6117  2.7164
 1997SOL     OW 6418   5.027   3.736   0.189  0.0062 -0.1716 -0.0126
 1997SOL    HW1 6419   4.987   3.700   0.269 -0.7761  1.9742  0.6244
 1997SOL    HW2 6420   5.082   3.665   0.156 -0.1901 -1.3643  2.0487
 1998SOL     OW 6421   4.989   5.757   4.718  0.4762 -0.0380  0.0130
 1998SOL    HW1 6422   4.940   5.837   4.699 -2.2384 -1.0360  2.0156
 1998SOL    HW2 6423   4.994   5.755   4.814  1.5083 -1.6976 -0.0437
 1999SOL     OW 6424   4.016   3.598   3.240 -0.1106  0.0590 -0.1296
 1999SOL    HW1 6425   3.991   3.506   3.242 -0.4656  0.1581  0.0482
 1999SOL    HW2 6426   3.957   3.638   3.177  0.6636 -0.0100 -0.9266
 2000SOL     OW 6427   0.113   1.083   5.492  0.2425 -1.0572  0.0112
 2000SOL    HW1 6428   0.111   1.010   5.430 -1.0342 -0.1547 -1.0944
 2000SOL    HW2 6429   0.122   1.042   5.578 -2.8812 -2.7833 -0.3169
 2001SOL     OW 6430   2.037   2.311   3.555 -0.0862  0.6960 -0.5720
 2001SOL    HW1 6431   2.055   2.403   3.575 -0.0398  1.1487 -2.4743
 2001SOL    HW2 6432   1.990   2.314   3.472 -0.7642 -0.9767 -0.2787
 2002SOL     OW 6433   0.309   2.301   4.558 -0.3614  0.2267 -0.1440
 2002SOL    HW1 6434   0.339   2.387   4.587 -0.9774  0.9126 -1.4675
 2002SOL    HW2 6435   0.327   2.243   4.632  0.5457  1.3824  0.5728
 2003SOL     OW 6436   3.724   3.643   2.586  0.3891 -0.4508 -0.0595
 2003SOL    HW1 6437   3.717   3.645   2.491 -3.0793  3.5638 -0.0139
 2003SOL    HW2 6438   3.787   3.712   2.607  0.8151 -1.0223  0.6164
 2004SOL     OW 6439   0.575   4.929   5.345 -0.4500 -0.1559  0.1254
 2004SOL    HW1 6440   0.604   4.877   5.420 -0.4612  0.4051  0.5237
 2004SOL    HW2 6441   0.483   4.948   5.364 -0.4801 -0.1029 -0.0795
 2005SOL     OW 6442   4.268   1.841   1.060 -0.0560  0.6282 -0.7371
 2005SOL    HW1 6443   4.221   1.810   1.137  0.8904 -0.2034 -0.4691
 2005SOL    HW2 6444   4.318   1.917   1.090 -0.9942  1.3553 -0.9616
 2006SOL     OW 6445   0.077   5.446   2.840  0.0435  0.3299  0.1963
 2006SOL    HW1 6446  -0.005   5.431   2.887  0.1702  0.1052  0.3475
 2006SOL    HW2 6447   0.105   5.533   2.867 -0.4453  0.6446 -0.3076
 2007SOL     OW 6448   2.382   3.439   5.945  0.1985 -0.4223  0.0038
 2007SOL    HW1 6449   2.290   3.416   5.931 -0.1966  0.4358  1.0079
 2007SOL    HW2 6450   2.400   3.507   5.879 -0.7159  1.3307  1.4451
 2008SOL     OW 6451   1.841   5.342   2.297  0.3790 -0.4196 -0.0340
 2008SOL    HW1 6452   1.874   5.389   2.374 -2.3758 -0.2786  1.1608
 2008SOL    HW2 6453   1.827   5.410   2.232  0.9019 -0.2753 -0.0047
 2009SOL     OW 6454   1.557   3.944   1.759  0.2183 -0.0981 -0.1115
 2009SOL    HW1 6455   1.491   3.875   1.763 -0.9122  0.9091 -0.8303
 2009SOL    HW2 6456   1.626   3.908   1.703  1.2867 -1.9185  2.1529
 2010SOL     OW 6457   5.337   4.421   3.903 -0.0865 -0.0667  0.3344
 2010SOL    HW1 6458   5.256   4.433   3.952 -0.5653  2.1209 -0.8629
 2010SOL    HW2 6459   5.406   4.432   3.969 -0.7237 -0.2239  1.0502
 2011SOL     OW 6460   5.811   5.911   3.036 -0.3145 -0.0313 -0.0095
 2011SOL    HW1 6461   5.830   5.822   3.067 -2.6500 -0.4655  0.3243
 2011SOL    HW2 6462   5.877   5.966   3.080 -0.6753 -1.2215  2.1776
 2012SOL     OW 6463   4.591   5.029   1.412 -0.4291 -0.1567  0.3617
 2012SOL    HW1 6464   4.614   4.957   1.470 -2.3772  0.7498  2.4381
 2012SOL    HW2 6465   4.628   5.107   1.454  0.2321  0.2846 -0.9653
 2013SOL     OW 6466   0.566   4.844   1.805  0.2090  0.5824  0.4511
 2013SOL    HW1 6467   0.547   4.751   1.793  0.9336  0.3766  0.8123
 2013SOL    HW2 6468   0.660   4.852   1.786  0.0553  1.3188 -0.0184
 2014SOL     OW 6469   2.595   4.809   0.666 -0.0499  0.2255 -0.0521
 2014SOL    HW1 6470   2.556   4.781   0.749 -0.3381 -0.0177 -0.2683
 2014SOL    HW2 6471   2.664   4.871   0.692  1.0471 -1.1614  0.4626
 2015SOL     OW 6472   2.487   4.647   5.347 -0.2256 -0.0177  0.2139
 2015SOL    HW1 6473   2.466   4.557   5.320  2.3641 -1.5356  2.7047
 2015SOL    HW2 6474   2.439   4.659   5.429 -0.1468  0.7068  0.1564
 2016SOL     OW 6475   2.604   1.990   2.210 -0.1681  0.4546  0.4117
 2016SOL    HW1 6476   2.539   1.950   2.267 -0.1577  0.2113  0.2525
 2016SOL    HW2 6477   2.619   1.926   2.140 -0.0245  0.6597  0.2502
 2017SOL     OW 6478   4.342   1.050   1.897 -0.3648  0.2052 -0.1589
 2017SOL    HW1 6479   4.268   1.007   1.853  0.0486 -0.3916 -0.2870
 2017SOL    HW2 6480   4.356   0.997   1.976 -0.2476  0.4777  0.0030
 2018SOL     OW 6481   3.463   2.174   1.551 -0.3068 -0.2643  0.0493
 2018SOL    HW1 6482   3.393   2.239   1.556  1.1122  1.2927  0.8696
 2018SOL    HW2 6483   3.501   2.173   1.639  0.7113 -1.0276 -0.3819
 2019SOL     OW 6484   0.771   5.421   0.733  0.0086  0.0621  0.5595
 2019SOL    HW1 6485   0.797   5.376   0.814  0.9908  0.0790  0.2693
 2019SOL    HW2 6486   0.764   5.350   0.668 -1.4130 -0.0357  0.7909
 2020SOL     OW 6487   3.790   0.403   1.096  0.2327 -0.0746  0.4984
 2020SOL    HW1 6488   3.751   0.463   1.033  0.0260 -0.4234  0.2882
 2020SOL    HW2 6489   3.725   0.333   1.106  0.0147  0.2578  1.5229
 2021SOL     OW 6490   3.057   4.175   1.548  0.5242  0.7094  0.3727
 2021SOL    HW1 6491   3.118   4.119   1.597 -0.1803 -0.9865 -0.6254
 2021SOL    HW2 6492   3.094   4.263   1.558  1.8725  0.0544  1.6859
 2022SOL     OW 6493   4.775   3.359   5.870  0.2202  0.3137 -0.5053
 2022SOL    HW1 6494   4.770   3.314   5.786  0.2638 -0.3028 -0.1847
 2022SOL    HW2 6495   4.824   3.299   5.927 -0.5992  0.2979  0.2171
 2023SOL     OW 6496   2.112   3.143   3.771  0.0124 -0.7571 -0.1457
 2023SOL    HW1 6497   2.143   3.171   3.685  1.2704  0.5805  0.6997
 2023SOL    HW2 6498   2.021   3.173   3.775 -0.1929 -1.1823 -1.1297
 2024SOL     OW 6499   4.483   5.158   2.158  0.3357  0.1099 -0.4808
 2024SOL    HW1 6500   4.415   5.217   2.192 -0.3390  0.1426 -1.8156
 2024SOL    HW2 6501   4.471   5.160   2.064  0.4897 -1.9568 -0.5855
 2025SOL     OW 6502   5.245   5.607   0.702 -0.7052  0.0489 -0.1002
 2025SOL    HW1 6503   5.201   5.689   0.681  1.7639  1.3581 -0.4588
 2025SOL    HW2 6504   5.236   5.598   0.797  0.7847  1.8826  0.2638
 2026SOL     OW 6505   3.180   0.714   0.184 -0.1690  0.6466 -0.1001
 2026SOL    HW1 6506   3.131   0.641   0.148  0.8100 -0.2696  0.3675
 2026SOL    HW2 6507   3.270   0.700   0.154 -0.0199  1.8315 -0.2583
 2027SOL     OW 6508   5.534   0.594   2.480  0.2578  0.2134 -0.3273
 2027SOL    HW1 6509   5.458   0.545   2.510  0.2707  0.3609 -0.0438
 2027SOL    HW2 6510   5.579   0.535   2.420  0.2943 -0.1385  0.0393
 2028SOL     OW 6511   2.466   3.592   0.464  0.2900 -0.0944  0.5325
 2028SOL    HW1 6512   2.465   3.597   0.369  0.1936 -1.4760  0.4421
 2028SOL    HW2 6513   2.559   3.585   0.487  0.2837 -0.2387  0.5123
 2029SOL     OW 6514   4.015   5.651   0.442  0.3867  0.5364 -0.3983
 2029SOL    HW1 6515   3.935   5.623   0.486 -0.1160  1.2993 -0.8033
 2029SOL    HW2 6516   4.075   5.672   0.513 -0.0610  0.7613 -0.0794
 2030SOL     OW 6517   3.740   4.063   3.048 -0.1725 -0.2253  0.2488
 2030SOL    HW1 6518   3.832   4.079   3.072  0.1070 -2.4840  0.8900
 2030SOL    HW2 6519   3.690   4.104   3.118  0.3131  1.1028 -0.1491
 2031SOL     OW 6520   3.419   3.581   4.198 -0.5851  0.4526 -0.4843
 2031SOL    HW1 6521   3.371   3.577   4.281 -2.0591 -2.6243 -1.3314
 2031SOL    HW2 6522   3.501   3.536   4.216 -0.1259  1.3243 -0.3139
 2032SOL     OW 6523   2.102   3.968   0.763  0.1938 -0.2419  0.1848
 2032SOL    HW1 6524   2.091   3.982   0.857 -1.0576  0.7126 -0.0778
 2032SOL    HW2 6525   2.170   4.029   0.737  1.1666 -1.1261  0.6075
 2033SOL     OW 6526   2.762   4.200   1.625 -0.7811 -0.3067  0.9117
 2033SOL    HW1 6527   2.846   4.174   1.585 -0.5219  3.0078 -1.0097
 2033SOL    HW2 6528   2.787   4.248   1.704 -0.5735  2.6353 -0.8035
 2034SOL     OW 6529   1.596   0.044   6.143 -0.3273 -0.0951  0.2689
 2034SOL    HW1 6530   1.669   0.031   6.083  1.4268  1.8613  1.8364
 2034SOL    HW2 6531   1.604  -0.027   6.207  1.6034  1.2445  1.6438
 2035SOL     OW 6532   5.919   3.258   5.087  0.0272  0.0845 -0.0197
 2035SOL    HW1 6533   5.986   3.281   5.151 -1.0112 -0.5210  1.3355
 2035SOL    HW2 6534   5.959   3.190   5.033  0.6357  0.0101  0.5156
 2036SOL     OW 6535   5.928   0.455   1.398 -0.0907  0.2856 -0.2024
 2036SOL    HW1 6536   5.858   0.521   1.389  0.4069  0.8549  0.0435
 2036SOL    HW2 6537   5.924   0.405   1.317 -0.9557  0.1425 -0.0869
 2037SOL     OW 6538   5.607   4.528   1.972  0.1630 -0.0276 -0.1854
 2037SOL    HW1 6539   5.550   4.577   2.032  1.9937  1.0746  0.7155
 2037SOL    HW2 6540   5.612   4.441   2.011 -1.4473 -0.3899 -0.6804
 2038SOL     OW 6541   4.106   4.140   1.538 -0.2867  0.1466  0.5655
 2038SOL    HW1 6542   4.133   4.192   1.613 -1.2064  0.9620  0.3504
 2038SOL    HW2 6543   4.147   4.182   1.463  1.6334 -1.3751  0.6782
 2039SOL     OW 6544   3.192   6.188   3.049  0.1207 -0.1724 -0.5862
 2039SOL    HW1 6545   3.098   6.172   3.060 -0.0385  0.2463 -1.2907
 2039SOL    HW2 6546   3.227   6.180   3.138 -0.4726 -0.9968 -0.4148
 2040SOL     OW 6547   3.934   0.247   3.426  0.2437  0.1855 -0.2722
 2040SOL    HW1 6548   3.901   0.320   3.374  0.5602  1.8178  1.7021
 2040SOL    HW2 6549   3.859   0.215   3.476  0.6261  0.8814  0.7821
 2041SOL     OW 6550   2.775   0.812   5.428 -0.3824  0.1347  0.1939
 2041SOL    HW1 6551   2.852   0.774   5.472  0.5350  2.1540  0.4416
 2041SOL    HW2 6552   2.751   0.887   5.482 -2.0150  0.0606 -0.3735
 2042SOL     OW 6553   2.189   3.131   5.112  0.3130  0.1636  0.7525
 2042SOL    HW1 6554   2.210   3.061   5.173 -0.1811  0.7515  1.6303
 2042SOL    HW2 6555   2.099   3.156   5.135  0.4140  0.9486  0.3294
 2043SOL     OW 6556   2.070   2.354   1.444  0.1356 -0.0748  0.4583
 2043SOL    HW1 6557   2.066   2.308   1.528 -0.7286 -0.4101  0.2381
 2043SOL    HW2 6558   1.979   2.369   1.420  0.0563 -3.7340 -2.4846
 2044SOL     OW 6559   2.187   4.308   6.211 -0.4414  0.0307  0.4387
 2044SOL    HW1 6560   2.108   4.319   6.265 -0.7557  0.7551 -0.1532
 2044SOL    HW2 6561   2.256   4.351   6.261 -0.1683 -1.5528  1.4832
 2045SOL     OW 6562   2.373   4.111   0.316  0.2310  0.1706  0.5041
 2045SOL    HW1 6563   2.390   4.149   0.229  1.8089 -0.0200  0.7026
 2045SOL    HW2 6564   2.281   4.129   0.332  0.0287  0.6418 -1.0079
 2046SOL     OW 6565   1.899   4.670   5.855 -0.3433  0.0317  0.1937
 2046SOL    HW1 6566   1.922   4.617   5.779 -1.6478 -0.6696  0.2715
 2046SOL    HW2 6567   1.958   4.641   5.924 -1.4812 -1.8459  0.4331
 2047SOL     OW 6568   5.692   4.948   5.765  0.0325 -0.3678 -0.0330
 2047SOL    HW1 6569   5.700   4.944   5.669  2.3755  0.5085  0.0745
 2047SOL    HW2 6570   5.649   5.032   5.782  0.1985 -0.2287 -0.2920
 2048SOL     OW 6571   3.628   4.731   2.850  0.3471  0.5300 -0.6016
 2048SOL    HW1 6572   3.616   4.710   2.943 -0.0029  2.5198 -0.1465
 2048SOL    HW2 6573   3.548   4.699   2.808  1.1203 -1.7044 -0.5307
 2049SOL     OW 6574   3.635   5.638   3.440  0.1077  0.3954  0.3678
 2049SOL    HW1 6575   3.694   5.673   3.373  0.8839  0.2581  0.9712
 2049SOL    HW2 6576   3.550   5.675   3.418  0.9512  2.9790  1.1945
 2050SOL     OW 6577   0.350   3.398   2.970  0.2789  0.5863 -0.2565
 2050SOL    HW1 6578   0.289   3.427   2.902 -1.1562 -1.5030  0.0689
 2050SOL    HW2 6579   0.314   3.432   3.051  0.5337  0.8485 -0.2523
 2051SOL     OW 6580   0.618   0.482   6.019 -0.4604 -0.3660 -0.3208
 2051SOL    HW1 6581   0.677   0.511   5.949  0.8090 -2.1734 -0.0844
 2051SOL    HW2 6582   0.657   0.400   6.050 -1.7012 -0.2818  1.6360
 2052SOL     OW 6583   0.884   0.573   2.556 -0.5896  0.2570 -0.2073
 2052SOL    HW1 6584   0.970   0.549   2.520 -1.2093 -0.9239 -0.9596
 2052SOL    HW2 6585   0.822   0.545   2.489 -1.5005  2.5775 -0.4083
 2053SOL     OW 6586   4.330   6.178   1.312  0.3211 -0.2110  0.5071
 2053SOL    HW1 6587   4.369   6.171   1.399 -0.5654 -0.4873  0.8890
 2053SOL    HW2 6588   4.236   6.187   1.328  0.2430  0.8746 -0.3750
 2054SOL     OW 6589   4.352   0.651   1.019 -0.0380  0.0326  0.5992
 2054SOL    HW1 6590   4.344   0.644   0.923  1.2262  0.3939  0.4460
 2054SOL    HW2 6591   4.299   0.727   1.042  0.0554  0.2499  0.1184
 2055SOL     OW 6592   1.089   2.209   2.407  0.8773  0.2123  0.2349
 2055SOL    HW1 6593   1.171   2.211   2.356  0.9034 -1.2741  0.1689
 2055SOL    HW2 6594   1.069   2.116   2.416 -2.6341  0.4710 -2.6613
 2056SOL     OW 6595   4.682   3.344   0.329 -0.2201  0.7434  0.3767
 2056SOL    HW1 6596   4.759   3.382   0.287  0.9375 -1.0895  0.7067
 2056SOL    HW2 6597   4.615   3.343   0.261 -0.0386  2.5350  0.1321
 2057SOL     OW 6598   1.772   2.797   1.131  0.5112  0.3647  0.4582
 2057SOL    HW1 6599   1.682   2.820   1.157 -0.4006 -0.8240 -1.3816
 2057SOL    HW2 6600   1.805   2.877   1.090 -0.2063  0.4295 -0.0239
 2058SOL     OW 6601   3.775   3.699   1.283  0.2089 -0.3984  0.0324
 2058SOL    HW1 6602   3.761   3.716   1.376 -1.6695 -0.6183 -0.1693
 2058SOL    HW2 6603   3.709   3.752   1.239 -0.5147 -2.0774 -1.0263
 2059SOL     OW 6604   2.417   2.244   1.634  0.1655  0.1363  0.8799
 2059SOL    HW1 6605   2.456   2.331   1.637  1.6546 -0.5041  0.7323
 2059SOL    HW2 6606   2.392   2.232   1.543 -1.7381  1.0953  1.2276
 2060SOL     OW 6607   0.943   2.870   5.572  0.3465 -0.6744 -0.0736
 2060SOL    HW1 6608   0.915   2.873   5.480 -0.7973  4.6389  0.1267
 2060SOL    HW2 6609   0.867   2.901   5.621  1.9308 -0.3447  2.3259
 2061SOL     OW 6610   5.298   5.141   3.566 -0.1234  0.2292  0.7561
 2061SOL    HW1 6611   5.371   5.088   3.535 -0.9408 -1.1884  1.1551
 2061SOL    HW2 6612   5.229   5.128   3.501 -0.9707 -0.7273  1.7909
 2062SOL     OW 6613   1.322   5.139   4.884  0.4806  0.5739  0.2930
 2062SOL    HW1 6614   1.358   5.210   4.938  0.1688  0.9653 -0.0115
 2062SOL    HW2 6615   1.381   5.065   4.900  0.4670  0.7183  1.0757
 2063SOL     OW 6616   1.674   5.561   1.299 -0.3351 -0.0027  0.4583
 2063SOL    HW1 6617   1.684   5.467   1.289 -2.7891 -0.3042  0.3214
 2063SOL    HW2 6618   1.708   5.598   1.217 -1.2844 -0.9493 -0.3874
 2064SOL     OW 6619   1.529   1.617   4.674  0.7424  0.6093  0.3219
 2064SOL    HW1 6620   1.457   1.674   4.648 -0.5066 -1.2917 -0.5753
 2064SOL    HW2 6621   1.572   1.592   4.592 -0.1709 -1.5003  0.4076
 2065SOL     OW 6622   4.107   5.404   1.253  0.2994  0.4521 -0.1309
 2065SOL    HW1 6623   4.031   5.346   1.252  0.5341  0.1389 -0.7907
 2065SOL    HW2 6624   4.087   5.471   1.188  0.7986  0.0789 -0.6750
 2066SOL     OW 6625   0.295   4.011   3.464 -0.0176 -0.2275 -0.0417
 2066SOL    HW1 6626   0.295   4.104   3.487  0.2123 -0.4229  0.7803
 2066SOL    HW2 6627   0.376   3.998   3.415 -0.8920  0.3583 -1.7286
 2067SOL     OW 6628   4.267   2.107   5.292 -0.0565  0.0874 -0.2780
 2067SOL    HW1 6629   4.229   2.156   5.220 -0.7874 -0.8506 -0.5518
 2067SOL    HW2 6630   4.229   2.145   5.371 -0.6330 -0.0403 -0.4897
 2068SOL     OW 6631   3.853   1.399   1.483 -0.3565 -0.3045 -0.5253
 2068SOL    HW1 6632   3.842   1.319   1.533 -1.4436 -0.5621 -1.1436
 2068SOL    HW2 6633   3.771   1.409   1.434 -0.8688  1.9751  0.6493
 2069SOL     OW 6634   4.970   5.546   2.377 -0.0732 -0.3421  0.5439
 2069SOL    HW1 6635   4.949   5.589   2.460 -0.0524  1.3809 -0.3045
 2069SOL    HW2 6636   5.043   5.596   2.341  0.7000 -1.7895  0.0126
 2070SOL     OW 6637   5.423   2.958   1.484  0.3186 -0.0356 -0.1491
 2070SOL    HW1 6638   5.483   2.921   1.420  1.0104 -1.7522  1.3891
 2070SOL    HW2 6639   5.465   2.941   1.569 -1.2695  0.7669  0.8532
 2071SOL     OW 6640   6.163   0.698   4.862  0.1655  0.4773  0.5610
 2071SOL    HW1 6641   6.231   0.766   4.854 -0.1672  0.7045 -0.3735
 2071SOL    HW2 6642   6.130   0.708   4.951  0.3703  1.3098  0.5483
 2072SOL     OW 6643   5.463   0.191   2.551 -0.4232  0.0098 -0.1871
 2072SOL    HW1 6644   5.435   0.279   2.577  1.1948 -0.0388  2.0386
 2072SOL    HW2 6645   5.471   0.195   2.456 -0.3680  2.2876 -0.1406
 2073SOL     OW 6646   1.880   2.581   4.177 -0.3242 -0.8172 -0.0902
 2073SOL    HW1 6647   1.892   2.493   4.213 -2.8622 -0.8384  0.8585
 2073SOL    HW2 6648   1.819   2.624   4.237 -0.9113  0.8259 -1.7699
 2074SOL     OW 6649   1.427   4.896   4.908 -0.2538  0.3474  0.7912
 2074SOL    HW1 6650   1.505   4.863   4.864 -0.2724  0.3993  0.7204
 2074SOL    HW2 6651   1.374   4.818   4.924  0.0379  0.2492  1.2810
 2075SOL     OW 6652   5.525   3.453   5.403  0.4131 -0.4476  0.1224
 2075SOL    HW1 6653   5.570   3.395   5.341  0.7911 -0.4701  0.4129
 2075SOL    HW2 6654   5.480   3.393   5.463 -1.6973 -0.4368 -1.3483
 2076SOL     OW 6655   1.697   5.151   3.799  0.1212 -0.6023  0.2453
 2076SOL    HW1 6656   1.705   5.090   3.727  1.3306 -1.6264  1.2075
 2076SOL    HW2 6657   1.607   5.141   3.830 -0.7095  0.5117 -1.6321
 2077SOL     OW 6658   2.130   1.023   4.905  0.1173 -0.2921  0.2087
 2077SOL    HW1 6659   2.064   1.071   4.956 -1.1473 -1.9378  0.2088
 2077SOL    HW2 6660   2.182   1.092   4.862  0.3731  1.1196  2.6093
 2078SOL     OW 6661   0.302   3.094   3.290  0.0159 -0.5830  0.0546
 2078SOL    HW1 6662   0.389   3.061   3.313 -0.2416 -0.2439  1.6521
 2078SOL    HW2 6663   0.246   3.017   3.293 -0.1819 -0.4214  1.6117
 2079SOL     OW 6664   4.319   5.915   3.352 -0.3857  0.3821 -0.1761
 2079SOL    HW1 6665   4.319   5.889   3.445 -1.0262 -3.4709 -1.1014
 2079SOL    HW2 6666   4.401   5.880   3.317 -1.1800 -0.2300 -1.5020
 2080SOL     OW 6667   0.073   4.924   5.283 -0.4699 -0.4310 -0.2066
 2080SOL    HW1 6668   0.075   4.857   5.215 -0.2345 -0.0349 -0.5930
 2080SOL    HW2 6669   0.027   4.997   5.243 -1.5339 -0.6684  0.5062
 2081SOL     OW 6670   3.957   3.134   1.997  0.2286  0.3064  0.0823
 2081SOL    HW1 6671   3.875   3.132   1.947  0.5359 -1.5511 -0.4315
 2081SOL    HW2 6672   3.948   3.063   2.060  1.3544  0.2088  0.1563
 2082SOL     OW 6673   0.222   5.289   3.595  0.5917  0.0186 -0.0867
 2082SOL    HW1 6674   0.262   5.362   3.549 -0.6882 -0.7134 -2.5097
 2082SOL    HW2 6675   0.284   5.217   3.585  0.2900 -0.1541 -0.7374
 2083SOL     OW 6676   6.057   0.143   0.888  0.2171 -0.2946  0.3522
 2083SOL    HW1 6677   6.115   0.218   0.872 -0.5267  0.3874  0.8203
 2083SOL    HW2 6678   6.010   0.131   0.806  0.2263 -0.1498  0.3253
 2084SOL     OW 6679   4.614   2.572   3.930 -0.4278  0.2313  0.0511
 2084SOL    HW1 6680   4.682   2.639   3.932  0.8593 -0.9830 -0.9613
 2084SOL    HW2 6681   4.534   2.618   3.953  0.4520  2.0626 -0.4069
 2085SOL     OW 6682   5.962   1.159   3.025  0.4949  0.2179 -0.0486
 2085SOL    HW1 6683   6.035   1.210   3.061  0.2868 -0.8925  2.1249
 2085SOL    HW2 6684   5.886   1.215   3.036  0.8276  0.9602 -1.3437
 2086SOL     OW 6685   5.929   0.515   2.389 -0.6518 -1.0272 -0.3702
 2086SOL    HW1 6686   5.844   0.496   2.348 -0.8147 -0.8510 -0.1225
 2086SOL    HW2 6687   5.930   0.460   2.467 -0.6176 -0.8954 -0.2772
 2087SOL     OW 6688   3.199   3.265   4.659  0.4654  1.2125  0.3329
 2087SOL    HW1 6689   3.232   3.180   4.690  0.9974  1.8535  1.6078
 2087SOL    HW2 6690   3.185   3.253   4.565 -2.5938 -1.3116  0.9376
 2088SOL     OW 6691   1.606   5.651   3.634 -0.5856 -0.4260  0.6569
 2088SOL    HW1 6692   1.617   5.563   3.670  0.2753 -0.7645 -0.3887
 2088SOL    HW2 6693   1.548   5.639   3.559 -0.4001 -0.1198  0.4615
 2089SOL     OW 6694   2.801   4.365   5.626 -0.1183 -0.0745 -0.4451
 2089SOL    HW1 6695   2.779   4.431   5.560  1.7270  0.4077 -0.6494
 2089SOL    HW2 6696   2.831   4.289   5.576 -1.8369 -0.9609 -0.1970
 2090SOL     OW 6697   3.679   0.096   2.145 -0.3791 -0.6227  0.6843
 2090SOL    HW1 6698   3.738   0.155   2.099  0.2989 -1.3018  0.6677
 2090SOL    HW2 6699   3.729   0.015   2.156 -1.1331 -1.0458  1.1031
 2091SOL     OW 6700   4.715   4.917   2.758  0.2975  0.1135 -0.1845
 2091SOL    HW1 6701   4.759   4.973   2.694  0.8769 -0.5600 -0.3992
 2091SOL    HW2 6702   4.775   4.843   2.768 -0.4696 -0.4768  0.0594
 2092SOL     OW 6703   0.500   2.604   0.234  0.2330  0.0514  0.5635
 2092SOL    HW1 6704   0.431   2.573   0.292 -0.6283  0.8347 -0.0221
 2092SOL    HW2 6705   0.498   2.543   0.160  0.3679 -0.0945  0.6786
 2093SOL     OW 6706   5.554   5.753   1.705 -0.7285 -0.0859  0.0854
 2093SOL    HW1 6707   5.605   5.683   1.664 -1.2094  0.5703 -1.7219
 2093SOL    HW2 6708   5.619   5.816   1.734 -0.4226  0.2630 -1.2849
 2094SOL     OW 6709   5.711   1.099   2.021  0.3742 -0.2157 -0.2335
 2094SOL    HW1 6710   5.765   1.021   2.014  0.0328 -0.3840 -1.1180
 2094SOL    HW2 6711   5.625   1.072   1.990  0.1707  0.4339 -0.2607
 2095SOL     OW 6712   0.326   3.632   3.502  0.3647  0.3819  0.4701
 2095SOL    HW1 6713   0.374   3.576   3.441  0.2897  0.4938  0.3084
 2095SOL    HW2 6714   0.342   3.593   3.588 -0.2376 -0.2772  0.2921
 2096SOL     OW 6715   2.442   4.360   2.112 -0.2188 -0.1514  0.5381
 2096SOL    HW1 6716   2.386   4.434   2.089 -0.3333 -0.1578  0.7976
 2096SOL    HW2 6717   2.528   4.399   2.129  0.3462 -0.3201 -1.6055
 2097SOL     OW 6718   2.432   4.163   2.315 -0.2479 -0.5369  0.2695
 2097SOL    HW1 6719   2.455   4.230   2.250 -0.7262  1.3523  1.9415
 2097SOL    HW2 6720   2.514   4.144   2.360  0.1177 -1.9669 -0.9110
 2098SOL     OW 6721   2.727   4.327   4.054 -0.2812  0.1665 -0.5187
 2098SOL    HW1 6722   2.816   4.361   4.064  0.3205 -1.1865 -0.9325
 2098SOL    HW2 6723   2.685   4.387   3.993  0.9588 -0.1685 -1.7673
 2099SOL     OW 6724   5.560   6.063   3.400  0.1575  0.2864 -0.0903
 2099SOL    HW1 6725   5.593   5.976   3.377  0.9174  0.9062 -1.4534
 2099SOL    HW2 6726   5.631   6.104   3.449  1.4417  1.5069 -2.7594
 2100SOL     OW 6727   5.840   4.010   2.237 -0.0795  0.0315 -0.1816
 2100SOL    HW1 6728   5.845   4.106   2.232  0.2258  0.0847  0.9456
 2100SOL    HW2 6729   5.900   3.980   2.169 -1.6187  0.6052 -1.8918
 2101SOL     OW 6730   0.777   3.621   6.223 -0.2546  0.4460  0.0561
 2101SOL    HW1 6731   0.868   3.608   6.250  0.3927  1.6061 -1.4638
 2101SOL    HW2 6732   0.739   3.675   6.293 -0.0218 -0.6452  1.0648
 2102SOL     OW 6733   3.644   5.795   2.818  0.2210 -0.3716 -0.4719
 2102SOL    HW1 6734   3.598   5.873   2.849  0.7384 -0.5866  0.9250
 2102SOL    HW2 6735   3.732   5.826   2.797  1.2269 -0.9173  2.4317
 2103SOL     OW 6736   5.604   2.887   5.817 -0.2505  0.1496 -0.0387
 2103SOL    HW1 6737   5.520   2.896   5.861 -0.5771 -0.9699 -0.3913
 2103SOL    HW2 6738   5.593   2.812   5.759  1.5598 -1.2646  1.3067
 2104SOL     OW 6739   5.103   5.205   3.374 -0.2534  0.1134 -0.6320
 2104SOL    HW1 6740   5.071   5.287   3.410  0.2266  0.1625 -0.3025
 2104SOL    HW2 6741   5.141   5.229   3.290  1.7410  0.6044  0.3485
 2105SOL     OW 6742   2.124   2.509   4.472 -0.6331  0.0753 -0.1463
 2105SOL    HW1 6743   2.207   2.474   4.440  0.0767 -0.1325  1.7637
 2105SOL    HW2 6744   2.058   2.472   4.414  0.5731  0.1225 -1.6207
 2106SOL     OW 6745   4.169   5.547   3.969  0.1469  0.1884 -0.1832
 2106SOL    HW1 6746   4.140   5.475   4.024 -0.2384 -0.0063 -0.6387
 2106SOL    HW2 6747   4.091   5.576   3.923 -0.1865  2.2669  1.5092
 2107SOL     OW 6748   0.646   5.031   4.368  0.3461 -0.0318 -0.3080
 2107SOL    HW1 6749   0.591   4.965   4.328 -1.6553  0.9787  0.6434
 2107SOL    HW2 6750   0.615   5.114   4.333 -1.0295  0.8413  2.6269
 2108SOL     OW 6751   2.860   0.455   5.676  0.5396 -0.3059  0.2395
 2108SOL    HW1 6752   2.783   0.437   5.622 -0.1647  1.0298  0.7570
 2108SOL    HW2 6753   2.896   0.536   5.641  0.9700 -0.2418  0.8111
 2109SOL     OW 6754   3.396   0.222   1.080  0.1023 -0.5949  0.4404
 2109SOL    HW1 6755   3.380   0.160   1.009 -0.2633 -0.0521  0.0383
 2109SOL    HW2 6756   3.479   0.194   1.117  0.4289 -0.7449 -0.3664
 2110SOL     OW 6757   0.672   4.805   0.544 -0.1162  0.3872  0.0670
 2110SOL    HW1 6758   0.687   4.752   0.466 -0.3805 -0.6383  0.6803
 2110SOL    HW2 6759   0.609   4.871   0.517  0.6703  0.7643 -0.8749
 2111SOL     OW 6760   2.400   4.801   4.964  0.0984  0.2252  0.2028
 2111SOL    HW1 6761   2.364   4.729   5.016 -0.2150  0.9910  1.0826
 2111SOL    HW2 6762   2.333   4.819   4.898 -0.3682  0.4718  0.7271
 2112SOL     OW 6763   2.766   0.830   1.269 -0.3607  0.3554 -0.1489
 2112SOL    HW1 6764   2.805   0.882   1.199 -1.3671  0.4810 -0.6333
 2112SOL    HW2 6765   2.769   0.887   1.346 -2.4069  1.6186 -0.9069
 2113SOL     OW 6766   4.169   0.156   0.667  0.4044 -0.6077 -0.1121
 2113SOL    HW1 6767   4.081   0.171   0.632 -0.1363 -0.4861  1.2391
 2113SOL    HW2 6768   4.211   0.099   0.603 -0.9558 -1.3825 -0.3520
 2114SOL     OW 6769   2.943   2.758   0.222  0.1516  0.2978 -0.0367
 2114SOL    HW1 6770   2.861   2.785   0.262 -0.6660 -0.2447 -1.2879
 2114SOL    HW2 6771   2.995   2.838   0.218 -0.6667  0.8406 -0.0501
 2115SOL     OW 6772   6.177   0.819   3.159  0.2386  0.4716 -0.2019
 2115SOL    HW1 6773   6.110   0.845   3.221 -0.7254 -1.0268 -0.5850
 2115SOL    HW2 6774   6.226   0.900   3.142 -1.4865  1.6148  0.0397
 2116SOL     OW 6775   3.728   3.947   5.751 -0.0220 -0.4678  0.2418
 2116SOL    HW1 6776   3.657   3.993   5.797  0.4152  0.3144  0.1440
 2116SOL    HW2 6777   3.798   4.011   5.745  0.8984 -1.3976  0.7951
 2117SOL     OW 6778   2.420   5.266   2.372 -0.2139 -0.0662  0.1291
 2117SOL    HW1 6779   2.439   5.187   2.423 -1.1931 -0.3378  0.1099
 2117SOL    HW2 6780   2.345   5.241   2.318 -0.0336  0.6387 -0.4535
 2118SOL     OW 6781   5.785   2.069   4.515 -0.0415  0.5097  0.0141
 2118SOL    HW1 6782   5.824   2.106   4.436 -0.7331 -3.3489 -2.3973
 2118SOL    HW2 6783   5.858   2.063   4.577  1.9034 -1.0616 -2.2406
 2119SOL     OW 6784   5.414   4.436   3.069  0.1340  0.0052  0.7223
 2119SOL    HW1 6785   5.477   4.390   3.124  1.3068  1.3287  0.5564
 2119SOL    HW2 6786   5.450   4.525   3.061 -1.0647  0.4140 -0.4959
 2120SOL     OW 6787   4.561   5.648   3.612 -0.7227 -0.5733  0.0188
 2120SOL    HW1 6788   4.638   5.594   3.633 -0.0243 -0.4169 -1.8737
 2120SOL    HW2 6789   4.488   5.601   3.652  0.2117 -1.3538  0.8888
 2121SOL     OW 6790   5.596   0.218   5.643  0.5520  0.4926  0.1867
 2121SOL    HW1 6791   5.674   0.171   5.616 -0.3610 -0.0778 -1.6174
 2121SOL    HW2 6792   5.584   0.193   5.735  1.4514 -0.8963 -0.0395
 2122SOL     OW 6793   4.068   2.098   0.301  0.1364 -0.3287 -0.7151
 2122SOL    HW1 6794   4.022   2.074   0.221  0.2492 -1.6436 -0.4066
 2122SOL    HW2 6795   4.080   2.016   0.348  1.0437  0.2634  0.1432
 2123SOL     OW 6796   3.658   5.325   5.621  0.1557  0.0480  0.1735
 2123SOL    HW1 6797   3.739   5.368   5.594 -0.0635  0.6098  0.3976
 2123SOL    HW2 6798   3.590   5.364   5.566  0.2714 -1.8276 -1.4410
 2124SOL     OW 6799   3.795   3.099   2.994  0.0115  0.2410  0.4459
 2124SOL    HW1 6800   3.777   3.185   2.956 -1.4578 -0.1861  0.0796
 2124SOL    HW2 6801   3.831   3.048   2.921 -0.2804  0.2007  0.3264
 2125SOL     OW 6802   1.036   1.389   2.816 -0.4639 -0.5027 -0.2489
 2125SOL    HW1 6803   1.089   1.354   2.888  0.3766  0.7217 -0.2395
 2125SOL    HW2 6804   1.100   1.425   2.755 -1.2228 -0.5722 -1.1096
 2126SOL     OW 6805   1.082   4.574   2.266 -0.2236 -0.8347  0.4336
 2126SOL    HW1 6806   1.043   4.530   2.342 -3.0950 -0.5109 -0.7287
 2126SOL    HW2 6807   1.090   4.666   2.293  0.4152 -1.0299  0.9233
 2127SOL     OW 6808   3.101   2.970   0.240 -0.7947  0.2942 -0.0422
 2127SOL    HW1 6809   3.063   3.031   0.176 -2.7166 -0.5611  0.2099
 2127SOL    HW2 6810   3.130   3.026   0.312 -1.2916  1.0373 -0.4012
 2128SOL     OW 6811   1.235   2.833   1.494 -0.2638  0.9044  0.1914
 2128SOL    HW1 6812   1.177   2.864   1.424 -0.5145  0.3228  0.1394
 2128SOL    HW2 6813   1.182   2.772   1.545  0.5240 -0.2524 -0.3229
 2129SOL     OW 6814   1.425   5.807   4.520  0.1970 -0.1954  0.1691
 2129SOL    HW1 6815   1.383   5.790   4.604 -0.5047  1.6464  0.2384
 2129SOL    HW2 6816   1.507   5.852   4.543  0.0977  0.1364 -0.1217
 2130SOL     OW 6817   3.216   3.748   5.151  0.1218 -0.5597 -0.3758
 2130SOL    HW1 6818   3.202   3.806   5.226 -0.0597 -0.3334 -0.5832
 2130SOL    HW2 6819   3.147   3.682   5.159 -1.9373  1.2393 -2.0638
 2131SOL     OW 6820   5.208   5.675   0.122 -0.2594  0.3791  0.2619
 2131SOL    HW1 6821   5.226   5.587   0.156 -1.0991 -0.2064 -0.7314
 2131SOL    HW2 6822   5.163   5.720   0.193 -2.6701 -1.0620 -0.2377
 2132SOL     OW 6823   4.505   5.998   4.349 -0.0913  0.5431 -0.1423
 2132SOL    HW1 6824   4.446   5.923   4.344  1.3784 -0.6543 -0.0271
 2132SOL    HW2 6825   4.514   6.028   4.259 -0.2798  0.2587 -0.2572
 2133SOL     OW 6826   1.250   5.836   0.872  0.3572  0.2397 -0.0927
 2133SOL    HW1 6827   1.276   5.906   0.812  2.5810  0.5662  1.1036
 2133SOL    HW2 6828   1.309   5.764   0.851  0.0663 -0.2123  0.6031
 2134SOL     OW 6829   5.899   4.826   6.076  0.6247  0.2075 -0.5596
 2134SOL    HW1 6830   5.901   4.772   6.155 -0.6684  0.3840 -0.3884
 2134SOL    HW2 6831   5.817   4.803   6.033  0.0774  1.9516 -0.5327
 2135SOL     OW 6832   0.651   5.638   2.279  0.5902  0.1357 -0.2390
 2135SOL    HW1 6833   0.700   5.558   2.260  2.4907  1.4685 -1.3859
 2135SOL    HW2 6834   0.609   5.661   2.196  1.9988  1.5036 -0.6402
 2136SOL     OW 6835   2.420   1.995   1.360  0.3404 -0.3210  0.6924
 2136SOL    HW1 6836   2.402   2.086   1.383 -1.2672 -0.1292 -1.0359
 2136SOL    HW2 6837   2.340   1.965   1.316  1.2698 -2.2026  0.1550
 2137SOL     OW 6838   2.014   3.460   4.737  0.3122 -0.1502 -0.0925
 2137SOL    HW1 6839   2.015   3.365   4.722  1.4047 -0.1422 -0.1164
 2137SOL    HW2 6840   2.079   3.495   4.675 -0.5577  0.6929 -0.5634
 2138SOL     OW 6841   0.303   2.277   0.494 -0.7200  0.1709 -0.1704
 2138SOL    HW1 6842   0.300   2.198   0.440 -2.6084  0.9754 -1.3385
 2138SOL    HW2 6843   0.262   2.344   0.440 -1.3773  1.3647  1.7277
 2139SOL     OW 6844   4.155   0.807   1.935 -1.1214 -0.2593 -0.6448
 2139SOL    HW1 6845   4.152   0.737   1.870  0.2954  0.6275 -1.7263
 2139SOL    HW2 6846   4.246   0.808   1.966 -1.4117  0.3318  0.2434
 2140SOL     OW 6847   3.017   2.866   2.752  0.3949 -0.1204  0.5615
 2140SOL    HW1 6848   2.935   2.826   2.780 -0.2949  0.5345 -0.4559
 2140SOL    HW2 6849   3.022   2.848   2.658  0.9029  0.7120  0.4141
 2141SOL     OW 6850   2.704   3.152   2.794  0.4197 -0.3224  0.7101
 2141SOL    HW1 6851   2.648   3.074   2.803  0.0541 -0.1873 -0.2747
 2141SOL    HW2 6852   2.792   3.121   2.814  0.3743 -1.1550 -0.2789
 2142SOL     OW 6853   3.225   4.531   2.834 -0.0748 -0.0219 -0.3828
 2142SOL    HW1 6854   3.189   4.449   2.867  2.6500 -1.4838 -0.7338
 2142SOL    HW2 6855   3.166   4.555   2.762 -3.5149  0.8534  2.4625
 2143SOL     OW 6856   5.514   0.590   3.674 -0.3978  0.0588 -0.4014
 2143SOL    HW1 6857   5.524   0.681   3.703  0.1914  0.4727 -1.8118
 2143SOL    HW2 6858   5.484   0.597   3.583 -0.4338 -1.1634 -0.4973
 2144SOL     OW 6859   1.392   1.250   5.463 -0.3568 -0.1193 -0.1180
 2144SOL    HW1 6860   1.383   1.172   5.408 -0.8158 -0.3586  0.2871
 2144SOL    HW2 6861   1.383   1.324   5.403 -1.5965 -0.3728 -0.2589
 2145SOL     OW 6862   4.785   0.875   0.590  0.7367 -0.0547  0.0437
 2145SOL    HW1 6863   4.761   0.905   0.503  0.1262  1.1479  0.6083
 2145SOL    HW2 6864   4.714   0.905   0.647  1.3006 -0.4956  1.0114
 2146SOL     OW 6865   3.480   4.067   5.480  0.3589  0.8039  0.1859
 2146SOL    HW1 6866   3.424   4.076   5.403 -1.1120 -0.2462  1.0632
 2146SOL    HW2 6867   3.563   4.034   5.446 -0.4012 -0.0476 -0.9402
 2147SOL     OW 6868   5.694   1.526   5.778  0.2395 -0.0137 -0.1557
 2147SOL    HW1 6869   5.696   1.454   5.841  0.3812  0.0141 -0.1273
 2147SOL    HW2 6870   5.723   1.602   5.829  1.2808 -0.1715 -0.4926
 2148SOL     OW 6871   3.148   4.412   1.658 -0.0624 -0.2624 -0.2316
 2148SOL    HW1 6872   3.111   4.423   1.746 -0.0764 -2.5866  0.1187
 2148SOL    HW2 6873   3.184   4.498   1.637  0.1418  0.3195  2.1260
 2149SOL     OW 6874   0.252   0.786   4.501  0.5807 -0.0351 -0.2141
 2149SOL    HW1 6875   0.335   0.752   4.535  0.9606  1.0632 -0.0156
 2149SOL    HW2 6876   0.257   0.881   4.513 -0.8131  0.0351  0.0211
 2150SOL     OW 6877   5.210   2.020   5.819  0.2521  0.2427  0.4597
 2150SOL    HW1 6878   5.149   1.948   5.829 -0.2936  0.7091  0.5368
 2150SOL    HW2 6879   5.167   2.081   5.759  0.5862  0.6337  0.6071
 2151SOL     OW 6880   4.931   4.236   1.904 -0.6952 -0.3034 -0.4155
 2151SOL    HW1 6881   4.911   4.188   1.824  0.5628 -0.1097 -0.8850
 2151SOL    HW2 6882   5.027   4.240   1.905 -0.5324 -2.3057  2.3101
 2152SOL     OW 6883   2.349   5.484   5.704 -0.2416 -0.3497 -0.3541
 2152SOL    HW1 6884   2.369   5.397   5.669  0.4358 -0.4613  0.2831
 2152SOL    HW2 6885   2.277   5.515   5.650 -0.0506 -1.0319 -1.0246
 2153SOL     OW 6886   3.935   4.659   1.920 -0.0913  0.4124  0.4469
 2153SOL    HW1 6887   3.929   4.662   2.016  0.9348  0.4809  0.5250
 2153SOL    HW2 6888   3.954   4.567   1.901 -2.1436  0.0079  0.1597
 2154SOL     OW 6889   1.826   5.210   0.606 -0.4662 -0.0941  0.4946
 2154SOL    HW1 6890   1.842   5.123   0.642  0.5578  0.0693  0.4884
 2154SOL    HW2 6891   1.818   5.266   0.683 -1.3276 -0.2240  0.5012
 2155SOL     OW 6892   1.272   0.177   1.211 -0.0761  0.4486 -0.3013
 2155SOL    HW1 6893   1.223   0.260   1.216 -1.2661 -0.2254 -0.2957
 2155SOL    HW2 6894   1.204   0.110   1.218  0.7555 -0.5326 -1.4298
 2156SOL     OW 6895   0.002   0.123   4.807 -0.0977 -0.5282 -0.7165
 2156SOL    HW1 6896  -0.024   0.056   4.743 -2.6158  1.1651 -1.6320
 2156SOL    HW2 6897   0.050   0.188   4.756 -1.1450  0.2776 -0.7180
 2157SOL     OW 6898   0.362   5.629   1.286  0.5104  0.3148 -0.5226
 2157SOL    HW1 6899   0.296   5.599   1.349  1.1881 -1.8229 -0.7577
 2157SOL    HW2 6900   0.333   5.717   1.261 -2.2286 -0.5154 -0.5935
 2158SOL     OW 6901   0.611   4.102   1.638 -0.3418 -0.0906 -0.3958
 2158SOL    HW1 6902   0.650   4.027   1.594  1.1969 -0.4635  1.5005
 2158SOL    HW2 6903   0.685   4.151   1.673 -1.4521  0.3899  1.4207
 2159SOL     OW 6904   0.484   3.926   1.806  0.0587  0.1385  0.0624
 2159SOL    HW1 6905   0.406   3.965   1.847 -1.3430 -1.1687 -1.2140
 2159SOL    HW2 6906   0.534   4.001   1.773 -0.9918  0.9857  0.3257
 2160SOL     OW 6907   5.092   2.481   4.495  0.1615  0.1800 -0.0659
 2160SOL    HW1 6908   5.054   2.403   4.536 -0.0749 -0.2447 -1.0363
 2160SOL    HW2 6909   5.175   2.451   4.458  1.3228  1.0172  1.7195
 2161SOL     OW 6910   3.044   3.640   3.355  0.2603 -0.0545  0.0517
 2161SOL    HW1 6911   3.065   3.698   3.281  0.3970  0.7981  0.7473
 2161SOL    HW2 6912   3.061   3.693   3.433 -0.6729 -0.6710  0.6943
 2162SOL     OW 6913   4.546   2.112   3.359 -0.0377  0.4113  0.6627
 2162SOL    HW1 6914   4.638   2.085   3.368 -0.3668 -0.4617  1.6231
 2162SOL    HW2 6915   4.549   2.208   3.364  1.0391  0.5668 -1.6864
 2163SOL     OW 6916   5.503   4.939   0.814  0.1909  0.3931 -0.0329
 2163SOL    HW1 6917   5.555   4.860   0.829 -0.5926 -0.3218 -0.9884
 2163SOL    HW2 6918   5.478   4.968   0.901  0.3757 -0.4849  0.3229
 2164SOL     OW 6919   2.165   4.238   4.169  0.2143  0.0583  0.2963
 2164SOL    HW1 6920   2.095   4.204   4.113  0.2271 -1.5658  1.2058
 2164SOL    HW2 6921   2.244   4.196   4.137  0.8645  1.9878 -0.8101
 2165SOL     OW 6922   5.038   0.482   1.898  0.2130  0.7322 -0.2381
 2165SOL    HW1 6923   5.043   0.506   1.805 -0.0675  0.6031 -0.2889
 2165SOL    HW2 6924   5.123   0.443   1.917  0.4406  1.1799 -0.3187
 2166SOL     OW 6925   2.985   5.683   6.076  0.1201 -0.1823  0.3489
 2166SOL    HW1 6926   3.075   5.687   6.110  0.2704 -1.0923  0.0749
 2166SOL    HW2 6927   2.990   5.623   6.002 -0.6341  0.1116  0.0472
 2167SOL     OW 6928   2.898   5.279   1.540 -0.1581  0.3958 -1.1069
 2167SOL    HW1 6929   2.879   5.372   1.555  1.5490  0.4746  0.9557
 2167SOL    HW2 6930   2.979   5.279   1.490 -0.0489  0.0219 -0.9353
 2168SOL     OW 6931   1.057   6.030   1.014  0.1683  0.0934 -0.2022
 2168SOL    HW1 6932   1.101   5.967   0.955  1.0059  1.6423 -1.3076
 2168SOL    HW2 6933   0.982   6.061   0.964  0.4511  0.8607 -0.1646
 2169SOL     OW 6934   5.683   3.137   1.775 -0.3546  0.0176  0.2941
 2169SOL    HW1 6935   5.601   3.187   1.772  0.2699  1.1767  1.8223
 2169SOL    HW2 6936   5.752   3.203   1.783  0.5691 -1.0255  1.2761
 2170SOL     OW 6937   0.602   4.944   6.035  0.2975  0.6578  0.1460
 2170SOL    HW1 6938   0.679   4.954   6.091 -0.6541  0.0210  1.6397
 2170SOL    HW2 6939   0.612   4.858   5.995  0.8721  1.0201 -0.5035
 2171SOL     OW 6940   3.434   4.479   3.582  0.1402  0.1193  0.0419
 2171SOL    HW1 6941   3.468   4.568   3.596 -0.8534  0.4535  0.4106
 2171SOL    HW2 6942   3.341   4.492   3.565  0.1312 -0.8016 -0.6589
 2172SOL     OW 6943   2.025   2.385   3.292 -0.0365  0.0284 -0.4303
 2172SOL    HW1 6944   2.094   2.450   3.308  0.0356 -0.2013  0.2094
 2172SOL    HW2 6945   2.065   2.302   3.317 -0.8698  0.0081  0.9146
 2173SOL     OW 6946   5.093   1.510   3.819 -0.2847 -0.0200 -0.3619
 2173SOL    HW1 6947   5.142   1.588   3.844 -1.8989  0.7384  0.6213
 2173SOL    HW2 6948   5.095   1.455   3.897  0.7920 -0.9733 -1.0290
 2174SOL     OW 6949   5.504   4.639   5.081  0.3464 -0.2825 -0.4113
 2174SOL    HW1 6950   5.411   4.654   5.065  0.4661  0.3644 -0.5425
 2174SOL    HW2 6951   5.506   4.576   5.153 -0.1998  0.5273  0.3392
 2175SOL     OW 6952   5.717   5.592   0.990  0.1663 -0.0878 -0.7111
 2175SOL    HW1 6953   5.639   5.572   0.938  0.2329 -0.8021 -0.5534
 2175SOL    HW2 6954   5.782   5.620   0.926 -0.1077  0.1568 -0.8854
 2176SOL     OW 6955   4.597   4.832   1.008  0.2417 -0.3854  0.0472
 2176SOL    HW1 6956   4.540   4.758   0.991  0.8325 -0.8940  0.2346
 2176SOL    HW2 6957   4.619   4.866   0.921 -0.7418  0.1314 -0.0073
 2177SOL     OW 6958   3.288   2.772   5.474 -0.4819 -0.0149  0.5899
 2177SOL    HW1 6959   3.341   2.822   5.413  0.6647 -1.5927  0.2250
 2177SOL    HW2 6960   3.331   2.784   5.559 -0.4349 -0.0481  0.5710
 2178SOL     OW 6961   4.633   1.626   1.269  0.0653  0.2014  0.1589
 2178SOL    HW1 6962   4.627   1.594   1.179  1.7137  1.3200 -0.3753
 2178SOL    HW2 6963   4.601   1.716   1.265  0.5765  0.4057  0.6050
 2179SOL     OW 6964   3.492   3.275   2.604 -0.7815 -0.8584  0.2884
 2179SOL    HW1 6965   3.529   3.190   2.580 -0.3219 -0.0810 -2.0890
 2179SOL    HW2 6966   3.561   3.319   2.652  0.0769 -0.8016 -0.9414
 2180SOL     OW 6967   4.585   4.913   5.116 -0.5916  0.5589 -0.1886
 2180SOL    HW1 6968   4.520   4.845   5.098  0.1504 -0.2389  0.0552
 2180SOL    HW2 6969   4.621   4.935   5.030 -1.7858  1.6596 -0.4423
 2181SOL     OW 6970   0.752   2.506   0.208  0.1490  0.0418 -0.0173
 2181SOL    HW1 6971   0.804   2.585   0.222  1.3944 -0.0376 -3.3836
 2181SOL    HW2 6972   0.662   2.534   0.224  0.6126  2.0080 -0.5807
 2182SOL     OW 6973   1.058   4.760   4.964  0.6418  0.4017 -0.0824
 2182SOL    HW1 6974   1.137   4.712   4.989  0.1909 -0.5993 -0.5200
 2182SOL    HW2 6975   0.988   4.718   5.014  0.4717  1.8199  0.9424
 2183SOL     OW 6976   0.943   2.177   2.670 -0.7451 -0.0740 -0.0020
 2183SOL    HW1 6977   0.853   2.192   2.641 -1.0324 -1.0147  0.3538
 2183SOL    HW2 6978   0.997   2.205   2.597 -1.3224  0.6108 -0.1718
 2184SOL     OW 6979   2.579   3.054   0.941  0.7248 -0.8081 -0.4476
 2184SOL    HW1 6980   2.589   3.016   1.029  2.6738  0.9865  0.2010
 2184SOL    HW2 6981   2.557   2.980   0.886 -1.6763 -1.8383  1.6970
 2185SOL     OW 6982   3.217   4.373   0.138  0.4167  0.1004  0.4239
 2185SOL    HW1 6983   3.129   4.410   0.135  0.0163 -0.8303  0.3944
 2185SOL    HW2 6984   3.267   4.426   0.076 -0.4590 -0.2301 -0.5912
 2186SOL     OW 6985   3.104   5.561   0.261  0.3253  0.2925 -0.0377
 2186SOL    HW1 6986   3.067   5.646   0.285 -0.0752 -0.3282  1.6622
 2186SOL    HW2 6987   3.198   5.577   0.251  0.5550  0.5945  2.1624
 2187SOL     OW 6988   5.658   0.945   2.581  0.5091 -0.7365  0.2127
 2187SOL    HW1 6989   5.656   0.862   2.629  0.9538 -0.9457 -0.1272
 2187SOL    HW2 6990   5.569   0.954   2.545  0.9613 -1.9860 -1.2999
 2188SOL     OW 6991   3.410   6.219   2.222  0.1214 -0.1293  0.1800
 2188SOL    HW1 6992   3.386   6.134   2.184 -2.5002  1.3542 -1.8577
 2188SOL    HW2 6993   3.504   6.213   2.237  0.0750 -3.2843 -0.0726
 2189SOL     OW 6994   5.153   5.212   4.335  0.0222  0.2345  0.0878
 2189SOL    HW1 6995   5.194   5.275   4.276  0.4323  0.5211  0.6794
 2189SOL    HW2 6996   5.088   5.263   4.383 -0.4992 -0.0563 -0.2980
 2190SOL     OW 6997   3.147   0.552   5.999 -0.0887  0.2294  0.1896
 2190SOL    HW1 6998   3.062   0.531   5.962  0.5482 -0.4687 -0.9350
 2190SOL    HW2 6999   3.132   0.556   6.094 -1.5501  1.1057 -0.0568
 2191SOL     OW 7000   3.487   6.053   0.138 -0.1905 -0.6117  0.2512
 2191SOL    HW1 7001   3.458   6.024   0.052  1.5341 -1.0986 -0.2180
 2191SOL    HW2 7002   3.412   6.100   0.175 -0.3711  1.3210 -2.3117
 2192SOL     OW 7003   4.161   4.559   0.976  0.0410  0.3514  0.4349
 2192SOL    HW1 7004   4.091   4.541   1.039 -1.5387  2.0007 -0.7616
 2192SOL    HW2 7005   4.169   4.654   0.976 -0.0970  0.4089 -1.9136
 2193SOL     OW 7006   3.128   1.798   0.922 -0.9056  0.7004  0.9589
 2193SOL    HW1 7007   3.140   1.817   1.015  0.5797 -0.5980  1.0747
 2193SOL    HW2 7008   3.177   1.717   0.907  0.5321  1.9029 -1.3642
 2194SOL     OW 7009   5.760   2.824   1.018 -0.2134  1.1335 -0.3420
 2194SOL    HW1 7010   5.706   2.894   1.053 -0.3406  0.6614  0.4326
 2194SOL    HW2 7011   5.828   2.869   0.968 -0.4981  1.7891 -0.1472
 2195SOL     OW 7012   1.681   2.306   3.023 -0.6206  0.1621 -0.4435
 2195SOL    HW1 7013   1.601   2.253   3.013 -0.2140 -0.4251 -0.6937
 2195SOL    HW2 7014   1.751   2.247   2.995 -0.0403  0.4872  0.3164
 2196SOL     OW 7015   5.680   4.795   4.948 -0.2945 -0.0965  0.3551
 2196SOL    HW1 7016   5.608   4.735   4.970 -0.3327  0.2974  1.3739
 2196SOL    HW2 7017   5.748   4.774   5.012 -0.8083  1.8118  1.6044
 2197SOL     OW 7018   4.881   3.085   5.971 -0.0365 -0.2534 -0.3547
 2197SOL    HW1 7019   4.853   3.085   5.880  0.3691  1.8433 -0.5359
 2197SOL    HW2 7020   4.812   3.038   6.018 -0.6792 -0.5944 -1.6040
 2198SOL     OW 7021   4.869   2.621   4.562  0.0770  0.0730  0.3927
 2198SOL    HW1 7022   4.949   2.577   4.533  0.2891 -0.0958  1.2199
 2198SOL    HW2 7023   4.899   2.693   4.617 -0.3477 -0.2194  1.0221
 2199SOL     OW 7024   3.147   4.873   0.162  0.3800  0.2471 -0.4587
 2199SOL    HW1 7025   3.165   4.790   0.119  1.7012  1.6910 -2.8711
 2199SOL    HW2 7026   3.052   4.872   0.175  0.4828 -2.1117  0.7943
 2200SOL     OW 7027   1.298   3.633   4.475  0.4647  0.0156  0.2874
 2200SOL    HW1 7028   1.304   3.646   4.380  1.7710 -0.1430  0.3246
 2200SOL    HW2 7029   1.232   3.695   4.504 -0.7129 -0.6527 -0.8598
 2201SOL     OW 7030   0.399   2.570   4.647  0.6334 -0.2361 -0.4883
 2201SOL    HW1 7031   0.491   2.543   4.644  0.3538 -1.1671 -1.4272
 2201SOL    HW2 7032   0.402   2.665   4.643  1.5412 -0.2927 -1.8237
 2202SOL     OW 7033   1.218   5.288   5.242  0.7299  0.7085 -0.3508
 2202SOL    HW1 7034   1.166   5.210   5.260  1.8660  0.3354  1.6926
 2202SOL    HW2 7035   1.156   5.361   5.251  0.3090  0.2111  0.9907
 2203SOL     OW 7036   1.694   2.167   5.130 -0.4411  0.4687 -0.0606
 2203SOL    HW1 7037   1.703   2.128   5.217  2.7665 -0.1661 -0.5438
 2203SOL    HW2 7038   1.624   2.231   5.140  0.2310  0.8817  3.1778
 2204SOL     OW 7039   2.156   2.306   2.080 -0.0786 -0.1170 -0.3387
 2204SOL    HW1 7040   2.167   2.400   2.068 -0.7999  0.1137  0.6357
 2204SOL    HW2 7041   2.204   2.286   2.160  0.6596 -0.7167 -0.9195
 2205SOL     OW 7042   4.477   4.795   4.682  0.0092  0.1315 -0.3077
 2205SOL    HW1 7043   4.560   4.765   4.644  0.4324 -2.3394  2.2002
 2205SOL    HW2 7044   4.502   4.854   4.753 -0.4748  0.5705 -0.4934
 2206SOL     OW 7045   0.243   4.213   0.338 -0.2757 -0.0930  0.8265
 2206SOL    HW1 7046   0.245   4.308   0.323  0.9692  0.1191  2.1088
 2206SOL    HW2 7047   0.196   4.178   0.263  0.3196  1.4222 -0.3101
 2207SOL     OW 7048   0.812   4.604   2.802  0.0490  0.1238 -0.7461
 2207SOL    HW1 7049   0.803   4.679   2.743  1.0932 -0.1651 -1.3106
 2207SOL    HW2 7050   0.876   4.633   2.867 -0.4258  0.1247 -0.2784
 2208SOL     OW 7051   2.943   2.017   5.794 -0.4026 -0.1774  0.3546
 2208SOL    HW1 7052   2.922   1.953   5.726  1.0184  0.1608 -0.4367
 2208SOL    HW2 7053   2.858   2.043   5.830 -1.1000 -1.2041 -0.5064
 2209SOL     OW 7054   5.013   4.327   3.834 -0.4552 -0.2676 -0.3436
 2209SOL    HW1 7055   5.044   4.409   3.873 -0.1413  0.3945 -1.9136
 2209SOL    HW2 7056   5.056   4.258   3.886  0.7401  0.5875 -0.1447
 2210SOL     OW 7057   5.215   5.387   4.944 -0.0872  0.2657  0.0830
 2210SOL    HW1 7058   5.205   5.384   4.849  0.8410  1.9623 -0.1028
 2210SOL    HW2 7059   5.309   5.377   4.959 -0.2984 -0.6598  0.8768
 2211SOL     OW 7060   0.575   6.190   1.602 -0.1858 -0.2989  0.3646
 2211SOL    HW1 7061   0.536   6.253   1.542  1.0047 -0.8832 -1.0971
 2211SOL    HW2 7062   0.579   6.235   1.686  0.9019  1.6894 -0.6967
 2212SOL     OW 7063   3.300   6.205   4.816 -0.3926  0.2489  0.3937
 2212SOL    HW1 7064   3.285   6.166   4.730 -0.9389  0.1043  0.5518
 2212SOL    HW2 7065   3.367   6.273   4.800  0.5958 -0.7582  0.1351
 2213SOL     OW 7066   1.841   5.842   4.616 -0.3451  0.2218  0.2081
 2213SOL    HW1 7067   1.900   5.910   4.583  1.5353 -1.0450  0.8508
 2213SOL    HW2 7068   1.770   5.839   4.551  1.3269  0.3765 -1.7091
 2214SOL     OW 7069   5.294   3.308   2.199  0.3602  0.2725  0.1861
 2214SOL    HW1 7070   5.368   3.291   2.258  0.7469 -0.1040 -0.3906
 2214SOL    HW2 7071   5.241   3.372   2.245  0.0803 -0.8007  1.4259
 2215SOL     OW 7072   3.521   1.949   4.946  0.2130  0.5493 -0.4302
 2215SOL    HW1 7073   3.573   2.008   5.001  0.2158  0.5056 -0.3852
 2215SOL    HW2 7074   3.586   1.901   4.895  0.2253  0.3876 -0.2653
 2216SOL     OW 7075   1.691   1.198   2.765  0.3517 -0.1651 -0.3117
 2216SOL    HW1 7076   1.683   1.106   2.788  0.4255 -0.4109 -1.2462
 2216SOL    HW2 7077   1.780   1.208   2.732 -0.1727 -0.1538 -1.8324
 2217SOL     OW 7078   2.976   2.582   0.014  0.1980 -0.1149 -0.0177
 2217SOL    HW1 7079   3.005   2.632  -0.062 -1.5707  0.6025 -0.2846
 2217SOL    HW2 7080   2.972   2.646   0.085 -0.2193 -0.2972  0.1268
 2218SOL     OW 7081   1.202   3.882   0.530  0.1181 -0.3663  0.1992
 2218SOL    HW1 7082   1.263   3.953   0.551 -0.5243  0.4018 -0.4854
 2218SOL    HW2 7083   1.116   3.923   0.530 -0.2694 -1.1607 -0.1470
 2219SOL     OW 7084   0.962   0.856   1.408 -0.2045 -0.2160 -0.6840
 2219SOL    HW1 7085   0.900   0.891   1.472 -0.5509  0.2288 -1.2617
 2219SOL    HW2 7086   1.044   0.848   1.457 -0.5023 -0.0267 -0.1442
 2220SOL     OW 7087   2.644   3.953   3.030  0.4459 -0.2273  0.2286
 2220SOL    HW1 7088   2.695   3.898   3.089 -0.2357  0.3812  1.4154
 2220SOL    HW2 7089   2.680   3.934   2.943  2.3907 -0.1213  0.9604
 2221SOL     OW 7090   1.352   1.207   1.142 -0.2922 -0.4824  0.3937
 2221SOL    HW1 7091   1.429   1.213   1.085 -0.2220 -0.8204  0.4497
 2221SOL    HW2 7092   1.368   1.129   1.196 -0.2420 -0.0235  1.0539
 2222SOL     OW 7093   2.295   3.101   1.220  0.3191 -0.2714 -0.2853
 2222SOL    HW1 7094   2.239   3.135   1.290  0.8961  0.1427 -0.0169
 2222SOL    HW2 7095   2.321   3.179   1.171 -2.2446 -0.7366 -2.6579
 2223SOL     OW 7096   5.310   0.044   1.333 -0.1262  0.1268  0.6826
 2223SOL    HW1 7097   5.375   0.069   1.267 -0.3497  1.7116  1.0287
 2223SOL    HW2 7098   5.359   0.038   1.414 -0.1924  0.0689  0.7186
 2224SOL     OW 7099   1.235   2.038   1.226 -0.0028  0.7914  0.0583
 2224SOL    HW1 7100   1.219   2.067   1.136  1.7061  2.1243  0.1227
 2224SOL    HW2 7101   1.149   2.038   1.267 -0.9484 -0.6877 -1.7769
 2225SOL     OW 7102   0.399   4.764   1.516 -0.5734  0.2172 -0.3044
 2225SOL    HW1 7103   0.436   4.721   1.593 -0.8903 -1.1995 -0.9084
 2225SOL    HW2 7104   0.466   4.827   1.489  0.2488 -0.4487  0.1598
 2226SOL     OW 7105   0.411   5.006   4.777  0.0654  0.7273 -0.3929
 2226SOL    HW1 7106   0.472   5.077   4.798  1.8300 -1.3324  2.2014
 2226SOL    HW2 7107   0.396   4.961   4.861 -1.9842 -1.1910 -1.6622
 2227SOL     OW 7108   3.114   0.388   5.123 -0.4039  0.1974  0.1996
 2227SOL    HW1 7109   3.175   0.394   5.196  0.2664 -1.3979 -0.1978
 2227SOL    HW2 7110   3.121   0.297   5.092 -2.0131  0.3260 -0.6867
 2228SOL     OW 7111   2.476   4.679   1.720  0.0130  0.2775  0.1119
 2228SOL    HW1 7112   2.559   4.725   1.704 -0.4206  0.9633 -0.2095
 2228SOL    HW2 7113   2.480   4.656   1.813 -1.4052  4.4816  1.4241
 2229SOL     OW 7114   2.887   5.177   3.275  0.6713  0.2908 -0.1254
 2229SOL    HW1 7115   2.924   5.264   3.256 -0.1107  0.6876  0.1446
 2229SOL    HW2 7116   2.804   5.195   3.317 -0.6958 -0.5585 -2.2822
 2230SOL     OW 7117   4.407   1.387   5.540 -0.7137 -0.1694  0.4035
 2230SOL    HW1 7118   4.495   1.395   5.577 -0.8150  0.1142  0.5857
 2230SOL    HW2 7119   4.408   1.303   5.494 -0.2683 -0.0495  0.1930
 2231SOL     OW 7120   2.079   0.642   0.261 -0.1768 -0.4163 -0.0898
 2231SOL    HW1 7121   2.166   0.621   0.293 -0.8610 -1.9660  0.8576
 2231SOL    HW2 7122   2.029   0.561   0.271 -2.0742  0.7800  0.6154
 2232SOL     OW 7123   3.658   0.164   1.177  0.4288  0.0797 -0.1437
 2232SOL    HW1 7124   3.710   0.091   1.210  1.0736  0.4310 -0.3658
 2232SOL    HW2 7125   3.655   0.226   1.250  0.6236  0.2179 -0.2536
 2233SOL     OW 7126   4.462   0.587   3.240 -0.0603 -0.5689  0.5521
 2233SOL    HW1 7127   4.437   0.501   3.207 -1.4061 -0.0586  0.2064
 2233SOL    HW2 7128   4.441   0.584   3.333  1.3200 -1.1148  0.8719
 2234SOL     OW 7129   2.687   0.484   0.878  0.3214 -0.3449 -0.6869
 2234SOL    HW1 7130   2.737   0.541   0.936 -0.8121  0.3593 -0.3631
 2234SOL    HW2 7131   2.609   0.462   0.929 -0.6250  0.1585 -1.8756
 2235SOL     OW 7132   3.600   3.633   4.507 -0.0592 -0.0988 -0.3497
 2235SOL    HW1 7133   3.595   3.667   4.597 -0.4848  0.8138 -0.7154
 2235SOL    HW2 7134   3.620   3.540   4.519  1.7054  0.3513  0.6597
 2236SOL     OW 7135   3.214   2.212   6.215  0.0365 -0.1842  0.4197
 2236SOL    HW1 7136   3.208   2.265   6.135  0.2392  0.0254  0.5429
 2236SOL    HW2 7137   3.173   2.267   6.283 -0.1370 -0.3624  0.4600
 2237SOL     OW 7138   4.013   4.701   5.253 -0.5615 -0.2410  0.4286
 2237SOL    HW1 7139   4.036   4.610   5.232 -1.9016 -0.6257  0.5230
 2237SOL    HW2 7140   4.089   4.752   5.224 -0.5481 -1.1826 -1.3848
 2238SOL     OW 7141   6.048   1.752   0.324 -0.3092  0.5661  0.2165
 2238SOL    HW1 7142   6.036   1.810   0.399 -0.8209  1.5621 -0.6179
 2238SOL    HW2 7143   6.140   1.726   0.329 -0.5851 -0.2613  1.7881
 2239SOL     OW 7144   1.245   4.407   6.147  0.1198  0.1120 -0.1935
 2239SOL    HW1 7145   1.316   4.412   6.211  0.2123  0.4283 -0.3167
 2239SOL    HW2 7146   1.169   4.444   6.192  0.3154  0.8299 -0.4399
 2240SOL     OW 7147   5.790   1.618   3.552  0.3306 -0.3148 -0.1348
 2240SOL    HW1 7148   5.840   1.629   3.471  0.6864 -1.1251 -0.0320
 2240SOL    HW2 7149   5.844   1.562   3.607  0.0192  0.1026  0.6149
 2241SOL     OW 7150   0.456   1.667   4.680 -0.0182  0.7488 -0.7300
 2241SOL    HW1 7151   0.391   1.729   4.713 -1.2919 -0.9505  0.0985
 2241SOL    HW2 7152   0.481   1.615   4.757  0.5099 -0.2068 -1.5207
 2242SOL     OW 7153   4.378   4.482   3.661 -0.1193 -0.3810  0.5408
 2242SOL    HW1 7154   4.352   4.530   3.582 -2.5600 -1.7138  0.3989
 2242SOL    HW2 7155   4.456   4.526   3.693  0.9273  0.2621 -2.5817
 2243SOL     OW 7156   3.187   5.626   1.347  0.5137 -0.3876  0.8340
 2243SOL    HW1 7157   3.159   5.715   1.371  1.7277 -0.3891  2.3882
 2243SOL    HW2 7158   3.111   5.589   1.301  0.8553  2.3143 -2.3490
 2244SOL     OW 7159   5.244   3.132   6.132  0.1096 -0.3075 -0.8285
 2244SOL    HW1 7160   5.212   3.085   6.209  1.3240  0.8257  0.4379
 2244SOL    HW2 7161   5.168   3.179   6.099 -0.0711  0.5936  0.7773
 2245SOL     OW 7162   1.534   1.555   3.367  0.4310 -0.3216  0.1773
 2245SOL    HW1 7163   1.577   1.606   3.437 -0.1841  2.5694 -1.3928
 2245SOL    HW2 7164   1.440   1.566   3.384  0.2274  1.5956 -1.7495
 2246SOL     OW 7165   5.304   5.071   3.840 -0.3983 -0.0016  0.2359
 2246SOL    HW1 7166   5.273   5.087   3.751  1.0569 -2.7893 -0.9136
 2246SOL    HW2 7167   5.398   5.091   3.837 -0.3865  0.1418  1.2217
 2247SOL     OW 7168   5.997   1.358   4.391  0.5862 -0.4375 -0.3391
 2247SOL    HW1 7169   5.951   1.327   4.468  0.4782 -1.7482 -0.9121
 2247SOL    HW2 7170   5.929   1.367   4.324  0.8892 -0.6623 -0.6795
 2248SOL     OW 7171   1.114   3.296   0.467  0.4652  0.9697  0.2420
 2248SOL    HW1 7172   1.019   3.302   0.477  0.4329  1.2543 -0.1972
 2248SOL    HW2 7173   1.147   3.376   0.508  0.3491  2.0180 -1.5859
 2249SOL     OW 7174   4.807   5.537   6.095  0.4267  0.2316 -0.1440
 2249SOL    HW1 7175   4.780   5.454   6.055  0.3452  1.3078 -2.5152
 2249SOL    HW2 7176   4.793   5.602   6.026 -0.4716  2.4104  1.9607
 2250SOL     OW 7177   1.342   3.935   2.922 -0.1231  0.4575 -0.0868
 2250SOL    HW1 7178   1.274   3.911   2.859  0.2022 -0.4091 -0.1252
 2250SOL    HW2 7179   1.306   3.912   3.007  1.0963 -2.5992 -0.2706
 2251SOL     OW 7180   0.566   1.539   0.700  0.3721  0.1904  0.0590
 2251SOL    HW1 7181   0.660   1.553   0.707  0.4898 -0.2512 -0.6249
 2251SOL    HW2 7182   0.527   1.618   0.739  1.0195  0.4832  0.1202
 2252SOL     OW 7183   5.871   2.841   5.857 -0.0437  0.0972 -0.0817
 2252SOL    HW1 7184   5.919   2.836   5.774 -0.4721 -0.3663 -0.3030
 2252SOL    HW2 7185   5.785   2.874   5.833 -0.5044 -0.9680  0.0266
 2253SOL     OW 7186   5.210   5.647   0.964 -0.2576  0.0964  0.5457
 2253SOL    HW1 7187   5.129   5.604   0.990  0.1146 -0.5817  0.5922
 2253SOL    HW2 7188   5.183   5.736   0.940 -0.8328  0.2403  1.6924
 2254SOL     OW 7189   3.055   3.216   3.613 -0.1579 -0.3158 -0.0779
 2254SOL    HW1 7190   3.102   3.161   3.550 -0.4585 -0.3839 -0.2405
 2254SOL    HW2 7191   3.125   3.255   3.666  0.1943  0.8579 -1.3391
 2255SOL     OW 7192   0.220   5.208   2.212 -0.8036  0.0356 -0.3292
 2255SOL    HW1 7193   0.131   5.179   2.195 -1.2212  0.0016  1.6074
 2255SOL    HW2 7194   0.262   5.133   2.254  0.0532  0.1604 -0.9296
 2256SOL     OW 7195   3.479   2.979   3.979 -0.2129  0.0016  0.2765
 2256SOL    HW1 7196   3.386   2.972   3.956 -0.2493  0.6502  0.2076
 2256SOL    HW2 7197   3.479   3.009   4.070 -0.0678  0.0299  0.2671
 2257SOL     OW 7198   5.179   2.860   1.593 -0.0133  0.6006  0.4185
 2257SOL    HW1 7199   5.268   2.886   1.568 -0.9877  4.6234  0.6024
 2257SOL    HW2 7200   5.122   2.909   1.535 -2.1931 -1.1968  0.9118
 2258SOL     OW 7201   2.025   1.428   5.502 -0.0752  0.4407 -0.1220
 2258SOL    HW1 7202   2.087   1.362   5.471  0.9397  0.8953  0.9028
 2258SOL    HW2 7203   2.071   1.474   5.571 -1.9245  0.1167  1.4110
 2259SOL     OW 7204   0.286   2.769   3.657 -0.3930 -0.1849  0.0034
 2259SOL    HW1 7205   0.365   2.743   3.703 -1.0620 -2.4915 -0.0591
 2259SOL    HW2 7206   0.233   2.813   3.723  0.4897  0.5085  0.2814
 2260SOL     OW 7207   4.368   3.155   2.251  0.3885  0.0352  0.4647
 2260SOL    HW1 7208   4.398   3.244   2.235 -0.7012  1.0936  3.5463
 2260SOL    HW2 7209   4.441   3.114   2.299  0.3223 -0.2725  0.3046
 2261SOL     OW 7210   4.311   1.150   0.790  0.3556 -0.1405 -0.2251
 2261SOL    HW1 7211   4.291   1.209   0.717 -1.0271 -0.1450  0.1169
 2261SOL    HW2 7212   4.354   1.206   0.855 -0.8589  0.5062  0.0565
 2262SOL     OW 7213   0.144   0.318   2.709  0.4233 -0.0808 -0.5359
 2262SOL    HW1 7214   0.240   0.317   2.711  0.4376  1.0083 -0.1315
 2262SOL    HW2 7215   0.120   0.391   2.766 -0.7510 -2.2144  1.8519
 2263SOL     OW 7216   2.522   3.873   0.306 -0.1423  0.7565 -0.1568
 2263SOL    HW1 7217   2.458   3.944   0.295 -0.7993  0.3885  1.0955
 2263SOL    HW2 7218   2.546   3.876   0.398  0.1398 -0.3811 -0.1738
 2264SOL     OW 7219   2.041   5.102   1.460  0.4276  0.1955 -0.0601
 2264SOL    HW1 7220   2.014   5.070   1.547  0.8247 -0.3656 -0.1326
 2264SOL    HW2 7221   2.008   5.191   1.456 -0.4338 -0.0945  0.2912
 2265SOL     OW 7222   0.266   0.313   5.599 -0.0026 -0.0465 -0.1493
 2265SOL    HW1 7223   0.314   0.359   5.530 -1.5637  3.4374  0.8438
 2265SOL    HW2 7224   0.332   0.295   5.666  1.2170 -2.0634 -1.7797
 2266SOL     OW 7225   1.218   5.987   3.395  0.4516 -0.7778 -0.3535
 2266SOL    HW1 7226   1.131   6.022   3.413  0.5109 -0.8657  0.1125
 2266SOL    HW2 7227   1.269   6.064   3.367 -0.1804 -0.9810 -2.1982
 2267SOL     OW 7228   2.800   4.687   4.045 -0.1177 -0.3688 -0.0616
 2267SOL    HW1 7229   2.757   4.648   4.121 -1.8701  1.0444 -0.2625
 2267SOL    HW2 7230   2.842   4.766   4.080  0.7020 -0.7269 -0.2247
 2268SOL     OW 7231   3.675   3.688   3.919 -0.6526  0.1745  0.4195
 2268SOL    HW1 7232   3.594   3.736   3.937 -0.0021  1.8598 -0.9303
 2268SOL    HW2 7233   3.671   3.668   3.826 -0.2304 -1.1488  0.6692
 2269SOL     OW 7234   1.368   5.435   1.119  0.6805  0.2486 -0.2284
 2269SOL    HW1 7235   1.408   5.506   1.169  0.8908  0.1021 -0.1882
 2269SOL    HW2 7236   1.274   5.452   1.124  0.7392  0.6174 -0.3579
 2270SOL     OW 7237   5.358   5.198   0.323 -0.6450 -0.3569 -0.5786
 2270SOL    HW1 7238   5.285   5.139   0.303 -1.6136  0.8676 -0.7795
 2270SOL    HW2 7239   5.413   5.194   0.245 -1.4958  0.1262 -1.2291
 2271SOL     OW 7240   2.724   5.208   1.200  0.3934 -0.0085  0.0356
 2271SOL    HW1 7241   2.701   5.152   1.274 -0.0344  1.4870  1.0591
 2271SOL    HW2 7242   2.725   5.148   1.125 -0.5807 -1.2879  0.9980
 2272SOL     OW 7243   3.533   4.731   3.652  0.0964 -0.4186  0.4275
 2272SOL    HW1 7244   3.557   4.750   3.561 -0.6138  1.2460  0.5509
 2272SOL    HW2 7245   3.476   4.804   3.677 -0.2695 -1.2078  1.9981
 2273SOL     OW 7246   0.408   5.796   0.420 -0.6072 -0.4752 -0.0782
 2273SOL    HW1 7247   0.470   5.854   0.376  0.3326 -1.3530  0.0426
 2273SOL    HW2 7248   0.410   5.823   0.512 -1.4404  0.3723 -0.2879
 2274SOL     OW 7249   1.708   4.147   0.039  0.8691  0.2856 -0.2657
 2274SOL    HW1 7250   1.780   4.208   0.023  0.9049  0.0800 -0.9274
 2274SOL    HW2 7251   1.751   4.068   0.071  0.9894  0.0081 -1.0846
 2275SOL     OW 7252   1.969   5.854   5.037  0.3675  0.5381  0.3329
 2275SOL    HW1 7253   1.897   5.900   4.995  0.0531  0.7173  1.0520
 2275SOL    HW2 7254   1.951   5.861   5.131  0.0114 -1.5225  0.4713
 2276SOL     OW 7255   2.346   4.089   4.017 -0.1471  0.1851 -0.1052
 2276SOL    HW1 7256   2.439   4.085   4.041 -0.0330  1.8100 -0.1714
 2276SOL    HW2 7257   2.344   4.072   3.923  0.1269  0.5430 -0.1762
 2277SOL     OW 7258   1.183   2.327   5.364 -0.4262  0.2250  0.1685
 2277SOL    HW1 7259   1.158   2.277   5.286  1.3328  1.6541 -1.4139
 2277SOL    HW2 7260   1.120   2.400   5.367  0.4635  1.0795 -0.9323
 2278SOL     OW 7261   1.852   0.349   5.566 -0.5823 -0.3475 -0.3628
 2278SOL    HW1 7262   1.781   0.409   5.544 -0.6815 -0.0269  0.7468
 2278SOL    HW2 7263   1.815   0.262   5.552 -1.7487 -0.2361  1.6634
 2279SOL     OW 7264   2.598   5.467   5.154  0.4352 -0.3130  0.2221
 2279SOL    HW1 7265   2.685   5.488   5.188 -0.4604  0.6268  2.0896
 2279SOL    HW2 7266   2.553   5.551   5.149 -1.5266 -1.0517  2.9021
 2280SOL     OW 7267   5.252   2.855   2.351  0.0719 -0.2677 -0.1575
 2280SOL    HW1 7268   5.308   2.911   2.297  0.6733 -0.2820  0.4386
 2280SOL    HW2 7269   5.173   2.906   2.364  0.6330  0.4711  0.4222
 2281SOL     OW 7270   2.026   4.128   1.475 -0.2510  0.2076 -0.1498
 2281SOL    HW1 7271   1.974   4.074   1.534 -0.1530 -0.3842 -0.5926
 2281SOL    HW2 7272   2.093   4.166   1.531 -0.2632 -0.2084  0.1561
 2282SOL     OW 7273   4.378   5.900   5.349 -0.1739  0.2433 -0.4439
 2282SOL    HW1 7274   4.461   5.911   5.394 -0.4126  0.2574  0.0032
 2282SOL    HW2 7275   4.328   5.842   5.406  0.2499 -1.3985 -1.6653
 2283SOL     OW 7276   4.594   1.328   2.990 -0.3113  0.6069 -0.5956
 2283SOL    HW1 7277   4.569   1.291   2.905 -1.1543  0.5237 -0.3215
 2283SOL    HW2 7278   4.631   1.413   2.969 -2.3808  1.4748 -0.9263
 2284SOL     OW 7279   2.896   4.165   4.246 -0.1162  0.1652 -0.0400
 2284SOL    HW1 7280   2.977   4.151   4.295  0.7337 -0.9616 -1.6467
 2284SOL    HW2 7281   2.917   4.233   4.182 -0.7870  0.6581  0.2529
 2285SOL     OW 7282   0.384   5.498   2.554 -0.1227  0.5491 -0.0963
 2285SOL    HW1 7283   0.479   5.504   2.550 -0.0392 -0.8642 -3.3500
 2285SOL    HW2 7284   0.353   5.585   2.532  0.4565  0.5078 -1.1205
 2286SOL     OW 7285   3.275   4.908   1.531  0.1845 -0.4431  0.1559
 2286SOL    HW1 7286   3.241   4.829   1.489 -0.1860 -0.1146 -0.1755
 2286SOL    HW2 7287   3.328   4.876   1.604 -0.9609 -0.9721  0.7826
 2287SOL     OW 7288   3.684   5.943   4.186 -0.3970 -0.3598 -0.0536
 2287SOL    HW1 7289   3.599   5.942   4.230 -0.0734 -0.6329  0.5905
 2287SOL    HW2 7290   3.681   5.868   4.127  0.1519 -1.6889  1.5085
 2288SOL     OW 7291   2.328   3.674   3.722 -0.1481  0.8648 -0.5263
 2288SOL    HW1 7292   2.304   3.765   3.702 -2.4670  0.7815  1.3915
 2288SOL    HW2 7293   2.275   3.622   3.662  1.3177  0.7101 -1.7531
 2289SOL     OW 7294   2.405   1.631   2.873 -0.2377 -0.4886  0.5798
 2289SOL    HW1 7295   2.457   1.595   2.802  1.4723 -0.4682  1.7737
 2289SOL    HW2 7296   2.447   1.598   2.953 -0.8479  1.1556  1.6297
 2290SOL     OW 7297   0.708   4.064   4.698 -0.2005  0.2982 -0.2063
 2290SOL    HW1 7298   0.699   3.974   4.667 -0.4197  0.5289 -0.8262
 2290SOL    HW2 7299   0.781   4.100   4.647  0.4097  0.2316  0.6060
 2291SOL     OW 7300   1.484   1.336   3.206  0.1049  0.1062 -0.0692
 2291SOL    HW1 7301   1.513   1.409   3.260 -1.1911  0.8382 -0.3257
 2291SOL    HW2 7302   1.560   1.315   3.151  1.5195 -0.7743  2.0868
 2292SOL     OW 7303   3.540   3.663   4.790 -0.7925  0.3571 -0.2005
 2292SOL    HW1 7304   3.551   3.757   4.808 -0.6310  0.6990 -1.9378
 2292SOL    HW2 7305   3.482   3.632   4.859  0.4238  1.3871  1.3511
 2293SOL     OW 7306   4.124   1.463   3.346  0.4874 -0.5619  0.1817
 2293SOL    HW1 7307   4.171   1.380   3.334  0.2698 -0.6135 -0.3457
 2293SOL    HW2 7308   4.194   1.528   3.356  0.7158 -0.5027 -1.4884
 2294SOL     OW 7309   0.135   1.957   3.975  0.0175  0.0573  0.4209
 2294SOL    HW1 7310   0.147   2.040   3.928 -2.9538  0.9904  1.0861
 2294SOL    HW2 7311   0.123   1.892   3.906 -0.3017  0.6750 -0.1205
 2295SOL     OW 7312   1.278   4.099   6.062  0.7623 -0.3824  0.3966
 2295SOL    HW1 7313   1.230   4.167   6.014  0.7396 -0.8874 -0.3191
 2295SOL    HW2 7314   1.247   4.107   6.152 -0.3748 -0.4222  0.0371
 2296SOL     OW 7315   2.441   4.249   3.553  0.1645  0.0354  0.1016
 2296SOL    HW1 7316   2.471   4.241   3.462 -0.2940  0.2842 -0.0751
 2296SOL    HW2 7317   2.412   4.161   3.577  1.0528 -0.2224  0.2889
 2297SOL     OW 7318   3.260   5.241   2.980 -0.2278  0.3533  0.1186
 2297SOL    HW1 7319   3.329   5.211   3.039 -0.1256  1.9579  0.8633
 2297SOL    HW2 7320   3.195   5.170   2.982  0.6503 -0.4652  0.6554
 2298SOL     OW 7321   5.650   2.593   3.824 -0.5031 -0.6925  0.4849
 2298SOL    HW1 7322   5.740   2.607   3.853 -0.4004 -0.4695  0.0660
 2298SOL    HW2 7323   5.644   2.499   3.809  0.3415 -0.4750 -1.6464
 2299SOL     OW 7324   2.737   0.717   2.441  0.4127 -0.0143  0.4207
 2299SOL    HW1 7325   2.759   0.777   2.512 -0.7469  0.7097  0.1978
 2299SOL    HW2 7326   2.694   0.772   2.376  1.3844 -0.6730 -0.8332
 2300SOL     OW 7327   2.038   1.337   2.938 -0.8842 -0.0659 -0.2584
 2300SOL    HW1 7328   2.058   1.272   3.005 -0.3745  0.6941  0.3459
 2300SOL    HW2 7329   2.109   1.401   2.945 -0.7452 -0.0406 -1.6203
 2301SOL     OW 7330   3.079   3.418   2.431  0.3066  0.0273  0.4926
 2301SOL    HW1 7331   2.987   3.392   2.433  0.4596 -0.5439  0.2952
 2301SOL    HW2 7332   3.101   3.421   2.338  0.2999  0.8620  0.5102
 2302SOL     OW 7333   2.439   0.883   5.921 -0.4428  0.2039 -0.0997
 2302SOL    HW1 7334   2.509   0.904   5.983 -0.8153 -0.6198  0.6130
 2302SOL    HW2 7335   2.467   0.800   5.881 -0.5529  0.3662 -0.5186
 2303SOL     OW 7336   0.482   0.751   4.704  0.2386  0.1699 -0.1729
 2303SOL    HW1 7337   0.398   0.749   4.750  0.4056 -0.7175  0.1069
 2303SOL    HW2 7338   0.525   0.831   4.735 -0.5958  0.7569 -0.4970
 2304SOL     OW 7339   0.832   0.560   3.235 -0.5586 -0.1852 -0.1307
 2304SOL    HW1 7340   0.748   0.517   3.218 -0.9634  0.7388 -0.5298
 2304SOL    HW2 7341   0.808   0.649   3.262  0.2792 -0.0535  0.2122
 2305SOL     OW 7342   5.514   1.974   5.816 -0.1321  0.2263 -0.3701
 2305SOL    HW1 7343   5.517   1.915   5.741  0.9080  0.8795 -0.8628
 2305SOL    HW2 7344   5.421   1.999   5.824 -1.1492 -3.4590  1.4858
 2306SOL     OW 7345   2.336   3.374   3.344  0.9969  0.1056 -1.1101
 2306SOL    HW1 7346   2.364   3.339   3.429 -0.5266  0.9172 -0.2442
 2306SOL    HW2 7347   2.350   3.301   3.283  0.6969 -1.0226  0.1135
 2307SOL     OW 7348   2.029   2.887   1.542 -0.0177 -0.0980 -0.2999
 2307SOL    HW1 7349   2.046   2.801   1.581  0.3436  0.4782  0.8530
 2307SOL    HW2 7350   2.023   2.870   1.448 -1.7023 -1.6502  0.0397
 2308SOL     OW 7351   0.937   3.079   5.068 -0.1625  0.1351 -0.2631
 2308SOL    HW1 7352   0.846   3.092   5.041 -0.0174  0.4604 -0.6065
 2308SOL    HW2 7353   0.948   3.135   5.144 -0.1716  0.3084 -0.3892
 2309SOL     OW 7354   2.719   3.495   0.497  0.2589 -0.5707  0.1515
 2309SOL    HW1 7355   2.804   3.515   0.458 -0.1780  0.2495 -0.4247
 2309SOL    HW2 7356   2.739   3.459   0.583  1.1835 -0.1267  0.1292
 2310SOL     OW 7357   3.357   0.225   0.124  0.4617  0.1202 -0.2437
 2310SOL    HW1 7358   3.341   0.308   0.169  1.9458 -0.6289  1.7953
 2310SOL    HW2 7359   3.300   0.163   0.169  0.0676 -0.1862 -1.1395
 2311SOL     OW 7360   6.188   2.666   0.011  0.3830  0.5288  0.3072
 2311SOL    HW1 7361   6.164   2.688  -0.079  0.2011 -1.3956 -0.1604
 2311SOL    HW2 7362   6.107   2.676   0.061  0.2566  0.6673  0.0759
 2312SOL     OW 7363   4.031   1.476   1.165  0.1540 -0.5211  0.1438
 2312SOL    HW1 7364   4.032   1.563   1.206  1.9731 -0.5473  0.2367
 2312SOL    HW2 7365   3.944   1.470   1.124 -0.4362  0.8656  1.1013
 2313SOL     OW 7366   3.871   0.459   3.023 -0.3652  0.0639  0.9804
 2313SOL    HW1 7367   3.896   0.366   3.021 -2.0136 -0.4121  1.0526
 2313SOL    HW2 7368   3.775   0.458   3.017 -0.3882  1.7854  0.6352
 2314SOL     OW 7369   5.635   4.231   0.146  0.5184  0.5022 -0.2739
 2314SOL    HW1 7370   5.641   4.326   0.131 -0.6046  0.4594 -1.1698
 2314SOL    HW2 7371   5.672   4.218   0.232 -1.1301  2.0697  0.7535
 2315SOL     OW 7372   4.905   2.914   2.167 -0.2088  0.2407 -0.3849
 2315SOL    HW1 7373   4.952   2.997   2.158  0.0515  0.0131 -1.2393
 2315SOL    HW2 7374   4.854   2.906   2.086  0.5039 -0.8759 -0.7407
 2316SOL     OW 7375   6.126   1.658   3.878  0.3484 -0.7105 -0.0692
 2316SOL    HW1 7376   6.169   1.575   3.898  0.1043 -0.3182  2.4844
 2316SOL    HW2 7377   6.199   1.720   3.868  0.4751 -0.7612  0.5139
 2317SOL     OW 7378   1.616   0.383   3.589 -0.4543 -0.4227  0.0630
 2317SOL    HW1 7379   1.664   0.453   3.632  0.9818 -0.2978 -1.6515
 2317SOL    HW2 7380   1.539   0.369   3.645  0.1465  1.2598  1.3948
 2318SOL     OW 7381   2.190   0.252   2.840  0.2260 -0.2786  0.3385
 2318SOL    HW1 7382   2.271   0.270   2.793 -0.4479  0.5758 -0.5298
 2318SOL    HW2 7383   2.216   0.190   2.908  1.5357 -0.2971 -0.1379
 2319SOL     OW 7384   2.494   1.992   3.822  0.7230 -0.4853 -0.4053
 2319SOL    HW1 7385   2.461   2.004   3.911  1.3542  1.5692 -0.3846
 2319SOL    HW2 7386   2.431   2.039   3.767  0.8831 -0.8836 -0.9364
 2320SOL     OW 7387   2.403   3.378   4.722 -0.0811 -0.3196  0.2978
 2320SOL    HW1 7388   2.345   3.435   4.670 -1.7720 -0.0733  2.3098
 2320SOL    HW2 7389   2.345   3.340   4.789  1.9403 -0.7187  1.9123
 2321SOL     OW 7390   3.772   0.921   2.007  0.0822 -0.6818  0.0140
 2321SOL    HW1 7391   3.707   0.974   2.053 -0.2581 -0.3674 -0.7986
 2321SOL    HW2 7392   3.834   0.894   2.074 -0.8277 -0.8921  0.7970
 2322SOL     OW 7393   4.256   6.170   5.328  0.1713 -0.8532  0.2071
 2322SOL    HW1 7394   4.179   6.116   5.311  0.9457 -1.3333 -2.1675
 2322SOL    HW2 7395   4.327   6.107   5.339  0.6230 -0.3720  0.0543
 2323SOL     OW 7396   2.321   0.971   4.050  0.0007  0.3865  0.0457
 2323SOL    HW1 7397   2.285   1.051   4.012  1.1474  1.0289  0.2766
 2323SOL    HW2 7398   2.363   0.999   4.131  0.3488 -0.4616  0.1714
 2324SOL     OW 7399   3.093   4.081   3.741  0.0526  0.2069  0.3290
 2324SOL    HW1 7400   2.999   4.083   3.727  0.1216  1.7896 -0.1260
 2324SOL    HW2 7401   3.109   3.998   3.787 -1.3659 -0.7619 -0.8068
 2325SOL     OW 7402   5.577   5.606   5.395 -0.0428 -0.4220  0.2072
 2325SOL    HW1 7403   5.589   5.669   5.466 -1.0637  1.9406 -1.5815
 2325SOL    HW2 7404   5.601   5.654   5.316 -0.9035 -2.2873 -1.2760
 2326SOL     OW 7405   5.518   0.493   2.907  0.5806 -0.0590  0.2925
 2326SOL    HW1 7406   5.544   0.412   2.949 -0.2682 -0.7813 -0.5303
 2326SOL    HW2 7407   5.536   0.479   2.814 -0.4720  0.3125  0.0153
 2327SOL     OW 7408   2.889   0.209   3.333 -0.1851  0.0729 -0.2888
 2327SOL    HW1 7409   2.865   0.137   3.276  0.2346 -0.3194  0.0231
 2327SOL    HW2 7410   2.958   0.256   3.284 -0.0358 -0.0876 -0.2316
 2328SOL     OW 7411   1.588   0.196   5.743 -0.0738  0.3938  0.2642
 2328SOL    HW1 7412   1.534   0.118   5.757  1.1241 -0.5487 -0.1669
 2328SOL    HW2 7413   1.654   0.167   5.679  0.1572  1.8813 -0.1993
 2329SOL     OW 7414   0.185   4.116   5.144  0.4214 -0.1475  0.1722
 2329SOL    HW1 7415   0.268   4.087   5.182 -0.0976  0.0702  1.5155
 2329SOL    HW2 7416   0.118   4.083   5.203 -0.6839 -2.4640 -2.1718
 2330SOL     OW 7417   5.719   0.626   1.416  0.4185 -0.3553 -0.2669
 2330SOL    HW1 7418   5.649   0.659   1.472  1.3213 -1.2897  1.4882
 2330SOL    HW2 7419   5.769   0.704   1.391 -1.1686  0.3160 -1.5128
 2331SOL     OW 7420   3.901   4.971   3.477 -0.4345  0.4372 -0.2100
 2331SOL    HW1 7421   3.936   4.882   3.475 -1.5413 -0.0208 -3.2774
 2331SOL    HW2 7422   3.947   5.013   3.551  0.5834 -2.4252  0.9118
 2332SOL     OW 7423   4.885   3.587   5.510  0.7323 -0.4443  0.5199
 2332SOL    HW1 7424   4.817   3.523   5.490 -1.1073  1.1986  1.2491
 2332SOL    HW2 7425   4.871   3.609   5.602  1.3141  1.0142  0.2780
 2333SOL     OW 7426   0.157   3.890   4.921  0.0559  0.5451 -0.4244
 2333SOL    HW1 7427   0.185   3.976   4.952 -1.0032  0.6647  0.2354
 2333SOL    HW2 7428   0.126   3.845   5.000 -1.8241  0.5077 -1.1504
 2334SOL     OW 7429   5.735   4.476   6.052 -0.2166 -0.0108  0.2911
 2334SOL    HW1 7430   5.691   4.391   6.061  1.0226 -0.7208  0.0030
 2334SOL    HW2 7431   5.683   4.536   6.104 -1.3448 -0.8707  0.1872
 2335SOL     OW 7432   1.234   2.128   0.942  0.2574 -0.2395  0.0123
 2335SOL    HW1 7433   1.278   2.045   0.928 -2.5118 -1.6556 -1.0400
 2335SOL    HW2 7434   1.226   2.167   0.855 -0.6773 -0.1402  0.1234
 2336SOL     OW 7435   0.771   5.243   5.421 -0.5743  0.1576  0.3892
 2336SOL    HW1 7436   0.703   5.248   5.488 -1.0566  0.8160 -0.1442
 2336SOL    HW2 7437   0.853   5.249   5.470 -0.9141  0.3941  0.9378
 2337SOL     OW 7438   2.474   1.078   3.718  0.2676  0.0332 -0.4610
 2337SOL    HW1 7439   2.429   1.015   3.662 -1.1778  0.9733 -0.3914
 2337SOL    HW2 7440   2.404   1.125   3.763  1.3531  0.7522  0.5405
 2338SOL     OW 7441   0.436   2.908   4.001  0.0666 -0.2684  0.2589
 2338SOL    HW1 7442   0.484   2.982   4.039 -2.2847  0.9767  0.9956
 2338SOL    HW2 7443   0.461   2.833   4.055  1.2554  0.3015  0.5345
 2339SOL     OW 7444   0.224   5.511   5.944 -0.2321  0.2021 -0.2184
 2339SOL    HW1 7445   0.183   5.564   6.013 -1.3883 -1.4472  0.4398
 2339SOL    HW2 7446   0.298   5.469   5.988 -0.3323 -0.0244 -0.2648
 2340SOL     OW 7447   0.698   3.776   4.628  0.2774  0.2953  0.0496
 2340SOL    HW1 7448   0.721   3.684   4.641 -0.6467 -0.6067 -3.6363
 2340SOL    HW2 7449   0.612   3.785   4.668  0.2799 -0.5043  0.2438
 2341SOL     OW 7450   2.633   3.421   4.847  0.0767  0.0038 -1.0231
 2341SOL    HW1 7451   2.663   3.510   4.829 -1.3614  0.5197 -0.9526
 2341SOL    HW2 7452   2.539   3.423   4.833 -0.3872 -0.8667  1.3925
 2342SOL     OW 7453   2.534   0.013   0.142  0.4010 -0.0660 -0.2642
 2342SOL    HW1 7454   2.591  -0.040   0.086  0.7822  1.0006 -0.9032
 2342SOL    HW2 7455   2.459   0.034   0.086 -0.4219 -1.0682  0.4256
 2343SOL     OW 7456   2.011   6.010   3.750 -0.6178  0.5670  0.2229
 2343SOL    HW1 7457   1.925   5.966   3.754  0.2929 -1.2469  0.8781
 2343SOL    HW2 7458   2.043   6.007   3.840 -0.1432  1.8962  0.1198
 2344SOL     OW 7459   2.478   5.811   6.171  0.4713 -0.3807 -0.5157
 2344SOL    HW1 7460   2.524   5.778   6.093 -0.3506  1.8003 -2.0240
 2344SOL    HW2 7461   2.413   5.743   6.191  1.0257 -1.2106 -1.4073
 2345SOL     OW 7462   2.315   4.651   4.099  0.4883 -0.8564 -0.2517
 2345SOL    HW1 7463   2.377   4.695   4.156  0.7560 -2.0012  0.3793
 2345SOL    HW2 7464   2.258   4.602   4.158 -0.9678  0.0785 -0.8276
 2346SOL     OW 7465   1.104   5.252   5.961 -0.3962 -0.5395 -0.1641
 2346SOL    HW1 7466   1.060   5.176   5.923 -2.2806  0.1336  0.5246
 2346SOL    HW2 7467   1.037   5.293   6.017  1.3774  0.1069  1.6168
 2347SOL     OW 7468   2.255   1.583   1.711 -0.6586 -0.5894  0.3866
 2347SOL    HW1 7469   2.263   1.566   1.805 -2.1432 -1.3754  0.3998
 2347SOL    HW2 7470   2.183   1.646   1.704  1.2518  1.7115 -0.0672
 2348SOL     OW 7471   2.649   1.382   1.406  0.2333 -0.0689 -0.1542
 2348SOL    HW1 7472   2.635   1.288   1.413 -1.7874  0.1737 -0.3733
 2348SOL    HW2 7473   2.641   1.401   1.312 -0.1871  0.4100 -0.0297
 2349SOL     OW 7474   4.934   0.482   3.431 -0.0279  0.7226 -0.0608
 2349SOL    HW1 7475   4.864   0.505   3.493  0.7656  1.6374  0.5130
 2349SOL    HW2 7476   5.002   0.441   3.485  0.0513  0.1583 -0.5657
 2350SOL     OW 7477   4.872   3.119   0.883  0.3846  0.6822  0.8417
 2350SOL    HW1 7478   4.781   3.125   0.854  0.0621  0.0195  1.6734
 2350SOL    HW2 7479   4.903   3.209   0.885  0.4226  0.7929 -1.4894
 2351SOL     OW 7480   5.384   5.848   3.664  0.0721 -0.1028  0.3005
 2351SOL    HW1 7481   5.323   5.876   3.595 -1.9165  1.4684  2.5067
 2351SOL    HW2 7482   5.388   5.923   3.723  3.2055 -0.6817  0.9777
 2352SOL     OW 7483   3.982   4.713   5.583 -0.0347 -0.1081 -0.1310
 2352SOL    HW1 7484   3.959   4.758   5.665 -2.1023 -0.8187 -0.2482
 2352SOL    HW2 7485   3.913   4.739   5.522 -0.8890 -2.7031 -0.4318
 2353SOL     OW 7486   5.957   1.864   0.082  0.3229 -0.9822  0.3841
 2353SOL    HW1 7487   5.989   1.795   0.141 -1.4343 -1.1086  1.2376
 2353SOL    HW2 7488   5.945   1.940   0.138 -0.6985 -0.8955  0.0548
 2354SOL     OW 7489   2.188   3.519   2.080  0.1730 -0.6752 -0.0859
 2354SOL    HW1 7490   2.174   3.588   2.016 -0.0179 -0.7542 -0.1316
 2354SOL    HW2 7491   2.189   3.438   2.028 -0.7567 -0.8112  0.0921
 2355SOL     OW 7492   1.193   3.507   2.278 -0.0943  0.1613 -0.4763
 2355SOL    HW1 7493   1.119   3.567   2.277  0.8752  1.3924 -0.9475
 2355SOL    HW2 7494   1.209   3.485   2.186  0.1296 -0.1043 -0.3782
 2356SOL     OW 7495   5.148   2.219   5.603 -0.1713 -0.6021  0.1001
 2356SOL    HW1 7496   5.099   2.271   5.667 -1.2381 -1.8553  0.3583
 2356SOL    HW2 7497   5.085   2.203   5.533  0.5561 -0.4268 -0.6018
 2357SOL     OW 7498   5.413   2.358   5.445 -0.0934 -0.2298  0.1210
 2357SOL    HW1 7499   5.469   2.333   5.372 -0.0166 -1.5901  0.6194
 2357SOL    HW2 7500   5.324   2.336   5.416  0.0621 -2.0458  0.9123
 2358SOL     OW 7501   4.261   3.161   5.482 -0.6523  0.4124 -0.4496
 2358SOL    HW1 7502   4.207   3.130   5.555  0.8230  1.2280  1.0653
 2358SOL    HW2 7503   4.263   3.088   5.420 -0.4495 -1.0276  1.1928
 2359SOL     OW 7504   3.722   0.573   0.889 -0.3420 -0.1976  0.4452
 2359SOL    HW1 7505   3.636   0.576   0.930  0.0597 -0.0088  1.3008
 2359SOL    HW2 7506   3.736   0.662   0.856  0.2855  0.2933  1.9514
 2360SOL     OW 7507   0.227   3.651   0.067  0.4424  0.1452 -0.2714
 2360SOL    HW1 7508   0.237   3.556   0.073  0.0475  0.0387 -1.1422
 2360SOL    HW2 7509   0.165   3.673   0.137 -1.1280 -0.5337 -1.3809
 2361SOL     OW 7510   2.739   0.739   1.965 -0.2667  0.4985  0.1156
 2361SOL    HW1 7511   2.732   0.759   2.059 -0.0856 -0.0506  0.2487
 2361SOL    HW2 7512   2.833   0.723   1.952 -0.4377 -0.5070  0.0649
 2362SOL     OW 7513   5.068   5.537   5.449 -0.1394  0.1375 -0.3478
 2362SOL    HW1 7514   5.009   5.480   5.498 -1.1736 -0.1502 -1.8464
 2362SOL    HW2 7515   5.091   5.606   5.510  0.4887 -1.4175  1.2677
 2363SOL     OW 7516   1.853   1.978   3.938  0.2632 -0.3234  0.7113
 2363SOL    HW1 7517   1.905   2.031   3.877 -0.3622  0.1962  0.6235
 2363SOL    HW2 7518   1.812   1.911   3.883 -0.1010 -0.0086  0.5990
 2364SOL     OW 7519   2.100   0.329   0.065  0.3576  0.1207  0.4660
 2364SOL    HW1 7520   2.035   0.366   0.006  0.6786 -0.4616 -0.2663
 2364SOL    HW2 7521   2.092   0.235   0.054 -0.0942 -0.0352  1.9223
 2365SOL     OW 7522   3.857   3.389   3.378 -0.4685  0.0259 -0.1192
 2365SOL    HW1 7523   3.772   3.348   3.396 -0.5207 -0.3212 -1.1269
 2365SOL    HW2 7524   3.914   3.316   3.353  0.0399  0.2999  0.2175
 2366SOL     OW 7525   4.345   0.237   1.302  0.9284  0.3017 -0.0580
 2366SOL    HW1 7526   4.278   0.180   1.264 -1.2783  0.8528  2.6951
 2366SOL    HW2 7527   4.333   0.321   1.258  0.6540  0.0781 -0.4138
 2367SOL     OW 7528   4.248   3.852   0.435 -0.0816 -0.2073 -0.1911
 2367SOL    HW1 7529   4.325   3.906   0.415  1.2501 -2.0533 -0.2887
 2367SOL    HW2 7530   4.174   3.910   0.420  1.2100  1.1301 -1.8053
 2368SOL     OW 7531   6.204   2.220   0.205 -0.0655  0.0341  0.0502
 2368SOL    HW1 7532   6.266   2.292   0.191  0.3199  0.5307  3.4232
 2368SOL    HW2 7533   6.260   2.143   0.219 -0.4794 -1.2437 -4.1539
 2369SOL     OW 7534   0.630   4.122   0.164 -0.2725  0.5811 -0.2030
 2369SOL    HW1 7535   0.620   4.217   0.164  0.6829  0.7064  0.9920
 2369SOL    HW2 7536   0.574   4.092   0.093 -0.0507  2.0911 -1.0548
 2370SOL     OW 7537   1.596   5.449   4.279 -0.9510  0.8098  0.3950
 2370SOL    HW1 7538   1.661   5.379   4.286 -1.4809  0.1165 -1.0803
 2370SOL    HW2 7539   1.620   5.495   4.198 -1.7775  1.0915  0.3018
 2371SOL     OW 7540   5.078   4.723   4.212 -0.5094 -0.3268 -0.3743
 2371SOL    HW1 7541   5.059   4.816   4.213  0.1616 -0.1842 -0.5403
 2371SOL    HW2 7542   5.149   4.712   4.275 -1.8703 -1.0259  1.1313
 2372SOL     OW 7543   2.224   0.271   4.176  1.0712 -0.2714 -0.0060
 2372SOL    HW1 7544   2.310   0.234   4.158  0.8477  0.1595 -2.3318
 2372SOL    HW2 7545   2.242   0.355   4.216  1.6870 -0.8402  0.9311
 2373SOL     OW 7546   4.535   3.137   1.801 -0.1142 -0.0676  0.3525
 2373SOL    HW1 7547   4.608   3.108   1.856 -0.5253 -1.0567  0.4065
 2373SOL    HW2 7548   4.457   3.112   1.850 -0.4854 -0.6431 -0.4961
 2374SOL     OW 7549   1.589   2.984   1.476 -0.7753 -0.5750 -0.1906
 2374SOL    HW1 7550   1.604   2.894   1.504 -0.3630 -0.0694  1.2681
 2374SOL    HW2 7551   1.668   3.008   1.427 -0.4511 -0.6767  0.2810
 2375SOL     OW 7552   6.146   1.895   6.108 -0.4005 -0.2309  0.3086
 2375SOL    HW1 7553   6.136   1.803   6.084 -3.4419  0.1817 -0.2999
 2375SOL    HW2 7554   6.095   1.905   6.188  0.1202  0.9011  0.5236
 2376SOL     OW 7555   5.655   2.488   3.022 -0.0929 -0.1581 -0.0699
 2376SOL    HW1 7556   5.640   2.470   2.929 -0.9977 -2.4795  0.4498
 2376SOL    HW2 7557   5.626   2.578   3.034 -0.2058  0.1055 -1.9773
 2377SOL     OW 7558   0.370   2.475   3.251  0.6251  0.1428 -0.2683
 2377SOL    HW1 7559   0.284   2.499   3.217  1.0410  1.6908 -0.2938
 2377SOL    HW2 7560   0.432   2.514   3.189  1.3625 -0.6099 -0.0277
 2378SOL     OW 7561   3.652   4.819   6.052  0.3560 -0.4037 -0.1965
 2378SOL    HW1 7562   3.640   4.724   6.050 -0.4372 -0.2992 -0.4557
 2378SOL    HW2 7563   3.564   4.854   6.064  0.6942  0.2887  0.2799
 2379SOL     OW 7564   5.958   4.495   0.945  0.1034  0.0743 -0.5290
 2379SOL    HW1 7565   5.911   4.525   0.867 -1.2067 -0.6385 -0.0522
 2379SOL    HW2 7566   5.901   4.519   1.018  0.7373 -0.3465  0.1211
 2380SOL     OW 7567   4.434   4.793   5.392  0.3798  0.1410 -0.1612
 2380SOL    HW1 7568   4.444   4.750   5.477  0.2875 -0.9506 -0.6733
 2380SOL    HW2 7569   4.481   4.735   5.331 -0.9152  0.0238 -1.0915
 2381SOL     OW 7570   4.266   1.653   2.256  0.1291  0.6009 -0.3863
 2381SOL    HW1 7571   4.313   1.691   2.182  0.6884 -0.6151 -0.6849
 2381SOL    HW2 7572   4.243   1.564   2.227  1.3139 -0.3004  1.2708
 2382SOL     OW 7573   3.900   0.747   4.769  0.2102 -1.0948  0.3165
 2382SOL    HW1 7574   3.898   0.830   4.721 -1.5574  0.0361  2.1748
 2382SOL    HW2 7575   3.992   0.722   4.770  0.5817 -0.0491 -1.7069
 2383SOL     OW 7576   2.310   4.090   1.127  0.0884  0.3909  0.1978
 2383SOL    HW1 7577   2.337   4.107   1.037 -0.1504 -1.2197 -0.2091
 2383SOL    HW2 7578   2.216   4.105   1.127  0.4952  3.6398  1.0347
 2384SOL     OW 7579   4.140   5.353   1.778  0.2551 -0.0434  0.1049
 2384SOL    HW1 7580   4.088   5.307   1.713  1.1033 -0.6643 -0.1561
 2384SOL    HW2 7581   4.097   5.438   1.788 -1.2722 -0.8239  0.5119
 2385SOL     OW 7582   4.131   1.022   4.985  0.0638  0.4573  0.2475
 2385SOL    HW1 7583   4.064   0.957   5.006 -0.2960  0.4942 -0.7283
 2385SOL    HW2 7584   4.113   1.095   5.045 -1.3657  0.8523 -0.6019
 2386SOL     OW 7585   5.156   2.422   3.365 -0.0969 -0.2489 -0.6366
 2386SOL    HW1 7586   5.143   2.404   3.458 -0.8520  1.1380 -0.4571
 2386SOL    HW2 7587   5.068   2.430   3.329  0.1857 -0.8693 -1.5054
 2387SOL     OW 7588   5.732   1.363   3.191 -0.3071  0.1945  0.0577
 2387SOL    HW1 7589   5.649   1.353   3.237  0.1542 -0.3280  0.7763
 2387SOL    HW2 7590   5.792   1.304   3.236  0.2149 -0.1482 -1.0549
 2388SOL     OW 7591   3.623   5.669   0.637 -0.4551 -0.0181  0.0788
 2388SOL    HW1 7592   3.624   5.764   0.619  1.0702 -0.0177  0.0082
 2388SOL    HW2 7593   3.555   5.658   0.703  0.9906  1.5181  1.9538
 2389SOL     OW 7594   5.853   0.995   0.362  0.2137  0.4037 -0.1649
 2389SOL    HW1 7595   5.838   1.006   0.269  1.8695  0.8200 -0.4214
 2389SOL    HW2 7596   5.908   0.916   0.368 -0.7691 -0.2605  0.5707
 2390SOL     OW 7597   1.680   1.928   1.922 -0.4220  0.0243 -0.6060
 2390SOL    HW1 7598   1.722   1.983   1.856  0.2751 -0.4811 -0.5931
 2390SOL    HW2 7599   1.611   1.882   1.873 -0.2565  0.0477 -0.8651
 2391SOL     OW 7600   0.668   2.666   1.087 -0.3590  0.1519 -0.3821
 2391SOL    HW1 7601   0.609   2.630   1.153 -0.7619  0.7171 -0.4314
 2391SOL    HW2 7602   0.611   2.693   1.015  0.1639 -1.6651 -1.5579
 2392SOL     OW 7603   3.413   1.169   3.520 -0.2784  0.6586 -0.4408
 2392SOL    HW1 7604   3.451   1.256   3.515  0.8842  0.3384  1.6215
 2392SOL    HW2 7605   3.328   1.177   3.477  0.1365  2.5955 -0.9935
 2393SOL     OW 7606   5.593   5.855   4.384 -0.3330 -0.2301 -0.5142
 2393SOL    HW1 7607   5.688   5.845   4.390 -0.4787 -1.0352  0.8012
 2393SOL    HW2 7608   5.561   5.767   4.363 -0.7724  0.1371 -1.4533
 2394SOL     OW 7609   4.129   2.779   1.704  0.1179  0.3150 -0.5025
 2394SOL    HW1 7610   4.142   2.745   1.793  1.8632  2.1931  0.0472
 2394SOL    HW2 7611   4.181   2.722   1.648 -1.8622 -1.5566 -0.5558
 2395SOL     OW 7612   4.773   2.432   3.165 -0.1642 -0.4086 -0.6211
 2395SOL    HW1 7613   4.754   2.366   3.232  1.1535  0.8982  1.1466
 2395SOL    HW2 7614   4.691   2.480   3.155 -0.5965 -1.1144 -0.5588
 2396SOL     OW 7615   4.777   0.232   0.757 -0.3151 -0.5336  0.0280
 2396SOL    HW1 7616   4.735   0.270   0.681 -2.7437 -1.5337  0.7550
 2396SOL    HW2 7617   4.808   0.147   0.727 -3.9296 -2.2874  0.6642
 2397SOL     OW 7618   5.655   2.809   2.181  0.0821  0.3497 -0.1141
 2397SOL    HW1 7619   5.708   2.875   2.136 -1.7621  1.4645 -0.7758
 2397SOL    HW2 7620   5.574   2.854   2.202 -1.4120 -1.7813 -0.9140
 2398SOL     OW 7621   4.771   2.799   0.084 -0.6424 -0.1969  0.0481
 2398SOL    HW1 7622   4.859   2.835   0.068  0.5719 -1.9074  2.2683
 2398SOL    HW2 7623   4.716   2.876   0.100  0.8002  0.8666  0.1403
 2399SOL     OW 7624   3.545   0.975   2.546  0.2223 -0.5102 -0.5249
 2399SOL    HW1 7625   3.492   1.022   2.482 -0.3634 -0.3761  0.0435
 2399SOL    HW2 7626   3.533   0.883   2.524 -0.6377 -0.5112 -0.1306
 2400SOL     OW 7627   0.396   3.584   5.640 -0.4585 -0.0776  0.0496
 2400SOL    HW1 7628   0.345   3.520   5.690 -0.0548 -1.1474 -0.9026
 2400SOL    HW2 7629   0.334   3.655   5.624 -0.3378  0.8389  2.9612
 2401SOL     OW 7630   1.362   0.991   1.326  0.2491 -0.1494 -0.5221
 2401SOL    HW1 7631   1.444   1.013   1.371  0.1646 -1.6087  0.4246
 2401SOL    HW2 7632   1.317   0.932   1.387 -1.2371  0.1629 -1.2824
 2402SOL     OW 7633   1.801   1.559   3.116 -0.1086  0.2329  0.1456
 2402SOL    HW1 7634   1.752   1.478   3.099 -0.3035  0.1067  1.2404
 2402SOL    HW2 7635   1.799   1.606   3.033 -2.5042  0.4642  0.2783
 2403SOL     OW 7636   3.276   0.817   3.575  0.2483  0.0752 -0.5845
 2403SOL    HW1 7637   3.232   0.813   3.490  0.1527  0.6994 -0.5704
 2403SOL    HW2 7638   3.205   0.805   3.638  0.0166  1.4531 -0.5510
 2404SOL     OW 7639   0.428   4.011   0.301 -0.3017  0.4813  0.4230
 2404SOL    HW1 7640   0.371   4.088   0.310  0.0074  0.8042 -0.2551
 2404SOL    HW2 7641   0.510   4.047   0.267 -0.0909 -0.1307  0.2770
 2405SOL     OW 7642   1.244   0.086   3.587  0.6592  0.9522 -0.3922
 2405SOL    HW1 7643   1.159   0.042   3.587  0.2850  1.6348  0.9099
 2405SOL    HW2 7644   1.227   0.169   3.542  0.3934  1.4793  0.6382
 2406SOL     OW 7645   3.365   4.178   2.574  0.3966  0.0014 -0.2340
 2406SOL    HW1 7646   3.316   4.096   2.564 -0.0319  0.4667 -2.4753
 2406SOL    HW2 7647   3.388   4.203   2.484  2.6248  1.0997  0.5718
 2407SOL     OW 7648   1.576   6.152   4.324  0.3022  0.1866 -0.3003
 2407SOL    HW1 7649   1.494   6.138   4.275 -0.3951  1.8839  0.2910
 2407SOL    HW2 7650   1.596   6.066   4.362 -0.0388 -0.7696 -2.1672
 2408SOL     OW 7651   4.299   2.941   6.217  0.2598  0.1666 -0.0191
 2408SOL    HW1 7652   4.279   2.970   6.306 -0.3698  1.2720 -0.4990
 2408SOL    HW2 7653   4.319   2.848   6.226 -0.9083 -0.0058  1.1177
 2409SOL     OW 7654   3.553   0.442   3.416 -0.4207 -0.1185  0.3443
 2409SOL    HW1 7655   3.462   0.439   3.445 -0.6233  0.3618 -0.2195
 2409SOL    HW2 7656   3.574   0.352   3.390 -0.0522 -0.6926  2.4698
 2410SOL     OW 7657   0.726   1.742   3.884 -0.0233 -0.5445 -0.4182
 2410SOL    HW1 7658   0.716   1.797   3.962 -1.5572  1.1053 -1.6958
 2410SOL    HW2 7659   0.806   1.774   3.842  0.7034 -1.3128  0.3205
 2411SOL     OW 7660   4.709   0.859   2.127  0.5245  0.6081  0.0783
 2411SOL    HW1 7661   4.673   0.773   2.102  0.8688  0.5366 -0.1674
 2411SOL    HW2 7662   4.713   0.908   2.046  0.4502  0.8131  0.1996
 2412SOL     OW 7663   4.445   2.020   4.620 -0.3393  0.3938  0.0759
 2412SOL    HW1 7664   4.512   1.988   4.680 -1.0829  0.4876  0.9815
 2412SOL    HW2 7665   4.481   2.004   4.533 -0.0284 -1.4600  0.5121
 2413SOL     OW 7666   1.535   2.505   5.176  0.2811 -0.3769 -0.8003
 2413SOL    HW1 7667   1.529   2.427   5.231 -0.7626 -0.5456 -1.1451
 2413SOL    HW2 7668   1.451   2.510   5.130 -0.6245  2.1993  0.8880
 2414SOL     OW 7669   3.912   4.459   5.565  0.5632 -0.2139  0.0882
 2414SOL    HW1 7670   3.951   4.546   5.558 -0.7894  0.2895 -1.7805
 2414SOL    HW2 7671   3.845   4.468   5.633  1.9935 -0.4780  1.6149
 2415SOL     OW 7672   5.326   1.426   0.126  0.2479 -0.6992  0.3952
 2415SOL    HW1 7673   5.272   1.494   0.086  0.9091 -0.4151 -0.0348
 2415SOL    HW2 7674   5.274   1.347   0.119 -1.3358  0.0680  2.5916
 2416SOL     OW 7675   4.045   0.593   5.118  0.4033  0.3139  0.3308
 2416SOL    HW1 7676   4.049   0.681   5.157 -0.9900 -0.9206  3.6057
 2416SOL    HW2 7677   4.097   0.539   5.177 -0.1561 -1.3738 -0.6776
 2417SOL     OW 7678   1.720   2.053   3.442  0.2257 -0.0732  0.7155
 2417SOL    HW1 7679   1.808   2.030   3.469  0.9460  2.2890  0.5676
 2417SOL    HW2 7680   1.701   1.994   3.369  1.4608 -0.9703  1.0992
 2418SOL     OW 7681   1.716   1.055   1.171  0.1639 -0.0340 -0.4262
 2418SOL    HW1 7682   1.655   1.021   1.237 -0.3723 -2.0069 -1.8540
 2418SOL    HW2 7683   1.735   1.144   1.200 -2.2603  0.1484  0.8640
 2419SOL     OW 7684   2.787   2.512   4.166 -0.1971 -0.0939 -0.1456
 2419SOL    HW1 7685   2.778   2.491   4.259  0.5260  0.3731  0.0407
 2419SOL    HW2 7686   2.834   2.438   4.129  0.4386  0.1878  0.0779
 2420SOL     OW 7687   3.727   3.719   5.543  0.4190 -0.3586  0.0892
 2420SOL    HW1 7688   3.710   3.791   5.604  0.5769  0.8258 -1.2041
 2420SOL    HW2 7689   3.646   3.711   5.493  0.9735  0.1159 -0.9236
 2421SOL     OW 7690   5.095   1.856   1.271 -0.0419  0.3155  0.5690
 2421SOL    HW1 7691   5.083   1.773   1.319 -0.3438  1.3508  2.3917
 2421SOL    HW2 7692   5.190   1.869   1.269  0.4227 -2.0323 -3.4204
 2422SOL     OW 7693   0.046   4.287   5.899  0.3938  0.2434  0.1859
 2422SOL    HW1 7694   0.061   4.381   5.902  2.4250 -0.0407  1.0468
 2422SOL    HW2 7695  -0.024   4.271   5.962  1.3429  1.0111  1.4832
 2423SOL     OW 7696   0.262   5.151   2.615 -0.1926  0.2681  0.0439
 2423SOL    HW1 7697   0.254   5.140   2.710 -0.1762  0.4902  0.0734
 2423SOL    HW2 7698   0.173   5.147   2.583 -0.2555  0.7963  0.1420
 2424SOL     OW 7699   1.640   4.318   5.325 -0.1443  0.6717 -0.0441
 2424SOL    HW1 7700   1.632   4.230   5.362 -1.0970  0.6498 -0.2798
 2424SOL    HW2 7701   1.724   4.318   5.280  0.7384  0.4870  1.5301
 2425SOL     OW 7702   0.653   0.491   1.427  0.6499 -0.1688  0.0449
 2425SOL    HW1 7703   0.699   0.467   1.508 -1.1919 -1.9625  0.6397
 2425SOL    HW2 7704   0.651   0.410   1.376 -0.9473  0.1225 -0.3819
 2426SOL     OW 7705   6.016   1.505   4.731  0.3108  0.3586 -0.3502
 2426SOL    HW1 7706   6.043   1.415   4.718  1.2320  0.8649 -2.3337
 2426SOL    HW2 7707   5.922   1.500   4.748  0.6435 -1.0571  1.3227
 2427SOL     OW 7708   1.851   5.610   0.449  0.2385 -0.1588  0.2134
 2427SOL    HW1 7709   1.770   5.610   0.500 -1.1817  1.0296 -1.8250
 2427SOL    HW2 7710   1.861   5.702   0.422  0.6622 -0.7550 -1.8704
 2428SOL     OW 7711   5.899   2.643   2.172 -0.1578 -0.0100 -0.1258
 2428SOL    HW1 7712   5.873   2.563   2.127 -0.3790 -0.3984  0.6814
 2428SOL    HW2 7713   5.819   2.696   2.176 -0.2501 -0.1777  0.2312
 2429SOL     OW 7714   2.273   3.570   0.226  0.5453 -0.6094 -0.4290
 2429SOL    HW1 7715   2.354   3.554   0.178  0.2884 -0.1424 -1.0348
 2429SOL    HW2 7716   2.213   3.606   0.161  0.0091 -0.4864  0.1199
 2430SOL     OW 7717   6.225   0.432   5.609 -0.5509  0.0360 -0.1507
 2430SOL    HW1 7718   6.138   0.439   5.570 -0.5786 -0.4522 -0.1778
 2430SOL    HW2 7719   6.275   0.502   5.568 -0.5134 -0.6128 -1.2448
 2431SOL     OW 7720   0.676   5.028   5.767 -0.0324 -0.7533  0.2241
 2431SOL    HW1 7721   0.597   4.982   5.736  0.6579 -0.8884 -1.4263
 2431SOL    HW2 7722   0.660   5.041   5.861 -0.6801 -3.5398  0.6020
 2432SOL     OW 7723   4.650   5.599   1.817  0.0383 -0.0147 -0.2842
 2432SOL    HW1 7724   4.638   5.505   1.802  0.3483 -0.4654  1.9100
 2432SOL    HW2 7725   4.561   5.634   1.822 -0.0787  0.0116 -2.0045
 2433SOL     OW 7726   3.842   0.898   3.305 -0.5023 -0.0502 -0.2669
 2433SOL    HW1 7727   3.757   0.865   3.335  0.8460 -4.2025 -0.3076
 2433SOL    HW2 7728   3.860   0.847   3.226  1.3719  1.8813 -1.1795
 2434SOL     OW 7729   5.220   0.811   1.186  0.4152 -0.4199 -0.5646
 2434SOL    HW1 7730   5.181   0.726   1.168  0.2456 -0.6587  0.8742
 2434SOL    HW2 7731   5.153   0.874   1.162 -0.3022 -0.7754  0.4564
 2435SOL     OW 7732   2.711   2.660   2.121  0.0610  0.2667 -0.0937
 2435SOL    HW1 7733   2.679   2.664   2.211 -0.0465  2.4000 -0.1720
 2435SOL    HW2 7734   2.751   2.574   2.113  0.3185  0.1357  2.0711
 2436SOL     OW 7735   1.079   2.418   3.235 -0.0443 -0.1455 -0.2061
 2436SOL    HW1 7736   1.011   2.390   3.175 -0.3298  0.9283 -0.4112
 2436SOL    HW2 7737   1.109   2.502   3.199 -0.7564  0.9122  1.5495
 2437SOL     OW 7738   5.485   0.109   1.799 -0.1457  0.3930  0.2649
 2437SOL    HW1 7739   5.467   0.036   1.740  0.5253 -0.0190  0.5557
 2437SOL    HW2 7740   5.580   0.109   1.808 -0.1938  0.8665  0.8307
 2438SOL     OW 7741   4.492   1.456   1.864 -0.1184 -0.1045 -0.3788
 2438SOL    HW1 7742   4.507   1.372   1.820 -1.2656  0.0324 -1.1005
 2438SOL    HW2 7743   4.404   1.482   1.834  0.0335  1.1199  0.2061
 2439SOL     OW 7744   4.332   4.628   3.880  0.3845 -0.6019 -0.2560
 2439SOL    HW1 7745   4.386   4.707   3.871 -1.9054  0.8543 -2.8846
 2439SOL    HW2 7746   4.349   4.578   3.801 -0.8556 -0.9371 -0.3312
 2440SOL     OW 7747   5.347   1.227   1.616  0.5643 -0.2753  0.2110
 2440SOL    HW1 7748   5.395   1.144   1.610 -1.2705 -1.3341 -1.0053
 2440SOL    HW2 7749   5.407   1.287   1.659  2.6768 -1.7006 -0.6154
 2441SOL     OW 7750   2.667   5.735   5.970  0.0078 -0.4296 -0.2847
 2441SOL    HW1 7751   2.668   5.674   5.896 -1.0057 -0.5244 -0.2477
 2441SOL    HW2 7752   2.754   5.729   6.008  0.5152 -0.4465 -1.4139
 2442SOL     OW 7753   4.581   1.549   6.093 -0.5737  0.1789  0.1236
 2442SOL    HW1 7754   4.628   1.473   6.059 -1.4889  0.3933 -1.7738
 2442SOL    HW2 7755   4.552   1.522   6.180 -3.6952 -3.0305 -1.6309
 2443SOL     OW 7756   0.097   2.410   4.022 -0.0470  0.5271  0.4211
 2443SOL    HW1 7757   0.158   2.462   4.075 -0.8749 -0.1056  2.0561
 2443SOL    HW2 7758   0.034   2.376   4.085  0.8217 -3.0537 -0.4297
 2444SOL     OW 7759   5.189   5.334   3.105 -0.1103  0.0569  0.0787
 2444SOL    HW1 7760   5.258   5.395   3.130 -0.5048 -0.4729  2.7281
 2444SOL    HW2 7761   5.117   5.390   3.077  0.2621  0.7398  0.4521
 2445SOL     OW 7762   4.637   4.061   2.254 -0.3765 -0.2995  0.8151
 2445SOL    HW1 7763   4.685   4.144   2.257  0.4670 -0.7819  3.0697
 2445SOL    HW2 7764   4.678   4.008   2.322 -0.7786 -2.6665 -0.6695
 2446SOL     OW 7765   3.952   0.383   0.417  0.6598  0.1652 -0.3769
 2446SOL    HW1 7766   3.917   0.447   0.356 -0.9765 -1.0685 -0.8090
 2446SOL    HW2 7767   3.875   0.339   0.453  1.6961 -1.0129  0.5073
 2447SOL     OW 7768   2.706   2.009   3.318 -0.2296  0.0354  0.3627
 2447SOL    HW1 7769   2.647   1.934   3.326 -0.2167 -0.1097 -0.7093
 2447SOL    HW2 7770   2.655   2.083   3.351 -0.9552 -0.1223 -0.3707
 2448SOL     OW 7771   3.318   5.974   4.323  0.6111 -0.4404 -0.2028
 2448SOL    HW1 7772   3.332   6.042   4.257 -0.8831  0.7448  0.6358
 2448SOL    HW2 7773   3.259   5.911   4.280 -0.7699  0.5875  0.1100
 2449SOL     OW 7774   5.012   1.305   4.386  0.0994 -0.1647 -0.2003
 2449SOL    HW1 7775   4.917   1.312   4.392  0.1932  0.1543  1.7249
 2449SOL    HW2 7776   5.029   1.211   4.384 -0.2034 -0.3689  2.6847
 2450SOL     OW 7777   2.060   5.740   3.700  0.5729 -0.1062  0.4449
 2450SOL    HW1 7778   2.001   5.802   3.744 -0.2701 -0.2172 -0.4849
 2450SOL    HW2 7779   2.068   5.667   3.761 -0.6849 -0.3221  0.3857
 2451SOL     OW 7780   0.201   3.330   3.350  0.0458  0.7535 -0.0770
 2451SOL    HW1 7781   0.141   3.299   3.418 -0.4454  2.0544  0.1198
 2451SOL    HW2 7782   0.240   3.250   3.313 -1.1624 -0.0754  0.3814
 2452SOL     OW 7783   3.749   0.283   2.603 -0.3016 -0.5530 -0.0632
 2452SOL    HW1 7784   3.659   0.309   2.622  0.1554  0.9254  0.2003
 2452SOL    HW2 7785   3.760   0.299   2.509 -0.3459 -0.8699 -0.1250
 2453SOL     OW 7786   1.990   3.542   1.600  0.1461 -0.5443  0.1702
 2453SOL    HW1 7787   1.940   3.592   1.665  1.0187  0.2980  0.2342
 2453SOL    HW2 7788   1.961   3.452   1.611 -2.0434  0.0242 -0.4501
 2454SOL     OW 7789   4.495   3.682   4.667  0.0180 -0.4919 -0.0967
 2454SOL    HW1 7790   4.430   3.617   4.692 -0.1513 -0.6087 -0.8114
 2454SOL    HW2 7791   4.445   3.755   4.632  0.2443 -0.3270 -0.0815
 2455SOL     OW 7792   5.222   2.948   0.196 -0.1034 -0.1265 -0.2667
 2455SOL    HW1 7793   5.206   2.981   0.284  0.4515  1.2131 -0.6395
 2455SOL    HW2 7794   5.311   2.913   0.200 -0.5156 -1.1853  0.0005
 2456SOL     OW 7795   4.373   2.578   0.657 -0.1038  0.1013  0.6423
 2456SOL    HW1 7796   4.335   2.565   0.570 -2.3028  2.2683  1.1646
 2456SOL    HW2 7797   4.404   2.669   0.657 -0.6850  0.3403  2.2905
 2457SOL     OW 7798   2.194   1.978   1.181  0.2896  0.3414 -0.3379
 2457SOL    HW1 7799   2.190   1.945   1.091 -0.2477  0.8238 -0.4970
 2457SOL    HW2 7800   2.185   2.073   1.172 -0.8538  0.3190  0.2835
 2458SOL     OW 7801   0.554   1.255   1.075  0.1299  0.1289 -0.0782
 2458SOL    HW1 7802   0.546   1.278   0.983 -0.0613  0.1211 -0.0647
 2458SOL    HW2 7803   0.538   1.338   1.121 -0.2263  0.0438 -0.0400
 2459SOL     OW 7804   3.445   4.626   4.683 -0.4153  0.2603 -0.3395
 2459SOL    HW1 7805   3.360   4.670   4.681 -0.1808  0.9171  1.7682
 2459SOL    HW2 7806   3.484   4.652   4.767  1.1112 -1.4439 -0.4507
 2460SOL     OW 7807   1.400   1.932   0.870 -0.8910 -0.5755 -0.2107
 2460SOL    HW1 7808   1.402   1.847   0.913  0.6137 -1.2254 -1.4973
 2460SOL    HW2 7809   1.492   1.959   0.867 -1.3406  1.1011  0.1425
 2461SOL     OW 7810   3.142   3.604   5.935 -0.4286 -0.0695  0.2778
 2461SOL    HW1 7811   3.118   3.523   5.979 -0.1607 -0.1911  0.2081
 2461SOL    HW2 7812   3.233   3.619   5.961 -0.3883  0.0590  0.0704
 2462SOL     OW 7813   2.854   6.217   0.361 -0.1318  0.2991  0.0765
 2462SOL    HW1 7814   2.869   6.311   0.362  0.7152  0.2310 -1.6566
 2462SOL    HW2 7815   2.881   6.189   0.273  0.5942 -1.7073  0.8654
 2463SOL     OW 7816   1.843   0.224   1.446 -0.7416  0.0121  0.6142
 2463SOL    HW1 7817   1.923   0.267   1.478 -0.6171  0.0094  0.3115
 2463SOL    HW2 7818   1.859   0.131   1.458 -0.3061 -0.0476 -0.3232
 2464SOL     OW 7819   0.543   3.626   0.504 -0.3319 -0.6269  0.2103
 2464SOL    HW1 7820   0.604   3.696   0.529 -1.2068 -0.7385  2.9480
 2464SOL    HW2 7821   0.462   3.672   0.481 -0.9137 -0.6742  2.0304
 2465SOL     OW 7822   3.173   4.854   6.047  0.0473 -0.1848  0.0847
 2465SOL    HW1 7823   3.121   4.789   6.095 -0.7833 -1.1132 -1.9202
 2465SOL    HW2 7824   3.139   4.938   6.077 -0.3797 -0.7206  1.1632
 2466SOL     OW 7825   1.367   4.623   1.066  0.2292  0.1819  0.1210
 2466SOL    HW1 7826   1.420   4.635   1.146 -1.3782  1.6134  1.0413
 2466SOL    HW2 7827   1.277   4.642   1.094 -0.4866 -0.0480 -1.8781
 2467SOL     OW 7828   4.585   1.105   2.258 -0.1183  0.0998 -0.0552
 2467SOL    HW1 7829   4.509   1.162   2.263  0.2578  0.5270  0.9586
 2467SOL    HW2 7830   4.618   1.117   2.168 -1.7739 -0.8245 -0.8201
 2468SOL     OW 7831   4.916   0.143   2.577  0.3397  0.1189  0.0130
 2468SOL    HW1 7832   4.872   0.195   2.645 -2.4044 -1.8065 -0.1200
 2468SOL    HW2 7833   4.864   0.157   2.498 -0.1305 -2.2474 -0.1744
 2469SOL     OW 7834   3.669   3.295   1.809 -0.1561 -0.7897 -0.1709
 2469SOL    HW1 7835   3.714   3.212   1.822 -1.8998 -2.0151 -1.4287
 2469SOL    HW2 7836   3.726   3.345   1.751 -0.2971 -2.2269 -1.5976
 2470SOL     OW 7837   0.110   3.070   6.197 -0.5636 -0.3817 -0.2643
 2470SOL    HW1 7838   0.140   2.979   6.190 -0.6562 -0.4100 -0.3084
 2470SOL    HW2 7839   0.015   3.063   6.208 -0.3782 -0.3431  1.5086
 2471SOL     OW 7840   5.032   2.279   0.981  0.3646  0.2313  0.0135
 2471SOL    HW1 7841   5.045   2.311   1.070 -0.7627 -0.0170  0.2745
 2471SOL    HW2 7842   4.939   2.293   0.963  0.4506 -0.2846 -0.9009
 2472SOL     OW 7843   3.879   3.753   3.083  0.3476 -0.2363  0.1556
 2472SOL    HW1 7844   3.788   3.743   3.055  0.3470  0.1845 -0.0051
 2472SOL    HW2 7845   3.879   3.831   3.139  0.4578 -0.7328  0.8577
 2473SOL     OW 7846   4.527   4.782   1.286 -0.2824  0.0157 -0.2680
 2473SOL    HW1 7847   4.537   4.808   1.194 -0.1491 -0.8749 -0.5082
 2473SOL    HW2 7848   4.548   4.862   1.335 -0.7252  0.6046 -1.0132
 2474SOL     OW 7849   1.550   2.886   3.212 -0.1545 -0.1048 -0.7183
 2474SOL    HW1 7850   1.540   2.877   3.307 -1.4447  1.1997 -0.6945
 2474SOL    HW2 7851   1.460   2.893   3.180  0.2446 -1.0920 -2.1148
 2475SOL     OW 7852   2.972   3.568   0.356  0.3079 -0.2643  0.2474
 2475SOL    HW1 7853   2.964   3.545   0.263 -0.3474 -2.0731  0.7036
 2475SOL    HW2 7854   3.065   3.561   0.374  0.3477 -0.7462 -0.1050
 2476SOL     OW 7855   0.823   5.614   1.337  0.0271  0.2609 -0.3332
 2476SOL    HW1 7856   0.742   5.572   1.366 -0.1756  0.2131 -0.9625
 2476SOL    HW2 7857   0.875   5.623   1.417  0.3669 -1.8044 -0.2593
 2477SOL     OW 7858   2.889   2.338   3.404  0.3842  0.2623  0.4232
 2477SOL    HW1 7859   2.835   2.296   3.337  0.4415 -1.5457  1.4417
 2477SOL    HW2 7860   2.978   2.331   3.371  0.3463  0.0173  0.3733
 2478SOL     OW 7861   5.564   0.607   5.341 -0.1698  0.7587 -0.1162
 2478SOL    HW1 7862   5.609   0.526   5.318 -0.2365  0.9922 -1.1357
 2478SOL    HW2 7863   5.473   0.581   5.355  0.2360  0.2864  1.9508
 2479SOL     OW 7864   6.127   5.722   1.370 -0.2384 -0.1889 -0.6091
 2479SOL    HW1 7865   6.095   5.690   1.285  0.0346  0.8538 -1.1256
 2479SOL    HW2 7866   6.081   5.805   1.383 -1.0570 -0.8221  0.7741
 2480SOL     OW 7867   4.947   0.725   1.377 -0.0039  0.3692 -0.1251
 2480SOL    HW1 7868   5.037   0.693   1.373 -0.4249 -0.9534  0.2503
 2480SOL    HW2 7869   4.902   0.675   1.308 -0.6746  0.1891  0.4330
 2481SOL     OW 7870   0.405   6.100   4.114 -0.0586 -0.5633 -0.0514
 2481SOL    HW1 7871   0.348   6.047   4.170 -0.6806  0.7785  0.6250
 2481SOL    HW2 7872   0.471   6.135   4.173 -1.3634  1.7672  0.1230
 2482SOL     OW 7873   3.126   4.852   3.906 -0.5750  0.6003 -0.0382
 2482SOL    HW1 7874   3.052   4.877   3.961 -0.1649 -0.1803  0.9023
 2482SOL    HW2 7875   3.144   4.761   3.929 -0.0026  0.4408 -1.0391
 2483SOL     OW 7876   2.162   0.605   5.703 -0.2383 -0.1353 -0.0774
 2483SOL    HW1 7877   2.094   0.669   5.723  0.2983  1.1973 -2.1855
 2483SOL    HW2 7878   2.208   0.592   5.786 -2.0301  0.1259  1.0187
 2484SOL     OW 7879   3.446   0.170   2.456 -0.1444 -0.1924 -0.1753
 2484SOL    HW1 7880   3.526   0.216   2.427 -0.3114 -0.5515 -1.2733
 2484SOL    HW2 7881   3.414   0.127   2.376 -0.9216 -0.8232  0.4667
 2485SOL     OW 7882   2.813   6.154   2.854  0.2191 -0.2744  0.4355
 2485SOL    HW1 7883   2.834   6.079   2.798  0.3526 -0.0972  0.2453
 2485SOL    HW2 7884   2.827   6.230   2.798  0.1955 -0.1026  0.6617
 2486SOL     OW 7885   0.664   0.501   0.094 -0.4970  0.2418 -0.1505
 2486SOL    HW1 7886   0.684   0.523   0.003  0.5527 -1.0572 -0.2730
 2486SOL    HW2 7887   0.643   0.408   0.092 -0.4045  0.1848  0.9384
 2487SOL     OW 7888   1.948   4.602   5.083  0.2843  1.1463  1.1722
 2487SOL    HW1 7889   1.869   4.650   5.060  0.5394  1.2686  0.5312
 2487SOL    HW2 7890   1.980   4.645   5.162 -1.1666  0.0740  2.4057
 2488SOL     OW 7891   3.959   1.052   1.036  0.9164  0.1084  0.2042
 2488SOL    HW1 7892   3.950   1.005   1.119  1.3986 -0.3156  0.0202
 2488SOL    HW2 7893   3.901   1.128   1.046  1.3623  0.3483  1.1313
 2489SOL     OW 7894   1.626   5.780   0.689 -0.2776  0.1583 -0.2114
 2489SOL    HW1 7895   1.636   5.810   0.599  3.6204  1.2495  0.4043
 2489SOL    HW2 7896   1.610   5.860   0.739 -3.9865 -0.5849  0.0800
 2490SOL     OW 7897   4.316   0.556   0.769 -0.0634  0.7242  0.3294
 2490SOL    HW1 7898   4.409   0.535   0.774 -0.2036  0.0673  0.2277
 2490SOL    HW2 7899   4.308   0.613   0.693  0.1473  0.1901 -0.0960
 2491SOL     OW 7900   5.883   6.163   0.038  0.2735  0.5150 -0.3295
 2491SOL    HW1 7901   5.894   6.068   0.035 -1.1073  0.0254  3.8477
 2491SOL    HW2 7902   5.965   6.195   0.076 -0.7966  0.3840  2.2735
 2492SOL     OW 7903   0.537   2.111   0.942 -0.0685 -0.1105  0.1846
 2492SOL    HW1 7904   0.502   2.124   1.031 -0.8466  3.2921 -0.4955
 2492SOL    HW2 7905   0.459   2.106   0.887  0.4265  1.2228 -0.6602
 2493SOL     OW 7906   0.085   0.308   5.899  0.6643 -0.0221 -0.0833
 2493SOL    HW1 7907  -0.005   0.309   5.930  0.6320  0.9794 -0.1736
 2493SOL    HW2 7908   0.132   0.365   5.959  1.3054 -0.7413  0.1235
 2494SOL     OW 7909   1.405   2.838   2.822  0.4481 -0.0363 -0.8409
 2494SOL    HW1 7910   1.468   2.793   2.878  0.4292  0.6269 -0.2770
 2494SOL    HW2 7911   1.434   2.929   2.821  0.2516  0.0324 -1.6433
 2495SOL     OW 7912   0.166   1.819   6.085  0.0817  0.7060 -0.5333
 2495SOL    HW1 7913   0.232   1.887   6.098 -0.7937  1.9223 -2.0545
 2495SOL    HW2 7914   0.086   1.868   6.067 -1.1784 -0.7378  0.9051
 2496SOL     OW 7915   4.009   0.138   0.884 -0.4797 -1.2087 -0.4130
 2496SOL    HW1 7916   4.009   0.229   0.853 -1.0051 -0.9940  0.1816
 2496SOL    HW2 7917   4.081   0.096   0.838  2.2756  0.4604  2.0527
 2497SOL     OW 7918   5.924   2.346   2.832  0.2818 -0.4480  0.3158
 2497SOL    HW1 7919   5.947   2.254   2.822  1.0572 -0.2859  0.5746
 2497SOL    HW2 7920   5.871   2.366   2.754 -1.1006 -1.4728  0.9591
 2498SOL     OW 7921   0.758   4.081   3.709  0.0420  0.2746 -0.0864
 2498SOL    HW1 7922   0.714   4.116   3.787 -1.1384 -0.8919 -0.1952
 2498SOL    HW2 7923   0.779   3.991   3.732 -0.9623 -0.3127 -1.3509
 2499SOL     OW 7924   3.616   1.580   4.570 -0.1503  0.6683  0.4837
 2499SOL    HW1 7925   3.605   1.492   4.532  0.3306  0.1810  1.4246
 2499SOL    HW2 7926   3.709   1.585   4.592 -0.3425  1.0869  1.2187
 2500SOL     OW 7927   4.940   2.483   2.231 -0.5161 -0.0590  0.2155
 2500SOL    HW1 7928   5.006   2.437   2.180 -1.2262 -0.1778 -0.6213
 2500SOL    HW2 7929   4.961   2.576   2.220  0.6153 -0.1247  1.4966
 2501SOL     OW 7930   0.110   6.179   4.978  0.6152  0.3530 -0.4228
 2501SOL    HW1 7931   0.192   6.223   4.957  0.6610  1.3892  1.6935
 2501SOL    HW2 7932   0.042   6.238   4.946  0.6952  0.8974  0.3847
 2502SOL     OW 7933   0.689   3.703   1.310  0.0675 -0.1329  0.4529
 2502SOL    HW1 7934   0.712   3.625   1.360 -0.8232 -0.8358 -0.2003
 2502SOL    HW2 7935   0.610   3.678   1.263  0.3726  0.8162 -0.5887
 2503SOL     OW 7936   4.291   3.873   4.560 -0.0324 -0.1979 -0.4855
 2503SOL    HW1 7937   4.199   3.889   4.538  0.5091  1.4013 -1.8590
 2503SOL    HW2 7938   4.306   3.928   4.637  0.0435  0.4386 -0.9466
 2504SOL     OW 7939   2.048   3.368   6.130  0.1248 -0.1552 -0.1856
 2504SOL    HW1 7940   1.973   3.401   6.080  1.1437  0.2279 -1.5098
 2504SOL    HW2 7941   2.059   3.431   6.201 -1.8671 -1.1607  1.1200
 2505SOL     OW 7942   4.379   0.122   4.650  0.0740  0.8502  0.2501
 2505SOL    HW1 7943   4.419   0.134   4.564  1.3342  0.7966  0.8065
 2505SOL    HW2 7944   4.331   0.040   4.643 -0.9150  1.4722 -0.7713
 2506SOL     OW 7945   6.109   5.589   5.111 -0.5690  0.4762 -0.6590
 2506SOL    HW1 7946   6.115   5.584   5.015 -0.5193 -1.4869 -0.6047
 2506SOL    HW2 7947   6.028   5.543   5.133  0.4185 -0.9178  0.3044
 2507SOL     OW 7948   3.764   0.216   0.532  0.2456 -0.2807 -0.1512
 2507SOL    HW1 7949   3.674   0.228   0.501  0.4499  1.2286 -0.2600
 2507SOL    HW2 7950   3.755   0.207   0.627  0.1137  3.2248  0.3273
 2508SOL     OW 7951   3.069   4.799   2.363  0.3917  0.2397 -0.2528
 2508SOL    HW1 7952   3.121   4.749   2.426  2.6957  1.6154 -0.9046
 2508SOL    HW2 7953   3.110   4.781   2.278 -0.4178  1.1277 -0.8614
 2509SOL     OW 7954   5.503   6.083   4.265 -0.1922 -0.3276  0.2369
 2509SOL    HW1 7955   5.452   6.081   4.184 -0.4033 -0.2261  0.3653
 2509SOL    HW2 7956   5.538   5.995   4.275 -1.3764 -0.7576  0.7962
 2510SOL     OW 7957   2.435   6.200   4.927 -0.1122 -0.3717 -0.1926
 2510SOL    HW1 7958   2.341   6.188   4.935 -0.1095 -0.3957 -0.1981
 2510SOL    HW2 7959   2.467   6.201   5.017 -0.1042 -0.4690 -0.1939
 2511SOL     OW 7960   1.460   5.903   2.832  0.1383 -0.1780 -0.4454
 2511SOL    HW1 7961   1.441   5.984   2.880 -0.2349  1.5745 -3.3362
 2511SOL    HW2 7962   1.380   5.851   2.842 -0.1565  0.3960  0.3094
 2512SOL     OW 7963   5.934   1.439   5.672 -0.4033 -0.5078 -0.2112
 2512SOL    HW1 7964   5.930   1.346   5.653 -0.9719 -0.2433 -1.5462
 2512SOL    HW2 7965   5.843   1.466   5.681 -0.4038  0.3483 -2.2929
 2513SOL     OW 7966   3.028   1.292   1.626  0.4862 -0.3322 -0.2020
 2513SOL    HW1 7967   3.043   1.203   1.594  1.5082  0.0313 -0.7955
 2513SOL    HW2 7968   2.936   1.294   1.650  0.7556 -1.9749  1.1724
 2514SOL     OW 7969   3.235   4.820   1.065  0.5256  0.1943 -0.4929
 2514SOL    HW1 7970   3.184   4.816   1.145  0.4850  0.8171 -0.4853
 2514SOL    HW2 7971   3.171   4.828   0.995  0.5692 -0.1508 -0.5754
 2515SOL     OW 7972   3.555   6.016   3.249 -0.1958  0.0463  0.1235
 2515SOL    HW1 7973   3.531   6.019   3.157  0.2964 -1.0887 -0.0549
 2515SOL    HW2 7974   3.472   6.000   3.295 -0.5913  1.5489 -0.0193
 2516SOL     OW 7975   0.337   0.368   4.742 -0.0440  0.1705 -0.2827
 2516SOL    HW1 7976   0.265   0.426   4.768  1.4112  0.9270  2.3971
 2516SOL    HW2 7977   0.302   0.280   4.754 -0.8211  0.5167  0.0687
 2517SOL     OW 7978   0.086   4.797   2.842  0.4007 -0.0514 -0.6263
 2517SOL    HW1 7979   0.075   4.702   2.845 -0.6254  0.0611 -0.4755
 2517SOL    HW2 7980   0.157   4.811   2.779  0.3288 -0.9067 -0.9091
 2518SOL     OW 7981   0.283   5.856   1.456  0.3319 -0.2128  0.3160
 2518SOL    HW1 7982   0.269   5.763   1.475  1.4030 -0.9477 -2.1189
 2518SOL    HW2 7983   0.376   5.870   1.470  1.2646 -0.8497 -3.7639
 2519SOL     OW 7984   4.742   0.673   2.847  0.2835 -0.6687  0.0399
 2519SOL    HW1 7985   4.828   0.657   2.807  0.3085  0.0644 -0.2264
 2519SOL    HW2 7986   4.698   0.730   2.784 -0.4140 -1.0652  0.1641
 2520SOL     OW 7987   1.518   5.922   3.444 -0.3625 -0.6699  0.5497
 2520SOL    HW1 7988   1.471   5.999   3.414  0.9682 -0.5389 -1.4320
 2520SOL    HW2 7989   1.519   5.929   3.539 -2.4068  0.4162  0.5426
 2521SOL     OW 7990   0.351   5.677   2.095  0.8002 -0.0450  0.5839
 2521SOL    HW1 7991   0.299   5.690   2.174  0.6184  0.0759  0.4435
 2521SOL    HW2 7992   0.340   5.584   2.074  0.3226  0.0644  0.3311
 2522SOL     OW 7993   4.204   2.320   3.277  0.0727 -0.1205 -0.1965
 2522SOL    HW1 7994   4.238   2.405   3.304 -0.9341 -0.0110  0.7635
 2522SOL    HW2 7995   4.170   2.280   3.357  1.9162 -2.1166 -0.3150
 2523SOL     OW 7996   5.729   4.727   1.791 -0.1298  0.0805 -0.3028
 2523SOL    HW1 7997   5.686   4.679   1.862  0.5994  0.4696  0.4300
 2523SOL    HW2 7998   5.747   4.661   1.724 -0.6766 -0.3306 -0.0489
 2524SOL     OW 7999   0.847   4.739   3.959  0.2727 -0.4480 -0.1476
 2524SOL    HW1 8000   0.798   4.803   3.906 -0.3100 -0.8110 -0.0516
 2524SOL    HW2 8001   0.882   4.677   3.895  0.9885  0.0527 -0.2587
 2525SOL     OW 8002   5.819   5.668   4.025  0.0068  0.2054 -0.1530
 2525SOL    HW1 8003   5.785   5.609   3.957 -0.4598 -0.7233  0.8599
 2525SOL    HW2 8004   5.760   5.743   4.024  0.7235  0.7988 -1.5999
 2526SOL     OW 8005   2.807   5.831   1.889  0.5651 -0.3515  0.4219
 2526SOL    HW1 8006   2.727   5.845   1.838 -0.5088  0.1270  2.1678
 2526SOL    HW2 8007   2.878   5.853   1.829 -0.6832  1.3323 -0.5190
 2527SOL     OW 8008   2.742   1.963   3.715 -0.0261 -0.2357 -0.1924
 2527SOL    HW1 8009   2.656   1.993   3.742 -1.5498 -0.0597 -4.4502
 2527SOL    HW2 8010   2.787   2.042   3.685  0.5666 -0.6763 -0.4866
 2528SOL     OW 8011   0.070   1.782   5.090  0.3337 -0.3862  0.5318
 2528SOL    HW1 8012   0.100   1.742   5.172  0.6815 -1.1353  0.0510
 2528SOL    HW2 8013  -0.013   1.740   5.071 -0.2919  0.5767  1.0554
 2529SOL     OW 8014   1.656   5.258   5.628  0.1063 -0.1699  0.0121
 2529SOL    HW1 8015   1.612   5.326   5.678 -1.9656 -0.2762 -1.5061
 2529SOL    HW2 8016   1.731   5.302   5.588 -0.3164  0.8414  0.3040
 2530SOL     OW 8017   2.375   5.268   1.917  0.0343  0.1004  0.3871
 2530SOL    HW1 8018   2.385   5.205   1.846  0.6928 -0.6431  1.1128
 2530SOL    HW2 8019   2.461   5.270   1.959 -0.2253  0.8499  0.8908
 2531SOL     OW 8020   1.053   1.889   5.470 -0.9305 -0.9726 -0.1796
 2531SOL    HW1 8021   1.141   1.867   5.441 -0.5955 -0.0641  0.1204
 2531SOL    HW2 8022   1.031   1.821   5.534 -0.6066 -1.4255 -0.5420
 2532SOL     OW 8023   0.708   5.304   1.266 -0.4523 -0.1437  0.2180
 2532SOL    HW1 8024   0.653   5.366   1.312  0.0868  0.8753 -0.4745
 2532SOL    HW2 8025   0.670   5.218   1.285 -0.8382  0.3342  1.6949
 2533SOL     OW 8026   3.967   4.160   5.742  0.0776 -0.1364  0.0764
 2533SOL    HW1 8027   4.041   4.186   5.687 -0.3256  0.6915 -0.0841
 2533SOL    HW2 8028   4.008   4.120   5.819  0.6863  0.0012 -0.1698
 2534SOL     OW 8029   5.870   5.401   2.417  0.2572  0.0884 -0.7487
 2534SOL    HW1 8030   5.804   5.347   2.461  1.1081  0.3059  0.8706
 2534SOL    HW2 8031   5.954   5.363   2.443  0.9507  2.7091  1.3261
 2535SOL     OW 8032   4.176   5.818   5.848 -0.2687  0.1185 -0.7663
 2535SOL    HW1 8033   4.255   5.766   5.832  1.3185  1.4552  2.0735
 2535SOL    HW2 8034   4.120   5.760   5.900  0.9260  0.6612  1.2374
 2536SOL     OW 8035   0.578   3.930   1.009  0.1010 -0.0910  0.0509
 2536SOL    HW1 8036   0.512   3.878   0.963  0.6748  1.0237 -2.1830
 2536SOL    HW2 8037   0.660   3.882   0.995  0.4211  0.7018 -0.9217
 2537SOL     OW 8038   3.822   3.250   4.065 -0.0039  0.2158  0.6775
 2537SOL    HW1 8039   3.857   3.168   4.098 -0.9976 -0.1216  0.9094
 2537SOL    HW2 8040   3.833   3.312   4.137 -0.8795 -0.1696  1.1647
 2538SOL     OW 8041   0.166   2.539   4.426  0.3321 -0.2098  0.2157
 2538SOL    HW1 8042   0.246   2.519   4.475 -0.0860 -0.6567  0.7377
 2538SOL    HW2 8043   0.185   2.511   4.337  0.1911 -1.9122  0.6719
 2539SOL     OW 8044   3.963   3.225   2.742  0.2990  0.2643 -0.6516
 2539SOL    HW1 8045   3.923   3.139   2.753  1.8244 -0.4333 -0.2234
 2539SOL    HW2 8046   4.027   3.212   2.671  0.3016  1.1389 -0.8200
 2540SOL     OW 8047   5.198   1.536   2.729  0.4151 -0.3307 -0.8112
 2540SOL    HW1 8048   5.155   1.453   2.709  0.5558 -0.5943 -0.0655
 2540SOL    HW2 8049   5.272   1.511   2.785  0.3251  0.3151 -0.3928
 2541SOL     OW 8050   3.990   5.452   3.053  0.7098 -0.8319  0.2949
 2541SOL    HW1 8051   3.918   5.515   3.062  1.1773  0.0801 -1.6841
 2541SOL    HW2 8052   4.067   5.507   3.039  1.2600 -1.8270 -0.6888
 2542SOL     OW 8053   2.365   1.389   2.239  0.3564 -0.2813  0.5120
 2542SOL    HW1 8054   2.311   1.324   2.194  2.1035 -1.6811  0.3153
 2542SOL    HW2 8055   2.448   1.387   2.191  1.1338  0.6099  1.7748
 2543SOL     OW 8056   1.990   0.816   4.801 -0.2959  0.6702 -0.1480
 2543SOL    HW1 8057   1.909   0.861   4.779  0.0248  1.0666 -0.5147
 2543SOL    HW2 8058   2.041   0.879   4.851 -0.3686  0.2912  0.4223
 2544SOL     OW 8059   4.636   0.819   4.076 -0.2077 -0.1124  0.5602
 2544SOL    HW1 8060   4.716   0.774   4.050 -0.0678 -0.2444  1.2001
 2544SOL    HW2 8061   4.591   0.838   3.993 -0.6048 -2.0202  0.2928
 2545SOL     OW 8062   2.305   3.680   2.548 -0.5110 -0.0224 -0.7709
 2545SOL    HW1 8063   2.342   3.642   2.469  0.3056 -2.6669  0.7490
 2545SOL    HW2 8064   2.213   3.651   2.548 -0.1381 -1.2620 -0.0870
 2546SOL     OW 8065   2.821   6.090   5.131 -0.6236 -0.2156  0.0949
 2546SOL    HW1 8066   2.906   6.084   5.088 -0.2679  0.7701  0.6173
 2546SOL    HW2 8067   2.779   6.006   5.113  0.2096 -0.4847 -0.6835
 2547SOL     OW 8068   6.031   5.237   5.756 -0.4222  0.4816  0.4766
 2547SOL    HW1 8069   6.118   5.257   5.789 -0.4546  1.7589 -0.1451
 2547SOL    HW2 8070   5.988   5.191   5.827  1.2630 -1.5963  0.2441
 2548SOL     OW 8071   4.329   5.029   3.211  0.8095 -0.5018  0.8905
 2548SOL    HW1 8072   4.280   5.111   3.207 -0.6001 -1.2706  1.3840
 2548SOL    HW2 8073   4.391   5.034   3.139 -0.6963  0.1020 -0.4109
 2549SOL     OW 8074   5.560   0.653   1.826  0.6932 -0.2968  0.7070
 2549SOL    HW1 8075   5.483   0.612   1.864 -0.6300  0.2503 -1.2454
 2549SOL    HW2 8076   5.530   0.688   1.742  2.2056  2.8884  1.3355
 2550SOL     OW 8077   6.125   0.721   6.159  0.2768 -0.5084  0.1410
 2550SOL    HW1 8078   6.194   0.717   6.226 -0.4112  0.8572  0.9917
 2550SOL    HW2 8079   6.112   0.815   6.144 -3.5200 -0.4853  2.3507
 2551SOL     OW 8080   3.002   5.290   3.512  0.1967 -1.1583 -0.3912
 2551SOL    HW1 8081   2.974   5.211   3.466 -1.3124 -1.4664  0.9567
 2551SOL    HW2 8082   2.976   5.275   3.603  3.1147 -0.5937  0.6326
 2552SOL     OW 8083   3.499   3.016   0.672  0.1497 -0.0464 -0.0023
 2552SOL    HW1 8084   3.411   3.040   0.701  0.9736  0.2977  2.4228
 2552SOL    HW2 8085   3.549   3.097   0.678  0.9829 -0.5559  0.1157
 2553SOL     OW 8086   0.037   5.501   0.958 -0.0691 -0.4707  0.0292
 2553SOL    HW1 8087   0.121   5.457   0.954 -0.7082 -1.7357  0.1489
 2553SOL    HW2 8088   0.003   5.497   0.868  0.6659  1.4417 -0.3821
 2554SOL     OW 8089   5.772   1.125   0.777 -0.5082 -0.3599 -0.1844
 2554SOL    HW1 8090   5.774   1.127   0.872 -1.9916  0.1635 -0.1398
 2554SOL    HW2 8091   5.757   1.033   0.755  0.9337 -0.6583  0.0386
 2555SOL     OW 8092   3.640   1.101   0.090  0.1475 -0.2052 -0.2489
 2555SOL    HW1 8093   3.677   1.015   0.113  0.8225 -0.0554 -0.7523
 2555SOL    HW2 8094   3.554   1.081   0.055 -0.8150 -0.4695  2.1039
 2556SOL     OW 8095   3.644   0.415   4.811  0.1963 -0.1412  0.1433
 2556SOL    HW1 8096   3.695   0.454   4.882  1.6741  0.1179 -1.0079
 2556SOL    HW2 8097   3.555   0.408   4.846  0.1585  2.8970  0.9199
 2557SOL     OW 8098   2.524   4.416   0.710 -0.2995  0.7433  0.0008
 2557SOL    HW1 8099   2.556   4.498   0.673  1.1279  0.5169  0.6801
 2557SOL    HW2 8100   2.602   4.372   0.742 -1.3008  0.3555  2.1185
 2558SOL     OW 8101   2.008   3.562   0.530  0.2524 -0.2342  0.4203
 2558SOL    HW1 8102   1.949   3.621   0.482 -1.2437 -0.1710  2.1946
 2558SOL    HW2 8103   2.053   3.620   0.591  1.6561 -0.4037 -0.4253
 2559SOL     OW 8104   1.857   3.462   0.154  0.5733  0.2753 -0.0367
 2559SOL    HW1 8105   1.828   3.394   0.093 -1.8189  0.3439  0.8940
 2559SOL    HW2 8106   1.930   3.423   0.201 -0.4247 -1.4845  0.1292
 2560SOL     OW 8107   4.970   2.367   3.585  0.8624  0.2452  0.1741
 2560SOL    HW1 8108   4.999   2.323   3.665  2.3032  0.2498 -0.2992
 2560SOL    HW2 8109   4.968   2.297   3.519  1.9733  0.6241 -0.2978
 2561SOL     OW 8110   0.526   3.847   0.708  0.3169  0.6075 -0.0554
 2561SOL    HW1 8111   0.488   3.922   0.662 -1.2387 -0.9268 -1.4242
 2561SOL    HW2 8112   0.451   3.802   0.746  1.3469  0.3896  1.7957
 2562SOL     OW 8113   0.786   0.625   4.198 -0.0985  0.0902 -0.5115
 2562SOL    HW1 8114   0.872   0.589   4.175  0.7421  1.4625  0.3251
 2562SOL    HW2 8115   0.746   0.557   4.253  1.1782  0.0991  0.4933
 2563SOL     OW 8116   0.644   0.675   0.674  0.1591  0.0942 -0.0369
 2563SOL    HW1 8117   0.721   0.694   0.727 -0.4426 -0.5896  1.1286
 2563SOL    HW2 8118   0.663   0.590   0.633 -0.3011 -0.4798  0.9174
 2564SOL     OW 8119   1.130   0.953   3.729 -0.0584  0.4501  0.2150
 2564SOL    HW1 8120   1.060   1.016   3.745  0.4162  1.3445 -0.9887
 2564SOL    HW2 8121   1.197   0.975   3.793 -0.2942  0.5454  0.4297
 2565SOL     OW 8122   5.363   2.199   0.277  0.0582  0.4427 -0.3959
 2565SOL    HW1 8123   5.388   2.231   0.191 -0.1908 -0.9886 -1.0350
 2565SOL    HW2 8124   5.372   2.104   0.271 -0.0954  0.2981  1.1199
 2566SOL     OW 8125   4.154   4.247   4.039 -0.2685  0.2204  0.5220
 2566SOL    HW1 8126   4.122   4.226   3.951 -1.6917  1.4699  0.6956
 2566SOL    HW2 8127   4.075   4.269   4.088  0.7056  2.0315  1.3965
 2567SOL     OW 8128   0.597   1.003   4.610  0.0053 -0.0101 -0.4926
 2567SOL    HW1 8129   0.615   1.047   4.527 -1.4031  0.6654 -0.4760
 2567SOL    HW2 8130   0.628   0.913   4.597 -1.3146 -0.2773 -2.2358
 2568SOL     OW 8131   4.699   4.603   4.484  0.1646 -0.0791 -0.1108
 2568SOL    HW1 8132   4.759   4.535   4.513  1.9507  0.1441 -2.8535
 2568SOL    HW2 8133   4.748   4.685   4.496 -0.4688  0.3338 -0.3050
 2569SOL     OW 8134   4.871   2.734   0.538 -0.2025 -0.2583  0.7362
 2569SOL    HW1 8135   4.932   2.734   0.465  0.0162  1.3535  0.8701
 2569SOL    HW2 8136   4.893   2.814   0.587 -0.4048 -1.2292  2.5072
 2570SOL     OW 8137   2.355   1.836   2.683 -0.0014  0.5399 -0.0638
 2570SOL    HW1 8138   2.290   1.789   2.632 -0.2805  0.8385  0.0132
 2570SOL    HW2 8139   2.401   1.768   2.732  1.5848  0.0208 -2.1370
 2571SOL     OW 8140   1.881   4.292   4.364  0.0465 -0.1711 -0.1240
 2571SOL    HW1 8141   1.973   4.298   4.392  0.5569 -0.8695 -1.5593
 2571SOL    HW2 8142   1.841   4.232   4.426 -0.2277  2.3431  2.3293
 2572SOL     OW 8143   5.562   1.237   0.594 -0.3077 -0.1062  0.1950
 2572SOL    HW1 8144   5.640   1.239   0.648  0.2889 -0.1074 -0.6415
 2572SOL    HW2 8145   5.489   1.242   0.656  0.3610  0.6590  0.9421
 2573SOL     OW 8146   4.893   1.891   5.551  0.2747 -0.3679 -0.7530
 2573SOL    HW1 8147   4.955   1.832   5.509  1.9885 -0.1337  1.2288
 2573SOL    HW2 8148   4.914   1.883   5.645 -1.3759  1.2420 -0.2034
 2574SOL     OW 8149   0.387   4.633   5.638 -0.0535 -0.5385 -0.2309
 2574SOL    HW1 8150   0.377   4.556   5.694  0.0154  0.3225  1.0191
 2574SOL    HW2 8151   0.338   4.612   5.559  0.5892 -2.1533 -0.2303
 2575SOL     OW 8152   3.179   3.739   1.470 -0.3503  0.1215  0.6350
 2575SOL    HW1 8153   3.164   3.646   1.488 -0.6799 -0.7767 -3.3757
 2575SOL    HW2 8154   3.092   3.777   1.462 -0.3072 -0.1646 -1.5357
 2576SOL     OW 8155   0.693   2.864   4.234 -0.6313 -0.2995  0.4102
 2576SOL    HW1 8156   0.666   2.948   4.197 -1.4926  0.5247  2.7216
 2576SOL    HW2 8157   0.787   2.860   4.220 -0.8776 -0.0321 -1.7045
 2577SOL     OW 8158   2.665   5.801   0.497 -0.1690 -0.0159 -0.2283
 2577SOL    HW1 8159   2.749   5.845   0.492 -0.2534  0.7673  2.8132
 2577SOL    HW2 8160   2.601   5.871   0.505 -0.7937 -0.6170  0.2206
 2578SOL     OW 8161   5.548   5.845   3.077  0.2949 -0.1801 -0.0363
 2578SOL    HW1 8162   5.638   5.867   3.054  1.4524 -2.0228  2.1659
 2578SOL    HW2 8163   5.549   5.840   3.173 -2.7859  1.9915  0.2477
 2579SOL     OW 8164   3.890   0.977   4.335 -0.0457 -0.5896  0.4231
 2579SOL    HW1 8165   3.808   0.955   4.292 -1.0648  3.5516 -0.0990
 2579SOL    HW2 8166   3.955   0.975   4.266 -0.4126 -0.2767  0.0688
 2580SOL     OW 8167   0.814   6.100   1.907  0.0786 -0.0471  0.1545
 2580SOL    HW1 8168   0.744   6.130   1.965  0.2641  0.1886  0.2567
 2580SOL    HW2 8169   0.880   6.169   1.912 -0.1068  0.1963 -0.6931
 2581SOL     OW 8170   6.038   2.330   1.345 -0.0424 -0.1394  0.5022
 2581SOL    HW1 8171   6.066   2.383   1.271  0.3751 -1.4181 -0.2984
 2581SOL    HW2 8172   5.986   2.389   1.400  0.1201  0.9734 -0.5152
 2582SOL     OW 8173   1.791   5.995   1.750 -0.4139 -0.3717 -0.5042
 2582SOL    HW1 8174   1.862   5.954   1.799 -1.1012 -1.0429 -0.0378
 2582SOL    HW2 8175   1.824   6.003   1.661  0.8587  0.8667  0.0405
 2583SOL     OW 8176   3.460   3.159   1.945 -0.2505  0.5595  0.6509
 2583SOL    HW1 8177   3.519   3.218   1.897 -0.0422  1.1708  1.6261
 2583SOL    HW2 8178   3.432   3.210   2.022  0.7276 -0.9192  2.0595
 2584SOL     OW 8179   1.630   0.405   0.412  0.2959  1.0192  0.4166
 2584SOL    HW1 8180   1.612   0.424   0.504  0.0804 -0.5431  0.7253
 2584SOL    HW2 8181   1.548   0.424   0.367  0.6732  2.6728  0.3850
 2585SOL     OW 8182   5.744   0.858   4.050  0.4053 -0.0466  0.5657
 2585SOL    HW1 8183   5.818   0.905   4.012  0.3979  0.4902  1.2144
 2585SOL    HW2 8184   5.717   0.796   3.981  2.1837 -1.0696  0.7386
 2586SOL     OW 8185   0.042   1.668   5.588 -0.0663  0.5642  0.3221
 2586SOL    HW1 8186   0.042   1.574   5.573  0.8709  0.0899  2.8653
 2586SOL    HW2 8187  -0.020   1.681   5.660  1.0031  1.6301  1.0944
 2587SOL     OW 8188   1.125   3.903   4.774  0.8490 -0.0101  0.6758
 2587SOL    HW1 8189   1.215   3.872   4.759  1.0178 -0.6201  2.6921
 2587SOL    HW2 8190   1.123   3.925   4.867 -0.9787  0.4445  0.5497
 2588SOL     OW 8191   2.879   1.929   1.421  0.0346  0.3797  0.4552
 2588SOL    HW1 8192   2.881   2.011   1.470  0.6794  0.3478  0.5012
 2588SOL    HW2 8193   2.880   1.861   1.488  1.0066  0.3354  0.4207
 2589SOL     OW 8194   4.694   2.270   2.814 -0.2542 -0.4983  0.2167
 2589SOL    HW1 8195   4.704   2.205   2.883 -0.0288  0.5412  1.1870
 2589SOL    HW2 8196   4.599   2.285   2.808 -0.2717 -0.5703  0.3213
 2590SOL     OW 8197   2.828   5.625   0.407 -0.5745  0.2869  0.6060
 2590SOL    HW1 8198   2.772   5.691   0.449  0.1792  0.0118  2.1021
 2590SOL    HW2 8199   2.780   5.543   0.418  0.3558 -0.0532  2.4552
 2591SOL     OW 8200   2.646   5.076   5.298  0.3171  1.1246  0.1126
 2591SOL    HW1 8201   2.614   5.005   5.242  1.5530  1.5097 -1.1455
 2591SOL    HW2 8202   2.659   5.034   5.384  1.3300 -0.2954 -0.6748
 2592SOL     OW 8203   0.081   0.062   1.239 -0.0752 -0.0431 -0.2390
 2592SOL    HW1 8204   0.096   0.131   1.303  0.6904 -0.2602 -0.1802
 2592SOL    HW2 8205   0.060  -0.016   1.292  0.1175 -0.1150 -0.2687
 2593SOL     OW 8206   0.107   4.428   4.634 -0.6959 -0.3137 -0.0739
 2593SOL    HW1 8207   0.117   4.365   4.705 -0.2041  0.2486  0.3688
 2593SOL    HW2 8208   0.176   4.493   4.650 -0.8128  0.0130 -0.8582
 2594SOL     OW 8209   4.534   2.794   2.215  0.5901  0.4322 -0.0225
 2594SOL    HW1 8210   4.570   2.788   2.127 -0.1901  0.0510 -0.3190
 2594SOL    HW2 8211   4.573   2.720   2.262 -0.9502 -0.9137 -0.7712
 2595SOL     OW 8212   2.367   1.451   3.969 -0.0699  0.1856  0.9247
 2595SOL    HW1 8213   2.372   1.456   4.064  0.0370 -0.3800  0.9508
 2595SOL    HW2 8214   2.391   1.539   3.939  0.4979  0.1913  1.3911
 2596SOL     OW 8215   2.062   4.059   4.337 -0.3368 -0.6813  0.4756
 2596SOL    HW1 8216   2.096   4.142   4.305 -1.5306 -0.7689 -1.1383
 2596SOL    HW2 8217   2.132   4.024   4.392  1.6442 -0.2507 -1.6210
 2597SOL     OW 8218   1.062   0.518   2.076  0.1590  0.1760 -0.5212
 2597SOL    HW1 8219   1.126   0.458   2.115 -0.0342  0.5911  0.4681
 2597SOL    HW2 8220   1.077   0.601   2.121 -1.3157  0.1893 -0.0002
 2598SOL     OW 8221   3.633   1.894   0.960  0.4911 -1.0762 -0.5263
 2598SOL    HW1 8222   3.611   1.903   0.868  1.5863  2.9535 -0.5954
 2598SOL    HW2 8223   3.604   1.976   1.000  2.0703 -1.7156  2.2542
 2599SOL     OW 8224   0.030   3.501   3.722  0.2198  0.5379 -0.1316
 2599SOL    HW1 8225   0.021   3.507   3.627 -2.8678 -2.0775 -0.1734
 2599SOL    HW2 8226  -0.017   3.576   3.756  0.3912  0.8790 -0.6353
 2600SOL     OW 8227   6.117   3.706   1.778  0.6186  0.2949  0.0129
 2600SOL    HW1 8228   6.031   3.746   1.791  0.9125  0.5746  1.2631
 2600SOL    HW2 8229   6.101   3.612   1.780  0.5708  0.2778  2.5254
 2601SOL     OW 8230   3.501   3.681   2.143 -0.2119  0.8894 -0.0258
 2601SOL    HW1 8231   3.572   3.705   2.084  0.0731 -0.1275 -0.0988
 2601SOL    HW2 8232   3.436   3.751   2.132 -0.0009  0.9004 -1.2637
 2602SOL     OW 8233   0.935   3.935   1.932  0.6521  0.0120  0.2094
 2602SOL    HW1 8234   0.859   3.878   1.941  0.7061 -0.0096  0.5218
 2602SOL    HW2 8235   0.999   3.901   1.994  0.5030  0.7090  0.7545
 2603SOL     OW 8236   4.852   0.578   2.431  0.0298 -0.1822  0.0385
 2603SOL    HW1 8237   4.883   0.507   2.375 -2.3239 -0.6928 -0.7378
 2603SOL    HW2 8238   4.757   0.566   2.435 -0.1548  1.3699  2.0750
 2604SOL     OW 8239   4.832   5.898   1.101 -0.0999  0.2010  0.0315
 2604SOL    HW1 8240   4.852   5.868   1.190 -1.1434 -0.5425  0.0420
 2604SOL    HW2 8241   4.751   5.948   1.110 -0.5943 -0.4590 -0.5826
 2605SOL     OW 8242   5.622   6.236   2.692  0.6549 -0.1272 -0.8331
 2605SOL    HW1 8243   5.559   6.302   2.663  1.0931  1.3647  1.3995
 2605SOL    HW2 8244   5.699   6.250   2.637  0.2562  0.2781 -1.3037
 2606SOL     OW 8245   6.097   2.464   1.104  0.4471 -0.5807  0.0030
 2606SOL    HW1 8246   6.027   2.522   1.072  1.2016  2.6512  3.4470
 2606SOL    HW2 8247   6.178   2.512   1.085  1.3338 -1.7716  0.6601
 2607SOL     OW 8248   0.373   3.268   2.603  0.3744 -0.1089  0.7478
 2607SOL    HW1 8249   0.326   3.343   2.567 -0.3341 -1.6584 -1.8290
 2607SOL    HW2 8250   0.430   3.305   2.670  0.9640  2.9350 -1.2306
 2608SOL     OW 8251   5.895   0.718   2.770 -0.3894  0.0467 -0.6458
 2608SOL    HW1 8252   5.809   0.685   2.796 -0.2955 -1.2538 -1.8372
 2608SOL    HW2 8253   5.915   0.786   2.834 -1.2533 -1.2439  1.1028
 2609SOL     OW 8254   3.725   6.202   1.352 -0.2314  0.0212  0.4542
 2609SOL    HW1 8255   3.760   6.113   1.348  0.2050  0.1275  1.6888
 2609SOL    HW2 8256   3.684   6.209   1.438  0.5677  1.3018  0.7637
 2610SOL     OW 8257   1.362   6.174   0.672 -0.5079 -0.4584 -0.0868
 2610SOL    HW1 8258   1.339   6.108   0.606  0.2218 -1.1380  0.3219
 2610SOL    HW2 8259   1.280   6.218   0.691 -0.8381 -0.6259 -1.0409
 2611SOL     OW 8260   5.284   5.453   0.307 -0.0550 -0.0177  0.2663
 2611SOL    HW1 8261   5.224   5.460   0.381 -1.6403 -0.1954 -0.9575
 2611SOL    HW2 8262   5.303   5.359   0.301 -0.4301 -0.0836  0.0744
 2612SOL     OW 8263   1.492   4.028   2.402  0.5783  0.3285  0.1153
 2612SOL    HW1 8264   1.494   4.079   2.483  1.9961  1.6130 -0.6673
 2612SOL    HW2 8265   1.523   3.941   2.427 -0.2365  0.3285  1.1698
 2613SOL     OW 8266   2.413   3.161   4.352 -0.1126  0.2951 -0.0779
 2613SOL    HW1 8267   2.446   3.251   4.352 -0.1023  0.3799  2.5435
 2613SOL    HW2 8268   2.355   3.157   4.276  0.4302  2.2836 -0.6711
 2614SOL     OW 8269   0.126   3.990   2.719 -0.0221 -0.6208  0.4326
 2614SOL    HW1 8270   0.039   4.020   2.747 -0.3888 -1.1025 -0.1576
 2614SOL    HW2 8271   0.121   3.989   2.623  0.9868  0.3487  0.3453
 2615SOL     OW 8272   1.759   6.188   4.612 -0.0715 -0.0511 -0.6342
 2615SOL    HW1 8273   1.687   6.186   4.676 -0.2614 -1.9409 -0.8429
 2615SOL    HW2 8274   1.762   6.279   4.583 -2.2883  0.1309 -0.5054
 2616SOL     OW 8275   1.357   6.076   1.447  0.0694  0.0160  1.2314
 2616SOL    HW1 8276   1.305   6.052   1.370  0.1058  1.2954  0.7777
 2616SOL    HW2 8277   1.312   6.154   1.482  0.9649  0.3965  1.5519
 2617SOL     OW 8278   1.099   2.864   5.772 -0.2409  0.2796 -0.3148
 2617SOL    HW1 8279   1.043   2.863   5.694 -2.1909  0.0417  1.0317
 2617SOL    HW2 8280   1.123   2.772   5.785 -0.9399  0.1418  0.0509
 2618SOL     OW 8281   1.629   5.752   2.307 -0.6229 -0.1885  0.4367
 2618SOL    HW1 8282   1.711   5.794   2.334 -0.3423 -0.2927 -0.2190
 2618SOL    HW2 8283   1.570   5.764   2.381 -0.3461  0.8107  0.5163
 2619SOL     OW 8284   5.857   3.460   0.451 -0.6702 -0.2271 -0.3016
 2619SOL    HW1 8285   5.796   3.534   0.456  0.3505  0.7919 -2.0585
 2619SOL    HW2 8286   5.889   3.450   0.541 -2.0521  0.3747  0.2917
 2620SOL     OW 8287   3.898   2.734   2.859 -0.1002 -0.6330  0.2794
 2620SOL    HW1 8288   3.903   2.686   2.777 -0.7779 -2.5493  1.2922
 2620SOL    HW2 8289   3.817   2.703   2.900 -0.1665  0.8278  1.3465
 2621SOL     OW 8290   5.990   3.250   2.081  0.6393 -0.0247  0.1014
 2621SOL    HW1 8291   6.060   3.198   2.121 -1.0664 -0.2418  3.1043
 2621SOL    HW2 8292   6.018   3.340   2.092  1.4795 -0.1454 -0.8851
 2622SOL     OW 8293   5.789   0.916   4.545  0.5721 -0.3668 -0.4128
 2622SOL    HW1 8294   5.707   0.962   4.527  1.4486  1.4860  0.0718
 2622SOL    HW2 8295   5.824   0.896   4.459  0.5747  0.6721 -0.6696
 2623SOL     OW 8296   1.336   5.132   3.473 -0.5335  0.5587  0.1270
 2623SOL    HW1 8297   1.385   5.186   3.411  1.2728  0.2536  1.2176
 2623SOL    HW2 8298   1.334   5.045   3.434 -0.5078  0.6553 -0.0908
 2624SOL     OW 8299   6.103   2.193   3.706 -0.5250  0.0113  0.1261
 2624SOL    HW1 8300   6.054   2.204   3.787 -0.5831 -0.7525  0.2014
 2624SOL    HW2 8301   6.194   2.211   3.731 -0.4581 -0.8333  0.5037
 2625SOL     OW 8302   1.251   0.808   5.401  0.9260  0.5894 -0.3751
 2625SOL    HW1 8303   1.192   0.879   5.425 -0.5462 -1.4941  2.8626
 2625SOL    HW2 8304   1.196   0.748   5.350  0.1817 -1.1911  2.3585
 2626SOL     OW 8305   0.132   5.606   1.460 -0.0613  0.0044 -0.7575
 2626SOL    HW1 8306   0.048   5.644   1.432  0.0534  1.3150  0.5397
 2626SOL    HW2 8307   0.114   5.567   1.545  0.7803  0.9016 -0.1514
 2627SOL     OW 8308   2.497   5.895   1.006 -0.2356  0.5777 -0.6204
 2627SOL    HW1 8309   2.500   5.915   0.913  0.5168  1.3367 -0.4543
 2627SOL    HW2 8310   2.573   5.942   1.043  1.2677 -2.1002 -0.0856
 2628SOL     OW 8311   4.134   2.390   0.690  0.0041  0.5395  0.3177
 2628SOL    HW1 8312   4.067   2.321   0.695  0.9364 -0.4998 -1.0482
 2628SOL    HW2 8313   4.193   2.371   0.762 -0.8495  1.1566  1.2107
 2629SOL     OW 8314   2.331   4.961   3.405  0.5726 -0.8327 -0.2246
 2629SOL    HW1 8315   2.251   5.010   3.385  1.3716  0.4697 -0.3398
 2629SOL    HW2 8316   2.303   4.897   3.471 -0.5460 -0.3344 -0.1793
 2630SOL     OW 8317   6.113   3.015   2.189  0.6430 -0.2806 -0.2672
 2630SOL    HW1 8318   6.092   3.034   2.280  0.8115 -0.2776 -0.2272
 2630SOL    HW2 8319   6.204   2.983   2.192  0.1467 -1.7582 -0.2424
 2631SOL     OW 8320   5.633   5.907   2.465  0.1512  0.1466  0.6217
 2631SOL    HW1 8321   5.713   5.867   2.430  0.9853 -0.4719  3.0217
 2631SOL    HW2 8322   5.562   5.865   2.417  1.1474 -1.8910  0.7974
 2632SOL     OW 8323   4.918   4.036   2.072  0.4502 -0.3055  0.4143
 2632SOL    HW1 8324   4.845   4.060   2.129  0.8994 -1.3671  1.4751
 2632SOL    HW2 8325   4.920   4.105   2.006 -0.6294  0.4980  1.1792
 2633SOL     OW 8326   1.325   2.295   4.946 -0.0199  0.1304  0.0603
 2633SOL    HW1 8327   1.331   2.383   4.909 -0.1792  0.0626 -0.1309
 2633SOL    HW2 8328   1.383   2.242   4.891 -0.3472  0.0051 -0.1657
 2634SOL     OW 8329   5.781   3.283   4.458  0.4571 -0.3436  0.1016
 2634SOL    HW1 8330   5.853   3.288   4.395  0.8801 -0.2607  0.5756
 2634SOL    HW2 8331   5.718   3.223   4.419  1.2449 -1.2061  0.1250
 2635SOL     OW 8332   5.871   4.575   4.410  0.3914  0.0987  0.2039
 2635SOL    HW1 8333   5.938   4.526   4.363  0.6273  1.2836 -0.7272
 2635SOL    HW2 8334   5.920   4.638   4.463  0.0352  0.7601 -0.2378
 2636SOL     OW 8335   6.189   3.856   2.184 -0.1045  0.7769 -0.2667
 2636SOL    HW1 8336   6.184   3.919   2.256 -0.3387  0.2575  0.1844
 2636SOL    HW2 8337   6.280   3.827   2.183  0.3041  2.0378 -1.2868
 2637SOL     OW 8338   5.311   3.041   0.662  0.5116 -0.1192  0.2258
 2637SOL    HW1 8339   5.377   3.038   0.593  0.1463 -0.4378 -0.1160
 2637SOL    HW2 8340   5.326   2.960   0.712  0.7280  0.0754  0.4765
 2638SOL     OW 8341   3.910   2.660   1.546  0.1145  0.2573  0.2903
 2638SOL    HW1 8342   3.867   2.575   1.556 -0.3809  0.4921  0.1670
 2638SOL    HW2 8343   3.993   2.650   1.592 -0.5883  0.1771  1.5868
 2639SOL     OW 8344   3.988   2.113   4.114 -0.2286 -0.1628  0.0699
 2639SOL    HW1 8345   4.077   2.137   4.087 -0.9658  1.8734 -0.6993
 2639SOL    HW2 8346   3.998   2.084   4.205  1.2572 -0.3766 -0.1213
 2640SOL     OW 8347   3.334   6.001   3.495 -0.3688  0.2285  0.0383
 2640SOL    HW1 8348   3.244   6.031   3.506 -0.9492 -1.7068  0.9706
 2640SOL    HW2 8349   3.328   5.926   3.436  0.7012  0.3120 -0.2105
 2641SOL     OW 8350   1.342   5.166   1.174  0.3687  0.0915 -0.1104
 2641SOL    HW1 8351   1.384   5.246   1.143 -0.4996 -0.5750 -3.4152
 2641SOL    HW2 8352   1.372   5.098   1.114 -1.5154 -1.3720  0.4961
 2642SOL     OW 8353   1.898   4.666   2.124  0.5502 -0.3052  0.6101
 2642SOL    HW1 8354   1.856   4.732   2.181  0.4539  0.1966 -0.0360
 2642SOL    HW2 8355   1.827   4.607   2.100  0.2224  0.4435 -0.3389
 2643SOL     OW 8356   4.787   6.008   3.283  0.0592  0.0095  0.7253
 2643SOL    HW1 8357   4.750   6.032   3.368 -0.9167  1.1663  0.0023
 2643SOL    HW2 8358   4.811   6.091   3.243  0.1633 -0.4944 -0.2818
 2644SOL     OW 8359   2.730   4.701   5.821 -0.2762  0.5347  0.6587
 2644SOL    HW1 8360   2.791   4.751   5.767  1.8859 -1.5549  0.9781
 2644SOL    HW2 8361   2.728   4.614   5.782  0.9028 -0.8996  3.4720
 2645SOL     OW 8362   5.303   5.827   1.617  0.1711  0.4672  0.1946
 2645SOL    HW1 8363   5.318   5.772   1.540 -1.3223 -2.0845  1.6112
 2645SOL    HW2 8364   5.390   5.834   1.657  0.4064 -0.8737 -0.0296
 2646SOL     OW 8365   3.817   0.338   6.037 -0.0913  0.3098  0.0983
 2646SOL    HW1 8366   3.876   0.317   6.109 -1.7625 -1.9926  0.9018
 2646SOL    HW2 8367   3.795   0.253   5.999 -1.9058  1.2037 -0.9690
 2647SOL     OW 8368   3.331   5.379   5.963 -0.3907 -0.0862  0.0764
 2647SOL    HW1 8369   3.375   5.444   5.909  2.2215  1.1650  3.3556
 2647SOL    HW2 8370   3.277   5.430   6.023 -0.8546 -1.1729  0.6050
 2648SOL     OW 8371   0.364   2.935   2.874  0.3222  0.5889 -0.3742
 2648SOL    HW1 8372   0.402   2.848   2.886 -0.4441  0.2591 -0.2806
 2648SOL    HW2 8373   0.316   2.929   2.792 -1.4172  0.2800  0.6045
 2649SOL     OW 8374   1.400   5.666   3.061 -0.2943  0.0180  0.7113
 2649SOL    HW1 8375   1.457   5.635   3.132  0.1254  1.5706  1.0954
 2649SOL    HW2 8376   1.355   5.742   3.099 -0.6950  0.3564 -0.4203
 2650SOL     OW 8377   3.424   3.642   2.477  0.1359 -0.0624 -0.3702
 2650SOL    HW1 8378   3.413   3.555   2.438  1.4636 -0.1923 -0.5117
 2650SOL    HW2 8379   3.515   3.664   2.460  0.0696  0.9578  0.4968
 2651SOL     OW 8380   5.133   3.713   5.077  0.2632  0.1336  0.7386
 2651SOL    HW1 8381   5.094   3.645   5.132  1.4379 -0.0295  1.4087
 2651SOL    HW2 8382   5.165   3.667   5.000  0.2474  0.0636  0.7745
 2652SOL     OW 8383   0.287   5.073   1.318  0.3427  0.4031  0.1733
 2652SOL    HW1 8384   0.250   4.989   1.293  1.5054 -0.1003  0.0861
 2652SOL    HW2 8385   0.217   5.116   1.368 -1.1459  0.4424 -1.8489
 2653SOL     OW 8386   4.215   2.274   1.022  0.1040 -0.3602 -0.0214
 2653SOL    HW1 8387   4.157   2.252   1.095 -1.0494  2.7334  0.1771
 2653SOL    HW2 8388   4.280   2.204   1.020 -0.7051 -1.3470  2.9929
 2654SOL     OW 8389   3.297   0.601   2.273  0.1828 -0.0320  0.4884
 2654SOL    HW1 8390   3.378   0.628   2.314  0.0866 -1.5295  1.7729
 2654SOL    HW2 8391   3.231   0.661   2.307  0.5063  0.2500  0.6194
 2655SOL     OW 8392   1.889   4.403   1.608 -0.0433  0.0061  0.3856
 2655SOL    HW1 8393   1.807   4.453   1.608  0.3237  0.6232  0.2060
 2655SOL    HW2 8394   1.869   4.324   1.658 -1.1522 -0.5423 -0.8644
 2656SOL     OW 8395   4.918   3.285   5.188 -0.2227 -0.3140  0.1443
 2656SOL    HW1 8396   4.860   3.214   5.218  0.0313 -0.8777 -0.6594
 2656SOL    HW2 8397   4.990   3.239   5.145 -0.3983  0.4494 -0.9927
 2657SOL     OW 8398   0.872   0.072   2.287  0.3551  0.0528  0.5196
 2657SOL    HW1 8399   0.891   0.158   2.325  0.4603 -0.4472  1.6182
 2657SOL    HW2 8400   0.918   0.073   2.203  1.3836  0.5986  1.0724
 2658SOL     OW 8401   1.525   2.119   1.094 -0.6557  0.0143 -0.4341
 2658SOL    HW1 8402   1.437   2.152   1.076 -0.6676  0.4062  0.3051
 2658SOL    HW2 8403   1.553   2.165   1.173  0.0088 -0.4919 -0.3592
 2659SOL     OW 8404   5.740   1.762   5.066  0.3540 -0.2701 -0.5786
 2659SOL    HW1 8405   5.734   1.840   5.011  1.9721 -0.6926 -1.4238
 2659SOL    HW2 8406   5.676   1.776   5.136  1.5872  2.4748  0.1097
 2660SOL     OW 8407   2.768   3.411   4.247 -0.3477 -1.0211 -0.3550
 2660SOL    HW1 8408   2.777   3.377   4.158  0.0316  0.3512 -0.8595
 2660SOL    HW2 8409   2.777   3.506   4.238 -3.3479 -0.5023  0.7140
 2661SOL     OW 8410   0.838   1.139   0.264  0.4964 -0.1350 -0.1903
 2661SOL    HW1 8411   0.788   1.094   0.332 -0.4154  1.4921  0.2536
 2661SOL    HW2 8412   0.899   1.195   0.311  2.1695 -1.4085 -0.7367
 2662SOL     OW 8413   1.707   0.092   2.002 -0.0541 -0.2045  0.1420
 2662SOL    HW1 8414   1.667   0.008   1.978 -0.7518  0.2550 -0.3491
 2662SOL    HW2 8415   1.767   0.112   1.930 -0.7340  0.2602 -0.3014
 2663SOL     OW 8416   3.235   5.938   5.923 -0.1008  0.6444 -0.4336
 2663SOL    HW1 8417   3.182   5.870   5.882  0.3035 -0.4724  0.8576
 2663SOL    HW2 8418   3.222   6.015   5.867 -2.0687  0.0517 -0.8601
 2664SOL     OW 8419   0.385   2.183   4.784  0.5068  0.0229  0.3880
 2664SOL    HW1 8420   0.318   2.246   4.810 -0.1534  0.4935 -2.1813
 2664SOL    HW2 8421   0.418   2.147   4.866 -0.1103  2.6590  1.8903
 2665SOL     OW 8422   5.631   1.092   4.111  0.2969  0.0362  0.2431
 2665SOL    HW1 8423   5.666   1.004   4.095 -0.0838 -0.3773  1.5748
 2665SOL    HW2 8424   5.538   1.078   4.129 -0.3874  1.0159 -2.1689
 2666SOL     OW 8425   0.594   3.419   5.224 -0.3772 -0.1525  0.1057
 2666SOL    HW1 8426   0.632   3.506   5.215  1.6946 -1.0828 -0.8563
 2666SOL    HW2 8427   0.575   3.411   5.318  0.1811  1.0251  0.3355
 2667SOL     OW 8428   5.686   1.900   2.301  0.0775 -0.5685  0.6782
 2667SOL    HW1 8429   5.637   1.960   2.358 -0.8424 -0.8999  0.2645
 2667SOL    HW2 8430   5.733   1.843   2.361 -0.6254 -0.7047  1.1147
 2668SOL     OW 8431   5.189   3.661   1.365 -0.0897 -0.2580 -0.8325
 2668SOL    HW1 8432   5.164   3.569   1.370  0.2604 -0.3120  0.2555
 2668SOL    HW2 8433   5.284   3.661   1.378 -0.1859  0.3081 -0.0780
 2669SOL     OW 8434   4.139   1.071   5.655 -0.1624 -0.3578 -0.1443
 2669SOL    HW1 8435   4.205   1.011   5.621  0.9110  0.8370 -0.2639
 2669SOL    HW2 8436   4.186   1.124   5.719 -1.0278  0.4631 -0.1718
 2670SOL     OW 8437   3.767   2.884   6.174 -0.5446 -0.4469  0.0139
 2670SOL    HW1 8438   3.844   2.915   6.126 -1.2857  1.0828 -0.2798
 2670SOL    HW2 8439   3.794   2.801   6.213  1.7372  0.7079  1.1049
 2671SOL     OW 8440   4.906   1.401   0.056  0.2032  0.7495 -0.2693
 2671SOL    HW1 8441   4.940   1.470  -0.001  1.8279 -1.0152 -1.5527
 2671SOL    HW2 8442   4.850   1.447   0.119  1.0210  3.1818 -1.2208
 2672SOL     OW 8443   2.493   0.339   1.042  0.7955 -0.4693  0.0438
 2672SOL    HW1 8444   2.484   0.277   0.970 -1.4637  0.7349 -0.8076
 2672SOL    HW2 8445   2.446   0.299   1.115 -2.9459  1.1655 -1.2466
 2673SOL     OW 8446   0.799   0.271   5.422 -0.1082 -0.9679  0.1000
 2673SOL    HW1 8447   0.774   0.319   5.344 -0.0702 -2.6913 -1.0135
 2673SOL    HW2 8448   0.889   0.243   5.406  0.7360  0.5451  1.7548
 2674SOL     OW 8449   1.573   4.555   0.537  0.2891  0.2117  0.0580
 2674SOL    HW1 8450   1.610   4.502   0.608 -1.3005 -1.5832 -0.3861
 2674SOL    HW2 8451   1.503   4.605   0.580  2.0501  2.4311  0.5691
 2675SOL     OW 8452   2.388   5.787   5.755  0.1556 -0.3733  0.0570
 2675SOL    HW1 8453   2.319   5.722   5.768  1.1822 -1.6398 -0.6205
 2675SOL    HW2 8454   2.440   5.784   5.835 -1.1819  1.4249  1.0731
 2676SOL     OW 8455   0.657   5.199   3.363  0.0690 -0.8592  0.0941
 2676SOL    HW1 8456   0.741   5.157   3.341  1.1532  1.1134  0.2593
 2676SOL    HW2 8457   0.680   5.290   3.380 -2.0703 -0.3800  0.6320
 2677SOL     OW 8458   0.936   5.152   3.339  0.2797 -0.1266 -0.8168
 2677SOL    HW1 8459   0.937   5.178   3.431 -1.2342  0.5124 -0.9438
 2677SOL    HW2 8460   1.005   5.204   3.298  0.1703  0.4748 -0.2495
 2678SOL     OW 8461   0.147   3.855   3.257 -0.0316 -0.3914 -0.2635
 2678SOL    HW1 8462   0.226   3.865   3.204  0.3333 -2.5797 -0.2194
 2678SOL    HW2 8463   0.161   3.912   3.333 -0.1224  2.0028 -1.9333
 2679SOL     OW 8464   2.209   0.979   4.418 -0.4610 -0.0117  0.2784
 2679SOL    HW1 8465   2.147   1.051   4.423  0.0607  0.4529  0.1237
 2679SOL    HW2 8466   2.293   1.020   4.398 -0.2751 -0.7161 -0.4325
 2680SOL     OW 8467   4.852   5.959   2.516 -0.2694  0.2652  0.0100
 2680SOL    HW1 8468   4.885   5.915   2.438  2.5338 -0.8866  1.6686
 2680SOL    HW2 8469   4.913   6.031   2.531 -2.0496  1.8590 -0.0012
 2681SOL     OW 8470   1.037   5.934   1.539  1.0097 -0.3984  0.7499
 2681SOL    HW1 8471   0.965   5.909   1.481 -0.2992  0.2953  2.0118
 2681SOL    HW2 8472   1.107   5.872   1.518 -0.1157 -1.4039 -0.1843
 2682SOL     OW 8473   5.159   3.527   3.681  0.2110  0.2020  0.1729
 2682SOL    HW1 8474   5.103   3.559   3.751  2.5187 -0.7633  2.6194
 2682SOL    HW2 8475   5.147   3.432   3.684  1.9055 -0.0201  0.7542
 2683SOL     OW 8476   4.535   1.980   4.353  0.6775  0.1460 -0.3307
 2683SOL    HW1 8477   4.592   1.909   4.383  1.1174  0.8854  0.6369
 2683SOL    HW2 8478   4.447   1.944   4.359  0.7702  0.1284  1.5591
 2684SOL     OW 8479   5.948   3.629   0.190  0.0835  0.0802 -0.4436
 2684SOL    HW1 8480   5.968   3.721   0.206  2.8348 -0.5377  0.2074
 2684SOL    HW2 8481   5.895   3.603   0.265  0.3508  0.8317  0.0199
 2685SOL     OW 8482   4.805   4.256   4.951  0.5857 -0.3178 -0.1214
 2685SOL    HW1 8483   4.736   4.321   4.960 -0.3496 -1.5036  2.0602
 2685SOL    HW2 8484   4.884   4.307   4.936 -0.3060  1.2521  0.2992
 2686SOL     OW 8485   0.355   2.509   1.531 -0.4584  0.0885 -0.1914
 2686SOL    HW1 8486   0.390   2.422   1.515 -0.7200 -0.1169  0.3079
 2686SOL    HW2 8487   0.432   2.565   1.541 -0.2798  0.2218 -2.0062
 2687SOL     OW 8488   4.122   0.032   1.627  0.8219  0.3753 -0.0261
 2687SOL    HW1 8489   4.043   0.080   1.654  2.0175  1.7856  1.2171
 2687SOL    HW2 8490   4.112   0.019   1.533 -1.7549 -1.2415  0.3722
 2688SOL     OW 8491   1.043   3.617   3.786 -0.2495  0.2501 -0.4252
 2688SOL    HW1 8492   0.959   3.591   3.749 -0.7794  1.5215 -0.1714
 2688SOL    HW2 8493   1.021   3.664   3.866  0.8675 -2.5453  1.6846
 2689SOL     OW 8494   1.270   3.695   4.206 -0.3255 -0.1873  0.3505
 2689SOL    HW1 8495   1.250   3.785   4.233 -1.6057  0.1699 -1.5726
 2689SOL    HW2 8496   1.362   3.697   4.182 -0.4210  0.7158  0.0071
 2690SOL     OW 8497   1.730   0.158   3.139  0.2663  0.1119 -0.0617
 2690SOL    HW1 8498   1.718   0.205   3.222  1.2624  0.8398 -0.3105
 2690SOL    HW2 8499   1.825   0.156   3.126  0.2259 -1.5682 -0.3212
 2691SOL     OW 8500   5.400   5.075   4.974 -0.3424  0.5443  0.3763
 2691SOL    HW1 8501   5.317   5.075   5.021  0.0109 -1.5594  1.0787
 2691SOL    HW2 8502   5.444   4.994   5.000 -0.3459 -1.1095 -3.9342
 2692SOL     OW 8503   2.646   3.561   2.240  0.0113 -0.0575  0.1769
 2692SOL    HW1 8504   2.667   3.503   2.166 -0.2829  0.0657 -0.0004
 2692SOL    HW2 8505   2.706   3.533   2.309  0.2588 -0.2009 -0.0944
 2693SOL     OW 8506   5.302   3.677   4.150  0.6791 -0.2321 -0.3983
 2693SOL    HW1 8507   5.248   3.746   4.189  0.5378 -0.2904 -0.4867
 2693SOL    HW2 8508   5.302   3.607   4.216  1.9893  0.3992  0.2964
 2694SOL     OW 8509   1.090   1.455   5.390 -0.5131  0.1629  0.7119
 2694SOL    HW1 8510   1.085   1.473   5.484  0.2317  0.1922  0.7530
 2694SOL    HW2 8511   1.037   1.523   5.349  0.4151  1.0883  1.0129
 2695SOL     OW 8512   3.021   0.372   2.365 -0.6469 -0.1926  0.2760
 2695SOL    HW1 8513   3.007   0.446   2.305 -0.5266 -0.6657 -0.3450
 2695SOL    HW2 8514   2.961   0.388   2.437  0.5868  1.4225  1.0119
 2696SOL     OW 8515   0.006   3.995   5.335 -0.5486 -0.3453 -0.1819
 2696SOL    HW1 8516  -0.075   3.948   5.356 -0.0643 -0.6847  0.9894
 2696SOL    HW2 8517  -0.015   4.087   5.355 -0.8815 -0.3175 -0.6321
 2697SOL     OW 8518   0.312   4.972   5.409  0.1571 -0.1456 -0.1933
 2697SOL    HW1 8519   0.240   4.935   5.358  0.1358 -0.1615 -0.1523
 2697SOL    HW2 8520   0.270   5.035   5.468  0.3124  0.6605 -0.9382
 2698SOL     OW 8521   4.581   1.142   3.526 -0.1906 -0.4408 -0.8208
 2698SOL    HW1 8522   4.638   1.165   3.599  1.4828 -2.1123 -1.5384
 2698SOL    HW2 8523   4.502   1.106   3.567 -1.3022  2.7837  0.2135
 2699SOL     OW 8524   0.131   1.905   5.704  0.1101  0.0152  0.3906
 2699SOL    HW1 8525   0.056   1.926   5.759 -2.2722  1.3819 -3.0175
 2699SOL    HW2 8526   0.103   1.828   5.654  1.2803  0.0749 -0.3896
 2700SOL     OW 8527   2.742   2.790   3.924 -0.2121  0.2012 -0.3880
 2700SOL    HW1 8528   2.698   2.875   3.927 -0.0380  0.3036 -0.6236
 2700SOL    HW2 8529   2.821   2.802   3.977 -0.5033 -0.0068  0.1025
 2701SOL     OW 8530   3.302   2.514   1.547 -0.3866 -0.1853 -0.3185
 2701SOL    HW1 8531   3.341   2.494   1.462  1.4517  1.2421  0.1193
 2701SOL    HW2 8532   3.211   2.538   1.527 -0.4003 -1.2476 -1.6789
 2702SOL     OW 8533   4.129   3.029   2.336 -0.1274 -0.2867 -0.8595
 2702SOL    HW1 8534   4.191   3.085   2.288  0.3661  1.6763  1.8474
 2702SOL    HW2 8535   4.185   2.962   2.376 -0.2730 -0.6836 -1.3066
 2703SOL     OW 8536   1.296   4.113   1.188 -0.3332 -0.5407  0.8784
 2703SOL    HW1 8537   1.295   4.084   1.097 -0.2679 -0.3345  0.8103
 2703SOL    HW2 8538   1.236   4.054   1.233  0.0905 -1.0135  0.8191
 2704SOL     OW 8539   5.993   1.174   5.659  0.2364  0.3054 -0.7729
 2704SOL    HW1 8540   6.043   1.107   5.705  1.2833  2.1343  0.8871
 2704SOL    HW2 8541   5.964   1.131   5.578  1.5659 -1.8586 -0.1773
 2705SOL     OW 8542   4.154   5.988   0.540  0.0813  0.2451  0.1232
 2705SOL    HW1 8543   4.170   5.942   0.457 -1.6432  1.0731 -0.7301
 2705SOL    HW2 8544   4.073   6.036   0.525 -0.1561  0.5961  2.2482
 2706SOL     OW 8545   5.749   2.120   1.223  0.1192  0.3678  0.4802
 2706SOL    HW1 8546   5.725   2.161   1.140 -0.1450 -0.6449  0.0443
 2706SOL    HW2 8547   5.844   2.132   1.229 -0.0869  2.1205  0.9771
 2707SOL     OW 8548   3.477   1.268   0.658  0.2975 -0.2884 -0.3533
 2707SOL    HW1 8549   3.531   1.204   0.704 -0.9969 -1.6325 -0.6671
 2707SOL    HW2 8550   3.541   1.330   0.621  1.4437  0.1441  2.1483
 2708SOL     OW 8551   4.157   1.321   1.343  0.0277 -0.2031 -0.4217
 2708SOL    HW1 8552   4.101   1.377   1.290  0.9986  2.7453  1.3928
 2708SOL    HW2 8553   4.240   1.318   1.296  0.0944  0.2708 -0.3419
 2709SOL     OW 8554   1.426   0.063   0.371  0.6281 -0.3046  0.2542
 2709SOL    HW1 8555   1.426  -0.009   0.434  1.3239 -0.2878  0.2824
 2709SOL    HW2 8556   1.384   0.135   0.417  1.5630 -0.1434  0.8796
 2710SOL     OW 8557   2.014   5.383   1.224  0.2194 -0.0166  0.3111
 2710SOL    HW1 8558   1.962   5.411   1.148 -1.2831 -0.7366  1.0328
 2710SOL    HW2 8559   2.089   5.442   1.225 -2.4485  3.6635  1.4154
 2711SOL     OW 8560   0.751   2.011   5.947  0.3936 -0.0489 -0.2593
 2711SOL    HW1 8561   0.776   1.973   5.863 -2.1510  0.4285 -1.3319
 2711SOL    HW2 8562   0.702   1.942   5.991  0.7728  0.0681  0.3453
 2712SOL     OW 8563   1.484   2.176   4.775 -0.0813  0.1641  0.2578
 2712SOL    HW1 8564   1.436   2.094   4.784 -2.4373  1.5357  1.0650
 2712SOL    HW2 8565   1.484   2.195   4.681  0.0226 -0.4718  0.1285
 2713SOL     OW 8566   2.201   4.899   4.269  0.7350  0.3526 -0.2925
 2713SOL    HW1 8567   2.277   4.848   4.297  0.8544  0.3642 -0.5972
 2713SOL    HW2 8568   2.235   4.987   4.254  0.5190  0.5426  0.2869
 2714SOL     OW 8569   2.723   6.121   3.967  0.1273  0.1640  0.0316
 2714SOL    HW1 8570   2.771   6.077   3.898  1.6723  1.2093  0.3801
 2714SOL    HW2 8571   2.758   6.211   3.967 -0.5303  0.4541  1.5087
 2715SOL     OW 8572   6.066   1.908   3.259  0.1730  0.4840  0.0547
 2715SOL    HW1 8573   6.066   1.972   3.330  1.5173  2.4704 -1.6018
 2715SOL    HW2 8574   6.158   1.895   3.239 -0.1566 -0.6761 -0.7856
 2716SOL     OW 8575   5.671   5.954   4.078 -0.1444 -0.1012 -0.5114
 2716SOL    HW1 8576   5.622   6.012   4.020 -1.3600  1.3089  1.7773
 2716SOL    HW2 8577   5.741   6.009   4.112 -0.9694 -0.0683  1.2464
 2717SOL     OW 8578   6.091   5.041   3.301  0.5323 -0.3938 -0.9659
 2717SOL    HW1 8579   6.121   5.127   3.272 -0.6714 -0.2868 -2.0173
 2717SOL    HW2 8580   6.089   4.988   3.221 -0.1646 -0.9388 -0.6010
 2718SOL     OW 8581   2.455   2.411   0.945 -0.4244 -0.2858 -0.3269
 2718SOL    HW1 8582   2.501   2.327   0.955  1.3635  0.6030 -0.6926
 2718SOL    HW2 8583   2.505   2.458   0.879 -0.4581  1.6918  0.9856
 2719SOL     OW 8584   5.717   3.619   5.929  0.5814 -0.8665  0.1799
 2719SOL    HW1 8585   5.628   3.656   5.930  0.9628  0.0855 -0.3222
 2719SOL    HW2 8586   5.774   3.695   5.919  1.4077 -1.5663 -0.5314
 2720SOL     OW 8587   4.569   2.907   5.592  0.3855 -0.1255  0.3203
 2720SOL    HW1 8588   4.637   2.873   5.651  0.3379  0.0994  0.5056
 2720SOL    HW2 8589   4.541   2.831   5.542  2.5001  0.1642 -1.4964
 2721SOL     OW 8590   2.365   3.908   3.013 -0.2272  0.8644 -0.3086
 2721SOL    HW1 8591   2.458   3.917   3.034 -0.6032  1.9038  1.0125
 2721SOL    HW2 8592   2.344   3.817   3.034 -0.0559  1.2693  1.8184
 2722SOL     OW 8593   5.851   4.885   0.960  0.4758  0.0785 -0.0976
 2722SOL    HW1 8594   5.772   4.832   0.973 -0.2723  1.1510 -0.2074
 2722SOL    HW2 8595   5.858   4.939   1.038  1.8553 -0.9038  0.5159
 2723SOL     OW 8596   0.483   1.426   1.499 -0.1151  0.1290  0.0762
 2723SOL    HW1 8597   0.477   1.451   1.592  1.6085  1.9787 -0.2426
 2723SOL    HW2 8598   0.543   1.351   1.499  0.9489  0.9597  0.3617
 2724SOL     OW 8599   1.966   5.934   3.057 -0.1723 -0.2859  0.5013
 2724SOL    HW1 8600   1.881   5.891   3.066  0.6768 -1.8728  1.5683
 2724SOL    HW2 8601   2.014   5.909   3.137  2.2376 -1.7667 -1.2578
 2725SOL     OW 8602   1.812   3.936   1.596  0.1990  0.4004  0.4816
 2725SOL    HW1 8603   1.762   3.877   1.539 -0.3668  0.6074  0.7552
 2725SOL    HW2 8604   1.835   3.883   1.672 -1.7726  0.9552  1.5268
 2726SOL     OW 8605   4.688   1.521   5.344  0.7416 -0.0532 -0.0266
 2726SOL    HW1 8606   4.736   1.532   5.426 -1.7266 -0.8269  1.6387
 2726SOL    HW2 8607   4.646   1.606   5.330  2.3684  0.5781 -1.4011
 2727SOL     OW 8608   4.241   4.625   5.887  0.4786  0.2735  0.4523
 2727SOL    HW1 8609   4.242   4.626   5.791 -1.2684  1.3495  0.3963
 2727SOL    HW2 8610   4.291   4.546   5.910  1.8745  0.5633 -1.2827
 2728SOL     OW 8611   2.550   0.015   5.509 -0.2566  0.4790 -0.3293
 2728SOL    HW1 8612   2.559   0.079   5.439  3.7408 -0.0376 -0.5166
 2728SOL    HW2 8613   2.519   0.066   5.584  0.1480  2.0456 -1.1805
 2729SOL     OW 8614   0.473   2.255   1.524  0.0605  0.4186 -0.2227
 2729SOL    HW1 8615   0.423   2.178   1.497 -0.7846  1.3248 -1.3071
 2729SOL    HW2 8616   0.560   2.241   1.487 -0.6978  0.9866 -2.3274
 2730SOL     OW 8617   1.709   6.236   0.326 -0.1241 -0.2618  0.1717
 2730SOL    HW1 8618   1.619   6.264   0.345  0.2734  1.1478  0.0736
 2730SOL    HW2 8619   1.755   6.244   0.409 -0.0350 -0.8281  0.1826
 2731SOL     OW 8620   1.471   5.090   0.751 -0.5260 -0.5291  0.6927
 2731SOL    HW1 8621   1.526   5.122   0.680  0.4675  0.5900  1.9175
 2731SOL    HW2 8622   1.430   5.011   0.716  0.4311 -0.3688 -0.8807
 2732SOL     OW 8623   5.130   2.580   0.873 -0.2196 -0.1026  0.2739
 2732SOL    HW1 8624   5.100   2.504   0.824  1.9148 -0.5271 -0.4418
 2732SOL    HW2 8625   5.136   2.650   0.807 -0.6412  0.2836  0.6310
 2733SOL     OW 8626   0.480   2.841   0.974 -0.1093  0.0688 -0.3907
 2733SOL    HW1 8627   0.389   2.812   0.980 -0.2090 -0.6417 -3.6437
 2733SOL    HW2 8628   0.513   2.800   0.894  4.6272 -3.8612  2.8961
 2734SOL     OW 8629   0.260   3.803   5.897  0.2370 -0.9839 -0.3390
 2734SOL    HW1 8630   0.329   3.756   5.944  1.0821 -0.4456 -1.0114
 2734SOL    HW2 8631   0.303   3.879   5.860 -1.4810  1.5316  2.3701
 2735SOL     OW 8632   0.885   2.708   6.190 -0.1553 -0.4122 -0.0426
 2735SOL    HW1 8633   0.892   2.619   6.224  1.7114 -0.8374 -1.4129
 2735SOL    HW2 8634   0.912   2.764   6.264  0.1711 -1.0755  0.3488
 2736SOL     OW 8635   3.130   2.370   5.986  0.0434  0.7064 -0.4520
 2736SOL    HW1 8636   3.159   2.319   5.911  0.6228  0.6817 -0.2145
 2736SOL    HW2 8637   3.082   2.444   5.948  0.8675  1.0351 -0.8795
 2737SOL     OW 8638   5.595   5.786   3.348 -0.2506 -0.2748 -0.0083
 2737SOL    HW1 8639   5.522   5.726   3.366 -0.6975 -0.0078 -0.8787
 2737SOL    HW2 8640   5.673   5.732   3.358 -0.6714 -1.1752 -1.3955
 2738SOL     OW 8641   2.542   1.563   3.104  0.2260  0.0038  0.2921
 2738SOL    HW1 8642   2.545   1.563   3.199 -1.6156 -1.0390  0.3988
 2738SOL    HW2 8643   2.598   1.636   3.078 -0.5092  1.3428  2.2172
 2739SOL     OW 8644   2.286   2.619   2.325 -0.0405 -0.0585 -0.3417
 2739SOL    HW1 8645   2.276   2.714   2.320  0.0324  0.0383  1.0130
 2739SOL    HW2 8646   2.198   2.585   2.305 -1.0724  0.4713  2.7738
 2740SOL     OW 8647   0.632   4.434   2.685  0.4341 -0.2867 -0.3286
 2740SOL    HW1 8648   0.702   4.493   2.714  0.6784  0.7494 -2.7224
 2740SOL    HW2 8649   0.553   4.466   2.729  1.1731 -0.5201  1.2271
 2741SOL     OW 8650   2.328   4.112   4.470  0.0830 -0.1416 -0.5090
 2741SOL    HW1 8651   2.328   4.146   4.560  1.6521  0.4896 -0.7119
 2741SOL    HW2 8652   2.392   4.040   4.473 -0.4834 -0.6702 -0.9399
 2742SOL     OW 8653   6.122   4.882   0.950 -0.0773  0.4846 -0.1086
 2742SOL    HW1 8654   6.028   4.889   0.933 -0.1461  1.3541  0.5446
 2742SOL    HW2 8655   6.149   4.804   0.902 -1.4604 -0.7586  1.0109
 2743SOL     OW 8656   6.098   0.495   2.725  0.1818  0.6228 -0.5386
 2743SOL    HW1 8657   6.151   0.493   2.805 -0.7097 -3.0012  0.1186
 2743SOL    HW2 8658   6.034   0.564   2.740  2.4994  2.8019  0.0545
 2744SOL     OW 8659   4.325   1.920   2.939 -0.5768 -0.3979 -0.5064
 2744SOL    HW1 8660   4.375   2.000   2.954  0.7148 -1.0726 -1.0436
 2744SOL    HW2 8661   4.236   1.950   2.919 -0.2317  0.8640 -0.2342
 2745SOL     OW 8662   4.002   2.849   3.927  0.3142 -0.1494 -0.0599
 2745SOL    HW1 8663   4.037   2.779   3.982 -0.0409 -0.5938 -0.3997
 2745SOL    HW2 8664   4.073   2.913   3.921 -0.0388  0.5399  1.9873
 2746SOL     OW 8665   1.281   2.333   0.419 -0.1935  0.2144  0.0818
 2746SOL    HW1 8666   1.371   2.364   0.412 -0.9460  2.6781  0.3066
 2746SOL    HW2 8667   1.243   2.347   0.332 -0.7107  0.4432  0.3369
 2747SOL     OW 8668   5.161   0.869   5.225  0.3089  0.0076  0.0769
 2747SOL    HW1 8669   5.243   0.874   5.175  0.8151  0.6719  0.9507
 2747SOL    HW2 8670   5.133   0.778   5.215  2.6674 -1.0662  2.0840
 2748SOL     OW 8671   0.459   3.455   3.329  0.2811  0.4134  0.3162
 2748SOL    HW1 8672   0.519   3.386   3.355  0.2256  0.2481  0.0194
 2748SOL    HW2 8673   0.374   3.412   3.323 -0.0694  0.8604  1.7077
 2749SOL     OW 8674   2.566   0.382   3.793  0.5710  0.7163  0.1841
 2749SOL    HW1 8675   2.562   0.462   3.739  3.7632  1.4088  0.7416
 2749SOL    HW2 8676   2.657   0.352   3.783 -0.7629 -3.5473 -0.8402
 2750SOL     OW 8677   1.719   1.973   4.945 -0.1501 -0.9830 -0.3158
 2750SOL    HW1 8678   1.697   2.049   5.000  0.5763 -0.1615 -1.1224
 2750SOL    HW2 8679   1.637   1.948   4.904 -0.9769 -2.3605  2.0050
 2751SOL     OW 8680   2.834   0.313   3.741  0.4157  0.3455 -0.3143
 2751SOL    HW1 8681   2.853   0.320   3.834  2.8975 -0.4012 -0.6750
 2751SOL    HW2 8682   2.781   0.234   3.732 -3.6396  2.6780  0.8088
 2752SOL     OW 8683   4.787   1.601   0.706  0.2987  0.0758 -0.5232
 2752SOL    HW1 8684   4.852   1.669   0.724  0.0268 -0.2023  1.6676
 2752SOL    HW2 8685   4.837   1.520   0.703  0.0407 -0.2446  1.9449
 2753SOL     OW 8686   4.610   0.805   4.526 -0.0028  0.3000 -0.4723
 2753SOL    HW1 8687   4.664   0.883   4.534  1.7430 -0.9732  0.9686
 2753SOL    HW2 8688   4.593   0.777   4.616 -1.6194 -0.3332 -0.9243
 2754SOL     OW 8689   4.660   5.410   5.419 -0.2669 -0.2987 -0.0368
 2754SOL    HW1 8690   4.733   5.431   5.361 -0.4794 -1.0968 -0.5983
 2754SOL    HW2 8691   4.656   5.485   5.479  1.2213 -0.3846  0.2213
 2755SOL     OW 8692   5.621   2.828   5.378 -0.0339  0.2175  0.4038
 2755SOL    HW1 8693   5.570   2.909   5.384 -1.0211 -0.1080 -2.0516
 2755SOL    HW2 8694   5.708   2.856   5.348 -0.7889  0.3688 -1.8727
 2756SOL     OW 8695   5.006   3.928   5.337  0.3398 -0.0007  0.3692
 2756SOL    HW1 8696   5.012   3.862   5.268  1.4597  0.3297  0.1206
 2756SOL    HW2 8697   4.955   3.999   5.299 -1.0859 -0.8003  0.7221
 2757SOL     OW 8698   4.463   4.957   2.744 -0.1545 -0.1730  0.0112
 2757SOL    HW1 8699   4.432   4.866   2.748  1.2786 -0.6905  0.3511
 2757SOL    HW2 8700   4.558   4.949   2.754  0.1672  1.2592 -1.5968
 2758SOL     OW 8701   0.571   1.572   2.952 -0.1972 -0.0358 -0.3381
 2758SOL    HW1 8702   0.651   1.520   2.959 -0.3733 -0.1851  0.6669
 2758SOL    HW2 8703   0.599   1.662   2.968 -0.1313 -0.0037 -0.6252
 2759SOL     OW 8704   1.508   1.219   2.044  0.0878 -0.1022 -1.0618
 2759SOL    HW1 8705   1.530   1.210   1.951 -1.1702  1.7760 -1.5891
 2759SOL    HW2 8706   1.562   1.293   2.074 -2.6477  2.2455 -1.4991
 2760SOL     OW 8707   1.462   0.274   2.570  0.7502 -0.2689 -0.3148
 2760SOL    HW1 8708   1.463   0.246   2.479  1.2930 -0.7368 -0.1742
 2760SOL    HW2 8709   1.386   0.231   2.608 -0.5612  1.3538 -0.9550
 2761SOL     OW 8710   0.354   2.329   2.096 -0.2857  0.6406  0.2077
 2761SOL    HW1 8711   0.273   2.323   2.146  0.1503 -1.4657  0.7644
 2761SOL    HW2 8712   0.327   2.367   2.012 -1.7828  0.4021  0.5422
 2762SOL     OW 8713   4.450   2.687   6.214 -0.4657 -0.5890 -0.0722
 2762SOL    HW1 8714   4.406   2.664   6.295 -2.3268  0.1078 -0.8272
 2762SOL    HW2 8715   4.433   2.613   6.155 -2.2597  0.4498 -0.9389
 2763SOL     OW 8716   4.065   4.704   2.667 -0.0523 -0.3789  0.2020
 2763SOL    HW1 8717   4.068   4.766   2.740  2.7571 -0.0840 -0.0338
 2763SOL    HW2 8718   4.109   4.626   2.700  1.1259 -0.2961 -1.0796
 2764SOL     OW 8719   4.037   0.103   2.230  0.6777  0.3475  0.3098
 2764SOL    HW1 8720   4.002   0.095   2.141 -0.8618  0.3790  0.8744
 2764SOL    HW2 8721   4.062   0.196   2.238  0.5391  0.4112  0.0127
 2765SOL     OW 8722   4.680   0.573   3.651 -0.8393  0.8765  0.0337
 2765SOL    HW1 8723   4.625   0.496   3.638 -0.6524  0.8120 -0.4193
 2765SOL    HW2 8724   4.631   0.644   3.610 -0.7834  0.8974  0.0021
 2766SOL     OW 8725   3.164   0.487   5.532  0.5073  0.3568  0.1486
 2766SOL    HW1 8726   3.190   0.488   5.624  0.6525 -0.8185  0.1371
 2766SOL    HW2 8727   3.098   0.418   5.527  0.2858  0.6136 -0.5776
 2767SOL     OW 8728   2.625   2.121   1.857  0.1364  0.0178  0.2736
 2767SOL    HW1 8729   2.640   2.156   1.945  1.1477 -1.1645  0.6024
 2767SOL    HW2 8730   2.683   2.173   1.800  1.0885 -0.6182  0.6446
 2768SOL     OW 8731   5.692   4.569   1.569  0.0036  0.1412  0.1652
 2768SOL    HW1 8732   5.676   4.639   1.505 -1.6838  0.0668  0.4697
 2768SOL    HW2 8733   5.725   4.496   1.517  0.3865  0.6846 -0.3636
 2769SOL     OW 8734   1.444   0.618   5.313  0.1050  0.6711  0.1183
 2769SOL    HW1 8735   1.378   0.677   5.349 -0.3952  1.1712 -1.5241
 2769SOL    HW2 8736   1.394   0.554   5.263  0.7037 -0.6877  1.1853
 2770SOL     OW 8737   4.720   2.334   4.304 -0.1528  0.0179 -0.5900
 2770SOL    HW1 8738   4.725   2.315   4.210  2.3952 -1.8677 -0.1723
 2770SOL    HW2 8739   4.766   2.261   4.346  1.4018  2.2637  1.9135
 2771SOL     OW 8740   4.836   2.340   6.206  0.5645 -0.2554  0.4766
 2771SOL    HW1 8741   4.817   2.430   6.177  1.8243  1.0895  3.4759
 2771SOL    HW2 8742   4.752   2.294   6.196  0.0290  1.0173 -1.6584
 2772SOL     OW 8743   0.996   2.044   5.016  0.0654 -0.3033 -0.0980
 2772SOL    HW1 8744   1.005   1.953   4.987 -0.9392 -0.8029  1.0630
 2772SOL    HW2 8745   0.915   2.075   4.976  0.4005  0.0958 -0.4846
 2773SOL     OW 8746   2.637   1.192   3.263 -0.1126  0.4301 -0.0252
 2773SOL    HW1 8747   2.591   1.227   3.339  0.5163 -0.7180  0.9137
 2773SOL    HW2 8748   2.711   1.251   3.250 -0.7548  1.1809 -0.3621
 2774SOL     OW 8749   5.093   1.314   2.626 -0.8166  0.6085  0.1720
 2774SOL    HW1 8750   5.157   1.244   2.637  0.2043  1.5333  0.3087
 2774SOL    HW2 8751   5.110   1.348   2.538 -0.9668  1.0153  0.3001
 2775SOL     OW 8752   0.219   0.997   1.510  0.4371 -0.5310 -0.1033
 2775SOL    HW1 8753   0.161   0.975   1.438  1.8183 -0.8282 -1.1674
 2775SOL    HW2 8754   0.234   1.091   1.501  0.6508 -0.5775 -0.2455
 2776SOL     OW 8755   2.766   2.989   0.609  0.0537 -0.0475  0.3229
 2776SOL    HW1 8756   2.674   2.971   0.632 -0.4293  0.4079 -1.1365
 2776SOL    HW2 8757   2.813   2.911   0.639 -0.5260  0.3911  2.5525
 2777SOL     OW 8758   2.682   0.882   2.211  0.5020  0.4317 -0.2707
 2777SOL    HW1 8759   2.595   0.871   2.174 -0.0076 -1.1041  1.2383
 2777SOL    HW2 8760   2.679   0.966   2.255 -1.0442 -0.5543  1.6873
 2778SOL     OW 8761   1.839   5.887   2.404 -0.0911 -0.2339  0.8402
 2778SOL    HW1 8762   1.903   5.944   2.361 -0.1693 -0.0667  0.9483
 2778SOL    HW2 8763   1.863   5.890   2.497 -0.3139 -0.1011  0.8919
 2779SOL     OW 8764   3.475   1.392   3.874  0.2633 -0.3959  0.3755
 2779SOL    HW1 8765   3.478   1.414   3.781  1.0193  1.4516  0.7886
 2779SOL    HW2 8766   3.440   1.471   3.916 -0.8707 -1.5027  1.5913
 2780SOL     OW 8767   3.294   0.133   2.736 -0.0566 -0.5175 -0.3381
 2780SOL    HW1 8768   3.377   0.091   2.758 -0.3999 -0.7483  0.5668
 2780SOL    HW2 8769   3.317   0.197   2.668  0.6743 -1.3239 -0.8711
 2781SOL     OW 8770   1.620   0.166   0.603  0.7334  0.0143 -0.6218
 2781SOL    HW1 8771   1.588   0.165   0.513 -0.2824 -2.5277 -0.3359
 2781SOL    HW2 8772   1.546   0.135   0.655  1.4689  0.9033  1.0455
 2782SOL     OW 8773   2.402   1.250   1.718  0.2348 -0.1230  0.4030
 2782SOL    HW1 8774   2.394   1.300   1.637 -1.1657  0.0627  0.6182
 2782SOL    HW2 8775   2.452   1.306   1.776 -0.8393  0.8267  0.4511
 2783SOL     OW 8776   6.042   0.831   1.864 -0.3923  0.0068  0.4833
 2783SOL    HW1 8777   6.063   0.879   1.944  1.6568  0.2061 -0.1092
 2783SOL    HW2 8778   6.114   0.852   1.804 -1.6191 -0.5285 -1.2422
 2784SOL     OW 8779   5.088   1.574   4.233  0.5227  0.0221 -0.1744
 2784SOL    HW1 8780   5.001   1.611   4.247 -0.5268 -2.1588 -0.4850
 2784SOL    HW2 8781   5.129   1.574   4.319 -0.2278  0.0234  0.1884
 2785SOL     OW 8782   2.458   4.980   0.007  0.2081  0.0233 -0.1102
 2785SOL    HW1 8783   2.368   5.002   0.028 -0.1706 -0.3445 -1.2548
 2785SOL    HW2 8784   2.454   4.948  -0.084  1.3788 -0.6528  0.0566
 2786SOL     OW 8785   0.799   5.926   0.148  0.4460  0.3387  0.1672
 2786SOL    HW1 8786   0.799   5.982   0.071 -0.3572 -0.3554 -0.3535
 2786SOL    HW2 8787   0.717   5.947   0.193  1.3025  1.3564  1.3096
 2787SOL     OW 8788   1.002   1.846   1.400 -0.3453 -0.4554  0.6663
 2787SOL    HW1 8789   0.956   1.913   1.350 -0.9911 -0.8649  0.6935
 2787SOL    HW2 8790   0.985   1.869   1.492 -0.9693 -0.9152  0.6732
 2788SOL     OW 8791   0.627   5.696   2.831  0.1008 -0.4224  0.6537
 2788SOL    HW1 8792   0.677   5.757   2.777  1.7259 -0.8398  1.6112
 2788SOL    HW2 8793   0.686   5.622   2.844  0.1828  0.0503  3.7013
 2789SOL     OW 8794   5.507   2.723   4.698 -0.4502 -0.1429  0.1355
 2789SOL    HW1 8795   5.443   2.758   4.760 -1.9260 -0.2406 -1.2750
 2789SOL    HW2 8796   5.578   2.787   4.698 -1.1058  0.6001  0.8523
 2790SOL     OW 8797   5.436   4.750   4.762  0.3648  0.3854  0.3040
 2790SOL    HW1 8798   5.448   4.796   4.679  1.2970 -1.9901 -0.9677
 2790SOL    HW2 8799   5.478   4.665   4.749  0.3379 -0.1623  3.1518
 2791SOL     OW 8800   3.803   0.662   1.632 -0.5177 -0.0200 -0.1764
 2791SOL    HW1 8801   3.774   0.694   1.547 -0.2488  0.1625 -0.1996
 2791SOL    HW2 8802   3.823   0.569   1.617  0.2073  0.1817 -0.4826
 2792SOL     OW 8803   2.399   0.134   1.403 -0.1902 -0.8005  0.0404
 2792SOL    HW1 8804   2.449   0.134   1.485 -0.2203  1.1386  0.0904
 2792SOL    HW2 8805   2.325   0.191   1.419  0.0478 -0.0040 -1.4669
 2793SOL     OW 8806   0.556   6.113   0.783 -0.4502 -0.4044 -0.4195
 2793SOL    HW1 8807   0.510   6.080   0.706  0.5031 -0.5856 -0.9345
 2793SOL    HW2 8808   0.487   6.137   0.845 -1.2169 -0.7165 -1.1416
 2794SOL     OW 8809   3.775   3.148   0.878 -0.0998  0.1518 -0.5492
 2794SOL    HW1 8810   3.728   3.203   0.815 -1.6197 -1.2368 -0.6929
 2794SOL    HW2 8811   3.716   3.074   0.894  1.9170 -1.5267 -0.4553
 2795SOL     OW 8812   0.568   0.291   3.754  0.6916  0.3450  0.0027
 2795SOL    HW1 8813   0.518   0.252   3.825  1.3817 -0.4803  0.0497
 2795SOL    HW2 8814   0.537   0.382   3.750 -0.6654 -0.0812  0.1453
 2796SOL     OW 8815   1.812   2.667   4.640  0.1830  0.3646  0.0987
 2796SOL    HW1 8816   1.793   2.649   4.732 -0.3023 -2.1087 -0.3900
 2796SOL    HW2 8817   1.746   2.617   4.592  1.2583  0.4748 -1.5979
 2797SOL     OW 8818   3.968   2.496   4.242 -0.6807 -0.0241 -0.7585
 2797SOL    HW1 8819   4.027   2.452   4.302 -0.8241 -0.8261 -1.1925
 2797SOL    HW2 8820   3.925   2.564   4.294  1.1095  1.0319 -0.5870
 2798SOL     OW 8821   2.736   4.296   6.019 -0.3799  0.2726  0.3323
 2798SOL    HW1 8822   2.749   4.237   6.093 -0.3948  0.9567  0.8951
 2798SOL    HW2 8823   2.658   4.347   6.042 -0.8306 -0.0232 -0.5033
 2799SOL     OW 8824   5.428   5.401   3.551  0.0127 -0.0303 -0.3123
 2799SOL    HW1 8825   5.402   5.309   3.560 -0.4273 -0.1623 -2.5008
 2799SOL    HW2 8826   5.361   5.449   3.599 -0.2236 -0.7879  0.1445
 2800SOL     OW 8827   2.676   0.951   3.917 -0.0110  0.3961  0.1208
 2800SOL    HW1 8828   2.641   0.959   4.005 -1.5046 -0.2420 -0.3835
 2800SOL    HW2 8829   2.617   1.003   3.863 -0.4920 -1.0670 -0.8284
 2801SOL     OW 8830   5.535   3.670   2.649 -0.1642  0.6343 -0.1659
 2801SOL    HW1 8831   5.484   3.713   2.717 -0.4920 -0.5973  0.3926
 2801SOL    HW2 8832   5.495   3.583   2.640  0.4930  0.4266 -1.2305
 2802SOL     OW 8833   3.226   3.495   0.374  0.5952  0.1483  0.4467
 2802SOL    HW1 8834   3.270   3.412   0.394  0.8936  0.0899 -0.3920
 2802SOL    HW2 8835   3.223   3.541   0.457 -2.5969 -2.0643  1.7321
 2803SOL     OW 8836   3.877   3.965   2.402  0.0409 -0.1833  0.2128
 2803SOL    HW1 8837   3.792   3.924   2.387 -0.1489  0.0213  0.7104
 2803SOL    HW2 8838   3.940   3.900   2.371 -0.2841 -0.4519  0.1006
 2804SOL     OW 8839   1.150   4.397   1.199  0.4317 -0.4482  0.2167
 2804SOL    HW1 8840   1.089   4.339   1.245  1.8081 -2.4769 -0.3645
 2804SOL    HW2 8841   1.209   4.337   1.154  2.7510  1.4212  0.6072
 2805SOL     OW 8842   4.618   0.386   5.019 -0.2182  0.4615  0.1830
 2805SOL    HW1 8843   4.692   0.330   4.996 -0.5943  0.5479 -1.3240
 2805SOL    HW2 8844   4.623   0.394   5.114  0.4380 -1.2806  0.3305
 2806SOL     OW 8845   6.107   3.296   2.614  0.2998  0.1866 -0.1238
 2806SOL    HW1 8846   6.186   3.278   2.665 -0.5017 -1.7093  0.5257
 2806SOL    HW2 8847   6.095   3.219   2.559 -1.0900  0.4439 -0.2190
 2807SOL     OW 8848   1.946   0.664   1.560 -0.0820 -0.3069  0.2338
 2807SOL    HW1 8849   1.943   0.572   1.586 -1.1089 -0.4523 -0.3446
 2807SOL    HW2 8850   2.037   0.679   1.535  0.0009 -1.3024 -0.1094
 2808SOL     OW 8851   0.219   2.918   5.467 -0.3139  0.7998  0.9644
 2808SOL    HW1 8852   0.227   2.995   5.523  2.0024  2.0441 -0.8972
 2808SOL    HW2 8853   0.195   2.953   5.381 -1.9908 -0.8818  0.6776
 2809SOL     OW 8854   2.719   0.139   6.080  0.5992 -0.0526  0.6512
 2809SOL    HW1 8855   2.691   0.048   6.068 -0.8387  0.2989  1.1341
 2809SOL    HW2 8856   2.756   0.163   5.995 -0.7861 -0.4997 -0.1200
 2810SOL     OW 8857   3.125   2.946   4.635  0.0393 -0.0890  0.0900
 2810SOL    HW1 8858   3.091   2.969   4.549  0.3183 -0.6314 -0.1710
 2810SOL    HW2 8859   3.124   2.850   4.637  2.0536 -0.1727 -0.1528
 2811SOL     OW 8860   4.768   5.087   0.189 -0.3527 -0.0154  0.6288
 2811SOL    HW1 8861   4.852   5.130   0.209 -0.6283 -0.2841  2.5542
 2811SOL    HW2 8862   4.777   5.058   0.098  1.5973  0.0795  0.7466
 2812SOL     OW 8863   0.586   2.687   6.110  0.2332 -0.1822  0.0432
 2812SOL    HW1 8864   0.588   2.729   6.197  1.9024  1.6164 -0.7686
 2812SOL    HW2 8865   0.668   2.638   6.106  0.6625  0.5701 -0.8480
 2813SOL     OW 8866   4.352   1.090   4.410  0.2214  0.0065  0.1766
 2813SOL    HW1 8867   4.303   1.030   4.465 -2.4770  0.4893 -1.4968
 2813SOL    HW2 8868   4.400   1.034   4.350 -0.5147 -0.5108  0.0547
 2814SOL     OW 8869   2.029   3.188   4.642  0.3822 -0.0345  0.0518
 2814SOL    HW1 8870   2.030   3.101   4.603  3.8015 -0.2557  0.3918
 2814SOL    HW2 8871   2.063   3.175   4.731  1.6351  1.6978 -0.1246
 2815SOL     OW 8872   1.813   1.042   0.923 -0.6249 -0.1925  0.1631
 2815SOL    HW1 8873   1.780   1.061   1.010  0.8037 -0.2795  0.7501
 2815SOL    HW2 8874   1.792   1.119   0.871  0.3983  0.7852  1.1529
 2816SOL     OW 8875   3.624   3.271   0.687  0.0035 -0.7203  0.6467
 2816SOL    HW1 8876   3.678   3.271   0.608 -0.3189 -2.3071  0.3786
 2816SOL    HW2 8877   3.577   3.354   0.685  0.1658 -0.6386 -0.7259
 2817SOL     OW 8878   0.781   4.684   0.325  0.4105 -0.0128 -0.0602
 2817SOL    HW1 8879   0.705   4.627   0.310 -0.6737  1.4793 -0.3940
 2817SOL    HW2 8880   0.843   4.628   0.372 -1.1383 -1.0854  0.8147
 2818SOL     OW 8881   0.326   1.291   4.950 -0.1454  0.5342  0.2090
 2818SOL    HW1 8882   0.282   1.376   4.964 -0.1446  0.4646  0.6287
 2818SOL    HW2 8883   0.415   1.315   4.925  0.3908  0.6534  2.0699
 2819SOL     OW 8884   2.518   5.319   1.626 -0.2568  0.2697 -0.6812
 2819SOL    HW1 8885   2.455   5.250   1.645 -1.8904  1.8925  0.0975
 2819SOL    HW2 8886   2.488   5.358   1.544  0.3146  0.4291 -0.8195
 2820SOL     OW 8887   3.314   1.158   3.935  0.0610  0.2643 -0.3603
 2820SOL    HW1 8888   3.375   1.230   3.948  0.6850 -0.0722 -1.3490
 2820SOL    HW2 8889   3.265   1.181   3.856 -0.5554  0.1550 -0.0230
 2821SOL     OW 8890   6.124   2.949   0.950  0.1968  0.7153 -0.3543
 2821SOL    HW1 8891   6.134   3.042   0.972  1.6827  0.5670 -0.3059
 2821SOL    HW2 8892   6.049   2.947   0.891 -3.1047  1.2955  3.3894
 2822SOL     OW 8893   0.726   3.843   0.526 -0.1552 -0.4948 -0.0973
 2822SOL    HW1 8894   0.813   3.811   0.550 -0.1854 -0.7694 -0.3601
 2822SOL    HW2 8895   0.681   3.851   0.610  0.0265 -0.6290  0.0158
 2823SOL     OW 8896   0.113   5.018   4.057 -0.3804 -1.0114 -0.5028
 2823SOL    HW1 8897   0.054   5.019   3.982  0.3968  0.0242 -1.1206
 2823SOL    HW2 8898   0.114   5.109   4.088  0.6066 -1.0897 -0.2760
 2824SOL     OW 8899   3.202   1.781   1.518  0.1293  0.4611 -0.1796
 2824SOL    HW1 8900   3.210   1.713   1.452 -1.0071  0.7152 -0.6062
 2824SOL    HW2 8901   3.283   1.831   1.511  0.2056  0.2209 -1.0853
 2825SOL     OW 8902   0.177   6.157   3.502  0.4273 -0.0724  0.2013
 2825SOL    HW1 8903   0.114   6.152   3.574  0.4356 -0.0466  0.2102
 2825SOL    HW2 8904   0.204   6.066   3.488  0.6488 -0.0429  0.4282
 2826SOL     OW 8905   0.549   1.323   2.068  0.7672 -0.4579  0.8859
 2826SOL    HW1 8906   0.602   1.369   2.003  1.0907 -0.7842  0.9150
 2826SOL    HW2 8907   0.579   1.232   2.064 -0.6850 -0.9250 -0.0125
 2827SOL     OW 8908   3.558   2.436   1.861 -0.0812  0.4646 -0.3629
 2827SOL    HW1 8909   3.532   2.354   1.818  1.5396  0.7630 -2.0266
 2827SOL    HW2 8910   3.477   2.487   1.865 -0.6709 -0.3570 -1.2879
 2828SOL     OW 8911   3.842   5.136   4.469  0.0860 -0.6653  0.7051
 2828SOL    HW1 8912   3.794   5.055   4.455  0.9182 -1.2298  1.0728
 2828SOL    HW2 8913   3.862   5.137   4.562 -0.2921  0.1878  0.7946
 2829SOL     OW 8914   3.417   1.198   4.232 -0.3898 -0.8350  0.7048
 2829SOL    HW1 8915   3.392   1.121   4.181 -0.4186  0.5668 -1.4934
 2829SOL    HW2 8916   3.510   1.210   4.214 -1.0638  1.5424 -1.7640
 2830SOL     OW 8917   3.325   0.102   3.509  0.1057 -0.1932 -0.1362
 2830SOL    HW1 8918   3.273   0.131   3.584  1.8474  1.1026  0.6311
 2830SOL    HW2 8919   3.313   0.007   3.508  1.4768 -0.5395  2.9916
 2831SOL     OW 8920   1.453   2.213   2.699  0.4242 -0.3331 -0.4119
 2831SOL    HW1 8921   1.375   2.261   2.671 -0.4404 -0.5954  1.3804
 2831SOL    HW2 8922   1.522   2.279   2.701  0.3215 -0.1166 -2.1253
 2832SOL     OW 8923   5.743   4.113   2.609 -0.4709 -0.0971  0.0133
 2832SOL    HW1 8924   5.693   4.034   2.589 -0.2632 -0.0665 -0.6656
 2832SOL    HW2 8925   5.833   4.091   2.587 -0.0107 -0.4657  2.1241
 2833SOL     OW 8926   3.567   0.708   5.224 -0.5781 -0.1594 -0.1243
 2833SOL    HW1 8927   3.542   0.775   5.287  1.7421  0.8029 -0.0947
 2833SOL    HW2 8928   3.628   0.753   5.164  1.4082 -2.2734  0.1330
 2834SOL     OW 8929   5.164   2.978   5.843  0.1834  0.1107  0.0444
 2834SOL    HW1 8930   5.069   2.975   5.857  0.2129 -0.1637  0.1958
 2834SOL    HW2 8931   5.201   2.955   5.928  0.3765 -0.6448 -0.2382
 2835SOL     OW 8932   3.352   2.257   2.453 -0.0330 -0.0924  0.0255
 2835SOL    HW1 8933   3.346   2.165   2.478 -0.4346  0.1369  0.8094
 2835SOL    HW2 8934   3.272   2.275   2.405 -1.5381  0.6267  2.6003
 2836SOL     OW 8935   2.551   3.179   5.581 -0.0233  0.0546 -0.0353
 2836SOL    HW1 8936   2.585   3.243   5.644  0.6658  0.4743 -0.8155
 2836SOL    HW2 8937   2.630   3.140   5.543 -0.4136  0.3534 -1.1908
 2837SOL     OW 8938   0.659   3.264   3.378 -0.0270  0.3151  0.8295
 2837SOL    HW1 8939   0.703   3.250   3.462  1.6240  0.1382 -0.0345
 2837SOL    HW2 8940   0.706   3.337   3.338 -0.7222  0.3207 -0.0056
 2838SOL     OW 8941   0.587   0.111   5.539 -0.4248  0.8025 -1.0008
 2838SOL    HW1 8942   0.635   0.098   5.457  0.9204 -0.9645 -0.0023
 2838SOL    HW2 8943   0.526   0.037   5.543 -1.0556  1.3216 -0.7607
 2839SOL     OW 8944   2.390   4.395   2.753  0.1819 -0.0908  0.5064
 2839SOL    HW1 8945   2.363   4.370   2.665 -2.0216  2.3787  0.3323
 2839SOL    HW2 8946   2.334   4.344   2.811 -0.2217  0.1844  0.3650
 2840SOL     OW 8947   5.474   3.002   2.234 -0.0340  0.0496 -0.2312
 2840SOL    HW1 8948   5.487   3.038   2.147  2.6785 -0.7018 -0.2164
 2840SOL    HW2 8949   5.482   3.078   2.293 -1.9512  0.5703 -0.5633
 2841SOL     OW 8950   2.803   5.145   5.642 -0.2727 -0.5739  0.2338
 2841SOL    HW1 8951   2.778   5.057   5.616 -0.1702 -0.6424  0.3635
 2841SOL    HW2 8952   2.741   5.169   5.711 -0.7481 -0.2663 -0.2998
 2842SOL     OW 8953   5.988   5.253   3.602  0.1131 -0.2982  0.2372
 2842SOL    HW1 8954   6.045   5.268   3.526  0.7378 -2.3888  0.2236
 2842SOL    HW2 8955   6.009   5.164   3.630 -0.9344  0.0174  2.1816
 2843SOL     OW 8956   4.033   2.754   3.550 -0.3503  0.5646 -0.1256
 2843SOL    HW1 8957   3.958   2.770   3.607 -0.0174 -0.0298  0.4936
 2843SOL    HW2 8958   4.108   2.752   3.610 -0.0153 -0.2376 -0.5643
 2844SOL     OW 8959   4.259   4.941   0.239 -0.0665  0.2288 -0.5626
 2844SOL    HW1 8960   4.348   4.971   0.220 -0.6417  0.7119 -2.7865
 2844SOL    HW2 8961   4.221   5.012   0.290  0.3262  0.7546 -0.9860
 2845SOL     OW 8962   4.428   5.408   4.061  0.1172  0.1133  0.0051
 2845SOL    HW1 8963   4.460   5.437   4.147  0.2069  0.2218 -0.0648
 2845SOL    HW2 8964   4.346   5.456   4.049 -0.8224 -1.2107  0.8106
 2846SOL     OW 8965   4.097   5.138   1.420  0.1271  0.2375  0.7292
 2846SOL    HW1 8966   4.102   5.131   1.515  1.4186 -1.7165  0.5690
 2846SOL    HW2 8967   4.187   5.124   1.390  0.0238  2.1955 -0.7541
 2847SOL     OW 8968   1.219   3.809   0.022  0.0418  0.6142  0.3818
 2847SOL    HW1 8969   1.251   3.761   0.099  0.7640  1.1498  0.4270
 2847SOL    HW2 8970   1.176   3.886   0.059 -2.7455 -0.8364  0.4086
 2848SOL     OW 8971   4.279   3.199   6.131 -0.0868  0.2576  0.6754
 2848SOL    HW1 8972   4.188   3.191   6.103  0.9992 -1.4474 -2.9732
 2848SOL    HW2 8973   4.304   3.111   6.158  1.0641  0.1929 -0.5355
 2849SOL     OW 8974   0.865   4.641   3.478 -0.1728 -0.7931 -0.0749
 2849SOL    HW1 8975   0.922   4.580   3.430  1.6778  0.7516  0.0579
 2849SOL    HW2 8976   0.893   4.728   3.450  0.3888  0.1675  3.0350
 2850SOL     OW 8977   4.638   2.893   0.950 -0.3698  0.0133  0.5623
 2850SOL    HW1 8978   4.601   2.974   0.913  1.8044  0.9249  0.2002
 2850SOL    HW2 8979   4.732   2.901   0.933 -0.0024 -2.2101  1.3277
 2851SOL     OW 8980   2.576   1.639   1.486  0.0742  0.6994  0.2409
 2851SOL    HW1 8981   2.603   1.551   1.462 -1.6202 -0.0591  0.9880
 2851SOL    HW2 8982   2.651   1.675   1.533  0.5980 -0.5264  0.3773
 2852SOL     OW 8983   0.002   1.291   1.002  0.5943 -0.0016  0.2783
 2852SOL    HW1 8984   0.018   1.300   0.908 -1.1608  0.7439  0.0167
 2852SOL    HW2 8985   0.048   1.211   1.027  2.6950  0.7977 -0.7975
 2853SOL     OW 8986   3.030   5.077   6.080  0.4186 -0.1933  0.2399
 2853SOL    HW1 8987   2.936   5.085   6.092  0.7534  2.9824  1.7904
 2853SOL    HW2 8988   3.049   5.130   6.003  1.1715  1.5952  1.5907
 2854SOL     OW 8989   5.711   4.285   0.668 -0.7407 -0.0888  0.1278
 2854SOL    HW1 8990   5.646   4.349   0.696  1.1898  0.9393  2.7421
 2854SOL    HW2 8991   5.688   4.205   0.715 -0.9704 -0.1744 -0.1299
 2855SOL     OW 8992   1.238   4.567   5.359 -0.7947 -0.0719  0.8863
 2855SOL    HW1 8993   1.265   4.490   5.411  2.5387 -0.0855 -0.5967
 2855SOL    HW2 8994   1.161   4.537   5.311 -0.8928 -1.7644  1.9997
 2856SOL     OW 8995   0.727   2.973   5.737  0.3073 -0.1637  0.5380
 2856SOL    HW1 8996   0.729   2.942   5.828 -0.1769 -1.7773  0.0127
 2856SOL    HW2 8997   0.652   3.033   5.735 -0.6365 -1.2927  0.8583
 2857SOL     OW 8998   2.867   1.113   2.121  0.5705 -0.0144  0.2543
 2857SOL    HW1 8999   2.776   1.114   2.091  0.7449 -0.3797 -0.3017
 2857SOL    HW2 9000   2.879   1.027   2.161  0.5124  0.2486  0.8551
 2858SOL     OW 9001   3.139   1.270   2.647 -0.4460  0.0675  0.0181
 2858SOL    HW1 9002   3.118   1.220   2.726  0.1169  1.0475  0.8257
 2858SOL    HW2 9003   3.226   1.307   2.665  0.0243 -0.2927 -1.3812
 2859SOL     OW 9004   3.584   0.156   5.623  0.3422 -0.0083  0.1305
 2859SOL    HW1 9005   3.507   0.209   5.643  0.4865 -0.0737  0.8894
 2859SOL    HW2 9006   3.556   0.099   5.551 -0.1127  0.4158 -0.0359
 2860SOL     OW 9007   2.159   2.836   2.677 -0.3029  0.3831  0.2616
 2860SOL    HW1 9008   2.085   2.850   2.737 -0.1917  0.2058  0.4408
 2860SOL    HW2 9009   2.216   2.911   2.692 -0.4187  0.4928  0.1612
 2861SOL     OW 9010   0.763   3.922   4.972 -0.1877 -0.3509  0.3757
 2861SOL    HW1 9011   0.820   3.880   4.908 -0.5368 -0.8908  0.4142
 2861SOL    HW2 9012   0.729   3.999   4.926 -0.5974 -0.8486 -0.1618
 2862SOL     OW 9013   1.364   4.999   1.920 -0.0663 -0.0385  0.1824
 2862SOL    HW1 9014   1.270   4.979   1.920  0.1755 -1.3824 -1.4409
 2862SOL    HW2 9015   1.384   5.020   2.012 -2.1488  1.4156  0.3761
 2863SOL     OW 9016   1.141   1.660   3.619 -0.4483 -0.5400 -0.4207
 2863SOL    HW1 9017   1.218   1.696   3.664 -0.9476 -0.2843  0.2413
 2863SOL    HW2 9018   1.169   1.650   3.528  0.9409 -2.0412  0.1146
 2864SOL     OW 9019   1.755   5.088   2.935 -0.2403 -0.5096 -0.2904
 2864SOL    HW1 9020   1.847   5.070   2.916  0.5453  1.9073  0.8379
 2864SOL    HW2 9021   1.717   5.108   2.850  0.0882 -2.0489 -0.8451
 2865SOL     OW 9022   0.693   3.435   0.353 -0.2616 -0.1130 -0.0695
 2865SOL    HW1 9023   0.657   3.513   0.395 -0.9673 -0.2675 -0.3719
 2865SOL    HW2 9024   0.629   3.412   0.286  1.1970  0.5858 -1.8097
 2866SOL     OW 9025   2.048   5.538   3.951  0.0474  0.4101 -0.0006
 2866SOL    HW1 9026   2.054   5.442   3.959 -0.3006  0.4506  0.8910
 2866SOL    HW2 9027   1.957   5.554   3.925  0.2667  0.4689 -0.7333
 2867SOL     OW 9028   6.214   0.461   1.251 -0.2778 -0.1322  0.3661
 2867SOL    HW1 9029   6.273   0.466   1.327 -1.4893  0.0625  1.3223
 2867SOL    HW2 9030   6.127   0.457   1.289 -0.9925  1.1181 -1.0554
 2868SOL     OW 9031   3.340   1.768   5.618 -0.0317  0.1120 -0.1797
 2868SOL    HW1 9032   3.263   1.811   5.656  0.5347  0.7630  0.2573
 2868SOL    HW2 9033   3.304   1.697   5.564 -0.8325 -3.5492  4.5736
 2869SOL     OW 9034   1.863   1.783   1.483 -0.4332 -0.4667 -0.2341
 2869SOL    HW1 9035   1.881   1.713   1.545  0.8872 -1.5794 -1.8061
 2869SOL    HW2 9036   1.949   1.808   1.448 -1.1620 -0.1805 -1.9303
 2870SOL     OW 9037   3.993   0.443   3.713 -0.0641 -0.2635 -0.2711
 2870SOL    HW1 9038   4.072   0.463   3.762 -0.2623 -0.7607  0.2677
 2870SOL    HW2 9039   3.953   0.370   3.761 -1.8500  1.2052  0.5888
 2871SOL     OW 9040   4.427   4.131   2.816 -0.3666  0.7733 -0.2091
 2871SOL    HW1 9041   4.457   4.194   2.751  2.8943 -1.3193 -0.9801
 2871SOL    HW2 9042   4.458   4.165   2.900  0.3587  0.7728 -0.4760
 2872SOL     OW 9043   1.876   0.397   6.051 -0.5793 -0.2770 -0.4827
 2872SOL    HW1 9044   1.792   0.361   6.024  0.4934 -1.6211 -2.3194
 2872SOL    HW2 9045   1.871   0.490   6.031 -1.2707 -0.5364 -1.5808
 2873SOL     OW 9046   0.765   4.612   5.039  0.0977  0.0873 -0.0453
 2873SOL    HW1 9047   0.758   4.690   5.094 -1.0908  0.8527 -1.2185
 2873SOL    HW2 9048   0.722   4.637   4.957 -1.0687 -2.0744 -0.1560
 2874SOL     OW 9049   3.252   2.580   2.147 -0.2088  0.2989 -0.2156
 2874SOL    HW1 9050   3.205   2.507   2.187 -0.1061  0.0758 -0.4970
 2874SOL    HW2 9051   3.344   2.562   2.164  0.0289 -0.9813 -2.4295
 2875SOL     OW 9052   1.223   5.860   5.949  0.5437 -0.3168 -0.2046
 2875SOL    HW1 9053   1.173   5.927   5.996 -0.8304 -0.7063 -1.0741
 2875SOL    HW2 9054   1.296   5.840   6.007 -0.3219  0.2397  1.1143
 2876SOL     OW 9055   4.829   2.046   2.670  0.1451  0.4954 -0.0778
 2876SOL    HW1 9056   4.760   2.004   2.619 -0.1574  1.7479 -0.7553
 2876SOL    HW2 9057   4.789   2.063   2.755 -0.2311  0.7707 -0.3046
 2877SOL     OW 9058   4.702   1.849   2.253  0.1132 -0.6192  0.6881
 2877SOL    HW1 9059   4.771   1.907   2.285 -0.7210 -0.7358  2.8805
 2877SOL    HW2 9060   4.728   1.762   2.283 -0.1309 -0.9397  0.0027
 2878SOL     OW 9061   0.577   5.219   1.587  0.7185  0.2219 -0.1354
 2878SOL    HW1 9062   0.511   5.286   1.603  0.2988 -0.4086  0.9388
 2878SOL    HW2 9063   0.660   5.260   1.610  0.3360  0.0055  1.8339
 2879SOL     OW 9064   3.385   0.637   0.047 -0.1925 -0.0816  0.1370
 2879SOL    HW1 9065   3.466   0.613   0.092  1.2582  0.7331 -1.8954
 2879SOL    HW2 9066   3.378   0.573  -0.024 -1.4375 -0.2168  0.3530
 2880SOL     OW 9067   3.838   3.762   0.956 -0.1815  0.0694  0.3776
 2880SOL    HW1 9068   3.921   3.783   0.999 -0.2903  0.9243  0.2027
 2880SOL    HW2 9069   3.824   3.670   0.974  0.4423  0.0926  1.0350
 2881SOL     OW 9070   1.116   3.087   5.604 -0.4903 -0.1332  0.4004
 2881SOL    HW1 9071   1.065   3.008   5.624  0.4589 -0.5465  1.2854
 2881SOL    HW2 9072   1.074   3.155   5.657 -0.8675 -0.1930  0.1863
 2882SOL     OW 9073   5.140   4.849   3.545  0.0980 -0.4438  0.3804
 2882SOL    HW1 9074   5.058   4.815   3.510  0.8315 -1.8715 -0.0149
 2882SOL    HW2 9075   5.142   4.820   3.636 -0.0530  0.0123  0.5324
 2883SOL     OW 9076   4.562   2.513   5.162 -0.3258  0.5996 -0.1922
 2883SOL    HW1 9077   4.633   2.577   5.168 -0.1588  0.4884 -0.8426
 2883SOL    HW2 9078   4.585   2.445   5.225  0.7193  0.0264 -1.1527
 2884SOL     OW 9079   1.761   3.507   3.410  0.3541 -0.2996  0.5438
 2884SOL    HW1 9080   1.672   3.501   3.445 -0.0630  0.5342 -0.3098
 2884SOL    HW2 9081   1.785   3.599   3.421  0.7853 -0.3451  0.0131
 2885SOL     OW 9082   2.846   5.578   5.678  0.2072 -0.0182  0.0075
 2885SOL    HW1 9083   2.911   5.632   5.633 -0.5328  1.3900  0.5622
 2885SOL    HW2 9084   2.770   5.578   5.619 -0.5453  1.3280  0.9333
 2886SOL     OW 9085   5.269   2.247   5.209  0.5578  0.3925  0.1119
 2886SOL    HW1 9086   5.184   2.285   5.187 -0.3954 -1.4431  0.4126
 2886SOL    HW2 9087   5.298   2.204   5.129  1.3521  1.2356 -0.0670
 2887SOL     OW 9088   5.889   1.064   4.765 -0.6293 -0.1073  0.5191
 2887SOL    HW1 9089   5.964   1.119   4.743 -0.1912  0.5234  3.1847
 2887SOL    HW2 9090   5.885   0.999   4.695  1.1581  1.0572 -0.7430
 2888SOL     OW 9091   1.319   2.835   2.061 -0.1257  0.4614 -0.4955
 2888SOL    HW1 9092   1.391   2.810   2.119  0.0278 -0.5065 -1.0830
 2888SOL    HW2 9093   1.354   2.825   1.973 -1.6905 -2.5863 -0.9107
 2889SOL     OW 9094   2.802   3.281   0.678  0.2536  0.1777  0.0676
 2889SOL    HW1 9095   2.863   3.264   0.749  0.6252  0.5224 -0.1666
 2889SOL    HW2 9096   2.783   3.195   0.641  1.0424  0.1231 -0.2251
 2890SOL     OW 9097   1.501   4.664   1.310  0.8114  0.0896 -0.5301
 2890SOL    HW1 9098   1.514   4.701   1.398  0.1719 -1.8553  0.4397
 2890SOL    HW2 9099   1.457   4.581   1.326 -0.9647  0.5062 -2.8314
 2891SOL     OW 9100   0.026   5.605   3.776 -0.4663 -0.5424 -0.2628
 2891SOL    HW1 9101  -0.066   5.630   3.776 -0.1413  0.7464  0.9567
 2891SOL    HW2 9102   0.071   5.676   3.822  1.2444 -0.7889 -1.4271
 2892SOL     OW 9103   0.604   3.315   5.740 -0.0647 -0.4253  0.2890
 2892SOL    HW1 9104   0.542   3.248   5.769  0.1035 -0.2897  0.9792
 2892SOL    HW2 9105   0.632   3.359   5.821  0.4845 -0.0981 -0.0687
 2893SOL     OW 9106   3.587   2.565   0.671  0.4991  0.3413 -0.2891
 2893SOL    HW1 9107   3.678   2.567   0.700  0.3724 -2.2266  0.6032
 2893SOL    HW2 9108   3.553   2.482   0.705 -2.3617  1.4752 -0.0506
 2894SOL     OW 9109   5.454   5.817   2.258  0.0532  0.8130  0.0303
 2894SOL    HW1 9110   5.368   5.808   2.299 -1.1795  1.5211 -2.2389
 2894SOL    HW2 9111   5.478   5.728   2.234  0.3984  0.4989  1.4732
 2895SOL     OW 9112   1.519   3.949   1.196 -0.3691 -0.3687  0.4446
 2895SOL    HW1 9113   1.437   3.997   1.203 -0.3587 -0.0168 -1.3819
 2895SOL    HW2 9114   1.520   3.916   1.106  1.0154 -1.2364  0.7492
 2896SOL     OW 9115   0.477   1.342   3.724  0.4807 -0.4215 -0.6188
 2896SOL    HW1 9116   0.482   1.269   3.662  0.8363  0.0746 -1.1944
 2896SOL    HW2 9117   0.385   1.368   3.724  0.0122 -1.9263  0.8695
 2897SOL     OW 9118   2.633   3.721   4.174 -0.7187 -0.6434  0.5064
 2897SOL    HW1 9119   2.659   3.785   4.107 -2.4428  1.6835  1.9445
 2897SOL    HW2 9120   2.698   3.732   4.244  0.1225 -1.9309 -0.0220
 2898SOL     OW 9121   5.005   0.987   0.132 -0.1295 -0.2270  0.0979
 2898SOL    HW1 9122   4.911   0.980   0.119 -0.5271  0.8526  2.0397
 2898SOL    HW2 9123   5.025   0.925   0.202  0.2360  0.8895  1.0269
 2899SOL     OW 9124   3.677   2.220   2.288  0.4940 -0.3278 -0.3836
 2899SOL    HW1 9125   3.618   2.153   2.254  0.5489  0.1730 -1.5006
 2899SOL    HW2 9126   3.658   2.298   2.236 -0.1930  0.8166  1.4922
 2900SOL     OW 9127   2.899   3.932   4.725  0.0281 -0.3040  0.0151
 2900SOL    HW1 9128   2.955   3.859   4.752  2.6861  2.0180  1.3238
 2900SOL    HW2 9129   2.832   3.937   4.792 -0.1909 -1.5264 -0.1001
 2901SOL     OW 9130   5.371   2.705   3.183 -0.2155  0.3532  0.5405
 2901SOL    HW1 9131   5.304   2.640   3.163 -0.9319  1.4754 -0.8884
 2901SOL    HW2 9132   5.324   2.789   3.180  0.6240  0.9570  2.5878
 2902SOL     OW 9133   5.491   4.466   0.743  0.1462  0.0348 -0.0675
 2902SOL    HW1 9134   5.418   4.523   0.768 -1.0382 -0.8576 -1.3055
 2902SOL    HW2 9135   5.485   4.461   0.647  3.1440  1.5860 -0.4378
 2903SOL     OW 9136   1.687   2.490   5.865  0.4625  0.3010 -0.2610
 2903SOL    HW1 9137   1.719   2.449   5.784 -0.0215  0.5586 -0.5882
 2903SOL    HW2 9138   1.711   2.429   5.934 -0.9706 -0.9540 -0.8145
 2904SOL     OW 9139   5.208   2.912   3.257  0.6437 -0.1632  0.3307
 2904SOL    HW1 9140   5.269   2.986   3.254  0.1894  0.2330  0.6600
 2904SOL    HW2 9141   5.139   2.935   3.195  0.8088 -0.5916 -0.0143
 2905SOL     OW 9142   1.818   5.452   2.925 -0.2175  0.3232  0.3429
 2905SOL    HW1 9143   1.772   5.529   2.891  1.6822  1.0752 -0.6444
 2905SOL    HW2 9144   1.832   5.396   2.849 -2.3127 -1.4851  1.1767
 2906SOL     OW 9145   2.650   0.628   0.071  0.8441 -0.1662 -0.0141
 2906SOL    HW1 9146   2.608   0.582   0.144 -0.4591 -1.5915 -1.5731
 2906SOL    HW2 9147   2.739   0.594   0.069  0.2431 -1.8084 -0.4093
 2907SOL     OW 9148   4.666   3.254   5.565  0.0090 -0.4965 -0.4423
 2907SOL    HW1 9149   4.634   3.345   5.563  0.9942 -0.1330 -0.3142
 2907SOL    HW2 9150   4.621   3.211   5.492  0.2345  0.3449 -1.0944
 2908SOL     OW 9151   1.588   3.466   6.139  0.3172  0.2728 -0.2232
 2908SOL    HW1 9152   1.568   3.501   6.226  1.7216 -0.4248  0.4068
 2908SOL    HW2 9153   1.504   3.432   6.107  0.0432 -0.6863  1.4224
 2909SOL     OW 9154   4.672   3.238   2.654  0.1557 -0.2118  0.2528
 2909SOL    HW1 9155   4.687   3.170   2.588 -0.3849  0.7295 -0.8801
 2909SOL    HW2 9156   4.759   3.276   2.670  0.4684 -1.1725  0.9303
 2910SOL     OW 9157   4.275   5.324   5.612  0.1100  0.1638  0.2203
 2910SOL    HW1 9158   4.312   5.336   5.525  2.4310 -0.0709  1.1108
 2910SOL    HW2 9159   4.246   5.412   5.638 -1.1635  0.1329 -0.9671
 2911SOL     OW 9160   3.438   0.845   1.913 -0.2342 -0.0822  0.0729
 2911SOL    HW1 9161   3.393   0.760   1.907  0.4728 -0.5053  0.6207
 2911SOL    HW2 9162   3.469   0.862   1.824 -0.1738 -0.5128  0.0108
 2912SOL     OW 9163   4.408   3.998   6.077  0.2224  0.0435  0.1166
 2912SOL    HW1 9164   4.434   3.918   6.032  0.9410 -0.4665  1.3987
 2912SOL    HW2 9165   4.427   4.068   6.014  1.2822 -0.6411 -0.3538
 2913SOL     OW 9166   1.933   5.819   2.651  0.4538 -0.3554 -0.1020
 2913SOL    HW1 9167   1.850   5.788   2.688 -0.9914  1.4731 -1.6057
 2913SOL    HW2 9168   1.950   5.902   2.697 -0.2535  0.8608 -1.9184
 2914SOL     OW 9169   0.171   2.860   0.505 -0.0300 -0.1147  0.1869
 2914SOL    HW1 9170   0.127   2.816   0.432 -0.9636  0.9231  0.0976
 2914SOL    HW2 9171   0.153   2.953   0.491 -0.8185  0.0640  2.1155
 2915SOL     OW 9172   5.404   0.320   4.063 -0.4090  0.4608  0.0494
 2915SOL    HW1 9173   5.326   0.290   4.110  0.7872 -1.7544  0.7887
 2915SOL    HW2 9174   5.390   0.292   3.972 -0.4484  0.0073  0.1946
 2916SOL     OW 9175   3.668   5.808   2.534 -0.3478  0.0448 -0.2441
 2916SOL    HW1 9176   3.696   5.716   2.534 -1.0672 -0.1904 -1.4384
 2916SOL    HW2 9177   3.750   5.857   2.533  0.0415 -0.5718  0.0389
 2917SOL     OW 9178   5.599   3.145   4.313 -0.7068  0.6207 -0.3627
 2917SOL    HW1 9179   5.519   3.110   4.352 -1.1617 -3.2209 -4.0810
 2917SOL    HW2 9180   5.582   3.147   4.219  3.3857 -0.1177 -1.3160
 2918SOL     OW 9181   2.634   5.994   1.738  0.0113  0.6086  1.0490
 2918SOL    HW1 9182   2.629   5.899   1.729  1.0418  0.6517 -0.4278
 2918SOL    HW2 9183   2.550   6.026   1.703  0.2520  0.2871  0.1445
 2919SOL     OW 9184   5.876   3.259   4.203 -0.0759 -0.2116 -0.6993
 2919SOL    HW1 9185   5.862   3.170   4.172  0.8763 -0.3965 -0.6199
 2919SOL    HW2 9186   5.804   3.310   4.164 -0.1988 -0.8651 -1.3402
 2920SOL     OW 9187   2.672   4.307   1.269  0.5307 -0.1948  0.2192
 2920SOL    HW1 9188   2.583   4.303   1.305  0.4655 -1.1114 -0.0365
 2920SOL    HW2 9189   2.672   4.387   1.217 -0.8068 -1.2109 -1.4512
 2921SOL     OW 9190   5.131   5.864   4.346 -0.1364  0.8687 -0.0883
 2921SOL    HW1 9191   5.039   5.883   4.331 -0.1569  1.6426  0.9068
 2921SOL    HW2 9192   5.137   5.768   4.340 -0.9080  0.8470 -0.6255
 2922SOL     OW 9193   2.875   2.123   1.135 -0.6189 -0.1407  0.0488
 2922SOL    HW1 9194   2.810   2.054   1.153 -1.3302  0.6641  0.6110
 2922SOL    HW2 9195   2.925   2.131   1.216  0.9458 -1.5116 -0.7195
 2923SOL     OW 9196   2.818   5.009   4.670 -0.0224  0.4850  0.2261
 2923SOL    HW1 9197   2.824   4.938   4.606 -0.2754  0.0467  0.6914
 2923SOL    HW2 9198   2.772   5.079   4.622  1.2331  0.7781 -0.6052
 2924SOL     OW 9199   1.823   3.685   0.313  0.1936 -0.1553 -0.0222
 2924SOL    HW1 9200   1.836   3.757   0.252  2.8268 -1.2341 -0.8788
 2924SOL    HW2 9201   1.845   3.606   0.263  0.2168 -1.2852  1.6679
 2925SOL     OW 9202   4.177   4.026   3.745  0.4091 -0.0807  0.4019
 2925SOL    HW1 9203   4.191   4.103   3.689 -1.6483  0.0474 -0.0430
 2925SOL    HW2 9204   4.261   3.980   3.744  2.4360  3.1424  2.3638
 2926SOL     OW 9205   5.495   3.971   1.743  0.1548  0.6833  0.3946
 2926SOL    HW1 9206   5.541   4.048   1.708  1.3768  0.1217  0.6922
 2926SOL    HW2 9207   5.509   3.903   1.676  0.2097  0.3539  0.7374
 2927SOL     OW 9208   6.123   3.609   0.520 -0.0682  0.8954 -0.2041
 2927SOL    HW1 9209   6.040   3.627   0.563 -0.2703 -1.1754  0.3667
 2927SOL    HW2 9210   6.180   3.683   0.546 -0.9704  1.0466  1.4584
 2928SOL     OW 9211   0.566   4.933   2.106 -0.2721  0.1300 -0.1593
 2928SOL    HW1 9212   0.607   4.851   2.134  1.9330  1.4416  0.6191
 2928SOL    HW2 9213   0.525   4.911   2.021 -0.2267 -1.8791  0.2793
 2929SOL     OW 9214   1.016   3.425   3.210  0.1215 -0.0202  0.1568
 2929SOL    HW1 9215   1.017   3.480   3.131  1.2436 -0.1024  0.0999
 2929SOL    HW2 9216   1.008   3.335   3.176  1.2123 -0.1050  0.0849
 2930SOL     OW 9217   4.587   4.253   3.030 -0.1948 -0.1629 -0.4744
 2930SOL    HW1 9218   4.678   4.276   3.011 -0.1945  0.6565  0.4562
 2930SOL    HW2 9219   4.555   4.324   3.085 -1.1860 -0.8084 -0.1861
 2931SOL     OW 9220   2.778   5.288   4.515 -0.5936 -0.6712  0.1570
 2931SOL    HW1 9221   2.812   5.372   4.486 -1.0994 -0.2956  0.6222
 2931SOL    HW2 9222   2.753   5.302   4.607  0.0747 -1.5584  0.4903
 2932SOL     OW 9223   2.251   2.437   5.157  0.5636  0.3671  0.0523
 2932SOL    HW1 9224   2.332   2.464   5.113  1.2532 -1.7909 -0.1187
 2932SOL    HW2 9225   2.280   2.400   5.240 -0.1198 -1.2571 -0.3963
 2933SOL     OW 9226   0.694   4.215   2.523 -0.3175 -0.3180  0.2940
 2933SOL    HW1 9227   0.681   4.274   2.597 -0.0844 -0.0233  0.1003
 2933SOL    HW2 9228   0.605   4.193   2.494 -0.4553 -1.7410  1.6892
 2934SOL     OW 9229   4.808   0.150   3.543  0.5124 -0.1801 -0.2597
 2934SOL    HW1 9230   4.717   0.144   3.516  0.5894  2.6377 -1.4550
 2934SOL    HW2 9231   4.845   0.064   3.522 -1.7924 -1.3798  0.2240
 2935SOL     OW 9232   4.787   5.692   4.121  0.2606  0.3185 -0.3619
 2935SOL    HW1 9233   4.825   5.702   4.208  0.5761 -0.0262 -0.4576
 2935SOL    HW2 9234   4.707   5.642   4.134  0.7725 -0.5212 -0.3754
 2936SOL     OW 9235   2.418   5.577   0.313 -0.0386  0.2967 -0.4804
 2936SOL    HW1 9236   2.500   5.535   0.342  0.3916 -0.4048 -2.5427
 2936SOL    HW2 9237   2.367   5.505   0.276 -0.0815  1.2477 -2.3814
 2937SOL     OW 9238   1.066   5.053   0.872 -0.0026  0.2074 -0.2743
 2937SOL    HW1 9239   0.985   5.068   0.822  0.6846 -0.1828 -1.5623
 2937SOL    HW2 9240   1.135   5.051   0.805  0.9164 -0.6520  0.6625
 2938SOL     OW 9241   3.035   4.153   2.234 -0.5965 -0.0630  0.4057
 2938SOL    HW1 9242   3.056   4.126   2.323 -1.1801  2.1442  1.2876
 2938SOL    HW2 9243   2.943   4.128   2.223 -0.4852 -0.4616  0.3538
 2939SOL     OW 9244   6.191   6.110   3.354  0.0557 -0.4841  0.5140
 2939SOL    HW1 9245   6.171   6.178   3.290 -1.3668  1.7028  3.0790
 2939SOL    HW2 9246   6.272   6.140   3.396  0.2706 -1.1953  0.6166
 2940SOL     OW 9247   0.276   1.344   5.285  0.0761 -0.0460 -0.3017
 2940SOL    HW1 9248   0.333   1.272   5.312 -2.2696 -1.6993  0.4758
 2940SOL    HW2 9249   0.335   1.419   5.280  2.6585 -1.9600 -1.2346
 2941SOL     OW 9250   1.085   4.738   1.181 -0.8287 -0.3193  0.1918
 2941SOL    HW1 9251   1.007   4.792   1.185 -1.2477 -0.9718  1.7847
 2941SOL    HW2 9252   1.074   4.685   1.102 -2.2118 -0.6636  0.5828
 2942SOL     OW 9253   2.594   1.045   2.792 -0.0741  0.4812  0.1586
 2942SOL    HW1 9254   2.619   1.130   2.828  0.0947  0.3740  0.2981
 2942SOL    HW2 9255   2.599   0.985   2.867  0.6209  0.1842 -0.1104
 2943SOL     OW 9256   4.705   0.747   5.781 -0.0481 -0.1460  0.5297
 2943SOL    HW1 9257   4.723   0.666   5.733  0.1368 -1.0098  1.9925
 2943SOL    HW2 9258   4.763   0.812   5.742 -0.1111 -0.7402 -0.5885
 2944SOL     OW 9259   0.436   4.064   0.587 -0.1027  0.0864 -0.3161
 2944SOL    HW1 9260   0.419   4.054   0.493 -0.2127 -1.8289 -0.1384
 2944SOL    HW2 9261   0.482   4.147   0.595  0.6801 -0.1280 -2.1805
 2945SOL     OW 9262   3.118   5.847   3.755 -0.6640 -0.7597 -0.0497
 2945SOL    HW1 9263   3.207   5.862   3.787  0.5903 -2.6395 -2.3292
 2945SOL    HW2 9264   3.095   5.760   3.785 -1.7564 -0.3251  0.4428
 2946SOL     OW 9265   2.358   1.899   1.905  0.2687  0.2131 -0.1799
 2946SOL    HW1 9266   2.295   1.914   1.976  0.0618 -1.7390  0.0867
 2946SOL    HW2 9267   2.303   1.871   1.831  0.5830  1.2346 -0.8172
 2947SOL     OW 9268   2.505   0.744   1.194 -0.0571 -0.7773 -0.0128
 2947SOL    HW1 9269   2.487   0.814   1.131  0.1522 -0.3936  0.3518
 2947SOL    HW2 9270   2.598   0.752   1.213  0.2767 -1.9880 -0.9620
 2948SOL     OW 9271   2.886   5.069   4.957 -0.4597 -0.0673 -0.3457
 2948SOL    HW1 9272   2.867   5.084   4.865 -1.0390 -0.4937 -0.2990
 2948SOL    HW2 9273   2.806   5.093   5.004  0.5639  2.3837  0.2944
 2949SOL     OW 9274   3.676   2.911   0.919 -0.0631 -0.0609 -0.5406
 2949SOL    HW1 9275   3.698   2.822   0.894 -0.6234 -0.4289  0.2379
 2949SOL    HW2 9276   3.592   2.928   0.876  0.5365  0.4804 -1.5420
 2950SOL     OW 9277   0.070   0.154   0.364  0.4831 -0.2314  0.2803
 2950SOL    HW1 9278  -0.001   0.144   0.300 -0.6736 -1.7524  1.7079
 2950SOL    HW2 9279   0.055   0.240   0.403  0.5716  0.2611 -0.7605
 2951SOL     OW 9280   4.473   4.985   0.517  0.1706  0.1158  0.0062
 2951SOL    HW1 9281   4.523   4.983   0.436 -0.0003 -0.3844 -0.0889
 2951SOL    HW2 9282   4.429   4.900   0.521 -0.2466  0.3423  0.3558
 2952SOL     OW 9283   0.139   5.199   1.510  0.0693  0.0303 -0.2023
 2952SOL    HW1 9284   0.105   5.111   1.494 -0.5673  0.0673  0.8522
 2952SOL    HW2 9285   0.141   5.207   1.605 -0.1713  1.2665 -0.2846
 2953SOL     OW 9286   0.403   4.598   1.741 -0.5876 -0.4619  0.3719
 2953SOL    HW1 9287   0.326   4.650   1.717 -0.5994  0.4538  2.2098
 2953SOL    HW2 9288   0.367   4.513   1.766 -1.0699  0.0533  1.5039
 2954SOL     OW 9289   4.996   5.201   5.269 -0.1909  0.4501 -0.5574
 2954SOL    HW1 9290   5.074   5.193   5.324 -0.5006  1.2239  0.0240
 2954SOL    HW2 9291   4.929   5.152   5.316 -0.0834 -0.1361 -1.0098
 2955SOL     OW 9292   2.346   3.889   2.221  0.0180 -0.1425  0.8573
 2955SOL    HW1 9293   2.328   3.795   2.232 -0.9669 -0.0328  0.3608
 2955SOL    HW2 9294   2.440   3.894   2.210  0.3364 -0.8813  2.7873
 2956SOL     OW 9295   4.193   0.926   4.733 -0.3428  0.0684 -0.4288
 2956SOL    HW1 9296   4.244   0.862   4.782  0.3106  0.6446 -0.3503
 2956SOL    HW2 9297   4.158   0.985   4.800 -0.1947  0.3243 -0.5765
 2957SOL     OW 9298   1.362   4.657   4.690 -0.0502 -0.4134 -0.7002
 2957SOL    HW1 9299   1.330   4.566   4.688 -2.0691  0.2492 -0.6614
 2957SOL    HW2 9300   1.443   4.652   4.740 -1.0109 -1.9830  0.8550
 2958SOL     OW 9301   3.261   5.791   1.695  0.3161  0.1291 -0.9607
 2958SOL    HW1 9302   3.355   5.802   1.685  0.6828 -0.0072  1.6303
 2958SOL    HW2 9303   3.244   5.700   1.669  0.5706  0.6475 -3.0764
 2959SOL     OW 9304   0.413   1.469   2.487 -0.1925  0.0689 -0.7113
 2959SOL    HW1 9305   0.483   1.481   2.422 -0.3109  0.7653 -0.7199
 2959SOL    HW2 9306   0.390   1.377   2.480  0.8419 -0.2103 -0.5884
 2960SOL     OW 9307   1.480   3.087   2.839  0.3226  0.3000 -0.2399
 2960SOL    HW1 9308   1.559   3.054   2.796 -1.1943 -1.4798 -1.8548
 2960SOL    HW2 9309   1.440   3.146   2.774 -0.9946 -0.9116 -0.5992
 2961SOL     OW 9310   4.620   4.932   0.742  0.4190  0.8257  0.0261
 2961SOL    HW1 9311   4.708   4.917   0.707  0.2626 -0.3731  0.0979
 2961SOL    HW2 9312   4.571   4.971   0.669  0.5924  0.0445 -0.5224
 2962SOL     OW 9313   4.986   0.366   1.504 -0.1358  0.1518 -0.2155
 2962SOL    HW1 9314   4.918   0.311   1.545 -0.1332 -0.9344 -1.5787
 2962SOL    HW2 9315   5.018   0.313   1.431  1.0739  1.3111 -0.5585
 2963SOL     OW 9316   2.905   0.956   3.527 -0.2322  0.5550 -0.0990
 2963SOL    HW1 9317   2.814   0.937   3.504 -0.5759  0.3594  1.3334
 2963SOL    HW2 9318   2.902   1.045   3.563 -0.0512  0.1628  0.9136
 2964SOL     OW 9319   5.333   4.842   3.372 -0.1722  0.2136  0.2329
 2964SOL    HW1 9320   5.248   4.857   3.414 -0.2880  1.3467 -0.3747
 2964SOL    HW2 9321   5.396   4.888   3.428 -0.0463 -0.0178  0.2842
 2965SOL     OW 9322   1.629   3.389   0.416  0.6817 -0.4350 -0.3259
 2965SOL    HW1 9323   1.584   3.314   0.455  1.4425  0.2102  1.9511
 2965SOL    HW2 9324   1.625   3.457   0.484  1.2171  1.1198 -1.7926
 2966SOL     OW 9325   5.519   5.301   4.489 -0.8760  0.1206  0.1836
 2966SOL    HW1 9326   5.574   5.302   4.411 -1.4367  1.1342 -0.2146
 2966SOL    HW2 9327   5.473   5.217   4.485  0.2349 -0.5189  0.2583
 2967SOL     OW 9328   5.832   2.544   1.451  0.0606 -0.7404  0.1931
 2967SOL    HW1 9329   5.890   2.621   1.456  1.1331 -1.5298  0.4750
 2967SOL    HW2 9330   5.744   2.580   1.451  0.5224  0.4768  0.9977
 2968SOL     OW 9331   0.022   4.061   0.499 -0.5461  0.1671 -0.5480
 2968SOL    HW1 9332   0.072   4.119   0.441 -0.4414  2.7047  1.8726
 2968SOL    HW2 9333  -0.046   4.117   0.536 -0.2630 -1.1175  2.1730
 2969SOL     OW 9334   1.194   0.552   4.371 -0.4785 -0.3949  0.0262
 2969SOL    HW1 9335   1.138   0.510   4.436 -1.1108  0.9323  0.3541
 2969SOL    HW2 9336   1.149   0.535   4.287 -0.3274 -1.0192  0.0691
 2970SOL     OW 9337   3.855   0.680   6.199 -0.4811  0.2609  0.4012
 2970SOL    HW1 9338   3.785   0.633   6.153 -0.9576  0.2477  1.1374
 2970SOL    HW2 9339   3.934   0.661   6.147 -1.1940  1.1869 -1.0877
 2971SOL     OW 9340   1.745   0.228   0.066 -0.6218 -0.0275 -0.1613
 2971SOL    HW1 9341   1.753   0.167   0.140  0.6601  0.1405 -0.1366
 2971SOL    HW2 9342   1.670   0.196   0.017 -0.6979 -0.9167  0.5062
 2972SOL     OW 9343   4.904   1.461   1.699  0.7955  0.7280 -0.0258
 2972SOL    HW1 9344   4.838   1.512   1.652  1.7687  2.0179 -0.0523
 2972SOL    HW2 9345   4.976   1.451   1.637  0.9205 -0.0780  0.2311
 2973SOL     OW 9346   1.444   5.741   4.244 -0.0221  0.0089  0.0293
 2973SOL    HW1 9347   1.445   5.715   4.336  1.0998  1.1503  0.3591
 2973SOL    HW2 9348   1.480   5.666   4.197  1.5229  0.2599  0.7702
 2974SOL     OW 9349   5.085   0.848   0.346 -0.3173  0.4299  0.2120
 2974SOL    HW1 9350   5.063   0.784   0.414 -2.2826  1.8444  0.9928
 2974SOL    HW2 9351   5.141   0.911   0.390 -2.2260  1.7820  0.8483
 2975SOL     OW 9352   4.590   3.469   5.138  0.3969 -0.7647 -0.0112
 2975SOL    HW1 9353   4.665   3.411   5.129  1.2366  0.5198 -2.3618
 2975SOL    HW2 9354   4.527   3.438   5.072 -0.3073 -0.6569  0.5972
 2976SOL     OW 9355   4.681   4.867   3.388  0.1249 -0.6044 -0.0930
 2976SOL    HW1 9356   4.632   4.944   3.358  0.5614  0.3957  1.6398
 2976SOL    HW2 9357   4.772   4.890   3.374  0.3506 -0.0723  1.9311
 2977SOL     OW 9358   2.451   1.448   5.679 -0.3361 -0.2492 -1.2288
 2977SOL    HW1 9359   2.520   1.469   5.742 -3.2375  2.0473  1.5004
 2977SOL    HW2 9360   2.481   1.486   5.597  0.7040  2.9122  0.4402
 2978SOL     OW 9361   0.081   0.292   3.994 -0.1614 -0.1795 -0.5772
 2978SOL    HW1 9362   0.045   0.291   4.083  1.1995  0.0226 -0.0014
 2978SOL    HW2 9363   0.017   0.241   3.942 -0.7370 -0.7040  0.5992
 2979SOL     OW 9364   3.186   6.169   0.222  0.3672  0.4647  0.1676
 2979SOL    HW1 9365   3.204   6.102   0.288  0.8419 -0.2119 -0.6182
 2979SOL    HW2 9366   3.125   6.229   0.264  0.0595 -0.3727  0.9490
 2980SOL     OW 9367   1.381   2.975   2.439 -0.4771 -0.1580  0.6821
 2980SOL    HW1 9368   1.377   3.026   2.520 -0.9241  1.3768 -0.2577
 2980SOL    HW2 9369   1.291   2.947   2.424 -1.2163  2.8005 -1.1885
 2981SOL     OW 9370   4.750   3.795   0.384  0.5511  0.1567 -0.6299
 2981SOL    HW1 9371   4.810   3.731   0.421  1.3652  1.4919  0.4531
 2981SOL    HW2 9372   4.689   3.743   0.332  0.9410 -1.5309  0.5085
 2982SOL     OW 9373   2.137   5.232   2.885 -0.0801 -0.2279  0.2637
 2982SOL    HW1 9374   2.101   5.279   2.960 -0.8530  0.3303 -0.4415
 2982SOL    HW2 9375   2.070   5.169   2.861 -1.4997  2.0143 -2.1728
 2983SOL     OW 9376   5.426   6.177   1.555  0.4772  0.0834  0.5003
 2983SOL    HW1 9377   5.356   6.117   1.583  0.4808 -0.1874 -0.0576
 2983SOL    HW2 9378   5.482   6.124   1.499 -0.2388  0.9282 -1.0877
 2984SOL     OW 9379   4.943   3.731   3.068 -0.3649 -0.3806 -0.4124
 2984SOL    HW1 9380   4.967   3.641   3.090 -0.0482 -0.5273 -1.3210
 2984SOL    HW2 9381   4.883   3.757   3.138 -0.0965 -1.1299  0.1169
 2985SOL     OW 9382   1.792   1.045   4.744 -0.0044 -0.2795  0.2468
 2985SOL    HW1 9383   1.704   1.011   4.728  0.0193 -0.3410  0.2453
 2985SOL    HW2 9384   1.778   1.132   4.781 -0.1408 -1.3960  3.0595
 2986SOL     OW 9385   3.145   3.585   2.651 -0.0485 -0.3646  0.8331
 2986SOL    HW1 9386   3.158   3.674   2.621  0.1871 -0.3877  0.8684
 2986SOL    HW2 9387   3.115   3.537   2.573 -0.2365 -0.2432  0.8297
 2987SOL     OW 9388   3.916   1.469   0.154 -0.0097 -0.4874  0.4200
 2987SOL    HW1 9389   3.932   1.466   0.248 -1.0280  0.5505  0.6435
 2987SOL    HW2 9390   3.984   1.527   0.120  0.8588 -1.4930  0.3733
 2988SOL     OW 9391   1.462   5.221   3.247  0.1525  0.0281 -0.0716
 2988SOL    HW1 9392   1.495   5.143   3.204 -1.0682 -0.5410 -0.0385
 2988SOL    HW2 9393   1.436   5.280   3.176 -0.0087 -0.0897 -0.1116
 2989SOL     OW 9394   1.740   1.077   2.399 -0.4552 -0.3694 -0.5575
 2989SOL    HW1 9395   1.789   1.035   2.470 -1.6415 -0.0345  0.4835
 2989SOL    HW2 9396   1.798   1.070   2.323 -0.1035 -2.7875 -0.1306
 2990SOL     OW 9397   1.034   0.391   5.184 -0.1000  0.4713 -0.0220
 2990SOL    HW1 9398   0.952   0.435   5.207 -0.9371 -1.7074  1.5516
 2990SOL    HW2 9399   1.059   0.344   5.264  1.7804 -0.2886 -0.9901
 2991SOL     OW 9400   4.471   4.385   5.526 -0.2118 -0.4694 -0.1243
 2991SOL    HW1 9401   4.508   4.432   5.451  0.8962  0.2655  0.8364
 2991SOL    HW2 9402   4.381   4.416   5.532 -0.4668 -0.9019 -1.4226
 2992SOL     OW 9403   2.497   6.033   0.525 -0.4047  0.5236 -0.3836
 2992SOL    HW1 9404   2.544   6.114   0.506 -2.0162  1.1914 -1.7405
 2992SOL    HW2 9405   2.405   6.059   0.532 -0.5887 -0.5549  3.2895
 2993SOL     OW 9406   1.207   2.526   5.139  0.1214 -0.0163  0.4518
 2993SOL    HW1 9407   1.129   2.574   5.167 -0.3116  0.3291 -1.2067
 2993SOL    HW2 9408   1.175   2.467   5.070  1.3440  0.2590 -0.3858
 2994SOL     OW 9409   3.555   1.394   1.528  0.4754  0.1602 -0.3551
 2994SOL    HW1 9410   3.606   1.428   1.601  1.2834 -2.4199  0.3857
 2994SOL    HW2 9411   3.471   1.369   1.566 -0.1468  1.3506 -0.9049
 2995SOL     OW 9412   4.531   0.765   5.984 -0.5546 -0.2402  0.2251
 2995SOL    HW1 9413   4.620   0.787   5.955 -0.4819 -1.8207 -0.8929
 2995SOL    HW2 9414   4.476   0.782   5.907 -1.5063  2.1192  1.3383
 2996SOL     OW 9415   4.760   2.035   2.930  0.6474  0.3282 -0.1739
 2996SOL    HW1 9416   4.702   2.034   3.006  0.0817 -0.4951 -0.5962
 2996SOL    HW2 9417   4.838   1.989   2.960  0.4286  0.0105 -0.0804
 2997SOL     OW 9418   6.186   5.942   1.798 -0.5697  0.0780 -0.6223
 2997SOL    HW1 9419   6.101   5.964   1.762 -1.3289 -0.9467  0.4516
 2997SOL    HW2 9420   6.196   5.999   1.874 -1.1798 -1.0838  0.3690
 2998SOL     OW 9421   2.947   5.242   3.791  0.3640  0.3520  0.3938
 2998SOL    HW1 9422   2.932   5.276   3.880  0.9930 -0.9347  1.0159
 2998SOL    HW2 9423   2.915   5.152   3.795  0.9369  0.1076 -0.5288
 2999SOL     OW 9424   6.023   1.783   1.334 -0.4584 -0.2589 -0.3250
 2999SOL    HW1 9425   5.946   1.733   1.307 -0.5515 -0.0226 -0.4986
 2999SOL    HW2 9426   6.072   1.722   1.389 -0.5579 -0.5488 -0.5532
 3000SOL     OW 9427   0.296   4.590   2.024  0.0607 -0.1959  0.0262
 3000SOL    HW1 9428   0.250   4.670   2.051  0.2488 -0.7652  2.2661
 3000SOL    HW2 9429   0.354   4.618   1.954 -1.2639  1.2281 -0.5545
 3001SOL     OW 9430   1.113   1.818   4.885  0.2719 -0.1219  0.6900
 3001SOL    HW1 9431   1.166   1.744   4.912  2.0808  0.6242 -0.6575
 3001SOL    HW2 9432   1.077   1.793   4.800  1.0014  0.5601  0.1621
 3002SOL     OW 9433   4.808   1.919   5.291 -0.3403  0.1735  0.0081
 3002SOL    HW1 9434   4.852   1.945   5.371  0.5408  0.0312 -0.4201
 3002SOL    HW2 9435   4.738   1.859   5.320  1.0133 -1.2005  0.5484
 3003SOL     OW 9436   1.793   3.776   3.463 -0.1596 -0.0574 -0.7236
 3003SOL    HW1 9437   1.879   3.811   3.441 -0.1999  0.6215  0.1734
 3003SOL    HW2 9438   1.733   3.821   3.404  0.1700 -1.1522 -1.9481
 3004SOL     OW 9439   0.768   1.188   2.495  0.6626 -0.2268 -0.1281
 3004SOL    HW1 9440   0.858   1.180   2.527  0.3861 -0.8572  0.5288
 3004SOL    HW2 9441   0.714   1.182   2.574  0.0668  0.9452 -0.4253
 3005SOL     OW 9442   1.283   4.057   2.213 -0.5062  0.0974 -0.2206
 3005SOL    HW1 9443   1.343   4.025   2.281 -0.8061  0.5730  0.2719
 3005SOL    HW2 9444   1.327   4.035   2.131 -0.2685 -0.7392  0.1151
 3006SOL     OW 9445   1.176   1.546   2.098  0.0709  0.5688 -0.2482
 3006SOL    HW1 9446   1.205   1.635   2.081 -0.3122  0.4263 -1.7510
 3006SOL    HW2 9447   1.180   1.537   2.194 -1.2601  2.6633  0.0763
 3007SOL     OW 9448   3.966   2.122   3.121 -0.0110  0.1585  0.1259
 3007SOL    HW1 9449   3.941   2.179   3.049 -1.5661 -1.8732 -1.0352
 3007SOL    HW2 9450   3.983   2.037   3.081 -0.8328 -1.0260  2.1106
 3008SOL     OW 9451   6.231   3.374   0.612 -0.2761 -0.3173 -0.3412
 3008SOL    HW1 9452   6.162   3.326   0.659  1.0373 -0.0539  1.9681
 3008SOL    HW2 9453   6.184   3.447   0.570 -1.7001 -1.3324 -0.6041
 3009SOL     OW 9454   0.121   5.382   6.219  0.0613  0.4443 -0.0360
 3009SOL    HW1 9455   0.030   5.356   6.205  0.4346  0.0644 -2.0378
 3009SOL    HW2 9456   0.156   5.315   6.278 -0.9065  0.5593  0.7072
 3010SOL     OW 9457   0.987   2.770   3.582 -0.1113  0.0673 -0.0072
 3010SOL    HW1 9458   0.938   2.843   3.545  0.0548  0.4237  0.4669
 3010SOL    HW2 9459   0.920   2.705   3.603 -0.2902  0.2018 -0.1559
 3011SOL     OW 9460   4.234   2.421   1.682  0.2708 -0.1067 -0.0193
 3011SOL    HW1 9461   4.228   2.355   1.614  1.7986  0.0354 -0.3254
 3011SOL    HW2 9462   4.308   2.477   1.655  0.6726  0.1670  1.5483
 3012SOL     OW 9463   2.207   5.948   3.527 -0.1528  0.1912 -0.1201
 3012SOL    HW1 9464   2.133   5.992   3.569 -1.9375 -1.1231 -1.7178
 3012SOL    HW2 9465   2.240   5.887   3.593 -2.3828 -1.2677 -0.2476
 3013SOL     OW 9466   4.101   5.755   5.171 -0.7188  0.7457  0.1313
 3013SOL    HW1 9467   4.191   5.752   5.138 -0.8740 -0.6001 -0.2603
 3013SOL    HW2 9468   4.066   5.838   5.140 -0.2478  0.3636 -1.5245
 3014SOL     OW 9469   3.678   2.389   5.684 -0.2052 -0.3282 -0.2137
 3014SOL    HW1 9470   3.753   2.335   5.661  1.3392  0.5410  2.4022
 3014SOL    HW2 9471   3.707   2.479   5.666 -0.9953 -0.0353 -0.0640
 3015SOL     OW 9472   4.581   2.955   0.178  0.1294 -0.4562  0.4463
 3015SOL    HW1 9473   4.601   2.989   0.266 -0.6659 -0.5495  0.6747
 3015SOL    HW2 9474   4.485   2.962   0.171  0.0979 -1.2767 -0.0683
 3016SOL     OW 9475   3.498   4.875   1.055 -0.3401 -0.5770 -0.3556
 3016SOL    HW1 9476   3.488   4.964   1.089  0.1430 -1.0959  1.2304
 3016SOL    HW2 9477   3.408   4.846   1.039 -0.6594 -0.5706  1.2634
 3017SOL     OW 9478   2.192   5.260   2.166 -0.6336  0.7647  0.2449
 3017SOL    HW1 9479   2.124   5.210   2.120  0.3573  0.1050 -0.5617
 3017SOL    HW2 9480   2.245   5.298   2.095  0.0718  0.9406  0.8552
 3018SOL     OW 9481   0.905   4.554   3.759  0.2632  0.2917  0.0921
 3018SOL    HW1 9482   0.870   4.473   3.795  0.1576 -0.0009 -0.6471
 3018SOL    HW2 9483   0.846   4.576   3.687  0.2774  1.0396  0.3016
 3019SOL     OW 9484   5.737   0.320   1.563 -0.0406 -0.0557  0.4816
 3019SOL    HW1 9485   5.761   0.400   1.610  1.6074  0.0490 -0.4601
 3019SOL    HW2 9486   5.795   0.319   1.486  0.2860 -2.3590  0.6848
 3020SOL     OW 9487   5.898   1.699   3.326  0.0240  0.1453  0.1309
 3020SOL    HW1 9488   5.905   1.707   3.231 -0.4790 -2.3574 -0.1914
 3020SOL    HW2 9489   5.942   1.777   3.360 -0.1470  1.3093 -2.1419
 3021SOL     OW 9490   1.939   4.784   3.809  0.7128  0.5805 -0.2262
 3021SOL    HW1 9491   1.982   4.699   3.819  0.4310  0.6319  1.8040
 3021SOL    HW2 9492   1.931   4.817   3.898 -3.1153  0.7757 -0.4675
 3022SOL     OW 9493   3.478   0.871   5.449  0.3605  0.6310 -0.2089
 3022SOL    HW1 9494   3.531   0.918   5.512 -0.8500  2.3508 -0.4199
 3022SOL    HW2 9495   3.412   0.826   5.502  0.4167  0.6442 -0.1282
 3023SOL     OW 9496   2.752   3.412   3.958  0.0663 -0.2298 -0.3117
 3023SOL    HW1 9497   2.659   3.394   3.958  0.1192 -0.5481  0.3311
 3023SOL    HW2 9498   2.791   3.344   3.903 -0.0510 -0.2608 -0.3554
 3024SOL     OW 9499   3.069   4.084   0.064 -0.1555  0.6797 -0.3629
 3024SOL    HW1 9500   3.095   4.028  -0.009 -1.8496 -0.5136 -0.1066
 3024SOL    HW2 9501   3.088   4.032   0.142 -0.1929  1.1423 -0.0431
 3025SOL     OW 9502   3.511   0.311   5.908 -0.0988 -0.1503  0.1721
 3025SOL    HW1 9503   3.438   0.315   5.970 -0.8951 -1.4304 -0.6493
 3025SOL    HW2 9504   3.554   0.227   5.926 -0.1419 -0.3847 -0.7881
 3026SOL     OW 9505   6.167   1.336   3.123 -0.4750 -0.4398  0.6071
 3026SOL    HW1 9506   6.242   1.286   3.092  0.6250  1.4322  0.0556
 3026SOL    HW2 9507   6.187   1.427   3.099 -2.4884  0.2512  1.2966
 3027SOL     OW 9508   1.002   3.279   3.724 -0.2598 -0.3249  0.5065
 3027SOL    HW1 9509   0.973   3.364   3.757  1.4204  0.4395  0.1376
 3027SOL    HW2 9510   0.931   3.249   3.667 -1.0711  0.5982  1.0051
 3028SOL     OW 9511   4.927   0.169   4.653 -0.1247  0.1320 -0.1903
 3028SOL    HW1 9512   4.852   0.219   4.622 -0.7120 -1.3109 -1.2344
 3028SOL    HW2 9513   4.913   0.081   4.617  1.2529 -0.5756  0.9254
 3029SOL     OW 9514   2.351   3.902   5.160 -0.5033  0.2602  0.5693
 3029SOL    HW1 9515   2.378   3.882   5.070 -2.6304 -0.2232 -0.0072
 3029SOL    HW2 9516   2.423   3.870   5.214  0.0012 -1.1405 -0.8575
 3030SOL     OW 9517   0.620   2.006   1.692 -0.0339  0.1269  0.3510
 3030SOL    HW1 9518   0.544   2.016   1.750 -0.5653 -0.8992 -0.1318
 3030SOL    HW2 9519   0.692   1.985   1.751 -0.1148  1.1287  0.8193
 3031SOL     OW 9520   1.048   0.557   1.764  0.2175  0.1752  0.6306
 3031SOL    HW1 9521   1.058   0.475   1.716 -2.2672  0.6131 -0.8674
 3031SOL    HW2 9522   1.044   0.532   1.856  0.4139 -1.2816  0.2544
 3032SOL     OW 9523   2.534   3.616   0.166  0.5593 -0.2125  0.1891
 3032SOL    HW1 9524   2.549   3.608   0.072 -1.8310  0.4521 -0.3241
 3032SOL    HW2 9525   2.530   3.710   0.181 -2.1134 -0.2657  0.3105
 3033SOL     OW 9526   4.013   6.035   3.898  0.5426  0.1633  1.0841
 3033SOL    HW1 9527   4.001   5.942   3.879  1.8317  0.0393  0.7696
 3033SOL    HW2 9528   4.102   6.041   3.933  0.5462  1.3001  0.9115
 3034SOL     OW 9529   1.307   4.612   3.539  0.4686  0.2890 -0.3461
 3034SOL    HW1 9530   1.305   4.548   3.467  2.6826 -0.8652  0.5440
 3034SOL    HW2 9531   1.264   4.567   3.612 -0.6514  0.9967 -0.5365
 3035SOL     OW 9532   3.921   0.294   4.822 -0.0086 -0.1706 -0.4124
 3035SOL    HW1 9533   3.888   0.358   4.885 -0.2053 -0.6560 -0.0135
 3035SOL    HW2 9534   3.936   0.214   4.874 -1.3077 -0.9485 -1.1706
 3036SOL     OW 9535   0.481   2.037   5.017  0.3348 -0.3664 -0.0032
 3036SOL    HW1 9536   0.511   2.123   5.047 -1.6525  0.6970 -0.8882
 3036SOL    HW2 9537   0.420   2.008   5.085 -0.7618  0.0066 -0.8120
 3037SOL     OW 9538   2.845   2.040   2.322 -0.0010 -0.4039  0.1072
 3037SOL    HW1 9539   2.754   2.040   2.293  0.1165 -2.7063 -0.3886
 3037SOL    HW2 9540   2.850   1.968   2.384  1.8270 -1.3839 -1.1038
 3038SOL     OW 9541   4.150   0.843   1.007  0.2541 -0.1537  0.1322
 3038SOL    HW1 9542   4.094   0.911   1.045  2.5093  0.6793  2.2660
 3038SOL    HW2 9543   4.175   0.878   0.922 -0.0457  0.8840  0.4556
 3039SOL     OW 9544   5.441   5.399   1.760 -0.4830 -0.3163 -0.4550
 3039SOL    HW1 9545   5.392   5.468   1.804 -0.0957  0.4704 -1.2201
 3039SOL    HW2 9546   5.525   5.397   1.804 -0.0089  0.6330 -1.2758
 3040SOL     OW 9547   1.201   3.526   5.870  0.5835 -0.3536  0.2841
 3040SOL    HW1 9548   1.243   3.579   5.938 -0.6410  1.9434 -0.6601
 3040SOL    HW2 9549   1.274   3.501   5.811  0.9562  2.2648 -0.4874
 3041SOL     OW 9550   5.135   3.433   1.659 -0.5922 -0.1484  0.0548
 3041SOL    HW1 9551   5.129   3.411   1.567 -1.4209 -0.0845  0.0880
 3041SOL    HW2 9552   5.119   3.528   1.662 -1.1589 -0.2512  0.3225
 3042SOL     OW 9553   4.869   0.940   5.346  0.1683 -0.0508  0.1653
 3042SOL    HW1 9554   4.824   0.859   5.319  1.0803 -0.7334  0.6545
 3042SOL    HW2 9555   4.960   0.926   5.320  0.2353  1.0412 -0.2047
 3043SOL     OW 9556   0.133   4.843   4.947  0.5283 -0.7985 -0.1487
 3043SOL    HW1 9557   0.146   4.934   4.974 -1.4175  0.1027 -1.9168
 3043SOL    HW2 9558   0.117   4.849   4.853  0.8409 -3.0416 -0.3818
 3044SOL     OW 9559   4.082   3.249   3.395  0.0534  0.3870 -0.2810
 3044SOL    HW1 9560   4.088   3.158   3.368 -0.1628  0.5544 -0.9231
 3044SOL    HW2 9561   4.110   3.250   3.487  1.3523 -0.1225 -0.6473
 3045SOL     OW 9562   6.064   5.229   1.837  0.5481  0.3889 -0.4684
 3045SOL    HW1 9563   6.004   5.296   1.870 -0.2236 -0.9966  1.0735
 3045SOL    HW2 9564   6.040   5.219   1.745  0.4610  1.9632 -0.6521
 3046SOL     OW 9565   3.541   1.139   5.936 -0.2195  0.5122 -0.3005
 3046SOL    HW1 9566   3.601   1.065   5.930 -0.5129  0.0995  1.2517
 3046SOL    HW2 9567   3.598   1.215   5.948  0.0522  0.3892 -0.8004
 3047SOL     OW 9568   0.165   0.858   4.758 -0.3518 -0.1094 -0.2284
 3047SOL    HW1 9569   0.208   0.942   4.741  1.6604 -1.1672 -0.6837
 3047SOL    HW2 9570   0.132   0.830   4.673  0.8828 -0.7563 -0.5100
 3048SOL     OW 9571   1.480   2.746   1.301 -0.5051 -0.3310 -0.4465
 3048SOL    HW1 9572   1.471   2.838   1.328 -1.7239 -0.5833  0.0475
 3048SOL    HW2 9573   1.393   2.722   1.269 -0.2259 -1.3643 -0.4546
 3049SOL     OW 9574   2.994   3.193   0.466  0.2756  0.4150  0.0640
 3049SOL    HW1 9575   3.019   3.174   0.557 -0.8567  0.9379  0.5003
 3049SOL    HW2 9576   2.972   3.286   0.465 -1.2076  0.0877 -0.3743
 3050SOL     OW 9577   2.299   0.065   4.478  0.1018  0.6180  0.3722
 3050SOL    HW1 9578   2.354   0.112   4.416 -2.2445  0.6105 -1.9025
 3050SOL    HW2 9579   2.322  -0.027   4.465  0.7727  0.7272  0.7460
 3051SOL     OW 9580   5.708   2.317   3.855  0.0156  0.2219  0.1191
 3051SOL    HW1 9581   5.711   2.247   3.791  0.9875 -0.9160  1.3589
 3051SOL    HW2 9582   5.790   2.364   3.844  1.7842 -2.0129  2.6460
 3052SOL     OW 9583   2.201   4.601   1.162 -0.1709 -0.7603  0.3383
 3052SOL    HW1 9584   2.197   4.638   1.251  0.2049  1.1679 -0.3986
 3052SOL    HW2 9585   2.144   4.525   1.165 -0.1550 -0.7464  2.2384
 3053SOL     OW 9586   6.188   0.109   2.774 -0.1032 -0.2209  0.5490
 3053SOL    HW1 9587   6.234   0.181   2.731 -1.5000 -0.4255 -1.4192
 3053SOL    HW2 9588   6.248   0.035   2.768 -0.2081 -0.2201 -1.0495
 3054SOL     OW 9589   2.315   0.441   2.377  0.4954 -0.1656 -0.2305
 3054SOL    HW1 9590   2.290   0.515   2.323 -2.2186 -0.3887  0.5504
 3054SOL    HW2 9591   2.256   0.371   2.351  0.7791 -1.0218  1.2794
 3055SOL     OW 9592   5.738   3.576   2.257  0.5574  0.2464 -0.2111
 3055SOL    HW1 9593   5.718   3.584   2.350 -1.4587 -1.0652 -0.4914
 3055SOL    HW2 9594   5.701   3.655   2.218 -0.9550 -0.4349 -0.2196
 3056SOL     OW 9595   1.236   4.092   3.589  0.2841  0.8481 -0.3528
 3056SOL    HW1 9596   1.282   4.151   3.648  1.2270  1.7384 -1.8911
 3056SOL    HW2 9597   1.305   4.050   3.538 -0.5066  1.3232 -1.9103
 3057SOL     OW 9598   5.781   3.709   1.989  0.1381 -0.0806  0.0850
 3057SOL    HW1 9599   5.726   3.776   2.029 -0.7272  0.9663 -2.6276
 3057SOL    HW2 9600   5.718   3.647   1.950  0.9053 -0.6974 -0.2045
 3058SOL     OW 9601   2.935   3.641   3.067 -0.5527  0.1898  0.0545
 3058SOL    HW1 9602   2.940   3.635   2.972  1.3309 -0.5585  0.1581
 3058SOL    HW2 9603   2.977   3.724   3.088 -1.2477  0.5015  0.2235
 3059SOL     OW 9604   0.976   0.482   0.357  0.1617 -0.1730  0.3957
 3059SOL    HW1 9605   1.055   0.468   0.408  0.9370  1.1819 -0.3742
 3059SOL    HW2 9606   0.904   0.473   0.420  1.0868  1.6145  1.8121
 3060SOL     OW 9607   5.831   3.005   2.130  0.3091 -0.6771 -0.2091
 3060SOL    HW1 9608   5.924   3.006   2.155  0.1361  1.6619  0.6549
 3060SOL    HW2 9609   5.829   3.052   2.047 -0.0849 -0.7022 -0.2130
 3061SOL     OW 9610   2.665   5.191   3.453  0.1296 -1.0037 -0.1789
 3061SOL    HW1 9611   2.673   5.127   3.524  2.3509 -2.9943 -2.0516
 3061SOL    HW2 9612   2.580   5.173   3.413 -0.5904 -0.6828  1.1221
 3062SOL     OW 9613   4.378   1.117   5.430  0.1553  0.4617 -0.1987
 3062SOL    HW1 9614   4.385   1.113   5.335 -0.0013  0.3161 -0.2055
 3062SOL    HW2 9615   4.355   1.028   5.456 -0.1615  0.5806 -0.0572
 3063SOL     OW 9616   4.857   4.220   2.961  0.1654  0.0786  0.3575
 3063SOL    HW1 9617   4.862   4.133   2.922  2.6932 -0.4333  1.5905
 3063SOL    HW2 9618   4.884   4.279   2.890  2.5748 -0.6270  0.5827
 3064SOL     OW 9619   1.354   3.775   4.804  0.1611  0.6559  0.4248
 3064SOL    HW1 9620   1.331   3.717   4.876  0.7928 -0.1726 -0.0210
 3064SOL    HW2 9621   1.442   3.748   4.778 -0.3067  0.4592 -1.0981
 3065SOL     OW 9622   3.448   6.038   2.978  0.5329  0.4209 -0.2278
 3065SOL    HW1 9623   3.356   6.062   2.994 -0.2035 -1.1876 -1.7421
 3065SOL    HW2 9624   3.482   6.109   2.924  0.6515  1.7587  1.5152
 3066SOL     OW 9625   5.185   1.609   0.004  0.3769 -0.2634 -0.2293
 3066SOL    HW1 9626   5.108   1.582  -0.046 -0.2150 -0.8685  0.9519
 3066SOL    HW2 9627   5.163   1.697   0.036 -0.6004 -1.0856  1.5180
 3067SOL     OW 9628   4.829   5.363   1.537 -0.3303 -0.3219  0.1239
 3067SOL    HW1 9629   4.858   5.380   1.626  0.0234 -1.2834  0.2098
 3067SOL    HW2 9630   4.820   5.450   1.497 -0.9572  0.1304  1.2262
 3068SOL     OW 9631   2.559   3.096   3.779  0.6952 -0.0170  0.1623
 3068SOL    HW1 9632   2.581   3.076   3.870  1.5518 -0.6240 -0.1608
 3068SOL    HW2 9633   2.619   3.042   3.728 -1.8376 -2.1193 -0.8009
 3069SOL     OW 9634   2.129   4.515   3.836 -1.1526  0.8514 -0.5462
 3069SOL    HW1 9635   2.191   4.512   3.763 -0.4489 -1.1048  0.0538
 3069SOL    HW2 9636   2.184   4.527   3.913 -1.6169  0.1515 -0.0984
 3070SOL     OW 9637   3.261   0.849   2.896  0.3703  0.5774 -0.4874
 3070SOL    HW1 9638   3.234   0.772   2.947 -1.0696  1.3273 -0.0576
 3070SOL    HW2 9639   3.357   0.844   2.894  0.6410  1.0320  3.1939
 3071SOL     OW 9640   4.373   2.222   2.387  0.7075  0.1379  0.3401
 3071SOL    HW1 9641   4.468   2.219   2.401  1.0255  0.1842 -1.5521
 3071SOL    HW2 9642   4.363   2.273   2.307 -0.8505 -0.6709 -0.0070
 3072SOL     OW 9643   3.023   2.086   0.524  0.0963  0.4466 -0.2592
 3072SOL    HW1 9644   3.089   2.078   0.455 -0.8709 -0.8297 -1.1024
 3072SOL    HW2 9645   3.058   2.034   0.597  0.6217  0.8805 -0.2006
 3073SOL     OW 9646   4.417   4.229   5.790  0.3871  0.1813 -0.4735
 3073SOL    HW1 9647   4.378   4.268   5.712 -2.5729  0.1863  0.8723
 3073SOL    HW2 9648   4.348   4.235   5.857  2.3463 -0.9384  1.7960
 3074SOL     OW 9649   6.088   2.246   3.093  0.8109  0.2482  0.2958
 3074SOL    HW1 9650   6.069   2.181   3.025  1.1326 -0.7698  1.1524
 3074SOL    HW2 9651   6.062   2.329   3.054 -0.4389 -0.4837 -0.5066
 3075SOL     OW 9652   3.613   2.951   3.361 -0.2449  0.3750 -0.4312
 3075SOL    HW1 9653   3.653   3.016   3.419  1.0675  1.2899 -2.2763
 3075SOL    HW2 9654   3.586   3.000   3.284 -0.5092 -1.0587 -1.2979
 3076SOL     OW 9655   3.867   1.131   5.560 -0.0983 -0.1334  0.7377
 3076SOL    HW1 9656   3.962   1.117   5.563  0.1281  0.4461 -1.7918
 3076SOL    HW2 9657   3.853   1.205   5.619  0.8685 -0.7666  1.8176
 3077SOL     OW 9658   0.535   0.349   5.179 -0.1137 -0.0531 -0.5645
 3077SOL    HW1 9659   0.474   0.367   5.107  0.4307 -0.3695 -1.1151
 3077SOL    HW2 9660   0.570   0.262   5.160  0.6350  0.1955 -0.3486
 3078SOL     OW 9661   2.256   5.879   1.511 -0.7275 -0.4365  0.2709
 3078SOL    HW1 9662   2.181   5.838   1.468  0.4171 -1.6975 -0.6247
 3078SOL    HW2 9663   2.311   5.806   1.539  0.0707  0.4448  1.1049
 3079SOL     OW 9664   4.432   2.715   0.946 -0.4369  0.3578  0.9221
 3079SOL    HW1 9665   4.507   2.774   0.943 -0.0616 -0.1519 -1.6360
 3079SOL    HW2 9666   4.366   2.758   0.891  0.1233 -1.8297 -1.6654
 3080SOL     OW 9667   2.968   4.097   0.430  0.2154  0.7292  0.3533
 3080SOL    HW1 9668   3.042   4.050   0.469  0.1650  0.5102  0.1888
 3080SOL    HW2 9669   2.900   4.030   0.419  0.0143  0.9142  0.4441
 3081SOL     OW 9670   0.986   4.551   2.556 -0.1879  0.5584 -0.2967
 3081SOL    HW1 9671   0.982   4.470   2.505 -2.7337  0.0671  0.5480
 3081SOL    HW2 9672   0.999   4.521   2.646  2.6199  1.3365 -0.3721
 3082SOL     OW 9673   6.109   3.994   4.268 -0.0582 -0.2800  0.2901
 3082SOL    HW1 9674   6.182   4.052   4.248 -1.2210  2.2177  2.6207
 3082SOL    HW2 9675   6.141   3.906   4.245  2.7095  0.9605 -1.0534
 3083SOL     OW 9676   6.189   4.786   1.557  0.3647 -0.1056  0.5248
 3083SOL    HW1 9677   6.192   4.843   1.480  1.1364  0.3804  0.9043
 3083SOL    HW2 9678   6.100   4.797   1.592  0.1323 -0.0396 -0.0698
 3084SOL     OW 9679   1.742   3.831   4.427 -0.3276  0.3348  0.1394
 3084SOL    HW1 9680   1.793   3.776   4.368 -0.4264 -0.8144  1.0841
 3084SOL    HW2 9681   1.740   3.783   4.510 -1.4167  1.2043  0.6605
 3085SOL     OW 9682   5.694   2.828   4.935  0.2894  0.1785  0.3270
 3085SOL    HW1 9683   5.662   2.803   5.022 -1.3195  1.6570  0.2094
 3085SOL    HW2 9684   5.752   2.756   4.909 -1.7447 -1.9020  1.2317
 3086SOL     OW 9685   2.509   5.296   3.846 -0.1211 -0.1104  0.5446
 3086SOL    HW1 9686   2.526   5.312   3.753  1.5118 -1.7048  0.5082
 3086SOL    HW2 9687   2.495   5.202   3.852 -2.1348  0.2037  1.6898
 3087SOL     OW 9688   0.862   3.252   1.610 -0.1719  0.1461  0.1382
 3087SOL    HW1 9689   0.952   3.269   1.640  0.6689 -1.5342 -1.2332
 3087SOL    HW2 9690   0.870   3.249   1.515 -1.8343  0.5707 -0.0325
 3088SOL     OW 9691   4.204   1.043   2.605 -0.2844 -0.2834 -0.3523
 3088SOL    HW1 9692   4.176   0.952   2.617 -0.0800 -0.5936 -1.9126
 3088SOL    HW2 9693   4.296   1.043   2.633 -0.3054 -0.5455 -0.2774
 3089SOL     OW 9694   5.913   6.152   4.335  0.6304  0.2510  0.2697
 3089SOL    HW1 9695   5.827   6.161   4.378 -0.0809 -1.2095 -0.7646
 3089SOL    HW2 9696   5.893   6.159   4.241  1.3390 -1.8948 -0.0936
 3090SOL     OW 9697   3.171   0.452   0.470  0.2338 -0.1648  0.4652
 3090SOL    HW1 9698   3.182   0.538   0.430 -1.1173 -0.4787 -0.6422
 3090SOL    HW2 9699   3.089   0.457   0.519 -0.4282 -1.1299 -0.5033
 3091SOL     OW 9700   0.315   4.624   2.600 -0.3728  0.2622  0.2413
 3091SOL    HW1 9701   0.333   4.563   2.672 -2.1058 -1.1183 -0.4279
 3091SOL    HW2 9702   0.233   4.593   2.562 -1.0909  2.7660 -0.4393
 3092SOL     OW 9703   2.312   0.789   1.829  0.0408  0.2930  0.3268
 3092SOL    HW1 9704   2.253   0.733   1.779  0.8655  0.3860 -0.7850
 3092SOL    HW2 9705   2.354   0.730   1.891  2.0833 -0.7416 -1.8822
 3093SOL     OW 9706   3.394   1.985   3.542  0.1209 -0.0841 -0.4807
 3093SOL    HW1 9707   3.479   1.953   3.511  0.1881 -0.2524 -0.1325
 3093SOL    HW2 9708   3.402   1.983   3.638 -0.2288  0.0271 -0.4492
 3094SOL     OW 9709   3.500   4.393   2.055  0.2285 -0.1941  0.2590
 3094SOL    HW1 9710   3.523   4.313   2.008  0.1593 -1.3385  2.0390
 3094SOL    HW2 9711   3.584   4.431   2.081  0.2638 -1.0740  1.5345
 3095SOL     OW 9712   5.153   0.851   4.152  0.1642 -0.2523 -0.4305
 3095SOL    HW1 9713   5.088   0.783   4.132 -0.1156  0.4049 -1.8810
 3095SOL    HW2 9714   5.101   0.929   4.170  0.5418  0.1819 -1.2124
 3096SOL     OW 9715   3.150   0.950   0.003  0.1858 -0.1117  0.2828
 3096SOL    HW1 9716   3.167   0.869   0.051  1.1401 -1.5122 -2.2279
 3096SOL    HW2 9717   3.068   0.934  -0.043 -0.3533  0.9327  0.8433
 3097SOL     OW 9718   0.351   5.575   1.767  0.1924 -0.1082 -0.2448
 3097SOL    HW1 9719   0.307   5.660   1.779 -1.8444 -0.9750 -1.0399
 3097SOL    HW2 9720   0.416   5.572   1.837 -1.2686  1.1529  1.2689
 3098SOL     OW 9721   1.031   4.330   0.350  0.3673 -0.4428  0.1553
 3098SOL    HW1 9722   0.939   4.333   0.375  0.5062 -0.3934  0.6785
 3098SOL    HW2 9723   1.079   4.345   0.432  0.8688 -2.3810  0.2628
 3099SOL     OW 9724   6.094   0.738   5.127 -0.2571  0.2909  0.3342
 3099SOL    HW1 9725   6.113   0.831   5.122 -0.1650  0.2962  0.7486
 3099SOL    HW2 9726   6.008   0.734   5.170 -0.1947  0.1805  0.4485
 3100SOL     OW 9727   0.793   2.041   0.152 -0.7380 -0.0834 -0.1289
 3100SOL    HW1 9728   0.769   2.133   0.143 -1.7536 -0.4693 -1.6265
 3100SOL    HW2 9729   0.750   1.997   0.079 -0.0509 -1.7178  0.3991
 3101SOL     OW 9730   0.776   2.668   2.666  0.1974  0.0842  0.3942
 3101SOL    HW1 9731   0.692   2.679   2.710 -0.3963 -0.9477 -0.4340
 3101SOL    HW2 9732   0.792   2.753   2.623  0.5190  0.9128  2.0522
 3102SOL     OW 9733   3.642   5.765   3.992 -0.0826 -0.0547 -0.5241
 3102SOL    HW1 9734   3.665   5.724   3.909 -0.9680 -0.3537 -0.6349
 3102SOL    HW2 9735   3.639   5.692   4.054  0.9254  0.2148 -0.1449
 3103SOL     OW 9736   2.070   3.426   3.061  0.0044  0.6500  0.5299
 3103SOL    HW1 9737   1.976   3.410   3.071 -0.3369  1.2291 -1.3671
 3103SOL    HW2 9738   2.109   3.339   3.064 -1.1205 -0.1594 -3.1060
 3104SOL     OW 9739   2.628   0.878   6.143  0.0804 -0.1057 -0.7256
 3104SOL    HW1 9740   2.670   0.803   6.186 -1.4495  0.1520  1.3648
 3104SOL    HW2 9741   2.690   0.950   6.154  0.2216 -0.3317  0.0091
 3105SOL     OW 9742   5.147   3.293   3.339  0.3920  0.3278 -0.1848
 3105SOL    HW1 9743   5.222   3.348   3.318  0.1857  0.5892 -0.2344
 3105SOL    HW2 9744   5.153   3.280   3.434 -0.0623  1.1768 -0.0346
 3106SOL     OW 9745   2.252   5.696   3.093 -0.1604  0.1953 -0.0353
 3106SOL    HW1 9746   2.244   5.605   3.121 -0.0882  0.0708 -0.4185
 3106SOL    HW2 9747   2.213   5.698   3.006  1.1008  0.2306 -0.6156
 3107SOL     OW 9748   4.596   0.784   2.613 -0.1789 -0.0406 -0.5436
 3107SOL    HW1 9749   4.646   0.837   2.551  0.6807  0.2219  0.3358
 3107SOL    HW2 9750   4.563   0.710   2.562 -0.3623  0.7076 -1.5176
 3108SOL     OW 9751   4.672   2.874   2.826  0.2242  0.3869  0.3572
 3108SOL    HW1 9752   4.761   2.839   2.834 -0.0748 -0.3499  0.5964
 3108SOL    HW2 9753   4.644   2.848   2.738  0.1282  0.3317  0.4042
 3109SOL     OW 9754   1.064   5.315   2.253  0.0391 -0.5004  0.1214
 3109SOL    HW1 9755   1.069   5.221   2.234 -0.1425 -0.5269  0.2050
 3109SOL    HW2 9756   1.154   5.346   2.243  0.0473 -0.6256 -0.2067
 3110SOL     OW 9757   3.727   4.628   3.081 -0.1976 -0.3721 -0.3321
 3110SOL    HW1 9758   3.746   4.548   3.031  2.3931  1.0441 -1.8367
 3110SOL    HW2 9759   3.807   4.680   3.074 -0.5694  0.9835  3.4086
 3111SOL     OW 9760   3.191   3.596   0.626  0.2870  0.1647 -0.2091
 3111SOL    HW1 9761   3.157   3.679   0.658  0.2610  0.3226 -0.6441
 3111SOL    HW2 9762   3.142   3.530   0.675 -0.1535  0.3978 -0.3348
 3112SOL     OW 9763   3.762   3.396   1.428  0.0040 -0.1991  0.2028
 3112SOL    HW1 9764   3.771   3.372   1.520  0.2822  1.0313  0.5050
 3112SOL    HW2 9765   3.796   3.485   1.422 -0.0228 -0.2546 -1.0912
 3113SOL     OW 9766   4.508   0.759   3.566 -0.0838  0.2483 -0.3806
 3113SOL    HW1 9767   4.461   0.832   3.606 -0.8809 -1.1334  1.3056
 3113SOL    HW2 9768   4.439   0.706   3.525  0.4194  0.0637 -1.0121
 3114SOL     OW 9769   3.324   0.608   1.650  0.5224 -0.9731 -0.0331
 3114SOL    HW1 9770   3.237   0.648   1.650  1.0218  0.2221  1.6837
 3114SOL    HW2 9771   3.366   0.640   1.570  0.2409  0.4824  0.3758
 3115SOL     OW 9772   2.170   5.478   2.613  0.0672  0.0682 -0.7276
 3115SOL    HW1 9773   2.240   5.518   2.562  0.1711  2.1638  0.8887
 3115SOL    HW2 9774   2.184   5.511   2.702 -2.0985 -0.6458 -0.0651
 3116SOL     OW 9775   4.938   4.833   0.255  0.1310 -0.5042 -0.0370
 3116SOL    HW1 9776   4.843   4.849   0.255  0.1913  0.0911 -1.7184
 3116SOL    HW2 9777   4.970   4.880   0.178  1.8374 -0.5503  0.6057
 3117SOL     OW 9778   5.324   4.395   0.496 -0.5436  0.2213 -0.9167
 3117SOL    HW1 9779   5.236   4.388   0.532 -0.1153  1.2577  0.4278
 3117SOL    HW2 9780   5.330   4.323   0.434 -2.4306  0.3149 -1.2653
 3118SOL     OW 9781   1.621   0.656   1.265 -0.5848 -0.0392 -0.0931
 3118SOL    HW1 9782   1.684   0.656   1.193 -0.3068  0.4602  0.1478
 3118SOL    HW2 9783   1.610   0.563   1.287 -0.7535 -0.2087 -0.8417
 3119SOL     OW 9784   5.876   4.434   1.376 -0.0202  0.0579  0.2186
 3119SOL    HW1 9785   5.835   4.497   1.317  1.4369 -0.6561 -1.6670
 3119SOL    HW2 9786   5.960   4.474   1.399  1.1665 -1.3489 -1.4401
 3120SOL     OW 9787   5.892   5.083   5.937 -0.2211  0.0100  0.2316
 3120SOL    HW1 9788   5.904   5.021   6.010 -1.0367 -0.1736  0.2220
 3120SOL    HW2 9789   5.843   5.033   5.872 -2.8771  1.2614  1.1098
 3121SOL     OW 9790   2.603   3.677   5.046  0.0220  0.4429  0.3574
 3121SOL    HW1 9791   2.526   3.718   5.007 -0.7800 -1.8193 -0.5764
 3121SOL    HW2 9792   2.574   3.650   5.133 -1.1193 -2.4495 -0.7776
 3122SOL     OW 9793   0.313   3.512   3.774 -0.0175  0.1013 -0.4107
 3122SOL    HW1 9794   0.312   3.456   3.851 -1.0350  0.2106 -0.3275
 3122SOL    HW2 9795   0.222   3.542   3.765  0.4486  1.5311 -0.5991
 3123SOL     OW 9796   5.838   0.887   1.474 -0.7817 -0.6914  0.0744
 3123SOL    HW1 9797   5.815   0.859   1.563 -1.2540  1.6637  0.7573
 3123SOL    HW2 9798   5.931   0.909   1.480 -1.5822  3.1333  1.1516
 3124SOL     OW 9799   5.168   2.455   3.899 -0.0985  0.2761  0.0718
 3124SOL    HW1 9800   5.105   2.401   3.947  0.6438  0.1646  0.9358
 3124SOL    HW2 9801   5.237   2.475   3.962  0.2531  1.2274 -0.5769
 3125SOL     OW 9802   1.223   2.449   4.656  0.7178 -0.0207 -0.0967
 3125SOL    HW1 9803   1.219   2.512   4.729  0.6891 -0.2382  0.0905
 3125SOL    HW2 9804   1.236   2.504   4.579 -0.4554  0.3274 -0.0838
 3126SOL     OW 9805   0.667   2.370   5.784 -0.7194 -0.0825 -0.0090
 3126SOL    HW1 9806   0.698   2.449   5.828  0.1867 -0.9285  0.9147
 3126SOL    HW2 9807   0.730   2.356   5.713  2.6304 -3.0056  3.1392
 3127SOL     OW 9808   5.053   3.202   1.729  0.0957  0.1411 -0.2670
 3127SOL    HW1 9809   4.990   3.213   1.800  0.6403  0.0085  0.2465
 3127SOL    HW2 9810   5.089   3.289   1.714 -0.2817  0.2352 -0.6288
 3128SOL     OW 9811   5.997   5.026   2.365  0.1297 -0.1622  0.2293
 3128SOL    HW1 9812   6.042   5.097   2.410  3.0046 -2.8846  2.1016
 3128SOL    HW2 9813   5.936   4.991   2.431  0.1320 -0.5833  0.0121
 3129SOL     OW 9814   5.941   1.657   5.406 -0.7807  0.2812 -0.5636
 3129SOL    HW1 9815   5.990   1.626   5.482 -0.4395 -0.9431 -1.2428
 3129SOL    HW2 9816   5.878   1.720   5.441 -0.0166  0.4345  0.5902
 3130SOL     OW 9817   1.088   0.701   5.217 -0.8333  0.6359  0.0999
 3130SOL    HW1 9818   0.998   0.730   5.203 -1.3232 -0.7898  0.1708
 3130SOL    HW2 9819   1.129   0.709   5.132 -0.3436  3.3923  0.4924
 3131SOL     OW 9820   2.512   3.505   5.327 -0.2856  0.6347 -1.1767
 3131SOL    HW1 9821   2.452   3.484   5.256  0.9207 -1.1792 -1.7489
 3131SOL    HW2 9822   2.471   3.468   5.405 -0.9468  1.3802 -1.1625
 3132SOL     OW 9823   4.664   4.605   2.976  0.5488 -0.6294 -0.2023
 3132SOL    HW1 9824   4.574   4.624   3.004 -0.1415 -2.5306 -0.9030
 3132SOL    HW2 9825   4.706   4.567   3.053  0.3582 -0.8886 -0.2265
 3133SOL     OW 9826   1.036   4.254   1.749 -0.6233  0.2250 -0.8457
 3133SOL    HW1 9827   0.978   4.270   1.823 -0.4360 -0.3134 -0.5711
 3133SOL    HW2 9828   0.980   4.260   1.672 -1.0110 -0.1077 -0.5946
 3134SOL     OW 9829   6.028   1.932   1.715  0.3516 -0.0451 -0.7513
 3134SOL    HW1 9830   6.033   1.966   1.805 -1.6166  0.5839 -0.8370
 3134SOL    HW2 9831   5.987   1.846   1.725  0.0921  0.0451 -1.0662
 3135SOL     OW 9832   5.311   0.477   5.366  0.2721 -0.3105  0.3038
 3135SOL    HW1 9833   5.263   0.434   5.295  0.8690 -1.7563  0.7440
 3135SOL    HW2 9834   5.320   0.410   5.433  1.1231  0.5573  1.0882
 3136SOL     OW 9835   0.438   4.107   2.508  0.0202  0.1977 -0.2939
 3136SOL    HW1 9836   0.412   4.109   2.600 -0.0185 -0.7039 -0.2760
 3136SOL    HW2 9837   0.460   4.015   2.491 -2.2044 -0.1539 -1.7840
 3137SOL     OW 9838   4.719   3.668   4.512  0.3675  0.4125  0.7562
 3137SOL    HW1 9839   4.707   3.599   4.447  1.1625  0.6947  0.2888
 3137SOL    HW2 9840   4.648   3.655   4.574  0.2768 -0.5853  0.4650
 3138SOL     OW 9841   6.058   4.538   2.264 -0.0759  0.3597 -0.0893
 3138SOL    HW1 9842   6.138   4.493   2.289 -0.3293 -0.1498 -0.1894
 3138SOL    HW2 9843   6.050   4.609   2.328 -0.3083 -0.4560  0.8034
 3139SOL     OW 9844   1.905   5.969   4.221 -0.4589  0.1340 -0.1224
 3139SOL    HW1 9845   1.891   5.882   4.260  0.5688  0.2418  0.5137
 3139SOL    HW2 9846   1.944   6.021   4.291 -0.3429  0.8878 -0.7343
 3140SOL     OW 9847   0.457   5.392   6.089  0.0030 -0.3595  0.3124
 3140SOL    HW1 9848   0.532   5.335   6.106  0.0993 -0.1390  0.6304
 3140SOL    HW2 9849   0.479   5.474   6.133 -1.3566 -0.9620  2.2295
 3141SOL     OW 9850   1.261   5.817   5.052 -0.3101 -0.6827  0.1982
 3141SOL    HW1 9851   1.264   5.902   5.009 -0.3502 -0.9863 -0.4085
 3141SOL    HW2 9852   1.333   5.767   5.015  0.8383 -0.3347  1.8348
 3142SOL     OW 9853   5.743   3.961   5.321  0.2120 -0.0258  0.6939
 3142SOL    HW1 9854   5.690   3.884   5.341  0.7069 -0.5630 -0.0133
 3142SOL    HW2 9855   5.715   3.987   5.233 -1.8923  2.2558  1.9041
 3143SOL     OW 9856   5.151   0.240   3.161  0.4265  0.0829 -0.1084
 3143SOL    HW1 9857   5.061   0.261   3.186  0.1699 -0.6063 -0.4210
 3143SOL    HW2 9858   5.146   0.220   3.067  0.6305 -1.3568  0.1614
 3144SOL     OW 9859   5.468   0.609   5.861 -0.0624 -0.1230 -0.5356
 3144SOL    HW1 9860   5.511   0.564   5.788  0.2672 -1.1014  0.2265
 3144SOL    HW2 9861   5.529   0.677   5.887  0.7372 -1.0458  0.0771
 3145SOL     OW 9862   5.116   4.354   3.558  0.1561 -0.4191 -0.3163
 3145SOL    HW1 9863   5.055   4.385   3.492  0.6721  0.4871 -0.3856
 3145SOL    HW2 9864   5.062   4.336   3.635 -0.2718 -0.1632 -0.5552
 3146SOL     OW 9865   5.236   1.157   3.832 -0.9513  0.4650 -0.2461
 3146SOL    HW1 9866   5.280   1.226   3.782  0.4413  0.3864  0.8300
 3146SOL    HW2 9867   5.198   1.203   3.907 -0.0773  0.0865  0.4385
 3147SOL     OW 9868   5.770   4.676   4.154  0.0549 -0.5946 -0.2644
 3147SOL    HW1 9869   5.811   4.625   4.224 -0.4206  0.1691  0.5958
 3147SOL    HW2 9870   5.690   4.712   4.194  0.3885  0.8365 -0.8239
 3148SOL     OW 9871   3.373   3.693   3.754  0.0396  0.6460  0.3098
 3148SOL    HW1 9872   3.458   3.699   3.710 -0.6749 -2.4301 -1.7554
 3148SOL    HW2 9873   3.387   3.628   3.823 -0.9410 -1.1840 -1.1301
 3149SOL     OW 9874   1.126   2.685   2.497 -0.0835  0.1543 -0.1458
 3149SOL    HW1 9875   1.110   2.773   2.531  1.3155  0.9536 -1.4607
 3149SOL    HW2 9876   1.221   2.678   2.491 -0.1586 -1.4926 -0.0066
 3150SOL     OW 9877   2.206   4.695   1.417  0.5025 -0.1781 -0.1000
 3150SOL    HW1 9878   2.279   4.634   1.427  0.9044  0.4247  0.7337
 3150SOL    HW2 9879   2.142   4.668   1.482  0.6744  0.2647  0.2607
 3151SOL     OW 9880   1.964   0.272   1.196  0.2985 -0.1031  0.1666
 3151SOL    HW1 9881   1.922   0.270   1.283  0.8238  0.1023  0.4267
 3151SOL    HW2 9882   1.923   0.347   1.152  0.0317 -0.2074  0.2319
 3152SOL     OW 9883   1.517   3.641   3.779 -0.2981 -0.3197  0.1762
 3152SOL    HW1 9884   1.499   3.718   3.835  1.1544 -1.2690  2.0678
 3152SOL    HW2 9885   1.447   3.580   3.800 -0.5561 -0.1231 -0.1152
 3153SOL     OW 9886   4.873   1.284   3.090  0.1379  0.6223  0.4023
 3153SOL    HW1 9887   4.958   1.308   3.054  0.0927 -0.2037 -0.2604
 3153SOL    HW2 9888   4.809   1.312   3.024 -0.0500  0.4854  0.5241
 3154SOL     OW 9889   2.147   6.041   5.636 -0.3051 -0.3020 -0.0710
 3154SOL    HW1 9890   2.131   6.006   5.723 -0.8567  0.5588  0.1910
 3154SOL    HW2 9891   2.229   6.091   5.645 -0.2771 -0.3460 -0.0833
 3155SOL     OW 9892   4.157   0.428   5.302 -0.2120 -0.4300  0.2670
 3155SOL    HW1 9893   4.155   0.335   5.278  1.5344 -0.0911 -1.4480
 3155SOL    HW2 9894   4.247   0.443   5.332 -0.5232  0.6839  0.6959
 3156SOL     OW 9895   1.747   0.460   2.858 -0.3447  0.1055 -0.3858
 3156SOL    HW1 9896   1.683   0.501   2.800  2.0917 -0.1895 -3.6126
 3156SOL    HW2 9897   1.764   0.374   2.818  1.0793 -0.3703  1.1214
 3157SOL     OW 9898   1.988   2.498   3.926  0.3245  0.6448 -0.3706
 3157SOL    HW1 9899   1.931   2.535   3.859  1.2537  1.5038 -0.7129
 3157SOL    HW2 9900   1.946   2.521   4.009 -1.4289 -1.4014 -0.6243
 3158SOL     OW 9901   2.699   0.974   1.009  0.1954  0.2924  0.1566
 3158SOL    HW1 9902   2.607   0.956   1.028  0.2673  0.0693  0.3054
 3158SOL    HW2 9903   2.714   0.931   0.924  0.0283  0.7766 -0.1197
 3159SOL     OW 9904   5.421   2.111   5.009 -0.4084 -0.1021  0.0216
 3159SOL    HW1 9905   5.357   2.064   4.955  2.3398 -0.2098 -3.4376
 3159SOL    HW2 9906   5.463   2.042   5.061 -1.0778 -0.4362  0.1305
 3160SOL     OW 9907   0.728   5.001   3.693  0.0383  0.9988  0.6026
 3160SOL    HW1 9908   0.700   4.922   3.738  1.5071 -0.1804 -0.4429
 3160SOL    HW2 9909   0.648   5.050   3.678 -0.8966 -0.2312  1.3627
 3161SOL     OW 9910   1.148   0.739   0.647 -0.0164  0.6984  0.6230
 3161SOL    HW1 9911   1.200   0.702   0.576 -0.5741  1.3671 -0.1540
 3161SOL    HW2 9912   1.113   0.820   0.611 -0.0776  1.1950  1.7685
 3162SOL     OW 9913   0.074   2.784   3.855 -0.0412 -0.3249  0.0604
 3162SOL    HW1 9914   0.072   2.812   3.947 -1.0589 -1.0455  0.2761
 3162SOL    HW2 9915   0.032   2.698   3.855 -1.8411  0.4845 -1.3417
 3163SOL     OW 9916   0.399   3.674   1.214 -0.5272 -0.0961  0.3335
 3163SOL    HW1 9917   0.370   3.734   1.145  0.7769  0.6152  0.3708
 3163SOL    HW2 9918   0.381   3.722   1.295 -0.3311 -0.1445  0.4047
 3164SOL     OW 9919   3.834   4.881   1.344 -0.2060 -0.2644  0.0812
 3164SOL    HW1 9920   3.776   4.933   1.400 -1.3091 -0.7754 -0.5556
 3164SOL    HW2 9921   3.907   4.859   1.401  0.6686  2.5132  0.2001
 3165SOL     OW 9922   2.786   3.082   5.178 -0.5050 -0.5426  0.5441
 3165SOL    HW1 9923   2.837   3.031   5.116  1.3152 -0.5062  1.9496
 3165SOL    HW2 9924   2.734   3.141   5.123  1.5709 -0.0079 -0.9369
 3166SOL     OW 9925   1.228   3.122   0.646  0.5499  0.1884 -0.7557
 3166SOL    HW1 9926   1.217   3.206   0.602  0.6622  0.1908 -0.7793
 3166SOL    HW2 9927   1.140   3.100   0.676  0.5322  0.3464 -0.6907
 3167SOL     OW 9928   5.762   5.337   4.212 -0.3239 -0.0679 -0.0790
 3167SOL    HW1 9929   5.777   5.244   4.226 -0.3183  0.1163  1.3006
 3167SOL    HW2 9930   5.836   5.380   4.256 -0.2083  0.5854 -0.8860
 3168SOL     OW 9931   4.288   2.412   6.054 -0.8143 -0.1703 -0.9480
 3168SOL    HW1 9932   4.228   2.458   6.112  0.5398 -0.1064  0.4570
 3168SOL    HW2 9933   4.310   2.331   6.101  1.0145  0.3014 -0.9005
 3169SOL     OW 9934   0.658   1.282   6.079  0.0134 -0.1037 -0.4737
 3169SOL    HW1 9935   0.596   1.210   6.073 -0.6795  0.3753  0.4871
 3169SOL    HW2 9936   0.732   1.256   6.025 -0.6910 -1.0425 -1.0042
 3170SOL     OW 9937   3.154   1.063   4.334  0.0155  0.2988 -0.9271
 3170SOL    HW1 9938   3.127   1.060   4.243 -0.5871 -0.3596 -0.7457
 3170SOL    HW2 9939   3.084   1.112   4.378  0.5729  1.0789 -0.9008
 3171SOL     OW 9940   0.735   5.225   0.566  0.2765 -0.6239  0.6574
 3171SOL    HW1 9941   0.823   5.214   0.532 -0.0942 -0.5399 -0.3769
 3171SOL    HW2 9942   0.685   5.154   0.527 -0.2731 -0.2302  0.6218
 3172SOL     OW 9943   3.957   5.541   3.627  0.6095 -0.1083 -0.3832
 3172SOL    HW1 9944   3.907   5.493   3.561  0.8255 -1.0266  0.0965
 3172SOL    HW2 9945   3.947   5.633   3.603  0.0581 -0.3802 -1.2464
 3173SOL     OW 9946   3.196   0.046   4.406  0.0186  0.1454 -0.2792
 3173SOL    HW1 9947   3.246   0.083   4.334  1.1905 -2.3120 -0.8292
 3173SOL    HW2 9948   3.261   0.001   4.460 -0.9312  1.2868  1.9414
 3174SOL     OW 9949   5.934   0.798   5.520 -0.3177  0.2926 -0.2830
 3174SOL    HW1 9950   5.953   0.792   5.427  1.6186  1.1446  0.0214
 3174SOL    HW2 9951   5.986   0.728   5.560 -1.9105 -0.7268  0.0928
 3175SOL     OW 9952   5.252   6.033   1.198 -0.3813 -0.1814 -0.0590
 3175SOL    HW1 9953   5.252   6.105   1.261 -0.5707  0.8002 -1.1446
 3175SOL    HW2 9954   5.324   5.976   1.226 -1.7969 -0.9334  2.2929
 3176SOL     OW 9955   0.823   0.127   5.730  0.4226  0.0484 -0.4449
 3176SOL    HW1 9956   0.760   0.154   5.663 -0.1631  1.2886  0.5543
 3176SOL    HW2 9957   0.884   0.201   5.737  0.2833  0.0829  0.5921
 3177SOL     OW 9958   2.631   0.966   3.468  0.1739  0.0611  0.1275
 3177SOL    HW1 9959   2.651   1.049   3.423 -1.1703 -1.0727 -2.8169
 3177SOL    HW2 9960   2.557   0.986   3.524 -0.3791  0.8138 -0.8402
 3178SOL     OW 9961   5.634   6.236   4.915  0.5879 -0.3940  0.2609
 3178SOL    HW1 9962   5.670   6.181   4.846  0.9598 -0.0477  0.1742
 3178SOL    HW2 9963   5.621   6.321   4.872 -1.5806 -0.8377 -0.0965
 3179SOL     OW 9964   3.729   5.731   1.627  0.9250 -0.1354 -0.1333
 3179SOL    HW1 9965   3.736   5.710   1.720  2.7551  0.4079 -0.1096
 3179SOL    HW2 9966   3.660   5.674   1.595  0.3565 -0.4454  1.5203
 3180SOL     OW 9967   0.224   1.461   3.605 -0.0558  0.3866  0.0995
 3180SOL    HW1 9968   0.223   1.457   3.510 -0.8862  0.0365  0.1110
 3180SOL    HW2 9969   0.132   1.452   3.630  0.0205  1.5208  0.8934
 3181SOL     OW 9970   1.247   3.764   5.989 -0.4923 -0.0145 -0.6912
 3181SOL    HW1 9971   1.343   3.762   5.994 -0.4097  1.7852 -0.7643
 3181SOL    HW2 9972   1.219   3.797   6.074 -1.0130 -0.0833 -0.8325
 3182SOL     OW 9973   5.876   4.978   2.914  0.2036  0.5415 -0.0523
 3182SOL    HW1 9974   5.786   5.008   2.924  0.0850  0.2498 -0.2334
 3182SOL    HW2 9975   5.878   4.893   2.959  0.2531  0.3045 -0.4973
 3183SOL     OW 9976   5.992   5.680   0.060 -0.6021  0.4032  0.6419
 3183SOL    HW1 9977   6.059   5.738   0.023  0.2039 -0.2901  0.9722
 3183SOL    HW2 9978   6.025   5.592   0.044 -1.6715  0.0432  0.4127
 3184SOL     OW 9979   1.127   3.224   4.561 -0.1440  0.0706 -0.0458
 3184SOL    HW1 9980   1.049   3.213   4.616  0.2551 -2.0516  0.1907
 3184SOL    HW2 9981   1.200   3.220   4.622  0.2235  0.0133 -0.4826
 3185SOL     OW 9982   5.837   4.760   3.128 -0.3369  0.2163 -0.0512
 3185SOL    HW1 9983   5.839   4.674   3.171 -0.6896  0.0466 -0.3657
 3185SOL    HW2 9984   5.780   4.813   3.184  1.4678  0.8769  1.2649
 3186SOL     OW 9985   5.300   2.608   5.639 -0.0308 -0.0140  0.5055
 3186SOL    HW1 9986   5.369   2.543   5.644  0.0492  0.1114  1.1162
 3186SOL    HW2 9987   5.315   2.653   5.556  1.2536  0.7084  1.0906
 3187SOL     OW 9988   0.189   0.898   0.427  0.4191 -0.0482 -0.0346
 3187SOL    HW1 9989   0.270   0.911   0.378  0.6733  0.5375  0.5206
 3187SOL    HW2 9990   0.217   0.849   0.505  0.2554  0.2539  0.2117
 3188SOL     OW 9991   4.488   4.649   3.405  0.2733 -0.8319  0.2914
 3188SOL    HW1 9992   4.432   4.698   3.346 -0.9067  0.0367  2.0601
 3188SOL    HW2 9993   4.568   4.701   3.412 -0.3541  0.0665  0.9407
 3189SOL     OW 9994   0.864   0.199   1.673 -0.0383  0.4521 -0.8263
 3189SOL    HW1 9995   0.853   0.107   1.651  1.7208  0.2839 -1.1448
 3189SOL    HW2 9996   0.775   0.234   1.675 -0.7612 -1.3159 -0.3445
 3190SOL     OW 9997   1.080   2.244   1.131  0.0913 -0.2235  0.1156
 3190SOL    HW1 9998   1.087   2.188   1.054 -0.3701 -0.9783  0.6122
 3190SOL    HW2 9999   0.990   2.276   1.129  0.0588 -0.3018  0.3851
 3191SOL     OW10000   5.269   4.464   2.285  0.4084 -0.0545  0.2998
 3191SOL    HW110001   5.196   4.526   2.280  0.1470 -0.3284  0.7037
 3191SOL    HW210002   5.271   4.437   2.376  0.6926 -0.4426  0.1792
 3192SOL     OW10003   4.043   1.191   2.770 -0.3913  0.0563  0.3487
 3192SOL    HW110004   4.098   1.205   2.847  1.4795  0.8921 -1.0711
 3192SOL    HW210005   4.090   1.126   2.718  0.7221  2.5947 -2.1037
 3193SOL     OW10006   0.304   3.878   1.416  1.1483 -0.6173 -0.7915
 3193SOL    HW110007   0.354   3.842   1.489 -0.7423 -0.5913  0.5943
 3193SOL    HW210008   0.281   3.967   1.444 -1.4816 -1.3615 -0.3892
 3194SOL     OW10009   0.846   3.445   4.327 -0.0799 -0.0800 -0.3771
 3194SOL    HW110010   0.924   3.442   4.382  0.1406  2.6802 -0.4021
 3194SOL    HW210011   0.779   3.397   4.376  0.8197  0.1019  1.0689
 3195SOL     OW10012   1.681   6.226   2.933 -0.4381  0.2479 -0.0093
 3195SOL    HW110013   1.624   6.164   2.977  2.3003 -1.1335  1.9226
 3195SOL    HW210014   1.699   6.293   2.999  2.0285 -0.6763  0.3494
 3196SOL     OW10015   1.126   5.659   4.387 -0.1232 -0.1656 -0.3280
 3196SOL    HW110016   1.079   5.584   4.353 -0.0966 -0.5366  0.4442
 3196SOL    HW210017   1.203   5.622   4.430  1.2465  0.4632 -2.1248
 3197SOL     OW10018   2.999   4.375   4.104  0.0665  0.0627 -0.0507
 3197SOL    HW110019   3.094   4.364   4.100  0.1077  0.3499  0.1274
 3197SOL    HW210020   2.986   4.455   4.154 -0.2656  0.1223 -0.2302
 3198SOL     OW10021   3.392   6.122   4.526  0.0501 -0.6318 -0.4160
 3198SOL    HW110022   3.486   6.136   4.514  0.0609 -0.3134  0.0313
 3198SOL    HW210023   3.368   6.062   4.455  0.1396  1.0944 -1.9837
 3199SOL     OW10024   0.859   5.903   5.065 -0.3008 -0.2166  0.9034
 3199SOL    HW110025   0.804   5.919   4.989 -0.8576 -0.2537  1.2958
 3199SOL    HW210026   0.800   5.910   5.140  0.4050  0.6827  1.3988
 3200SOL     OW10027   4.898   2.773   3.349  0.1485 -0.5815 -0.2627
 3200SOL    HW110028   4.814   2.777   3.304 -0.2133 -1.2319  0.3542
 3200SOL    HW210029   4.883   2.817   3.433  0.1539 -1.5402  0.2573
 3201SOL     OW10030   4.126   5.551   5.360  0.3384 -0.0291  0.1359
 3201SOL    HW110031   4.148   5.618   5.295  0.4911 -1.3097 -1.1798
 3201SOL    HW210032   4.124   5.469   5.311  1.5587 -1.2333  1.9548
 3202SOL     OW10033   3.026   0.086   1.087 -0.1168 -0.0448  0.6026
 3202SOL    HW110034   2.952   0.131   1.047  0.3992  1.4492  1.2501
 3202SOL    HW210035   3.039   0.130   1.171  0.4622 -1.3935  1.2598
 3203SOL     OW10036   2.767   3.350   2.392  0.3133 -0.2551  0.2713
 3203SOL    HW110037   2.734   3.260   2.392  1.7510 -0.8320  1.5170
 3203SOL    HW210038   2.753   3.380   2.482 -1.5320  1.3529 -0.4867
 3204SOL     OW10039   5.699   1.203   5.893 -0.3876  0.0055 -0.4644
 3204SOL    HW110040   5.768   1.170   5.951  1.4679  1.0089 -1.9686
 3204SOL    HW210041   5.687   1.134   5.828 -1.0799 -0.3139 -0.0062
 3205SOL     OW10042   5.979   2.542   3.036 -0.3606 -0.5254 -0.1409
 3205SOL    HW110043   5.911   2.495   2.988 -0.7646 -0.9893  0.8543
 3205SOL    HW210044   6.056   2.536   2.980 -1.0367 -0.3277 -1.1084
 3206SOL     OW10045   3.049   2.384   4.042 -0.3821  0.5103 -0.4705
 3206SOL    HW110046   3.117   2.448   4.064 -0.6333  0.1849  1.4618
 3206SOL    HW210047   3.057   2.371   3.948  1.4401  1.3786 -0.4706
 3207SOL     OW10048   5.975   0.521   1.029 -0.0149  0.0771 -0.3034
 3207SOL    HW110049   5.990   0.587   1.097 -0.2197 -0.7582  0.5840
 3207SOL    HW210050   5.917   0.563   0.967  2.1455  1.7417 -1.3240
 3208SOL     OW10051   1.199   0.011   1.608  0.0398  0.3298  0.0670
 3208SOL    HW110052   1.115  -0.020   1.642 -0.3753  1.5662  0.2206
 3208SOL    HW210053   1.256   0.014   1.685  0.1387 -0.2043  0.0190
 3209SOL     OW10054   0.154   3.326   6.168  0.0389  0.3003  0.7002
 3209SOL    HW110055   0.225   3.352   6.227 -0.0516 -0.7709  1.3193
 3209SOL    HW210056   0.145   3.232   6.183 -0.7889  0.2321 -0.1688
 3210SOL     OW10057   5.361   0.478   0.515  0.2783  0.0515 -0.4092
 3210SOL    HW110058   5.284   0.429   0.487  0.5555 -0.6811  0.0785
 3210SOL    HW210059   5.404   0.504   0.433  0.0260 -0.3676 -0.6795
 3211SOL     OW10060   3.028   0.775   4.630 -0.4035  0.1193 -0.0373
 3211SOL    HW110061   3.078   0.715   4.685  1.2593 -2.4844 -3.8756
 3211SOL    HW210062   3.085   0.851   4.619 -0.3173  0.2053  0.9258
 3212SOL     OW10063   0.900   3.788   3.362 -0.1562 -0.2405  0.4275
 3212SOL    HW110064   0.983   3.804   3.407 -0.3997 -0.3755  0.9290
 3212SOL    HW210065   0.834   3.797   3.431 -0.4575 -1.4505  0.3096
 3213SOL     OW10066   0.686   3.490   4.964  0.8277  0.2129  0.2883
 3213SOL    HW110067   0.770   3.475   4.921  0.7227 -1.2193  0.5112
 3213SOL    HW210068   0.692   3.438   5.044  1.3195  3.3564  2.4962
 3214SOL     OW10069   2.318   5.337   0.503 -0.3437 -0.2538 -0.0530
 3214SOL    HW110070   2.252   5.401   0.530 -0.8880 -0.5473 -0.6676
 3214SOL    HW210071   2.310   5.333   0.408  1.8121  1.0694 -0.3455
 3215SOL     OW10072   0.632   5.151   0.130 -0.0895  0.1401  0.3089
 3215SOL    HW110073   0.609   5.172   0.039  0.0763  0.9918  0.4634
 3215SOL    HW210074   0.612   5.057   0.137  0.2998 -0.0425 -0.7274
 3216SOL     OW10075   4.066   6.032   6.044 -0.0267 -0.0039  0.0202
 3216SOL    HW110076   4.124   6.060   6.115 -1.2460  0.7690  0.7383
 3216SOL    HW210077   4.103   5.948   6.015  0.1046 -0.7005  2.0580
 3217SOL     OW10078   1.121   6.219   2.241 -0.7650  0.3652 -0.0449
 3217SOL    HW110079   1.168   6.156   2.187 -0.5313 -0.1258  0.7255
 3217SOL    HW210080   1.053   6.168   2.285 -1.2070  0.8362 -0.1665
 3218SOL     OW10081   4.638   1.912   3.672  0.0047  0.5072  0.3589
 3218SOL    HW110082   4.646   1.976   3.743  1.7440 -0.0351  0.6947
 3218SOL    HW210083   4.688   1.836   3.702 -1.0917 -0.6045 -0.5116
 3219SOL     OW10084   5.592   0.462   5.001  0.2631 -0.1135 -0.3119
 3219SOL    HW110085   5.658   0.528   5.022 -0.8685  0.3222  2.3345
 3219SOL    HW210086   5.587   0.407   5.080 -0.6327 -1.8084 -1.4832
 3220SOL     OW10087   5.869   4.019   4.454  0.1834  0.0583 -0.3422
 3220SOL    HW110088   5.902   3.979   4.373 -0.4701  0.2636 -0.7121
 3220SOL    HW210089   5.919   4.100   4.462  0.6572 -0.2380 -0.2279
 3221SOL     OW10090   0.144   4.287   3.400 -0.1452  0.3303  0.1393
 3221SOL    HW110091   0.195   4.368   3.393 -0.8184  0.9936  2.3175
 3221SOL    HW210092   0.136   4.257   3.309  1.8278  1.6093 -0.5280
 3222SOL     OW10093   2.020   4.087   1.974 -0.7020  0.4033  0.2070
 3222SOL    HW110094   2.108   4.108   2.003 -1.0944  0.5750  1.3291
 3222SOL    HW210095   1.979   4.172   1.956 -0.9174  0.3815  0.5743
 3223SOL     OW10096   0.842   0.022   4.386  0.2692  0.4595 -0.5536
 3223SOL    HW110097   0.860   0.031   4.292  0.3214 -1.3327 -0.7425
 3223SOL    HW210098   0.867  -0.068   4.407 -1.8021  0.1141  0.7070
 3224SOL     OW10099   3.650   1.266   4.132  0.6652 -0.2037 -0.6303
 3224SOL    HW110100   3.646   1.293   4.040  0.5344  0.8290 -0.3397
 3224SOL    HW210101   3.739   1.290   4.160  0.0127  1.6265  0.1007
 3225SOL     OW10102   2.641   1.166   6.004 -0.5308  0.2434  0.2297
 3225SOL    HW110103   2.621   1.158   5.911 -0.5724  1.9710  0.0752
 3225SOL    HW210104   2.734   1.186   6.008 -1.1000  3.2617  0.3423
 3226SOL     OW10105   1.298   2.639   5.402  0.0943  0.6210  0.1637
 3226SOL    HW110106   1.321   2.570   5.465  1.7012  1.4239  0.4971
 3226SOL    HW210107   1.268   2.592   5.325 -1.2773 -0.4070  1.2647
 3227SOL     OW10108   5.932   1.778   0.999  0.0987 -0.0876 -0.1565
 3227SOL    HW110109   5.938   1.871   0.977  0.8071 -0.0215  0.2770
 3227SOL    HW210110   6.022   1.746   0.993 -0.1957 -0.8421 -0.6937
 3228SOL     OW10111   3.565   0.412   1.259  0.0037 -0.0119 -0.5621
 3228SOL    HW110112   3.471   0.404   1.277  0.1011  0.4238  0.1724
 3228SOL    HW210113   3.608   0.379   1.338  0.5217 -1.8899 -1.5498
 3229SOL     OW10114   4.225   6.134   0.044  0.4686  0.2841 -0.1781
 3229SOL    HW110115   4.317   6.128   0.071  0.8812  2.4241 -0.9072
 3229SOL    HW210116   4.184   6.188   0.111 -0.6035 -1.7056  0.8329
 3230SOL     OW10117   1.433   4.654   0.782 -0.0684 -0.1780  0.4752
 3230SOL    HW110118   1.508   4.595   0.786 -0.3018 -0.4867  0.3529
 3230SOL    HW210119   1.409   4.667   0.874  0.5353  0.4471  0.5532
 3231SOL     OW10120   2.213   0.599   4.499 -0.3228 -0.4796 -0.6452
 3231SOL    HW110121   2.259   0.535   4.445  0.6419 -0.2962 -0.0494
 3231SOL    HW210122   2.282   0.644   4.548 -1.1377 -0.2877  0.3598
 3232SOL     OW10123   4.237   2.281   2.982  0.1101  0.6403  0.2904
 3232SOL    HW110124   4.161   2.339   2.975  0.6913  1.3919  0.0003
 3232SOL    HW210125   4.236   2.251   3.073 -0.6296  0.4969  0.2418
 3233SOL     OW10126   0.665   2.554   4.565 -0.7656  0.2641  0.1196
 3233SOL    HW110127   0.676   2.487   4.498  0.4808 -0.1872  0.7452
 3233SOL    HW210128   0.747   2.603   4.564 -0.2370 -0.4457  2.0108
 3234SOL     OW10129   4.618   2.331   2.548 -0.1260 -0.4655  0.0783
 3234SOL    HW110130   4.682   2.402   2.554  0.5132 -1.0823  0.6505
 3234SOL    HW210131   4.632   2.279   2.627  1.5734 -3.0658 -1.8042
 3235SOL     OW10132   3.468   5.125   3.095 -0.2075 -0.2777  0.4960
 3235SOL    HW110133   3.449   5.128   3.188 -2.1269  0.3500  0.1119
 3235SOL    HW210134   3.521   5.046   3.084 -0.0084 -0.3941  2.0798
 3236SOL     OW10135   2.686   0.621   1.575  0.7061  0.0006  0.4461
 3236SOL    HW110136   2.775   0.645   1.598  1.7318 -0.7407 -2.3226
 3236SOL    HW210137   2.638   0.704   1.574  1.6606  0.5738  0.7570
 3237SOL     OW10138   4.226   2.562   5.032 -0.6480  0.2564  0.2950
 3237SOL    HW110139   4.258   2.542   5.119  0.2536  0.7866  0.0946
 3237SOL    HW210140   4.303   2.591   4.983 -1.1481  0.0492 -0.6551
 3238SOL     OW10141   1.897   3.307   5.717  0.0670 -0.1015 -0.3538
 3238SOL    HW110142   1.877   3.240   5.783 -0.0846 -0.4561 -0.7576
 3238SOL    HW210143   1.813   3.327   5.677  0.1111  0.3371 -0.2331
 3239SOL     OW10144   1.013   3.537   2.533  0.0528  0.3743  0.1959
 3239SOL    HW110145   1.096   3.498   2.560  0.9822  1.0570 -1.5378
 3239SOL    HW210146   1.029   3.631   2.533 -0.7443  0.5220 -0.1004
 3240SOL     OW10147   1.703   0.213   2.700 -0.0185  0.7031 -0.2045
 3240SOL    HW110148   1.692   0.124   2.733  1.8186 -0.1666 -1.7421
 3240SOL    HW210149   1.618   0.236   2.664  0.1734 -1.6550 -2.4677
 3241SOL     OW10150   4.225   0.566   2.466 -0.2522  0.4580  0.1766
 3241SOL    HW110151   4.250   0.631   2.401  3.2861 -1.0526 -0.2048
 3241SOL    HW210152   4.181   0.497   2.415  2.3910 -0.6627 -0.7452
 3242SOL     OW10153   2.570   5.501   2.274  0.2480  0.1499  0.0293
 3242SOL    HW110154   2.515   5.424   2.290  1.8544 -1.3677 -1.2102
 3242SOL    HW210155   2.516   5.559   2.221  0.0266 -1.6592 -1.8644
 3243SOL     OW10156   3.640   2.281   4.816 -0.3928 -0.1602 -0.0591
 3243SOL    HW110157   3.634   2.251   4.726  0.4439  0.0028 -0.1803
 3243SOL    HW210158   3.701   2.219   4.858  0.3196  0.5765  0.0212
 3244SOL     OW10159   3.468   2.131   5.515 -0.0184  0.0445 -0.8077
 3244SOL    HW110160   3.547   2.084   5.489  1.0934  1.5076 -0.2602
 3244SOL    HW210161   3.443   2.093   5.599  1.8283  1.4342  0.4526
 3245SOL     OW10162   4.079   1.594   3.127 -0.3210 -0.1613  0.7674
 3245SOL    HW110163   4.081   1.557   3.215  1.4758 -0.6971  0.5389
 3245SOL    HW210164   4.051   1.522   3.071  0.8495 -0.5159  0.6208
 3246SOL     OW10165   1.368   3.256   3.682 -0.1191 -0.3704 -0.5232
 3246SOL    HW110166   1.352   3.337   3.729  0.4512 -0.7839  0.4016
 3246SOL    HW210167   1.301   3.196   3.716 -0.8001 -0.1897 -1.4959
 3247SOL     OW10168   2.507   0.227   4.928  0.1360 -0.0937  0.5589
 3247SOL    HW110169   2.473   0.273   4.851  1.7124 -0.0389 -0.1352
 3247SOL    HW210170   2.513   0.135   4.900  1.3642  0.0358  0.3691
 3248SOL     OW10171   2.609   1.128   1.421  0.0007  0.3808  0.1249
 3248SOL    HW110172   2.517   1.108   1.401 -0.0006 -0.1586  0.6518
 3248SOL    HW210173   2.637   1.058   1.480  0.3131  1.3384  1.1534
 3249SOL     OW10174   2.487   2.520   5.009 -0.3112 -0.0000  0.2012
 3249SOL    HW110175   2.515   2.595   4.957 -1.8800  0.2932 -0.2657
 3249SOL    HW210176   2.511   2.444   4.956  0.2752  0.2044  0.1664
 3250SOL     OW10177   6.089   5.974   5.327 -0.4239 -0.4527 -0.1059
 3250SOL    HW110178   6.027   5.906   5.354 -1.0839  0.3161  0.4024
 3250SOL    HW210179   6.151   5.981   5.400 -0.9472  0.1539  0.3010
 3251SOL     OW10180   3.152   5.105   5.049 -0.7977  1.0889  0.2947
 3251SOL    HW110181   3.186   5.192   5.029  0.3463  0.3688 -1.1097
 3251SOL    HW210182   3.067   5.102   5.007 -0.9880  1.6259  0.6271
 3252SOL     OW10183   2.718   2.904   1.530 -0.0540 -0.2995 -0.0669
 3252SOL    HW110184   2.646   2.965   1.515 -1.8010 -2.4777 -1.2624
 3252SOL    HW210185   2.743   2.918   1.621 -1.4398  1.0802  0.1442
 3253SOL     OW10186   4.536   4.056   1.410 -0.0774 -0.4640  0.1557
 3253SOL    HW110187   4.490   4.084   1.489  0.1648  2.5478 -0.6234
 3253SOL    HW210188   4.629   4.065   1.432 -0.0079  0.6746 -0.4793
 3254SOL     OW10189   6.012   3.386   3.211 -0.2477 -0.2261 -0.0484
 3254SOL    HW110190   6.046   3.308   3.254 -1.7144 -0.0897  1.4608
 3254SOL    HW210191   6.042   3.458   3.267  0.0386  0.2013 -0.7389
 3255SOL     OW10192   5.273   0.002   4.322 -0.4319 -0.5386  0.2624
 3255SOL    HW110193   5.224  -0.053   4.383 -0.3745 -2.2164 -1.1189
 3255SOL    HW210194   5.354  -0.047   4.306  0.7850  1.1617  0.8521
 3256SOL     OW10195   1.701   0.979   0.167 -0.3194  0.2002 -0.3629
 3256SOL    HW110196   1.614   1.011   0.143 -0.8942 -0.9396  0.1167
 3256SOL    HW210197   1.706   0.891   0.129  0.7106  0.3320 -0.5631
 3257SOL     OW10198   5.529   2.375   4.047  0.0702 -0.1470  0.2230
 3257SOL    HW110199   5.578   2.363   4.128 -0.9838 -3.3680  0.5048
 3257SOL    HW210200   5.586   2.338   3.979 -0.1882  0.0610 -0.1127
 3258SOL     OW10201   0.566   1.867   2.959  0.4390 -0.3526  0.0233
 3258SOL    HW110202   0.574   1.936   3.025 -0.2747  0.5312 -0.7802
 3258SOL    HW210203   0.521   1.909   2.886 -1.7108 -2.1310  0.2123
 3259SOL     OW10204   3.527   0.284   3.995  0.3162 -0.0088 -0.5783
 3259SOL    HW110205   3.546   0.378   3.991 -0.2784  0.0905 -1.8446
 3259SOL    HW210206   3.438   0.279   4.030  0.4730 -0.1221 -0.1935
 3260SOL     OW10207   5.698   5.669   1.264 -0.3755 -0.1256  0.0542
 3260SOL    HW110208   5.643   5.592   1.274 -0.3066 -0.2096 -0.2121
 3260SOL    HW210209   5.724   5.668   1.172 -0.0956  0.0263  0.1315
 3261SOL     OW10210   5.366   1.747   4.676  0.2347  0.0052  0.1772
 3261SOL    HW110211   5.370   1.709   4.764  1.8105  1.4689  0.7933
 3261SOL    HW210212   5.423   1.823   4.681  0.5268 -0.0069 -2.2026
 3262SOL     OW10213   0.307   1.305   5.780  0.5386  0.0007 -0.6001
 3262SOL    HW110214   0.311   1.372   5.849  1.8705  1.2186 -1.7720
 3262SOL    HW210215   0.222   1.263   5.792  0.9578 -0.2631  2.1252
 3263SOL     OW10216   2.023   3.922   0.497 -0.3526 -0.2635  0.5399
 3263SOL    HW110217   2.025   3.948   0.590 -2.6846 -0.0001  0.5624
 3263SOL    HW210218   2.105   3.874   0.485  0.6019  0.7636  2.4104
 3264SOL     OW10219   3.845   1.945   2.149  0.1975  0.0755  0.1235
 3264SOL    HW110220   3.771   1.885   2.139  0.8338 -0.6196 -0.4434
 3264SOL    HW210221   3.807   2.032   2.134 -0.5605 -0.2440  0.1307
 3265SOL     OW10222   5.751   0.314   3.090 -0.0999 -0.4285 -0.2100
 3265SOL    HW110223   5.755   0.322   3.185  1.0915  0.3313 -0.2939
 3265SOL    HW210224   5.680   0.253   3.073 -2.5810  1.9150  1.0387
 3266SOL     OW10225   4.613   5.472   2.673 -0.3749  0.2607 -0.0436
 3266SOL    HW110226   4.656   5.524   2.741  1.9295 -0.7455 -0.6406
 3266SOL    HW210227   4.551   5.416   2.721  0.0457  0.7068  1.0496
 3267SOL     OW10228   4.583   3.613   2.198 -0.3852 -0.1674  0.6279
 3267SOL    HW110229   4.562   3.638   2.288 -1.5559  0.9141  0.0936
 3267SOL    HW210230   4.661   3.664   2.176 -1.9893  2.2156 -0.0086
 3268SOL     OW10231   4.503   2.717   4.422 -0.2380  0.2976  0.8884
 3268SOL    HW110232   4.582   2.677   4.386 -0.5685 -1.1922  1.7342
 3268SOL    HW210233   4.488   2.794   4.367  0.3486 -0.8095 -0.9119
 3269SOL     OW10234   0.504   3.938   3.281 -0.5120  0.5558  0.6999
 3269SOL    HW110235   0.571   3.984   3.332  0.2554  0.8890 -0.5658
 3269SOL    HW210236   0.547   3.858   3.252 -1.0686  0.1893  0.8619
 3270SOL     OW10237   5.195   4.628   1.452 -0.3406 -0.1111 -0.0418
 3270SOL    HW110238   5.248   4.633   1.531  0.4997 -1.9084 -0.4344
 3270SOL    HW210239   5.105   4.635   1.483 -0.0497 -1.1796  1.1439
 3271SOL     OW10240   3.097   4.270   4.473 -0.0285 -0.1104 -0.2167
 3271SOL    HW110241   3.174   4.314   4.509  0.3912 -0.6622 -0.4331
 3271SOL    HW210242   3.029   4.285   4.538  0.3324  0.1573  0.1036
 3272SOL     OW10243   5.845   2.609   4.882  0.0307 -0.3862 -0.3523
 3272SOL    HW110244   5.851   2.561   4.800 -0.0975  0.3080 -0.7815
 3272SOL    HW210245   5.878   2.549   4.948  1.2045 -0.5629 -1.0697
 3273SOL     OW10246   5.255   5.939   5.444  0.1798  0.2418 -0.5890
 3273SOL    HW110247   5.311   6.006   5.482  1.6746 -0.3922 -1.5866
 3273SOL    HW210248   5.207   5.984   5.375  1.1402  0.3342 -1.2202
 3274SOL     OW10249   1.378   4.085   2.699  0.0862  0.1044 -0.3210
 3274SOL    HW110250   1.373   4.073   2.794 -1.4363  1.2388 -0.2232
 3274SOL    HW210251   1.426   4.008   2.668 -0.3029 -0.8159  1.2519
 3275SOL     OW10252   5.617   5.967   2.755 -0.3864  0.5352  0.0989
 3275SOL    HW110253   5.670   5.925   2.687  0.8058 -1.5156  2.1343
 3275SOL    HW210254   5.655   6.054   2.766 -0.6711  0.9539 -1.8490
 3276SOL     OW10255   5.223   1.464   2.272  0.4462  0.2662  0.3510
 3276SOL    HW110256   5.294   1.475   2.335  2.2601 -0.4376 -1.4556
 3276SOL    HW210257   5.227   1.543   2.218  0.8088 -0.4168 -0.6410
 3277SOL     OW10258   4.709   6.163   1.521 -0.3010  0.7421  0.0367
 3277SOL    HW110259   4.754   6.174   1.605 -0.5924 -2.4760  0.7523
 3277SOL    HW210260   4.775   6.184   1.455  1.1845 -0.4007  1.0835
 3278SOL     OW10261   1.850   4.039   3.783  0.6695 -0.2665  0.0916
 3278SOL    HW110262   1.871   3.968   3.845 -0.1002 -1.2431 -0.7426
 3278SOL    HW210263   1.790   3.999   3.720 -0.9328  1.5136  0.4072
 3279SOL     OW10264   2.459   1.102   4.315  0.3205 -0.0354  0.0145
 3279SOL    HW110265   2.480   1.109   4.408 -0.7735  2.1204  0.1777
 3279SOL    HW210266   2.529   1.150   4.271 -0.3168  0.8548 -0.0580
 3280SOL     OW10267   0.241   2.970   1.246  0.1388 -0.9292 -0.0459
 3280SOL    HW110268   0.193   3.042   1.287 -0.1117  0.2488 -2.2687
 3280SOL    HW210269   0.333   2.990   1.262  0.0527 -1.8175  1.9691
 3281SOL     OW10270   4.994   3.458   3.145 -0.3891 -0.9773  0.0819
 3281SOL    HW110271   4.912   3.413   3.126 -0.2837 -0.7761 -0.9554
 3281SOL    HW210272   5.049   3.392   3.187 -0.0942 -1.9768 -1.7720
 3282SOL     OW10273   6.157   3.377   5.220 -0.1459 -0.3668 -0.1171
 3282SOL    HW110274   6.240   3.336   5.244 -1.0118 -1.6580  0.8496
 3282SOL    HW210275   6.181   3.465   5.189  1.7426 -1.3843 -1.7643
 3283SOL     OW10276   1.061   2.255   6.029 -0.3330  0.4232 -0.3166
 3283SOL    HW110277   1.004   2.314   6.078  0.1965  0.0619  0.7546
 3283SOL    HW210278   1.050   2.170   6.071  0.5916  0.2383 -0.4228
 3284SOL     OW10279   4.971   4.156   6.148 -0.4103  0.1454 -0.0073
 3284SOL    HW110280   4.881   4.181   6.129 -0.5280 -0.0745  0.2566
 3284SOL    HW210281   4.967   4.061   6.161 -0.3058  0.2672  0.9581
 3285SOL     OW10282   1.698   1.015   5.300  0.1218 -0.1305 -0.0573
 3285SOL    HW110283   1.654   0.996   5.217 -0.8926 -0.1099  0.4558
 3285SOL    HW210284   1.779   0.964   5.298 -1.3495 -2.6483  0.2546
 3286SOL     OW10285   0.972   1.317   0.400 -0.1526  0.3445  0.9955
 3286SOL    HW110286   0.953   1.328   0.494  1.6874  1.2643  1.3088
 3286SOL    HW210287   0.960   1.405   0.363  1.2733  0.4952  0.8261
 3287SOL     OW10288   4.764   1.761   6.039  0.1455  0.8964  0.2268
 3287SOL    HW110289   4.703   1.688   6.028  1.5819 -0.3712  0.2411
 3287SOL    HW210290   4.722   1.818   6.103 -0.1310 -1.0235  1.8810
 3288SOL     OW10291   2.983   0.695   1.602 -0.2845  0.2529 -0.3557
 3288SOL    HW110292   2.965   0.676   1.694  0.9862 -0.2477 -0.1892
 3288SOL    HW210293   2.995   0.609   1.562 -0.2541  0.4919 -0.8681
 3289SOL     OW10294   2.201   4.837   2.011  0.7899  0.3927  0.3812
 3289SOL    HW110295   2.291   4.852   2.039  0.8179 -0.0917  0.5722
 3289SOL    HW210296   2.206   4.827   1.916  0.9639  0.1821  0.4128
 3290SOL     OW10297   6.050   5.613   1.150  0.0419 -0.7891 -0.1827
 3290SOL    HW110298   6.123   5.569   1.107 -0.0696 -0.8319 -0.3296
 3290SOL    HW210299   5.973   5.565   1.120  0.0478 -1.5892  0.9893
 3291SOL     OW10300   0.092   0.205   1.480  0.1384 -0.7536  0.0278
 3291SOL    HW110301  -0.003   0.209   1.468 -0.1514 -0.6110  1.9598
 3291SOL    HW210302   0.104   0.206   1.575  2.1298  0.7440 -0.1615
 3292SOL     OW10303   1.179   0.179   4.470 -0.0243  0.0276 -0.2698
 3292SOL    HW110304   1.274   0.173   4.482  0.0592  0.3561 -0.7441
 3292SOL    HW210305   1.148   0.220   4.550 -0.0850 -2.3830  1.0496
 3293SOL     OW10306   4.677   1.674   4.057  0.4295  0.0774  0.1343
 3293SOL    HW110307   4.746   1.724   4.101  0.6569 -0.9363  0.9777
 3293SOL    HW210308   4.595   1.715   4.087  0.6368  1.3729 -0.9825
 3294SOL     OW10309   1.367   3.759   1.706 -0.4187 -0.2867 -0.2195
 3294SOL    HW110310   1.387   3.722   1.620  0.6159 -1.2901  0.4299
 3294SOL    HW210311   1.296   3.821   1.689 -1.9926 -2.2866 -1.4296
 3295SOL     OW10312   4.159   2.992   5.095 -0.4642 -0.4462  0.1278
 3295SOL    HW110313   4.069   3.009   5.066 -0.3034  0.9088  0.3483
 3295SOL    HW210314   4.207   2.976   5.014 -0.3127  1.8716 -0.3222
 3296SOL     OW10315   4.017   3.223   6.022  0.0505  0.1313  0.0870
 3296SOL    HW110316   3.974   3.304   6.050  0.1736  0.3660 -0.3889
 3296SOL    HW210317   4.000   3.161   6.093  0.0300  0.5977  0.4942
 3297SOL     OW10318   4.744   1.852   3.402  0.5291 -0.0468  0.0182
 3297SOL    HW110319   4.822   1.800   3.420 -1.0856 -2.3097  1.0181
 3297SOL    HW210320   4.692   1.846   3.482 -1.2932  0.1735 -1.0952
 3298SOL     OW10321   0.144   3.775   5.178  0.4443  0.2472 -0.2388
 3298SOL    HW110322   0.140   3.858   5.225 -1.7109 -1.3008  2.6561
 3298SOL    HW210323   0.221   3.731   5.214  0.2355  0.0660 -0.0100
 3299SOL     OW10324   5.121   1.395   2.991  0.7507  0.2709 -0.3756
 3299SOL    HW110325   5.197   1.452   3.004  0.4603  0.3985  0.8976
 3299SOL    HW210326   5.160   1.310   2.970  1.1899  0.7774 -1.7792
 3300SOL     OW10327   4.486   3.006   0.551  0.2552 -0.1090  0.4620
 3300SOL    HW110328   4.414   3.032   0.609 -1.7299 -2.7337 -0.6005
 3300SOL    HW210329   4.495   2.912   0.567  2.5088 -0.1039 -0.5196
 3301SOL     OW10330   4.410   5.317   5.363  0.1907  0.4117  0.4074
 3301SOL    HW110331   4.500   5.344   5.380  0.5937 -0.7111  0.1726
 3301SOL    HW210332   4.407   5.224   5.388 -0.4117 -0.0506 -1.2097
 3302SOL     OW10333   0.917   4.282   6.152  0.3040 -0.1926 -0.1094
 3302SOL    HW110334   0.826   4.252   6.159  0.4456 -0.2750  1.8901
 3302SOL    HW210335   0.915   4.372   6.183  0.9698 -0.3344  0.3707
 3303SOL     OW10336   0.946   0.280   2.439  0.0391  0.1378  0.2628
 3303SOL    HW110337   1.025   0.333   2.429 -1.1700  1.6033 -2.6399
 3303SOL    HW210338   0.930   0.280   2.533  2.2943  1.6012  0.7410
 3304SOL     OW10339   3.029   2.345   4.459 -0.3186  0.3343  0.0933
 3304SOL    HW110340   3.109   2.395   4.444  0.7018 -0.7489  1.6429
 3304SOL    HW210341   3.041   2.264   4.411  0.2856 -0.5416  1.6667
 3305SOL     OW10342   4.624   2.667   0.255 -0.3183 -0.3850  0.1571
 3305SOL    HW110343   4.667   2.732   0.199  0.2486 -1.9420 -1.3375
 3305SOL    HW210344   4.690   2.599   0.267 -1.0357 -0.9011  1.2778
 3306SOL     OW10345   3.131   5.618   2.850  0.0146 -0.1983 -0.6359
 3306SOL    HW110346   3.209   5.670   2.831  0.9881 -1.1204  0.6455
 3306SOL    HW210347   3.059   5.680   2.845  1.1095  1.2515  0.6296
 3307SOL     OW10348   1.135   3.481   0.929 -0.4030 -0.3609 -0.0926
 3307SOL    HW110349   1.195   3.414   0.961  0.8608  0.9303  0.3028
 3307SOL    HW210350   1.133   3.547   0.998 -0.7892  0.5320 -0.9387
 3308SOL     OW10351   1.479   5.165   5.266 -0.2537 -0.3169 -0.3256
 3308SOL    HW110352   1.396   5.211   5.280  0.0398  0.1836 -0.1862
 3308SOL    HW210353   1.455   5.073   5.260 -0.7350 -0.2507  0.4811
 3309SOL     OW10354   3.892   2.973   2.757  0.2463 -0.7607  0.0857
 3309SOL    HW110355   3.859   2.960   2.668  0.0302 -0.9472  0.1902
 3309SOL    HW210356   3.905   2.884   2.790 -0.9468 -0.7325  0.7083
 3310SOL     OW10357   3.570   5.428   3.594  0.8997  0.0854 -0.6555
 3310SOL    HW110358   3.596   5.345   3.555 -0.1706  0.2963 -1.9107
 3310SOL    HW210359   3.609   5.495   3.537  0.6548  0.4169 -0.4378
 3311SOL     OW10360   5.368   2.622   4.461  0.0615 -0.0356 -0.1096
 3311SOL    HW110361   5.403   2.700   4.505  0.9420 -1.3568  1.6466
 3311SOL    HW210362   5.319   2.576   4.529 -0.0757 -1.2537 -0.9981
 3312SOL     OW10363   4.194   2.005   4.318 -0.7406 -0.3251 -0.3545
 3312SOL    HW110364   4.252   1.932   4.340 -0.8466 -0.3723 -0.2262
 3312SOL    HW210365   4.154   2.030   4.401 -1.1502 -0.5069 -0.4915
 3313SOL     OW10366   3.642   5.951   0.603  0.6855  0.6929  0.1144
 3313SOL    HW110367   3.650   5.967   0.509 -4.0190  0.8566 -0.5024
 3313SOL    HW210368   3.596   6.028   0.637 -1.8713 -1.2973  1.5176
 3314SOL     OW10369   1.513   2.784   2.281 -0.1459 -0.0957  0.1860
 3314SOL    HW110370   1.500   2.833   2.363 -0.6167 -0.9546  0.6453
 3314SOL    HW210371   1.509   2.692   2.308 -1.0675 -0.3917 -0.9215
 3315SOL     OW10372   0.669   3.186   5.107 -0.7281 -0.4590  0.1558
 3315SOL    HW110373   0.616   3.242   5.164  0.2444 -1.4469  2.1353
 3315SOL    HW210374   0.623   3.101   5.109  1.2949 -1.6270  2.7066
 3316SOL     OW10375   2.645   4.542   4.258  0.1478  0.0736  0.0012
 3316SOL    HW110376   2.732   4.528   4.297  0.2497  1.0357  0.1442
 3316SOL    HW210377   2.626   4.460   4.213  0.4884 -0.6981  1.1972
 3317SOL     OW10378   1.308   3.208   4.780 -0.0538 -0.2631 -0.0683
 3317SOL    HW110379   1.397   3.187   4.751 -0.3179 -0.5627 -0.6552
 3317SOL    HW210380   1.283   3.135   4.836 -0.9581 -1.5512 -2.0762
 3318SOL     OW10381   3.020   3.687   4.739 -0.2870  0.1946  0.0883
 3318SOL    HW110382   3.018   3.592   4.747 -0.2770  0.1866 -0.0009
 3318SOL    HW210383   3.069   3.703   4.658 -0.6353  0.2655 -0.1094
 3319SOL     OW10384   5.765   5.630   1.560 -0.1591  0.1034 -0.8182
 3319SOL    HW110385   5.846   5.579   1.554  0.4579  1.1474 -1.7001
 3319SOL    HW210386   5.739   5.644   1.469 -1.6199 -0.6383 -0.5396
 3320SOL     OW10387   2.316   3.786   0.009  0.4602  0.4217  0.0135
 3320SOL    HW110388   2.319   3.881   0.005  2.1313  0.4295  0.5433
 3320SOL    HW210389   2.396   3.757  -0.035 -0.6313 -0.8051 -1.2493
 3321SOL     OW10390   5.036   2.171   1.751 -0.0275 -0.2527 -0.1238
 3321SOL    HW110391   5.123   2.142   1.726  0.5130  1.2933 -0.1161
 3321SOL    HW210392   5.015   2.242   1.691 -0.3185  0.9189  1.3003
 3322SOL     OW10393   0.616   0.240   0.035  0.3561 -0.7685  0.4837
 3322SOL    HW110394   0.576   0.223  -0.050  2.6950 -0.3516 -0.7605
 3322SOL    HW210395   0.623   0.153   0.075 -1.3033 -0.9024  0.5643
 3323SOL     OW10396   0.579   2.259   0.187 -0.1227  0.3836 -0.3683
 3323SOL    HW110397   0.647   2.326   0.183  0.9294 -0.5099  1.3491
 3323SOL    HW210398   0.594   2.214   0.270 -2.2893 -0.4241 -0.3322
 3324SOL     OW10399   2.785   5.699   5.225 -0.2940 -0.3387 -0.4376
 3324SOL    HW110400   2.861   5.745   5.189 -2.0494  1.6113 -1.9142
 3324SOL    HW210401   2.753   5.757   5.294  0.2422 -1.7599  1.0493
 3325SOL     OW10402   2.162   0.685   2.226 -0.2589  0.2781  0.5044
 3325SOL    HW110403   2.166   0.602   2.177  0.2017  0.1984  0.6673
 3325SOL    HW210404   2.070   0.709   2.226 -0.3677 -0.1305  0.2762
 3326SOL     OW10405   2.396   2.050   2.518  0.0717  0.2990 -0.1796
 3326SOL    HW110406   2.386   1.977   2.579 -0.3623  1.5416  1.2889
 3326SOL    HW210407   2.479   2.090   2.542 -0.3250  1.0760 -0.0692
 3327SOL     OW10408   4.620   1.922   2.553 -0.0400 -0.1886 -0.1892
 3327SOL    HW110409   4.526   1.930   2.566 -0.1267 -0.4198 -0.6350
 3327SOL    HW210410   4.630   1.848   2.492  0.5462 -1.5922  1.4986
 3328SOL     OW10411   6.139   4.123   3.817  0.3709 -0.5152 -0.3987
 3328SOL    HW110412   6.214   4.064   3.822  0.2805 -0.6768 -0.9176
 3328SOL    HW210413   6.162   4.185   3.747  0.5077  0.1221  0.2042
 3329SOL     OW10414   3.036   2.812   2.214  0.3313 -0.4379 -0.2959
 3329SOL    HW110415   2.956   2.841   2.170 -0.1767 -2.5320 -0.8506
 3329SOL    HW210416   3.098   2.884   2.201 -1.8799  1.9852  1.5521
 3330SOL     OW10417   5.384   2.139   1.141  0.3199 -0.4039 -0.4967
 3330SOL    HW110418   5.371   2.064   1.199  1.7212 -1.2343 -1.2079
 3330SOL    HW210419   5.411   2.210   1.200  0.9112 -1.0055 -0.0210
 3331SOL     OW10420   3.904   5.360   6.054  0.2721 -0.0241  0.3799
 3331SOL    HW110421   3.980   5.345   6.111 -0.3724 -2.2947  0.7547
 3331SOL    HW210422   3.912   5.294   5.985  0.5202  2.0632 -1.6839
 3332SOL     OW10423   0.506   2.958   3.503 -0.0641 -0.4666  0.2836
 3332SOL    HW110424   0.466   3.031   3.552 -2.0943 -0.4379 -1.2689
 3332SOL    HW210425   0.492   2.882   3.559  0.6774  0.0601  1.2251
 3333SOL     OW10426   4.189   5.732   1.631  0.0369  0.2105 -0.1162
 3333SOL    HW110427   4.203   5.826   1.626 -0.4119  0.3140  0.5041
 3333SOL    HW210428   4.115   5.715   1.573 -0.4990  0.3809  0.5093
 3334SOL     OW10429   3.662   0.112   5.969  0.5693  0.0951 -0.6395
 3334SOL    HW110430   3.661   0.099   6.064 -0.9957 -0.6223 -0.7187
 3334SOL    HW210431   3.736   0.060   5.939 -0.0016 -1.1518  0.0324
 3335SOL     OW10432   1.024   1.437   3.750 -0.2203  0.0312  0.2675
 3335SOL    HW110433   0.965   1.461   3.821 -0.3323  0.4302  0.0453
 3335SOL    HW210434   1.074   1.517   3.732  1.0216 -0.5404  1.0481
 3336SOL     OW10435   1.148   3.904   1.728  0.0933  0.1985 -0.0714
 3336SOL    HW110436   1.073   3.931   1.779 -0.4534  1.0022 -1.2674
 3336SOL    HW210437   1.117   3.829   1.677  0.3949 -0.0732  0.1342
 3337SOL     OW10438   3.668   5.422   5.339 -0.1608  0.4260  0.2063
 3337SOL    HW110439   3.701   5.506   5.307 -0.0117  1.1564  2.1295
 3337SOL    HW210440   3.744   5.364   5.336 -0.3543  0.1900 -1.4937
 3338SOL     OW10441   3.109   2.012   3.140  0.5956 -0.3108  0.4257
 3338SOL    HW110442   3.166   2.034   3.213 -0.5297  2.1814  0.6728
 3338SOL    HW210443   3.030   1.976   3.181  0.6282 -0.5053  0.3191
 3339SOL     OW10444   0.939   5.465   1.985 -0.2318  0.0576  0.1103
 3339SOL    HW110445   0.947   5.509   2.070 -0.7696 -0.1820  0.2887
 3339SOL    HW210446   1.014   5.497   1.935 -0.9981  1.7524 -0.0292
 3340SOL     OW10447   5.992   2.823   4.300 -0.4361  0.4263  1.0770
 3340SOL    HW110448   5.950   2.874   4.231 -0.0435  0.7084  1.0373
 3340SOL    HW210449   5.925   2.813   4.368 -1.0030 -0.3400  0.4194
 3341SOL     OW10450   3.440   6.151   5.816 -0.1288  0.7427 -0.0272
 3341SOL    HW110451   3.494   6.223   5.784 -1.7963  2.5582  1.0405
 3341SOL    HW210452   3.499   6.100   5.872  0.7316  2.1299  0.3789
 3342SOL     OW10453   5.881   5.934   3.670  0.3297  0.3413 -0.1733
 3342SOL    HW110454   5.869   5.844   3.639  0.4404  0.4648 -0.5713
 3342SOL    HW210455   5.823   5.986   3.614  2.1143  0.8551 -1.6216
 3343SOL     OW10456   4.222   3.918   3.141 -1.5239 -1.0536  0.3126
 3343SOL    HW110457   4.272   3.868   3.077 -0.6031 -0.6392  0.7029
 3343SOL    HW210458   4.234   3.871   3.223 -1.5506 -0.7956  0.4655
 3344SOL     OW10459   4.274   4.230   3.579  0.5189  0.3072  0.8081
 3344SOL    HW110460   4.311   4.312   3.612  0.9516  0.0416  0.9952
 3344SOL    HW210461   4.309   4.222   3.491 -0.1701  0.7234  0.4867
 3345SOL     OW10462   2.020   1.148   4.481  0.0258 -0.7093 -0.2500
 3345SOL    HW110463   2.004   1.161   4.575 -0.5964  0.8284 -0.5388
 3345SOL    HW210464   1.973   1.220   4.439  2.1293 -0.0646 -1.6094
 3346SOL     OW10465   1.123   0.310   1.609  0.0509  0.2059  0.6216
 3346SOL    HW110466   1.161   0.247   1.670  1.1777 -0.6103 -0.8628
 3346SOL    HW210467   1.036   0.276   1.590 -0.1171  0.2014  1.3568
 3347SOL     OW10468   2.557   1.259   2.984  0.5781 -0.2058  0.1058
 3347SOL    HW110469   2.533   1.347   3.013  2.0925 -0.0146  0.8755
 3347SOL    HW210470   2.588   1.215   3.063 -0.4427 -1.5618 -0.2038
 3348SOL     OW10471   4.815   4.449   1.534  0.0386  0.1130  0.7451
 3348SOL    HW110472   4.772   4.449   1.449  1.2880 -2.1009  0.0157
 3348SOL    HW210473   4.871   4.527   1.534 -2.5382  2.0788  1.0368
 3349SOL     OW10474   3.756   5.687   1.906  0.4553  0.2212 -0.0213
 3349SOL    HW110475   3.789   5.734   1.983  1.7132 -0.3462 -0.1865
 3349SOL    HW210476   3.801   5.603   1.909 -0.8613 -0.5258 -0.3840
 3350SOL     OW10477   1.563   0.599   5.763  0.1514 -0.0160  0.4120
 3350SOL    HW110478   1.597   0.590   5.851  0.8696 -0.6762  0.0751
 3350SOL    HW210479   1.476   0.638   5.775 -1.0521 -2.7552  1.6533
 3351SOL     OW10480   5.027   6.163   3.564 -0.0839 -0.3599  0.3957
 3351SOL    HW110481   5.119   6.145   3.581 -0.1970 -0.6549  0.7116
 3351SOL    HW210482   5.016   6.149   3.470  0.3696  0.4833  0.2043
 3352SOL     OW10483   1.443   4.996   0.990  0.4137  0.0565  0.4254
 3352SOL    HW110484   1.478   5.040   0.913  1.1809  0.0036  0.7396
 3352SOL    HW210485   1.447   4.903   0.967  0.0441  0.0723  0.2856
 3353SOL     OW10486   5.564   3.233   1.397  0.2784 -0.2107  0.3836
 3353SOL    HW110487   5.593   3.143   1.383  0.5397 -0.2890  1.3212
 3353SOL    HW210488   5.495   3.247   1.332  0.1572 -1.1215  0.3015
 3354SOL     OW10489   0.970   5.924   1.251  0.1947 -0.2292  0.3561
 3354SOL    HW110490   0.921   5.843   1.234 -3.7376  1.7102  1.2491
 3354SOL    HW210491   1.008   5.947   1.167 -0.9623 -1.6052 -0.6029
 3355SOL     OW10492   4.068   1.060   0.177  0.5226  0.1237 -0.0990
 3355SOL    HW110493   4.120   1.103   0.110 -1.4991  1.1829 -1.0673
 3355SOL    HW210494   3.981   1.049   0.138 -0.0205 -1.6222  1.4174
 3356SOL     OW10495   0.232   6.198   0.465  0.2146  0.6509 -0.2338
 3356SOL    HW110496   0.188   6.265   0.414  1.5208  0.2293 -2.0045
 3356SOL    HW210497   0.288   6.247   0.526 -1.2795  1.1508  0.8073
 3357SOL     OW10498   1.130   5.471   3.402 -0.5816  0.4391 -0.1832
 3357SOL    HW110499   1.188   5.547   3.407 -0.6852  0.6176 -1.4818
 3357SOL    HW210500   1.063   5.495   3.338 -0.4428 -0.8480 -0.8491
 3358SOL     OW10501   1.180   4.525   4.037 -0.1679  0.1488 -0.4996
 3358SOL    HW110502   1.241   4.565   4.099  0.0801  1.0189 -1.2931
 3358SOL    HW210503   1.209   4.556   3.951 -0.7863 -0.6791 -1.0185
 3359SOL     OW10504   3.641   5.101   1.847  0.9263  0.0897 -0.9303
 3359SOL    HW110505   3.688   5.184   1.838  0.2747  1.1837  3.5949
 3359SOL    HW210506   3.707   5.034   1.827  2.6584  1.6326 -0.6556
 3360SOL     OW10507   5.335   0.408   1.792  0.0786 -0.4562 -0.2960
 3360SOL    HW110508   5.390   0.336   1.761  3.2542  1.7397 -0.1692
 3360SOL    HW210509   5.287   0.437   1.714  0.2432 -1.4284 -0.7728
 3361SOL     OW10510   4.391   0.467   5.619 -0.2240  0.1649 -0.1306
 3361SOL    HW110511   4.342   0.389   5.646 -0.8625  0.7911  0.5837
 3361SOL    HW210512   4.467   0.468   5.677  1.3760 -1.5065 -2.0806
 3362SOL     OW10513   3.317   1.457   3.190  0.2460  0.1006  0.5080
 3362SOL    HW110514   3.400   1.438   3.236  0.1143 -0.6446  0.4591
 3362SOL    HW210515   3.313   1.391   3.121  1.3675  2.3444 -1.8509
 3363SOL     OW10516   2.833   0.234   4.923  0.0116  0.2176 -0.3204
 3363SOL    HW110517   2.748   0.278   4.929 -0.2686 -0.1216 -1.5099
 3363SOL    HW210518   2.888   0.294   4.873 -0.3736 -0.7375 -1.9525
 3364SOL     OW10519   1.000   4.206   1.332  0.2799  0.3173 -0.3756
 3364SOL    HW110520   1.059   4.169   1.398  0.9796  1.8434 -0.0971
 3364SOL    HW210521   0.939   4.261   1.382 -0.9735 -0.6987 -0.7363
 3365SOL     OW10522   5.341   5.672   3.143  0.4174  0.0286 -0.0923
 3365SOL    HW110523   5.356   5.644   3.233 -1.1116  0.3982  0.3093
 3365SOL    HW210524   5.409   5.737   3.125  1.4055 -0.8530  0.4034
 3366SOL     OW10525   2.096   4.558   5.987 -0.1405  0.4961  0.3629
 3366SOL    HW110526   2.156   4.486   6.007  0.1182  0.6584  0.1626
 3366SOL    HW210527   2.139   4.636   6.022 -0.6101  0.5016  0.9524
 3367SOL     OW10528   0.144   5.209   5.552 -0.0551  0.1143 -0.0089
 3367SOL    HW110529   0.050   5.212   5.572  0.6073  2.8629  3.9482
 3367SOL    HW210530   0.157   5.278   5.487 -0.6457  0.7203  0.4963
 3368SOL     OW10531   0.474   3.482   2.295  0.0494 -0.0781 -0.3538
 3368SOL    HW110532   0.483   3.399   2.249  0.4569 -0.1763 -0.0992
 3368SOL    HW210533   0.384   3.481   2.328  0.2718 -0.7333  0.2476
 3369SOL     OW10534   4.091   5.367   5.144 -0.0824 -0.0038  0.0467
 3369SOL    HW110535   4.128   5.420   5.073 -1.0426  1.1157  0.3607
 3369SOL    HW210536   4.096   5.277   5.111 -1.5322  0.5679 -1.9491
 3370SOL     OW10537   5.523   5.438   3.896 -0.2134 -0.2963  0.3601
 3370SOL    HW110538   5.617   5.439   3.914 -0.1348  0.8641 -0.0617
 3370SOL    HW210539   5.500   5.530   3.879 -1.5164 -0.4793  0.9483
 3371SOL     OW10540   1.125   5.861   5.695 -0.0895 -0.2314 -0.0377
 3371SOL    HW110541   1.197   5.871   5.633 -0.8001 -1.7901 -1.1767
 3371SOL    HW210542   1.167   5.853   5.780  1.3870 -4.1834 -0.9583
 3372SOL     OW10543   5.881   5.758   5.505  0.2552 -0.2672 -0.5478
 3372SOL    HW110544   5.900   5.786   5.594  1.0229 -1.3236 -0.3548
 3372SOL    HW210545   5.787   5.774   5.494  0.2669  0.3834  0.2570
 3373SOL     OW10546   4.926   1.940   3.886  0.2056  0.0544  0.3095
 3373SOL    HW110547   5.001   1.900   3.930 -0.2767 -0.8256  0.3647
 3373SOL    HW210548   4.874   1.978   3.957  1.1192  1.6158  0.1796
 3374SOL     OW10549   5.466   0.427   1.482  0.5303  0.1399  0.5946
 3374SOL    HW110550   5.536   0.492   1.469  0.1957  0.3370 -0.3081
 3374SOL    HW210551   5.506   0.344   1.455  0.6201  0.1453  0.7103
 3375SOL     OW10552   3.136   5.346   0.467 -0.0337 -0.1967 -0.5682
 3375SOL    HW110553   3.169   5.275   0.412 -1.1191 -0.3179 -1.0803
 3375SOL    HW210554   3.107   5.413   0.404  0.0841  0.2932 -0.1109
 3376SOL     OW10555   2.908   5.347   5.811 -0.5685  0.1120 -0.2392
 3376SOL    HW110556   2.927   5.358   5.904 -2.0547  1.7311 -0.0626
 3376SOL    HW210557   2.868   5.430   5.785  0.6154  0.0402 -2.5624
 3377SOL     OW10558   0.482   0.862   3.310  0.3986  0.3453 -0.0337
 3377SOL    HW110559   0.547   0.918   3.353 -0.3229  1.1477  0.0356
 3377SOL    HW210560   0.453   0.803   3.379  1.3803 -0.3425 -0.1797
 3378SOL     OW10561   5.701   3.329   2.516 -0.1769  0.2568  0.3811
 3378SOL    HW110562   5.765   3.382   2.562  0.3243 -1.3407  1.6255
 3378SOL    HW210563   5.744   3.305   2.434  0.3118  0.2593  0.6343
 3379SOL     OW10564   2.426   3.640   1.331  0.4240 -0.5954  0.3263
 3379SOL    HW110565   2.470   3.707   1.279  1.5588 -2.7160 -1.6764
 3379SOL    HW210566   2.497   3.589   1.370 -0.3527 -1.4615  0.6641
 3380SOL     OW10567   4.559   5.804   0.374  0.3218  0.0140 -0.5401
 3380SOL    HW110568   4.484   5.745   0.380 -0.1879  0.7588  0.8994
 3380SOL    HW210569   4.615   5.779   0.447  1.1406 -0.0373 -1.1623
 3381SOL     OW10570   0.221   0.091   4.478  0.0420  0.2108  0.3420
 3381SOL    HW110571   0.138   0.044   4.474 -0.3203  0.9406 -2.2023
 3381SOL    HW210572   0.198   0.183   4.467  1.1261  0.5183  0.4962
 3382SOL     OW10573   4.885   0.153   2.915 -0.5754 -0.4194 -0.3743
 3382SOL    HW110574   4.857   0.063   2.900 -3.7745  0.5495 -1.0265
 3382SOL    HW210575   4.813   0.192   2.966  0.0924  2.0814 -1.2102
 3383SOL     OW10576   1.399   4.942   4.159 -0.2944  0.4556  0.0329
 3383SOL    HW110577   1.375   4.996   4.235 -1.5626  0.6997 -0.5236
 3383SOL    HW210578   1.322   4.944   4.103  0.4923 -0.0468 -1.0927
 3384SOL     OW10579   3.737   1.077   5.320  0.3376  0.0061 -0.0240
 3384SOL    HW110580   3.767   1.090   5.410 -1.5815  0.9509  0.5244
 3384SOL    HW210581   3.801   1.125   5.267  0.8004  0.4713  0.9291
 3385SOL     OW10582   0.754   1.143   3.975  0.4716  0.7035  0.1198
 3385SOL    HW110583   0.669   1.186   3.964 -0.8120 -0.8971  2.7383
 3385SOL    HW210584   0.805   1.204   4.029 -0.2811  0.2511  1.3722
 3386SOL     OW10585   1.072   1.147   1.328 -0.4004  0.2915 -0.6769
 3386SOL    HW110586   1.164   1.120   1.317 -0.0149  0.6119  1.2331
 3386SOL    HW210587   1.026   1.065   1.349 -0.2209  0.3514 -0.0192
 3387SOL     OW10588   1.297   2.263   1.972  0.0687  0.2082 -0.1999
 3387SOL    HW110589   1.288   2.358   1.980 -1.6348  0.2936 -2.4370
 3387SOL    HW210590   1.371   2.252   1.912 -0.1585  0.1289 -0.4621
 3388SOL     OW10591   0.890   5.632   2.547 -0.2781  0.1524  0.3843
 3388SOL    HW110592   0.889   5.714   2.596 -3.0561  0.8308 -0.6385
 3388SOL    HW210593   0.825   5.644   2.478 -1.4865 -3.2196  0.7435
 3389SOL     OW10594   4.810   4.658   4.183 -0.6264 -0.0102 -0.5358
 3389SOL    HW110595   4.771   4.575   4.212  0.5326 -1.2482 -2.2931
 3389SOL    HW210596   4.898   4.657   4.220 -0.8970  0.8887  0.1676
 3390SOL     OW10597   5.233   4.380   2.548  0.1778  0.0874 -0.6602
 3390SOL    HW110598   5.157   4.417   2.593  0.0932 -0.8870  0.0189
 3390SOL    HW210599   5.296   4.363   2.619 -0.2634 -2.2342 -0.7588
 3391SOL     OW10600   1.568   2.716   5.950  1.3019  0.2463 -0.1025
 3391SOL    HW110601   1.519   2.696   6.030 -0.6964 -0.3180 -1.4237
 3391SOL    HW210602   1.617   2.636   5.931 -0.2042 -0.5277 -0.8152
 3392SOL     OW10603   1.187   3.101   1.849 -0.4150 -0.2927 -0.3228
 3392SOL    HW110604   1.263   3.114   1.791  1.0201 -1.8308  1.1097
 3392SOL    HW210605   1.134   3.034   1.804 -0.5478  0.2272 -0.9602
 3393SOL     OW10606   2.959   0.328   1.247  0.2925 -0.4971  0.2297
 3393SOL    HW110607   2.932   0.409   1.290 -0.5887  0.9372 -2.7215
 3393SOL    HW210608   2.896   0.317   1.175  1.2478 -3.0541 -0.3377
 3394SOL     OW10609   3.573   4.619   1.210  0.0194  0.4928  0.0053
 3394SOL    HW110610   3.556   4.688   1.147 -2.2958 -0.4077 -0.4648
 3394SOL    HW210611   3.556   4.659   1.296  1.6166  1.2755 -0.0112
 3395SOL     OW10612   0.383   5.417   1.116 -0.2061 -0.4790 -0.0586
 3395SOL    HW110613   0.395   5.502   1.158  0.3485  0.2675 -1.6269
 3395SOL    HW210614   0.358   5.438   1.026  0.3489 -1.9561 -0.5966
 3396SOL     OW10615   4.263   3.605   0.641 -0.0456  0.4302 -0.5030
 3396SOL    HW110616   4.238   3.695   0.616 -0.5949 -0.1591 -2.2273
 3396SOL    HW210617   4.233   3.551   0.567 -0.5105 -1.2906  0.8834
 3397SOL     OW10618   1.961   3.020   1.758  0.4906  0.4199 -0.3535
 3397SOL    HW110619   1.958   2.954   1.827 -0.1219 -0.2331 -0.9893
 3397SOL    HW210620   1.986   2.971   1.679 -1.0047  0.7349 -1.0628
 3398SOL     OW10621   3.133   2.395   0.176  0.0095  0.2504  0.3127
 3398SOL    HW110622   3.099   2.378   0.264 -0.1263  1.3290  0.4815
 3398SOL    HW210623   3.069   2.456   0.138  1.7805  2.5017  0.7102
 3399SOL     OW10624   3.101   2.064   3.614  0.2861 -0.1050  0.4712
 3399SOL    HW110625   3.164   2.073   3.542 -0.4656 -0.6772 -0.2759
 3399SOL    HW210626   3.062   1.978   3.601 -0.8105  0.3283  0.7799
 3400SOL     OW10627   2.788   6.126   1.237  0.3910  0.2321  0.0604
 3400SOL    HW110628   2.804   6.132   1.143  3.4477 -2.5808  0.2253
 3400SOL    HW210629   2.869   6.156   1.277 -0.4733  0.3907  1.8119
 3401SOL     OW10630   4.713   4.441   6.183 -0.2233  0.2996 -0.0833
 3401SOL    HW110631   4.655   4.392   6.240  0.4071 -1.2522 -0.7113
 3401SOL    HW210632   4.735   4.380   6.113  2.7832  0.5233  0.5417
 3402SOL     OW10633   5.887   2.976   1.657 -0.1200  0.0059  0.2790
 3402SOL    HW110634   5.804   3.021   1.639 -0.2745 -0.7421 -0.9653
 3402SOL    HW210635   5.942   3.044   1.696 -1.8332  0.1218  2.7427
 3403SOL     OW10636   1.577   5.142   0.495  0.0790 -0.0010  0.5004
 3403SOL    HW110637   1.651   5.083   0.508 -1.2049 -2.2735 -1.7493
 3403SOL    HW210638   1.617   5.223   0.463  1.6482 -0.8378  0.2391
 3404SOL     OW10639   0.526   0.812   3.851  0.0397  0.0435  0.0900
 3404SOL    HW110640   0.456   0.876   3.839 -0.1172 -0.2232 -0.4639
 3404SOL    HW210641   0.570   0.839   3.932 -1.1262 -0.1937  0.8223
 3405SOL     OW10642   1.504   4.173   4.085  0.2566  0.3002  0.3653
 3405SOL    HW110643   1.509   4.135   4.172  0.6230 -2.3713 -0.7239
 3405SOL    HW210644   1.566   4.246   4.087  0.5309  0.0483  2.2123
 3406SOL     OW10645   5.141   4.756   3.789 -0.1300  0.2027  0.0309
 3406SOL    HW110646   5.196   4.800   3.854 -0.2791 -1.0744  1.0597
 3406SOL    HW210647   5.064   4.729   3.838 -1.4072  1.3718 -1.2424
 3407SOL     OW10648   6.154   1.428   3.577 -0.6666  0.4640 -0.1535
 3407SOL    HW110649   6.066   1.436   3.615 -1.1720 -2.3720 -0.5035
 3407SOL    HW210650   6.161   1.336   3.551  2.3129  0.6609 -0.4399
 3408SOL     OW10651   2.945   4.868   5.686 -0.2267  0.0497  0.5376
 3408SOL    HW110652   2.997   4.792   5.711 -1.1949 -1.3989 -1.6054
 3408SOL    HW210653   3.008   4.926   5.643  0.1544 -0.4159  0.4556
 3409SOL     OW10654   2.069   5.307   0.145  0.0176  0.1721  0.0028
 3409SOL    HW110655   1.996   5.325   0.204 -0.0710  1.2337 -0.4122
 3409SOL    HW210656   2.041   5.343   0.061 -0.0952 -1.8116 -0.8585
 3410SOL     OW10657   3.904   5.855   4.331  0.0910  0.0093  0.2638
 3410SOL    HW110658   3.928   5.926   4.390 -2.1550  1.1743 -0.1575
 3410SOL    HW210659   3.829   5.888   4.282 -1.6057 -2.9306  0.6549
 3411SOL     OW10660   0.075   0.577   1.683 -0.1915  0.4699  0.2909
 3411SOL    HW110661  -0.004   0.596   1.633 -0.8392  0.3552  1.2465
 3411SOL    HW210662   0.049   0.507   1.744  0.6905  0.2988  0.4915
 3412SOL     OW10663   0.591   4.855   0.807  0.5194 -0.5640 -0.6084
 3412SOL    HW110664   0.595   4.824   0.717  1.1550 -0.8701 -0.4790
 3412SOL    HW210665   0.672   4.824   0.847  1.0775  1.0595 -0.4049
 3413SOL     OW10666   4.001   0.850   2.143  0.2794 -0.6002 -0.1573
 3413SOL    HW110667   4.064   0.829   2.074  2.8802  0.7923  1.6170
 3413SOL    HW210668   4.008   0.778   2.205 -0.7995 -1.0146 -0.4969
 3414SOL     OW10669   0.139   3.971   3.794  0.7946  0.9068 -0.0230
 3414SOL    HW110670   0.151   3.918   3.716  0.9684  1.5854 -0.4726
 3414SOL    HW210671   0.143   3.910   3.867 -0.7162  0.0602 -0.6077
 3415SOL     OW10672   4.209   3.476   3.762  0.2290  0.1115 -0.1895
 3415SOL    HW110673   4.128   3.426   3.748  1.0327 -2.1135  2.4095
 3415SOL    HW210674   4.276   3.428   3.713  0.5395  0.2224  0.1239
 3416SOL     OW10675   1.475   5.936   4.803 -0.6191  0.2864 -0.1616
 3416SOL    HW110676   1.402   5.876   4.785 -0.3956 -0.2772  0.7473
 3416SOL    HW210677   1.433   6.021   4.812 -0.9228  0.3241 -1.6541
 3417SOL     OW10678   5.063   0.610   5.367 -0.0357  1.0398  0.5626
 3417SOL    HW110679   5.032   0.602   5.457  1.8395  1.9408  1.3395
 3417SOL    HW210680   5.158   0.605   5.374  0.1615  1.4852 -1.3434
 3418SOL     OW10681   3.452   1.932   3.818 -0.1022 -0.0908 -0.4588
 3418SOL    HW110682   3.514   1.989   3.865  0.4420 -0.8737 -0.2134
 3418SOL    HW210683   3.411   1.880   3.887 -0.8393  0.2226 -0.6513
 3419SOL     OW10684   1.420   5.728   3.816  0.1100  0.0100  0.9419
 3419SOL    HW110685   1.485   5.707   3.749  0.2662 -0.7384  1.3103
 3419SOL    HW210686   1.349   5.772   3.769  1.1786  1.4661  0.6433
 3420SOL     OW10687   0.485   3.181   2.297  0.0190  0.1312 -0.1443
 3420SOL    HW110688   0.534   3.109   2.336 -1.1312 -0.0205  1.0676
 3420SOL    HW210689   0.427   3.140   2.233  0.3756  0.1599 -0.4970
 3421SOL     OW10690   3.702   3.386   2.716 -0.2212 -0.4730 -0.1037
 3421SOL    HW110691   3.784   3.370   2.762 -0.1007 -1.4610 -0.6382
 3421SOL    HW210692   3.689   3.481   2.722  1.1719 -0.2473 -0.3842
 3422SOL     OW10693   1.300   4.483   3.285  0.1541  0.6339 -0.3347
 3422SOL    HW110694   1.344   4.398   3.289  1.5814  1.3833  1.0365
 3422SOL    HW210695   1.353   4.536   3.226  1.2134  1.5595  1.3671
 3423SOL     OW10696   0.903   1.511   0.179 -0.0076 -0.3778 -0.0735
 3423SOL    HW110697   0.954   1.443   0.134 -1.4971 -1.4602 -0.1951
 3423SOL    HW210698   0.815   1.503   0.143 -1.0420 -0.6460  2.3143
 3424SOL     OW10699   3.147   3.892   4.161  0.0045  0.7287  0.5229
 3424SOL    HW110700   3.059   3.869   4.189  0.3062 -1.8082 -0.3670
 3424SOL    HW210701   3.173   3.964   4.218 -2.6041  1.5216  0.8220
 3425SOL     OW10702   5.116   5.429   0.529  0.0399 -0.1884  0.2175
 3425SOL    HW110703   5.098   5.356   0.589  1.1632 -0.5000  0.1917
 3425SOL    HW210704   5.181   5.482   0.574  0.8697 -0.4086 -0.7045
 3426SOL     OW10705   0.728   1.537   1.046 -0.5536 -0.2485  0.0514
 3426SOL    HW110706   0.741   1.631   1.032 -0.4388  0.0069  1.6921
 3426SOL    HW210707   0.665   1.532   1.118 -2.5083 -1.4564 -1.6001
 3427SOL     OW10708   6.212   4.541   5.541 -0.2084 -0.1007 -0.2737
 3427SOL    HW110709   6.185   4.590   5.463 -0.4684 -0.4569 -0.4118
 3427SOL    HW210710   6.174   4.589   5.614 -1.5391 -0.7741 -0.4845
 3428SOL     OW10711   6.131   5.613   2.211  0.1643  0.3334  0.0415
 3428SOL    HW110712   6.112   5.520   2.198  1.0637  0.1383  0.0980
 3428SOL    HW210713   6.070   5.640   2.280 -0.3117 -0.1372 -0.1864
 3429SOL     OW10714   1.026   1.978   0.319 -0.0605  0.0815  0.2355
 3429SOL    HW110715   0.942   2.020   0.303 -0.4738 -0.7547  0.1338
 3429SOL    HW210716   1.005   1.904   0.377 -0.0630 -2.5056 -2.8158
 3430SOL     OW10717   1.459   2.131   2.960  0.2393  0.5390  0.1957
 3430SOL    HW110718   1.442   2.039   2.938  0.2767  0.6295 -0.2230
 3430SOL    HW210719   1.438   2.179   2.880 -1.9796  1.1614  1.0787
 3431SOL     OW10720   5.987   0.248   2.647  0.3804  0.1355  0.7500
 3431SOL    HW110721   6.049   0.195   2.697  0.2194  1.3804  2.3100
 3431SOL    HW210722   5.971   0.325   2.700 -2.4901 -0.0888  0.4100
 3432SOL     OW10723   3.855   5.746   5.043  0.2750 -0.5703  0.7376
 3432SOL    HW110724   3.926   5.755   4.980  1.3722 -1.6413  1.7624
 3432SOL    HW210725   3.776   5.737   4.990  0.9765  0.0914 -0.4396
 3433SOL     OW10726   3.656   2.065   3.918  0.2220 -0.1228  0.3418
 3433SOL    HW110727   3.739   2.018   3.906 -1.4516 -2.5441 -4.0434
 3433SOL    HW210728   3.667   2.145   3.867  0.5526  0.6986  1.6618
 3434SOL     OW10729   5.680   0.368   5.262 -0.0450 -0.7743  0.7452
 3434SOL    HW110730   5.670   0.280   5.297 -0.7251 -0.1701  2.1520
 3434SOL    HW210731   5.773   0.387   5.267  0.0614 -1.2970  0.7211
 3435SOL     OW10732   5.369   6.052   2.993 -0.8283  0.5001  0.5990
 3435SOL    HW110733   5.377   6.130   3.049 -0.3771 -0.2133  1.5586
 3435SOL    HW210734   5.437   5.993   3.026 -2.8602 -1.3693  1.6523
 3436SOL     OW10735   2.489   5.146   3.241 -0.0807 -0.7216  0.6563
 3436SOL    HW110736   2.421   5.088   3.275 -1.0991 -1.8485 -2.9192
 3436SOL    HW210737   2.551   5.088   3.197  0.1199  0.6645 -1.0129
 3437SOL     OW10738   3.905   3.699   3.673  0.3241  0.4910 -0.0942
 3437SOL    HW110739   3.918   3.664   3.762 -0.2915 -0.1266 -0.2379
 3437SOL    HW210740   3.810   3.704   3.663  0.3962  0.8831 -0.5978
 3438SOL     OW10741   5.068   5.612   5.007 -0.1088 -0.1937 -0.1814
 3438SOL    HW110742   5.085   5.518   4.997 -0.4274 -0.2213 -0.4870
 3438SOL    HW210743   5.153   5.654   4.989 -0.2289 -0.3574 -1.2018
 3439SOL     OW10744   3.994   4.799   1.561 -0.2197 -0.2064  0.0540
 3439SOL    HW110745   4.001   4.857   1.637 -2.4326  0.6916 -0.3393
 3439SOL    HW210746   4.071   4.819   1.508  0.8611 -0.1724  1.5926
 3440SOL     OW10747   2.221   0.602   3.551 -0.5150  0.5081  0.0897
 3440SOL    HW110748   2.253   0.512   3.557  1.4836  1.1936  0.5414
 3440SOL    HW210749   2.239   0.627   3.460  0.8136  1.0563  0.4726
 3441SOL     OW10750   0.622   0.411   3.175  0.0297  0.4930 -0.0812
 3441SOL    HW110751   0.534   0.441   3.151 -0.6674  0.3637  2.0874
 3441SOL    HW210752   0.606   0.340   3.237  1.6889 -0.9691 -1.2244
 3442SOL     OW10753   4.302   2.906   4.872 -0.3539 -0.4101 -0.1903
 3442SOL    HW110754   4.338   2.826   4.911 -0.4869  0.1718  1.2032
 3442SOL    HW210755   4.375   2.969   4.875 -1.1623  0.5383  1.9348
 3443SOL     OW10756   2.624   2.971   4.622  0.2187  0.7504  0.2733
 3443SOL    HW110757   2.617   3.063   4.597 -1.6003  1.0580  1.7145
 3443SOL    HW210758   2.635   2.973   4.717 -3.4529 -0.4958  0.8912
 3444SOL     OW10759   4.139   0.737   2.941 -0.4550 -0.1575 -0.2031
 3444SOL    HW110760   4.129   0.810   2.880  1.9994 -0.6048 -1.2517
 3444SOL    HW210761   4.179   0.776   3.019  1.3049 -0.4016 -0.9464
 3445SOL     OW10762   3.000   5.579   4.926  0.6994  0.0362 -0.6511
 3445SOL    HW110763   3.057   5.512   4.964 -0.6007 -1.5347 -1.3230
 3445SOL    HW210764   2.994   5.556   4.834  0.5580  1.3651 -0.9917
 3446SOL     OW10765   2.618   0.931   4.987 -0.1981 -0.1037 -0.2747
 3446SOL    HW110766   2.649   0.843   4.970 -1.2776 -0.6516  0.4432
 3446SOL    HW210767   2.591   0.965   4.902 -1.8173 -1.2966 -0.2734
 3447SOL     OW10768   2.750   5.990   4.836  0.0504 -0.2258 -0.0536
 3447SOL    HW110769   2.779   6.079   4.852  1.3765 -0.9465  1.9827
 3447SOL    HW210770   2.699   5.967   4.914 -1.2739 -0.8819 -1.0665
 3448SOL     OW10771   4.393   4.597   1.438 -0.4111 -0.0314  0.5170
 3448SOL    HW110772   4.448   4.584   1.515  0.0869 -0.1331  0.1481
 3448SOL    HW210773   4.450   4.641   1.375 -1.2116  1.3044  0.6896
 3449SOL     OW10774   3.763   4.949   4.919 -0.1514  0.5232  0.6208
 3449SOL    HW110775   3.705   5.021   4.893 -0.1054 -0.0551 -1.1956
 3449SOL    HW210776   3.851   4.986   4.908 -0.1303  0.8693  1.8033
 3450SOL     OW10777   5.005   1.552   1.959  0.2278  0.1490 -0.0220
 3450SOL    HW110778   4.994   1.618   1.891  2.5418  1.3686  0.6901
 3450SOL    HW210779   5.044   1.477   1.914  1.2449  0.7508 -0.1733
 3451SOL     OW10780   4.338   1.860   5.379 -0.1783  0.2785 -0.5631
 3451SOL    HW110781   4.305   1.945   5.351 -0.1731 -0.1093 -1.8172
 3451SOL    HW210782   4.280   1.833   5.450 -0.4828  1.0956 -0.4972
 3452SOL     OW10783   4.635   3.186   0.782 -0.2667  0.2759 -0.0251
 3452SOL    HW110784   4.617   3.206   0.690  0.2357  0.5445 -0.0670
 3452SOL    HW210785   4.551   3.202   0.826 -0.4652  0.3102 -0.4111
 3453SOL     OW10786   4.799   6.008   2.077 -0.4748  0.3714 -0.2861
 3453SOL    HW110787   4.806   5.947   2.004  1.0360  0.3612 -0.1456
 3453SOL    HW210788   4.807   5.953   2.155  0.0516  0.6357 -0.1503
 3454SOL     OW10789   0.415   5.673   5.253  0.0286 -0.5344  0.0761
 3454SOL    HW110790   0.497   5.671   5.204 -1.0436  1.2470 -1.9283
 3454SOL    HW210791   0.376   5.586   5.238  1.9469 -1.8216  1.9597
 3455SOL     OW10792   2.920   0.498   5.265  0.0852 -0.1813 -0.1081
 3455SOL    HW110793   2.976   0.448   5.205 -0.2571  0.0346 -0.6149
 3455SOL    HW210794   2.871   0.432   5.313  0.7747 -0.3743  0.3443
 3456SOL     OW10795   5.660   1.541   0.763  0.4254 -0.1127 -0.3312
 3456SOL    HW110796   5.635   1.569   0.675 -1.4723  1.5576  0.6458
 3456SOL    HW210797   5.749   1.507   0.754  0.0796 -0.4698 -2.9553
 3457SOL     OW10798   4.485   5.941   2.211  0.2565  0.0452 -0.4778
 3457SOL    HW110799   4.512   5.852   2.190  3.2427  1.2221 -2.2366
 3457SOL    HW210800   4.525   5.958   2.297  0.4846  0.0045 -0.5763
 3458SOL     OW10801   1.006   5.531   5.199 -0.0161  0.3066 -0.0193
 3458SOL    HW110802   1.014   5.450   5.149 -0.7273 -1.0124  1.8893
 3458SOL    HW210803   1.086   5.580   5.177  0.8292 -1.2541 -0.6132
 3459SOL     OW10804   2.155   5.949   4.817 -0.2219 -0.7286 -0.0576
 3459SOL    HW110805   2.139   6.039   4.842  0.4642 -0.1006 -1.7066
 3459SOL    HW210806   2.132   5.897   4.894  1.6591  0.9966  1.7531
 3460SOL     OW10807   3.438   0.348   0.396 -0.4530 -0.1881  0.1234
 3460SOL    HW110808   3.440   0.254   0.417  1.3053 -0.1402  0.3493
 3460SOL    HW210809   3.358   0.380   0.437 -0.6373 -1.4300  0.7968
 3461SOL     OW10810   2.002   0.557   4.721  0.0608  0.7077 -0.2514
 3461SOL    HW110811   2.062   0.544   4.647  0.6983  1.1596  0.1854
 3461SOL    HW210812   1.997   0.651   4.732 -1.4766  0.7365 -0.8729
 3462SOL     OW10813   0.690   2.454   3.143 -0.0705 -0.2545  0.1774
 3462SOL    HW110814   0.732   2.539   3.157 -1.4367  0.7403 -1.4361
 3462SOL    HW210815   0.762   2.396   3.116  0.6610  0.7499 -0.1035
 3463SOL     OW10816   1.992   0.027   1.060 -0.2976 -0.6749 -0.2806
 3463SOL    HW110817   1.984   0.121   1.078  1.6714 -0.2405 -1.3857
 3463SOL    HW210818   2.065  -0.001   1.115 -0.4277 -1.4183 -0.4825
 3464SOL     OW10819   0.310   0.295   4.229 -0.6968  0.9068  0.5614
 3464SOL    HW110820   0.236   0.236   4.212 -0.8182  0.6726  1.8021
 3464SOL    HW210821   0.378   0.266   4.168 -0.0291 -1.8745  2.4193
 3465SOL     OW10822   5.449   6.003   5.011  0.2606  0.3414  0.2490
 3465SOL    HW110823   5.405   6.017   5.096  0.1152 -0.0022  0.2308
 3465SOL    HW210824   5.498   6.084   4.996  2.5078 -0.6027  1.9608
 3466SOL     OW10825   1.233   6.020   2.092  0.1023  0.0683 -0.0074
 3466SOL    HW110826   1.242   6.009   1.997  1.1646  0.9858 -0.0395
 3466SOL    HW210827   1.263   5.936   2.129  1.8261  0.4491 -0.4323
 3467SOL     OW10828   1.057   0.976   3.230  0.6060  0.8544  0.3284
 3467SOL    HW110829   1.010   0.916   3.172  1.0010  1.8162 -1.0185
 3467SOL    HW210830   1.101   0.918   3.293  1.0282 -0.2957 -0.9760
 3468SOL     OW10831   4.499   1.992   1.876 -0.1297  0.2959 -0.4229
 3468SOL    HW110832   4.473   2.084   1.887 -1.3711 -0.1310  0.4820
 3468SOL    HW210833   4.562   1.977   1.947  0.4279  0.5626 -0.8554
 3469SOL     OW10834   3.903   6.074   0.241 -0.1389  0.2902  0.0389
 3469SOL    HW110835   3.976   6.013   0.252 -1.6417 -1.4108  0.9876
 3469SOL    HW210836   3.946   6.158   0.221  2.0541 -0.6664  0.3854
 3470SOL     OW10837   5.555   3.567   1.593  0.2078  0.3578  0.3850
 3470SOL    HW110838   5.643   3.565   1.629 -0.0080  3.2146  1.3990
 3470SOL    HW210839   5.502   3.606   1.663 -1.8817 -1.2134 -0.2252
 3471SOL     OW10840   2.767   4.983   3.027 -0.0926 -0.0427 -0.3018
 3471SOL    HW110841   2.848   4.940   3.052  1.7410  0.1327 -5.0044
 3471SOL    HW210842   2.794   5.070   2.998 -2.2754  0.6722 -0.3612
 3472SOL     OW10843   3.483   5.684   3.165  0.1974 -0.4902  0.0006
 3472SOL    HW110844   3.471   5.589   3.171  0.5269 -0.5441 -0.1566
 3472SOL    HW210845   3.564   5.695   3.116  0.7168 -0.1306  0.9340
 3473SOL     OW10846   0.872   4.082   5.852  0.0299  0.1625 -0.0689
 3473SOL    HW110847   0.827   4.011   5.899  2.4441 -1.1680  0.3764
 3473SOL    HW210848   0.825   4.161   5.878 -2.4830 -1.1675 -0.2140
 3474SOL     OW10849   5.551   4.054   5.079 -0.2218  0.2142 -0.3582
 3474SOL    HW110850   5.466   4.089   5.105 -0.8471 -1.5637  0.1325
 3474SOL    HW210851   5.532   3.994   5.007  0.4323 -1.1076  0.5254
 3475SOL     OW10852   3.367   4.166   3.857 -0.0463  0.0784  0.6447
 3475SOL    HW110853   3.291   4.201   3.810  1.3005 -0.3193 -2.0053
 3475SOL    HW210854   3.330   4.101   3.917 -1.7377 -1.1195 -1.5437
 3476SOL     OW10855   0.817   4.932   4.577 -0.0220  0.2211 -0.3216
 3476SOL    HW110856   0.754   4.973   4.517 -1.7073 -0.3083  0.9791
 3476SOL    HW210857   0.902   4.959   4.546 -0.9596  2.1921 -1.3191
 3477SOL     OW10858   4.136   1.073   2.192 -0.2035  0.2821 -0.1703
 3477SOL    HW110859   4.067   1.115   2.244 -0.8435 -1.0606  0.0908
 3477SOL    HW210860   4.102   0.986   2.172  0.9976 -0.0399 -0.9115
 3478SOL     OW10861   5.725   0.037   5.188  0.2659 -0.2952  0.4515
 3478SOL    HW110862   5.722   0.025   5.093 -0.7804  0.7506  0.3347
 3478SOL    HW210863   5.639   0.070   5.211  0.6632 -0.0882  1.7075
 3479SOL     OW10864   2.608   4.063   4.081 -0.2304 -0.6252 -0.0971
 3479SOL    HW110865   2.685   4.027   4.037  0.9208 -1.4440  2.3870
 3479SOL    HW210866   2.642   4.136   4.132 -1.6200  0.6901 -1.0000
 3480SOL     OW10867   3.671   0.912   4.183 -0.1657  0.3409  0.1810
 3480SOL    HW110868   3.580   0.938   4.194 -0.3114  0.3043 -0.8620
 3480SOL    HW210869   3.680   0.833   4.236 -0.7229  0.3728  0.3309
 3481SOL     OW10870   4.678   3.563   1.630  0.1088 -0.1980  0.2187
 3481SOL    HW110871   4.671   3.528   1.541 -2.5201  1.6665 -0.4333
 3481SOL    HW210872   4.673   3.658   1.618 -1.3480  0.0617  2.4070
 3482SOL     OW10873   3.091   2.003   1.640 -0.2088 -0.2897  0.1729
 3482SOL    HW110874   3.169   2.045   1.676 -0.7962 -0.6346  1.9321
 3482SOL    HW210875   3.126   1.934   1.583  0.7435  0.8694 -0.6942
 3483SOL     OW10876   1.282   2.260   0.706  0.0690 -0.4232  0.3867
 3483SOL    HW110877   1.244   2.334   0.754 -0.6865 -0.0687 -0.6958
 3483SOL    HW210878   1.276   2.287   0.614 -0.7716 -2.0853 -0.0803
 3484SOL     OW10879   0.958   1.417   3.453  0.2619 -0.3242  0.2906
 3484SOL    HW110880   1.036   1.440   3.402 -0.4548  2.2989  0.2369
 3484SOL    HW210881   0.981   1.439   3.543 -0.5386  1.0007  0.2032
 3485SOL     OW10882   3.238   3.140   2.661 -0.1805  0.1486 -0.2346
 3485SOL    HW110883   3.324   3.181   2.667 -0.3108  0.3512  0.3039
 3485SOL    HW210884   3.256   3.046   2.662  0.1775  0.1503 -2.2732
 3486SOL     OW10885   1.618   5.429   3.803  0.1188 -0.2921  0.9027
 3486SOL    HW110886   1.534   5.416   3.847 -0.8593 -1.4178 -1.1248
 3486SOL    HW210887   1.659   5.343   3.802  0.5315 -0.1011  0.4467
 3487SOL     OW10888   6.107   0.169   4.144 -0.0142  0.1982 -0.6454
 3487SOL    HW110889   6.144   0.081   4.144  2.7385  1.2578 -0.7589
 3487SOL    HW210890   6.074   0.181   4.055  0.6400 -0.3339 -0.9663
 3488SOL     OW10891   3.220   3.262   0.185 -0.1355 -0.2500 -0.6506
 3488SOL    HW110892   3.242   3.348   0.149 -1.8203 -0.2268 -1.7502
 3488SOL    HW210893   3.294   3.240   0.242 -0.9573  3.2503  2.1215
 3489SOL     OW10894   4.605   1.413   3.972 -0.3328  0.2925 -0.0398
 3489SOL    HW110895   4.693   1.414   3.934 -0.7644  1.6067 -1.0636
 3489SOL    HW210896   4.589   1.504   3.997 -1.4673  0.0925  0.0038
 3490SOL     OW10897   4.319   0.734   5.158 -0.0660 -0.0551 -0.0563
 3490SOL    HW110898   4.347   0.669   5.223  0.0613 -0.5199 -0.5687
 3490SOL    HW210899   4.387   0.731   5.091 -1.0969 -0.9102 -1.1243
 3491SOL     OW10900   1.532   5.036   4.479  0.3387  0.4999  0.3646
 3491SOL    HW110901   1.498   4.946   4.483 -0.5305  0.8452  0.9712
 3491SOL    HW210902   1.462   5.086   4.437  1.0876  0.7880 -0.5857
 3492SOL     OW10903   0.745   0.212   3.031  0.2455 -0.4068 -0.0150
 3492SOL    HW110904   0.700   0.214   2.947  0.3834 -0.6108 -0.0921
 3492SOL    HW210905   0.720   0.295   3.073  1.0675  0.2193 -0.7254
 3493SOL     OW10906   4.470   2.663   4.908 -0.1182 -0.2702  0.2050
 3493SOL    HW110907   4.516   2.615   4.839 -0.2736  0.5556 -0.4871
 3493SOL    HW210908   4.523   2.649   4.986  0.0683 -1.2075 -0.0768
 3494SOL     OW10909   3.441   4.878   0.371  0.5184 -0.0596  0.1818
 3494SOL    HW110910   3.364   4.910   0.324  0.4109  1.4119  1.2729
 3494SOL    HW210911   3.511   4.878   0.305 -0.1407 -0.2916 -0.5319
 3495SOL     OW10912   4.108   2.157   3.504  0.4065  0.0555 -0.0026
 3495SOL    HW110913   4.159   2.121   3.576 -0.2503  0.0532  0.4709
 3495SOL    HW210914   4.080   2.081   3.453 -0.3426 -0.0709  0.5693
 3496SOL     OW10915   5.066   1.700   5.393 -0.0148 -0.1696  0.1569
 3496SOL    HW110916   5.155   1.674   5.418  0.3995  1.3351  0.3351
 3496SOL    HW210917   5.022   1.617   5.372  1.3677 -0.9589  0.2401
 3497SOL     OW10918   2.323   5.616   0.035  0.2431 -0.1102  0.1780
 3497SOL    HW110919   2.322   5.533   0.082 -0.9362 -0.2216 -0.0033
 3497SOL    HW210920   2.231   5.633   0.015  0.6760  0.0555 -1.8717
 3498SOL     OW10921   4.882   5.763   1.853  0.8434 -0.3818  0.4115
 3498SOL    HW110922   4.804   5.708   1.847 -0.5897  1.5123  0.5181
 3498SOL    HW210923   4.955   5.704   1.837 -0.6837 -2.0101 -0.9648
 3499SOL     OW10924   5.739   1.081   4.996  0.3239  0.2729  0.5120
 3499SOL    HW110925   5.779   1.146   5.054  0.9292 -0.5706  1.0714
 3499SOL    HW210926   5.791   1.084   4.916  0.2080  0.6253  0.4471
 3500SOL     OW10927   5.314   3.350   4.097  0.4253 -0.2119 -0.0247
 3500SOL    HW110928   5.323   3.436   4.058 -0.4196  0.4143  1.0899
 3500SOL    HW210929   5.239   3.310   4.052  0.5511 -0.1949 -0.2492
 3501SOL     OW10930   0.179   4.397   5.619  0.1992  0.6416  0.0101
 3501SOL    HW110931   0.108   4.454   5.586 -0.5974 -0.7693 -0.8095
 3501SOL    HW210932   0.153   4.377   5.709  0.5681  1.6703  0.3635
 3502SOL     OW10933   4.513   1.646   4.937 -0.1925  0.3981 -0.3523
 3502SOL    HW110934   4.489   1.566   4.983 -2.8117  0.6923 -1.0380
 3502SOL    HW210935   4.573   1.691   4.996  1.2109 -1.9372  0.1155
 3503SOL     OW10936   1.259   1.176   5.673  0.3797 -0.0940  0.2915
 3503SOL    HW110937   1.317   1.204   5.602  0.4054 -0.4377  0.1727
 3503SOL    HW210938   1.312   1.115   5.724  0.2848 -0.0258  0.4710
 3504SOL     OW10939   3.099   5.435   3.079  0.4321  0.2971  0.1235
 3504SOL    HW110940   3.138   5.501   3.022 -1.2387 -0.3092 -1.8707
 3504SOL    HW210941   3.151   5.356   3.065  1.2912  0.6736  1.0816
 3505SOL     OW10942   5.385   1.639   1.010 -0.9575  0.7381 -0.0531
 3505SOL    HW110943   5.409   1.548   0.989 -1.9381  0.2636  0.7473
 3505SOL    HW210944   5.460   1.673   1.058 -0.6742  0.2767 -0.1584
 3506SOL     OW10945   1.062   2.262   5.757 -0.4759 -0.5391  0.4698
 3506SOL    HW110946   0.995   2.329   5.748 -1.5315 -1.2196  2.5116
 3506SOL    HW210947   1.070   2.250   5.852  2.0932 -0.9416  0.2622
 3507SOL     OW10948   0.869   4.331   1.543 -0.2949 -0.1241 -0.1073
 3507SOL    HW110949   0.870   4.406   1.603  0.6796 -0.2525  0.0622
 3507SOL    HW210950   0.800   4.352   1.480 -0.7901  0.3881  0.5912
 3508SOL     OW10951   0.498   5.843   4.948 -0.7284  0.6987  0.3479
 3508SOL    HW110952   0.491   5.754   4.913 -0.6950  0.5464  0.7156
 3508SOL    HW210953   0.588   5.870   4.928 -1.4336  1.5649 -1.8614
 3509SOL     OW10954   2.968   2.624   5.107  0.4122  0.3462 -0.1361
 3509SOL    HW110955   2.928   2.621   5.020  0.8129  0.9121 -0.3467
 3509SOL    HW210956   3.040   2.561   5.102  0.6880  0.6718 -0.3514
 3510SOL     OW10957   2.052   1.135   1.108 -0.0772  0.1829  0.6662
 3510SOL    HW110958   2.004   1.199   1.056  2.0988  0.4796 -1.1323
 3510SOL    HW210959   2.127   1.184   1.142  1.1554 -1.1822 -0.0157
 3511SOL     OW10960   4.672   5.159   0.906 -0.2276 -0.0020  0.3530
 3511SOL    HW110961   4.586   5.196   0.926  0.1694  0.5304  1.1172
 3511SOL    HW210962   4.655   5.096   0.836 -0.9565  1.5333 -0.9279
 3512SOL     OW10963   0.342   2.713   5.958  0.5387 -0.4867 -0.0220
 3512SOL    HW110964   0.433   2.694   5.981  0.9518  2.3549  0.9810
 3512SOL    HW210965   0.348   2.780   5.890 -0.8073  0.2350  0.5471
 3513SOL     OW10966   5.109   2.947   3.598 -0.7986 -0.4243  0.5060
 3513SOL    HW110967   5.135   2.863   3.560 -1.2780 -0.5969  0.5435
 3513SOL    HW210968   5.028   2.927   3.645  0.5677 -0.5759  2.9568
 3514SOL     OW10969   3.855   4.527   0.698  0.1421  0.1263  0.5480
 3514SOL    HW110970   3.835   4.620   0.691 -0.7268 -0.0738  0.1684
 3514SOL    HW210971   3.792   4.493   0.762 -0.3608 -0.4143 -0.2159
 3515SOL     OW10972   4.609   2.791   2.558  0.6667  0.4981 -0.4684
 3515SOL    HW110973   4.514   2.796   2.564  0.7354  1.8329 -0.2176
 3515SOL    HW210974   4.626   2.713   2.506 -0.6002  0.9524 -1.6044
 3516SOL     OW10975   4.163   0.699   4.143 -0.2259  0.3688 -0.3389
 3516SOL    HW110976   4.214   0.730   4.068 -0.4758  3.1155  0.5457
 3516SOL    HW210977   4.090   0.650   4.104  0.6584  0.1364 -1.7776
 3517SOL     OW10978   0.001   5.058   0.194  0.4291 -0.4481  0.4548
 3517SOL    HW110979   0.097   5.058   0.183  0.4299  0.3131  0.4525
 3517SOL    HW210980  -0.012   5.066   0.288  0.3664  2.0468  0.2862
 3518SOL     OW10981   4.455   1.745   5.659 -0.2419 -0.1155  0.1746
 3518SOL    HW110982   4.462   1.789   5.575 -0.6093  2.3134  1.3449
 3518SOL    HW210983   4.378   1.688   5.650 -0.9975  1.0126 -0.7417
 3519SOL     OW10984   3.869   1.457   2.050  0.3270  0.1283 -0.4791
 3519SOL    HW110985   3.957   1.420   2.065  0.1553 -0.3905 -0.7292
 3519SOL    HW210986   3.821   1.437   2.130  0.5700  0.8262 -0.1511
 3520SOL     OW10987   1.589   1.863   2.355 -0.2234 -1.0568 -0.1406
 3520SOL    HW110988   1.519   1.904   2.407 -0.7006 -5.2208  3.0095
 3520SOL    HW210989   1.670   1.886   2.400 -0.0301 -0.1531 -0.9290
 3521SOL     OW10990   6.116   4.131   2.606  0.3828 -0.5331 -0.1669
 3521SOL    HW110991   6.134   4.057   2.548  1.0145 -0.8653  0.4381
 3521SOL    HW210992   6.070   4.194   2.551 -3.1861 -2.6492  0.0581
 3522SOL     OW10993   3.318   1.410   6.176  0.0855  0.2286 -0.0769
 3522SOL    HW110994   3.301   1.419   6.083 -2.8201 -0.7771  0.2359
 3522SOL    HW210995   3.357   1.493   6.203 -0.5909  1.1699 -1.8822
 3523SOL     OW10996   0.791   1.044   0.537 -0.4444  0.7004 -0.2761
 3523SOL    HW110997   0.736   0.967   0.522  0.3345  0.1724 -0.4671
 3523SOL    HW210998   0.766   1.075   0.624 -0.4657 -0.0107 -0.0263
 3524SOL     OW10999   1.983   3.690   2.168  0.0735 -0.1638 -0.2458
 3524SOL    HW111000   1.940   3.757   2.115  0.8221 -0.8385 -1.7581
 3524SOL    HW211001   2.062   3.669   2.120  1.3192 -0.1065  1.6712
 3525SOL     OW11002   5.169   4.295   2.944  0.3911 -0.0946  0.2489
 3525SOL    HW111003   5.239   4.342   2.989  0.2719 -0.6799  1.0641
 3525SOL    HW211004   5.195   4.297   2.852  1.4007 -0.1638  0.5175
 3526SOL     OW11005   1.902   6.011   3.476 -0.3152 -0.5548  0.2091
 3526SOL    HW111006   1.951   5.991   3.556  0.3574 -0.3980 -0.1574
 3526SOL    HW211007   1.851   6.089   3.498 -0.5386 -0.8217  0.6510
 3527SOL     OW11008   2.239   4.644   0.618 -0.2640 -0.4822 -0.4257
 3527SOL    HW111009   2.267   4.736   0.617  0.8959 -0.8151 -1.2194
 3527SOL    HW211010   2.226   4.624   0.710 -0.4730  0.4562 -0.2338
 3528SOL     OW11011   1.283   5.911   1.830  0.1648 -0.1594  0.5905
 3528SOL    HW111012   1.218   5.880   1.768  0.2869  0.3573  0.1969
 3528SOL    HW211013   1.366   5.878   1.797  0.6504  2.6043 -1.2748
 3529SOL     OW11014   0.336   1.811   2.553 -0.0543  0.1739  0.1155
 3529SOL    HW111015   0.260   1.753   2.564  0.9516 -1.7908 -2.2965
 3529SOL    HW211016   0.409   1.761   2.591  0.4656  0.8691  0.0392
 3530SOL     OW11017   4.295   2.058   0.169 -0.2123 -0.1440 -0.0246
 3530SOL    HW111018   4.212   2.084   0.209 -0.4201 -1.5268  0.4867
 3530SOL    HW211019   4.357   2.124   0.197 -0.9388  0.3871  0.3644
 3531SOL     OW11020   3.138   4.547   3.168 -0.0478  0.3359 -0.0391
 3531SOL    HW111021   3.113   4.466   3.212 -0.6846 -0.6202 -2.0501
 3531SOL    HW211022   3.229   4.561   3.194 -0.0948 -0.7133  0.7683
 3532SOL     OW11023   3.399   3.840   3.318  0.1534 -0.1268  0.0313
 3532SOL    HW111024   3.482   3.863   3.361  0.6652 -0.8545 -0.5463
 3532SOL    HW211025   3.399   3.745   3.316 -0.6817 -0.1255 -0.0220
 3533SOL     OW11026   1.049   3.519   1.365  0.0383 -0.1725  0.1911
 3533SOL    HW111027   0.963   3.478   1.379  0.1367 -0.5339 -0.2322
 3533SOL    HW211028   1.112   3.457   1.402  0.0775  0.4074  1.1145
 3534SOL     OW11029   4.692   4.700   2.035 -0.3809  0.1447 -0.0422
 3534SOL    HW111030   4.754   4.733   1.970  0.2925  0.5953  0.8055
 3534SOL    HW211031   4.739   4.707   2.118 -1.1854 -0.5228  0.4826
 3535SOL     OW11032   1.404   5.348   5.048  0.2171 -0.7196 -0.4753
 3535SOL    HW111033   1.496   5.361   5.073  0.6175 -0.9774 -1.7675
 3535SOL    HW211034   1.356   5.360   5.130  1.2958  0.4602  0.0240
 3536SOL     OW11035   3.844   3.350   4.330  0.0412  0.4506 -0.8889
 3536SOL    HW111036   3.823   3.442   4.314  0.1160  0.7450  0.5692
 3536SOL    HW211037   3.833   3.339   4.425  0.3992 -0.9465 -0.9893
 3537SOL     OW11038   1.301   5.118   4.348 -0.0824 -0.3339 -0.5058
 3537SOL    HW111039   1.249   5.172   4.289 -0.0190 -1.5314 -1.7017
 3537SOL    HW211040   1.239   5.089   4.415 -0.6451 -0.6821 -1.1759
 3538SOL     OW11041   4.822   0.193   1.616  0.3841  0.1750  0.2913
 3538SOL    HW111042   4.850   0.105   1.639 -0.9555  0.0970  1.8124
 3538SOL    HW211043   4.726   0.191   1.626  0.4087  2.0377  1.3046
 3539SOL     OW11044   4.339   1.021   3.605  0.4758  0.2313 -0.1089
 3539SOL    HW111045   4.278   1.006   3.533  0.6348 -2.4841  0.2468
 3539SOL    HW211046   4.285   1.016   3.684  0.8314 -0.2362  0.1099
 3540SOL     OW11047   3.931   0.234   0.025 -0.7245  0.0824  0.1450
 3540SOL    HW111048   3.858   0.189   0.066 -0.5279 -0.4850 -0.1088
 3540SOL    HW211049   3.985   0.265   0.097 -0.4986 -0.7071  0.3218
 3541SOL     OW11050   0.033   3.692   0.252 -0.1648 -0.2778 -0.1186
 3541SOL    HW111051  -0.041   3.752   0.259 -0.6393 -0.7783 -0.6522
 3541SOL    HW211052   0.003   3.613   0.298  0.3943 -0.1695  0.4502
 3542SOL     OW11053   4.812   5.820   3.631  0.5765 -0.3547 -0.3922
 3542SOL    HW111054   4.784   5.808   3.540 -1.4096  1.4090 -0.1036
 3542SOL    HW211055   4.834   5.914   3.637  1.1430 -0.5457  0.8456
 3543SOL     OW11056   6.127   2.662   3.612 -0.2820  0.3539 -0.7624
 3543SOL    HW111057   6.038   2.661   3.578 -0.4419 -1.0867 -0.3696
 3543SOL    HW211058   6.175   2.601   3.556  0.8453  2.1870 -1.8806
 3544SOL     OW11059   5.391   1.935   0.280 -0.4256  0.0277 -0.7520
 3544SOL    HW111060   5.456   1.911   0.215  0.6146 -1.2866  0.6917
 3544SOL    HW211061   5.339   1.855   0.292  1.3240 -0.8202  2.1473
 3545SOL     OW11062   4.489   2.575   5.912  0.8208 -0.3877 -0.5602
 3545SOL    HW111063   4.513   2.483   5.926 -1.3140 -1.3599 -2.6097
 3545SOL    HW211064   4.416   2.571   5.850  1.2166  2.7616 -1.3675
 3546SOL     OW11065   6.079   3.064   2.441  0.7486  0.3326  0.4144
 3546SOL    HW111066   6.002   3.064   2.498  0.8830  0.5250  0.5954
 3546SOL    HW211067   6.124   2.983   2.461 -0.4835 -0.8172 -1.1524
 3547SOL     OW11068   5.474   0.845   4.304 -0.3026 -0.6242  0.4544
 3547SOL    HW111069   5.386   0.884   4.301 -0.9112 -1.9857 -0.0666
 3547SOL    HW211070   5.490   0.815   4.215  1.2734  0.7710  0.2141
 3548SOL     OW11071   4.367   2.679   3.949  0.6085 -0.1932 -0.0599
 3548SOL    HW111072   4.425   2.753   3.965  1.5624 -1.2769  1.8994
 3548SOL    HW211073   4.301   2.684   4.018 -0.6735  0.0593 -1.2498
 3549SOL     OW11074   4.484   4.019   0.607  0.5144 -0.1419  0.2626
 3549SOL    HW111075   4.397   3.989   0.632  0.0426  0.8866 -0.1049
 3549SOL    HW211076   4.481   4.027   0.512  0.5395  1.2923  0.3629
 3550SOL     OW11077   0.360   5.136   0.875  0.6299  0.0689 -0.3015
 3550SOL    HW111078   0.391   5.143   0.966  0.3190 -1.4956 -0.0449
 3550SOL    HW211079   0.314   5.053   0.872 -0.4400  0.6773 -1.6029
 3551SOL     OW11080   3.941   4.204   3.675  0.0327 -0.3089  0.2450
 3551SOL    HW111081   3.894   4.183   3.594  3.1162 -3.3447 -1.0006
 3551SOL    HW211082   3.946   4.122   3.723  0.9306  0.7415  2.0815
 3552SOL     OW11083   4.691   1.579   2.403  0.5303 -0.1394  0.3532
 3552SOL    HW111084   4.597   1.588   2.422  0.4673  0.1352 -0.0611
 3552SOL    HW211085   4.704   1.486   2.389  0.1285 -0.0763 -0.5095
 3553SOL     OW11086   3.343   5.698   5.514  0.5478  0.0837  0.3231
 3553SOL    HW111087   3.321   5.738   5.429  0.0138 -0.2852  0.2824
 3553SOL    HW211088   3.425   5.739   5.539  0.6594  0.2688 -0.3300
 3554SOL     OW11089   1.701   1.959   0.950 -0.2426  0.3516  0.2060
 3554SOL    HW111090   1.664   2.014   1.018  0.0862  2.5531 -1.3012
 3554SOL    HW211091   1.730   1.880   0.996 -0.1286  1.6961  2.5832
 3555SOL     OW11092   0.606   4.354   4.311  0.1173 -0.8342  0.4041
 3555SOL    HW111093   0.513   4.339   4.291 -0.4264  0.9030  1.4577
 3555SOL    HW211094   0.647   4.364   4.225 -0.9649 -0.1025 -0.0595
 3556SOL     OW11095   5.508   5.739   4.009  0.0751 -0.0196  0.4664
 3556SOL    HW111096   5.537   5.830   4.010 -0.2364  0.1088 -0.5702
 3556SOL    HW211097   5.413   5.744   4.004 -0.2545 -0.4357  3.9204
 3557SOL     OW11098   0.348   0.407   3.546  0.4369  0.2725 -0.3320
 3557SOL    HW111099   0.299   0.374   3.622  0.4096  0.3186 -0.3303
 3557SOL    HW211100   0.419   0.343   3.535 -0.8891 -1.0349 -1.6917
 3558SOL     OW11101   1.195   5.538   5.695 -0.1381 -0.1888  0.5000
 3558SOL    HW111102   1.255   5.577   5.630  0.7808 -0.7697  0.9750
 3558SOL    HW211103   1.109   5.544   5.654  0.6152 -2.3547 -1.7290
 3559SOL     OW11104   4.877   4.642   1.804 -0.3360  0.0461  0.8636
 3559SOL    HW111105   4.879   4.672   1.713 -1.5809 -0.9712  0.4809
 3559SOL    HW211106   4.850   4.551   1.799  0.9565 -0.4402  2.1811
 3560SOL     OW11107   3.899   2.247   2.063 -0.1766  1.0096 -0.1328
 3560SOL    HW111108   3.912   2.250   2.157  2.6212  1.4159 -0.4377
 3560SOL    HW211109   3.967   2.305   2.027  1.2386 -1.8420 -2.5208
 3561SOL     OW11110   0.862   1.738   3.582 -0.6506 -0.5470 -0.1340
 3561SOL    HW111111   0.866   1.810   3.646  0.2246 -0.2303 -0.5261
 3561SOL    HW211112   0.950   1.701   3.583 -0.2216  0.3038 -2.0884
 3562SOL     OW11113   5.403   2.155   4.630 -0.9306  0.2796 -0.0476
 3562SOL    HW111114   5.449   2.073   4.614 -1.2122 -0.2088  1.4609
 3562SOL    HW211115   5.471   2.222   4.626 -0.4413 -0.1967  0.1255
 3563SOL     OW11116   2.493   0.829   1.551  0.1149 -0.1646  0.3258
 3563SOL    HW111117   2.408   0.790   1.530 -0.2801  0.7899  0.1093
 3563SOL    HW211118   2.503   0.900   1.488  0.4927  0.5434  1.1695
 3564SOL     OW11119   5.942   2.581   2.655 -0.2801  0.1479  0.1935
 3564SOL    HW111120   5.890   2.601   2.577 -1.2217 -2.8238 -0.0380
 3564SOL    HW211121   5.899   2.630   2.725 -1.4987  0.1799 -0.5490
 3565SOL     OW11122   5.912   4.166   2.823 -0.2060 -0.2525 -0.1518
 3565SOL    HW111123   5.963   4.177   2.743 -0.8755  0.6654 -0.4734
 3565SOL    HW211124   5.850   4.096   2.803  0.5496 -0.9953  0.0559
 3566SOL     OW11125   1.226   5.744   2.821 -0.2816  0.2411 -0.3102
 3566SOL    HW111126   1.270   5.670   2.779  2.4159  1.8702 -0.5800
 3566SOL    HW211127   1.253   5.739   2.912 -1.3722  0.0719  0.0260
 3567SOL     OW11128   3.043   0.199   5.504 -0.6129  0.0101  0.3112
 3567SOL    HW111129   2.956   0.234   5.487 -0.8358 -0.5888  0.2151
 3567SOL    HW211130   3.031   0.105   5.511  0.1132 -0.1385 -0.2780
 3568SOL     OW11131   2.516   2.129   5.387  0.0397  0.4919 -0.0258
 3568SOL    HW111132   2.555   2.173   5.311 -0.6096 -0.9831 -1.2760
 3568SOL    HW211133   2.587   2.075   5.422  0.1755  0.7180  0.0493
 3569SOL     OW11134   2.093   5.015   3.937 -0.6362 -0.3940 -0.2568
 3569SOL    HW111135   2.083   5.110   3.950  1.0543 -0.0867 -0.8592
 3569SOL    HW211136   2.065   4.977   4.020  2.0284  0.9387  1.4121
 3570SOL     OW11137   6.014   3.327   3.704  0.3995  0.5037  0.0635
 3570SOL    HW111138   6.055   3.380   3.636 -1.1074  4.0393  1.6313
 3570SOL    HW211139   5.948   3.275   3.657  3.2562 -1.7408 -1.8049
 3571SOL     OW11140   5.793   4.009   5.602 -0.4480 -0.2014  0.6862
 3571SOL    HW111141   5.747   4.005   5.519  0.9585  1.0624 -0.2151
 3571SOL    HW211142   5.862   4.075   5.588 -0.4590  0.3937  2.9953
 3572SOL     OW11143   2.792   4.308   3.501  0.3337 -0.0318  0.0744
 3572SOL    HW111144   2.870   4.302   3.446  0.7061 -1.0202  0.6889
 3572SOL    HW211145   2.757   4.219   3.504  0.5815 -0.1100  1.7732
 3573SOL     OW11146   3.895   4.907   1.091  0.1642 -0.1194 -0.5559
 3573SOL    HW111147   3.871   4.906   1.184 -0.5824  1.6294 -0.7019
 3573SOL    HW211148   3.818   4.873   1.046  0.6970 -1.4157 -0.5332
 3574SOL     OW11149   4.775   5.896   6.200  0.0938  0.5388 -0.0459
 3574SOL    HW111150   4.805   5.966   6.258  2.3805 -0.0016 -0.4808
 3574SOL    HW211151   4.738   5.831   6.260  2.1017  0.1414  0.8779
 3575SOL     OW11152   3.571   3.790   5.135  0.4744 -0.5901 -0.5412
 3575SOL    HW111153   3.662   3.763   5.145  0.3961 -0.5687  0.2300
 3575SOL    HW211154   3.567   3.877   5.175  0.3760 -0.0667 -1.6333
 3576SOL     OW11155   2.267   5.012   0.306 -1.0579 -0.1294  0.2013
 3576SOL    HW111156   2.313   4.928   0.297  0.0542  0.5461 -0.8134
 3576SOL    HW211157   2.285   5.039   0.396 -1.0276 -0.7575  0.3902
 3577SOL     OW11158   5.401   4.604   1.658  0.2572 -0.2077 -0.0581
 3577SOL    HW111159   5.394   4.564   1.744  0.5356  0.1938  0.1517
 3577SOL    HW211160   5.492   4.592   1.632 -0.1170 -1.4810 -0.8666
 3578SOL     OW11161   0.635   1.846   5.237 -0.4839 -0.3471  0.0489
 3578SOL    HW111162   0.611   1.844   5.144 -0.0833  0.2911 -0.0696
 3578SOL    HW211163   0.715   1.897   5.240 -0.8269  0.1569  0.8262
 3579SOL     OW11164   3.415   3.815   1.593  1.0064  0.2083  0.3382
 3579SOL    HW111165   3.480   3.749   1.569  1.3470  0.5829  0.2161
 3579SOL    HW211166   3.331   3.776   1.569  1.3231  0.4913 -1.3335
 3580SOL     OW11167   1.550   0.316   2.068  0.1311  0.1360  0.1873
 3580SOL    HW111168   1.481   0.371   2.031  1.0769  1.3370  0.1412
 3580SOL    HW211169   1.596   0.280   1.992  1.0752  1.3217  0.1712
 3581SOL     OW11170   3.856   5.700   3.264 -0.4435 -0.1941 -0.2749
 3581SOL    HW111171   3.822   5.695   3.174 -0.4604  3.5372 -0.6200
 3581SOL    HW211172   3.950   5.713   3.253 -0.4796  0.5062  0.2173
 3582SOL     OW11173   2.705   2.183   5.121  0.1351 -0.1763 -0.1656
 3582SOL    HW111174   2.711   2.178   5.026  2.7061  0.2869 -0.0952
 3582SOL    HW211175   2.763   2.114   5.153  0.0582  0.3003  1.0773
 3583SOL     OW11176   0.078   0.626   1.043 -0.5542  0.3819  0.1426
 3583SOL    HW111177   0.105   0.677   1.119 -1.7858  1.6267 -0.2247
 3583SOL    HW211178   0.040   0.546   1.081  0.3688  0.2025  0.7496
 3584SOL     OW11179   5.112   1.416   5.480 -0.0763  0.6977 -0.1845
 3584SOL    HW111180   5.201   1.447   5.464  0.6944 -0.9315  0.7608
 3584SOL    HW211181   5.069   1.420   5.395  0.3796  2.9501 -0.3833
 3585SOL     OW11182   5.693   3.422   3.184 -0.0952  0.2064 -0.0706
 3585SOL    HW111183   5.728   3.407   3.095  0.1060  1.6357 -0.2528
 3585SOL    HW211184   5.729   3.507   3.209  0.6749 -0.6276  1.8078
 3586SOL     OW11185   1.946   5.039   0.333 -0.0963 -0.9267 -0.3619
 3586SOL    HW111186   1.930   4.946   0.316  0.6508 -0.7918 -2.0187
 3586SOL    HW211187   1.893   5.085   0.268 -1.2617 -0.1300  1.1082
 3587SOL     OW11188   2.751   0.107   5.177 -0.4712 -0.1848 -0.0220
 3587SOL    HW111189   2.797   0.023   5.174  1.8144  0.9930 -0.5304
 3587SOL    HW211190   2.775   0.150   5.095  0.6918  2.0325  1.3824
 3588SOL     OW11191   4.323   3.958   5.666 -0.2385  0.0633 -0.5405
 3588SOL    HW111192   4.320   4.033   5.725 -0.2508  0.0880 -0.5725
 3588SOL    HW211193   4.248   3.970   5.607  0.3720  0.5840 -1.2213
 3589SOL     OW11194   0.658   2.123   5.568 -0.5584  0.3693  0.8141
 3589SOL    HW111195   0.752   2.108   5.562  0.0954  3.4631  1.2710
 3589SOL    HW211196   0.645   2.157   5.657 -1.9479  0.7316  0.4955
 3590SOL     OW11197   3.970   4.308   4.277  0.3442 -0.2010  0.1704
 3590SOL    HW111198   3.887   4.355   4.282 -0.1446 -0.9741 -0.4004
 3590SOL    HW211199   4.034   4.369   4.314 -0.0693  1.3791 -1.5447
 3591SOL     OW11200   2.217   5.755   0.413 -0.3168  0.1606 -0.3638
 3591SOL    HW111201   2.194   5.691   0.480 -2.5103  0.6552 -0.5797
 3591SOL    HW211202   2.287   5.713   0.363 -1.3615 -1.9026 -0.2165
 3592SOL     OW11203   4.127   4.195   1.156  0.4601  0.0614  0.3533
 3592SOL    HW111204   4.213   4.161   1.134 -0.0821 -0.1262 -1.6029
 3592SOL    HW211205   4.072   4.175   1.081 -1.2371  0.4518  1.4165
 3593SOL     OW11206   0.699   3.751   3.557 -0.0003 -0.9096  0.0005
 3593SOL    HW111207   0.606   3.753   3.578  0.1811 -0.3031  0.8060
 3593SOL    HW211208   0.743   3.757   3.642  0.7846 -2.0254 -0.3061
 3594SOL     OW11209   1.583   4.771   2.133  0.1466 -0.0724 -0.5622
 3594SOL    HW111210   1.523   4.718   2.080  1.3103 -0.2044 -1.8054
 3594SOL    HW211211   1.548   4.860   2.127 -0.4637 -0.3060 -0.4771
 3595SOL     OW11212   2.303   2.669   5.362  0.0451  0.0920  0.1142
 3595SOL    HW111213   2.355   2.679   5.281  0.7035  0.1701  0.5390
 3595SOL    HW211214   2.342   2.594   5.407  0.5329  0.8372  0.9762
 3596SOL     OW11215   4.313   5.367   0.369 -0.1037 -0.1700 -0.9125
 3596SOL    HW111216   4.256   5.381   0.445 -1.2483 -0.3671 -1.7175
 3596SOL    HW211217   4.394   5.330   0.407 -1.0843 -1.3686  0.1149
 3597SOL     OW11218   5.282   1.002   0.493 -0.1324  0.1444 -0.0167
 3597SOL    HW111219   5.259   0.944   0.566 -2.3526  0.8481 -0.0659
 3597SOL    HW211220   5.250   1.088   0.519  0.5595  0.7649 -1.1197
 3598SOL     OW11221   3.567   1.543   3.358 -0.2186  0.6200 -0.7600
 3598SOL    HW111222   3.508   1.604   3.313 -0.2608 -1.1570 -3.2825
 3598SOL    HW211223   3.654   1.568   3.329 -0.0584  0.6562 -0.2672
 3599SOL     OW11224   1.928   0.599   1.179 -0.2394  0.6936 -0.5807
 3599SOL    HW111225   1.941   0.679   1.230  1.1947  1.0432 -1.4547
 3599SOL    HW211226   1.871   0.626   1.107 -1.4984  0.4089  0.2638
 3600SOL     OW11227   5.224   0.836   2.202 -0.4409 -0.0165  0.0984
 3600SOL    HW111228   5.212   0.921   2.242  2.5647  0.6384 -0.1381
 3600SOL    HW211229   5.160   0.833   2.130 -1.1844  1.6282  0.6604
 3601SOL     OW11230   0.208   4.406   5.158  0.0534  0.7611 -0.3576
 3601SOL    HW111231   0.231   4.395   5.250  2.5350 -0.5173 -1.0285
 3601SOL    HW211232   0.199   4.317   5.124  0.4806  1.1654 -1.6005
 3602SOL     OW11233   2.412   5.705   5.412 -0.0364 -0.0854 -0.0988
 3602SOL    HW111234   2.491   5.660   5.441  1.1020  0.9823 -1.3727
 3602SOL    HW211235   2.411   5.787   5.462 -1.6312 -1.0529  1.5852
 3603SOL     OW11236   4.546   0.800   5.004 -0.1724  0.4793  0.1579
 3603SOL    HW111237   4.557   0.759   4.918  3.0447 -1.6086  1.3747
 3603SOL    HW211238   4.629   0.845   5.020 -0.8522  1.1620  2.0117
 3604SOL     OW11239   0.809   5.930   4.101  0.1353  0.2522 -0.1549
 3604SOL    HW111240   0.862   5.942   4.179  0.7088  1.1919 -0.6704
 3604SOL    HW211241   0.861   5.873   4.044  0.6010  1.1549 -0.6504
 3605SOL     OW11242   5.172   2.416   1.278  0.2115 -0.2854  0.0923
 3605SOL    HW111243   5.115   2.488   1.306 -0.3701  0.4523 -2.6929
 3605SOL    HW211244   5.126   2.337   1.306  0.1103  0.3317  1.8478
 3606SOL     OW11245   0.587   5.847   3.233  0.0967  0.5284  0.5833
 3606SOL    HW111246   0.653   5.868   3.167 -1.5451  1.2746 -0.9161
 3606SOL    HW211247   0.532   5.925   3.238 -1.2240 -0.3911  1.0758
 3607SOL     OW11248   2.058   0.226   5.960 -0.0725 -0.3999  0.0976
 3607SOL    HW111249   1.989   0.267   6.012  1.9600  2.5203  0.7439
 3607SOL    HW211250   2.085   0.294   5.899  0.1313 -2.5359 -2.3441
 3608SOL     OW11251   5.922   2.976   3.338  0.0391 -0.4089 -0.5570
 3608SOL    HW111252   5.944   2.929   3.258 -2.4908 -1.3059 -0.8100
 3608SOL    HW211253   5.857   3.041   3.311  1.2419  1.2575  0.3262
 3609SOL     OW11254   2.195   1.199   5.344  0.4209 -0.1941 -0.1499
 3609SOL    HW111255   2.275   1.240   5.377 -0.0968 -0.4246  1.4750
 3609SOL    HW211256   2.211   1.105   5.353  0.0227 -0.2430  0.0736
 3610SOL     OW11257   4.917   5.095   5.645  0.0729  0.1637  0.0334
 3610SOL    HW111258   4.920   5.059   5.556 -0.3391  0.4930 -0.1195
 3610SOL    HW211259   4.835   5.144   5.648  0.6813  1.1997  0.1909
 3611SOL     OW11260   5.695   2.383   2.657  0.0466 -0.9138  0.0483
 3611SOL    HW111261   5.745   2.418   2.582  0.0602  1.4925  1.1000
 3611SOL    HW211262   5.604   2.396   2.633  0.0498 -0.1918  0.4162
 3612SOL     OW11263   5.726   2.897   6.100  0.2342 -0.0490 -0.0854
 3612SOL    HW111264   5.771   2.836   6.042 -1.3889 -0.7960 -0.6065
 3612SOL    HW211265   5.697   2.843   6.174 -3.0392 -0.4743 -1.5210
 3613SOL     OW11266   3.272   1.712   4.664  0.2671 -0.0879  0.3102
 3613SOL    HW111267   3.216   1.642   4.696 -0.0858 -0.0335 -0.1818
 3613SOL    HW211268   3.313   1.677   4.586  0.8553 -0.0923  0.6113
 3614SOL     OW11269   2.226   3.550   4.543 -0.9052  0.1565  0.2746
 3614SOL    HW111270   2.250   3.626   4.491  0.4790  0.2342  1.0034
 3614SOL    HW211271   2.197   3.485   4.478  0.2856  0.4345 -0.5648
 3615SOL     OW11272   5.833   0.308   0.663 -0.5637  0.2094 -0.3253
 3615SOL    HW111273   5.769   0.294   0.734 -0.3225  0.9477  0.0418
 3615SOL    HW211274   5.814   0.238   0.601 -1.5020  0.2059 -0.0537
 3616SOL     OW11275   0.173   2.822   6.125  0.5562 -0.2368 -0.0156
 3616SOL    HW111276   0.229   2.777   6.061 -0.7605 -1.0944 -0.6156
 3616SOL    HW211277   0.114   2.753   6.158 -0.9155  0.8351 -0.2882
 3617SOL     OW11278   4.830   2.474   0.213  0.6022  0.3992 -0.1902
 3617SOL    HW111279   4.910   2.521   0.191  0.0121  1.2035 -0.6857
 3617SOL    HW211280   4.824   2.405   0.146 -0.0195  1.4404 -1.2498
 3618SOL     OW11281   4.733   0.725   5.250  0.8014  0.6019  0.3032
 3618SOL    HW111282   4.780   0.652   5.210  1.2429 -0.1754  2.1391
 3618SOL    HW211283   4.648   0.725   5.208  0.3707 -1.7311  1.0419
 3619SOL     OW11284   5.656   0.302   4.149  0.3107  0.6120  0.2914
 3619SOL    HW111285   5.702   0.271   4.072  1.3095  0.1204  1.0602
 3619SOL    HW211286   5.565   0.314   4.120  0.2921 -1.1925 -0.5128
 3620SOL     OW11287   3.054   4.982   0.533  0.4116  0.4182 -0.3458
 3620SOL    HW111288   3.040   5.056   0.591 -0.0966  0.5189 -0.5951
 3620SOL    HW211289   3.030   5.014   0.446 -0.6420 -0.2853 -0.3275
 3621SOL     OW11290   4.528   1.698   4.677  0.7007 -0.2704 -0.1197
 3621SOL    HW111291   4.541   1.684   4.771  2.3114 -2.3462 -0.5766
 3621SOL    HW211292   4.434   1.707   4.668  0.4682 -0.3781  1.6652
 3622SOL     OW11293   1.528   4.371   0.040  0.6620 -0.2094  0.0835
 3622SOL    HW111294   1.574   4.298   0.083  0.3319 -0.5687 -0.1684
 3622SOL    HW211295   1.551   4.362  -0.052  2.4667  1.3550  0.3184
 3623SOL     OW11296   3.239   3.110   1.782 -0.6308 -0.1238  0.1396
 3623SOL    HW111297   3.315   3.098   1.839 -0.3416 -2.9467 -0.6801
 3623SOL    HW211298   3.269   3.170   1.714  1.0311 -1.4941 -0.3785
 3624SOL     OW11299   2.382   2.625   1.436  0.1390  0.3704 -0.8060
 3624SOL    HW111300   2.395   2.716   1.412  1.6909 -0.0023 -1.4939
 3624SOL    HW211301   2.436   2.575   1.375  0.8140 -0.8903  0.7382
 3625SOL     OW11302   5.768   4.046   1.848 -0.1812 -0.2490 -0.8562
 3625SOL    HW111303   5.736   3.958   1.869  0.5072 -0.2962  0.0894
 3625SOL    HW211304   5.863   4.036   1.844 -0.0162  0.6381  0.2498
 3626SOL     OW11305   5.221   2.072   4.227  0.3110  0.2749  0.2363
 3626SOL    HW111306   5.275   2.030   4.294  2.0810  0.5780 -0.9156
 3626SOL    HW211307   5.156   2.005   4.203  0.5760 -0.3534  1.2189
 3627SOL     OW11308   0.889   0.935   2.524 -0.1687  0.1848  0.0503
 3627SOL    HW111309   0.984   0.940   2.510 -0.4144  1.0557 -1.5789
 3627SOL    HW211310   0.852   0.979   2.447 -1.9178 -0.7687  0.3185
 3628SOL     OW11311   2.408   4.329   4.327  0.2594  0.2207 -0.0638
 3628SOL    HW111312   2.380   4.251   4.373 -0.4997  1.0695  0.9566
 3628SOL    HW211313   2.364   4.324   4.242 -2.2894  1.0141  1.1218
 3629SOL     OW11314   5.972   1.367   6.106  0.2309  0.2770  0.3705
 3629SOL    HW111315   5.954   1.275   6.084  1.2980  0.1929 -0.1995
 3629SOL    HW211316   5.886   1.403   6.129 -0.5504 -0.3492 -1.3648
 3630SOL     OW11317   1.064   3.726   1.539  1.0118 -0.2559  0.0707
 3630SOL    HW111318   1.042   3.665   1.469  0.1711 -0.1609  0.2439
 3630SOL    HW211319   1.087   3.807   1.494  1.3228 -0.4482 -0.1239
 3631SOL     OW11320   1.416   0.489   1.517  0.6531 -0.0925 -1.0014
 3631SOL    HW111321   1.369   0.453   1.593  1.3724  0.5527 -0.2247
 3631SOL    HW211322   1.422   0.416   1.456  0.1541 -0.6610 -0.3899
 3632SOL     OW11323   3.442   0.753   0.638  0.0298  0.0297 -0.1088
 3632SOL    HW111324   3.518   0.696   0.642 -0.2930 -0.7091 -2.7371
 3632SOL    HW211325   3.474   0.833   0.598 -0.1258  0.6526  0.9600
 3633SOL     OW11326   2.398   5.775   3.671  0.0387 -0.1543  0.2387
 3633SOL    HW111327   2.407   5.695   3.618  0.4114  1.3258 -2.1052
 3633SOL    HW211328   2.488   5.799   3.693  0.0397  0.3945 -0.3395
 3634SOL     OW11329   3.748   5.941   6.231 -0.0218  1.0756 -0.0794
 3634SOL    HW111330   3.817   5.902   6.285 -0.2755  0.4255 -0.2138
 3634SOL    HW211331   3.690   5.984   6.294  0.6289  1.8324  0.0144
 3635SOL     OW11332   3.473   5.192   2.260  0.1100 -0.3131  0.0009
 3635SOL    HW111333   3.551   5.165   2.309  1.5313  0.3620 -1.8028
 3635SOL    HW211334   3.476   5.141   2.179 -0.4477  0.8644 -0.7890
 3636SOL     OW11335   3.374   5.146   5.538  0.3645  0.0184  0.1671
 3636SOL    HW111336   3.459   5.102   5.535  0.7951  0.8538  0.0583
 3636SOL    HW211337   3.388   5.223   5.593 -0.2280  0.3639 -0.1534
 3637SOL     OW11338   4.420   5.383   0.061  0.1565 -0.1945 -0.4571
 3637SOL    HW111339   4.332   5.377   0.100 -0.4033 -0.1974 -1.6771
 3637SOL    HW211340   4.478   5.350   0.129 -0.6177  1.1443  0.9165
 3638SOL     OW11341   0.627   5.574   5.132 -0.5168  0.0647  0.4375
 3638SOL    HW111342   0.648   5.569   5.039 -0.5898  0.6405  0.3848
 3638SOL    HW211343   0.598   5.486   5.155 -4.5981  0.7897 -1.0725
 3639SOL     OW11344   1.625   3.285   4.679  0.1809 -0.0129 -0.1015
 3639SOL    HW111345   1.702   3.331   4.646 -0.5992 -0.0417 -2.1060
 3639SOL    HW211346   1.551   3.331   4.640 -1.0005  1.1081  3.1587
 3640SOL     OW11347   6.045   0.160   6.235  0.2371  0.3008 -0.0403
 3640SOL    HW111348   6.045   0.233   6.297 -0.6309 -0.4439  0.8672
 3640SOL    HW211349   5.960   0.166   6.191 -0.5642 -1.0937  1.2194
 3641SOL     OW11350   4.300   2.482   5.278  0.4002 -0.1309  0.4159
 3641SOL    HW111351   4.235   2.421   5.310 -0.7372 -1.0697 -3.1554
 3641SOL    HW211352   4.383   2.452   5.315 -0.4714 -2.4124  0.6543
 3642SOL     OW11353   3.731   4.508   4.951  0.6271  0.6751 -0.2423
 3642SOL    HW111354   3.777   4.427   4.975  1.1528  0.9281 -0.3843
 3642SOL    HW211355   3.657   4.512   5.012  2.1079  1.4805  1.6036
 3643SOL     OW11356   2.825   4.236   4.895 -0.4380 -0.1609 -0.3520
 3643SOL    HW111357   2.882   4.198   4.961 -2.8401 -2.2408  0.6879
 3643SOL    HW211358   2.833   4.331   4.907  1.5685 -0.4301  0.7322
 3644SOL     OW11359   0.968   0.143   0.254  0.6393  0.5099 -0.1292
 3644SOL    HW111360   0.939   0.055   0.231  0.6089  0.6627 -0.6783
 3644SOL    HW211361   1.021   0.131   0.334 -0.7834  0.2097  0.8020
 3645SOL     OW11362   1.453   1.900   3.145  0.4452  0.2263  0.3800
 3645SOL    HW111363   1.445   1.982   3.096  0.0854 -0.3023 -0.4667
 3645SOL    HW211364   1.388   1.842   3.105  1.2666 -0.7429  0.4092
 3646SOL     OW11365   4.824   2.088   2.268  0.6833 -0.3969  0.4759
 3646SOL    HW111366   4.899   2.059   2.320  0.9660 -0.4320  0.0483
 3646SOL    HW211367   4.786   2.160   2.318  1.8219  0.5508  0.0198
 3647SOL     OW11368   0.981   0.874   4.108 -0.0287 -0.1613 -0.0525
 3647SOL    HW111369   1.006   0.784   4.086 -1.3201 -0.4932 -0.2171
 3647SOL    HW211370   0.998   0.924   4.029 -1.3088 -0.6743 -0.6679
 3648SOL     OW11371   0.319   5.540   0.848  0.1365 -0.0198  0.5649
 3648SOL    HW111372   0.321   5.516   0.755  0.7360 -1.3466  0.8961
 3648SOL    HW211373   0.391   5.602   0.859 -0.0986  0.3373  0.0944
 3649SOL     OW11374   3.978   3.069   0.016  0.5412  0.2447  0.3069
 3649SOL    HW111375   4.002   3.141   0.075 -4.2513  1.3362  1.3111
 3649SOL    HW211376   3.947   3.000   0.075 -0.6165 -0.2250 -0.8289
 3650SOL     OW11377   2.628   3.083   3.304  0.0605  0.5267  0.4674
 3650SOL    HW111378   2.675   3.122   3.230 -1.3761 -1.0607 -1.3992
 3650SOL    HW211379   2.695   3.071   3.372  2.3484 -1.2261 -1.8740
 3651SOL     OW11380   3.902   3.646   0.158  0.1780  0.4062  0.1153
 3651SOL    HW111381   3.871   3.704   0.088 -0.9198  0.1550  0.3770
 3651SOL    HW211382   3.937   3.705   0.225  1.1183  0.6557 -0.5755
 3652SOL     OW11383   5.438   0.099   6.217  0.2955 -0.7948 -0.0115
 3652SOL    HW111384   5.421   0.191   6.235  0.7573 -0.0649 -2.8121
 3652SOL    HW211385   5.481   0.066   6.296  0.1527  1.3858  1.0319
 3653SOL     OW11386   5.393   0.791   4.047  0.2705 -0.0934 -0.3400
 3653SOL    HW111387   5.399   0.696   4.040  0.9558 -0.0123 -0.9054
 3653SOL    HW211388   5.302   0.807   4.072  0.3903 -0.9461  0.7428
 3654SOL     OW11389   5.381   5.520   2.908 -0.0890 -0.4491  0.8508
 3654SOL    HW111390   5.377   5.569   2.990 -0.7555  0.5003  0.2815
 3654SOL    HW211391   5.435   5.574   2.850 -0.7876 -0.4005  0.2292
 3655SOL     OW11392   1.697   5.409   5.959 -0.2579 -0.0402 -0.2264
 3655SOL    HW111393   1.682   5.502   5.978 -2.8484 -0.7069  1.5454
 3655SOL    HW211394   1.654   5.394   5.875  0.8704  0.4850 -0.9204
 3656SOL     OW11395   3.159   4.468   6.003 -0.9010 -0.2440  0.3833
 3656SOL    HW111396   3.072   4.442   5.972 -0.3774 -2.7658  0.8011
 3656SOL    HW211397   3.203   4.385   6.025  1.8740  0.8869 -0.4540
 3657SOL     OW11398   0.143   1.560   5.925 -0.0605 -0.4720 -0.1470
 3657SOL    HW111399   0.063   1.518   5.893  0.5859 -1.6310 -0.2626
 3657SOL    HW211400   0.112   1.630   5.982 -1.1559 -0.9463 -0.1448
 3658SOL     OW11401   4.801   6.076   4.096 -0.5118 -0.4186 -0.0798
 3658SOL    HW111402   4.743   6.030   4.035 -1.7435  1.3393 -0.3370
 3658SOL    HW211403   4.745   6.144   4.134  1.5646  1.9330 -0.9712
 3659SOL     OW11404   5.090   5.923   1.015 -0.3857 -0.7799 -0.4822
 3659SOL    HW111405   5.001   5.908   1.047 -0.7793  1.2678 -0.4680
 3659SOL    HW211406   5.135   5.966   1.087 -0.6715  1.9794 -1.8076
 3660SOL     OW11407   4.158   0.784   2.627  0.1442 -0.2272  0.0533
 3660SOL    HW111408   4.071   0.801   2.592  0.1202 -0.4910 -0.0197
 3660SOL    HW211409   4.180   0.696   2.595 -0.6417 -1.2844  2.2446
 3661SOL     OW11410   2.546   3.923   1.494 -0.0394 -0.6853  0.1014
 3661SOL    HW111411   2.463   3.874   1.502 -0.5431  0.1141 -0.0893
 3661SOL    HW211412   2.541   3.990   1.562  1.0803 -1.4836  0.9967
 3662SOL     OW11413   5.549   2.068   4.047  0.0692  0.2696 -0.5377
 3662SOL    HW111414   5.474   2.096   3.994 -0.6830 -0.6620 -0.0055
 3662SOL    HW211415   5.513   2.057   4.135  0.9191  0.1382 -0.1969
 3663SOL     OW11416   5.672   2.603   5.886 -0.0764 -0.0082  0.0305
 3663SOL    HW111417   5.610   2.565   5.825 -0.7838  0.7565  0.2511
 3663SOL    HW211418   5.722   2.666   5.833  0.0342 -0.1119  0.0105
 3664SOL     OW11419   3.557   0.758   0.301 -0.5051 -0.3053 -0.2343
 3664SOL    HW111420   3.503   0.837   0.296  1.9524  1.5481  0.4792
 3664SOL    HW211421   3.557   0.735   0.394 -0.0469 -0.2399 -0.2137
 3665SOL     OW11422   4.914   0.532   2.688 -0.0813  0.2824 -0.4537
 3665SOL    HW111423   4.840   0.476   2.710  0.2049 -0.0508 -0.3267
 3665SOL    HW211424   4.897   0.561   2.599 -1.4211  1.9033  0.2893
 3666SOL     OW11425   1.766   0.678   3.388  0.1900  0.2250  0.7262
 3666SOL    HW111426   1.714   0.755   3.364 -1.5232 -0.3835  2.1988
 3666SOL    HW211427   1.851   0.692   3.346 -1.0015  1.4920 -1.4586
 3667SOL     OW11428   3.763   4.498   3.346  0.6233  0.0388  0.1927
 3667SOL    HW111429   3.722   4.570   3.297  0.9017  0.0641 -0.0088
 3667SOL    HW211430   3.840   4.538   3.386  0.7436 -0.1328  0.1333
 3668SOL     OW11431   3.006   6.205   1.362  0.1579 -0.1221 -0.8337
 3668SOL    HW111432   3.039   6.158   1.438 -0.6044  1.3833  0.5056
 3668SOL    HW211433   3.084   6.232   1.314  0.7203 -0.0515  0.0941
 3669SOL     OW11434   5.835   0.533   4.479  0.0402  0.0238 -0.2005
 3669SOL    HW111435   5.904   0.524   4.544 -0.4909  0.6769  0.4726
 3669SOL    HW211436   5.863   0.606   4.424 -0.7615  1.2293  0.9403
 3670SOL     OW11437   0.214   1.050   4.525  0.1925  0.3212 -0.0586
 3670SOL    HW111438   0.261   1.077   4.446 -2.2096  1.4274 -1.2009
 3670SOL    HW211439   0.267   1.084   4.597  1.1338  1.4964 -1.2521
 3671SOL     OW11440   1.943   0.506   4.070 -0.7257  0.4017 -0.0715
 3671SOL    HW111441   1.965   0.449   3.996 -0.7594 -0.5404  0.6180
 3671SOL    HW211442   2.025   0.517   4.117 -0.6278  1.3025 -0.4477
 3672SOL     OW11443   1.252   4.708   0.413  0.3968 -0.0300 -0.2508
 3672SOL    HW111444   1.295   4.763   0.348  1.1906  1.0988  1.1592
 3672SOL    HW211445   1.294   4.622   0.404  1.7189  0.5697 -0.1066
 3673SOL     OW11446   0.265   2.792   3.171  0.2244  0.0750 -0.1372
 3673SOL    HW111447   0.213   2.789   3.252  0.6767 -1.3632  0.1389
 3673SOL    HW211448   0.235   2.716   3.121  1.6091 -0.4379 -0.2399
 3674SOL     OW11449   0.005   5.649   0.288 -0.4103 -0.2783  0.0198
 3674SOL    HW111450  -0.025   5.721   0.233 -0.9798 -0.1313  0.5138
 3674SOL    HW211451   0.099   5.643   0.271 -0.1879  1.1580  0.6274
 3675SOL     OW11452   3.930   6.230   4.668  0.1608  0.0273  0.0111
 3675SOL    HW111453   3.892   6.313   4.697  1.8209  1.7252 -2.3158
 3675SOL    HW211454   3.912   6.227   4.574  0.3343 -2.1842 -0.0116
 3676SOL     OW11455   5.951   0.385   5.315  0.0283 -0.3088 -0.1065
 3676SOL    HW111456   5.998   0.309   5.281 -0.4247 -2.1047  2.8796
 3676SOL    HW211457   6.003   0.461   5.287  1.3789 -1.7985 -1.8506
 3677SOL     OW11458   3.795   2.389   0.236 -0.2268  0.0906 -0.2567
 3677SOL    HW111459   3.870   2.420   0.288 -0.7442  1.4632 -0.2777
 3677SOL    HW211460   3.784   2.455   0.168 -1.0360 -0.4518 -0.6737
 3678SOL     OW11461   1.425   1.432   0.525 -0.3907  0.7680 -0.8556
 3678SOL    HW111462   1.425   1.405   0.433 -1.3222  0.3732 -0.7580
 3678SOL    HW211463   1.491   1.501   0.531 -0.9210  1.4009 -2.0033
 3679SOL     OW11464   5.228   5.079   3.047  0.5944  0.1701 -0.4450
 3679SOL    HW111465   5.151   5.043   3.091  0.6145 -0.4016 -0.8794
 3679SOL    HW211466   5.223   5.173   3.065  1.5650 -0.2041  2.3187
 3680SOL     OW11467   1.959   0.842   5.256  0.1995  0.5131  0.3304
 3680SOL    HW111468   1.966   0.785   5.333  0.2785  0.1380  0.0472
 3680SOL    HW211469   2.048   0.843   5.220 -0.2593 -0.9762 -0.9400
 3681SOL     OW11470   1.925   4.994   2.465  0.2408  0.5803  0.0891
 3681SOL    HW111471   1.999   5.045   2.500 -1.8541  4.2550 -0.2441
 3681SOL    HW211472   1.964   4.938   2.398  2.9484  0.8597  1.2819
 3682SOL     OW11473   2.777   3.740   3.582  0.2998  0.0509  0.3765
 3682SOL    HW111474   2.725   3.710   3.657 -1.2111 -0.7970 -0.9232
 3682SOL    HW211475   2.864   3.704   3.596 -0.5281 -1.9409  0.6859
 3683SOL     OW11476   4.545   5.672   2.125 -0.1920 -0.1675 -0.1029
 3683SOL    HW111477   4.610   5.606   2.148  0.6550  0.6003 -0.2273
 3683SOL    HW211478   4.492   5.631   2.056 -0.3715 -1.0968  0.5722
 3684SOL     OW11479   3.870   4.843   2.355 -0.1514 -0.0179  0.2337
 3684SOL    HW111480   3.956   4.881   2.375 -0.6038  1.1585  0.0560
 3684SOL    HW211481   3.854   4.781   2.426  1.1173 -0.7371 -0.0843
 3685SOL     OW11482   1.443   1.397   4.886  0.0791 -0.4480 -0.0589
 3685SOL    HW111483   1.437   1.467   4.821 -1.6763  0.0488  0.6044
 3685SOL    HW211484   1.361   1.402   4.935  1.0619 -1.2689  1.7503
 3686SOL     OW11485   5.249   0.663   5.002  0.0968 -0.2165  0.1254
 3686SOL    HW111486   5.313   0.655   4.931 -1.7256 -1.6706 -1.4768
 3686SOL    HW211487   5.299   0.693   5.077  2.4777 -0.5120 -1.2625
 3687SOL     OW11488   1.911   1.165   1.461  0.2466  0.3629  0.3455
 3687SOL    HW111489   1.852   1.147   1.534 -0.0487  2.0793  0.5542
 3687SOL    HW211490   1.857   1.209   1.396  0.8353  0.1200 -0.3209
 3688SOL     OW11491   2.653   4.801   4.845  0.2591  0.0272  0.1241
 3688SOL    HW111492   2.711   4.812   4.920 -1.3128  0.9146  1.2613
 3688SOL    HW211493   2.568   4.780   4.883 -0.7852  1.3486 -1.3542
 3689SOL     OW11494   1.090   4.851   1.921  0.3601 -0.3551 -0.2749
 3689SOL    HW111495   1.033   4.780   1.952  1.3849 -1.3891 -0.6583
 3689SOL    HW211496   1.146   4.809   1.856 -0.3782  1.2979 -2.0713
 3690SOL     OW11497   5.823   3.822   4.820  0.0783  0.1705  0.0568
 3690SOL    HW111498   5.804   3.774   4.739  0.2940  0.3060 -0.0737
 3690SOL    HW211499   5.802   3.913   4.798  0.3307  0.2363  0.0908
 3691SOL     OW11500   3.653   0.099   5.071 -0.6147  0.1158  0.4171
 3691SOL    HW111501   3.658   0.005   5.089 -1.8201  0.0994  0.7445
 3691SOL    HW211502   3.718   0.114   5.003 -1.7507 -1.3182 -1.0512
 3692SOL     OW11503   5.902   2.581   6.067 -0.2830  0.5354  0.5459
 3692SOL    HW111504   5.839   2.592   5.995  0.4933 -0.0142 -0.2405
 3692SOL    HW211505   5.973   2.642   6.047  0.2104 -0.0337  0.5269
 3693SOL     OW11506   3.689   3.223   5.072 -0.3499  0.7888  0.1620
 3693SOL    HW111507   3.633   3.147   5.056 -0.4503  1.1807 -1.5344
 3693SOL    HW211508   3.745   3.197   5.145 -1.5106 -0.2827  0.7057
 3694SOL     OW11509   0.403   1.181   1.784  0.0056  0.2148 -0.3430
 3694SOL    HW111510   0.330   1.228   1.743  0.2524  2.4166  1.5449
 3694SOL    HW211511   0.362   1.106   1.827 -0.6559 -0.3628 -1.8784
 3695SOL     OW11512   2.842   2.585   5.353  0.1754  0.1008 -0.0171
 3695SOL    HW111513   2.874   2.603   5.264  1.2302 -2.6922 -0.3027
 3695SOL    HW211514   2.919   2.596   5.408  0.9652 -3.3195 -0.2476
 3696SOL     OW11515   6.169   1.107   2.783 -0.1744  0.1240  0.1191
 3696SOL    HW111516   6.152   1.201   2.783 -0.1785  0.1513 -1.3524
 3696SOL    HW211517   6.082   1.067   2.782 -0.1729  0.1117  0.5512
 3697SOL     OW11518   4.683   1.852   0.061 -0.2770  0.0247  0.1610
 3697SOL    HW111519   4.618   1.872  -0.007 -3.0907  0.3452  2.7426
 3697SOL    HW211520   4.642   1.880   0.142  2.4947 -1.3002  2.1764
 3698SOL     OW11521   4.671   5.255   5.108  0.8214 -0.2062 -0.1518
 3698SOL    HW111522   4.728   5.325   5.140 -0.9143  0.4464  1.7353
 3698SOL    HW211523   4.674   5.189   5.177  1.2057 -1.2917 -1.1892
 3699SOL     OW11524   2.845   1.112   6.235  0.0056  0.6140  0.2648
 3699SOL    HW111525   2.901   1.108   6.157 -0.9787 -0.9795 -0.4242
 3699SOL    HW211526   2.867   1.195   6.276  0.1226  1.8069 -2.0527
 3700SOL     OW11527   5.188   1.858   3.894 -0.6001 -0.1628 -0.0136
 3700SOL    HW111528   5.243   1.929   3.925 -1.5844 -0.2920  2.2404
 3700SOL    HW211529   5.227   1.832   3.810  1.6985  0.8626  0.6592
 3701SOL     OW11530   2.033   2.602   2.237  0.4412  0.3692 -0.1240
 3701SOL    HW111531   2.072   2.590   2.151  0.7773  0.1038  0.0624
 3701SOL    HW211532   1.956   2.544   2.237 -0.4671  1.5441 -0.8026
 3702SOL     OW11533   3.351   5.836   4.827  0.0551  0.0559 -0.1879
 3702SOL    HW111534   3.351   5.910   4.888 -1.6617  0.4576 -0.6225
 3702SOL    HW211535   3.282   5.857   4.764 -1.1566 -2.3438  0.2109
 3703SOL     OW11536   0.146   5.251   3.039  0.1224 -0.4936  0.7251
 3703SOL    HW111537   0.121   5.297   2.959 -0.2450 -1.5575  0.2226
 3703SOL    HW211538   0.103   5.166   3.033  0.4666 -0.7644  1.8397
 3704SOL     OW11539   1.314   2.553   5.741 -0.1355 -0.5453  0.0389
 3704SOL    HW111540   1.231   2.542   5.786  0.4026 -4.2806  0.4860
 3704SOL    HW211541   1.328   2.469   5.697  2.3727  0.7344 -1.8210
 3705SOL     OW11542   5.666   6.220   2.069  0.3738  0.1284  0.0280
 3705SOL    HW111543   5.576   6.190   2.066  0.3708  0.1946 -0.8192
 3705SOL    HW211544   5.709   6.178   1.994  1.1007 -0.0654  0.5358
 3706SOL     OW11545   3.305   3.413   5.809  0.6997 -0.6617 -0.2309
 3706SOL    HW111546   3.224   3.463   5.820  0.3587 -1.3688  0.6005
 3706SOL    HW211547   3.276   3.325   5.786  1.1006 -1.5109  2.2087
 3707SOL     OW11548   5.462   5.997   2.062 -0.1759 -0.0544  0.2224
 3707SOL    HW111549   5.371   6.017   2.084  0.3298  0.6888  1.8074
 3707SOL    HW211550   5.493   5.942   2.134  1.2561  1.5768  0.9484
 3708SOL     OW11551   6.078   4.562   3.734  0.1736  0.5171 -0.2064
 3708SOL    HW111552   6.134   4.620   3.786 -0.3141  0.8044  0.0071
 3708SOL    HW211553   6.015   4.527   3.797  0.7173 -0.5827 -0.2497
 3709SOL     OW11554   5.985   2.270   3.987  0.4446  0.3411  0.2848
 3709SOL    HW111555   6.033   2.275   4.069 -0.7054 -1.2154  1.1210
 3709SOL    HW211556   5.945   2.183   3.989 -1.7449  1.2669 -0.7174
 3710SOL     OW11557   1.238   1.468   4.591 -0.2972  0.4432 -0.4681
 3710SOL    HW111558   1.160   1.514   4.559 -0.9794 -0.1449  0.2905
 3710SOL    HW211559   1.223   1.376   4.566  0.4443  0.4206 -0.8508
 3711SOL     OW11560   0.430   5.522   4.415  0.2674  0.6051  0.5475
 3711SOL    HW111561   0.450   5.588   4.348  0.0710  0.9044  0.7805
 3711SOL    HW211562   0.497   5.455   4.403 -0.1803  0.3013 -0.4218
 3712SOL     OW11563   1.258   5.765   4.764 -0.2461  0.2802 -0.4174
 3712SOL    HW111564   1.263   5.670   4.766 -0.8619  0.2474 -0.2292
 3712SOL    HW211565   1.171   5.785   4.799  0.4029  0.9724  0.8462
 3713SOL     OW11566   0.643   0.848   6.013  0.1720 -0.4138 -0.2618
 3713SOL    HW111567   0.737   0.869   6.015 -0.0162  0.4595 -0.1987
 3713SOL    HW211568   0.602   0.916   6.066 -0.4809 -0.9107 -0.1216
 3714SOL     OW11569   1.899   5.014   6.105 -0.0774 -0.0056 -0.4031
 3714SOL    HW111570   1.834   4.986   6.039  0.5753 -1.5710 -0.4274
 3714SOL    HW211571   1.852   5.010   6.188 -0.3631  0.1109 -0.5569
 3715SOL     OW11572   5.502   1.261   2.669 -0.5440 -0.2490  0.0780
 3715SOL    HW111573   5.530   1.233   2.756  0.1079 -1.6681 -0.5477
 3715SOL    HW211574   5.575   1.312   2.635 -1.4712  1.7604  0.9700
 3716SOL     OW11575   0.087   1.507   1.186  0.7807 -0.0509  0.5581
 3716SOL    HW111576   0.102   1.426   1.136 -1.8347 -0.7217  0.6677
 3716SOL    HW211577   0.041   1.477   1.265 -0.8519  1.5607  0.2763
 3717SOL     OW11578   2.229   3.352   2.776 -0.5622 -0.0842 -0.7430
 3717SOL    HW111579   2.199   3.443   2.780  0.4879  0.2994 -1.3063
 3717SOL    HW211580   2.317   3.357   2.740 -0.1145 -1.2502  0.1139
 3718SOL     OW11581   4.641   5.559   1.458  0.1166  0.2657  0.6699
 3718SOL    HW111582   4.628   5.653   1.469 -0.7370  0.1016  1.1028
 3718SOL    HW211583   4.557   5.519   1.483  1.1549 -0.7747  2.8023
 3719SOL     OW11584   0.692   3.974   5.662 -0.9882 -0.1426 -0.1566
 3719SOL    HW111585   0.753   3.958   5.590 -2.6168  0.4773 -1.7524
 3719SOL    HW211586   0.742   4.025   5.726  1.3123 -2.9365  0.4864
 3720SOL     OW11587   0.702   1.036   0.774  0.1743  0.1023 -0.3461
 3720SOL    HW111588   0.721   1.014   0.865  0.2727  0.5007 -0.2687
 3720SOL    HW211589   0.651   0.962   0.741 -2.4225  1.1818  0.8999
 3721SOL     OW11590   1.067   2.790   3.862  0.7258  0.6238 -0.2656
 3721SOL    HW111591   1.121   2.758   3.790  1.1079  1.2837 -0.2852
 3721SOL    HW211592   1.031   2.873   3.829 -0.0512  0.3411 -0.1364
 3722SOL     OW11593   3.893   1.631   4.641  0.1478 -0.1929  0.2411
 3722SOL    HW111594   3.916   1.722   4.620  1.3183  0.2242  2.8208
 3722SOL    HW211595   3.977   1.585   4.638 -0.2996 -0.9849 -0.1421
 3723SOL     OW11596   0.933   4.941   2.915  0.5562  0.3504  0.4865
 3723SOL    HW111597   0.870   4.948   2.844 -1.4518 -1.8983  1.9129
 3723SOL    HW211598   0.884   4.966   2.993  1.2606 -1.8060  1.6869
 3724SOL     OW11599   5.835   3.872   5.924 -0.2534 -0.1798 -0.2693
 3724SOL    HW111600   5.830   3.909   5.836 -1.1574 -0.5416 -0.3839
 3724SOL    HW211601   5.807   3.943   5.982  0.2920  0.0425 -0.2759
 3725SOL     OW11602   4.775   3.718   3.344  0.3024  0.3287  0.4071
 3725SOL    HW111603   4.827   3.702   3.423  0.2681  0.5750  0.4801
 3725SOL    HW211604   4.703   3.773   3.374 -1.4196 -1.9690  0.8325
 3726SOL     OW11605   3.102   4.439   1.065 -0.0485 -0.1691 -0.2866
 3726SOL    HW111606   3.019   4.486   1.054  1.1155  1.9593 -0.4917
 3726SOL    HW211607   3.080   4.347   1.048 -2.5124  0.1968  0.4962
 3727SOL     OW11608   1.890   4.530   0.648  0.3788  0.0550 -0.5320
 3727SOL    HW111609   1.847   4.542   0.563  0.9116  0.1181 -0.7964
 3727SOL    HW211610   1.901   4.618   0.682  1.7636  0.1594 -1.2058
 3728SOL     OW11611   0.026   5.678   1.843  0.5862 -0.0368 -0.3223
 3728SOL    HW111612   0.029   5.713   1.932  1.8969  0.7782 -0.6719
 3728SOL    HW211613  -0.010   5.750   1.791  0.8560 -0.1213 -0.6240
 3729SOL     OW11614   4.056   0.751   1.639  0.0598  0.0779  0.7324
 3729SOL    HW111615   4.060   0.785   1.550  1.7341  1.2337  1.1827
 3729SOL    HW211616   3.964   0.732   1.654 -0.3691  0.6761 -0.9396
 3730SOL     OW11617   4.180   5.735   6.176  0.4465  0.4600  0.4864
 3730SOL    HW111618   4.099   5.736   6.125  1.0651 -1.9077 -0.6516
 3730SOL    HW211619   4.159   5.687   6.255  0.3130  1.3899  1.0327
 3731SOL     OW11620   3.257   5.082   4.260 -0.5843  0.1251  0.0902
 3731SOL    HW111621   3.205   5.136   4.201  0.7720  1.0853 -0.2906
 3731SOL    HW211622   3.193   5.033   4.311 -1.8206 -0.3203 -1.7800
 3732SOL     OW11623   4.403   3.393   5.579  0.0339 -0.0192 -0.7319
 3732SOL    HW111624   4.379   3.301   5.576 -1.8680  0.4387 -1.1113
 3732SOL    HW211625   4.347   3.435   5.513 -0.1693  1.5901  0.3886
 3733SOL     OW11626   0.354   3.266   1.566 -0.1214 -0.5082 -0.5070
 3733SOL    HW111627   0.359   3.228   1.654 -0.7262  0.8292  0.1504
 3733SOL    HW211628   0.400   3.350   1.574  0.1387 -0.5382 -1.5746
 3734SOL     OW11629   1.151   5.258   3.141 -0.3323  0.6880  0.5022
 3734SOL    HW111630   1.202   5.245   3.220  0.1440 -0.6758  0.0017
 3734SOL    HW211631   1.141   5.353   3.134 -0.2301  0.8325  2.0812
 3735SOL     OW11632   1.171   2.933   4.704 -0.1739 -0.4826 -0.1678
 3735SOL    HW111633   1.194   2.982   4.783  0.3881  1.4701 -1.4585
 3735SOL    HW211634   1.255   2.913   4.663 -0.4980 -0.4834 -0.8456
 3736SOL     OW11635   5.156   1.918   3.343  0.1330 -0.3386 -0.2580
 3736SOL    HW111636   5.213   1.945   3.271 -0.9736  1.5168 -0.5105
 3736SOL    HW211637   5.195   1.957   3.421  0.9591 -1.7835  0.0772
 3737SOL     OW11638   3.836   5.355   0.284 -0.1218 -0.6537 -0.7447
 3737SOL    HW111639   3.799   5.441   0.302 -0.5320 -0.5465 -2.0559
 3737SOL    HW211640   3.868   5.325   0.370 -0.0444  0.7519 -0.2502
 3738SOL     OW11641   4.622   3.136   2.935 -0.4194 -0.1880 -0.1632
 3738SOL    HW111642   4.644   3.174   2.850 -0.0365 -0.1646 -0.0582
 3738SOL    HW211643   4.610   3.043   2.918 -0.6231 -0.1375 -0.2928
 3739SOL     OW11644   5.227   2.630   6.185 -0.3236 -0.0548 -0.0519
 3739SOL    HW111645   5.159   2.694   6.205 -0.9104 -0.7057  0.1175
 3739SOL    HW211646   5.213   2.608   6.093  0.4373  0.7053 -0.3497
 3740SOL     OW11647   4.277   6.182   0.951 -0.2245 -0.2012 -0.2686
 3740SOL    HW111648   4.343   6.212   0.888  0.2140 -0.2378  0.1662
 3740SOL    HW211649   4.326   6.127   1.012 -0.8756 -1.2197 -0.6346
 3741SOL     OW11650   4.898   4.684   2.831 -0.0582  0.1956  0.3052
 3741SOL    HW111651   4.958   4.668   2.904  0.8043  0.7110 -0.2663
 3741SOL    HW211652   4.815   4.645   2.858  0.6930 -1.0432  0.8750
 3742SOL     OW11653   0.348   6.000   2.827 -0.0888  0.1654  0.6729
 3742SOL    HW111654   0.403   6.041   2.894  1.1600 -0.8846  0.3354
 3742SOL    HW211655   0.297   6.072   2.791  1.8496  1.3983  0.2653
 3743SOL     OW11656   2.621   4.145   5.425 -0.3839  0.9371 -0.1505
 3743SOL    HW111657   2.548   4.140   5.486 -0.4947 -0.1523 -0.3553
 3743SOL    HW211658   2.694   4.105   5.471  0.6543  3.6944  0.7899
 3744SOL     OW11659   5.139   4.700   6.113 -0.6473  0.0460  0.0013
 3744SOL    HW111660   5.080   4.660   6.177  1.2096 -1.0375  1.1352
 3744SOL    HW211661   5.152   4.632   6.047  0.5895 -0.4026  0.6534
 3745SOL     OW11662   3.249   2.607   0.640  0.4074 -0.2786  0.8508
 3745SOL    HW111663   3.270   2.623   0.549  0.8750 -1.2002  0.7858
 3745SOL    HW211664   3.248   2.694   0.680 -0.9615  0.2439 -0.2570
 3746SOL     OW11665   5.959   3.554   5.101 -0.0586  0.0061 -0.2440
 3746SOL    HW111666   5.947   3.460   5.105  1.2341 -0.1288  1.1784
 3746SOL    HW211667   6.030   3.567   5.037 -0.1855  0.0186 -0.3836
 3747SOL     OW11668   0.093   0.630   2.285 -0.6987  0.1152  0.1060
 3747SOL    HW111669   0.076   0.724   2.295 -0.1823  0.0609  1.6525
 3747SOL    HW211670   0.072   0.592   2.369  1.5350 -0.7663  0.3375
 3748SOL     OW11671   1.075   0.205   5.374 -0.7052 -0.3810  0.4798
 3748SOL    HW111672   1.093   0.111   5.368  0.7876 -0.0266 -1.6949
 3748SOL    HW211673   1.150   0.241   5.420  0.3055  0.0940 -1.4597
 3749SOL     OW11674   0.582   2.331   3.477 -0.1532  0.0138  0.0748
 3749SOL    HW111675   0.640   2.282   3.419 -0.5231 -1.2770  0.7602
 3749SOL    HW211676   0.495   2.293   3.462 -0.3930  0.2490  0.8337
 3750SOL     OW11677   4.600   5.812   4.794 -0.2499 -0.0268 -0.2467
 3750SOL    HW111678   4.675   5.852   4.839  0.7166 -3.1995  1.2854
 3750SOL    HW211679   4.638   5.771   4.716 -0.1665 -2.1247  0.8231
 3751SOL     OW11680   0.626   0.860   4.906 -0.3689 -0.3621 -0.1428
 3751SOL    HW111681   0.589   0.920   4.970 -0.0591  0.5941 -0.8349
 3751SOL    HW211682   0.711   0.899   4.883  0.2700 -1.5709  0.1033
 3752SOL     OW11683   6.172   1.639   0.951  0.3395 -0.2094 -0.5625
 3752SOL    HW111684   6.196   1.605   1.037  0.1691 -0.1553 -0.4936
 3752SOL    HW211685   6.254   1.675   0.916  0.0600  1.3669  0.3079
 3753SOL     OW11686   0.932   4.862   3.328 -0.6579 -0.2535  0.5019
 3753SOL    HW111687   0.870   4.862   3.255  0.3034 -1.1779 -0.3378
 3753SOL    HW211688   0.945   4.955   3.349 -1.1262  0.0085 -0.3317
 3754SOL     OW11689   2.957   5.809   1.434  0.1265 -0.0093 -0.2300
 3754SOL    HW111690   2.889   5.869   1.463 -0.2670 -1.2598  1.6069
 3754SOL    HW211691   3.018   5.864   1.384 -1.5053  1.3845 -0.7760
 3755SOL     OW11692   4.877   3.152   0.112  0.3896  0.5454 -0.2116
 3755SOL    HW111693   4.919   3.230   0.148 -0.2894  1.6345 -1.6923
 3755SOL    HW211694   4.814   3.185   0.048 -0.7885 -1.1685 -0.0129
 3756SOL     OW11695   2.001   2.155   3.792  0.2121 -0.0798  0.3188
 3756SOL    HW111696   2.040   2.197   3.714 -2.8669  0.6209 -0.9784
 3756SOL    HW211697   2.009   2.221   3.861  0.4988  0.3845 -0.1466
 3757SOL     OW11698   0.653   0.494   5.501  0.3267 -0.0504 -0.1431
 3757SOL    HW111699   0.705   0.552   5.558  1.7175 -0.9425 -0.4491
 3757SOL    HW211700   0.717   0.432   5.466 -1.2774 -2.5508  1.1027
 3758SOL     OW11701   4.197   3.599   5.474  0.6220  0.1872 -0.2647
 3758SOL    HW111702   4.127   3.619   5.536  0.6980 -1.0788  0.2684
 3758SOL    HW211703   4.163   3.526   5.421  2.1666 -1.7808  1.2765
 3759SOL     OW11704   4.866   4.671   6.218  0.3351  0.2162 -0.6627
 3759SOL    HW111705   4.834   4.581   6.209  0.4057  0.1582 -0.3562
 3759SOL    HW211706   4.798   4.716   6.269  1.3471 -0.2616  1.2064
 3760SOL     OW11707   2.689   1.990   0.844 -0.3370 -0.1956 -0.1865
 3760SOL    HW111708   2.725   2.059   0.788  0.2393 -0.7715 -0.5357
 3760SOL    HW211709   2.756   1.922   0.845 -0.0060  0.0860  1.7913
 3761SOL     OW11710   1.662   5.532   2.468 -0.1299  0.1625 -0.0017
 3761SOL    HW111711   1.756   5.512   2.473 -0.0935 -0.0844 -1.2461
 3761SOL    HW211712   1.657   5.608   2.410 -0.5800  1.3516  1.5536
 3762SOL     OW11713   5.163   3.306   0.445 -0.1818 -0.0775  0.1809
 3762SOL    HW111714   5.202   3.371   0.503 -1.4083  0.4922  0.3933
 3762SOL    HW211715   5.076   3.291   0.481 -0.4660 -0.7182 -0.7404
 3763SOL     OW11716   4.670   4.379   1.283 -0.3968  0.0909  0.3477
 3763SOL    HW111717   4.595   4.362   1.225  0.4966  1.3518 -1.2730
 3763SOL    HW211718   4.701   4.292   1.308 -2.0378 -0.4522  0.5778
 3764SOL     OW11719   1.137   2.348   0.190  0.3726  0.3443  0.4842
 3764SOL    HW111720   1.194   2.329   0.116  1.1133 -0.1572  1.1655
 3764SOL    HW211721   1.049   2.353   0.153  0.4664 -1.8702 -0.1420
 3765SOL     OW11722   1.458   2.523   0.638 -0.4157  0.0453 -0.0032
 3765SOL    HW111723   1.489   2.611   0.657 -0.6091 -0.1649  1.3413
 3765SOL    HW211724   1.363   2.526   0.651 -0.2825 -0.6483  1.3256
 3766SOL     OW11725   5.036   1.458   1.274  0.0525 -0.3094  0.2323
 3766SOL    HW111726   5.078   1.386   1.226 -0.0611 -0.3127  0.1388
 3766SOL    HW211727   5.016   1.524   1.208  1.8670  0.6405  0.5589
 3767SOL     OW11728   5.192   2.409   2.129 -0.1146  0.2963  0.0919
 3767SOL    HW111729   5.239   2.483   2.090  1.3670 -1.5036 -1.8070
 3767SOL    HW211730   5.209   2.416   2.222  1.7161  1.2328 -0.2629
 3768SOL     OW11731   3.642   4.225   5.623  0.2288 -0.4743  0.1833
 3768SOL    HW111732   3.575   4.164   5.592  0.5851 -1.8200  1.8862
 3768SOL    HW211733   3.724   4.190   5.588  0.3922 -0.7823  0.8586
 3769SOL     OW11734   4.096   5.822   5.496  0.5685  0.3696  0.3110
 3769SOL    HW111735   4.039   5.868   5.557  0.1421 -2.6767  2.4249
 3769SOL    HW211736   4.070   5.855   5.410 -2.5327  1.0559  1.3725
 3770SOL     OW11737   5.747   4.297   3.621  0.2981  0.4900 -0.2125
 3770SOL    HW111738   5.816   4.246   3.579 -0.9868 -1.4954 -0.0274
 3770SOL    HW211739   5.722   4.246   3.698 -1.1464  1.3228 -0.0933
 3771SOL     OW11740   4.354   4.428   5.270  0.4274  0.0322 -0.1447
 3771SOL    HW111741   4.396   4.384   5.196  1.6372  0.2593  0.3835
 3771SOL    HW211742   4.260   4.417   5.255  0.6862 -1.4371 -0.7931
 3772SOL     OW11743   4.096   5.116   5.061  0.0517 -0.1398  0.0713
 3772SOL    HW111744   4.132   5.129   4.973  0.1585  1.1748  0.2834
 3772SOL    HW211745   4.114   5.024   5.081  1.5862 -0.0067 -0.5821
 3773SOL     OW11746   5.607   4.930   3.207  0.0729 -0.4365  0.0627
 3773SOL    HW111747   5.597   4.986   3.130 -0.9059  0.3255  0.7230
 3773SOL    HW211748   5.562   4.976   3.277  1.6378 -0.7228  1.3189
 3774SOL     OW11749   3.372   0.202   0.764 -0.1262  0.4720 -0.4634
 3774SOL    HW111750   3.440   0.259   0.729 -1.8643  1.0953 -3.0388
 3774SOL    HW211751   3.297   0.260   0.780 -0.8941 -0.5830 -0.1138
 3775SOL     OW11752   0.022   0.906   1.696  0.2332 -0.7349 -0.7077
 3775SOL    HW111753   0.075   0.985   1.704 -0.7746 -0.2377  2.5255
 3775SOL    HW211754   0.002   0.899   1.603  0.1805  2.9197 -1.0871
 3776SOL     OW11755   4.302   0.438   4.443 -0.0707  0.3851  0.6067
 3776SOL    HW111756   4.367   0.420   4.511  0.7162 -1.0228 -0.4920
 3776SOL    HW211757   4.244   0.503   4.484  0.6775 -0.0180  2.4345
 3777SOL     OW11758   3.574   5.694   0.119 -0.2949 -0.0873 -0.0316
 3777SOL    HW111759   3.589   5.706   0.025  1.2842  0.8783  0.3003
 3777SOL    HW211760   3.636   5.626   0.145  2.3563  2.5127  0.9950
 3778SOL     OW11761   5.560   5.819   0.707  0.5928 -0.0699 -0.0713
 3778SOL    HW111762   5.489   5.853   0.761  2.0218  1.4436  0.9721
 3778SOL    HW211763   5.587   5.739   0.751  0.4694  0.1233  0.3638
 3779SOL     OW11764   4.546   1.428   0.146  0.1248 -0.7032  0.0297
 3779SOL    HW111765   4.571   1.489   0.215  2.4028 -1.6882  0.1960
 3779SOL    HW211766   4.452   1.440   0.135 -0.3798 -0.6452  3.4171
 3780SOL     OW11767   2.002   4.379   1.082  0.1769 -0.3725 -0.1628
 3780SOL    HW111768   2.001   4.296   1.034  0.2048 -0.3390 -0.2218
 3780SOL    HW211769   1.918   4.420   1.059  0.6474  0.1304 -1.0491
 3781SOL     OW11770   4.751   2.023   4.696  0.0015  0.2283  0.1010
 3781SOL    HW111771   4.705   2.100   4.729 -0.3365  0.7170 -1.4278
 3781SOL    HW211772   4.792   1.984   4.774 -0.0740  1.7602  0.9478
 3782SOL     OW11773   0.596   3.749   0.199 -0.1447 -0.2015 -0.3446
 3782SOL    HW111774   0.679   3.756   0.246 -0.6476 -1.0458  0.7237
 3782SOL    HW211775   0.536   3.807   0.247 -0.4533 -0.4478 -0.4283
 3783SOL     OW11776   0.939   2.108   5.588  0.2451  0.4020 -0.1688
 3783SOL    HW111777   0.993   2.050   5.535  1.1805  0.9185  0.2074
 3783SOL    HW211778   0.998   2.145   5.653 -0.3449  1.6943 -0.3177
 3784SOL     OW11779   1.003   1.576   4.516  0.0040  0.7115 -0.2449
 3784SOL    HW111780   0.985   1.602   4.425 -0.3556  0.1454 -0.3368
 3784SOL    HW211781   0.918   1.551   4.551  0.0326  1.5537  0.4572
 3785SOL     OW11782   5.711   6.114   6.072 -0.2904  0.2940 -0.2169
 3785SOL    HW111783   5.758   6.137   6.153 -1.2834  0.2899  0.3742
 3785SOL    HW211784   5.681   6.025   6.087  0.1728  0.0153 -0.9154
 3786SOL     OW11785   5.664   2.495   3.506  0.0120 -0.4024 -0.1832
 3786SOL    HW111786   5.576   2.509   3.470 -0.1611 -0.6937  0.1202
 3786SOL    HW211787   5.655   2.515   3.599  0.2304 -0.5891 -0.1202
 3787SOL     OW11788   0.657   5.424   2.535  0.5352 -0.0281  0.1210
 3787SOL    HW111789   0.641   5.385   2.449 -0.2525 -0.7724  0.5803
 3787SOL    HW211790   0.751   5.414   2.549  0.1809 -3.4194  0.9216
 3788SOL     OW11791   1.199   0.821   4.914  0.1133 -0.0100 -0.8102
 3788SOL    HW111792   1.253   0.888   4.873 -0.8754  1.1924 -0.2191
 3788SOL    HW211793   1.230   0.739   4.877  1.0519  0.8079 -1.8992
 3789SOL     OW11794   6.124   0.537   1.917 -0.0391  0.1697 -0.0300
 3789SOL    HW111795   6.103   0.518   2.008  0.4626 -0.1812  0.0187
 3789SOL    HW211796   6.152   0.628   1.917 -1.2529  0.5612 -0.0521
 3790SOL     OW11797   1.487   0.008   3.634 -0.0462  0.1723  0.5129
 3790SOL    HW111798   1.513   0.071   3.701 -2.2206  0.3893  1.2374
 3790SOL    HW211799   1.393   0.021   3.624  0.1489 -0.1469 -2.3430
 3791SOL     OW11800   4.678   1.161   2.006  0.1292  0.0739  0.0941
 3791SOL    HW111801   4.768   1.191   2.016 -0.2498  1.2731 -0.0007
 3791SOL    HW211802   4.666   1.150   1.912  0.1838 -0.1410  0.1105
 3792SOL     OW11803   0.957   2.542   4.545 -0.0948  0.0340  0.0389
 3792SOL    HW111804   1.026   2.581   4.492 -0.9155 -0.5494 -1.5545
 3792SOL    HW211805   0.980   2.449   4.551  0.6220  0.2864  1.8012
 3793SOL     OW11806   2.780   0.275   1.021  0.3276  0.3609 -0.1342
 3793SOL    HW111807   2.702   0.221   1.035  0.9673 -0.4553  0.3852
 3793SOL    HW211808   2.759   0.328   0.945 -0.8732  0.4130  0.2072
 3794SOL     OW11809   1.498   5.805   1.739  0.4618  0.0314 -0.6267
 3794SOL    HW111810   1.525   5.760   1.659 -0.9584 -2.1861  0.0488
 3794SOL    HW211811   1.580   5.816   1.789  1.0265 -0.7073 -1.3686
 3795SOL     OW11812   2.892   3.303   2.124 -0.3148  0.4507  0.8024
 3795SOL    HW111813   2.835   3.346   2.061  0.5864 -0.2137 -0.5283
 3795SOL    HW211814   2.851   3.318   2.209 -1.2858  1.8301  0.1195
 3796SOL     OW11815   5.883   4.747   5.109 -0.2689  0.1185 -0.8311
 3796SOL    HW111816   5.838   4.699   5.178  0.2522  0.1157 -0.4906
 3796SOL    HW211817   5.943   4.683   5.071  1.8650  0.9591  0.9090
 3797SOL     OW11818   3.464   5.541   5.806 -0.0154 -0.2676 -0.0791
 3797SOL    HW111819   3.540   5.483   5.800  0.2898  0.0029  0.9311
 3797SOL    HW211820   3.499   5.629   5.795 -0.3828 -0.2279 -0.9438
 3798SOL     OW11821   3.606   4.289   3.152  0.3318 -0.2316  0.1226
 3798SOL    HW111822   3.660   4.301   3.230  2.5515  2.3672 -1.6540
 3798SOL    HW211823   3.654   4.333   3.082 -2.4262 -0.8874 -2.3774
 3799SOL     OW11824   5.044   3.685   1.700 -0.5048  0.1218 -0.0839
 3799SOL    HW111825   4.982   3.724   1.639 -1.2375  1.0992  1.2418
 3799SOL    HW211826   5.063   3.754   1.763  0.7528 -0.6474  0.4209
 3800SOL     OW11827   5.311   3.397   4.657 -0.5787 -0.5036 -0.3944
 3800SOL    HW111828   5.223   3.428   4.639 -0.8944 -1.2168 -0.1365
 3800SOL    HW211829   5.368   3.469   4.632 -1.1752 -0.3732 -1.4308
 3801SOL     OW11830   2.602   0.009   0.398 -0.6086  0.5659  0.0200
 3801SOL    HW111831   2.559   0.027   0.315 -1.3977  1.4773  0.6018
 3801SOL    HW211832   2.694  -0.003   0.375 -0.5610  2.2317 -0.8468
 3802SOL     OW11833   1.648   5.421   6.236  0.3004 -0.0946 -0.3686
 3802SOL    HW111834   1.657   5.398   6.143 -0.7865 -0.1686 -0.4647
 3802SOL    HW211835   1.585   5.358   6.270  0.0854  0.4378  0.2292
 3803SOL     OW11836   5.478   1.959   2.541 -0.1605 -0.3076  0.7193
 3803SOL    HW111837   5.533   1.921   2.609  1.5459 -1.0266 -0.9644
 3803SOL    HW211838   5.508   2.050   2.534 -1.0108  0.0550  1.5464
 3804SOL     OW11839   5.693   5.394   1.924  0.2756  0.3818  0.4578
 3804SOL    HW111840   5.731   5.356   2.003 -0.3015  1.2037  1.1556
 3804SOL    HW211841   5.734   5.480   1.916  0.9192 -0.0058 -0.6007
 3805SOL     OW11842   4.920   5.785   5.168 -0.2982  0.7943  0.1935
 3805SOL    HW111843   4.838   5.738   5.185 -1.8964  2.9095 -1.2381
 3805SOL    HW211844   4.970   5.726   5.111 -0.5233 -0.7544  1.5282
 3806SOL     OW11845   1.209   3.106   1.066  0.1756 -0.3882  0.2669
 3806SOL    HW111846   1.279   3.171   1.071 -0.5664  0.8523 -3.0946
 3806SOL    HW211847   1.178   3.110   0.976 -2.5076 -2.7475  0.9268
 3807SOL     OW11848   1.972   3.044   3.289  0.3515  0.1408  0.1781
 3807SOL    HW111849   1.975   3.000   3.374 -1.8364  0.5613  0.5185
 3807SOL    HW211850   1.904   2.998   3.240  0.7735  0.6487 -0.9198
 3808SOL     OW11851   4.529   2.106   3.076 -0.2215  0.1350 -0.1220
 3808SOL    HW111852   4.525   2.201   3.087  1.9722  0.5782 -2.2954
 3808SOL    HW211853   4.516   2.071   3.165 -2.6436  2.3256  0.4860
 3809SOL     OW11854   3.518   3.418   5.625 -0.4942  0.5832 -0.4585
 3809SOL    HW111855   3.567   3.368   5.690 -0.7040  0.2740 -0.5377
 3809SOL    HW211856   3.439   3.448   5.671 -0.4250  0.7458 -0.4435
 3810SOL     OW11857   0.580   1.522   2.242 -0.3004 -0.6455 -0.4160
 3810SOL    HW111858   0.575   1.452   2.178 -0.2846 -0.8797 -0.1630
 3810SOL    HW211859   0.658   1.502   2.294 -0.9875 -1.1351  0.4638
 3811SOL     OW11860   2.858   3.213   3.822 -0.2165  0.4579 -0.6000
 3811SOL    HW111861   2.930   3.242   3.766  0.0609  1.7156  0.3579
 3811SOL    HW211862   2.815   3.144   3.772  1.4508 -0.1010 -1.3379
 3812SOL     OW11863   1.258   1.652   3.381 -0.3686  0.0330 -0.0585
 3812SOL    HW111864   1.259   1.748   3.386 -0.5259 -0.0162  1.0033
 3812SOL    HW211865   1.262   1.634   3.287  1.4775  1.0611 -0.2233
 3813SOL     OW11866   4.500   1.444   2.148 -0.2967 -0.1731 -0.0853
 3813SOL    HW111867   4.509   1.431   2.053 -1.5610 -1.3403 -0.0861
 3813SOL    HW211868   4.454   1.365   2.178  0.8379 -0.2280  1.6461
 3814SOL     OW11869   4.023   1.957   3.320  0.4891  0.7379 -0.3913
 3814SOL    HW111870   3.993   2.026   3.260 -1.2390 -1.2358 -1.9567
 3814SOL    HW211871   4.074   1.898   3.265 -2.1521 -1.7724 -0.3668
 3815SOL     OW11872   4.943   3.391   0.922  0.6453  0.1551  0.0396
 3815SOL    HW111873   4.973   3.428   1.005  0.5485  0.6802 -0.1548
 3815SOL    HW211874   5.010   3.415   0.859  0.1104  0.8405 -0.2813
 3816SOL     OW11875   3.276   1.528   0.481  0.4569 -0.0360 -0.3771
 3816SOL    HW111876   3.297   1.434   0.485  0.6136 -0.0623 -1.5839
 3816SOL    HW211877   3.220   1.537   0.405 -1.2582  0.5654  0.8981
 3817SOL     OW11878   3.299   3.231   4.122 -0.5471 -0.3629 -0.6979
 3817SOL    HW111879   3.256   3.162   4.072 -0.6181  0.5627 -1.9714
 3817SOL    HW211880   3.248   3.310   4.104  0.3083  0.2920 -0.3718
 3818SOL     OW11881   2.412   5.495   5.970 -0.1593 -0.2426  0.0495
 3818SOL    HW111882   2.376   5.504   5.882 -2.3373  0.5373  0.9426
 3818SOL    HW211883   2.347   5.443   6.017  0.0834  0.8285  1.6448
 3819SOL     OW11884   3.376   2.463   2.619 -0.2881  0.0057  0.9779
 3819SOL    HW111885   3.439   2.432   2.685  0.3021 -0.7089  0.1097
 3819SOL    HW211886   3.371   2.392   2.555  0.8706  1.5255 -0.9273
 3820SOL     OW11887   2.020   3.648   1.334  0.0947 -0.6591 -0.3707
 3820SOL    HW111888   1.987   3.602   1.411  1.3282  1.5156  1.6022
 3820SOL    HW211889   2.061   3.727   1.370 -2.5473  2.4736 -3.5092
 3821SOL     OW11890   4.560   3.651   0.209 -0.3524  0.1668  0.7030
 3821SOL    HW111891   4.629   3.612   0.156 -0.4080  0.9568  0.0152
 3821SOL    HW211892   4.481   3.601   0.187 -0.4696  0.7756 -0.3342
 3822SOL     OW11893   3.721   0.594   5.412  0.0835 -0.1002 -0.6511
 3822SOL    HW111894   3.668   0.618   5.336 -0.8355 -0.0121  0.0084
 3822SOL    HW211895   3.679   0.637   5.486  0.9250 -0.2458 -0.0646
 3823SOL     OW11896   3.292   0.472   5.761  0.4869 -0.0503  0.3201
 3823SOL    HW111897   3.385   0.461   5.782  0.2934 -0.1508  1.1589
 3823SOL    HW211898   3.254   0.511   5.840 -0.0669  0.6139 -0.2546
 3824SOL     OW11899   5.140   4.528   3.254 -0.0470 -0.1988 -0.4413
 3824SOL    HW111900   5.218   4.528   3.309  2.2449  1.3795 -3.4514
 3824SOL    HW211901   5.130   4.436   3.227 -0.3212 -0.7131  1.2447
 3825SOL     OW11902   5.230   5.474   2.525 -0.2301  0.0038 -0.3148
 3825SOL    HW111903   5.160   5.409   2.511 -0.6903  0.5438 -0.5603
 3825SOL    HW211904   5.311   5.427   2.505 -0.2892 -1.3530  2.2258
 3826SOL     OW11905   5.035   0.324   4.873 -0.1255  0.1400 -0.4876
 3826SOL    HW111906   5.038   0.398   4.811 -1.0075 -0.5452 -1.3825
 3826SOL    HW211907   4.995   0.253   4.823  1.8515 -1.3676 -0.0443
 3827SOL     OW11908   5.627   3.926   4.602  0.1581 -0.1771  0.0946
 3827SOL    HW111909   5.567   3.902   4.531  0.2380 -2.7702  0.8023
 3827SOL    HW211910   5.714   3.926   4.562  0.0123  0.3286 -0.2261
 3828SOL     OW11911   0.562   6.022   0.263  0.3761  0.2903  0.1128
 3828SOL    HW111912   0.525   6.075   0.193  1.3679  0.6858 -0.1289
 3828SOL    HW211913   0.560   6.078   0.340 -0.5125 -0.0683  0.3591
 3829SOL     OW11914   0.158   2.465   0.090 -0.0055 -0.3504  0.1150
 3829SOL    HW111915   0.239   2.475   0.040  0.4575 -2.9856  0.1895
 3829SOL    HW211916   0.089   2.481   0.026  0.5150  1.3549 -0.0894
 3830SOL     OW11917   5.618   5.404   3.375  0.1652  0.0031 -0.1076
 3830SOL    HW111918   5.565   5.376   3.301  0.0117  0.5674 -0.2208
 3830SOL    HW211919   5.555   5.416   3.447  0.1255  0.6732 -0.2422
 3831SOL     OW11920   1.109   4.667   2.937  0.1585  0.1285  0.5269
 3831SOL    HW111921   1.188   4.698   2.982 -0.6375  1.9969  0.7280
 3831SOL    HW211922   1.061   4.747   2.916 -0.0441 -0.7308 -2.6957
 3832SOL     OW11923   5.760   5.623   0.588  0.5212 -0.4525  0.5485
 3832SOL    HW111924   5.804   5.595   0.507 -0.7664  0.3185 -0.4618
 3832SOL    HW211925   5.694   5.555   0.603 -0.9083  0.6636 -0.4818
 3833SOL     OW11926   1.997   2.018   3.436  0.1281 -0.3652  0.0898
 3833SOL    HW111927   2.047   1.992   3.513  0.5948 -0.5508 -0.2641
 3833SOL    HW211928   2.049   2.087   3.395 -1.5626  1.8610  1.5220
 3834SOL     OW11929   3.627   0.679   3.590 -0.5431 -0.3272  0.1286
 3834SOL    HW111930   3.622   0.614   3.520 -1.3795 -0.3768  0.2248
 3834SOL    HW211931   3.721   0.699   3.597 -0.5345  0.3922 -1.6329
 3835SOL     OW11932   1.593   5.029   1.743  0.5987  0.1616  0.4907
 3835SOL    HW111933   1.530   5.026   1.815  0.5210 -0.5215  0.3977
 3835SOL    HW211934   1.614   5.122   1.734 -1.7680  0.6456 -0.6860
 3836SOL     OW11935   2.488   5.035   3.868  0.3706 -0.4346 -0.1430
 3836SOL    HW111936   2.403   4.992   3.857 -0.4411  0.7310  1.1123
 3836SOL    HW211937   2.530   5.029   3.783 -1.4382 -0.1183 -1.1011
 3837SOL     OW11938   2.320   0.428   3.149  0.4079  0.2740 -0.1611
 3837SOL    HW111939   2.301   0.334   3.157  1.8704 -0.2270 -1.9296
 3837SOL    HW211940   2.249   0.463   3.096  1.0324 -0.3268 -1.4396
 3838SOL     OW11941   5.632   3.764   3.887 -0.4537  0.1177 -0.5961
 3838SOL    HW111942   5.697   3.727   3.827 -0.9904  0.0408 -1.1388
 3838SOL    HW211943   5.683   3.815   3.950  0.2750 -1.1946 -0.0812
 3839SOL     OW11944   3.755   2.868   0.384 -0.1415 -0.2734 -0.0207
 3839SOL    HW111945   3.669   2.863   0.426 -0.0699  0.7530  0.2850
 3839SOL    HW211946   3.749   2.944   0.326  0.7461  0.2073  0.4887
 3840SOL     OW11947   0.713   5.919   0.557 -0.2055 -0.0121  0.2206
 3840SOL    HW111948   0.652   5.906   0.630  0.7591  0.9265  1.2265
 3840SOL    HW211949   0.732   6.013   0.557  1.2193 -0.2705 -0.0824
 3841SOL     OW11950   0.686   0.451   1.085  0.0292  0.0078 -0.1860
 3841SOL    HW111951   0.774   0.487   1.095 -0.4212  1.3338 -0.7430
 3841SOL    HW211952   0.677   0.431   0.992 -0.2899 -0.0314 -0.1505
 3842SOL     OW11953   3.456   4.424   5.726  0.3636  0.5456  0.0481
 3842SOL    HW111954   3.507   4.364   5.671  1.3629  2.1229 -0.7999
 3842SOL    HW211955   3.371   4.381   5.735  0.1581  0.1954 -2.7001
 3843SOL     OW11956   6.188   4.308   3.601  0.5362  0.4382 -0.2280
 3843SOL    HW111957   6.224   4.286   3.514 -1.5918 -0.6893 -0.8866
 3843SOL    HW211958   6.107   4.354   3.582 -0.6677 -1.0092  1.1137
 3844SOL     OW11959   0.578   3.401   3.736 -1.1354  0.0864  0.1144
 3844SOL    HW111960   0.509   3.467   3.739 -2.2837 -1.0618 -0.2526
 3844SOL    HW211961   0.532   3.317   3.736  0.2636 -0.7201  0.0106
 3845SOL     OW11962   5.361   5.941   4.495  0.4830  0.1632 -0.3872
 3845SOL    HW111963   5.280   5.910   4.453 -0.4131  1.9629 -0.0624
 3845SOL    HW211964   5.429   5.924   4.430 -0.4749  0.5418 -1.5331
 3846SOL     OW11965   2.840   5.988   3.298 -0.5003 -0.0826 -0.1415
 3846SOL    HW111966   2.885   5.941   3.368  1.1240 -0.8391 -1.6150
 3846SOL    HW211967   2.798   5.918   3.247 -0.0769  0.2669 -0.9848
 3847SOL     OW11968   0.770   6.071   3.506  0.0154  0.6083 -0.4130
 3847SOL    HW111969   0.778   6.138   3.438  2.1549  0.1827 -0.6462
 3847SOL    HW211970   0.689   6.093   3.552 -0.1049  2.4645 -1.4198
 3848SOL     OW11971   1.383   4.029   1.961  0.5548 -0.5121 -0.1986
 3848SOL    HW111972   1.333   4.099   1.920 -0.3148 -0.8346  0.2766
 3848SOL    HW211973   1.451   4.007   1.898  0.3441  0.2156 -0.6873
 3849SOL     OW11974   0.448   5.327   2.357  0.7572 -0.5386 -0.4908
 3849SOL    HW111975   0.410   5.376   2.430 -0.2986  1.4527 -2.2798
 3849SOL    HW211976   0.375   5.314   2.296  1.7589 -1.5028 -1.5398
 3850SOL     OW11977   4.426   5.216   1.889  0.0292 -0.0788 -0.2945
 3850SOL    HW111978   4.463   5.231   1.802  0.1925  0.3973 -0.1478
 3850SOL    HW211979   4.428   5.302   1.931  0.1387 -0.3382  0.2494
 3851SOL     OW11980   5.787   4.670   2.604 -0.1671  0.6342 -0.1866
 3851SOL    HW111981   5.757   4.640   2.518  2.3546  0.9212 -1.2474
 3851SOL    HW211982   5.758   4.602   2.664 -1.6908  0.2573 -1.2839
 3852SOL     OW11983   0.255   5.549   4.639  0.2467  0.2903  0.2595
 3852SOL    HW111984   0.183   5.486   4.640 -0.2201  0.7016 -1.8610
 3852SOL    HW211985   0.300   5.532   4.556  0.6362  2.1470  0.0460
 3853SOL     OW11986   3.921   4.504   6.197 -0.0619 -0.1346 -1.0795
 3853SOL    HW111987   3.997   4.477   6.249 -0.2895 -0.8089 -1.0943
 3853SOL    HW211988   3.932   4.599   6.186  0.6508 -0.1908 -0.8801
 3854SOL     OW11989   0.251   5.913   4.257  0.5414  0.1244 -0.3962
 3854SOL    HW111990   0.200   5.832   4.251 -0.8962  1.0406 -1.2726
 3854SOL    HW211991   0.296   5.907   4.341  1.2432 -1.9952 -0.8568
 3855SOL     OW11992   5.267   4.143   5.063  0.3055 -0.2843  0.0068
 3855SOL    HW111993   5.247   4.065   5.011  0.3664  0.2400 -0.8349
 3855SOL    HW211994   5.237   4.216   5.008 -0.9054  0.2432  1.2971
 3856SOL     OW11995   4.962   1.681   2.176  0.3700 -0.1411  0.1542
 3856SOL    HW111996   4.975   1.666   2.082  0.3573  1.6642 -0.1751
 3856SOL    HW211997   4.891   1.621   2.200  1.9038 -2.3006 -0.4394
 3857SOL     OW11998   3.042   0.944   2.446 -0.2891  0.1305  0.3814
 3857SOL    HW111999   3.068   0.860   2.484  0.2807  0.7721  1.4857
 3857SOL    HW212000   2.971   0.975   2.502  0.1739  0.8293  0.5976
 3858SOL     OW12001   3.738   1.232   1.091 -0.5708 -0.5436  0.0182
 3858SOL    HW112002   3.703   1.299   1.032 -0.8097 -0.4630  0.2487
 3858SOL    HW212003   3.692   1.247   1.174 -0.6044 -0.9736  0.0791
 3859SOL     OW12004   4.952   2.083   3.669 -0.7807  0.1970  0.1326
 3859SOL    HW112005   5.034   2.058   3.628 -0.9402 -0.0015 -0.0677
 3859SOL    HW212006   4.948   2.032   3.750 -0.5668  0.4280  0.2884
 3860SOL     OW12007   0.036   1.364   5.499  0.1728 -0.4819 -0.5125
 3860SOL    HW112008   0.033   1.279   5.543 -0.5436 -0.1537  0.0987
 3860SOL    HW212009   0.100   1.353   5.430  0.4379 -1.3809 -0.1374
 3861SOL     OW12010   0.500   5.252   4.280 -0.2439 -0.1516 -0.0465
 3861SOL    HW112011   0.441   5.243   4.355  0.0257  1.4592  0.4008
 3861SOL    HW212012   0.442   5.259   4.205 -0.5948  0.2779  0.2588
 3862SOL     OW12013   4.992   3.954   2.901  0.0585 -0.4018 -0.1860
 3862SOL    HW112014   5.083   3.953   2.932 -0.1137 -0.3414  0.3205
 3862SOL    HW212015   4.955   3.872   2.933  0.3244 -1.1056 -1.5918
 3863SOL     OW12016   4.359   4.367   2.382 -0.1960 -0.4858  0.1123
 3863SOL    HW112017   4.408   4.374   2.300  0.3628  0.5066  0.5076
 3863SOL    HW212018   4.309   4.449   2.388  0.9812  0.1926  1.4865
 3864SOL     OW12019   3.687   0.292   2.344 -0.3462  0.2822  0.2034
 3864SOL    HW112020   3.681   0.357   2.274  0.3738 -0.3188 -0.4421
 3864SOL    HW212021   3.678   0.208   2.299  0.4400 -0.1313  0.7821
 3865SOL     OW12022   1.829   4.021   0.319 -0.3429 -0.3087 -0.4449
 3865SOL    HW112023   1.897   3.991   0.379  0.0452  0.5380 -0.4527
 3865SOL    HW212024   1.861   3.996   0.232 -0.2930 -0.3819 -0.4060
 3866SOL     OW12025   0.648   3.159   4.602 -0.3738  0.0789  0.3940
 3866SOL    HW112026   0.648   3.238   4.548 -0.6925 -0.1294  0.0836
 3866SOL    HW212027   0.623   3.189   4.689 -0.5834  0.3049  0.2563
 3867SOL     OW12028   2.819   1.731   5.598  0.0089  0.3800  0.2749
 3867SOL    HW112029   2.740   1.711   5.649  1.0996  0.1084  1.9235
 3867SOL    HW212030   2.789   1.792   5.530 -1.8563 -0.6986  0.0533
 3868SOL     OW12031   1.568   3.100   3.805 -0.2728  0.1516 -0.2588
 3868SOL    HW112032   1.545   3.111   3.897  1.9155 -1.3850  0.5482
 3868SOL    HW212033   1.507   3.157   3.758 -0.3865  2.2750  2.2304
 3869SOL     OW12034   2.585   1.357   3.659 -0.3639  0.5388  0.3114
 3869SOL    HW112035   2.677   1.334   3.647 -0.3176  1.8230 -2.3791
 3869SOL    HW212036   2.539   1.273   3.657  0.4853  0.0761 -1.5392
 3870SOL     OW12037   1.354   4.460   2.192  0.4193  0.2323 -0.4843
 3870SOL    HW112038   1.366   4.506   2.109  0.1677  1.1389 -0.0318
 3870SOL    HW212039   1.263   4.478   2.216 -0.5411 -2.7009 -1.5807
 3871SOL     OW12040   0.989   2.546   5.313 -0.0715 -0.6055  0.0500
 3871SOL    HW112041   0.982   2.637   5.340  0.7200 -0.7296  0.7119
 3871SOL    HW212042   0.902   2.523   5.281 -0.4601  0.1775  0.5272
 3872SOL     OW12043   4.900   1.214   3.374 -0.5709  0.0195 -0.4056
 3872SOL    HW112044   4.896   1.262   3.291  0.9657 -0.1751 -0.6106
 3872SOL    HW212045   4.977   1.249   3.418 -1.9741  0.9095  1.4695
 3873SOL     OW12046   5.951   1.087   6.004 -0.3733  0.1535 -0.1361
 3873SOL    HW112047   5.925   1.014   5.948 -0.8749 -1.3221  1.9262
 3873SOL    HW212048   6.017   1.050   6.063  0.8199  1.8970 -0.3078
 3874SOL     OW12049   1.767   4.973   0.133  0.3255  0.1749  0.3227
 3874SOL    HW112050   1.696   5.009   0.081  0.5739  0.3104  0.0747
 3874SOL    HW212051   1.730   4.894   0.173  0.4955 -0.6140 -1.0172
 3875SOL     OW12052   5.160   5.864   5.860 -0.4280 -0.0473  0.4062
 3875SOL    HW112053   5.071   5.879   5.890 -0.6678  0.1066 -0.3531
 3875SOL    HW212054   5.203   5.817   5.932 -1.1775 -0.3101  0.6882
 3876SOL     OW12055   1.577   5.820   2.023 -0.4501 -0.1232 -0.1268
 3876SOL    HW112056   1.592   5.831   2.117  2.7729 -2.6618 -0.1768
 3876SOL    HW212057   1.493   5.776   2.017 -1.0026  0.6126  1.4821
 3877SOL     OW12058   1.093   5.362   3.683  0.6198 -0.4277 -0.4418
 3877SOL    HW112059   1.101   5.397   3.594 -0.0929 -0.7421 -0.6351
 3877SOL    HW212060   1.049   5.277   3.672 -1.0430  0.2801  0.3509
 3878SOL     OW12061   0.064   1.680   3.530 -0.5002  0.1342  0.5407
 3878SOL    HW112062   0.057   1.600   3.477 -2.4586  0.8601 -0.4229
 3878SOL    HW212063   0.119   1.738   3.478 -1.5388  0.4549 -0.2489
 3879SOL     OW12064   3.737   0.689   2.734  0.1502  0.2538  0.1747
 3879SOL    HW112065   3.782   0.742   2.668  1.1314  0.0084  0.6272
 3879SOL    HW212066   3.804   0.630   2.767 -0.3657  0.2775  1.2940
 3880SOL     OW12067   4.995   0.591   3.051  0.4305  0.4055 -0.0411
 3880SOL    HW112068   5.088   0.591   3.032  0.4539 -0.0259  0.0789
 3880SOL    HW212069   4.968   0.500   3.043 -0.2016  0.6679 -1.2021
 3881SOL     OW12070   4.344   0.066   5.555 -0.8456  0.3624  0.4780
 3881SOL    HW112071   4.285   0.029   5.489 -0.4884 -1.3304  1.0668
 3881SOL    HW212072   4.357  -0.004   5.618  1.1470  0.9639  0.8148
 3882SOL     OW12073   1.468   1.080   1.764 -0.0322 -0.0765 -0.2443
 3882SOL    HW112074   1.375   1.103   1.762  0.1384  0.5980 -0.5065
 3882SOL    HW212075   1.469   0.986   1.743 -0.7247 -0.3498  0.8123
 3883SOL     OW12076   4.212   0.440   0.424  0.1334 -0.9285 -0.1094
 3883SOL    HW112077   4.123   0.407   0.436 -0.2827 -0.3431 -1.3589
 3883SOL    HW212078   4.213   0.526   0.464  0.5865 -1.5076  1.1956
 3884SOL     OW12079   0.192   2.493   6.016  0.2117 -0.6654  0.2725
 3884SOL    HW112080   0.231   2.442   5.945 -1.2754 -1.2566 -0.1461
 3884SOL    HW212081   0.206   2.584   5.989  1.6858 -0.8434  0.3645
 3885SOL     OW12082   1.307   0.293   5.516  0.3375 -0.1728 -0.1675
 3885SOL    HW112083   1.366   0.362   5.546 -0.5287 -0.3153  1.9981
 3885SOL    HW212084   1.362   0.239   5.458  2.0404  0.2648  0.9579
 3886SOL     OW12085   4.214   1.880   6.041 -0.4341  0.1413 -0.3786
 3886SOL    HW112086   4.183   1.794   6.068 -1.7674  0.6187 -0.3230
 3886SOL    HW212087   4.278   1.862   5.972  0.4896 -0.9413  0.7115
 3887SOL     OW12088   6.214   0.795   0.844 -0.5819  0.1689 -0.0892
 3887SOL    HW112089   6.125   0.808   0.878 -0.9600  0.4069 -1.1367
 3887SOL    HW212090   6.246   0.717   0.891 -1.9166 -0.8353 -0.7647
 3888SOL     OW12091   3.645   4.368   3.775 -0.1323  0.0712 -0.4099
 3888SOL    HW112092   3.610   4.334   3.693 -1.9166  1.4679 -0.3004
 3888SOL    HW212093   3.728   4.408   3.750 -1.0730  1.3108 -1.7987
 3889SOL     OW12094   1.642   2.877   5.069 -0.0589 -0.4681  0.1336
 3889SOL    HW112095   1.689   2.902   4.990 -0.8230 -1.3078 -0.6227
 3889SOL    HW212096   1.710   2.861   5.134  0.6610 -0.9253 -0.7087
 3890SOL     OW12097   3.836   2.972   2.495 -0.1668  0.1760 -0.0512
 3890SOL    HW112098   3.922   2.957   2.457 -0.5647 -1.1658 -0.4896
 3890SOL    HW212099   3.802   3.048   2.448  0.0974 -0.3256 -1.0775
 3891SOL     OW12100   2.977   4.863   1.229  0.5124 -0.2022  0.7165
 3891SOL    HW112101   2.906   4.907   1.183 -0.3770 -2.2933 -0.0657
 3891SOL    HW212102   2.938   4.830   1.309  0.6594 -1.0870  0.4374
 3892SOL     OW12103   3.493   3.558   1.533 -1.1961 -0.2675 -0.0373
 3892SOL    HW112104   3.429   3.547   1.463 -0.7534 -0.3668 -0.4386
 3892SOL    HW212105   3.578   3.545   1.489 -0.9062 -0.1367  0.4797
 3893SOL     OW12106   4.953   0.121   0.344  0.4862  0.8549  0.0665
 3893SOL    HW112107   4.969   0.195   0.402  0.4937 -0.2178  1.4631
 3893SOL    HW212108   4.949   0.160   0.256  2.1892  2.2704  0.5790
 3894SOL     OW12109   0.878   4.990   1.739 -0.1580  0.1660  0.0347
 3894SOL    HW112110   0.846   5.072   1.776  0.3669 -0.0084  0.9182
 3894SOL    HW212111   0.970   4.985   1.767  0.1858 -0.1205 -1.0707
 3895SOL     OW12112   1.857   3.348   4.479  0.3040  0.4258 -0.1908
 3895SOL    HW112113   1.823   3.289   4.411 -1.3114 -0.4592  1.3339
 3895SOL    HW212114   1.896   3.290   4.544 -1.0896  1.0274  1.2207
 3896SOL     OW12115   5.674   5.184   0.075  0.0587  0.1281  0.0718
 3896SOL    HW112116   5.670   5.108   0.132 -0.0414  0.7172  0.8792
 3896SOL    HW212117   5.588   5.189   0.034  0.2213 -0.4559 -0.3418
 3897SOL     OW12118   3.524   1.496   5.483  0.1171 -0.7560 -0.1412
 3897SOL    HW112119   3.564   1.537   5.560 -0.2366  1.2143 -0.9739
 3897SOL    HW212120   3.499   1.408   5.514  1.0313 -0.4339  1.6451
 3898SOL     OW12121   3.116   5.903   0.004  0.2374  1.1015  0.2465
 3898SOL    HW112122   3.067   5.872   0.080 -0.9589  1.4458 -0.3565
 3898SOL    HW212123   3.071   5.984  -0.022 -1.9669 -0.9791 -3.2063
 3899SOL     OW12124   3.308   4.631   5.486  0.4361 -0.2105  0.3556
 3899SOL    HW112125   3.345   4.706   5.438  1.7582 -1.2164 -0.2711
 3899SOL    HW212126   3.267   4.670   5.563 -1.9974  1.5166 -1.6537
 3900SOL     OW12127   3.570   3.892   2.608 -0.0863  0.5231  0.8497
 3900SOL    HW112128   3.582   3.812   2.659 -1.0195 -0.6966 -0.7368
 3900SOL    HW212129   3.559   3.961   2.673  0.7313 -0.6153  2.2651
 3901SOL     OW12130   4.108   5.143   1.980  0.2596  0.0221 -0.0360
 3901SOL    HW112131   4.097   5.096   2.063 -0.1777 -0.1841 -0.2088
 3901SOL    HW212132   4.131   5.232   2.006 -0.2209  0.0494  0.3109
 3902SOL     OW12133   3.528   2.486   2.232  0.2638 -0.3064 -0.0033
 3902SOL    HW112134   3.488   2.535   2.303 -0.5713 -2.4969  1.1350
 3902SOL    HW212135   3.620   2.510   2.234 -0.1166  1.1622  0.4994
 3903SOL     OW12136   3.157   1.718   3.239 -0.2935 -0.1492 -0.1018
 3903SOL    HW112137   3.078   1.766   3.266 -0.8739 -0.2523 -1.5019
 3903SOL    HW212138   3.147   1.631   3.279  0.0166  0.3864  1.1993
 3904SOL     OW12139   1.103   4.107   4.551  0.1337 -0.1394 -0.0890
 3904SOL    HW112140   1.128   4.187   4.597  0.8316  0.1959 -1.0103
 3904SOL    HW212141   1.098   4.040   4.619  0.5272  0.4702  0.5525
 3905SOL     OW12142   6.212   3.266   3.933 -0.1758  0.5397 -0.6541
 3905SOL    HW112143   6.181   3.330   3.868 -1.1393 -0.3103 -1.0577
 3905SOL    HW212144   6.200   3.181   3.890  0.2453  0.0335  0.2155
 3906SOL     OW12145   0.387   2.957   2.152  0.7807 -0.4225 -0.2677
 3906SOL    HW112146   0.379   2.902   2.074  1.1747 -2.1362  0.8338
 3906SOL    HW212147   0.476   2.939   2.184  0.8467  0.7356  0.2361
 3907SOL     OW12148   0.921   1.145   2.137  0.2578  0.1292 -0.4903
 3907SOL    HW112149   0.850   1.125   2.198 -0.4897  1.4260 -0.9050
 3907SOL    HW212150   0.878   1.160   2.054  1.2073 -0.9142 -1.2101
 3908SOL     OW12151   3.153   3.909   4.563  0.0857  0.3508 -0.6045
 3908SOL    HW112152   3.068   3.948   4.586 -1.0887 -1.6157 -1.3906
 3908SOL    HW212153   3.217   3.961   4.612 -1.6408  1.2252  0.8423
 3909SOL     OW12154   4.791   0.932   4.969 -0.1221  0.4795 -0.5292
 3909SOL    HW112155   4.857   0.863   4.966 -0.7088 -0.1111 -0.0866
 3909SOL    HW212156   4.829   0.999   5.027  0.0696  0.1217 -0.2360
 3910SOL     OW12157   0.586   5.323   4.604 -0.7446  0.1541 -0.6498
 3910SOL    HW112158   0.609   5.319   4.697  0.3616 -0.6156 -0.9328
 3910SOL    HW212159   0.502   5.278   4.598 -1.9198  2.0795  0.2643
 3911SOL     OW12160   4.771   0.091   4.963 -0.2208  0.5553  0.4529
 3911SOL    HW112161   4.742   0.022   5.023  1.9266 -1.4076 -0.6184
 3911SOL    HW212162   4.851   0.124   5.003 -0.4153  1.3765  0.1770
 3912SOL     OW12163   4.286   2.047   1.666 -0.4575  0.3013  0.2319
 3912SOL    HW112164   4.314   1.962   1.632 -2.0826 -0.2054  0.0431
 3912SOL    HW212165   4.266   2.098   1.588  1.1641  1.1204  0.3272
 3913SOL     OW12166   4.284   4.479   2.041  0.1711  0.1513 -0.2943
 3913SOL    HW112167   4.285   4.574   2.045  0.0056  0.1759  4.4471
 3913SOL    HW212168   4.371   4.452   2.071 -0.2927 -1.1641 -0.0583
 3914SOL     OW12169   0.311   1.243   4.094  0.2412  0.4494  0.2323
 3914SOL    HW112170   0.402   1.275   4.091 -0.6769  3.2762 -0.6574
 3914SOL    HW212171   0.260   1.313   4.054 -2.1507 -1.9034 -1.1389
 3915SOL     OW12172   4.058   6.211   1.353 -1.0424  0.3643  0.3756
 3915SOL    HW112173   4.063   6.258   1.271 -1.5816  1.3370  0.8785
 3915SOL    HW212174   3.965   6.187   1.361 -0.4178 -3.2868 -1.1882
 3916SOL     OW12175   3.450   2.996   1.403 -0.3150 -0.2002  0.2193
 3916SOL    HW112176   3.529   3.035   1.366 -0.2551 -1.0187 -0.5605
 3916SOL    HW212177   3.482   2.930   1.465 -0.4100  0.3911  0.9161
 3917SOL     OW12178   0.992   1.438   0.657  0.3408  0.0913 -0.4217
 3917SOL    HW112179   0.934   1.499   0.702  0.2787 -0.3174  0.0584
 3917SOL    HW212180   1.026   1.381   0.726 -0.2758 -0.9808 -0.9694
 3918SOL     OW12181   0.075   1.009   2.085  0.2705  0.0226  0.2776
 3918SOL    HW112182  -0.020   1.012   2.072  0.2231 -1.7999 -0.1565
 3918SOL    HW212183   0.105   1.099   2.070 -0.9080 -0.0468 -3.7010
 3919SOL     OW12184   5.608   1.271   2.955 -0.4353 -0.5895 -0.4629
 3919SOL    HW112185   5.589   1.182   2.986 -1.0019 -0.1905  0.3360
 3919SOL    HW212186   5.651   1.313   3.029 -0.7037 -0.0083 -0.6368
 3920SOL     OW12187   1.045   6.187   2.784 -0.0874 -0.7620  0.1977
 3920SOL    HW112188   1.128   6.226   2.756  0.2373 -1.7206 -0.2023
 3920SOL    HW212189   0.998   6.171   2.702  0.1993 -2.1070  0.2850
 3921SOL     OW12190   0.656   2.178   5.218 -0.1955  0.2598 -0.0880
 3921SOL    HW112191   0.665   2.096   5.267 -1.8948  1.5477  2.5913
 3921SOL    HW212192   0.694   2.158   5.132  2.0488 -2.4378  1.3549
 3922SOL     OW12193   4.895   5.752   3.334  0.5310 -0.0465 -0.4355
 3922SOL    HW112194   4.833   5.696   3.287 -0.6054  1.4365 -0.8253
 3922SOL    HW212195   4.884   5.838   3.292  1.9849  0.5270  0.3198
 3923SOL     OW12196   3.867   2.466   2.288 -0.4718 -0.1056  0.3396
 3923SOL    HW112197   3.799   2.433   2.345 -1.0880  1.2168  0.4230
 3923SOL    HW212198   3.904   2.541   2.335 -0.0554  0.1662 -0.3918
 3924SOL     OW12199   5.448   3.135   5.935 -0.4143  0.3468  0.2507
 3924SOL    HW112200   5.358   3.147   5.906 -0.8625 -2.5545  0.1072
 3924SOL    HW212201   5.440   3.088   6.018  0.9632  0.2552  0.3606
 3925SOL     OW12202   0.275   0.736   1.569 -0.2366  0.6489  0.2283
 3925SOL    HW112203   0.198   0.708   1.619 -0.8353  1.9944  0.1160
 3925SOL    HW212204   0.264   0.831   1.560 -0.7994  0.3709 -3.5231
 3926SOL     OW12205   0.437   0.545   4.273 -0.8507  0.2245  0.1778
 3926SOL    HW112206   0.474   0.541   4.361  0.9546 -0.6571 -0.5832
 3926SOL    HW212207   0.412   0.455   4.253 -0.0081  0.1657 -0.6895
 3927SOL     OW12208   5.060   4.837   2.659 -0.3913 -0.2714 -0.5050
 3927SOL    HW112209   5.012   4.782   2.720  0.7795 -0.4274  0.2987
 3927SOL    HW212210   5.110   4.898   2.714 -1.3836  1.4019 -1.3530
 3928SOL     OW12211   2.277   5.316   6.099  0.5223 -0.3892  0.3358
 3928SOL    HW112212   2.347   5.268   6.144  0.0884 -2.0686 -0.7375
 3928SOL    HW212213   2.224   5.249   6.057 -0.0435  1.0332 -1.3281
 3929SOL     OW12214   2.939   1.540   5.732 -0.2405 -0.5281 -0.1346
 3929SOL    HW112215   2.908   1.609   5.674 -1.0927 -0.6786  0.1307
 3929SOL    HW212216   2.906   1.459   5.693  1.4922 -0.8979 -0.9320
 3930SOL     OW12217   4.913   0.927   5.724 -0.0559 -0.1318 -0.0047
 3930SOL    HW112218   4.981   0.883   5.774 -0.5578  1.1036  1.8871
 3930SOL    HW212219   4.950   1.013   5.704 -0.5270  0.0328 -0.1965
 3931SOL     OW12220   1.483   3.804   0.956 -0.2696 -0.4062  0.6151
 3931SOL    HW112221   1.393   3.773   0.943 -0.5530  0.8488 -0.6770
 3931SOL    HW212222   1.499   3.862   0.882  1.4800 -0.2869  1.0474
 3932SOL     OW12223   0.830   1.258   0.986 -0.5488  0.2197  0.0138
 3932SOL    HW112224   0.920   1.288   1.001 -0.2815  0.5890 -2.0644
 3932SOL    HW212225   0.780   1.338   0.970 -0.3068 -0.1510 -3.2083
 3933SOL     OW12226   5.212   3.241   4.435 -0.2504 -0.6811  0.2298
 3933SOL    HW112227   5.238   3.156   4.398 -0.4892 -0.7379  0.1934
 3933SOL    HW212228   5.289   3.270   4.484  0.1364 -0.5256 -0.4464
 3934SOL     OW12229   1.819   1.328   4.401  0.4027  0.5178  0.1948
 3934SOL    HW112230   1.770   1.356   4.323  1.0344  1.9542  0.2885
 3934SOL    HW212231   1.752   1.319   4.469  0.1517  1.9240  0.1729
 3935SOL     OW12232   1.991   0.202   3.063 -0.0465  0.2140 -0.3535
 3935SOL    HW112233   2.043   0.127   3.091 -0.4313 -0.5399 -1.5870
 3935SOL    HW212234   2.019   0.218   2.972 -1.9363 -0.2099 -1.0491
 3936SOL     OW12235   3.643   0.470   5.723  0.3100  0.3519 -0.5161
 3936SOL    HW112236   3.629   0.419   5.643 -1.3516 -0.5417  0.2850
 3936SOL    HW212237   3.599   0.419   5.792 -1.5558  2.8653  0.3036
 3937SOL     OW12238   4.989   2.116   3.208  0.2266 -0.6469  0.6197
 3937SOL    HW112239   4.996   2.022   3.193  0.6281 -0.7853  1.6424
 3937SOL    HW212240   5.064   2.154   3.161 -0.4522 -0.7163 -0.5862
 3938SOL     OW12241   1.758   5.913   1.336 -0.2619 -0.0806  0.6192
 3938SOL    HW112242   1.692   5.970   1.294 -0.1741  0.4073  1.1307
 3938SOL    HW212243   1.792   5.966   1.408  1.3528  0.0369 -0.1865
 3939SOL     OW12244   2.531   1.427   1.886  0.3927  0.1249  0.2805
 3939SOL    HW112245   2.569   1.384   1.963  0.7483  1.8988  1.1267
 3939SOL    HW212246   2.446   1.459   1.916 -0.2720 -0.7468 -0.6057
 3940SOL     OW12247   0.321   2.058   0.333  0.3683 -0.0387  0.3677
 3940SOL    HW112248   0.309   2.078   0.240 -0.4215  1.4006  0.7478
 3940SOL    HW212249   0.294   1.966   0.341 -2.1491  0.5360 -0.4119
 3941SOL     OW12250   2.368   2.940   3.328 -0.4132 -0.1696  0.0361
 3941SOL    HW112251   2.448   2.993   3.323 -0.4757 -0.1073 -0.3090
 3941SOL    HW212252   2.316   2.967   3.253 -0.9307  0.0645  0.4691
 3942SOL     OW12253   2.052   4.882   1.275 -0.4264 -0.3475 -0.0425
 3942SOL    HW112254   2.020   4.951   1.334 -3.0504 -1.8772  0.5004
 3942SOL    HW212255   2.111   4.829   1.330  0.0087  0.2989  0.1223
 3943SOL     OW12256   1.937   4.174   5.010  0.5831  0.6648 -0.5464
 3943SOL    HW112257   1.961   4.156   4.919 -0.0467  1.8590 -0.9661
 3943SOL    HW212258   1.843   4.193   5.008  0.1345 -1.1575  0.6582
 3944SOL     OW12259   4.180   2.498   2.430 -0.4408  0.8391 -0.5440
 3944SOL    HW112260   4.234   2.504   2.509  0.6900  0.4356 -1.2649
 3944SOL    HW212261   4.127   2.419   2.444  0.5129  0.1663 -0.6287
 3945SOL     OW12262   2.880   6.201   0.089  0.0189 -0.0165  0.2899
 3945SOL    HW112263   2.820   6.149   0.035 -1.2514  0.6916  1.0021
 3945SOL    HW212264   2.958   6.211   0.034  0.3330 -2.6629  0.1161
 3946SOL     OW12265   0.456   0.668   3.507  0.0511  0.1552  0.0410
 3946SOL    HW112266   0.552   0.662   3.498  0.1321  1.3994 -0.1469
 3946SOL    HW212267   0.427   0.578   3.519  1.1143 -0.3966 -1.2816
 3947SOL     OW12268   4.557   0.927   3.840 -0.0870  0.3530  0.1318
 3947SOL    HW112269   4.650   0.919   3.819  0.1700  2.3320  0.3477
 3947SOL    HW212270   4.534   1.017   3.815 -1.2437  0.8301  2.5672
 3948SOL     OW12271   0.180   0.534   6.098 -0.3983 -0.0910 -0.0809
 3948SOL    HW112272   0.131   0.587   6.035 -1.6567 -1.1060  0.0030
 3948SOL    HW212273   0.271   0.563   6.089 -0.7214  0.4995 -1.6154
 3949SOL     OW12274   0.296   3.619   4.303  0.5265 -0.2508  0.2970
 3949SOL    HW112275   0.342   3.580   4.377  0.6113  0.1139  0.4373
 3949SOL    HW212276   0.275   3.707   4.332 -2.1514 -1.0379  1.0809
 3950SOL     OW12277   5.491   3.040   5.418  0.4326 -0.0424 -0.0312
 3950SOL    HW112278   5.471   3.118   5.470  0.6275 -0.5745  0.8637
 3950SOL    HW212279   5.405   3.002   5.399  0.3580  0.1677 -0.1180
 3951SOL     OW12280   1.407   1.813   5.037  0.0686  0.0304  0.1053
 3951SOL    HW112281   1.324   1.789   5.080 -0.3680  0.1810 -0.6362
 3951SOL    HW212282   1.475   1.777   5.094 -0.5381 -1.8658 -0.3095
 3952SOL     OW12283   3.532   6.116   1.943 -0.7214  0.2093  0.2248
 3952SOL    HW112284   3.558   6.172   2.016 -3.9314 -0.6829  2.2430
 3952SOL    HW212285   3.525   6.028   1.981 -2.0172 -0.3697 -1.2411
 3953SOL     OW12286   1.551   4.636   3.435 -0.6764  0.6536 -0.1831
 3953SOL    HW112287   1.571   4.548   3.465  0.6131  0.7415 -0.7247
 3953SOL    HW212288   1.460   4.651   3.462  0.0847  0.4163  2.8635
 3954SOL     OW12289   4.217   5.156   4.415  0.7031 -0.2692  0.2418
 3954SOL    HW112290   4.242   5.167   4.323 -2.7387 -1.4256 -0.9586
 3954SOL    HW212291   4.156   5.227   4.433 -0.6429 -1.5013  0.7829
 3955SOL     OW12292   1.024   2.624   2.013  0.9072 -0.0674 -0.8625
 3955SOL    HW112293   1.018   2.615   2.108 -0.9180 -0.7430 -0.9989
 3955SOL    HW212294   0.976   2.705   1.994  0.0500 -0.6683 -1.3070
 3956SOL     OW12295   5.493   5.337   4.930 -0.0417 -0.1977  0.2587
 3956SOL    HW112296   5.476   5.244   4.946 -0.2567 -0.4882 -1.4843
 3956SOL    HW212297   5.581   5.339   4.893 -0.5124  0.1387 -0.8841
 3957SOL     OW12298   5.237   3.247   3.049 -0.1465 -0.2092 -0.2862
 3957SOL    HW112299   5.303   3.228   2.982 -1.1398 -1.6142 -0.9178
 3957SOL    HW212300   5.287   3.268   3.127  1.0546 -0.5255 -0.9497
 3958SOL     OW12301   0.295   1.298   2.870  0.3477  0.2189 -0.8750
 3958SOL    HW112302   0.372   1.319   2.817  1.2513  0.2227  0.3859
 3958SOL    HW212303   0.321   1.322   2.960 -0.9167 -0.3297 -0.3454
 3959SOL     OW12304   3.491   0.135   3.113 -0.0024  0.2579  0.0159
 3959SOL    HW112305   3.534   0.141   3.198 -0.2813  1.3943  0.0863
 3959SOL    HW212306   3.546   0.075   3.062  1.8732  1.9230 -0.0182
 3960SOL     OW12307   5.007   2.090   0.270  0.6598  0.0907 -0.4954
 3960SOL    HW112308   5.027   2.116   0.180  0.3199 -0.2148 -0.6626
 3960SOL    HW212309   5.036   1.999   0.275 -1.5420 -0.7005 -1.0454
 3961SOL     OW12310   2.602   0.906   0.463 -0.1715 -0.2373  0.2400
 3961SOL    HW112311   2.679   0.963   0.463 -0.6622  0.4539  0.1955
 3961SOL    HW212312   2.557   0.926   0.381 -0.8589  0.0350  0.6693
 3962SOL     OW12313   2.940   3.614   2.800 -0.3156  0.4938  0.1979
 3962SOL    HW112314   2.894   3.696   2.782  1.4713  2.3105  3.0290
 3962SOL    HW212315   3.020   3.619   2.748  0.1914  0.9856  1.0104
 3963SOL     OW12316   1.239   0.481   0.794 -0.2589 -0.1383  0.6434
 3963SOL    HW112317   1.189   0.463   0.873  0.0358  2.0655  1.3865
 3963SOL    HW212318   1.198   0.559   0.757  0.3390 -0.4614 -0.7735
 3964SOL     OW12319   3.868   2.135   0.077  0.4687 -0.3713 -0.1285
 3964SOL    HW112320   3.863   2.141  -0.018  0.1941  3.2992 -0.0451
 3964SOL    HW212321   3.795   2.188   0.108  0.2216 -1.9226  2.1824
 3965SOL     OW12322   0.599   5.684   5.505  0.0368 -0.2317 -0.6378
 3965SOL    HW112323   0.676   5.634   5.477 -0.5951 -1.3359 -0.4254
 3965SOL    HW212324   0.528   5.652   5.449 -0.1981  1.1104 -1.1520
 3966SOL     OW12325   0.932   2.488   0.795 -0.0770 -0.1856 -0.7063
 3966SOL    HW112326   0.927   2.474   0.889  3.1206 -2.7937 -0.7787
 3966SOL    HW212327   0.852   2.449   0.761  0.2974 -2.3429  0.7150
 3967SOL     OW12328   5.539   3.845   0.936  0.1257  0.2405  0.3859
 3967SOL    HW112329   5.557   3.800   1.019 -0.4085 -0.8566 -0.0739
 3967SOL    HW212330   5.527   3.774   0.873 -0.5678  1.0416 -0.4034
 3968SOL     OW12331   3.232   2.283   1.705 -0.3856  0.2332 -0.0332
 3968SOL    HW112332   3.237   2.376   1.680  0.9890  0.1391 -0.1652
 3968SOL    HW212333   3.184   2.284   1.789  2.4300  1.4542  1.7227
 3969SOL     OW12334   0.026   1.722   1.944  0.0522 -0.0718 -0.1589
 3969SOL    HW112335   0.059   1.796   1.994 -2.5457  0.8719  0.3071
 3969SOL    HW212336  -0.041   1.759   1.887  0.6860 -1.6406 -2.0443
 3970SOL     OW12337   5.375   0.918   5.073 -0.1550 -1.0739 -0.8083
 3970SOL    HW112338   5.431   0.907   4.996 -0.1739 -0.2999 -0.9452
 3970SOL    HW212339   5.321   0.995   5.052  0.4165 -0.3384  0.3164
 3971SOL     OW12340   2.129   5.136   5.986 -0.2788 -0.1315 -0.0120
 3971SOL    HW112341   2.071   5.074   6.030  1.3450 -1.1710  0.7896
 3971SOL    HW212342   2.194   5.080   5.943  0.4261  1.0012 -0.4487
 3972SOL     OW12343   4.218   0.449   2.944  0.5330  0.2315 -0.0611
 3972SOL    HW112344   4.167   0.414   2.872 -0.3793  1.5160 -0.0688
 3972SOL    HW212345   4.220   0.543   2.929 -0.7934  0.7016  2.2613
 3973SOL     OW12346   6.109   3.226   1.041  0.5813  0.2113 -0.3047
 3973SOL    HW112347   6.043   3.252   0.976  0.8698 -0.4046 -0.8460
 3973SOL    HW212348   6.164   3.304   1.051 -1.4636  1.5227  1.7667
 3974SOL     OW12349   1.922   1.970   3.148 -0.0909  0.0364 -0.0164
 3974SOL    HW112350   1.964   1.971   3.233  0.5073  0.2353 -0.3053
 3974SOL    HW212351   1.834   1.936   3.164  0.5129 -1.3690  0.4457
 3975SOL     OW12352   5.443   0.618   4.828 -0.5324 -0.2680 -0.1290
 3975SOL    HW112353   5.489   0.539   4.859  0.2687  0.0537 -0.4607
 3975SOL    HW212354   5.495   0.648   4.753 -0.3445  1.0317  0.4836
 3976SOL     OW12355   4.583   3.119   3.980 -0.2971  0.2866  0.2073
 3976SOL    HW112356   4.515   3.186   3.983 -0.8915 -0.3105  0.1911
 3976SOL    HW212357   4.662   3.167   3.957 -0.8588  0.8709 -0.5439
 3977SOL     OW12358   0.550   2.377   3.766  0.1033 -0.2084  0.1963
 3977SOL    HW112359   0.569   2.361   3.673 -0.5641 -0.8968  0.1659
 3977SOL    HW212360   0.463   2.341   3.778 -0.4494  1.2455  0.7446
 3978SOL     OW12361   4.425   3.042   5.826 -0.3950  0.0353  0.3694
 3978SOL    HW112362   4.455   2.982   5.894  1.7043 -0.6463 -1.0457
 3978SOL    HW212363   4.465   3.009   5.745  1.2876  3.4888 -0.4324
 3979SOL     OW12364   4.973   2.077   5.115 -0.3081  0.1250 -1.0109
 3979SOL    HW112365   4.989   2.169   5.096  0.0696  0.2409 -0.1657
 3979SOL    HW212366   4.914   2.078   5.191 -2.3664 -0.3241 -2.4971
 3980SOL     OW12367   5.232   3.608   3.371 -0.1827  0.1714  0.6643
 3980SOL    HW112368   5.205   3.670   3.440  1.3208 -0.5109  1.9395
 3980SOL    HW212369   5.150   3.577   3.333 -0.9914  3.2672 -0.3707
 3981SOL     OW12370   4.688   5.639   4.566  0.8711  0.5552 -0.1778
 3981SOL    HW112371   4.777   5.672   4.558  1.6107 -1.2859 -0.0587
 3981SOL    HW212372   4.664   5.612   4.477  1.5609 -1.5779  0.2280
 3982SOL     OW12373   0.858   0.554   3.650 -0.2457  0.0300 -0.3834
 3982SOL    HW112374   0.838   0.519   3.737  1.4574  0.3266  0.1659
 3982SOL    HW212375   0.922   0.494   3.613  1.3736  1.5188 -0.1478
 3983SOL     OW12376   4.400   4.417   1.075 -0.0825 -0.6923 -0.3347
 3983SOL    HW112377   4.357   4.502   1.080  1.0748 -0.1570  2.3032
 3983SOL    HW212378   4.482   4.434   1.030  0.1257 -0.4054  0.1470
 3984SOL     OW12379   0.802   5.654   0.129 -0.2943  0.3096  0.1747
 3984SOL    HW112380   0.808   5.748   0.113  1.4624  0.1822 -0.0931
 3984SOL    HW212381   0.808   5.645   0.224 -0.1781  0.4535  0.1814
 3985SOL     OW12382   0.031   6.033   1.390 -0.8196 -0.0978 -0.0748
 3985SOL    HW112383   0.002   5.992   1.309 -0.1924 -1.1004  0.1873
 3985SOL    HW212384   0.064   5.961   1.443 -0.5900  0.6288  0.8055
 3986SOL     OW12385   5.747   4.339   2.975  0.5674 -0.3934  0.0971
 3986SOL    HW112386   5.821   4.298   2.931  0.5952 -0.6546  0.3786
 3986SOL    HW212387   5.703   4.267   3.020 -0.5139 -0.4241 -0.9670
 3987SOL     OW12388   2.216   3.522   1.751 -0.2862 -0.1346 -0.0595
 3987SOL    HW112389   2.233   3.616   1.746  0.3138 -0.2427 -0.1219
 3987SOL    HW212390   2.137   3.509   1.699  0.7765  0.0472 -1.7833
 3988SOL     OW12391   0.152   1.797   4.476  0.5371 -0.1287 -0.0564
 3988SOL    HW112392   0.095   1.743   4.530  0.9719  1.6104  2.2947
 3988SOL    HW212393   0.093   1.853   4.427  0.1698 -0.6168 -0.1841
 3989SOL     OW12394   4.234   2.853   0.809 -0.5568  0.0059  0.3448
 3989SOL    HW112395   4.298   2.923   0.796  1.1622 -1.6971 -1.0336
 3989SOL    HW212396   4.150   2.898   0.818  0.7740  2.3251  1.9985
 3990SOL     OW12397   3.713   2.506   4.960  0.1631  0.6301 -0.4861
 3990SOL    HW112398   3.800   2.484   4.992  0.2065 -0.2358 -1.1536
 3990SOL    HW212399   3.676   2.422   4.932 -1.3214  0.7974  0.8043
 3991SOL     OW12400   3.828   2.994   3.536 -0.2258 -0.1723  0.7259
 3991SOL    HW112401   3.847   3.040   3.617 -0.6039 -1.7669  1.7522
 3991SOL    HW212402   3.822   2.902   3.560  0.4206 -0.7930 -1.2482
 3992SOL     OW12403   2.892   4.194   2.630 -0.6289  0.0650  0.3569
 3992SOL    HW112404   2.951   4.126   2.597 -1.0916 -0.2650  0.1926
 3992SOL    HW212405   2.838   4.148   2.695 -0.6829  0.3700  0.5268
 3993SOL     OW12406   5.312   0.208   5.817  0.3462 -0.9229 -0.0791
 3993SOL    HW112407   5.270   0.124   5.835 -0.3721 -0.3055  1.3086
 3993SOL    HW212408   5.398   0.201   5.858  1.4110 -1.9445 -2.3453
 3994SOL     OW12409   4.116   2.360   1.916  0.3068 -0.1980  0.2457
 3994SOL    HW112410   4.153   2.273   1.929  0.6358 -0.2258 -0.8295
 3994SOL    HW212411   4.153   2.391   1.833  0.0669  0.8994  0.5229
 3995SOL     OW12412   2.254   0.585   5.959 -0.2122  0.1746 -0.3109
 3995SOL    HW112413   2.330   0.539   5.995 -0.3067  0.7001  0.5867
 3995SOL    HW212414   2.208   0.620   6.036 -2.1397 -1.2797 -0.6995
 3996SOL     OW12415   3.256   4.013   0.422 -0.5761 -0.6308  0.4035
 3996SOL    HW112416   3.279   4.074   0.352 -1.0520 -1.7836 -0.7938
 3996SOL    HW212417   3.251   3.927   0.379 -2.6009 -1.1268  1.4689
 3997SOL     OW12418   1.726   1.029   3.522 -0.0432 -0.2000 -0.0362
 3997SOL    HW112419   1.653   0.982   3.562 -0.6061 -0.3919 -1.2457
 3997SOL    HW212420   1.712   1.120   3.546  1.7946 -0.6905  3.4769
 3998SOL     OW12421   0.852   4.181   4.475 -0.1182 -0.9661  0.1022
 3998SOL    HW112422   0.946   4.189   4.460 -0.1910 -0.1984  0.0135
 3998SOL    HW212423   0.812   4.222   4.397 -0.5268 -1.4963  0.0257
 3999SOL     OW12424   1.993   5.854   1.898 -0.3943 -0.3503 -0.0576
 3999SOL    HW112425   1.962   5.907   1.972  1.0599 -0.1502  0.4294
 3999SOL    HW212426   1.964   5.765   1.919 -0.1741 -0.2587  0.6538
 4000SOL     OW12427   1.583   0.325   5.991  0.2119 -0.7322  0.1065
 4000SOL    HW112428   1.528   0.259   6.033 -0.9035  0.9214  1.3836
 4000SOL    HW212429   1.605   0.288   5.906 -1.7489 -2.0350  0.1101
 4001SOL     OW12430   2.687   5.660   3.445 -0.2182 -0.0955  0.1433
 4001SOL    HW112431   2.672   5.583   3.500 -0.7242  0.8301  1.3693
 4001SOL    HW212432   2.767   5.699   3.480  0.5464 -0.5559 -1.0672
 4002SOL     OW12433   3.674   4.924   4.379 -0.5701  0.3947  0.0338
 4002SOL    HW112434   3.718   4.847   4.344  0.6514  1.1946 -0.2241
 4002SOL    HW212435   3.623   4.958   4.306  0.8562  1.2403 -0.6154
 4003SOL     OW12436   0.031   1.649   2.341  0.0600  0.0549  0.0684
 4003SOL    HW112437   0.117   1.661   2.299 -0.1402 -3.0902 -1.5526
 4003SOL    HW212438  -0.025   1.714   2.300  0.9366 -0.0507 -1.3872
 4004SOL     OW12439   4.309   0.603   3.468 -0.6393 -0.5579  0.0776
 4004SOL    HW112440   4.222   0.608   3.428 -0.2186 -1.8208 -1.0511
 4004SOL    HW212441   4.306   0.524   3.521  0.0355 -0.9968 -0.5247
 4005SOL     OW12442   4.403   5.431   1.668  0.1329 -0.6326  0.0714
 4005SOL    HW112443   4.391   5.426   1.573 -0.0741 -1.1163  0.1201
 4005SOL    HW212444   4.316   5.414   1.704 -0.2160  1.4554  0.3177
 4006SOL     OW12445   5.552   1.472   3.528  0.0872 -0.0591 -0.9930
 4006SOL    HW112446   5.485   1.516   3.477 -0.0886  0.6908 -0.1297
 4006SOL    HW212447   5.629   1.529   3.522  0.2058 -0.1967 -0.7896
 4007SOL     OW12448   3.560   0.861   1.672 -0.5902 -0.4808 -0.4443
 4007SOL    HW112449   3.545   0.768   1.653 -1.8674 -0.5785  0.8620
 4007SOL    HW212450   3.627   0.861   1.740 -0.3221 -0.4312 -0.7099
 4008SOL     OW12451   4.525   3.775   3.003  0.1899 -0.0077  0.1533
 4008SOL    HW112452   4.450   3.824   2.969 -0.9432 -1.3379  0.6313
 4008SOL    HW212453   4.579   3.841   3.046  0.3910  1.3238 -1.9985
 4009SOL     OW12454   5.255   3.092   1.262  0.0092 -0.9481  0.1950
 4009SOL    HW112455   5.264   3.020   1.200 -2.3197 -0.8627 -0.3327
 4009SOL    HW212456   5.291   3.058   1.344  0.5784 -2.0499 -0.4916
 4010SOL     OW12457   0.722   1.693   3.355 -0.2087  0.1345  0.0121
 4010SOL    HW112458   0.763   1.692   3.442 -0.6964 -0.6284  0.2451
 4010SOL    HW212459   0.629   1.682   3.373 -0.4443  1.0384 -0.5586
 4011SOL     OW12460   1.668   5.286   4.820 -0.1313 -0.2766  0.4462
 4011SOL    HW112461   1.662   5.359   4.759 -1.6097 -1.5287 -1.0130
 4011SOL    HW212462   1.665   5.326   4.907  0.4258  1.4524 -0.2969
 4012SOL     OW12463   3.674   2.679   5.307 -0.2895  0.1375 -0.1176
 4012SOL    HW112464   3.753   2.625   5.294 -0.7175  0.0253 -2.9799
 4012SOL    HW212465   3.608   2.618   5.340  0.1811 -0.3042  0.0162
 4013SOL     OW12466   2.568   0.082   0.892  0.4071 -0.0934 -0.1254
 4013SOL    HW112467   2.493   0.070   0.833  0.3014  0.2737 -0.0710
 4013SOL    HW212468   2.643   0.090   0.834  0.3295  0.0720 -0.2054
 4014SOL     OW12469   1.111   5.023   0.236 -0.1984 -0.0243  0.5682
 4014SOL    HW112470   1.042   5.073   0.280  0.3577  0.8127  0.4967
 4014SOL    HW212471   1.189   5.035   0.291  0.7985  1.9466 -1.1781
 4015SOL     OW12472   5.150   4.582   5.817  0.3700  0.0159 -0.0862
 4015SOL    HW112473   5.192   4.514   5.766  0.3559 -1.2381  1.4979
 4015SOL    HW212474   5.222   4.637   5.849  0.5952 -0.5685  0.4338
 4016SOL     OW12475   4.561   5.028   2.377  0.4424  0.0021  0.4760
 4016SOL    HW112476   4.493   5.072   2.428 -0.5253 -0.4019 -0.4222
 4016SOL    HW212477   4.557   5.069   2.291  2.0649  0.6853  0.6874
 4017SOL     OW12478   4.163   0.169   5.218 -0.0774  0.3962 -0.3013
 4017SOL    HW112479   4.214   0.094   5.250 -0.1522  0.7464  0.6584
 4017SOL    HW212480   4.205   0.193   5.136  0.3403 -0.2994 -0.2990
 4018SOL     OW12481   5.232   0.491   2.932  0.0164 -0.5133  0.3943
 4018SOL    HW112482   5.324   0.499   2.906  0.1479 -0.9239  0.7304
 4018SOL    HW212483   5.196   0.424   2.874 -0.4041  0.5299 -0.5958
 4019SOL     OW12484   1.110   3.840   2.119  0.2551 -0.2042  0.1626
 4019SOL    HW112485   1.174   3.792   2.067  0.8802  0.3845  0.3632
 4019SOL    HW212486   1.158   3.917   2.150 -0.5786  0.2971  0.2437
 4020SOL     OW12487   4.257   3.922   1.575 -0.5445 -0.3119  0.0050
 4020SOL    HW112488   4.216   4.005   1.550 -0.3501 -0.4190 -0.6820
 4020SOL    HW212489   4.227   3.907   1.665  0.2300  1.0285  0.5317
 4021SOL     OW12490   3.413   3.808   4.064  0.3390 -0.3893  0.0640
 4021SOL    HW112491   3.330   3.852   4.085  0.9281  0.4773  0.6434
 4021SOL    HW212492   3.409   3.726   4.112  0.5755  0.4482  1.5730
 4022SOL     OW12493   3.537   2.383   5.350 -0.3611 -0.5265  0.0780
 4022SOL    HW112494   3.619   2.350   5.312 -0.3051 -1.8199  1.2242
 4022SOL    HW212495   3.520   2.324   5.423 -2.2783 -0.2168 -0.0736
 4023SOL     OW12496   5.866   5.571   0.346  0.8540 -0.2727  0.7121
 4023SOL    HW112497   5.956   5.544   0.328  0.4575 -1.9330  1.0471
 4023SOL    HW212498   5.812   5.506   0.302 -0.1735  0.0604  1.4324
 4024SOL     OW12499   2.242   3.323   5.377  0.2951 -0.2426  0.3856
 4024SOL    HW112500   2.306   3.337   5.307  0.8584 -0.6430  0.8032
 4024SOL    HW212501   2.164   3.370   5.349  0.6425 -0.0798 -0.3280
 4025SOL     OW12502   4.905   2.764   2.391  0.9385  0.1155 -0.2412
 4025SOL    HW112503   4.883   2.683   2.344 -0.3978  0.6057 -0.4998
 4025SOL    HW212504   4.909   2.831   2.322  3.6450  0.0547 -0.2767
 4026SOL     OW12505   6.072   2.089   0.687  0.5532  0.6857  0.4238
 4026SOL    HW112506   6.053   2.140   0.608  1.3211  0.7980  0.3092
 4026SOL    HW212507   6.064   1.998   0.659  1.7595  0.7109 -0.0247
 4027SOL     OW12508   5.081   1.846   5.143 -0.1657 -0.1461  0.1778
 4027SOL    HW112509   5.046   1.936   5.145 -2.8039 -0.9877 -1.9656
 4027SOL    HW212510   5.084   1.820   5.235 -0.4806  1.7446  0.7667
 4028SOL     OW12511   5.564   5.466   2.640  0.2686 -0.4934  0.4019
 4028SOL    HW112512   5.527   5.553   2.652  1.8482  0.2484  0.1415
 4028SOL    HW212513   5.561   5.452   2.545 -0.2899 -0.8721  0.4726
 4029SOL     OW12514   1.486   5.524   2.832  1.0121 -0.2132 -0.3772
 4029SOL    HW112515   1.457   5.478   2.911 -0.5727  1.7159  0.2599
 4029SOL    HW212516   1.560   5.578   2.862  1.0709 -0.2504 -0.4556
 4030SOL     OW12517   6.137   5.333   2.138 -0.4113  0.6087 -0.6108
 4030SOL    HW112518   6.140   5.238   2.127 -0.3454  0.7916 -2.4800
 4030SOL    HW212519   6.135   5.367   2.048  1.5326  2.4530 -0.0249
 4031SOL     OW12520   3.026   4.589   3.938  0.1467 -0.0194  0.6261
 4031SOL    HW112521   3.020   4.506   3.890  1.4831 -0.4141  1.0771
 4031SOL    HW212522   2.937   4.607   3.966 -0.4346 -0.4929 -0.8110
 4032SOL     OW12523   6.160   0.499   0.299  0.0650  0.2204  0.7052
 4032SOL    HW112524   6.210   0.573   0.266  1.3513 -1.3485 -1.1082
 4032SOL    HW212525   6.221   0.453   0.358  0.5593 -1.1997 -0.8161
 4033SOL     OW12526   3.744   1.308   5.995 -0.0211 -0.0857 -0.0591
 4033SOL    HW112527   3.706   1.344   6.075  0.2558  1.8343 -0.7481
 4033SOL    HW212528   3.833   1.281   6.021 -0.0622  0.1698  0.3588
 4034SOL     OW12529   0.166   1.829   3.094  0.4959 -0.3200 -0.0985
 4034SOL    HW112530   0.192   1.777   3.170  1.3727  1.3197  0.7572
 4034SOL    HW212531   0.231   1.899   3.088  0.6734 -0.6050 -2.6033
 4035SOL     OW12532   0.349   2.007   1.462 -0.3256  0.0510 -0.1089
 4035SOL    HW112533   0.403   1.929   1.477  1.4128  1.1189 -0.5853
 4035SOL    HW212534   0.287   2.007   1.534  2.2256  0.3640  2.2328
 4036SOL     OW12535   1.453   1.812   1.178  0.1761  0.1242 -0.2957
 4036SOL    HW112536   1.398   1.891   1.182  0.6688  0.4161  1.6381
 4036SOL    HW212537   1.541   1.843   1.198  0.5173 -0.8045 -0.3066
 4037SOL     OW12538   6.003   1.182   1.754  0.6150 -0.1967  0.3067
 4037SOL    HW112539   6.016   1.135   1.672  3.1487  0.5804  0.1737
 4037SOL    HW212540   5.992   1.113   1.820  1.4890 -0.9341 -0.2898
 4038SOL     OW12541   4.925   3.309   2.738  0.3278 -0.4765  0.2973
 4038SOL    HW112542   4.928   3.260   2.821  0.3622 -0.5674  0.2429
 4038SOL    HW212543   5.002   3.366   2.742 -0.4783  0.5977  0.9811
 4039SOL     OW12544   0.453   2.463   0.898  0.6665 -0.2366 -0.1376
 4039SOL    HW112545   0.386   2.460   0.829  1.2170  0.4573 -0.7102
 4039SOL    HW212546   0.408   2.428   0.976  0.5474 -2.8248 -1.2571
 4040SOL     OW12547   1.825   0.941   2.605 -0.2483 -0.1595  0.5999
 4040SOL    HW112548   1.766   0.919   2.677  0.6491 -2.1278  0.7822
 4040SOL    HW212549   1.884   0.866   2.598  0.8669  0.8089 -0.9850
 4041SOL     OW12550   4.286   0.843   5.532 -0.3058 -0.0832 -0.1102
 4041SOL    HW112551   4.237   0.772   5.574 -0.3482 -1.0321 -1.7142
 4041SOL    HW212552   4.377   0.811   5.530  0.2441  1.1818  1.7968
 4042SOL     OW12553   1.571   2.707   3.003 -0.4393  0.3637  0.1735
 4042SOL    HW112554   1.539   2.620   3.026  1.5441 -0.3153  0.5599
 4042SOL    HW212555   1.581   2.752   3.086  1.9257 -0.3287  0.3217
 4043SOL     OW12556   4.942   5.494   0.078 -0.5390  0.0942  0.1528
 4043SOL    HW112557   4.870   5.517   0.019 -0.5147 -1.2661 -0.4361
 4043SOL    HW212558   5.009   5.457   0.021  0.5165  1.0472  0.7375
 4044SOL     OW12559   4.155   5.990   2.504 -0.1277 -0.0656  0.2893
 4044SOL    HW112560   4.173   6.062   2.443 -1.1635 -0.2705 -0.2828
 4044SOL    HW212561   4.126   6.034   2.584 -2.1201  0.1725 -0.5058
 4045SOL     OW12562   5.185   0.981   1.508 -0.2371  0.1045  0.3582
 4045SOL    HW112563   5.182   1.076   1.520 -1.6191  0.0608  0.5699
 4045SOL    HW212564   5.179   0.946   1.597 -3.2257 -0.1689  0.1460
 4046SOL     OW12565   5.948   5.461   4.356  0.1306  0.6397  0.0187
 4046SOL    HW112566   6.035   5.424   4.341 -0.7395 -1.6887  0.1697
 4046SOL    HW212567   5.926   5.435   4.446 -0.5283  1.6454  0.1651
 4047SOL     OW12568   2.091   1.500   5.201  0.2379 -0.4075  0.0016
 4047SOL    HW112569   2.081   1.405   5.211 -0.4181 -0.5078 -1.3177
 4047SOL    HW212570   2.001   1.532   5.192  0.5155  0.0054 -1.9300
 4048SOL     OW12571   4.779   1.559   3.171 -0.1513  0.1008  0.5784
 4048SOL    HW112572   4.819   1.608   3.242 -0.2280  0.9218  0.0680
 4048SOL    HW212573   4.813   1.470   3.180 -1.1051 -0.1120  2.3634
 4049SOL     OW12574   2.215   3.483   1.261  0.3574 -0.4626  0.1251
 4049SOL    HW112575   2.295   3.525   1.292  0.1862 -0.6324  0.8082
 4049SOL    HW212576   2.145   3.544   1.283  0.4171  0.3493 -1.7526
 4050SOL     OW12577   1.499   4.255   5.778 -0.7273  0.3726 -0.4759
 4050SOL    HW112578   1.556   4.319   5.822 -1.3178  2.2467 -2.3200
 4050SOL    HW212579   1.410   4.283   5.799 -0.9967  0.2763 -1.4637
 4051SOL     OW12580   5.374   1.595   1.597 -0.1901 -0.1476  0.3872
 4051SOL    HW112581   5.368   1.690   1.584  0.4917 -0.1713 -0.1451
 4051SOL    HW212582   5.373   1.584   1.692  4.8010  0.8290  0.7929
 4052SOL     OW12583   0.098   6.104   5.219 -0.2521 -0.1205 -0.0541
 4052SOL    HW112584   0.145   6.023   5.199  0.3904  0.0918  0.5648
 4052SOL    HW212585   0.107   6.156   5.139  1.9327  0.5444  0.5531
 4053SOL     OW12586   4.570   5.125   3.375 -0.7063  0.0448  0.2654
 4053SOL    HW112587   4.497   5.107   3.316  0.3498 -0.7197 -0.8739
 4053SOL    HW212588   4.535   5.109   3.463 -1.9529 -0.0912 -0.2325
 4054SOL     OW12589   2.225   1.186   2.098  0.5289  0.0894 -0.4239
 4054SOL    HW112590   2.265   1.134   2.167  0.0513  0.3813  0.0835
 4054SOL    HW212591   2.253   1.144   2.017  1.2078 -0.1774 -0.0595
 4055SOL     OW12592   3.986   1.229   6.168 -0.2046  0.3464 -0.0506
 4055SOL    HW112593   4.059   1.258   6.113  0.7853  0.4828  1.2640
 4055SOL    HW212594   3.973   1.301   6.230 -0.7842 -0.1001  0.3617
 4056SOL     OW12595   3.771   3.667   0.524  0.2209 -0.1874  0.0742
 4056SOL    HW112596   3.843   3.690   0.583  0.1982  1.5260 -0.5185
 4056SOL    HW212597   3.695   3.658   0.582  0.8084 -1.6966  0.6650
 4057SOL     OW12598   2.460   1.822   4.607  0.4302  0.3869 -0.2584
 4057SOL    HW112599   2.539   1.793   4.563  0.1156  1.5383 -1.6823
 4057SOL    HW212600   2.486   1.834   4.699  1.4774 -0.7118 -0.3887
 4058SOL     OW12601   5.849   2.954   5.208 -0.5799  0.0331  0.0725
 4058SOL    HW112602   5.796   3.033   5.195  1.6358  1.8366  1.2047
 4058SOL    HW212603   5.898   2.944   5.126 -1.3867 -0.6594 -0.3473
 4059SOL     OW12604   4.024   2.532   5.697  0.1376 -0.1220  0.2726
 4059SOL    HW112605   4.016   2.496   5.609 -0.6076  1.2793 -0.2775
 4059SOL    HW212606   4.117   2.525   5.718  0.5189  0.5146 -1.0855
 4060SOL     OW12607   5.101   4.868   4.586 -0.7621 -0.0418 -0.6436
 4060SOL    HW112608   5.151   4.802   4.538 -1.2553  0.2117 -1.5172
 4060SOL    HW212609   5.167   4.922   4.629 -0.3465 -2.0982  1.5112
 4061SOL     OW12610   4.077   0.270   4.425 -0.3199  0.2367 -0.3724
 4061SOL    HW112611   4.133   0.193   4.442 -1.2283 -0.5571 -0.8875
 4061SOL    HW212612   4.119   0.314   4.352  0.4126  0.4471  0.1607
 4062SOL     OW12613   2.022   0.782   4.435  0.1603 -0.0798  0.2909
 4062SOL    HW112614   2.075   0.854   4.402  1.4433 -1.0049  0.2519
 4062SOL    HW212615   2.085   0.719   4.469 -0.9686 -0.8074  1.1096
 4063SOL     OW12616   5.269   2.117   3.926  0.2876  0.2048  0.1768
 4063SOL    HW112617   5.231   2.145   4.010  0.0827  0.3855  0.0240
 4063SOL    HW212618   5.207   2.149   3.860 -0.4946 -1.4756  0.0435
 4064SOL     OW12619   1.313   1.217   0.641  0.0684  0.0947  0.1840
 4064SOL    HW112620   1.242   1.243   0.700 -0.3698  0.1703 -0.3755
 4064SOL    HW212621   1.356   1.299   0.618  1.4628 -0.0941  1.9122
 4065SOL     OW12622   2.894   1.818   0.746  0.2159 -0.1478  0.7793
 4065SOL    HW112623   2.971   1.831   0.801 -1.3073  0.7520  2.8532
 4065SOL    HW212624   2.918   1.747   0.686  2.9273  0.7152  0.7253
 4066SOL     OW12625   6.159   1.646   6.085  0.0311  0.2606 -0.0754
 4066SOL    HW112626   6.207   1.636   6.167  2.1484 -1.9183 -1.4601
 4066SOL    HW212627   6.101   1.570   6.082  0.7369 -0.2534 -1.0509
 4067SOL     OW12628   1.018   2.922   4.121 -0.3676  0.6305 -0.1099
 4067SOL    HW112629   1.055   2.894   4.037  1.7780 -0.3141  1.0731
 4067SOL    HW212630   1.005   3.016   4.111  0.3618  0.6277 -1.3151
 4068SOL     OW12631   6.214   3.803   4.712  0.4897 -0.2318 -0.6589
 4068SOL    HW112632   6.148   3.871   4.726  0.7516  0.0750 -0.9047
 4068SOL    HW212633   6.283   3.825   4.774 -0.3183 -1.4704  0.7639
 4069SOL     OW12634   5.917   6.018   0.351 -0.3693  0.4572 -0.1721
 4069SOL    HW112635   5.850   5.964   0.393  0.2923  0.5341  1.0247
 4069SOL    HW212636   5.939   6.084   0.416  0.4167  0.8198 -0.7869
 4070SOL     OW12637   4.280   3.287   1.342 -0.6053  0.2005  0.0880
 4070SOL    HW112638   4.336   3.275   1.419 -0.9703 -1.4817  0.1324
 4070SOL    HW212639   4.340   3.308   1.271 -0.2901  2.1010  0.8621
 4071SOL     OW12640   0.592   2.394   2.870 -0.1119  0.0672 -0.4053
 4071SOL    HW112641   0.581   2.406   2.964  0.2151 -2.7315  0.0706
 4071SOL    HW212642   0.585   2.482   2.834  0.6933  1.3553  2.3121
 4072SOL     OW12643   2.114   0.919   1.441  0.3460 -0.3288  0.1813
 4072SOL    HW112644   2.059   0.912   1.362  0.6163  1.8443 -0.2711
 4072SOL    HW212645   2.081   0.997   1.486  1.7634 -0.1463  0.9512
 4073SOL     OW12646   4.725   2.596   6.096 -0.3660 -0.2746  0.2643
 4073SOL    HW112647   4.669   2.606   6.019 -0.1027  0.4690  0.1646
 4073SOL    HW212648   4.694   2.664   6.156  1.3658  1.1369 -0.3665
 4074SOL     OW12649   5.203   6.083   2.119 -0.0265 -0.5904  0.2849
 4074SOL    HW112650   5.209   6.094   2.214  2.2346  0.3939  0.0948
 4074SOL    HW212651   5.198   6.172   2.085 -0.7205 -0.9349 -0.5281
 4075SOL     OW12652   4.691   1.079   4.558 -0.1026  0.1791  0.0280
 4075SOL    HW112653   4.648   1.152   4.514 -0.5526  0.4783  0.9242
 4075SOL    HW212654   4.655   1.081   4.647 -0.1234 -1.1352  0.0649
 4076SOL     OW12655   0.645   1.934   2.097 -0.5034  0.1836 -0.0926
 4076SOL    HW112656   0.576   1.883   2.055 -0.9737  1.2332 -0.6241
 4076SOL    HW212657   0.723   1.917   2.044 -0.9036  0.8334 -0.9229
 4077SOL     OW12658   0.561   3.728   5.020 -0.3354  0.4960 -0.1095
 4077SOL    HW112659   0.610   3.651   4.992  1.5789  0.3595  3.0479
 4077SOL    HW212660   0.624   3.800   5.012 -1.2504  1.2503 -0.5988
 4078SOL     OW12661   6.038   0.206   0.328 -0.6246 -0.1194  0.1307
 4078SOL    HW112662   6.058   0.289   0.371 -0.8991 -1.1370  2.3565
 4078SOL    HW212663   5.965   0.169   0.379 -1.1126 -1.3220 -1.3592
 4079SOL     OW12664   0.165   1.158   0.598  0.0442 -0.0427 -0.1383
 4079SOL    HW112665   0.099   1.090   0.585  0.5441 -0.5092 -0.2689
 4079SOL    HW212666   0.237   1.133   0.539  0.5728  0.1478  0.4184
 4080SOL     OW12667   4.792   5.394   3.537  0.3528 -0.3290  0.2620
 4080SOL    HW112668   4.812   5.301   3.545  2.5665 -0.2678 -2.9967
 4080SOL    HW212669   4.718   5.397   3.475  1.2543  0.0701 -0.8306
 4081SOL     OW12670   2.106   4.269   5.381 -0.1889  0.5662  0.0329
 4081SOL    HW112671   2.015   4.279   5.355 -0.4255 -1.2533  0.0764
 4081SOL    HW212672   2.127   4.177   5.364  1.6910  0.9780 -0.1291
 4082SOL     OW12673   5.227   3.658   4.801 -0.0224  0.1187 -0.1328
 4082SOL    HW112674   5.305   3.666   4.747 -1.4395  1.0244 -2.1873
 4082SOL    HW212675   5.155   3.652   4.738 -1.6222 -0.6738  1.6723
 4083SOL     OW12676   4.049   4.625   1.254 -0.6912  0.4347 -0.5302
 4083SOL    HW112677   4.089   4.699   1.299 -1.5396 -0.3249  1.5816
 4083SOL    HW212678   3.963   4.617   1.294 -1.4072 -0.4766 -2.1492
 4084SOL     OW12679   5.030   4.889   5.760  0.2023  0.3788 -0.7041
 4084SOL    HW112680   4.978   4.868   5.838 -0.8692  1.4777 -1.0869
 4084SOL    HW212681   4.990   4.969   5.725 -0.1855 -0.7601 -3.1117
 4085SOL     OW12682   3.112   5.885   4.724 -0.1171 -0.2533  0.0908
 4085SOL    HW112683   3.054   5.811   4.740 -2.3907  1.5707  0.7823
 4085SOL    HW212684   3.071   5.933   4.652  0.3237  1.2798  0.8180
 4086SOL     OW12685   2.957   5.365   2.696 -0.2037 -0.3120  0.3838
 4086SOL    HW112686   2.944   5.294   2.633  0.0558 -0.9838  1.0770
 4086SOL    HW212687   2.979   5.441   2.642  1.5606 -1.2291 -0.2544
 4087SOL     OW12688   5.543   1.148   5.250 -0.5136  0.2554  0.0258
 4087SOL    HW112689   5.494   1.145   5.168  0.7181 -0.7053 -0.7097
 4087SOL    HW212690   5.562   1.056   5.270  1.5585  0.6069 -0.1093
 4088SOL     OW12691   5.975   5.534   3.770  0.8151  0.0840 -0.5833
 4088SOL    HW112692   5.991   5.444   3.741  0.4861 -0.3110  0.4323
 4088SOL    HW212693   6.019   5.541   3.855  1.4688  1.1207 -0.9870
 4089SOL     OW12694   3.916   2.999   1.611  0.4733 -1.0768 -0.8460
 4089SOL    HW112695   3.894   3.028   1.522 -0.1423 -0.9183 -0.6468
 4089SOL    HW212696   3.975   2.925   1.598  0.4887 -0.9742 -1.3871
 4090SOL     OW12697   0.995   1.915   3.279  0.3894 -0.0212  0.5702
 4090SOL    HW112698   0.955   1.939   3.362  0.4069  1.5716  0.1494
 4090SOL    HW212699   0.921   1.900   3.220  0.3846  0.5094  0.4373
 4091SOL     OW12700   1.692   5.701   2.884  0.6310  0.0418 -0.6478
 4091SOL    HW112701   1.710   5.742   2.969  0.6795 -0.3865 -0.4462
 4091SOL    HW212702   1.622   5.754   2.846 -0.1938 -0.4438  0.1727
 4092SOL     OW12703   0.373   4.113   2.760 -0.0818  0.2255  0.4711
 4092SOL    HW112704   0.279   4.093   2.764 -0.0791 -0.4288 -1.4653
 4092SOL    HW212705   0.414   4.052   2.820 -0.6027 -1.9981 -1.3037
 4093SOL     OW12706   0.344   4.004   5.367 -0.7300 -0.2390 -0.6459
 4093SOL    HW112707   0.323   3.910   5.365 -1.4096 -0.1171  0.0402
 4093SOL    HW212708   0.409   4.016   5.298  3.5557 -2.2329  2.5803
 4094SOL     OW12709   2.056   1.924   0.903  0.4006 -0.1337  0.5510
 4094SOL    HW112710   2.134   1.977   0.887  0.1023  0.0734 -0.3054
 4094SOL    HW212711   1.984   1.987   0.902 -0.3707 -0.7494 -3.6910
 4095SOL     OW12712   4.943   0.670   4.106  0.3264  0.1896 -1.0286
 4095SOL    HW112713   4.959   0.579   4.133  0.6138  0.3631 -0.5954
 4095SOL    HW212714   4.866   0.696   4.156  0.2341  0.1783 -1.1655
 4096SOL     OW12715   3.920   0.430   1.541 -0.0034  0.6816  0.3069
 4096SOL    HW112716   3.937   0.456   1.450 -0.5428  0.9264  0.2725
 4096SOL    HW212717   4.002   0.388   1.569  0.1763  0.6203 -0.2820
 4097SOL     OW12718   2.199   3.877   1.373  0.1736  1.0276  0.1648
 4097SOL    HW112719   2.198   3.971   1.355 -0.3705  1.0340  0.2164
 4097SOL    HW212720   2.233   3.838   1.293 -0.0730  1.2270 -0.0378
 4098SOL     OW12721   6.002   3.640   6.086 -0.3995 -0.1331  0.0047
 4098SOL    HW112722   5.943   3.713   6.106  0.2155  0.4502 -0.2598
 4098SOL    HW212723   6.052   3.670   6.010 -0.0037 -0.7581  0.0114
 4099SOL     OW12724   5.025   3.777   0.752  0.3619 -0.2597 -0.2363
 4099SOL    HW112725   5.019   3.865   0.788 -3.9462 -0.2612 -0.4009
 4099SOL    HW212726   5.047   3.790   0.660  0.6888  0.5877 -0.0437
 4100SOL     OW12727   3.538   1.964   4.470 -0.1247  0.1738 -0.1253
 4100SOL    HW112728   3.452   1.959   4.429 -0.4098  2.0851  0.1388
 4100SOL    HW212729   3.599   1.943   4.399 -0.7443  0.3033 -0.7106
 4101SOL     OW12730   4.714   0.714   0.354  0.3231  0.1544 -0.2868
 4101SOL    HW112731   4.686   0.689   0.266 -0.6819  0.7143 -0.1393
 4101SOL    HW212732   4.762   0.638   0.387 -0.3105 -0.5129 -0.8827
 4102SOL     OW12733   3.316   5.440   1.107 -0.2903 -0.4516 -0.6709
 4102SOL    HW112734   3.284   5.351   1.120 -1.0327 -0.1078 -0.1091
 4102SOL    HW212735   3.338   5.471   1.195  0.6554 -0.3303 -0.9374
 4103SOL     OW12736   3.621   3.175   3.862  0.4084  0.0889 -0.3666
 4103SOL    HW112737   3.674   3.194   3.939 -2.7673 -0.2969  2.0947
 4103SOL    HW212738   3.570   3.098   3.886  0.8038 -1.4151 -3.7425
 4104SOL     OW12739   4.649   2.500   4.732  0.2659  0.3078  0.4034
 4104SOL    HW112740   4.706   2.530   4.661 -1.9165  1.9671 -0.7716
 4104SOL    HW212741   4.608   2.421   4.696  0.1493  0.4010  0.3292
 4105SOL     OW12742   4.555   5.714   2.532  0.0846  0.1429  0.4249
 4105SOL    HW112743   4.570   5.655   2.606 -1.5871  0.5231  1.1248
 4105SOL    HW212744   4.620   5.688   2.467  0.1071 -1.7415  1.1295
 4106SOL     OW12745   2.189   1.467   5.710 -1.0430  0.1760  0.5741
 4106SOL    HW112746   2.281   1.452   5.732 -1.2288 -0.0025  1.2404
 4106SOL    HW212747   2.141   1.444   5.789 -1.5688  1.4904  0.6575
 4107SOL     OW12748   6.041   5.288   1.127 -0.0692  0.1204 -0.1868
 4107SOL    HW112749   5.994   5.327   1.200  1.1928  1.1649  0.1179
 4107SOL    HW212750   6.132   5.318   1.139  0.4682 -0.9995 -1.2877
 4108SOL     OW12751   3.486   0.901   3.148  0.0526  0.2869 -0.2502
 4108SOL    HW112752   3.495   0.924   3.056 -1.0407  0.1199 -0.4067
 4108SOL    HW212753   3.494   0.806   3.151 -1.4455  0.1261 -0.3983
 4109SOL     OW12754   4.544   2.398   2.158  0.2747 -0.2952 -0.2999
 4109SOL    HW112755   4.449   2.406   2.157  0.2089 -0.9794 -0.4804
 4109SOL    HW212756   4.559   2.304   2.166  0.9368 -0.1794 -0.1529
 4110SOL     OW12757   2.856   4.016   5.879 -0.6261 -0.5478 -0.0963
 4110SOL    HW112758   2.933   3.961   5.868  0.4871  1.3718 -3.4912
 4110SOL    HW212759   2.886   4.087   5.937 -0.2299 -0.5088 -0.3430
 4111SOL     OW12760   2.630   4.524   3.872 -0.2575 -0.1620  0.0672
 4111SOL    HW112761   2.689   4.589   3.911 -0.9189  1.4802 -1.5300
 4111SOL    HW212762   2.545   4.569   3.866 -0.4933 -0.7817 -2.0499
 4112SOL     OW12763   4.556   3.624   4.263  0.1521  0.3813 -0.3967
 4112SOL    HW112764   4.587   3.709   4.233 -0.8401  0.8380 -0.1529
 4112SOL    HW212765   4.461   3.629   4.258 -0.1889  0.7938  3.4346
 4113SOL     OW12766   6.092   2.766   5.154 -0.5654  0.1565  0.5910
 4113SOL    HW112767   6.113   2.673   5.143 -2.2025 -0.3262  1.2459
 4113SOL    HW212768   6.002   2.766   5.186 -0.5627  1.9815  0.6672
 4114SOL     OW12769   2.041   1.996   5.293 -0.0664 -0.4068 -0.1026
 4114SOL    HW112770   2.032   1.953   5.378 -0.0930 -0.0395  0.0792
 4114SOL    HW212771   2.106   1.943   5.247  0.7284  0.0047  0.5330
 4115SOL     OW12772   1.547   0.594   6.034 -0.4296 -0.0144 -0.4879
 4115SOL    HW112773   1.491   0.606   6.110  2.9204 -0.6906  2.3854
 4115SOL    HW212774   1.557   0.499   6.026 -0.1047  0.0732 -1.2283
 4116SOL     OW12775   1.180   0.148   1.892 -0.0681  0.4612 -0.2091
 4116SOL    HW112776   1.096   0.104   1.891 -0.3631  0.9568 -2.5493
 4116SOL    HW212777   1.244   0.078   1.906 -0.8326  0.1699  2.3194
 4117SOL     OW12778   0.546   4.377   3.304 -0.5586 -0.5536  0.2919
 4117SOL    HW112779   0.465   4.420   3.334 -0.8249 -0.7278 -0.1664
 4117SOL    HW212780   0.525   4.347   3.216  0.1177 -0.3162  0.0474
 4118SOL     OW12781   0.314   2.440   4.878 -0.1098 -0.0779 -0.1311
 4118SOL    HW112782   0.367   2.477   4.949  0.1118 -1.5252  0.4885
 4118SOL    HW212783   0.319   2.506   4.809 -1.9998  2.3889  1.8538
 4119SOL     OW12784   4.602   0.112   1.253 -0.0521 -0.3989 -0.2164
 4119SOL    HW112785   4.628   0.139   1.164 -0.4433 -0.7627 -0.4446
 4119SOL    HW212786   4.513   0.144   1.262  0.5603  1.1928  0.7121
 4120SOL     OW12787   1.025   3.555   0.092  0.1826 -0.1476 -0.0925
 4120SOL    HW112788   1.085   3.484   0.111  1.1018  0.3547 -1.0182
 4120SOL    HW212789   1.062   3.631   0.138  1.0159  0.4699 -1.7114
 4121SOL     OW12790   1.966   1.477   4.022  0.2794  0.5131  0.0592
 4121SOL    HW112791   2.002   1.493   4.109  2.1921  0.0582 -0.6003
 4121SOL    HW212792   1.926   1.390   4.029  2.8378 -0.7924 -0.1402
 4122SOL     OW12793   0.898   1.534   3.215 -0.0577  0.0332  0.2907
 4122SOL    HW112794   0.840   1.582   3.274 -0.4072 -0.2600  0.1835
 4122SOL    HW212795   0.922   1.455   3.264 -1.5698 -0.9833 -0.5220
 4123SOL     OW12796   1.720   0.965   3.908  0.7056  0.0658 -0.3085
 4123SOL    HW112797   1.791   0.908   3.935 -0.2518 -1.0411 -0.0597
 4123SOL    HW212798   1.680   0.995   3.990  0.5449  0.2464 -0.4496
 4124SOL     OW12799   2.459   2.147   3.436  0.5111  0.1800  0.5481
 4124SOL    HW112800   2.497   2.205   3.502 -0.9653 -0.0004  1.6082
 4124SOL    HW212801   2.472   2.059   3.469 -0.8789  0.1181  1.0029
 4125SOL     OW12802   3.521   4.036   0.874  0.6765 -0.1352 -0.2031
 4125SOL    HW112803   3.477   3.953   0.893 -2.8735  1.3224 -1.3444
 4125SOL    HW212804   3.539   4.034   0.780 -0.9980  0.9975 -0.5846
 4126SOL     OW12805   4.532   4.759   2.328  0.2587 -0.1744  0.2469
 4126SOL    HW112806   4.543   4.848   2.360  1.3067 -0.4208  0.6293
 4126SOL    HW212807   4.478   4.767   2.250  0.0657  0.7543  0.4680
 4127SOL     OW12808   3.458   4.975   4.579 -0.0686  0.4505  0.5123
 4127SOL    HW112809   3.519   4.969   4.505  1.3149  0.4468  1.6161
 4127SOL    HW212810   3.383   5.024   4.544 -0.1137 -0.8043 -1.2949
 4128SOL     OW12811   1.517   3.464   4.481 -0.0281 -0.2248 -0.3071
 4128SOL    HW112812   1.573   3.536   4.509 -1.5898  1.1405 -0.5698
 4128SOL    HW212813   1.431   3.503   4.469 -0.5061 -1.7354 -2.3527
 4129SOL     OW12814   3.788   3.752   6.159  0.1626 -0.0080  0.5385
 4129SOL    HW112815   3.857   3.818   6.151  0.5301 -0.3052  1.1801
 4129SOL    HW212816   3.754   3.742   6.070  1.1643 -0.0989  0.1517
 4130SOL     OW12817   3.745   2.605   6.018 -0.2694 -0.5672  0.4720
 4130SOL    HW112818   3.672   2.543   6.020 -1.9157  1.2595 -0.0022
 4130SOL    HW212819   3.758   2.625   5.926 -0.4491  0.5308  0.6705
 4131SOL     OW12820   3.084   5.108   0.283  0.1181  0.1078 -0.3962
 4131SOL    HW112821   3.005   5.140   0.240  0.2900 -1.2862 -1.8214
 4131SOL    HW212822   3.128   5.055   0.217  0.9175 -1.2894  1.1882
 4132SOL     OW12823   4.821   4.335   5.468  0.2241 -0.2231 -0.7776
 4132SOL    HW112824   4.826   4.426   5.439 -0.2122  0.1444  0.2700
 4132SOL    HW212825   4.799   4.340   5.561 -0.1405 -1.4040 -0.7806
 4133SOL     OW12826   4.845   3.538   1.835 -0.1901 -0.5337 -0.1979
 4133SOL    HW112827   4.778   3.533   1.767 -0.5684  1.5691 -0.0382
 4133SOL    HW212828   4.917   3.588   1.795 -0.8382  1.6561  1.1806
 4134SOL     OW12829   2.531   4.753   2.329 -0.6068 -0.6659 -0.2995
 4134SOL    HW112830   2.605   4.693   2.328 -0.4099 -0.4403  0.2090
 4134SOL    HW212831   2.478   4.725   2.404 -0.2372  0.1120  0.2700
 4135SOL     OW12832   0.171   1.544   4.948  0.1541 -0.1119  0.3773
 4135SOL    HW112833   0.120   1.625   4.938  0.2137 -0.2992 -1.9873
 4135SOL    HW212834   0.254   1.574   4.984 -0.1122  0.7856  0.2936
 4136SOL     OW12835   1.246   2.438   1.698  0.1282 -0.0576  0.2076
 4136SOL    HW112836   1.338   2.411   1.708 -0.1038 -0.5699  1.0504
 4136SOL    HW212837   1.196   2.366   1.736 -0.5762  0.7842  0.9238
 4137SOL     OW12838   4.027   5.378   2.161  0.2310 -0.1150 -0.1526
 4137SOL    HW112839   3.991   5.326   2.232 -1.6152 -0.3943 -1.2405
 4137SOL    HW212840   3.953   5.429   2.128  1.3825  1.1402 -0.8964
 4138SOL     OW12841   5.190   3.119   5.189 -0.2363 -0.1384  0.0764
 4138SOL    HW112842   5.247   3.190   5.161 -0.0051  0.2151  1.3936
 4138SOL    HW212843   5.194   3.120   5.284 -0.4526 -1.7412  0.1437
 4139SOL     OW12844   5.838   5.766   5.886 -0.2349  0.1819  0.0662
 4139SOL    HW112845   5.785   5.781   5.964 -0.2570  1.1136 -0.1119
 4139SOL    HW212846   5.884   5.684   5.903  0.4844  0.8475  1.4835
 4140SOL     OW12847   3.687   0.004   3.011  0.0599 -0.0264  0.3833
 4140SOL    HW112848   3.750  -0.057   3.049  0.9600  0.3576 -0.4291
 4140SOL    HW212849   3.737   0.085   2.997 -1.2029  1.0812  1.8351
 4141SOL     OW12850   4.148   1.770   3.908 -0.2608 -0.1006  0.0117
 4141SOL    HW112851   4.127   1.711   3.980  0.3616 -0.3632 -0.0213
 4141SOL    HW212852   4.149   1.714   3.830  0.7211 -0.1340  0.0347
 4142SOL     OW12853   3.907   1.244   4.227 -0.4219 -0.6319  0.1773
 4142SOL    HW112854   3.917   1.209   4.139 -0.8039  0.7251 -0.4311
 4142SOL    HW212855   3.897   1.167   4.283 -3.1074 -1.4788 -1.3134
 4143SOL     OW12856   3.161   3.894   6.105 -0.0401  0.8245 -0.5623
 4143SOL    HW112857   3.155   3.877   6.011 -1.6447 -0.1750 -0.3157
 4143SOL    HW212858   3.148   3.808   6.145 -0.3305  1.3951  0.5921
 4144SOL     OW12859   2.871   3.247   6.066  0.1507  0.6434 -0.2177
 4144SOL    HW112860   2.775   3.250   6.067  0.1538  0.6537  0.0453
 4144SOL    HW212861   2.892   3.195   5.988 -0.0256  1.9641 -1.1811
 4145SOL     OW12862   5.761   2.468   1.811 -0.1410 -0.5626  0.3464
 4145SOL    HW112863   5.702   2.520   1.756 -0.0617 -2.8076 -2.0795
 4145SOL    HW212864   5.849   2.494   1.784 -0.0998 -1.3184 -0.2927
 4146SOL     OW12865   1.008   4.400   5.346  0.1303 -0.5596 -0.6224
 4146SOL    HW112866   0.998   4.321   5.398 -0.1949 -0.5956 -0.7429
 4146SOL    HW212867   0.923   4.444   5.351  0.8488  0.7846  1.0796
 4147SOL     OW12868   6.104   3.102   5.936 -0.1071 -0.2603 -0.1145
 4147SOL    HW112869   6.010   3.116   5.946 -0.0696 -0.6621  0.8906
 4147SOL    HW212870   6.113   3.062   5.850 -0.6784  1.3171 -0.9571
 4148SOL     OW12871   4.442   5.402   3.055 -0.1815 -0.2508  0.1556
 4148SOL    HW112872   4.412   5.340   3.121  0.6691  0.2265  0.9987
 4148SOL    HW212873   4.537   5.405   3.065 -0.1730  0.9116 -0.1159
 4149SOL     OW12874   3.168   5.656   2.126 -1.2686 -0.4607  0.5306
 4149SOL    HW112875   3.161   5.714   2.202 -0.6191  0.3710 -0.0332
 4149SOL    HW212876   3.252   5.612   2.137  0.0656  1.5359 -0.9575
 4150SOL     OW12877   4.547   0.724   1.347  0.4529  0.0021  0.1597
 4150SOL    HW112878   4.465   0.678   1.362 -0.8352  2.0737 -0.1953
 4150SOL    HW212879   4.581   0.687   1.266  0.8497 -2.1452  1.2507
 4151SOL     OW12880   4.323   0.947   2.916 -0.0408  0.5546  0.5176
 4151SOL    HW112881   4.334   0.854   2.895 -2.3975  0.4763 -0.7701
 4151SOL    HW212882   4.370   0.992   2.845  0.6741  0.3552  0.8569
 4152SOL     OW12883   4.907   5.435   4.085  0.1922  0.5930  0.1896
 4152SOL    HW112884   4.999   5.461   4.098  0.6289  2.7666 -4.6965
 4152SOL    HW212885   4.857   5.512   4.108 -0.0177  0.6461 -0.4253
 4153SOL     OW12886   1.902   5.252   5.137  0.1106  0.3116  0.8030
 4153SOL    HW112887   1.917   5.223   5.047 -0.2342  0.0487  0.8296
 4153SOL    HW212888   1.977   5.217   5.185  2.9169  4.2975 -0.1452
 4154SOL     OW12889   1.756   4.487   0.355  0.3793  0.3793 -0.2098
 4154SOL    HW112890   1.701   4.418   0.318 -0.2007  0.4327  0.5357
 4154SOL    HW212891   1.704   4.523   0.427  0.9547  1.1438 -0.1704
 4155SOL     OW12892   3.631   1.915   3.029  0.0722  0.6791 -0.5402
 4155SOL    HW112893   3.577   1.845   3.066  1.4048  0.1445  0.4730
 4155SOL    HW212894   3.696   1.870   2.975 -0.5661  1.3269 -1.9110
 4156SOL     OW12895   3.951   3.072   0.408  0.4317  0.4106  0.0946
 4156SOL    HW112896   3.895   2.994   0.413  0.2239  0.4404 -1.3548
 4156SOL    HW212897   3.934   3.108   0.321  0.6837  1.9686  0.6589
 4157SOL     OW12898   0.211   5.895   0.795 -0.3150 -0.2748 -0.3486
 4157SOL    HW112899   0.157   5.953   0.742 -0.2135 -0.3585 -0.5450
 4157SOL    HW212900   0.154   5.866   0.866  0.4952  2.6326  1.6998
 4158SOL     OW12901   4.816   1.397   2.137 -0.2389  0.6402  0.0172
 4158SOL    HW112902   4.728   1.434   2.145 -1.0503 -1.3448  0.6546
 4158SOL    HW212903   4.843   1.419   2.048 -2.1102 -0.2307 -0.8135
 4159SOL     OW12904   5.855   3.301   1.525  0.5944 -0.1114 -0.0887
 4159SOL    HW112905   5.896   3.224   1.484 -0.7219  0.3420 -2.4316
 4159SOL    HW212906   5.773   3.313   1.476  0.4726  2.4255  0.6161
 4160SOL     OW12907   0.008   6.165   4.595  0.1874  0.2939  0.2027
 4160SOL    HW112908   0.006   6.164   4.499  1.0344  1.1133  0.1613
 4160SOL    HW212909   0.001   6.073   4.620 -0.4690  0.1002 -0.6316
 4161SOL     OW12910   1.484   4.529   3.028  0.0076 -0.7846 -0.4541
 4161SOL    HW112911   1.422   4.601   3.043 -0.9641 -1.8339  0.8138
 4161SOL    HW212912   1.481   4.515   2.933 -1.3489 -0.4994 -0.4834
 4162SOL     OW12913   5.317   0.940   1.828 -0.5523 -0.0695  0.0587
 4162SOL    HW112914   5.235   0.979   1.859 -2.2492 -2.3172 -1.3010
 4162SOL    HW212915   5.351   0.893   1.904  1.2063  3.2461  1.5395
 4163SOL     OW12916   5.451   4.619   5.868  0.7834 -0.6136 -0.0802
 4163SOL    HW112917   5.406   4.538   5.891 -0.5952  0.3123  0.6788
 4163SOL    HW212918   5.472   4.610   5.776 -0.7666 -1.2234 -0.4067
 4164SOL     OW12919   1.905   1.289   3.793 -0.2327 -0.1126 -0.0346
 4164SOL    HW112920   1.965   1.313   3.722  1.2775 -0.1142  1.1716
 4164SOL    HW212921   1.929   1.198   3.815  1.2007  0.6973  2.1609
 4165SOL     OW12922   5.754   5.426   5.315  0.1942  0.9189  0.2758
 4165SOL    HW112923   5.681   5.485   5.332  1.3217  2.0080  1.5934
 4165SOL    HW212924   5.807   5.431   5.395  1.8967  0.4523 -0.7872
 4166SOL     OW12925   5.392   2.192   2.198  0.4922 -0.0775 -0.0036
 4166SOL    HW112926   5.418   2.163   2.110 -0.0265  1.5857 -0.7426
 4166SOL    HW212927   5.314   2.140   2.217 -0.8186  1.2079 -1.5819
 4167SOL     OW12928   4.513   0.054   4.427 -0.2377  0.0180 -0.1956
 4167SOL    HW112929   4.511  -0.041   4.415 -1.8222  0.0640 -0.4965
 4167SOL    HW212930   4.602   0.080   4.401  0.3813 -1.4299  0.3893
 4168SOL     OW12931   1.227   2.651   0.157 -0.5724  0.2126  0.6289
 4168SOL    HW112932   1.220   2.560   0.184 -0.8698  0.1222  0.2530
 4168SOL    HW212933   1.149   2.693   0.194 -1.5673 -0.1483 -1.0138
 4169SOL     OW12934   0.209   5.853   5.316  0.2616  0.0180  0.1009
 4169SOL    HW112935   0.132   5.795   5.316  1.0110 -1.0133  0.8100
 4169SOL    HW212936   0.284   5.793   5.309  1.0327  0.9603  0.1077
 4170SOL     OW12937   1.205   4.513   3.767 -0.2013  0.6964 -0.0155
 4170SOL    HW112938   1.215   4.426   3.807  1.5978  0.5863 -0.5920
 4170SOL    HW212939   1.111   4.530   3.769 -0.4915 -0.8075  1.0596
 4171SOL     OW12940   3.841   4.541   3.696  0.4558  0.0554 -0.2643
 4171SOL    HW112941   3.912   4.495   3.651  0.0900 -0.0538 -0.7318
 4171SOL    HW212942   3.840   4.628   3.656  0.9693  0.3920  0.4317
 4172SOL     OW12943   2.010   5.795   0.770  0.4382 -0.2955  0.2674
 4172SOL    HW112944   2.084   5.736   0.779 -0.2990 -1.0865  1.3944
 4172SOL    HW212945   1.934   5.743   0.796 -0.5843  0.3749 -1.1928
 4173SOL     OW12946   1.104   5.636   3.780 -0.5616 -0.1806 -0.3145
 4173SOL    HW112947   1.126   5.638   3.873 -2.7477  0.4200  0.2628
 4173SOL    HW212948   1.095   5.543   3.759 -0.9690 -0.2951  0.3328
 4174SOL     OW12949   2.953   1.932   2.572 -0.0537  0.5105  0.2060
 4174SOL    HW112950   2.938   2.023   2.598  0.2468  0.5113  0.3788
 4174SOL    HW212951   2.866   1.892   2.575  0.0521  0.3392  1.8559
 4175SOL     OW12952   6.179   5.844   3.266  0.4862  0.3818 -0.1813
 4175SOL    HW112953   6.186   5.789   3.344  0.9457  0.1691 -0.3707
 4175SOL    HW212954   6.190   5.934   3.299  1.8255  0.2203 -0.1468
 4176SOL     OW12955   2.240   0.493   1.860  0.6001 -0.1495 -0.0187
 4176SOL    HW112956   2.302   0.517   1.792  0.3018 -0.8615 -0.5509
 4176SOL    HW212957   2.275   0.412   1.897 -0.0958 -0.6579 -0.4460
 4177SOL     OW12958   4.794   4.855   4.575 -0.6208 -0.5565  0.2164
 4177SOL    HW112959   4.747   4.915   4.518 -1.1140 -0.4376  0.7384
 4177SOL    HW212960   4.885   4.885   4.571 -0.6850 -0.4224 -0.3348
 4178SOL     OW12961   1.285   4.060   0.930  0.3531 -0.3533  0.4954
 4178SOL    HW112962   1.300   4.147   0.892  0.0231  0.2750  1.7648
 4178SOL    HW212963   1.191   4.047   0.921  0.3183 -0.3288  0.8325
 4179SOL     OW12964   3.177   4.294   5.702 -0.0573  0.6248  0.1044
 4179SOL    HW112965   3.109   4.310   5.767 -0.7378  1.1416 -0.7101
 4179SOL    HW212966   3.161   4.359   5.634 -0.1129 -0.6548 -1.1523
 4180SOL     OW12967   6.223   3.588   5.004  0.0590 -0.3445  0.5001
 4180SOL    HW112968   6.246   3.599   4.912  0.4194 -0.0258  0.6291
 4180SOL    HW212969   6.282   3.646   5.052 -0.8022  0.2547  0.8594
 4181SOL     OW12970   2.441   3.213   3.554 -0.1389  0.1787  0.0117
 4181SOL    HW112971   2.457   3.142   3.616 -1.3063 -0.2931 -0.2067
 4181SOL    HW212972   2.469   3.292   3.601 -0.4017 -0.2406  0.8967
 4182SOL     OW12973   6.103   5.001   3.565  0.0054 -0.4290 -0.0465
 4182SOL    HW112974   6.092   4.906   3.559 -1.9730 -0.1645 -1.9199
 4182SOL    HW212975   6.093   5.031   3.475  3.7129  1.3489 -0.0371
 4183SOL     OW12976   1.257   3.395   2.026 -0.0384 -0.1574  0.5563
 4183SOL    HW112977   1.164   3.390   2.002 -0.0470 -0.5440  0.6618
 4183SOL    HW212978   1.280   3.305   2.049  0.3358 -0.0409  0.6344
 4184SOL     OW12979   1.175   3.842   3.144  0.0145  0.3308  0.5781
 4184SOL    HW112980   1.242   3.889   3.194 -2.1250  2.1054  1.9760
 4184SOL    HW212981   1.102   3.833   3.205 -1.9981  0.7906 -1.6389
 4185SOL     OW12982   5.309   2.820   1.170  0.0413  0.4400  0.6902
 4185SOL    HW112983   5.298   2.803   1.076  0.2724 -0.3795  0.8094
 4185SOL    HW212984   5.268   2.746   1.213  0.9334  0.2461  1.2220
 4186SOL     OW12985   3.108   2.280   4.967 -0.4392  0.1568 -0.4379
 4186SOL    HW112986   3.195   2.315   4.948  0.1439  0.1768  1.9414
 4186SOL    HW212987   3.059   2.294   4.886  0.8239  3.0791 -0.8625
 4187SOL     OW12988   0.122   2.054   4.947 -0.5018  0.1801  0.0376
 4187SOL    HW112989   0.164   2.016   5.024  1.1178 -0.6720 -1.1741
 4187SOL    HW212990   0.109   2.146   4.969  2.1038  0.5184  0.5312
 4188SOL     OW12991   5.234   2.139   2.937  0.4386 -0.5645 -0.4719
 4188SOL    HW112992   5.164   2.205   2.942 -0.6119 -1.5063 -1.9286
 4188SOL    HW212993   5.315   2.189   2.930 -0.1095  0.5550  0.7019
 4189SOL     OW12994   5.485   2.270   0.025  0.0279  0.0567  0.0052
 4189SOL    HW112995   5.440   2.259  -0.059  1.1718  0.6056 -0.7025
 4189SOL    HW212996   5.572   2.302   0.001  0.9982 -1.4535  1.2912
 4190SOL     OW12997   2.165   2.819   1.075  0.1483 -0.0815  0.4069
 4190SOL    HW112998   2.205   2.898   1.112  0.2740  0.2825 -0.4793
 4190SOL    HW212999   2.096   2.852   1.018 -1.1097 -0.6963  1.5235
 4191SOL     OW13000   2.904   1.083   3.867 -0.7601  0.2053 -0.0864
 4191SOL    HW113001   2.816   1.046   3.873 -1.0116  0.4329 -1.8142
 4191SOL    HW213002   2.898   1.150   3.799  0.7623  0.1779 -0.2927
 4192SOL     OW13003   1.215   1.047   3.975 -0.7313 -0.1246 -0.1919
 4192SOL    HW113004   1.279   0.977   3.988 -0.5440  0.0762 -0.0314
 4192SOL    HW213005   1.267   1.125   3.960 -0.9420 -0.1282 -0.9786
 4193SOL     OW13006   4.491   4.850   3.874 -0.0177 -0.4052 -0.1516
 4193SOL    HW113007   4.561   4.888   3.822  1.0631 -2.2996 -0.1933
 4193SOL    HW213008   4.518   4.862   3.965  1.1313 -2.3187 -0.1762
 4194SOL     OW13009   3.653   2.377   3.745  0.1424 -0.3057  0.1454
 4194SOL    HW113010   3.634   2.386   3.652  1.9006 -3.0303 -0.5883
 4194SOL    HW213011   3.739   2.417   3.756  0.2169 -0.5499  0.4590
 4195SOL     OW13012   5.266   1.346   4.198 -0.4039 -0.1809 -0.3288
 4195SOL    HW113013   5.291   1.307   4.282  1.5056  3.0571  0.7806
 4195SOL    HW213014   5.205   1.416   4.221 -0.2733  0.4222 -1.6950
 4196SOL     OW13015   4.174   4.829   0.614 -0.6411 -0.1098  0.1667
 4196SOL    HW113016   4.087   4.834   0.652 -1.5026 -2.5946 -1.2908
 4196SOL    HW213017   4.182   4.740   0.582  2.2865  0.1642 -0.1804
 4197SOL     OW13018   1.115   6.179   1.259  0.1395  0.2314 -0.2238
 4197SOL    HW113019   1.043   6.144   1.310  0.4283  2.0531  1.5925
 4197SOL    HW213020   1.110   6.134   1.175 -0.3634 -2.9578  1.3652
 4198SOL     OW13021   5.202   2.505   2.636 -0.3353  0.0521 -0.5147
 4198SOL    HW113022   5.146   2.583   2.637 -0.5282 -0.0784 -0.8476
 4198SOL    HW213023   5.164   2.449   2.568 -0.0144 -0.1974 -0.4923
 4199SOL     OW13024   5.921   5.842   2.247 -0.2503 -0.6511 -0.5461
 4199SOL    HW113025   5.998   5.882   2.288  0.3426 -2.3335  0.0544
 4199SOL    HW213026   5.905   5.762   2.298 -0.7508 -1.7457 -2.3416
 4200SOL     OW13027   2.340   0.145   3.201 -0.3523 -0.4379  0.2862
 4200SOL    HW113028   2.360   0.159   3.294  0.5003 -0.7215  0.1523
 4200SOL    HW213029   2.420   0.106   3.165 -0.9121 -0.9345 -0.4278
 4201SOL     OW13030   5.038   5.185   1.520  0.6981 -0.4504  0.0314
 4201SOL    HW113031   5.024   5.271   1.482 -0.4077  0.0102  1.3908
 4201SOL    HW213032   4.985   5.185   1.600 -1.3350 -3.2918 -1.1558
 4202SOL     OW13033   0.059   1.199   3.507  0.7225  0.0410  0.1510
 4202SOL    HW113034   0.092   1.158   3.587 -0.4409 -1.0446  0.0890
 4202SOL    HW213035   0.102   1.153   3.436 -0.0475 -0.6113  0.0995
 4203SOL     OW13036   5.701   1.676   4.584 -0.3675  0.4507 -0.2470
 4203SOL    HW113037   5.678   1.601   4.530  0.2219  0.7019 -0.8668
 4203SOL    HW213038   5.785   1.707   4.549 -0.0269  0.7041  0.7257
 4204SOL     OW13039   0.706   1.300   3.356  0.2922 -0.2478 -0.2173
 4204SOL    HW113040   0.660   1.384   3.357  0.6149 -0.0454  2.0999
 4204SOL    HW213041   0.796   1.321   3.382  0.8559 -1.1116 -1.3278
 4205SOL     OW13042   4.215   5.694   2.725  0.0894  0.2607  0.4520
 4205SOL    HW113043   4.140   5.754   2.720 -0.9869 -1.0820 -0.3791
 4205SOL    HW213044   4.245   5.685   2.635 -0.6122 -1.4013  0.3321
 4206SOL     OW13045   3.622   1.924   1.918 -0.4828  0.0442  0.0442
 4206SOL    HW113046   3.617   1.909   1.823 -3.0661 -0.6536  0.2150
 4206SOL    HW213047   3.656   1.842   1.953  1.6549  0.7168 -0.3081
 4207SOL     OW13048   1.043   1.714   1.859  0.6509 -0.1828  0.3194
 4207SOL    HW113049   1.103   1.715   1.934  1.5614  1.2917 -0.3770
 4207SOL    HW213050   1.087   1.660   1.794  0.2254 -0.8255  0.5626
 4208SOL     OW13051   2.968   0.388   4.705 -0.1478 -0.3679 -0.4402
 4208SOL    HW113052   3.036   0.452   4.725 -1.9050  1.7069 -0.7581
 4208SOL    HW213053   2.994   0.351   4.621  0.3976  0.6642 -0.7446
 4209SOL     OW13054   2.037   4.534   2.917 -0.0816  0.3931  0.3666
 4209SOL    HW113055   1.957   4.549   2.967 -0.0211 -0.0999  0.6181
 4209SOL    HW213056   2.101   4.505   2.981  0.1074  0.1374  0.0679
 4210SOL     OW13057   3.253   0.843   5.948  0.5438 -0.1844 -0.6985
 4210SOL    HW113058   3.216   0.809   6.029 -1.8263 -0.0286 -1.6078
 4210SOL    HW213059   3.312   0.775   5.916  0.5383 -0.7701  0.5201
 4211SOL     OW13060   5.383   0.241   4.456 -0.3945  0.1747 -0.0043
 4211SOL    HW113061   5.301   0.240   4.506 -1.5629 -0.9415 -1.8116
 4211SOL    HW213062   5.384   0.157   4.410  0.9022  0.8867 -1.3780
 4212SOL     OW13063   0.424   1.357   4.639  0.4809  0.0160 -0.2033
 4212SOL    HW113064   0.345   1.365   4.693  0.0462  0.7704 -0.9181
 4212SOL    HW213065   0.496   1.378   4.698  0.4661 -3.2248  1.1694
 4213SOL     OW13066   2.072   3.544   4.168 -0.2662 -0.7282 -0.4627
 4213SOL    HW113067   2.130   3.544   4.092 -0.9970 -2.2006 -1.0534
 4213SOL    HW213068   2.113   3.484   4.230  0.6347  0.8963  0.6164
 4214SOL     OW13069   5.406   2.965   3.529 -0.2930  0.4070 -0.3477
 4214SOL    HW113070   5.455   2.885   3.550  0.3096  0.3403 -1.8837
 4214SOL    HW213071   5.316   2.935   3.516 -1.0050  0.6114  3.0983
 4215SOL     OW13072   5.638   2.286   1.611 -0.2904  0.4226 -0.3157
 4215SOL    HW113073   5.555   2.287   1.660 -0.6000  1.0145 -0.8400
 4215SOL    HW213074   5.688   2.359   1.646 -0.4321  0.7256 -0.7311
 4216SOL     OW13075   4.131   2.214   5.085  0.4259  0.0908  0.2769
 4216SOL    HW113076   4.071   2.288   5.098  0.6331  0.2659  0.2498
 4216SOL    HW213077   4.074   2.142   5.057  0.4216  0.7359 -1.5285
 4217SOL     OW13078   3.011   2.499   0.691  0.2774  0.2308 -0.2104
 4217SOL    HW113079   3.097   2.533   0.716  0.4870 -0.2758 -0.2321
 4217SOL    HW213080   2.986   2.440   0.763 -0.1829  0.5952 -0.0628
 4218SOL     OW13081   1.644   4.315   3.777  0.2395  0.1329 -0.3648
 4218SOL    HW113082   1.677   4.301   3.865  0.5930 -0.6863 -0.6183
 4218SOL    HW213083   1.709   4.370   3.735 -0.6200  1.7254  0.3022
 4219SOL     OW13084   2.369   1.364   5.129  0.0968  0.0026 -0.3077
 4219SOL    HW113085   2.311   1.342   5.055  0.0646  0.6253 -0.4731
 4219SOL    HW213086   2.311   1.406   5.193  0.4176  0.9461 -0.6189
 4220SOL     OW13087   1.251   2.463   2.235  0.1223 -0.5402 -0.7215
 4220SOL    HW113088   1.173   2.517   2.245  0.0999 -0.7520  0.3611
 4220SOL    HW213089   1.285   2.453   2.324  0.2097 -2.1741 -0.9066
 4221SOL     OW13090   1.363   0.657   1.223  0.1029 -0.3976  0.1918
 4221SOL    HW113091   1.323   0.687   1.305  1.0784 -2.8696  1.6641
 4221SOL    HW213092   1.456   0.676   1.234  0.0729  0.6632 -1.0692
 4222SOL     OW13093   0.080   1.702   0.358  0.4296  0.2182 -0.0784
 4222SOL    HW113094   0.057   1.611   0.378 -0.9431  0.6484  0.3756
 4222SOL    HW213095   0.137   1.729   0.430  1.8446 -0.6348 -0.8393
 4223SOL     OW13096   0.272   3.802   0.433 -1.0451 -0.0943  0.1531
 4223SOL    HW113097   0.313   3.881   0.397  0.7819 -1.3438 -0.6596
 4223SOL    HW213098   0.215   3.770   0.363 -0.3310 -0.4983 -0.2599
 4224SOL     OW13099   5.317   4.190   1.377  0.7788 -0.8814 -0.0180
 4224SOL    HW113100   5.404   4.188   1.338  0.5833 -0.5794 -0.4723
 4224SOL    HW213101   5.306   4.102   1.414  1.4728 -0.7607  0.4874
 4225SOL     OW13102   0.131   4.629   4.080 -0.2486 -0.1031 -0.0544
 4225SOL    HW113103   0.150   4.680   4.159  1.2553 -0.9444  0.1722
 4225SOL    HW213104   0.201   4.653   4.019 -0.9388 -0.0678 -0.8478
 4226SOL     OW13105   2.660   5.837   3.727  0.6776  0.1595 -0.4748
 4226SOL    HW113106   2.610   5.918   3.737 -1.9192 -1.0958 -2.1165
 4226SOL    HW213107   2.737   5.863   3.678  0.5555  1.8126  0.1129
 4227SOL     OW13108   1.371   3.648   2.868  0.0030 -0.3860 -0.1982
 4227SOL    HW113109   1.352   3.609   2.954 -1.4109  0.6660  0.0149
 4227SOL    HW213110   1.415   3.730   2.889  1.9941 -1.3033 -0.6070
 4228SOL     OW13111   5.516   3.667   0.261  1.4667 -0.2886 -0.3109
 4228SOL    HW113112   5.510   3.577   0.293  0.8106 -1.1435 -2.5926
 4228SOL    HW213113   5.479   3.720   0.332  0.8831 -1.9224  0.6771
 4229SOL     OW13114   4.477   3.821   5.859 -0.2550 -1.0321  0.6500
 4229SOL    HW113115   4.421   3.868   5.798 -1.9380 -1.8352  1.5090
 4229SOL    HW213116   4.487   3.734   5.821  0.1125 -1.0073  0.6837
 4230SOL     OW13117   3.677   5.206   1.191 -0.1099 -0.0509  0.0008
 4230SOL    HW113118   3.639   5.239   1.110 -0.0314 -0.2033 -0.0991
 4230SOL    HW213119   3.605   5.162   1.235 -0.1806  0.1341  0.0679
 4231SOL     OW13120   0.138   4.865   3.510  0.4279  0.2470  0.3007
 4231SOL    HW113121   0.070   4.926   3.483 -0.3837 -0.7477  0.0301
 4231SOL    HW213122   0.205   4.872   3.442 -0.8819 -1.0841 -1.2224
 4232SOL     OW13123   1.132   3.987   5.812  0.1362  0.2475 -0.3041
 4232SOL    HW113124   1.050   4.021   5.847 -1.2907 -1.6172 -1.6584
 4232SOL    HW213125   1.190   3.980   5.888 -1.9226 -1.0872  1.2518
 4233SOL     OW13126   5.176   1.799   2.274 -0.2359  0.1976  0.2818
 4233SOL    HW113127   5.087   1.763   2.266 -0.4778  0.6302  0.9195
 4233SOL    HW213128   5.172   1.882   2.227 -0.7095  1.1070  1.8277
 4234SOL     OW13129   3.983   5.698   4.605 -0.2811 -0.3720  0.0201
 4234SOL    HW113130   3.922   5.772   4.605 -0.2555 -0.3095 -1.5431
 4234SOL    HW213131   3.937   5.630   4.555  0.0044 -1.1519  0.7976
 4235SOL     OW13132   5.642   2.965   4.576  0.4579 -0.7003  0.0400
 4235SOL    HW113133   5.565   3.014   4.608  0.8370  0.1768 -0.3603
 4235SOL    HW213134   5.714   3.027   4.581  0.5518 -0.4726 -2.5301
 4236SOL     OW13135   5.894   4.757   5.620  0.3526  0.0565 -0.4067
 4236SOL    HW113136   5.973   4.782   5.573  0.2139 -1.6749 -1.6606
 4236SOL    HW213137   5.826   4.817   5.588  0.8484  0.6528 -0.3537
 4237SOL     OW13138   2.828   3.838   3.230 -0.3484 -0.3467 -0.4256
 4237SOL    HW113139   2.816   3.848   3.324  1.3558 -2.0012  0.0228
 4237SOL    HW213140   2.822   3.744   3.215 -0.4835 -0.1151 -1.9653
 4238SOL     OW13141   1.324   5.657   0.235 -0.5744 -0.1168 -0.0807
 4238SOL    HW113142   1.393   5.621   0.180  0.2366 -0.5689  1.1919
 4238SOL    HW213143   1.243   5.622   0.198  0.1007 -2.1642  0.2722
 4239SOL     OW13144   5.731   3.898   1.353  0.9722 -0.0003  0.3614
 4239SOL    HW113145   5.820   3.887   1.388  1.8548 -0.1654 -1.7740
 4239SOL    HW213146   5.736   3.977   1.299  0.7070 -1.6795 -2.2606
 4240SOL     OW13147   1.452   4.581   1.958  0.5562  0.1134 -0.4777
 4240SOL    HW113148   1.400   4.621   1.889  0.5177 -1.7317 -1.5796
 4240SOL    HW213149   1.502   4.512   1.914  2.9401  0.9450  0.7826
 4241SOL     OW13150   4.082   0.403   2.243  0.2617 -0.3874  0.2607
 4241SOL    HW113151   4.007   0.460   2.226  0.3481 -0.5915 -0.8743
 4241SOL    HW213152   4.140   0.416   2.168 -0.0742 -2.5271 -0.4416
 4242SOL     OW13153   1.098   2.990   2.540  0.1291  0.1237 -0.2605
 4242SOL    HW113154   1.091   3.044   2.618  1.9359 -0.3054  0.2526
 4242SOL    HW213155   1.063   3.044   2.469  0.7216  1.4698  0.4513
 4243SOL     OW13156   6.090   5.129   0.727 -0.3130 -1.1024 -0.3467
 4243SOL    HW113157   6.018   5.178   0.767  0.5400 -0.9638  1.0802
 4243SOL    HW213158   6.145   5.104   0.801  2.5565  1.0833 -1.5639
 4244SOL     OW13159   3.638   5.051   5.408  0.0002 -0.0034  0.2554
 4244SOL    HW113160   3.701   4.985   5.381  0.9187  0.1343  1.9137
 4244SOL    HW213161   3.677   5.135   5.384 -0.2568  0.0272 -0.0693
 4245SOL     OW13162   5.261   0.671   3.789 -0.4917 -0.1083 -0.1918
 4245SOL    HW113163   5.219   0.757   3.798 -2.3103 -0.8974 -0.6305
 4245SOL    HW213164   5.354   0.691   3.778 -0.3486  1.6672  2.8844
 4246SOL     OW13165   3.232   2.895   4.903 -0.6471 -0.7321 -0.0040
 4246SOL    HW113166   3.226   2.888   4.808  0.9930  0.7724 -0.2571
 4246SOL    HW213167   3.268   2.811   4.931 -1.8090 -1.4674 -0.5906
 4247SOL     OW13168   2.549   4.251   3.302  0.4082 -0.0157 -0.2179
 4247SOL    HW113169   2.589   4.337   3.312 -1.6780  0.7904  2.2937
 4247SOL    HW213170   2.483   4.263   3.233 -0.7628  0.8067  1.0097
 4248SOL     OW13171   1.512   2.431   2.092 -0.4382  0.2848  0.0597
 4248SOL    HW113172   1.582   2.477   2.139 -0.4010  0.9290 -0.6194
 4248SOL    HW213173   1.433   2.450   2.143 -0.1946 -0.1274  0.6091
 4249SOL     OW13174   3.880   0.393   4.558 -0.5080  0.7802 -0.0836
 4249SOL    HW113175   3.947   0.351   4.505 -1.2644 -0.2480 -0.2341
 4249SOL    HW213176   3.897   0.362   4.647 -1.7321 -0.7658 -0.3524
 4250SOL     OW13177   5.865   2.042   4.086  0.1645 -0.3746  0.2195
 4250SOL    HW113178   5.886   1.950   4.100 -1.2279 -1.2052 -2.4958
 4250SOL    HW213179   5.774   2.051   4.112  0.0283  0.0001 -0.3606
 4251SOL     OW13180   5.728   1.498   4.792  0.2443  0.2242  0.1265
 4251SOL    HW113181   5.719   1.570   4.729  1.7304  1.2943  1.0632
 4251SOL    HW213182   5.661   1.516   4.858  0.4412  0.6229  0.2240
 4252SOL     OW13183   2.513   4.287   1.569  0.3501 -1.0079 -0.0006
 4252SOL    HW113184   2.606   4.272   1.589  1.1661  3.4973  0.6396
 4252SOL    HW213185   2.505   4.263   1.477  2.3624 -0.9206 -0.2577
 4253SOL     OW13186   2.973   1.551   4.869  0.2684 -0.1664 -0.0269
 4253SOL    HW113187   3.008   1.574   4.955  0.4874 -0.3620 -0.0648
 4253SOL    HW213188   2.889   1.597   4.865  0.1760 -0.2956  0.3600
 4254SOL     OW13189   5.587   1.915   4.615  0.0691 -0.6657 -0.1444
 4254SOL    HW113190   5.635   1.832   4.604  1.0138 -0.0802 -0.6253
 4254SOL    HW213191   5.638   1.978   4.564 -0.8591  0.1314 -0.0983
 4255SOL     OW13192   1.716   2.591   3.400  0.1840 -0.2493  0.2901
 4255SOL    HW113193   1.747   2.500   3.397 -0.4442 -0.5548  1.9372
 4255SOL    HW213194   1.757   2.628   3.477  2.3509  1.6761 -1.6589
 4256SOL     OW13195   5.707   0.606   5.662  0.5683 -0.6263 -0.1662
 4256SOL    HW113196   5.708   0.621   5.568  1.4601  0.4123  0.0005
 4256SOL    HW213197   5.798   0.609   5.689  0.1785  2.2303  1.1889
 4257SOL     OW13198   6.034   4.404   4.259 -0.3094 -0.3910  0.5884
 4257SOL    HW113199   6.084   4.345   4.316  1.7928  2.2922  1.7378
 4257SOL    HW213200   6.068   4.387   4.171  0.5115 -0.6774  0.9500
 4258SOL     OW13201   0.405   5.721   2.994 -0.3356 -0.9947  0.3650
 4258SOL    HW113202   0.475   5.697   2.934 -0.5199 -0.9224  0.1213
 4258SOL    HW213203   0.425   5.812   3.020  1.1733 -1.8268  2.4151
 4259SOL     OW13204   1.317   1.378   1.389 -0.9372 -0.3147 -0.2038
 4259SOL    HW113205   1.307   1.473   1.378 -0.0121 -0.1113  0.6021
 4259SOL    HW213206   1.326   1.344   1.299  2.2948  0.8044 -0.4561
 4260SOL     OW13207   4.618   0.377   5.786 -0.5720 -0.6367 -0.4592
 4260SOL    HW113208   4.614   0.281   5.781 -1.2051 -0.5543 -3.3230
 4260SOL    HW213209   4.710   0.396   5.806 -0.3598 -1.8349 -0.1934
 4261SOL     OW13210   3.864   2.112   4.384  0.3151  0.0504  0.3652
 4261SOL    HW113211   3.877   2.176   4.454  1.4364  1.2678 -0.8886
 4261SOL    HW213212   3.814   2.159   4.318 -2.1600 -1.5826  0.9676
 4262SOL     OW13213   5.820   4.112   1.177  0.4098 -0.0226 -0.1583
 4262SOL    HW113214   5.887   4.164   1.133  0.4534  0.0865  0.0408
 4262SOL    HW213215   5.821   4.028   1.130 -1.0223  0.8106 -1.7883
 4263SOL     OW13216   5.248   1.674   3.134  0.2543 -0.0902 -0.0281
 4263SOL    HW113217   5.270   1.709   3.047 -2.3308  1.8405 -0.0204
 4263SOL    HW213218   5.257   1.748   3.193 -0.3139 -0.7968  0.9726
 4264SOL     OW13219   3.588   2.217   0.315 -0.1243  0.3417  0.1586
 4264SOL    HW113220   3.669   2.264   0.295  0.0665 -0.8907 -2.3385
 4264SOL    HW213221   3.519   2.282   0.300  0.2209  0.3550 -1.6364
 4265SOL     OW13222   6.182   2.558   2.834  0.2953  0.4016  0.3692
 4265SOL    HW113223   6.116   2.564   2.765  0.1430 -0.5415  0.4238
 4265SOL    HW213224   6.236   2.482   2.809  0.3394  0.1563  1.1938
 4266SOL     OW13225   5.664   1.536   5.355 -0.1213  0.0800  0.2440
 4266SOL    HW113226   5.718   1.462   5.383  0.3106  0.1608 -0.3669
 4266SOL    HW213227   5.706   1.613   5.393 -1.2002 -0.0487  1.8417
 4267SOL     OW13228   5.024   0.867   2.978 -0.3563 -0.2331 -0.2555
 4267SOL    HW113229   5.002   0.778   3.007  2.3291 -0.2764  2.2444
 4267SOL    HW213230   5.061   0.856   2.891  0.9447 -1.8274  0.4367
 4268SOL     OW13231   5.098   5.583   1.752  0.0810  0.0530 -0.2613
 4268SOL    HW113232   5.082   5.554   1.662 -0.5704 -0.7001  0.0802
 4268SOL    HW213233   5.193   5.590   1.758  0.1459 -0.1611 -0.9330
 4269SOL     OW13234   5.667   5.961   1.846  0.1187 -0.2733  0.4992
 4269SOL    HW113235   5.748   5.963   1.897 -0.7138  0.6642  1.8740
 4269SOL    HW213236   5.598   5.956   1.912 -1.0407  1.6148 -0.4826
 4270SOL     OW13237   5.062   2.198   0.027 -0.5217 -0.1794  0.0852
 4270SOL    HW113238   4.996   2.266   0.014 -1.1096 -0.6887  0.3322
 4270SOL    HW213239   5.133   2.220  -0.033 -0.3711  1.0743  0.6969
 4271SOL     OW13240   2.407   4.294   3.095 -0.9270  0.0848  0.0785
 4271SOL    HW113241   2.486   4.260   3.053 -2.0189 -0.4848 -1.5734
 4271SOL    HW213242   2.337   4.278   3.033 -2.5517 -0.3332  1.9123
 4272SOL     OW13243   1.205   0.298   2.171  0.0228  0.0217  0.8175
 4272SOL    HW113244   1.159   0.252   2.101  1.7093  0.4988 -0.6854
 4272SOL    HW213245   1.246   0.229   2.222  0.8117 -0.2621 -0.1697
 4273SOL     OW13246   4.988   5.868   0.362 -0.0156  0.0268  0.9405
 4273SOL    HW113247   4.982   5.773   0.351 -1.0279  0.1278  0.4896
 4273SOL    HW213248   5.037   5.880   0.444 -0.1377 -0.8839  1.1567
 4274SOL     OW13249   1.710   5.979   4.030 -0.0916  0.4382 -0.2680
 4274SOL    HW113250   1.719   5.903   3.972  2.4168  0.2014  0.3066
 4274SOL    HW213251   1.753   5.952   4.111 -0.6341  1.8980  0.5383
 4275SOL     OW13252   2.978   4.346   3.783  0.0502  0.0118 -0.2101
 4275SOL    HW113253   2.963   4.287   3.856  1.2287  0.2014  0.2049
 4275SOL    HW213254   2.971   4.290   3.705  3.1952 -1.2118  0.2483
 4276SOL     OW13255   4.481   4.630   6.076 -0.4387  0.1139  0.3232
 4276SOL    HW113256   4.429   4.550   6.063  0.5584 -0.5039 -0.0100
 4276SOL    HW213257   4.554   4.602   6.131  1.3303  0.1475 -1.8636
 4277SOL     OW13258   1.309   4.751   1.787  0.0811  0.2928 -0.0549
 4277SOL    HW113259   1.356   4.835   1.788 -1.1071  0.9786  0.0416
 4277SOL    HW213260   1.320   4.719   1.697 -0.4332  1.1383 -0.4359
 4278SOL     OW13261   2.552   3.161   1.489 -0.0592 -0.1605 -0.2072
 4278SOL    HW113262   2.611   3.212   1.433 -1.5451 -0.5070 -2.1526
 4278SOL    HW213263   2.469   3.208   1.487 -0.2723 -0.3849  1.4583
 4279SOL     OW13264   0.833   1.057   1.553 -0.4489 -0.5660 -0.3705
 4279SOL    HW113265   0.746   1.037   1.586 -0.6856 -0.6926 -1.0424
 4279SOL    HW213266   0.818   1.118   1.480  0.1212  0.4889  0.3534
 4280SOL     OW13267   4.009   6.128   5.627 -0.0535  0.2256 -0.2472
 4280SOL    HW113268   4.079   6.106   5.690 -1.5912 -0.8381  1.1919
 4280SOL    HW213269   3.999   6.223   5.635  1.3928  0.4403 -0.6940
 4281SOL     OW13270   1.753   3.703   0.950  0.2022  0.2732 -0.1251
 4281SOL    HW113271   1.777   3.727   0.860 -1.7482 -0.2467 -0.8424
 4281SOL    HW213272   1.659   3.721   0.955  0.4832  1.3796  2.2063
 4282SOL     OW13273   0.022   5.010   2.998 -0.0258 -0.4369  0.5657
 4282SOL    HW113274   0.065   4.967   3.072  0.8907  0.9123  0.8469
 4282SOL    HW213275   0.042   4.953   2.924  0.5596 -0.8791  1.0433
 4283SOL     OW13276   0.427   6.147   4.437 -0.2034 -0.0072 -0.3090
 4283SOL    HW113277   0.344   6.193   4.452  0.4049  1.0352  0.0096
 4283SOL    HW213278   0.474   6.203   4.376 -0.0052 -0.9573 -1.0544
 4284SOL     OW13279   6.165   1.125   5.274  0.0664  0.0302  0.0760
 4284SOL    HW113280   6.184   1.219   5.267 -0.7948  0.2024 -0.1090
 4284SOL    HW213281   6.192   1.101   5.362  0.3209  0.4453  0.1139
 4285SOL     OW13282   4.067   0.623   3.332  0.6927  0.1729 -0.8721
 4285SOL    HW113283   4.000   0.669   3.282  0.2348  0.5789  0.0744
 4285SOL    HW213284   4.112   0.568   3.268 -0.5451 -0.1004 -1.5356
 4286SOL     OW13285   3.713   1.792   2.514 -0.3153  0.5319  0.0672
 4286SOL    HW113286   3.732   1.734   2.441  3.3667 -1.3553  2.2651
 4286SOL    HW213287   3.743   1.878   2.484  0.4685 -0.0558 -0.9100
 4287SOL     OW13288   6.094   2.481   4.518  0.1555  0.7366 -0.0941
 4287SOL    HW113289   6.151   2.558   4.507  1.6289 -0.2164  0.6089
 4287SOL    HW213290   6.153   2.406   4.509 -1.3096 -0.3463 -1.0889
 4288SOL     OW13291   0.914   6.108   5.426  0.2121 -0.0245 -0.1722
 4288SOL    HW113292   0.853   6.163   5.474  0.0935  0.7939 -1.2114
 4288SOL    HW213293   0.892   6.123   5.334  1.6995 -0.0365 -0.5543
 4289SOL     OW13294   4.013   1.886   5.785  0.0396 -0.3195  0.0013
 4289SOL    HW113295   4.063   1.881   5.867  0.9499 -1.5225 -0.6075
 4289SOL    HW213296   3.928   1.922   5.812  0.3016 -0.7197  1.4746
 4290SOL     OW13297   2.836   0.287   0.532 -0.0607 -0.2740  0.0694
 4290SOL    HW113298   2.740   0.284   0.528 -0.1431  0.8500  0.7161
 4290SOL    HW213299   2.864   0.285   0.441 -0.8399  2.1467 -0.3020
 4291SOL     OW13300   4.985   0.348   1.002 -0.6755 -0.3663 -0.1789
 4291SOL    HW113301   4.930   0.271   0.990 -0.0893 -0.8487  0.1653
 4291SOL    HW213302   5.074   0.318   0.981 -0.1055 -0.3791  1.9776
 4292SOL     OW13303   4.009   4.011   4.874 -0.3733 -0.4155 -0.1317
 4292SOL    HW113304   3.924   4.041   4.842 -0.3364  0.1264  0.2621
 4292SOL    HW213305   4.067   4.086   4.862 -0.0249 -0.6721 -0.0926
 4293SOL     OW13306   5.223   0.096   2.007  0.1265  0.2794 -0.0396
 4293SOL    HW113307   5.283   0.169   2.025 -0.9694  1.4508 -0.9995
 4293SOL    HW213308   5.220   0.090   1.912  1.2977 -2.0045 -0.0100
 4294SOL     OW13309   0.309   0.345   0.709 -0.4082 -0.0238 -0.0433
 4294SOL    HW113310   0.286   0.389   0.791  2.3805 -0.0051  0.8353
 4294SOL    HW213311   0.307   0.414   0.643 -0.7958  0.3705  0.3789
 4295SOL     OW13312   0.822   3.856   6.061  0.1174 -0.3329 -0.0167
 4295SOL    HW113313   0.861   3.808   5.987  0.4340  0.3207 -0.2818
 4295SOL    HW213314   0.837   3.799   6.137  1.4232 -0.1969 -0.1481
 4296SOL     OW13315   5.204   3.402   5.482 -0.3992  0.0403 -0.2564
 4296SOL    HW113316   5.200   3.369   5.572 -0.0740 -0.7268 -0.5188
 4296SOL    HW213317   5.156   3.485   5.485 -0.0391  0.2276  0.7172
 4297SOL     OW13318   6.014   2.012   4.637  0.0533 -0.4872  0.4342
 4297SOL    HW113319   6.070   2.031   4.561  1.3474  0.8108  1.6295
 4297SOL    HW213320   6.056   1.938   4.680  1.2154  0.7702  1.5829
 4298SOL     OW13321   3.044   1.813   1.182 -0.6783  0.2446 -0.0978
 4298SOL    HW113322   3.133   1.840   1.202 -0.9617 -0.4313  2.4055
 4298SOL    HW213323   2.991   1.855   1.250 -2.0012 -1.0511 -0.2889
 4299SOL     OW13324   3.335   2.573   0.046  0.5454 -0.4615 -0.3017
 4299SOL    HW113325   3.245   2.545   0.033  0.0376  0.5169  0.8766
 4299SOL    HW213326   3.330   2.669   0.054  1.6866 -0.3841 -0.2198
 4300SOL     OW13327   0.370   5.874   3.823  0.0236  0.0107  0.6741
 4300SOL    HW113328   0.448   5.902   3.870  0.0242  1.5999 -0.2106
 4300SOL    HW213329   0.393   5.788   3.787  0.7746 -0.2483  1.7319
 4301SOL     OW13330   2.354   2.266   1.371 -0.4435  0.1066 -0.6460
 4301SOL    HW113331   2.413   2.315   1.314 -1.1104  0.2287 -1.2532
 4301SOL    HW213332   2.267   2.301   1.350 -0.6911  0.2040  0.5005
 4302SOL     OW13333   2.660   6.106   4.235  0.3544  0.4828 -0.2734
 4302SOL    HW113334   2.725   6.078   4.299  0.7168 -0.2268 -0.9375
 4302SOL    HW213335   2.705   6.099   4.151 -1.0830 -1.7355 -0.9346
 4303SOL     OW13336   1.259   4.246   2.940 -0.5959  0.4146 -0.2489
 4303SOL    HW113337   1.336   4.231   2.994 -0.3236  2.1482 -0.1240
 4303SOL    HW213338   1.196   4.179   2.970 -0.1531  0.7795  1.6242
 4304SOL     OW13339   0.089   1.542   3.042  0.2105 -0.3939 -0.4158
 4304SOL    HW113340   0.159   1.495   2.995  1.2556 -0.0080  0.7063
 4304SOL    HW213341   0.100   1.633   3.016 -0.2534 -0.4128 -0.6832
 4305SOL     OW13342   4.986   4.059   1.112  0.4482 -0.3966  0.0199
 4305SOL    HW113343   5.061   4.119   1.113 -1.0531  1.5698 -0.3479
 4305SOL    HW213344   4.993   4.014   1.028 -0.0974  1.5854 -1.1553
 4306SOL     OW13345   5.180   2.711   3.509  0.1835 -0.0642  0.1600
 4306SOL    HW113346   5.147   2.723   3.420 -0.5325  1.3015  0.5874
 4306SOL    HW213347   5.260   2.660   3.498  0.4074  0.5518 -1.3087
 4307SOL     OW13348   1.320   3.699   1.991 -0.2962  0.8255 -0.2252
 4307SOL    HW113349   1.322   3.604   2.002 -0.4508  1.0662  2.2737
 4307SOL    HW213350   1.335   3.712   1.897 -0.2072 -1.6445 -0.6173
 4308SOL     OW13351   4.274   2.411   2.174 -0.2371 -0.1727 -0.9686
 4308SOL    HW113352   4.224   2.461   2.109 -1.1084 -2.6730 -2.3331
 4308SOL    HW213353   4.238   2.439   2.258  0.5037  2.6982 -1.4839
 4309SOL     OW13354   5.799   4.111   4.797 -0.1670  0.1391  0.2243
 4309SOL    HW113355   5.823   4.204   4.797 -1.2158  0.4270  1.3184
 4309SOL    HW213356   5.711   4.109   4.759  0.3759 -0.5772 -1.0560
 4310SOL     OW13357   3.640   3.551   2.344 -0.1454  0.0443 -0.0311
 4310SOL    HW113358   3.632   3.587   2.256  2.1147  1.7326  0.3764
 4310SOL    HW213359   3.629   3.457   2.333 -0.6705  0.2910 -1.9703
 4311SOL     OW13360   1.541   5.048   6.209 -0.0828  0.5503  0.3133
 4311SOL    HW113361   1.490   4.973   6.182  2.8649 -1.6973  0.4672
 4311SOL    HW213362   1.577   5.084   6.128  0.7748  0.0016  0.4402
 4312SOL     OW13363   3.412   4.637   5.001  0.0521  0.1766  0.4850
 4312SOL    HW113364   3.482   4.669   5.059 -0.6285  0.6077  1.0966
 4312SOL    HW213365   3.350   4.595   5.060  0.5088 -1.5568 -0.2282
 4313SOL     OW13366   1.681   0.757   6.227 -0.0662  0.0508 -0.1347
 4313SOL    HW113367   1.643   0.716   6.149  2.1641 -0.7837 -0.8716
 4313SOL    HW213368   1.710   0.684   6.281 -0.7867  0.6413  1.1076
 4314SOL     OW13369   4.440   6.045   0.483 -0.0791 -0.5822  0.0664
 4314SOL    HW113370   4.364   6.054   0.425  0.7606  0.5714 -0.8747
 4314SOL    HW213371   4.490   5.973   0.446 -0.4422 -1.0211  0.4081
 4315SOL     OW13372   5.890   3.884   2.470 -0.0872  0.1296  0.1095
 4315SOL    HW113373   5.872   3.920   2.383  0.9051 -2.6674 -1.4212
 4315SOL    HW213374   5.809   3.840   2.495  0.1058 -0.4047 -0.1762
 4316SOL     OW13375   4.489   3.989   1.831  0.4965 -0.3851  0.6222
 4316SOL    HW113376   4.498   4.082   1.810 -0.8003 -0.2310  0.7028
 4316SOL    HW213377   4.407   3.962   1.790  1.6517 -1.9209 -0.8088
 4317SOL     OW13378   2.781   4.024   2.255 -0.1916  0.3187  0.0315
 4317SOL    HW113379   2.748   3.945   2.211  2.1936 -0.5668 -0.2921
 4317SOL    HW213380   2.725   4.033   2.332 -1.8302 -0.4800 -0.9965
 4318SOL     OW13381   4.900   0.062   1.318  0.0670  0.1573 -0.0823
 4318SOL    HW113382   4.962   0.043   1.247  1.4403  1.0754  0.8133
 4318SOL    HW213383   4.818   0.082   1.274  0.7015 -0.0157 -1.3800
 4319SOL     OW13384   3.966   3.322   0.939  0.1244 -0.9428 -0.2641
 4319SOL    HW113385   3.914   3.394   0.974  2.5117 -0.0580  1.7050
 4319SOL    HW213386   3.903   3.251   0.926 -1.7581  0.4656  0.7524
 4320SOL     OW13387   0.745   4.619   4.171 -0.0685  0.5617 -0.4358
 4320SOL    HW113388   0.762   4.526   4.152  1.7052  0.3867  1.5505
 4320SOL    HW213389   0.770   4.665   4.091 -0.8688 -0.6517 -1.4218
 4321SOL     OW13390   4.208   1.403   0.969  0.0798 -0.8571 -0.0902
 4321SOL    HW113391   4.163   1.440   1.045 -0.8303 -1.9678 -0.0613
 4321SOL    HW213392   4.244   1.320   1.000  0.9774 -0.6244 -0.4906
 4322SOL     OW13393   3.665   1.510   1.750 -0.1022 -0.1647 -0.0487
 4322SOL    HW113394   3.618   1.592   1.764 -0.3145 -0.5725  2.0379
 4322SOL    HW213395   3.757   1.533   1.758 -0.1034  0.0538 -0.6290
 4323SOL     OW13396   5.008   3.141   4.623 -0.6133  0.1093  0.8358
 4323SOL    HW113397   5.087   3.157   4.572 -0.0325 -0.5814  1.5129
 4323SOL    HW213398   4.937   3.177   4.569  0.0538 -0.0924 -0.1880
 4324SOL     OW13399   3.734   4.170   1.286  0.6435  0.2272  0.6838
 4324SOL    HW113400   3.723   4.129   1.200  0.4289  0.8033  0.4325
 4324SOL    HW213401   3.776   4.102   1.340  0.2595 -0.3346  0.2870
 4325SOL     OW13402   5.890   2.997   0.815 -0.0737  0.5413  0.2187
 4325SOL    HW113403   5.863   2.963   0.730 -0.2511  0.2148  0.4011
 4325SOL    HW213404   5.912   3.088   0.799  0.3303  0.3611 -0.2648
 4326SOL     OW13405   4.452   2.389   4.272 -0.4810  0.0618  0.3512
 4326SOL    HW113406   4.542   2.359   4.288 -0.7129 -1.4157 -0.8204
 4326SOL    HW213407   4.459   2.484   4.267  1.6645 -0.1149 -2.9815
 4327SOL     OW13408   5.808   5.018   1.334 -0.4206 -0.0174  0.1636
 4327SOL    HW113409   5.790   5.110   1.347  0.0815 -0.2974  3.7467
 4327SOL    HW213410   5.886   5.016   1.277  0.9570  1.8781  1.8722
 4328SOL     OW13411   0.359   2.587   5.367 -0.1083  0.3473 -0.0621
 4328SOL    HW113412   0.384   2.673   5.334 -0.3155  0.5329  0.2557
 4328SOL    HW213413   0.364   2.595   5.462 -0.0212 -0.0269 -0.0312
 4329SOL     OW13414   1.850   2.106   1.156  0.1617  0.4521 -0.0566
 4329SOL    HW113415   1.929   2.160   1.160  0.8823 -0.5713 -0.1835
 4329SOL    HW213416   1.847   2.074   1.066  0.6889 -1.0805  0.4418
 4330SOL     OW13417   4.950   5.418   4.419  0.1817 -0.0477 -0.1727
 4330SOL    HW113418   4.865   5.380   4.395  0.4071 -1.1658  0.7036
 4330SOL    HW213419   4.953   5.411   4.514  0.6053  1.4600 -0.0570
 4331SOL     OW13420   5.157   4.005   0.284  0.2078  0.5093  0.6025
 4331SOL    HW113421   5.146   3.941   0.214  0.3711 -1.0681  1.9356
 4331SOL    HW213422   5.069   4.038   0.301 -0.1621 -0.5911  0.9554
 4332SOL     OW13423   4.213   4.221   5.965  0.2157  0.2553 -0.1610
 4332SOL    HW113424   4.149   4.292   5.971  0.6314  0.5356  1.4055
 4332SOL    HW213425   4.162   4.142   5.983  0.1759  0.4130  0.4557
 4333SOL     OW13426   5.242   1.048   4.433 -0.2994  0.2130  0.1303
 4333SOL    HW113427   5.268   0.998   4.510 -1.0589 -0.6146 -0.1288
 4333SOL    HW213428   5.147   1.035   4.427 -0.0931 -0.7814 -1.6324
 4334SOL     OW13429   3.366   4.114   5.723  0.4515 -0.1197 -0.2298
 4334SOL    HW113430   3.375   4.074   5.637 -2.7990 -0.8450 -0.3780
 4334SOL    HW213431   3.290   4.172   5.715  2.6176  3.1898  1.0746
 4335SOL     OW13432   4.287   4.766   3.245 -0.1062  0.7137  0.0466
 4335SOL    HW113433   4.296   4.860   3.263 -1.2832  0.7127  0.7366
 4335SOL    HW213434   4.203   4.758   3.201  0.7162  0.1540 -1.4739
 4336SOL     OW13435   2.512   0.313   4.649  0.1489  0.2885 -0.6487
 4336SOL    HW113436   2.549   0.248   4.590  0.9665 -0.2948  0.4745
 4336SOL    HW213437   2.418   0.315   4.628  0.0460 -1.5018 -0.4887
 4337SOL     OW13438   4.885   4.279   0.239 -0.1082 -0.0205  0.4583
 4337SOL    HW113439   4.881   4.184   0.228  0.0990 -0.4809  3.5237
 4337SOL    HW213440   4.794   4.308   0.230 -0.5399 -0.8703  1.8152
 4338SOL     OW13441   5.886   4.480   3.908 -0.2313  0.0115 -0.3227
 4338SOL    HW113442   5.851   4.395   3.934 -0.8046 -1.0813 -4.1053
 4338SOL    HW213443   5.810   4.539   3.910 -0.5217 -0.3457 -0.6206
 4339SOL     OW13444   1.181   0.141   0.749  0.2532  0.3439  0.5923
 4339SOL    HW113445   1.103   0.153   0.804  0.2412  2.3807  0.2106
 4339SOL    HW213446   1.253   0.134   0.812 -0.1987 -1.6438  0.9504
 4340SOL     OW13447   0.335   4.384   2.740 -0.0178  0.3094  0.2414
 4340SOL    HW113448   0.289   4.399   2.823  0.7256  1.8650  0.4039
 4340SOL    HW213449   0.294   4.305   2.705 -0.0424 -0.6767  2.2986
 4341SOL     OW13450   5.390   1.879   1.559  0.3324 -0.0540  0.6880
 4341SOL    HW113451   5.480   1.911   1.566  0.5476 -0.3178 -0.7464
 4341SOL    HW213452   5.336   1.958   1.563  0.5939  0.0977  1.6371
 4342SOL     OW13453   5.949   0.738   0.325  0.2700  0.3950 -0.2846
 4342SOL    HW113454   6.008   0.664   0.334  2.4577  1.8760 -1.3404
 4342SOL    HW213455   5.898   0.719   0.247  0.4713 -0.2039 -0.2749
 4343SOL     OW13456   4.611   3.552   3.140 -0.1461  0.2151 -0.0207
 4343SOL    HW113457   4.580   3.615   3.074  2.5558  0.9862 -0.7014
 4343SOL    HW213458   4.660   3.606   3.203 -0.6007 -0.8276  1.2658
 4344SOL     OW13459   5.153   4.095   2.537  0.2206 -0.5298  0.4469
 4344SOL    HW113460   5.241   4.063   2.516 -0.5376 -0.7857 -2.7485
 4344SOL    HW213461   5.165   4.189   2.551  0.7688 -0.1783 -2.0277
 4345SOL     OW13462   4.038   4.696   4.529  0.3519 -0.2066  0.6296
 4345SOL    HW113463   3.958   4.747   4.518  0.7512  0.1994 -0.4707
 4345SOL    HW213464   4.103   4.759   4.561  0.2102 -0.5697  1.6884
 4346SOL     OW13465   3.947   5.162   5.835  0.7023  0.2653  0.0757
 4346SOL    HW113466   3.999   5.082   5.850  0.4902 -0.1315 -1.1764
 4346SOL    HW213467   3.994   5.207   5.765  1.4458  1.8409  1.5096
 4347SOL     OW13468   0.236   4.042   0.779 -0.5536 -0.4221  0.1636
 4347SOL    HW113469   0.255   4.057   0.687 -1.9364  1.3809  0.1193
 4347SOL    HW213470   0.321   4.049   0.823 -0.0999  0.2171 -0.7952
 4348SOL     OW13471   2.038   4.271   0.674  0.3644 -0.1311 -0.3986
 4348SOL    HW113472   1.976   4.344   0.672  1.1888  0.5851 -2.1828
 4348SOL    HW213473   2.116   4.307   0.715  0.5468 -0.2120 -0.6751
 4349SOL     OW13474   3.128   5.360   5.586 -0.0107  0.2753 -0.4756
 4349SOL    HW113475   3.069   5.394   5.519 -0.1809  1.7027  0.3530
 4349SOL    HW213476   3.216   5.381   5.554  0.1102 -1.8436 -1.7058
 4350SOL     OW13477   0.991   4.669   0.507 -0.2766 -0.3944  1.4789
 4350SOL    HW113478   1.069   4.662   0.453 -0.5633  3.2824  0.2980
 4350SOL    HW213479   1.025   4.679   0.596  0.5757  0.0878  1.1171
 4351SOL     OW13480   4.735   4.324   2.384 -0.2069  0.0922  0.8859
 4351SOL    HW113481   4.688   4.334   2.467 -1.3245  0.0235  0.2699
 4351SOL    HW213482   4.819   4.285   2.409 -0.2509  0.7128  2.0590
 4352SOL     OW13483   2.351   0.263   1.978 -0.1875 -0.1711  0.7132
 4352SOL    HW113484   2.428   0.260   2.036  0.5957 -0.2635 -0.3154
 4352SOL    HW213485   2.291   0.198   2.016  0.3418 -0.2804  1.3858
 4353SOL     OW13486   4.159   2.058   4.575  0.1951  0.4293  0.2558
 4353SOL    HW113487   4.143   2.136   4.628  0.3925  0.3254  0.4719
 4353SOL    HW213488   4.248   2.032   4.597 -0.5376 -0.9998  1.6807
 4354SOL     OW13489   5.449   1.103   5.543  0.3816 -0.4749  0.7913
 4354SOL    HW113490   5.426   1.016   5.510 -2.2036  0.9226 -1.5288
 4354SOL    HW213491   5.490   1.147   5.469  0.2127  0.7861  1.4207
 4355SOL     OW13492   3.706   4.509   5.763  0.2198 -0.0887  0.3659
 4355SOL    HW113493   3.712   4.526   5.857  1.8826 -1.7182  0.6109
 4355SOL    HW213494   3.619   4.471   5.751 -0.1832  0.5515  1.1554
 4356SOL     OW13495   3.702   1.363   2.669 -0.6769  0.5186 -0.0519
 4356SOL    HW113496   3.679   1.451   2.700  0.7868  0.5075  1.1974
 4356SOL    HW213497   3.735   1.318   2.747 -2.9327 -1.7552 -0.2398
 4357SOL     OW13498   0.478   2.579   3.511  0.3201 -1.0636 -0.0045
 4357SOL    HW113499   0.514   2.499   3.473 -1.2786 -1.2512 -1.2429
 4357SOL    HW213500   0.416   2.611   3.446  2.1835  2.2257 -0.3940
 4358SOL     OW13501   2.279   1.436   3.370 -0.0938 -0.1807  0.1144
 4358SOL    HW113502   2.202   1.471   3.325  0.1791 -0.6013 -0.7056
 4358SOL    HW213503   2.318   1.511   3.414 -0.8123  0.0881  0.3101
 4359SOL     OW13504   4.373   4.906   6.016  0.1602 -0.1037 -0.1297
 4359SOL    HW113505   4.390   4.813   6.030  0.6950  0.1823  1.3094
 4359SOL    HW213506   4.299   4.926   6.073 -0.6611  0.1319 -1.2538
 4360SOL     OW13507   1.515   0.698   4.698 -0.2671  0.7836  0.4628
 4360SOL    HW113508   1.480   0.692   4.609 -0.0033  0.4481  0.3820
 4360SOL    HW213509   1.510   0.609   4.731  1.3765  0.5368  0.1268
 4361SOL     OW13510   0.616   5.852   2.445  0.7533  0.0464  0.7224
 4361SOL    HW113511   0.619   5.915   2.373 -3.2204  0.5020  0.7255
 4361SOL    HW213512   0.601   5.768   2.402  0.0938  0.0616  0.9075
 4362SOL     OW13513   1.980   5.352   5.940  0.5081 -0.2431  0.2871
 4362SOL    HW113514   1.896   5.309   5.924  0.5003  0.2175 -0.9912
 4362SOL    HW213515   2.040   5.280   5.960 -0.0817 -0.6090  0.7900
 4363SOL     OW13516   4.379   1.974   3.567 -0.3093 -0.0554 -0.0235
 4363SOL    HW113517   4.394   1.996   3.475 -1.9790  0.5581 -0.1812
 4363SOL    HW213518   4.466   1.954   3.601  0.6532  1.9172 -1.1640
 4364SOL     OW13519   2.370   6.163   5.757 -0.6633 -0.4636 -0.2894
 4364SOL    HW113520   2.344   6.246   5.717 -0.5317 -0.4440 -0.3360
 4364SOL    HW213521   2.378   6.182   5.850  0.3745 -0.1600 -0.4240
 4365SOL     OW13522   3.575   3.046   2.525 -0.5803  0.4940 -0.6821
 4365SOL    HW113523   3.639   2.975   2.529  0.0077  1.0758  1.1713
 4365SOL    HW213524   3.554   3.054   2.432 -0.1605 -1.6440 -1.0116
 4366SOL     OW13525   2.678   4.906   5.559 -0.2538 -0.3240 -0.2958
 4366SOL    HW113526   2.616   4.834   5.562 -0.9566  0.2642 -0.4798
 4366SOL    HW213527   2.753   4.876   5.610 -1.2227 -0.5327  1.0496
 4367SOL     OW13528   2.109   5.535   0.541 -0.2029 -0.1112  0.1189
 4367SOL    HW113529   2.095   5.514   0.634 -0.7536  0.9363  0.2903
 4367SOL    HW213530   2.022   5.534   0.503  0.2387 -3.5844 -1.1313
 4368SOL     OW13531   0.638   3.974   2.262 -0.3074  0.2403 -0.4808
 4368SOL    HW113532   0.636   4.065   2.232  0.2744 -0.4346 -2.8009
 4368SOL    HW213533   0.575   3.929   2.206  1.1109 -1.1888 -0.9970
 4369SOL     OW13534   3.265   0.032   1.310  0.5128  0.4916  0.3966
 4369SOL    HW113535   3.330   0.080   1.257 -0.8642  1.4347 -0.5017
 4369SOL    HW213536   3.317  -0.028   1.363  1.9658 -1.0002 -2.4794
 4370SOL     OW13537   0.077   5.363   4.531 -0.1981 -0.1921 -0.7680
 4370SOL    HW113538   0.017   5.346   4.458  0.6392 -1.0173 -1.2859
 4370SOL    HW213539   0.026   5.343   4.609 -1.2919  1.2526 -1.0749
 4371SOL     OW13540   4.831   4.058   3.311 -0.1184  0.1402  0.6588
 4371SOL    HW113541   4.906   4.086   3.259 -0.5031 -0.5052 -0.2742
 4371SOL    HW213542   4.860   3.976   3.351 -0.3055 -0.0902  0.3274
 4372SOL     OW13543   2.036   0.363   5.317  0.3471 -0.0841  0.1774
 4372SOL    HW113544   2.047   0.320   5.402  1.1043 -0.6002 -0.1655
 4372SOL    HW213545   1.951   0.333   5.285  0.1984 -0.1323  0.6167
 4373SOL     OW13546   3.460   4.045   1.490 -0.3092 -0.1004  0.0382
 4373SOL    HW113547   3.511   4.031   1.411 -0.4095 -1.1697  0.1468
 4373SOL    HW213548   3.453   3.958   1.530 -0.8466  0.3030  0.8589
 4374SOL     OW13549   2.422   5.520   2.550 -0.4400  0.4131 -0.0199
 4374SOL    HW113550   2.449   5.440   2.506 -1.5527 -0.3834  0.7120
 4374SOL    HW213551   2.503   5.569   2.564  0.4950 -1.3834  1.1102
 4375SOL     OW13552   3.379   5.807   3.902 -0.0076 -0.3363 -0.0049
 4375SOL    HW113553   3.361   5.714   3.915  1.8642 -0.6657  0.4952
 4375SOL    HW213554   3.455   5.825   3.957 -1.8005  2.0993  1.8968
 4376SOL     OW13555   3.228   6.109   0.676  0.1443 -0.3886 -0.2943
 4376SOL    HW113556   3.222   6.014   0.680  1.9834 -0.7931 -3.3945
 4376SOL    HW213557   3.303   6.131   0.732  0.9919 -1.0534 -1.1336
 4377SOL     OW13558   5.326   3.755   2.131  0.1811 -0.0161  0.5828
 4377SOL    HW113559   5.258   3.713   2.078 -0.8217  0.2960  1.5897
 4377SOL    HW213560   5.326   3.847   2.102  0.9099 -0.2244 -0.1324
 4378SOL     OW13561   3.734   5.614   3.044 -0.3355  0.4647 -0.7201
 4378SOL    HW113562   3.667   5.548   3.064 -0.6330  1.0454  0.2654
 4378SOL    HW213563   3.718   5.637   2.952 -1.2783  0.3517 -0.6001
 4379SOL     OW13564   1.341   5.882   4.054 -0.2251  0.0048 -0.5167
 4379SOL    HW113565   1.383   5.847   4.132 -0.4323 -0.7490 -0.7335
 4379SOL    HW213566   1.378   5.832   3.982 -0.7140  0.0568 -0.8101
 4380SOL     OW13567   2.795   1.323   2.409 -0.0679 -0.1096  0.1471
 4380SOL    HW113568   2.871   1.379   2.425 -0.8772  1.1149 -0.1441
 4380SOL    HW213569   2.729   1.355   2.472 -0.5716 -0.6780 -0.0883
 4381SOL     OW13570   0.084   0.139   6.211  0.2436  0.6355 -0.1750
 4381SOL    HW113571  -0.004   0.100   6.220  0.6183 -0.2144 -0.0957
 4381SOL    HW213572   0.067   0.232   6.200 -0.7128  0.4021 -0.8613
 4382SOL     OW13573   0.990   1.935   4.135  0.1869  0.2248  0.1763
 4382SOL    HW113574   0.899   1.910   4.119  0.4845 -1.1882  0.6058
 4382SOL    HW213575   0.983   2.015   4.187 -0.7810  1.5400 -1.8382
 4383SOL     OW13576   3.368   5.155   1.678 -0.3246  0.6259 -0.1767
 4383SOL    HW113577   3.461   5.141   1.699 -0.1955  0.0853 -1.0342
 4383SOL    HW213578   3.338   5.071   1.644 -0.8453  1.0789 -0.8827
 4384SOL     OW13579   4.381   0.249   2.757 -0.1256  0.1273 -0.6186
 4384SOL    HW113580   4.408   0.340   2.761 -0.8280  0.3195 -0.0994
 4384SOL    HW213581   4.463   0.199   2.756  0.3102  0.6309  2.3999
 4385SOL     OW13582   3.028   2.850   0.541  0.2721  0.1324  0.3412
 4385SOL    HW113583   3.066   2.918   0.597  0.2218  0.5352 -0.1053
 4385SOL    HW213584   3.001   2.897   0.462 -0.6607 -0.2433  0.4322
 4386SOL     OW13585   4.466   6.188   0.179  0.3388 -0.2038  0.2470
 4386SOL    HW113586   4.437   6.270   0.218 -1.0294  0.2938 -1.6500
 4386SOL    HW213587   4.535   6.156   0.237 -0.1891  1.4698  1.8811
 4387SOL     OW13588   4.618   4.480   4.220 -0.6268 -0.2387 -0.0281
 4387SOL    HW113589   4.613   4.500   4.313  0.5113 -0.1828  0.0325
 4387SOL    HW213590   4.535   4.437   4.200 -0.3334 -1.5033  1.3318
 4388SOL     OW13591   3.301   4.687   1.935  0.3735  0.6635  0.1696
 4388SOL    HW113592   3.269   4.766   1.979  0.5227  1.4242 -1.0484
 4388SOL    HW213593   3.246   4.616   1.971  0.1989  1.3150  1.2318
 4389SOL     OW13594   3.538   1.214   1.307 -0.1270  0.6746  0.3503
 4389SOL    HW113595   3.523   1.271   1.382 -0.5620 -0.0051  0.7886
 4389SOL    HW213596   3.564   1.130   1.345  4.1944  1.4794 -0.2892
 4390SOL     OW13597   2.970   2.663   5.743  1.1304  0.3664  0.0391
 4390SOL    HW113598   2.920   2.687   5.822 -1.3647  0.8019 -1.5462
 4390SOL    HW213599   2.956   2.568   5.734  1.4863  0.3018  0.1808
 4391SOL     OW13600   1.063   5.581   5.941  0.4791 -0.7316  0.1320
 4391SOL    HW113601   1.112   5.560   5.861  0.0674 -1.3039  0.0252
 4391SOL    HW213602   1.115   5.650   5.982 -0.2047  0.8269 -1.4851
 4392SOL     OW13603   0.944   3.863   3.981 -0.1336  0.4104  0.1172
 4392SOL    HW113604   0.963   3.826   4.067 -1.4003  0.0090  0.2383
 4392SOL    HW213605   1.012   3.929   3.968  0.0390  0.5270  1.4578
 4393SOL     OW13606   1.417   4.678   5.920 -0.0545  0.1397 -0.3695
 4393SOL    HW113607   1.484   4.618   5.952  0.9211  1.5698  0.3138
 4393SOL    HW213608   1.425   4.674   5.824  0.3367 -0.4239 -0.3156
 4394SOL     OW13609   5.751   4.529   5.636  0.0781 -0.1874  0.7317
 4394SOL    HW113610   5.773   4.618   5.665  0.4913  0.1901 -0.6718
 4394SOL    HW213611   5.790   4.472   5.702 -2.3009  0.6757  3.0599
 4395SOL     OW13612   4.820   2.323   0.482  0.1902  0.6824  0.0162
 4395SOL    HW113613   4.836   2.385   0.411 -0.1075  0.5421 -0.1787
 4395SOL    HW213614   4.810   2.239   0.437  1.0561  0.4069  0.3115
 4396SOL     OW13615   2.971   1.080   0.976  0.2460  0.3362 -0.7537
 4396SOL    HW113616   2.877   1.069   0.968  0.1083  0.5622  0.4449
 4396SOL    HW213617   3.000   1.008   1.032  0.3379  1.8531  1.2880
 4397SOL     OW13618   0.609   5.874   5.911 -0.0276 -0.3340  0.5573
 4397SOL    HW113619   0.628   5.942   5.846  2.1215 -0.0155  1.4402
 4397SOL    HW213620   0.547   5.815   5.867  2.5104 -1.0394 -2.4689
 4398SOL     OW13621   5.590   3.010   0.512 -0.0994 -0.2356 -0.3587
 4398SOL    HW113622   5.523   3.067   0.475  0.6302  0.5597 -0.4759
 4398SOL    HW213623   5.655   3.000   0.443 -0.8487 -2.3572 -0.8610
 4399SOL     OW13624   5.465   2.556   2.767 -0.0429  0.5346  0.8666
 4399SOL    HW113625   5.376   2.562   2.733  0.9262  0.5655 -1.9380
 4399SOL    HW213626   5.505   2.640   2.743  1.5694 -0.6286 -0.7440
 4400SOL     OW13627   0.832   0.589   4.765  0.8619  0.7988 -0.0707
 4400SOL    HW113628   0.743   0.557   4.747 -0.2576  2.8033  1.4222
 4400SOL    HW213629   0.844   0.662   4.704  1.9146 -0.0709 -0.9402
 4401SOL     OW13630   3.918   0.180   5.297  0.2415 -0.3315 -0.1685
 4401SOL    HW113631   4.009   0.149   5.299  0.0842 -1.0273  3.5558
 4401SOL    HW213632   3.921   0.268   5.333 -0.5898 -0.6147  0.6474
 4402SOL     OW13633   1.266   1.994   4.204  0.2322 -0.6105  0.4150
 4402SOL    HW113634   1.294   2.065   4.146 -0.2015 -0.7852 -0.0120
 4402SOL    HW213635   1.182   1.966   4.168 -1.0847  0.6426  2.2915
 4403SOL     OW13636   0.921   4.942   0.565 -0.1754 -0.1738  0.0782
 4403SOL    HW113637   0.836   4.934   0.609 -1.3675  0.1681 -2.0528
 4403SOL    HW213638   0.925   4.867   0.507  0.2815  0.6273 -0.9573
 4404SOL     OW13639   4.183   3.295   4.332  0.2371  0.1932  0.2102
 4404SOL    HW113640   4.263   3.298   4.279 -0.2218  0.7909 -0.4565
 4404SOL    HW213641   4.113   3.317   4.271 -0.5644 -1.2720  0.5574
 4405SOL     OW13642   3.052   1.770   4.334  0.4238 -0.4531 -0.7534
 4405SOL    HW113643   3.004   1.703   4.383 -0.3847  0.1801 -0.6536
 4405SOL    HW213644   2.986   1.834   4.309  1.6268  2.4055  2.5388
 4406SOL     OW13645   4.163   4.959   6.219 -0.3814  0.0576  0.3769
 4406SOL    HW113646   4.087   4.991   6.171  0.5797  1.1218 -0.5154
 4406SOL    HW213647   4.174   5.021   6.291 -0.3808 -0.1136  0.5248
 4407SOL     OW13648   2.745   6.116   5.617  0.7313  0.3595 -0.0731
 4407SOL    HW113649   2.676   6.159   5.567 -1.4818 -1.0688  1.5434
 4407SOL    HW213650   2.737   6.023   5.593  1.4569  0.0450  0.8580
 4408SOL     OW13651   2.045   4.022   1.030 -0.1132  0.2185  0.2238
 4408SOL    HW113652   1.962   4.065   1.012 -0.2480 -1.5978 -4.9282
 4408SOL    HW213653   2.021   3.934   1.059  0.1378  0.6452  1.8377
 4409SOL     OW13654   3.606   1.074   0.847  0.2226 -0.3932 -0.3213
 4409SOL    HW113655   3.522   1.031   0.863  0.3874 -0.1685  1.3671
 4409SOL    HW213656   3.631   1.110   0.933  1.0293  1.3549 -1.2302
 4410SOL     OW13657   0.161   3.089   2.981  0.5703 -0.1843  0.1871
 4410SOL    HW113658   0.178   3.139   3.061  0.3075 -1.0844  0.8179
 4410SOL    HW213659   0.237   3.033   2.971  0.9526  0.4562 -0.6299
 4411SOL     OW13660   2.798   1.831   1.680  0.1620  0.0054 -0.1290
 4411SOL    HW113661   2.778   1.745   1.716  0.4560 -0.7094 -1.5652
 4411SOL    HW213662   2.894   1.835   1.679  0.2170  1.7524  2.9805
 4412SOL     OW13663   5.462   5.846   1.237  0.1216  0.2438 -0.3496
 4412SOL    HW113664   5.423   5.771   1.279  0.8476 -0.2013 -0.4508
 4412SOL    HW213665   5.486   5.815   1.149  1.2407  0.3219 -0.0845
 4413SOL     OW13666   4.609   4.055   3.763 -0.0265  0.1842 -0.7370
 4413SOL    HW113667   4.656   4.099   3.692 -1.4539  1.7155 -0.8033
 4413SOL    HW213668   4.568   4.127   3.812 -0.6093 -0.9685  0.5089
 4414SOL     OW13669   3.762   5.861   4.614  0.4581 -0.2491 -0.4371
 4414SOL    HW113670   3.731   5.896   4.697  2.0933 -1.7651  0.8708
 4414SOL    HW213671   3.717   5.914   4.548  0.2754  2.0322  1.3875
 4415SOL     OW13672   3.041   0.896   1.147  0.1784 -0.2182 -0.1366
 4415SOL    HW113673   3.060   0.964   1.212 -0.6942  0.9573 -1.0588
 4415SOL    HW213674   3.117   0.838   1.149  2.5105  2.5472 -1.5333
 4416SOL     OW13675   5.485   2.762   3.697  0.2404 -0.0252 -0.5398
 4416SOL    HW113676   5.398   2.753   3.734 -0.1424  1.4171 -1.0125
 4416SOL    HW213677   5.540   2.705   3.749 -0.9266 -0.6905 -0.0143
 4417SOL     OW13678   5.692   1.298   6.189 -0.0199  0.3019 -0.0374
 4417SOL    HW113679   5.634   1.290   6.264 -0.3897 -0.0207 -0.3519
 4417SOL    HW213680   5.635   1.321   6.116  0.2719  0.1902 -0.3069
 4418SOL     OW13681   6.191   0.368   0.889  0.1292 -0.6228  0.0399
 4418SOL    HW113682   6.162   0.427   0.959  0.4926  0.3962 -0.6407
 4418SOL    HW213683   6.283   0.351   0.907  0.4643  0.3578 -0.6503
 4419SOL     OW13684   3.380   2.632   2.397  0.1383 -0.1001 -0.0794
 4419SOL    HW113685   3.285   2.637   2.390  0.1502  0.9976  0.3696
 4419SOL    HW213686   3.396   2.591   2.482  0.0591  0.4952  0.2297
 4420SOL     OW13687   3.438   5.302   5.247  0.9862 -0.1162 -0.5439
 4420SOL    HW113688   3.432   5.228   5.307  1.9289  0.4521  0.2611
 4420SOL    HW213689   3.528   5.332   5.254  1.1968 -0.2047 -2.4603
 4421SOL     OW13690   0.880   3.586   1.736 -0.1385 -0.6925  0.1949
 4421SOL    HW113691   0.855   3.675   1.761 -2.0570 -1.6491  2.0185
 4421SOL    HW213692   0.943   3.597   1.665  0.4269  2.1199  1.0365
 4422SOL     OW13693   2.932   5.805   3.496 -0.1159 -0.4856 -0.4911
 4422SOL    HW113694   2.984   5.804   3.576 -0.4328 -1.1583 -0.2874
 4422SOL    HW213695   2.978   5.745   3.437 -0.7332 -1.2073 -0.2551
 4423SOL     OW13696   4.739   3.100   5.229 -0.0657  0.4439 -0.5911
 4423SOL    HW113697   4.705   3.102   5.319 -0.2684 -0.5481 -0.6347
 4423SOL    HW213698   4.671   3.057   5.179 -0.5656  2.1999 -1.5211
 4424SOL     OW13699   0.611   2.071   3.171  0.2800 -0.2857  0.2942
 4424SOL    HW113700   0.649   2.112   3.094 -0.6262 -1.2843 -0.7213
 4424SOL    HW213701   0.677   2.083   3.240  0.4439  1.9952 -0.1854
 4425SOL     OW13702   4.788   0.065   2.041 -0.8948 -0.0384 -0.5817
 4425SOL    HW113703   4.698   0.064   2.008 -1.7024 -0.6128  1.4402
 4425SOL    HW213704   4.798  -0.019   2.085  0.1696  0.5343  0.3257
 4426SOL     OW13705   0.734   3.036   1.692 -0.2011  0.0956 -0.0186
 4426SOL    HW113706   0.790   3.092   1.639  0.5002  1.3098  1.9046
 4426SOL    HW213707   0.777   3.032   1.777 -0.9284 -2.3328  0.3199
 4427SOL     OW13708   2.912   2.177   1.498  0.1712  0.2834  0.5784
 4427SOL    HW113709   2.983   2.139   1.549 -0.7598  0.3440  1.9686
 4427SOL    HW213710   2.956   2.226   1.428  1.4170 -3.1577 -1.2492
 4428SOL     OW13711   0.842   5.017   6.151 -0.5139 -0.2209  0.0836
 4428SOL    HW113712   0.931   4.983   6.138 -0.3344  0.8181 -1.7234
 4428SOL    HW213713   0.827   5.010   6.245  1.1706 -1.1733  0.3170
 4429SOL     OW13714   4.366   4.690   2.716 -0.7608  0.9261  0.2249
 4429SOL    HW113715   4.295   4.645   2.764 -0.2320  1.5371  1.6259
 4429SOL    HW213716   4.334   4.695   2.626 -0.6515 -2.6981 -0.1606
 4430SOL     OW13717   5.777   2.852   0.615  0.1610  0.0854 -0.1337
 4430SOL    HW113718   5.761   2.785   0.548  3.0998  2.0975 -3.1955
 4430SOL    HW213719   5.725   2.927   0.586  2.2871  1.3358 -0.9264
 4431SOL     OW13720   3.839   2.705   4.376  0.0564  0.5009  0.3574
 4431SOL    HW113721   3.800   2.780   4.419  0.4917  1.9372 -1.5996
 4431SOL    HW213722   3.891   2.662   4.443 -0.1937  1.9451  1.5162
 4432SOL     OW13723   2.185   0.651   4.137 -0.3559  0.2875 -0.2361
 4432SOL    HW113724   2.205   0.644   4.231 -2.2844  1.7821  0.3573
 4432SOL    HW213725   2.186   0.745   4.120  0.8754 -0.0141 -1.9593
 4433SOL     OW13726   1.009   2.566   4.826  0.0852 -0.3734 -0.4230
 4433SOL    HW113727   0.992   2.481   4.865 -0.4251 -1.0617 -2.0836
 4433SOL    HW213728   1.018   2.549   4.733 -0.1365  1.4107 -0.8082
 4434SOL     OW13729   2.627   2.258   2.095 -0.1831  0.8556 -0.3121
 4434SOL    HW113730   2.595   2.170   2.116 -0.3518  0.6210 -1.4750
 4434SOL    HW213731   2.562   2.317   2.133 -0.1637  0.4777  0.3218
 4435SOL     OW13732   4.965   2.523   2.973  0.3335 -0.0939  0.6873
 4435SOL    HW113733   4.891   2.487   3.022 -0.7615  0.3007 -0.5921
 4435SOL    HW213734   4.995   2.450   2.918 -1.1554  0.5318 -1.0700
 4436SOL     OW13735   2.806   5.235   2.234 -0.0431  0.0392 -0.0933
 4436SOL    HW113736   2.867   5.306   2.215  1.5150 -1.4325 -0.8648
 4436SOL    HW213737   2.811   5.223   2.328  0.4320  0.2962 -0.0819
 4437SOL     OW13738   5.595   0.863   5.973 -0.1765 -0.3393 -0.0198
 4437SOL    HW113739   5.679   0.882   5.931  0.0570  1.2862  1.0899
 4437SOL    HW213740   5.612   0.871   6.067 -0.8838 -3.0760  0.4468
 4438SOL     OW13741   0.441   6.111   1.115 -0.4790 -0.2264  0.5896
 4438SOL    HW113742   0.519   6.055   1.116  0.4722  0.9673  3.6507
 4438SOL    HW213743   0.474   6.200   1.125 -2.0736  0.8915 -2.5317
 4439SOL     OW13744   1.482   4.693   5.342  0.2417 -0.0505 -0.6555
 4439SOL    HW113745   1.557   4.656   5.389  0.7293  1.4123 -0.2226
 4439SOL    HW213746   1.408   4.639   5.368  1.0786 -1.3366 -0.8475
 4440SOL     OW13747   3.922   0.711   3.120 -0.1599 -0.2746  0.4208
 4440SOL    HW113748   3.978   0.759   3.057 -0.0370 -0.3105  0.5027
 4440SOL    HW213749   3.927   0.620   3.092 -1.9569 -0.0036 -0.9403
 4441SOL     OW13750   1.153   2.835   0.592  0.1251 -0.2846 -0.7328
 4441SOL    HW113751   1.114   2.898   0.531  0.1429  1.2089  0.7100
 4441SOL    HW213752   1.122   2.750   0.562  1.0993  0.2364 -3.5154
 4442SOL     OW13753   4.172   0.259   2.583 -0.2599 -0.0847 -0.1865
 4442SOL    HW113754   4.231   0.237   2.656  0.0908 -0.1309 -0.4826
 4442SOL    HW213755   4.119   0.331   2.617  1.3365  1.3619 -0.5815
 4443SOL     OW13756   1.379   0.768   2.839 -0.3524 -0.1553 -0.5090
 4443SOL    HW113757   1.393   0.707   2.911  0.7226 -0.1090 -0.6539
 4443SOL    HW213758   1.306   0.823   2.867 -0.0418 -0.2256  0.4801
 4444SOL     OW13759   3.903   5.799   3.541 -0.0641 -0.0893 -0.0177
 4444SOL    HW113760   3.842   5.867   3.513  1.2754  1.8009  1.4090
 4444SOL    HW213761   3.946   5.770   3.461 -1.8730 -0.5337 -0.8714
 4445SOL     OW13762   3.055   5.112   2.026 -0.7764 -0.0120 -0.1545
 4445SOL    HW113763   3.027   5.119   1.934 -2.8332  0.4304  0.4729
 4445SOL    HW213764   3.053   5.202   2.058  0.2412 -0.1282  0.2772
 4446SOL     OW13765   2.637   4.885   1.601  0.1168 -0.2382  0.0284
 4446SOL    HW113766   2.628   4.941   1.524  0.2959 -0.4550 -0.1552
 4446SOL    HW213767   2.642   4.945   1.675  3.5720  0.2164 -0.4062
 4447SOL     OW13768   0.639   5.906   1.216  0.3809 -0.0276  0.1813
 4447SOL    HW113769   0.592   5.913   1.299  1.9459 -0.1610  1.1220
 4447SOL    HW213770   0.717   5.960   1.227  1.7238 -1.7500 -0.3771
 4448SOL     OW13771   2.433   0.729   3.969  0.5430 -0.2586 -0.3648
 4448SOL    HW113772   2.406   0.819   3.984 -1.1809 -0.7549 -0.2295
 4448SOL    HW213773   2.359   0.676   3.999  1.8731 -1.7687  0.4411
 4449SOL     OW13774   4.971   4.999   3.099  0.1444  0.6283  0.8427
 4449SOL    HW113775   4.977   4.920   3.045  1.2461 -0.0204  1.8702
 4449SOL    HW213776   4.890   5.042   3.069  0.6375  0.2492 -1.2174
 4450SOL     OW13777   2.999   0.036   0.796 -0.4536 -0.0648  0.7078
 4450SOL    HW113778   3.001  -0.004   0.883  0.0902  0.0018  0.7315
 4450SOL    HW213779   3.062  -0.014   0.745  0.1441  0.6742  0.7020
 4451SOL     OW13780   3.129   5.057   1.349  0.5995  0.1914  0.3251
 4451SOL    HW113781   3.180   5.010   1.416 -0.6918 -0.4064  0.9319
 4451SOL    HW213782   3.080   4.988   1.305  0.4436  0.7396 -0.3635
 4452SOL     OW13783   4.200   0.386   1.560 -0.0411 -0.0765  0.2591
 4452SOL    HW113784   4.257   0.315   1.589 -0.3905  0.0712  1.3647
 4452SOL    HW213785   4.256   0.441   1.505  0.7096 -0.2851  0.7960
 4453SOL     OW13786   6.214   1.377   2.289 -0.0643 -0.1416 -0.0893
 4453SOL    HW113787   6.219   1.469   2.314  0.0199 -0.5722  1.6172
 4453SOL    HW213788   6.299   1.358   2.250  0.4921  0.1464  0.9394
 4454SOL     OW13789   1.695   5.053   5.161 -0.1807  0.2754  0.1318
 4454SOL    HW113790   1.755   5.123   5.136 -2.6484  2.0015 -1.4368
 4454SOL    HW213791   1.621   5.098   5.202 -1.2822 -1.5548  0.2628
 4455SOL     OW13792   5.763   1.618   1.289 -0.2485  0.2375 -0.2309
 4455SOL    HW113793   5.693   1.585   1.345 -0.7964  0.2202 -0.9251
 4455SOL    HW213794   5.720   1.676   1.227  0.4861  0.9882 -0.0516
 4456SOL     OW13795   4.258   5.710   0.912 -0.1965 -0.6750 -0.2392
 4456SOL    HW113796   4.273   5.671   0.998  1.5185  1.2070  0.3886
 4456SOL    HW213797   4.318   5.784   0.909 -2.4545  1.2279 -1.7867
 4457SOL     OW13798   3.618   2.785   2.355 -0.3010  0.1591  0.5781
 4457SOL    HW113799   3.544   2.726   2.371  0.3154 -0.6716  0.4189
 4457SOL    HW213800   3.671   2.780   2.434 -1.0300  1.6987  1.1873
 4458SOL     OW13801   1.311   5.278   5.628 -0.0750  0.0880 -0.7351
 4458SOL    HW113802   1.375   5.301   5.561 -0.0212  1.7492 -0.1449
 4458SOL    HW213803   1.274   5.361   5.656 -1.4325 -0.7243  0.0004
 4459SOL     OW13804   6.193   2.820   2.533 -0.8087  0.0270 -0.1462
 4459SOL    HW113805   6.259   2.767   2.577 -1.8359 -1.1366  0.0223
 4459SOL    HW213806   6.185   2.782   2.446 -1.1319  0.2814 -0.2313
 4460SOL     OW13807   2.052   3.218   1.355  0.1847 -0.0798 -0.8551
 4460SOL    HW113808   2.002   3.143   1.322 -2.5391  0.0740  2.3862
 4460SOL    HW213809   2.014   3.294   1.312 -2.2384 -0.0257  1.1531
 4461SOL     OW13810   3.995   5.318   0.522 -0.7059  0.0830 -0.0483
 4461SOL    HW113811   3.942   5.335   0.601 -1.1166 -1.1717 -0.0304
 4461SOL    HW213812   4.053   5.247   0.547 -1.7197 -1.2130 -1.2407
 4462SOL     OW13813   6.007   0.350   3.578 -0.1800 -0.1384  0.4567
 4462SOL    HW113814   5.943   0.406   3.535  0.5533  1.4464  1.3339
 4462SOL    HW213815   6.075   0.410   3.610  0.1134 -1.3874  2.3947
 4463SOL     OW13816   0.753   2.170   4.915 -0.3907  0.3392 -0.5041
 4463SOL    HW113817   0.696   2.136   4.847  0.4154  1.3207 -1.7255
 4463SOL    HW213818   0.752   2.265   4.902 -1.5773  0.7494  1.9703
 4464SOL     OW13819   5.767   2.777   2.447  0.7021 -0.3431  0.0637
 4464SOL    HW113820   5.826   2.838   2.491  0.0558  0.5726 -0.3062
 4464SOL    HW213821   5.765   2.806   2.356 -0.4118 -0.2628  0.0996
 4465SOL     OW13822   5.961   5.119   1.587 -0.3566  0.4529  0.6151
 4465SOL    HW113823   5.958   5.029   1.619  0.9989 -0.3368 -1.2668
 4465SOL    HW213824   5.872   5.153   1.601 -1.0509 -1.3585  0.8391
 4466SOL     OW13825   6.118   1.991   4.386 -0.0358 -0.1063  0.0225
 4466SOL    HW113826   6.194   2.043   4.358 -1.4170  1.9729 -0.1520
 4466SOL    HW213827   6.099   1.935   4.311 -1.4301  2.7396 -1.9683
 4467SOL     OW13828   5.239   0.915   0.765 -0.2861  0.1282  0.3118
 4467SOL    HW113829   5.243   0.961   0.849  2.9578  1.2076 -0.2698
 4467SOL    HW213830   5.329   0.885   0.750 -1.2902 -2.2128 -1.6621
 4468SOL     OW13831   5.632   5.026   4.816  0.0612  0.2317 -0.0676
 4468SOL    HW113832   5.649   4.948   4.869 -1.2051  0.0492  0.1063
 4468SOL    HW213833   5.542   5.051   4.839 -0.1739  0.7036 -1.4366
 4469SOL     OW13834   2.684   4.639   3.081 -0.2736 -0.1590 -0.3904
 4469SOL    HW113835   2.775   4.667   3.082 -0.4837  0.5741 -0.8054
 4469SOL    HW213836   2.677   4.583   3.004 -0.5579  1.1937 -1.3863
 4470SOL     OW13837   3.788   4.212   0.432  0.1080 -0.3900 -0.2417
 4470SOL    HW113838   3.857   4.210   0.366 -0.5435 -1.1070 -0.9224
 4470SOL    HW213839   3.763   4.304   0.438 -1.0865 -0.5198 -2.3619
 4471SOL     OW13840   5.631   2.641   1.661  0.0318 -0.7067 -0.3507
 4471SOL    HW113841   5.628   2.725   1.706 -0.5109 -1.6282  1.4609
 4471SOL    HW213842   5.620   2.662   1.568 -0.3755  1.1828  0.0955
 4472SOL     OW13843   4.839   0.623   1.625 -0.4022  0.0351 -0.0467
 4472SOL    HW113844   4.866   0.540   1.585  0.2834 -0.8322  2.1180
 4472SOL    HW213845   4.864   0.689   1.560 -0.7272 -1.3930 -1.7154
 4473SOL     OW13846   5.447   3.205   2.862 -0.3663  0.3246  0.3669
 4473SOL    HW113847   5.423   3.155   2.784 -1.1561  2.4035 -0.8116
 4473SOL    HW213848   5.542   3.213   2.858 -0.2820 -0.6302  0.3098
 4474SOL     OW13849   3.044   3.853   0.197  0.0322 -0.0179 -0.2387
 4474SOL    HW113850   3.002   3.853   0.283 -0.6301 -0.8430 -0.5471
 4474SOL    HW213851   3.132   3.817   0.214  0.1237  0.3982  0.1858
 4475SOL     OW13852   3.809   3.393   0.187  0.1246 -0.0947 -0.0746
 4475SOL    HW113853   3.740   3.384   0.253 -0.8580 -0.1435 -1.0845
 4475SOL    HW213854   3.826   3.487   0.183  2.5267 -0.2809  2.5353
 4476SOL     OW13855   3.038   5.394   2.136  0.2127  0.0658  0.0645
 4476SOL    HW113856   3.005   5.468   2.084  0.1075  1.3156  1.8208
 4476SOL    HW213857   3.133   5.401   2.130  0.2291 -0.9707 -1.4918
 4477SOL     OW13858   0.154   5.691   2.885 -0.1288  0.7842  0.0939
 4477SOL    HW113859   0.163   5.768   2.828  1.8562 -0.0748 -0.8349
 4477SOL    HW213860   0.234   5.689   2.936  0.4003 -1.2769 -0.7182
 4478SOL     OW13861   4.306   4.312   1.367 -0.2443 -0.4588 -0.6290
 4478SOL    HW113862   4.325   4.405   1.380 -0.9135 -0.2588 -1.0520
 4478SOL    HW213863   4.239   4.310   1.299  1.5779 -1.3882 -2.4853
 4479SOL     OW13864   6.020   5.528   5.428  0.1604  0.0443  0.4574
 4479SOL    HW113865   5.996   5.453   5.483  1.4241  0.2013  1.2579
 4479SOL    HW213866   5.950   5.591   5.442 -0.5472 -0.6963  0.3413
 4480SOL     OW13867   3.908   3.095   4.988 -0.1475 -0.4761  0.4250
 4480SOL    HW113868   3.852   3.172   4.980  0.8885  0.1735 -1.1801
 4480SOL    HW213869   3.892   3.045   4.908 -0.4386 -1.7100  1.2149
 4481SOL     OW13870   5.706   3.689   0.571  0.1924  0.4098  0.4955
 4481SOL    HW113871   5.641   3.739   0.522 -0.5607 -1.3587 -0.3781
 4481SOL    HW213872   5.739   3.751   0.636 -0.9842  1.9116 -0.2656
 4482SOL     OW13873   0.044   2.045   2.434  0.0884  0.3811  0.0745
 4482SOL    HW113874   0.130   2.040   2.393  0.3033  0.9805  0.4393
 4482SOL    HW213875   0.061   2.033   2.528  0.0789  2.7161  0.4304
 4483SOL     OW13876   5.145   3.952   2.229  0.7560 -0.0980 -0.2856
 4483SOL    HW113877   5.091   3.992   2.161  0.0237 -0.2517  0.1956
 4483SOL    HW213878   5.084   3.899   2.280  1.1654  0.4984  0.8698
 4484SOL     OW13879   5.416   2.075   1.946  0.1809 -0.1681 -0.4499
 4484SOL    HW113880   5.468   1.996   1.962 -0.0525 -0.1251  0.6440
 4484SOL    HW213881   5.326   2.043   1.940 -0.0799  0.1223  1.3394
 4485SOL     OW13882   0.260   4.264   2.388 -0.1099  0.1602 -0.0661
 4485SOL    HW113883   0.315   4.195   2.423  0.6574  0.8915  0.1993
 4485SOL    HW213884   0.320   4.336   2.370 -0.9519  0.9184  0.0803
 4486SOL     OW13885   6.211   4.156   2.246 -0.1087  0.1606  0.5429
 4486SOL    HW113886   6.224   4.168   2.152  0.3225  1.1041  0.7119
 4486SOL    HW213887   6.139   4.215   2.268  0.0432  0.2181  0.8808
 4487SOL     OW13888   0.538   1.499   1.250 -0.3955  0.1994 -0.6385
 4487SOL    HW113889   0.481   1.466   1.319 -0.3372 -0.8701 -1.0903
 4487SOL    HW213890   0.487   1.570   1.209 -0.4032  0.8810  0.5183
 4488SOL     OW13891   4.754   4.040   4.776  0.6364 -0.4786  0.1457
 4488SOL    HW113892   4.751   4.103   4.848 -2.3975  0.8842 -0.9806
 4488SOL    HW213893   4.725   3.957   4.816 -0.4419  0.1228  0.6716
 4489SOL     OW13894   2.765   5.122   6.089 -0.0372  0.6106  0.2968
 4489SOL    HW113895   2.723   5.207   6.083 -2.4869 -0.5221  0.1216
 4489SOL    HW213896   2.735   5.074   6.012  0.6018 -0.6965  0.8124
 4490SOL     OW13897   2.061   2.266   5.407  0.2225  0.0904  0.0244
 4490SOL    HW113898   2.075   2.187   5.355  1.4854 -0.1504  0.7243
 4490SOL    HW213899   2.018   2.327   5.345  0.0882 -0.7963 -0.7813
 4491SOL     OW13900   1.072   1.339   1.113  0.4997  0.0623  0.5913
 4491SOL    HW113901   1.121   1.260   1.136  0.1212  0.1532  1.7771
 4491SOL    HW213902   1.139   1.407   1.104  0.6958 -0.0497  1.1537
 4492SOL     OW13903   5.027   6.141   0.774  0.7346 -0.3804 -0.9883
 4492SOL    HW113904   5.011   6.144   0.680  2.4733 -1.6056 -1.3721
 4492SOL    HW213905   5.045   6.048   0.792  2.3475  0.1205  0.1833
 4493SOL     OW13906   6.082   4.499   3.201  0.7870 -0.4945  0.1190
 4493SOL    HW113907   6.080   4.412   3.240  0.1172 -0.0309  1.1420
 4493SOL    HW213908   5.991   4.518   3.181  1.1568 -1.0551 -2.5066
 4494SOL     OW13909   0.154   3.079   5.924  0.1423  0.5749  0.0299
 4494SOL    HW113910   0.059   3.075   5.935  0.4503 -1.1906  3.2465
 4494SOL    HW213911   0.189   3.069   6.013  3.3855 -3.3408 -1.3690
 4495SOL     OW13912   1.967   4.638   2.492 -0.0704  0.3305  0.6874
 4495SOL    HW113913   1.990   4.559   2.444  0.4212  0.3487  0.8867
 4495SOL    HW213914   1.942   4.701   2.425 -0.4922 -0.0041  0.5297
 4496SOL     OW13915   0.037   3.927   1.750  0.1890  0.4142  0.6137
 4496SOL    HW113916   0.020   3.955   1.660 -1.1150  1.5712  1.1763
 4496SOL    HW213917  -0.019   3.849   1.761  0.3587  0.2639  0.4217
 4497SOL     OW13918   4.288   0.253   5.734 -0.0952  0.4856  0.0969
 4497SOL    HW113919   4.306   0.199   5.656  1.7988  0.5286  0.4594
 4497SOL    HW213920   4.314   0.198   5.807 -0.6733  0.9175  0.6330
 4498SOL     OW13921   1.222   5.702   5.280  0.9454 -0.0453  0.4566
 4498SOL    HW113922   1.246   5.750   5.201  0.5198  0.9878  0.9335
 4498SOL    HW213923   1.143   5.746   5.312 -0.5060 -2.1315 -0.0093
 4499SOL     OW13924   1.956   0.832   0.759  0.2939 -0.0486 -0.2152
 4499SOL    HW113925   1.904   0.897   0.807 -0.9589 -0.9434 -0.3451
 4499SOL    HW213926   2.011   0.791   0.826 -0.1652 -0.0566  0.1581
 4500SOL     OW13927   4.256   1.436   0.344  0.8734 -0.3608 -0.5984
 4500SOL    HW113928   4.165   1.465   0.355  0.9670  0.0674 -0.9459
 4500SOL    HW213929   4.249   1.352   0.298  0.5283 -1.5685  1.4954
 4501SOL     OW13930   5.126   0.912   3.790 -0.1707 -0.1243 -0.1635
 4501SOL    HW113931   5.166   0.998   3.799 -0.4038 -0.0205 -0.0910
 4501SOL    HW213932   5.052   0.914   3.851  0.6781 -0.8910  0.9162
 4502SOL     OW13933   5.040   2.758   2.617 -0.2772 -0.0763  0.2021
 4502SOL    HW113934   5.093   2.836   2.606 -2.5897  1.9098  1.9586
 4502SOL    HW213935   4.980   2.758   2.543 -0.1519 -0.3043  0.0989
 4503SOL     OW13936   1.116   4.283   4.974 -0.1413  0.1198 -0.2082
 4503SOL    HW113937   1.062   4.319   4.904 -0.7685  2.1239  1.1931
 4503SOL    HW213938   1.059   4.220   5.019 -0.9314  1.2486  0.4486
 4504SOL     OW13939   4.452   1.440   2.579 -0.7935  0.4247  0.2011
 4504SOL    HW113940   4.377   1.385   2.556 -1.5339  0.2903  2.6081
 4504SOL    HW213941   4.494   1.393   2.651  0.9767  1.0516 -0.3728
 4505SOL     OW13942   4.599   0.227   2.942 -0.0239 -0.0719 -0.3718
 4505SOL    HW113943   4.541   0.249   3.014 -0.9654  0.1533 -1.1828
 4505SOL    HW213944   4.622   0.135   2.957 -0.7029 -0.2021 -0.1238
 4506SOL     OW13945   1.647   6.031   5.095  0.0107  0.1970 -0.4993
 4506SOL    HW113946   1.678   6.008   5.008  1.6148 -1.7169  0.4756
 4506SOL    HW213947   1.599   5.953   5.125 -0.9100  0.9883  0.1863
 4507SOL     OW13948   5.491   0.909   2.067  0.4405 -0.0350 -0.0806
 4507SOL    HW113949   5.535   0.862   2.138 -0.0794 -1.6077 -0.7469
 4507SOL    HW213950   5.419   0.955   2.111  0.1410 -0.9636  0.4456
 4508SOL     OW13951   3.569   3.195   5.823 -0.1944 -0.8066  0.2565
 4508SOL    HW113952   3.584   3.135   5.897  0.1789  0.2933  1.1099
 4508SOL    HW213953   3.477   3.220   5.832 -0.3335 -1.2076 -0.0629
 4509SOL     OW13954   0.836   5.560   2.985  0.0956  0.5544 -0.0072
 4509SOL    HW113955   0.842   5.476   2.941 -1.6643  0.8811 -0.9333
 4509SOL    HW213956   0.758   5.553   3.041 -1.1378  2.1128 -1.4315
 4510SOL     OW13957   1.403   5.655   0.778  0.4275 -0.2427  0.7537
 4510SOL    HW113958   1.371   5.597   0.709 -0.2384  1.1823 -0.1721
 4510SOL    HW213959   1.490   5.682   0.748  0.4158 -0.1572  0.7951
 4511SOL     OW13960   0.170   1.029   0.028 -0.3106 -0.4387 -0.2451
 4511SOL    HW113961   0.119   1.043   0.108 -0.7008 -0.7374 -0.4375
 4511SOL    HW213962   0.225   0.953   0.049 -0.9714 -1.0086 -0.5147
 4512SOL     OW13963   4.035   1.685   0.577  0.5867  0.2859 -0.0273
 4512SOL    HW113964   3.978   1.762   0.574  2.3183  1.6102 -0.6164
 4512SOL    HW213965   4.033   1.657   0.668 -2.8266 -1.2150 -0.4203
 4513SOL     OW13966   3.128   0.141   0.429 -0.4739 -0.4030 -0.4792
 4513SOL    HW113967   3.123   0.233   0.452  0.7913 -0.4975  0.2762
 4513SOL    HW213968   3.055   0.100   0.474 -1.4434  0.3137 -1.3564
 4514SOL     OW13969   5.634   0.311   0.904  0.0921  0.0543  0.1543
 4514SOL    HW113970   5.682   0.394   0.907  0.8522 -0.3243 -1.0587
 4514SOL    HW213971   5.577   0.318   0.828 -1.2685  0.2008  1.1553
 4515SOL     OW13972   4.394   1.237   1.059  1.0616 -0.0473 -0.5035
 4515SOL    HW113973   4.471   1.290   1.036  0.2879  0.4753 -2.0437
 4515SOL    HW213974   4.430   1.156   1.094  2.2924  0.5596 -0.2979
 4516SOL     OW13975   5.171   2.985   2.803 -0.1921  0.0224  0.3809
 4516SOL    HW113976   5.194   2.908   2.855 -0.3338 -1.7156 -1.9553
 4516SOL    HW213977   5.096   3.023   2.848 -0.5624 -1.6456  1.2290
 4517SOL     OW13978   2.094   4.650   0.379  0.3887 -0.3349  0.0741
 4517SOL    HW113979   2.125   4.630   0.467 -0.9725  0.4632  0.7614
 4517SOL    HW213980   2.173   4.671   0.330  1.1392 -0.4988  1.1822
 4518SOL     OW13981   0.299   4.710   6.006 -0.4100 -0.3810 -0.7901
 4518SOL    HW113982   0.376   4.708   5.949 -2.5951  1.0647 -4.0993
 4518SOL    HW213983   0.332   4.742   6.090  2.5310  0.4854 -2.1407
 4519SOL     OW13984   1.867   5.610   1.637 -0.6841 -0.2657 -0.0567
 4519SOL    HW113985   1.776   5.627   1.612 -0.6632 -1.0036 -0.6769
 4519SOL    HW213986   1.865   5.604   1.732 -1.4863 -1.3655 -0.1246
 4520SOL     OW13987   3.265   3.874   2.528  0.2126  0.1604 -0.4005
 4520SOL    HW113988   3.349   3.829   2.527  0.5485  0.7647 -0.0563
 4520SOL    HW213989   3.211   3.826   2.465  1.2959  0.6862 -1.7761
 4521SOL     OW13990   1.504   4.799   1.561 -0.4977  0.6412  0.4703
 4521SOL    HW113991   1.450   4.858   1.509 -1.7026  0.3624  1.3682
 4521SOL    HW213992   1.574   4.854   1.595  1.2591  0.5494 -2.6290
 4522SOL     OW13993   0.536   0.879   2.793 -0.1884 -0.1309 -0.6484
 4522SOL    HW113994   0.549   0.817   2.721 -0.4159 -1.9998  0.8266
 4522SOL    HW213995   0.516   0.824   2.869  2.5929  1.4984  1.4968
 4523SOL     OW13996   2.377   0.675   0.348 -0.6067 -0.0769  0.2875
 4523SOL    HW113997   2.394   0.585   0.319 -0.9609 -0.0235 -0.0850
 4523SOL    HW213998   2.386   0.728   0.269 -2.9671 -0.0949 -0.0827
 4524SOL     OW13999   4.999   0.203   2.122  0.2110 -0.3395 -0.0413
 4524SOL    HW114000   5.083   0.164   2.098 -0.9316 -1.7824 -2.1374
 4524SOL    HW214001   4.935   0.135   2.099 -1.6840  1.5819 -0.7509
 4525SOL     OW14002   4.340   5.425   4.485  0.3582 -1.0427 -0.0043
 4525SOL    HW114003   4.420   5.451   4.440  0.5148  1.2230  1.4578
 4525SOL    HW214004   4.370   5.392   4.570 -0.2253  0.1486  0.6961
 4526SOL     OW14005   0.236   0.081   5.445  0.0469  0.0179 -0.4569
 4526SOL    HW114006   0.233   0.130   5.527 -1.4223  0.0449 -0.5047
 4526SOL    HW214007   0.263  -0.007   5.471 -1.3292 -0.2282  0.1977
 4527SOL     OW14008   1.164   0.287   4.721 -0.0444  0.2497  0.1470
 4527SOL    HW114009   1.111   0.325   4.792  0.3581  2.2662 -0.5599
 4527SOL    HW214010   1.243   0.342   4.718  0.8825 -1.0676 -0.5515
 4528SOL     OW14011   0.871   0.940   5.780  0.1243  0.1404 -0.4322
 4528SOL    HW114012   0.896   0.927   5.871  1.2010  0.2364 -0.7086
 4528SOL    HW214013   0.854   1.033   5.772 -1.4833 -0.0803  0.0261
 4529SOL     OW14014   4.467   5.333   4.723  0.3219 -0.3210  0.0311
 4529SOL    HW114015   4.445   5.372   4.808  0.5722  0.1700 -0.1262
 4529SOL    HW214016   4.562   5.344   4.715  0.3605 -0.7503 -0.1245
 4530SOL     OW14017   0.185   0.060   5.716 -0.3537 -0.0957 -0.2533
 4530SOL    HW114018   0.158  -0.029   5.735  0.4685 -0.3176 -0.0925
 4530SOL    HW214019   0.232   0.089   5.794 -0.2189  0.3126 -0.4795
 4531SOL     OW14020   0.742   5.900   2.723 -0.4978 -0.9012  0.5819
 4531SOL    HW114021   0.703   5.916   2.637 -0.0684 -1.9245  0.1839
 4531SOL    HW214022   0.831   5.933   2.715 -0.5379 -0.7554  0.7263
 4532SOL     OW14023   3.491   5.566   0.930 -0.0230  0.1217 -0.0324
 4532SOL    HW114024   3.530   5.488   0.890  1.4942  0.1861  1.1819
 4532SOL    HW214025   3.439   5.533   1.002 -0.5177  0.1633 -0.3660
 4533SOL     OW14026   2.279   1.054   1.876  0.2470 -0.2884  0.5895
 4533SOL    HW114027   2.312   0.967   1.854 -0.7931 -0.2807 -1.2174
 4533SOL    HW214028   2.325   1.113   1.817  0.6690  0.3535  1.5423
 4534SOL     OW14029   6.090   4.007   5.763  0.0114  0.2012  0.1307
 4534SOL    HW114030   6.182   3.987   5.748 -0.0817 -0.4944  0.4332
 4534SOL    HW214031   6.061   3.942   5.827 -0.6486  0.5078  0.1579
 4535SOL     OW14032   2.081   4.649   3.314  0.2623  0.2075  0.4837
 4535SOL    HW114033   1.990   4.661   3.284  1.0195  0.3249 -2.0038
 4535SOL    HW214034   2.088   4.704   3.391 -2.1552 -0.8832  1.5865
 4536SOL     OW14035   4.168   3.153   0.566 -0.5619 -0.2632  0.5114
 4536SOL    HW114036   4.141   3.239   0.599 -0.1567 -0.3432  1.0639
 4536SOL    HW214037   4.089   3.118   0.525 -0.3333  1.0193 -1.1216
 4537SOL     OW14038   3.551   0.436   0.165 -0.7571  0.4511 -0.7875
 4537SOL    HW114039   3.516   0.394   0.244 -0.4077  1.6609  0.0465
 4537SOL    HW214040   3.555   0.366   0.100  0.6701 -1.0600  0.8193
 4538SOL     OW14041   2.352   0.820   4.649 -0.2686 -0.0980 -0.0336
 4538SOL    HW114042   2.325   0.802   4.739 -0.1589  0.3346  0.0923
 4538SOL    HW214043   2.280   0.871   4.612 -0.8724 -1.3336 -0.5917
 4539SOL     OW14044   0.293   1.227   1.193 -0.5683 -0.5055 -0.2808
 4539SOL    HW114045   0.387   1.221   1.175 -0.4814 -1.3869  0.3566
 4539SOL    HW214046   0.253   1.167   1.130 -0.5029 -1.6288  0.7145
 4540SOL     OW14047   2.510   1.602   5.453  0.2457  0.1479 -0.0639
 4540SOL    HW114048   2.605   1.611   5.449  0.1343  1.0286 -1.3895
 4540SOL    HW214049   2.477   1.692   5.451 -0.6264 -0.1688 -0.4314
 4541SOL     OW14050   4.593   4.243   3.985  0.1509 -0.1565 -0.3070
 4541SOL    HW114051   4.514   4.294   4.000  1.4952  2.1710 -0.5906
 4541SOL    HW214052   4.623   4.219   4.073 -0.0402  0.3206 -0.1059
 4542SOL     OW14053   5.669   2.694   5.604 -0.6968  0.2212  0.3992
 4542SOL    HW114054   5.669   2.733   5.516  4.0074 -1.2641 -0.5513
 4542SOL    HW214055   5.638   2.605   5.590 -0.3018  0.0974  0.3067
 4543SOL     OW14056   0.684   5.037   4.024 -0.0250 -0.0586 -0.4795
 4543SOL    HW114057   0.658   5.085   3.946  0.7727  0.5513 -0.3854
 4543SOL    HW214058   0.608   4.984   4.046 -1.5002  2.2397  0.2596
 4544SOL     OW14059   1.479   2.690   3.816 -0.0438 -0.2922 -0.0243
 4544SOL    HW114060   1.438   2.771   3.846 -0.9652 -0.8995  0.4128
 4544SOL    HW214061   1.479   2.698   3.720 -1.0893 -0.2143 -0.0325
 4545SOL     OW14062   2.317   5.195   3.597  0.5903 -0.7931  0.1085
 4545SOL    HW114063   2.232   5.170   3.559  0.0835  0.8976  0.0769
 4545SOL    HW214064   2.379   5.131   3.561 -0.3972 -1.0797 -1.1474
 4546SOL     OW14065   4.944   1.632   1.020  0.0001  0.3622 -0.2868
 4546SOL    HW114066   4.950   1.710   0.964 -2.7102 -0.1232 -1.4128
 4546SOL    HW214067   4.962   1.559   0.960  1.4432  0.0257  0.5200
 4547SOL     OW14068   1.423   6.207   5.718 -0.1315  0.2149  0.6558
 4547SOL    HW114069   1.427   6.160   5.801  0.5597  0.4464  0.7579
 4547SOL    HW214070   1.438   6.140   5.652  0.0281  0.1484  0.7575
 4548SOL     OW14071   2.939   3.970   1.388 -0.1535  0.6968 -0.0487
 4548SOL    HW114072   2.965   4.038   1.449  0.4183  0.2669  0.2022
 4548SOL    HW214073   2.906   3.899   1.444  1.3221 -0.1056 -0.1527
 4549SOL     OW14074   4.404   3.658   1.926  0.0872 -0.0517  0.0226
 4549SOL    HW114075   4.454   3.639   2.005  0.8351 -0.6827 -0.5848
 4549SOL    HW214076   4.433   3.593   1.862  0.5869  1.3458 -1.2400
 4550SOL     OW14077   3.219   6.033   2.526  0.3982 -0.4969  0.3363
 4550SOL    HW114078   3.185   6.065   2.609  0.2819  1.1048 -0.2924
 4550SOL    HW214079   3.313   6.023   2.541  0.3141 -0.6547  0.7820
 4551SOL     OW14080   1.226   4.143   4.104 -0.3123 -0.4681  0.2517
 4551SOL    HW114081   1.169   4.219   4.109 -0.5996 -0.6866  0.3390
 4551SOL    HW214082   1.314   4.179   4.090 -0.5728 -0.1633 -0.6581
 4552SOL     OW14083   0.800   2.901   6.026 -0.0087 -0.6763  0.0179
 4552SOL    HW114084   0.810   2.825   6.083  1.6000 -1.9942 -1.8905
 4552SOL    HW214085   0.875   2.957   6.047  0.0774 -0.7270 -0.1480
 4553SOL     OW14086   5.982   1.668   1.799  0.0921  0.5281  0.0811
 4553SOL    HW114087   5.957   1.587   1.843 -0.8322  0.3917 -0.6565
 4553SOL    HW214088   6.016   1.640   1.714  0.9623  0.8470  0.3157
 4554SOL     OW14089   6.097   1.274   0.091 -0.2495 -0.0734  0.6651
 4554SOL    HW114090   6.088   1.334   0.017 -0.8868 -0.3216  0.5379
 4554SOL    HW214091   6.177   1.302   0.135  0.9528 -0.8460 -0.9585
 4555SOL     OW14092   0.514   4.363   5.893 -0.6383 -0.2238  0.3629
 4555SOL    HW114093   0.486   4.275   5.865 -0.1527 -0.1926 -0.2572
 4555SOL    HW214094   0.541   4.406   5.812  0.5931 -0.0421  0.8431
 4556SOL     OW14095   2.408   1.871   5.418  0.1119 -0.3978 -0.0862
 4556SOL    HW114096   2.333   1.866   5.360 -1.2320 -1.1117  1.6354
 4556SOL    HW214097   2.426   1.965   5.426 -2.2715  0.0177  1.4304
 4557SOL     OW14098   3.507   5.299   3.968 -0.1167 -0.1203  0.2935
 4557SOL    HW114099   3.553   5.252   4.038  0.3567 -1.4550 -0.8764
 4557SOL    HW214100   3.441   5.237   3.938 -0.3702  0.4740 -0.3846
 4558SOL     OW14101   1.286   6.015   2.609 -0.1669  0.2081 -0.2289
 4558SOL    HW114102   1.337   6.089   2.576  0.8418 -1.0181 -1.5245
 4558SOL    HW214103   1.327   5.993   2.692 -0.1631  0.7834 -0.0756
 4559SOL     OW14104   4.894   1.156   5.112  0.6200  0.1420 -0.4347
 4559SOL    HW114105   4.836   1.225   5.080 -1.4679 -0.8074  0.9864
 4559SOL    HW214106   4.887   1.162   5.208  0.4427 -1.9174 -0.2629
 4560SOL     OW14107   2.556   5.204   0.097 -0.4282 -0.0635 -0.0012
 4560SOL    HW114108   2.618   5.190   0.168 -0.7054 -1.2394  0.0395
 4560SOL    HW214109   2.527   5.116   0.073 -0.0463  0.2802 -1.8505
 4561SOL     OW14110   2.443   0.125   4.059  0.0931 -0.0687  0.2977
 4561SOL    HW114111   2.511   0.080   4.109 -0.0050 -0.9843 -0.3715
 4561SOL    HW214112   2.395   0.055   4.014 -0.3874  0.6632 -0.3585
 4562SOL     OW14113   3.492   2.042   4.174 -0.5821  0.3708  0.4988
 4562SOL    HW114114   3.460   1.963   4.131 -0.5836  0.6402 -0.0028
 4562SOL    HW214115   3.572   2.065   4.126 -0.8319  0.9297  0.3362
 4563SOL     OW14116   3.512   2.143   1.814  0.3376 -0.5055  0.0030
 4563SOL    HW114117   3.564   2.073   1.854  1.2114  0.4219  0.5592
 4563SOL    HW214118   3.422   2.119   1.832  0.6729 -0.5751  1.8310
 4564SOL     OW14119   6.037   2.731   0.608  0.2465 -0.1428  0.6955
 4564SOL    HW114120   6.011   2.654   0.659 -1.2011 -1.7890 -2.2709
 4564SOL    HW214121   5.959   2.785   0.603 -0.5424 -1.3835 -1.9523
 4565SOL     OW14122   4.164   4.659   4.965 -0.6401 -0.6164 -0.4876
 4565SOL    HW114123   4.226   4.618   4.904 -1.9271 -3.0124 -0.3055
 4565SOL    HW214124   4.087   4.678   4.911 -0.9399 -0.6213 -0.0636
 4566SOL     OW14125   0.842   4.619   5.732  0.0444  0.3663  0.1172
 4566SOL    HW114126   0.932   4.649   5.717 -0.0888 -0.0841 -1.8959
 4566SOL    HW214127   0.843   4.527   5.705 -0.3149 -0.6215  3.1242
 4567SOL     OW14128   0.324   2.880   1.658 -0.4756  0.5351  0.0486
 4567SOL    HW114129   0.241   2.847   1.625 -0.2750 -1.9380  1.7413
 4567SOL    HW214130   0.375   2.899   1.579 -2.3387  1.4039 -1.0126
 4568SOL     OW14131   5.734   1.765   5.922  0.1829  0.1549 -0.6814
 4568SOL    HW114132   5.759   1.724   6.004 -0.2244  0.6716 -0.2894
 4568SOL    HW214133   5.665   1.827   5.946 -0.9664 -0.7097 -1.6247
 4569SOL     OW14134   6.166   2.235   5.518  0.2673  0.1200 -0.2886
 4569SOL    HW114135   6.251   2.271   5.541 -0.0852  0.2565  0.8467
 4569SOL    HW214136   6.139   2.184   5.595 -0.0109 -1.1722 -1.1924
 4570SOL     OW14137   0.045   4.247   2.771  0.5028 -0.4184  0.5804
 4570SOL    HW114138  -0.015   4.237   2.698 -0.5240  1.2399  1.1458
 4570SOL    HW214139   0.003   4.202   2.844  1.1320 -1.3616  0.3723
 4571SOL     OW14140   0.654   0.427   1.900 -0.0270 -0.1761  0.2441
 4571SOL    HW114141   0.646   0.368   1.824 -0.9395  0.0950  0.1133
 4571SOL    HW214142   0.685   0.509   1.862 -1.0300  0.1329  0.0647
 4572SOL     OW14143   4.249   2.131   6.136 -0.1952 -0.8643  0.0582
 4572SOL    HW114144   4.266   2.042   6.105 -1.1305 -1.9394  2.3707
 4572SOL    HW214145   4.271   2.129   6.229 -1.5146  0.9247  0.4770
 4573SOL     OW14146   0.503   5.326   2.759 -0.2033  0.0863 -0.0632
 4573SOL    HW114147   0.428   5.275   2.728 -0.3980 -0.1942  0.8401
 4573SOL    HW214148   0.529   5.379   2.683 -2.5931  1.7313  0.1450
 4574SOL     OW14149   5.840   2.528   4.600 -0.2846 -0.0470 -0.7275
 4574SOL    HW114150   5.918   2.482   4.570 -0.5193 -0.2896 -0.9680
 4574SOL    HW214151   5.770   2.495   4.545 -0.5547  0.1875 -0.5267
 4575SOL     OW14152   2.517   1.621   4.201  0.6188 -0.0558  0.4486
 4575SOL    HW114153   2.430   1.659   4.192  0.0845 -0.7041  2.3687
 4575SOL    HW214154   2.531   1.615   4.295  1.6017 -2.4632  0.2268
 4576SOL     OW14155   5.272   2.032   0.814 -0.1016  0.5961 -0.0945
 4576SOL    HW114156   5.240   1.964   0.874  1.2521  0.1345  0.1465
 4576SOL    HW214157   5.362   2.048   0.843  0.1121  1.3681 -1.1500
 4577SOL     OW14158   4.843   1.422   3.804  0.0495 -0.0068 -0.2547
 4577SOL    HW114159   4.809   1.505   3.770  0.7097  0.6020  0.5269
 4577SOL    HW214160   4.937   1.437   3.812  0.0485 -0.5091  0.7904
 4578SOL     OW14161   0.818   6.052   0.846 -0.0731 -0.2595 -0.2728
 4578SOL    HW114162   0.823   5.961   0.873  1.2531 -0.6074 -1.5505
 4578SOL    HW214163   0.725   6.068   0.830 -0.4427 -1.0452  1.0118
 4579SOL     OW14164   5.851   1.313   5.133 -0.3433  0.2131  0.4741
 4579SOL    HW114165   5.855   1.407   5.114  0.8522  0.3127  1.1746
 4579SOL    HW214166   5.878   1.305   5.224  0.3234 -0.8790  0.2022
 4580SOL     OW14167   0.690   0.876   4.104 -0.0322 -0.3490 -0.2890
 4580SOL    HW114168   0.737   0.792   4.108  0.8069  0.1414  0.3275
 4580SOL    HW214169   0.756   0.939   4.075 -0.1510  0.4579  1.1376
 4581SOL     OW14170   5.445   3.554   1.345 -0.4839  0.5158  0.1702
 4581SOL    HW114171   5.473   3.558   1.436 -1.0293  0.1968  0.3585
 4581SOL    HW214172   5.436   3.460   1.327  1.9770  0.3976 -0.9624
 4582SOL     OW14173   0.872   1.620   2.057 -0.0172  0.8717 -0.7416
 4582SOL    HW114174   0.920   1.551   2.102 -1.9974 -1.0307 -1.3279
 4582SOL    HW214175   0.908   1.621   1.968  0.0949  0.6240 -0.7004
 4583SOL     OW14176   3.429   3.180   6.209 -0.1625 -0.0421 -0.6729
 4583SOL    HW114177   3.417   3.266   6.248 -1.1768 -0.4423 -0.0587
 4583SOL    HW214178   3.342   3.156   6.176  0.0635 -0.9074 -0.6692
 4584SOL     OW14179   0.648   2.491   2.523  0.7319 -0.8436  0.2768
 4584SOL    HW114180   0.721   2.467   2.465  1.7239  0.6334  0.8605
 4584SOL    HW214181   0.682   2.564   2.575 -0.7205 -1.0131  1.5198
 4585SOL     OW14182   0.454   3.788   4.724 -0.1060  0.1968  0.4906
 4585SOL    HW114183   0.409   3.864   4.690  0.2866  0.3335  0.2693
 4585SOL    HW214184   0.414   3.773   4.810 -0.1572  0.6722  0.5530
 4586SOL     OW14185   1.991   2.784   1.285  0.1781  0.0749 -0.0676
 4586SOL    HW114186   2.045   2.762   1.209  1.3904 -0.1715  0.8274
 4586SOL    HW214187   1.902   2.790   1.251  0.7935  0.7478 -1.6413
 4587SOL     OW14188   1.704   4.166   2.565  0.6867 -0.4353  0.6120
 4587SOL    HW114189   1.710   4.259   2.545 -1.3002 -0.7360 -1.9400
 4587SOL    HW214190   1.714   4.161   2.660 -1.1663  2.6507  1.1123
 4588SOL     OW14191   1.701   0.979   3.085 -0.3277  0.6870  0.2386
 4588SOL    HW114192   1.617   0.987   3.132 -0.1579  1.6192  0.4094
 4588SOL    HW214193   1.767   0.980   3.154 -0.1893 -0.5547  0.1372
 4589SOL     OW14194   3.536   1.445   3.609  0.3815  0.1445  0.0982
 4589SOL    HW114195   3.559   1.451   3.517 -0.5620  0.5341 -0.1218
 4589SOL    HW214196   3.521   1.536   3.636 -3.0854 -0.1590 -0.3618
 4590SOL     OW14197   3.864   0.626   5.800 -0.4658 -0.0845 -0.2614
 4590SOL    HW114198   3.780   0.601   5.763 -0.8070 -1.1551  1.1387
 4590SOL    HW214199   3.910   0.543   5.814  0.5131  0.4360 -0.2892
 4591SOL     OW14200   5.419   1.131   2.334  0.0181 -0.2303 -0.3036
 4591SOL    HW114201   5.440   1.223   2.347  0.1001 -0.3612  0.5156
 4591SOL    HW214202   5.345   1.132   2.273  2.1813  0.2474 -3.1536
 4592SOL     OW14203   3.644   0.684   1.388 -0.5011  0.3525 -0.3898
 4592SOL    HW114204   3.550   0.698   1.399 -0.7998 -2.3057  1.3074
 4592SOL    HW214205   3.651   0.631   1.308 -0.4336  0.4806 -0.4702
 4593SOL     OW14206   4.131   1.566   3.648 -0.6877  0.0323 -0.0944
 4593SOL    HW114207   4.157   1.511   3.721 -0.3748 -0.7248 -0.7641
 4593SOL    HW214208   4.206   1.566   3.589 -1.4653 -0.5982 -1.1296
 4594SOL     OW14209   4.719   3.820   6.156 -0.1080 -0.5793  0.0989
 4594SOL    HW114210   4.737   3.843   6.065  0.5597  0.1161  0.3984
 4594SOL    HW214211   4.654   3.749   6.150 -0.7331  0.0487 -0.8929
 4595SOL     OW14212   1.416   2.818   0.005 -0.6303  0.2816 -0.0151
 4595SOL    HW114213   1.402   2.846  -0.086 -0.7658  0.0112 -0.0759
 4595SOL    HW214214   1.329   2.792   0.035 -0.2072 -1.9170 -0.5681
 4596SOL     OW14215   3.729   3.653   3.340  0.4419  0.4193  0.2596
 4596SOL    HW114216   3.803   3.593   3.345  0.5376  0.5967  1.1378
 4596SOL    HW214217   3.665   3.608   3.285  0.6926 -0.2875  0.5366
 4597SOL     OW14218   4.467   3.323   4.226  0.0347  0.0579 -0.7622
 4597SOL    HW114219   4.539   3.386   4.230  0.5361 -0.4864 -1.0850
 4597SOL    HW214220   4.423   3.341   4.143 -1.0282  1.2585  0.0148
 4598SOL     OW14221   4.805   3.598   3.650 -0.1277  0.3893 -0.5864
 4598SOL    HW114222   4.866   3.654   3.699 -0.5807 -0.2398  0.7366
 4598SOL    HW214223   4.719   3.638   3.665 -0.2215  0.4286 -1.2221
 4599SOL     OW14224   5.426   0.950   4.695  0.2400  0.2782  0.2510
 4599SOL    HW114225   5.472   0.915   4.771  0.1697 -0.2284  0.0620
 4599SOL    HW214226   5.335   0.921   4.707  0.2142  0.2578  0.0119
 4600SOL     OW14227   1.303   0.986   4.658 -0.3219 -0.1933 -0.0348
 4600SOL    HW114228   1.257   1.067   4.636  0.0773 -0.0054 -0.1749
 4600SOL    HW214229   1.272   0.923   4.593  1.1308  0.4526 -1.3907
 4601SOL     OW14230   2.243   4.256   5.924  0.1520  0.3635 -0.6930
 4601SOL    HW114231   2.234   4.242   6.018  1.3616  0.4158 -0.5483
 4601SOL    HW214232   2.264   4.170   5.889  0.7155  0.5195 -0.7586
 4602SOL     OW14233   3.947   5.649   1.489  0.3613  0.2822  0.0314
 4602SOL    HW114234   3.929   5.640   1.395 -0.3440  1.4420  0.0429
 4602SOL    HW214235   3.873   5.699   1.523  0.6728 -0.0223  1.1934
 4603SOL     OW14236   2.563   4.846   5.181  0.1678  0.2435 -0.5607
 4603SOL    HW114237   2.495   4.841   5.113 -0.1441 -0.1902 -0.2195
 4603SOL    HW214238   2.550   4.767   5.233 -1.0456  1.6490  1.3848
 4604SOL     OW14239   5.435   3.317   1.756  0.5545  0.3159  0.2307
 4604SOL    HW114240   5.427   3.356   1.669 -0.2283  1.3933  0.7707
 4604SOL    HW214241   5.389   3.377   1.814  0.9001 -0.4878  1.3718
 4605SOL     OW14242   3.637   4.225   2.267 -0.0497  0.2124 -0.3580
 4605SOL    HW114243   3.691   4.290   2.222 -2.4024  2.6369  0.0493
 4605SOL    HW214244   3.677   4.217   2.354  0.4953  0.8794 -0.5391
 4606SOL     OW14245   2.038   5.064   2.017  0.1079  0.4410  0.0588
 4606SOL    HW114246   2.077   4.978   2.030  0.6939  0.5104 -1.1471
 4606SOL    HW214247   1.953   5.058   2.063 -0.8371 -1.5109 -1.7511
 4607SOL     OW14248   6.182   2.495   1.857 -0.2846  0.0316 -0.0780
 4607SOL    HW114249   6.252   2.489   1.792 -1.3540  0.0895 -1.2624
 4607SOL    HW214250   6.116   2.551   1.816 -2.2432 -2.1663 -0.1505
 4608SOL     OW14251   2.966   2.791   0.991 -0.0888 -0.8683  0.0867
 4608SOL    HW114252   3.011   2.765   1.071 -0.2736  0.1676  0.5541
 4608SOL    HW214253   2.874   2.769   1.007 -0.1297 -0.6378  0.1800
 4609SOL     OW14254   3.719   0.618   4.638  0.5849  0.3654 -0.0266
 4609SOL    HW114255   3.790   0.667   4.679  0.3846  0.2914  0.4085
 4609SOL    HW214256   3.732   0.528   4.667  0.4097  0.3229 -0.0782
 4610SOL     OW14257   3.555   0.943   4.614 -0.5095  0.1530  0.0118
 4610SOL    HW114258   3.561   1.027   4.660 -2.2885  0.8163 -0.8652
 4610SOL    HW214259   3.646   0.915   4.603  0.1809  2.2787 -0.2253
 4611SOL     OW14260   1.566   2.252   0.691 -0.6522 -0.0955  0.0571
 4611SOL    HW114261   1.476   2.228   0.715 -0.7676  1.3486  1.2646
 4611SOL    HW214262   1.563   2.347   0.680  0.5358 -0.1391 -0.8825
 4612SOL     OW14263   1.831   0.541   2.489  0.2008  0.4702 -0.6236
 4612SOL    HW114264   1.738   0.536   2.509 -0.0614  2.1954 -1.2282
 4612SOL    HW214265   1.860   0.450   2.483 -1.0113 -0.1035  1.4070
 4613SOL     OW14266   0.954   4.033   0.606  0.6870  0.0425  0.3712
 4613SOL    HW114267   0.879   4.009   0.550  1.2744 -1.9065  0.3543
 4613SOL    HW214268   0.924   4.112   0.652 -1.7836 -1.1989  1.0990
 4614SOL     OW14269   3.145   2.909   5.823  0.6092 -0.7361 -0.0833
 4614SOL    HW114270   3.200   2.838   5.855 -0.6510 -0.9776  1.7050
 4614SOL    HW214271   3.099   2.872   5.748  1.3536 -1.1831 -0.3285
 4615SOL     OW14272   0.987   2.083   3.526  0.0822 -0.1721  0.0976
 4615SOL    HW114273   1.045   2.151   3.560 -0.3500  0.5168 -0.5277
 4615SOL    HW214274   1.023   2.001   3.561  0.9780  0.3134  0.3330
 4616SOL     OW14275   1.509   3.750   2.246 -0.3268  0.6276  0.2346
 4616SOL    HW114276   1.477   3.709   2.326 -0.9001 -0.6834 -0.6365
 4616SOL    HW214277   1.528   3.677   2.187 -1.2033  1.5700 -1.2960
 4617SOL     OW14278   0.296   4.932   4.527  0.2677  0.0992 -0.7133
 4617SOL    HW114279   0.372   4.896   4.480  0.5428 -0.2203 -0.0378
 4617SOL    HW214280   0.335   4.982   4.599 -0.1517  0.3640 -0.6715
 4618SOL     OW14281   1.331   1.967   1.490 -0.1715  0.1934  0.0306
 4618SOL    HW114282   1.296   2.003   1.409 -0.3096  0.6762  0.3052
 4618SOL    HW214283   1.304   1.875   1.488 -1.0628  0.4430  0.0175
 4619SOL     OW14284   5.882   5.326   4.579  0.3319 -0.1114  0.2829
 4619SOL    HW114285   5.906   5.234   4.592  0.3209  0.0254  1.3373
 4619SOL    HW214286   5.809   5.341   4.640 -0.1282  0.4149 -0.3781
 4620SOL     OW14287   4.450   5.908   3.659  0.1063 -0.1676  0.6491
 4620SOL    HW114288   4.383   5.849   3.691 -0.6952  0.2421 -0.2225
 4620SOL    HW214289   4.515   5.851   3.618 -1.2234 -0.4250 -1.2260
 4621SOL     OW14290   0.016   3.600   3.373 -0.0607 -0.5457 -0.1732
 4621SOL    HW114291   0.067   3.522   3.349  1.1257  0.3951 -0.7868
 4621SOL    HW214292   0.071   3.674   3.348 -0.3518  0.5203  2.0279
 4622SOL     OW14293   3.571   4.417   0.171 -0.3452  0.1004 -0.3329
 4622SOL    HW114294   3.659   4.417   0.132  0.2194  0.7051  0.8695
 4622SOL    HW214295   3.532   4.500   0.141  0.3122  0.8547  0.8101
 4623SOL     OW14296   3.319   1.272   5.133 -0.4799 -0.3537  0.5043
 4623SOL    HW114297   3.314   1.347   5.193 -0.5872  0.4751 -0.5151
 4623SOL    HW214298   3.239   1.277   5.081  0.0390 -0.5050 -0.3354
 4624SOL     OW14299   3.962   1.844   3.009 -0.2340  0.3934 -0.0297
 4624SOL    HW114300   3.985   1.753   3.026 -2.8733 -0.4125 -0.3630
 4624SOL    HW214301   3.932   1.846   2.919 -0.3827  1.5725  0.0212
 4625SOL     OW14302   2.360   1.022   1.339 -0.1584 -0.5369  0.2022
 4625SOL    HW114303   2.282   1.013   1.394  0.2488 -2.5129  0.5303
 4625SOL    HW214304   2.339   0.972   1.260 -0.1608  1.0302 -0.8100
 4626SOL     OW14305   5.967   1.597   2.167 -0.4192  0.3578  0.0067
 4626SOL    HW114306   6.031   1.557   2.108  0.9539  1.1540  0.9171
 4626SOL    HW214307   5.988   1.691   2.165 -1.7727  0.6815  0.0724
 4627SOL     OW14308   0.439   1.395   3.099 -0.1235 -0.3207  0.4522
 4627SOL    HW114309   0.486   1.465   3.052 -0.3653  0.1346  0.8703
 4627SOL    HW214310   0.443   1.422   3.191 -0.8520 -0.4807  0.5383
 4628SOL     OW14311   4.558   0.582   2.010 -0.2235  0.2100  0.0156
 4628SOL    HW114312   4.582   0.517   2.075  0.4888  0.0971 -0.3515
 4628SOL    HW214313   4.562   0.535   1.926 -1.1230  0.3500 -0.1238
 4629SOL     OW14314   3.258   0.792   4.420  0.0721  0.8132 -0.0971
 4629SOL    HW114315   3.278   0.815   4.511 -0.4584  1.0800 -0.0422
 4629SOL    HW214316   3.219   0.871   4.384  1.1838  1.0340 -0.8511
 4630SOL     OW14317   5.941   4.214   1.513 -0.3333  0.0722 -0.0424
 4630SOL    HW114318   5.891   4.272   1.455 -0.0724  0.7223  0.3715
 4630SOL    HW214319   6.031   4.247   1.508 -0.3108  0.1573  0.7563
 4631SOL     OW14320   1.510   3.865   2.634  0.1643 -0.3676  0.0890
 4631SOL    HW114321   1.562   3.828   2.706  0.3362 -1.2012 -0.4513
 4631SOL    HW214322   1.432   3.811   2.630 -1.2687  1.4662  1.5204
 4632SOL     OW14323   1.670   2.692   2.502 -0.3549 -0.2880  0.3830
 4632SOL    HW114324   1.745   2.724   2.452 -1.0463 -1.2552 -1.3680
 4632SOL    HW214325   1.702   2.685   2.592  1.1062  0.9884 -0.0021
 4633SOL     OW14326   1.121   0.390   1.297 -0.0279 -0.1857 -0.1308
 4633SOL    HW114327   1.042   0.441   1.313  0.3247  0.1175  0.7174
 4633SOL    HW214328   1.156   0.372   1.384  0.0597 -1.5624 -0.4319
 4634SOL     OW14329   4.222   3.411   1.791 -0.4794  0.5040  0.4170
 4634SOL    HW114330   4.315   3.399   1.809 -0.3678 -0.8424 -0.9454
 4634SOL    HW214331   4.183   3.325   1.804 -1.1575  0.5452 -1.1231
 4635SOL     OW14332   1.760   4.254   0.762  0.1282  0.1867  0.0440
 4635SOL    HW114333   1.750   4.185   0.827  1.3563  0.2008  0.2725
 4635SOL    HW214334   1.839   4.230   0.713  0.4651  1.3100  0.0053
 4636SOL     OW14335   1.339   5.312   2.226  0.2208  0.0576 -0.3480
 4636SOL    HW114336   1.409   5.332   2.164 -0.2287  2.3460 -0.2042
 4636SOL    HW214337   1.383   5.299   2.310  0.6203 -0.6631 -0.6560
 4637SOL     OW14338   1.781   1.320   1.195  0.5508  0.2207 -0.3095
 4637SOL    HW114339   1.689   1.336   1.173  0.2307  0.7974  1.2893
 4637SOL    HW214340   1.820   1.407   1.201  0.8971  0.0349  0.2059
 4638SOL     OW14341   5.951   0.754   0.608  0.8264  0.3753 -0.0432
 4638SOL    HW114342   5.932   0.750   0.514 -2.0048  1.2684  0.3823
 4638SOL    HW214343   5.992   0.670   0.628  0.9992 -0.0577 -1.9878
 4639SOL     OW14344   0.879   4.972   5.380  0.6815 -0.2378  0.1816
 4639SOL    HW114345   0.831   5.054   5.384 -0.2406 -0.8018  1.4046
 4639SOL    HW214346   0.968   4.996   5.353  1.0552  1.4532  2.6147
 4640SOL     OW14347   1.409   0.363   3.838  0.0108 -0.1307 -0.2662
 4640SOL    HW114348   1.473   0.292   3.832  0.6825  0.4229  0.1657
 4640SOL    HW214349   1.426   0.403   3.924 -0.0441  0.8422 -0.6995
 4641SOL     OW14350   0.473   4.890   2.748 -0.2012 -0.6016  0.0235
 4641SOL    HW114351   0.432   4.809   2.780 -0.6519  0.5092  2.5123
 4641SOL    HW214352   0.459   4.888   2.654 -1.8491 -2.5274  0.2343
 4642SOL     OW14353   3.300   1.467   5.351 -0.6416  0.2227  0.4599
 4642SOL    HW114354   3.391   1.486   5.374 -0.8154 -0.8169  2.1420
 4642SOL    HW214355   3.252   1.545   5.380 -0.0976  1.8654 -2.5884
 4643SOL     OW14356   4.707   0.246   6.067 -0.1680 -0.8789  0.0183
 4643SOL    HW114357   4.682   0.158   6.093  0.4542 -0.8952  0.5851
 4643SOL    HW214358   4.791   0.235   6.022  0.3676 -0.4791  0.9002
 4644SOL     OW14359   5.673   2.324   4.262  0.4894  0.2947 -0.0520
 4644SOL    HW114360   5.764   2.299   4.274  0.0703 -1.0056  0.5788
 4644SOL    HW214361   5.661   2.398   4.322  0.8139 -0.3345  0.8142
 4645SOL     OW14362   0.798   2.447   4.303 -0.0316  0.0034 -0.5309
 4645SOL    HW114363   0.833   2.392   4.233  0.9307  0.1442 -0.1737
 4645SOL    HW214364   0.840   2.532   4.290  0.5456 -0.1029  0.4918
 4646SOL     OW14365   1.029   2.904   1.657  0.3180 -0.3240  0.4913
 4646SOL    HW114366   0.968   2.894   1.584  0.5001  1.4128  0.0476
 4646SOL    HW214367   1.096   2.838   1.643  1.4016  1.1537 -2.0342
 4647SOL     OW14368   1.962   2.983   4.977  0.3587 -0.0780 -0.1487
 4647SOL    HW114369   1.905   3.060   4.982 -0.1478 -0.4982  0.7494
 4647SOL    HW214370   2.019   2.989   5.054  0.9929 -0.0817 -0.6109
 4648SOL     OW14371   4.184   0.246   4.963 -0.4111  0.3244  0.5875
 4648SOL    HW114372   4.142   0.301   4.897 -0.9549  1.8521  2.1352
 4648SOL    HW214373   4.116   0.183   4.987 -0.8508  0.9423  0.9950
 4649SOL     OW14374   3.989   4.032   4.217  0.0265  0.5623  0.1050
 4649SOL    HW114375   3.913   3.996   4.263  0.8415 -0.5480  0.6571
 4649SOL    HW214376   4.006   4.116   4.259 -0.1269  0.2255  0.8569
 4650SOL     OW14377   3.107   4.894   4.644 -0.0467 -0.1859  0.7327
 4650SOL    HW114378   3.035   4.942   4.687 -0.2736  1.0327 -0.8924
 4650SOL    HW214379   3.179   4.897   4.707 -0.9741 -0.1853  1.8221
 4651SOL     OW14380   3.951   3.855   0.316 -0.6687 -0.0359 -0.6748
 4651SOL    HW114381   3.981   3.945   0.309 -1.8754  0.2878 -2.2901
 4651SOL    HW214382   3.862   3.862   0.350 -1.3671 -0.4600 -2.2988
 4652SOL     OW14383   1.547   5.600   3.286  0.3313 -0.4814  0.1465
 4652SOL    HW114384   1.567   5.513   3.318  1.6167 -0.2613 -0.0066
 4652SOL    HW214385   1.632   5.642   3.275 -0.1533  0.1147 -1.6832
 4653SOL     OW14386   5.641   2.777   4.286  0.2175 -0.0453  0.0180
 4653SOL    HW114387   5.629   2.868   4.312  0.6854 -0.0913  0.4031
 4653SOL    HW214388   5.642   2.780   4.190 -0.0143  0.3206  0.0238
 4654SOL     OW14389   1.677   0.551   4.068 -0.1857 -0.3810 -0.0123
 4654SOL    HW114390   1.684   0.593   4.153  0.4719  1.4002 -0.9130
 4654SOL    HW214391   1.767   0.535   4.041 -0.2747  0.9656 -1.2460
 4655SOL     OW14392   3.908   4.435   4.675 -0.3364 -0.4384  0.0901
 4655SOL    HW114393   3.836   4.475   4.725 -0.2765 -1.7029  1.2340
 4655SOL    HW214394   3.943   4.507   4.623 -1.7353  0.4525  0.3288
 4656SOL     OW14395   3.625   1.486   1.023  0.2581  0.4933  0.0298
 4656SOL    HW114396   3.703   1.541   1.019  0.0904  1.0040  2.2799
 4656SOL    HW214397   3.557   1.543   1.058 -1.2731  0.1515 -2.2127
 4657SOL     OW14398   2.491   0.222   4.374 -0.6619  0.1267  0.2798
 4657SOL    HW114399   2.469   0.302   4.326  0.0472  1.0483  1.4293
 4657SOL    HW214400   2.587   0.218   4.371 -0.6714 -0.4509  0.5929
 4658SOL     OW14401   5.004   3.034   1.524  0.4706 -0.3060 -0.3815
 4658SOL    HW114402   5.040   3.098   1.585  2.4770 -0.3961 -1.3841
 4658SOL    HW214403   4.920   3.008   1.563  0.0810  2.1103  0.5951
 4659SOL     OW14404   0.168   2.206   1.248  0.7899  0.4031  0.0474
 4659SOL    HW114405   0.116   2.206   1.328  0.1108  0.7422 -0.3906
 4659SOL    HW214406   0.104   2.214   1.177  1.4280  0.7211 -0.5048
 4660SOL     OW14407   0.564   2.930   2.350 -0.1998 -0.7226 -0.8652
 4660SOL    HW114408   0.628   2.936   2.421  1.3512  0.3880 -2.2783
 4660SOL    HW214409   0.591   2.853   2.300 -0.8274 -1.0569 -0.7020
 4661SOL     OW14410   3.442   2.907   5.697  0.0473 -0.0843  0.6380
 4661SOL    HW114411   3.447   2.878   5.788  0.7667  2.4322  1.4710
 4661SOL    HW214412   3.533   2.921   5.671 -0.1632 -0.5559 -0.4122
 4662SOL     OW14413   1.118   1.597   1.638  0.2529  0.2952  0.0283
 4662SOL    HW114414   1.099   1.581   1.545  0.0206  0.9748 -0.0497
 4662SOL    HW214415   1.107   1.511   1.680 -1.0612  0.2551 -0.3438
 4663SOL     OW14416   2.622   0.921   1.791 -0.1626  0.3952  0.1396
 4663SOL    HW114417   2.652   0.848   1.845  0.6944  2.2418  2.2917
 4663SOL    HW214418   2.535   0.894   1.760 -0.2905 -1.1318  1.6840
 4664SOL     OW14419   4.601   2.548   3.630 -0.4003 -0.5062 -0.7063
 4664SOL    HW114420   4.526   2.607   3.618  0.2809  0.3017 -1.0822
 4664SOL    HW214421   4.607   2.535   3.724 -0.5194  0.0831 -0.6140
 4665SOL     OW14422   6.099   2.987   0.036 -0.5716 -0.2796  0.3052
 4665SOL    HW114423   6.064   2.995  -0.053 -1.9410 -0.2676  0.8138
 4665SOL    HW214424   6.063   2.903   0.067 -0.6537  0.0338  1.0656
 4666SOL     OW14425   1.448   3.024   1.714  0.2580 -0.3022  0.0417
 4666SOL    HW114426   1.491   3.097   1.760 -0.3724  0.5035 -0.6116
 4666SOL    HW214427   1.490   3.022   1.628 -0.2230 -0.2408 -0.1990
 4667SOL     OW14428   0.722   4.935   3.142  0.1943  0.0085 -0.3529
 4667SOL    HW114429   0.654   4.905   3.081  1.4069  0.9793 -2.3184
 4667SOL    HW214430   0.694   5.022   3.169 -0.4966 -0.5473  0.7384
 4668SOL     OW14431   1.074   2.626   1.553  0.1382 -0.1478  1.1456
 4668SOL    HW114432   1.011   2.571   1.600  0.5675  0.4369  2.4761
 4668SOL    HW214433   1.141   2.564   1.522 -0.5383 -0.6371  0.6488
 4669SOL     OW14434   2.387   5.705   0.656  0.4284 -0.5136  0.0052
 4669SOL    HW114435   2.464   5.664   0.617  0.9259  1.6877 -1.4892
 4669SOL    HW214436   2.357   5.768   0.590 -0.3647  1.4140  2.0700
 4670SOL     OW14437   2.856   4.772   1.444  0.1610  0.4455  0.4598
 4670SOL    HW114438   2.852   4.677   1.451  1.5054  0.3419  0.0560
 4670SOL    HW214439   2.783   4.803   1.498  0.5323 -0.7798  1.7200
 4671SOL     OW14440   2.580   0.642   3.685  0.8875  0.3142  0.8668
 4671SOL    HW114441   2.569   0.689   3.603 -0.8694 -1.7174 -0.1691
 4671SOL    HW214442   2.521   0.685   3.746  1.7254  1.4331  0.9108
 4672SOL     OW14443   3.333   2.931   2.351  0.3226 -0.1438  0.1759
 4672SOL    HW114444   3.374   2.858   2.304 -2.0368 -0.8235 -0.9541
 4672SOL    HW214445   3.317   2.897   2.439  1.5045 -0.0841  0.4369
 4673SOL     OW14446   3.658   6.163   4.462  0.3199 -0.4253  0.4171
 4673SOL    HW114447   3.719   6.187   4.392 -1.3144 -0.3419 -1.0382
 4673SOL    HW214448   3.676   6.225   4.532  1.3122  0.1385 -0.3085
 4674SOL     OW14449   4.646   5.281   3.884  0.7443 -0.0994 -0.2516
 4674SOL    HW114450   4.694   5.347   3.833 -0.3212 -0.3516 -1.6393
 4674SOL    HW214451   4.627   5.325   3.967  2.7888  0.2202  0.1075
 4675SOL     OW14452   2.579   3.703   3.858  0.4156  0.0541  0.5005
 4675SOL    HW114453   2.493   3.691   3.818 -0.6320  1.0088  2.3417
 4675SOL    HW214454   2.589   3.629   3.917 -0.3105  1.2020  2.1498
 4676SOL     OW14455   2.730   5.300   5.430 -0.1041  0.2190 -0.1262
 4676SOL    HW114456   2.674   5.233   5.391 -1.9039  0.0241  2.5352
 4676SOL    HW214457   2.762   5.261   5.511 -0.7105  2.3321  1.2132
 4677SOL     OW14458   1.697   2.980   2.650  0.6360 -0.3936  0.1419
 4677SOL    HW114459   1.712   3.033   2.571 -0.4277 -0.5574 -0.1852
 4677SOL    HW214460   1.684   2.892   2.616  1.6851 -0.7454  0.6316
 4678SOL     OW14461   3.875   4.486   0.425 -0.6927  0.2398  0.1328
 4678SOL    HW114462   3.928   4.466   0.502 -1.7041 -1.8332  0.3692
 4678SOL    HW214463   3.809   4.548   0.456  0.1541  1.0400  0.3922
 4679SOL     OW14464   0.155   5.655   6.161  0.2674  0.0998  0.3212
 4679SOL    HW114465   0.068   5.694   6.168  0.1406 -0.4083  1.8382
 4679SOL    HW214466   0.149   5.574   6.212  1.1721 -0.7743 -0.8969
 4680SOL     OW14467   3.080   3.857   5.847 -0.0386 -0.0205 -0.6609
 4680SOL    HW114468   3.147   3.874   5.781 -1.3370  0.2735 -1.9525
 4680SOL    HW214469   3.082   3.762   5.859  0.8920  0.0287 -0.3507
 4681SOL     OW14470   2.345   5.631   1.628  0.8450 -0.0835 -0.6665
 4681SOL    HW114471   2.385   5.562   1.575 -0.2140  0.1758 -1.8502
 4681SOL    HW214472   2.294   5.585   1.695 -0.1164 -0.4781 -1.6468
 4682SOL     OW14473   1.264   4.169   0.296  0.3556  0.8156 -0.0334
 4682SOL    HW114474   1.266   4.110   0.220  1.2133  3.9813 -2.7024
 4682SOL    HW214475   1.176   4.205   0.296  0.8588  2.1408 -0.7444
 4683SOL     OW14476   1.592   2.997   1.148  0.2136 -0.0960 -0.6476
 4683SOL    HW114477   1.623   3.085   1.168  0.4842  0.0147 -1.5086
 4683SOL    HW214478   1.538   3.007   1.070  0.1062 -0.6645 -0.6539
 4684SOL     OW14479   4.223   5.461   3.454 -0.3823 -0.0071 -0.1306
 4684SOL    HW114480   4.175   5.533   3.494  2.9742  2.2017  0.2850
 4684SOL    HW214481   4.201   5.385   3.507 -3.0824  0.8867  0.1676
 4685SOL     OW14482   1.038   5.928   0.264 -0.0686  0.3457  0.0063
 4685SOL    HW114483   0.966   5.907   0.204  0.5158 -0.7020 -0.3622
 4685SOL    HW214484   1.047   5.851   0.319  0.2696  0.7773  0.5661
 4686SOL     OW14485   1.066   0.334   0.072  0.1176  0.5985  0.1913
 4686SOL    HW114486   1.056   0.271   0.143  0.4717  1.5710  1.1301
 4686SOL    HW214487   1.007   0.303   0.004  1.0346 -1.3045  0.2125
 4687SOL     OW14488   2.964   3.393   4.749  0.9222  0.2146  0.6748
 4687SOL    HW114489   2.900   3.368   4.682 -0.4792 -1.7873  2.6428
 4687SOL    HW214490   3.045   3.351   4.721  0.6371  0.2633 -0.2744
 4688SOL     OW14491   3.476   5.278   2.609  0.5011 -0.0126 -0.0184
 4688SOL    HW114492   3.402   5.329   2.641 -0.0383 -0.2348 -0.8716
 4688SOL    HW214493   3.539   5.278   2.681 -0.8411 -0.8408  1.1983
 4689SOL     OW14494   0.954   4.300   0.690 -0.4508 -0.3688  0.2932
 4689SOL    HW114495   0.914   4.329   0.772  0.9213 -1.4891  1.4227
 4689SOL    HW214496   0.910   4.352   0.622 -1.2644  0.9755  1.7665
 4690SOL     OW14497   4.240   1.665   4.913  0.4771 -0.2087 -0.1493
 4690SOL    HW114498   4.197   1.687   4.996 -0.4393 -1.5295 -0.2519
 4690SOL    HW214499   4.332   1.653   4.936  0.0296 -1.8236  0.9437
 4691SOL     OW14500   2.042   3.942   2.334  0.1161 -0.2225 -0.2599
 4691SOL    HW114501   2.028   3.848   2.327 -0.8154 -0.1108  0.0025
 4691SOL    HW214502   1.958   3.981   2.311  0.6509  0.5683 -0.9095
 4692SOL     OW14503   4.585   4.467   1.889  0.5425 -0.0080  0.0557
 4692SOL    HW114504   4.607   4.545   1.938 -0.4798  0.0257  0.4895
 4692SOL    HW214505   4.600   4.395   1.950 -1.7148  0.1010  0.8331
 4693SOL     OW14506   0.131   3.188   1.378  0.2818  0.0083  0.1161
 4693SOL    HW114507   0.206   3.216   1.431  0.6917 -0.2160 -0.3331
 4693SOL    HW214508   0.087   3.269   1.353  0.5551  0.1608  0.1259
 4694SOL     OW14509   2.206   0.897   2.444 -0.0047  0.4250  0.2560
 4694SOL    HW114510   2.163   0.839   2.381  0.6454 -0.1262  0.3115
 4694SOL    HW214511   2.205   0.848   2.526  1.2434  0.1613  0.1232
 4695SOL     OW14512   4.907   4.593   5.584  0.3422 -0.2912  0.4147
 4695SOL    HW114513   4.999   4.615   5.600  0.3434  0.7806 -0.8892
 4695SOL    HW214514   4.868   4.588   5.671  1.5235 -0.3113  0.9662
 4696SOL     OW14515   1.675   3.407   3.914 -0.0814 -0.1998 -0.5375
 4696SOL    HW114516   1.634   3.465   3.851 -0.5570 -0.4885 -0.4968
 4696SOL    HW214517   1.690   3.461   3.992  0.7931  0.2387 -1.0009
 4697SOL     OW14518   5.744   4.000   4.028  0.2414 -0.4924  0.0417
 4697SOL    HW114519   5.751   4.092   4.056  0.9635 -0.6491  0.3961
 4697SOL    HW214520   5.723   3.952   4.108 -1.7112 -0.4778 -0.3961
 4698SOL     OW14521   1.894   4.358   5.876  0.5475 -0.2100 -0.2160
 4698SOL    HW114522   1.971   4.411   5.898 -0.2970  1.7006 -1.5429
 4698SOL    HW214523   1.926   4.297   5.810  0.9761  0.5233 -0.7147
 4699SOL     OW14524   3.415   2.832   2.928 -0.2809 -0.1115  1.1329
 4699SOL    HW114525   3.353   2.777   2.880 -0.0010  1.7213 -1.5798
 4699SOL    HW214526   3.366   2.863   3.004 -2.6161  0.8274 -0.6247
 4700SOL     OW14527   2.023   0.681   3.209  0.3141 -0.4119 -0.2957
 4700SOL    HW114528   2.005   0.588   3.192  0.2151 -0.3378 -0.5881
 4700SOL    HW214529   2.117   0.684   3.226  0.6700 -0.2899 -2.1329
 4701SOL     OW14530   0.826   2.993   2.825  0.2314 -0.4165  0.2200
 4701SOL    HW114531   0.884   3.068   2.813  0.2490 -0.3453  0.7387
 4701SOL    HW214532   0.739   3.026   2.804  0.2248 -0.2207  0.5451
 4702SOL     OW14533   1.849   5.438   0.995 -0.5789 -0.2118 -0.6024
 4702SOL    HW114534   1.762   5.430   1.034  0.0912  2.1260  1.6194
 4702SOL    HW214535   1.838   5.504   0.926 -0.5635  0.1242 -0.2843
 4703SOL     OW14536   6.213   2.075   5.920  0.1894  0.5010  0.3894
 4703SOL    HW114537   6.271   2.138   5.962 -1.0924  0.2999  2.5857
 4703SOL    HW214538   6.169   2.031   5.992  0.1657 -2.1049 -1.1036
 4704SOL     OW14539   1.166   1.146   4.277 -0.5519  0.4699 -0.4971
 4704SOL    HW114540   1.241   1.086   4.269  0.2311  1.1910  0.9344
 4704SOL    HW214541   1.104   1.116   4.211  0.1705 -1.3871 -0.4014
 4705SOL     OW14542   2.939   3.109   5.840  0.5526  0.1340  0.5191
 4705SOL    HW114543   2.988   3.140   5.764 -0.3147 -0.0112 -0.1152
 4705SOL    HW214544   2.933   3.014   5.828  0.1365  0.1471  0.5944
 4706SOL     OW14545   2.532   1.184   4.550 -0.0675 -0.3710 -0.2865
 4706SOL    HW114546   2.554   1.118   4.617  2.8740 -1.6914 -2.3657
 4706SOL    HW214547   2.571   1.265   4.583 -0.6550 -0.4407  0.6318
 4707SOL     OW14548   1.416   5.436   3.578  0.4074  0.3947  0.0702
 4707SOL    HW114549   1.405   5.486   3.659 -0.6244  1.1117 -0.4900
 4707SOL    HW214550   1.336   5.384   3.571  0.4965  0.3285 -0.4861
 4708SOL     OW14551   3.703   2.363   4.270 -0.4436  0.4766  0.7557
 4708SOL    HW114552   3.647   2.411   4.209  0.6607  0.6848 -0.1235
 4708SOL    HW214553   3.789   2.407   4.263  0.5757 -1.5149  0.0131
 4709SOL     OW14554   1.181   6.162   4.582 -0.2266 -0.6274 -0.3242
 4709SOL    HW114555   1.215   6.112   4.509  2.5560  1.4580 -0.6342
 4709SOL    HW214556   1.176   6.252   4.549  0.6631  0.2919  1.8520
 4710SOL     OW14557   6.022   5.911   4.800 -0.1188  0.1445  0.0247
 4710SOL    HW114558   5.932   5.944   4.792  0.1483  0.6473 -1.1803
 4710SOL    HW214559   6.040   5.914   4.894 -0.8633  1.4275  0.1533
 4711SOL     OW14560   1.774   3.939   3.246  0.3279  0.4149 -0.5243
 4711SOL    HW114561   1.699   3.979   3.201  1.0693  0.4063 -1.8293
 4711SOL    HW214562   1.803   4.006   3.308 -1.0060  0.2499  0.3414
 4712SOL     OW14563   3.678   4.714   1.767 -0.4268  0.1641 -0.1085
 4712SOL    HW114564   3.731   4.686   1.693 -0.2490  1.3139 -0.4393
 4712SOL    HW214565   3.736   4.704   1.843 -0.9449 -1.9908  0.0590
 4713SOL     OW14566   5.935   2.967   2.670  0.4350 -0.2602  0.0628
 4713SOL    HW114567   5.910   2.996   2.758 -0.0732  0.2314 -0.2391
 4713SOL    HW214568   5.965   2.877   2.682  0.9535  0.0032  0.8384
 4714SOL     OW14569   2.527   3.047   2.192  0.5858 -0.2854 -0.4524
 4714SOL    HW114570   2.616   3.070   2.220  0.1371  1.3372 -0.2866
 4714SOL    HW214571   2.529   3.057   2.097  0.3748  0.5564 -0.3751
 4715SOL     OW14572   2.587   5.323   5.769 -0.1959 -0.4437 -0.3592
 4715SOL    HW114573   2.518   5.264   5.738 -0.7288  0.3221 -0.6857
 4715SOL    HW214574   2.564   5.342   5.860  0.9160 -2.0517  0.2823
 4716SOL     OW14575   4.920   1.823   0.779  0.3899 -0.0863  0.0277
 4716SOL    HW114576   4.848   1.883   0.800  1.8722  1.3204  1.3909
 4716SOL    HW214577   4.950   1.852   0.693  0.9885  1.0818  0.6023
 4717SOL     OW14578   5.850   6.048   1.069 -0.2095  0.0949 -0.2300
 4717SOL    HW114579   5.912   5.977   1.085  1.4857  0.5987 -3.5764
 4717SOL    HW214580   5.894   6.127   1.100 -0.5088  0.1212  0.1378
 4718SOL     OW14581   5.673   1.313   1.695  0.0720 -0.8862 -0.0093
 4718SOL    HW114582   5.751   1.329   1.748  0.3528  0.1999 -0.7222
 4718SOL    HW214583   5.642   1.227   1.724 -0.1704 -0.0787  2.3905
 4719SOL     OW14584   0.363   5.477   0.592  0.0710  0.2833  0.6347
 4719SOL    HW114585   0.381   5.389   0.558 -0.4776  0.1877  0.5783
 4719SOL    HW214586   0.419   5.535   0.540 -1.6940  0.3024 -1.4056
 4720SOL     OW14587   2.952   5.215   2.468 -0.2750 -0.5271 -0.0366
 4720SOL    HW114588   3.038   5.215   2.425 -1.5835 -1.0087 -2.8671
 4720SOL    HW214589   2.925   5.124   2.468 -1.7705 -0.1267 -1.4277
 4721SOL     OW14590   2.297   2.967   4.487  0.2053 -0.1908  0.1039
 4721SOL    HW114591   2.202   2.982   4.486  0.1161 -0.7261 -1.3309
 4721SOL    HW214592   2.335   3.052   4.469  0.0195  0.0594  0.8386
 4722SOL     OW14593   4.238   3.386   0.299 -0.4690  0.2511  0.2748
 4722SOL    HW114594   4.208   3.473   0.325  2.2862  1.5109 -0.4281
 4722SOL    HW214595   4.305   3.364   0.364  1.6413  0.4307 -1.7503
 4723SOL     OW14596   0.041   3.192   3.595 -0.2848 -0.2035 -0.4299
 4723SOL    HW114597   0.078   3.236   3.671  0.7282  0.8670 -1.4921
 4723SOL    HW214598  -0.003   3.115   3.630  0.8520 -0.1735  1.1534
 4724SOL     OW14599   2.942   3.607   4.009  0.0953 -0.4122 -0.4264
 4724SOL    HW114600   2.946   3.694   3.968  0.8000 -0.0334  0.4129
 4724SOL    HW214601   2.870   3.563   3.964  1.1959 -0.2270 -2.4976
 4725SOL     OW14602   0.873   4.898   1.151  0.8510  0.3085  0.9704
 4725SOL    HW114603   0.923   4.977   1.169 -0.9242  1.4267  1.2359
 4725SOL    HW214604   0.826   4.880   1.233 -2.1671  1.5967 -0.3307
 4726SOL     OW14605   4.469   2.154   5.750  0.1687  0.4096 -0.0115
 4726SOL    HW114606   4.494   2.235   5.794 -1.9917  0.8332  0.5154
 4726SOL    HW214607   4.383   2.172   5.713  0.5486 -0.9819 -1.7116
 4727SOL     OW14608   3.988   2.392   5.942  0.0979  0.1260 -0.2929
 4727SOL    HW114609   3.979   2.388   5.847 -0.0578  0.1333 -0.2770
 4727SOL    HW214610   4.017   2.482   5.960 -3.3101  1.2862 -0.0265
 4728SOL     OW14611   2.652   4.560   3.576  0.1958  0.1919  0.5318
 4728SOL    HW114612   2.684   4.482   3.532 -1.3850 -0.2806  0.1428
 4728SOL    HW214613   2.660   4.540   3.669 -0.8434 -0.7653  0.4469
 4729SOL     OW14614   5.311   5.907   6.206 -0.4319 -0.1035  0.2958
 4729SOL    HW114615   5.256   5.838   6.170  0.1366  0.6792 -2.2534
 4729SOL    HW214616   5.378   5.861   6.257 -1.3849 -1.2511  0.5500
 4730SOL     OW14617   6.087   5.974   5.064  0.2330  0.6783  0.0254
 4730SOL    HW114618   6.093   5.983   5.159  2.0123 -1.6569  0.2572
 4730SOL    HW214619   6.160   6.027   5.030  1.1254 -0.3834  0.2067
 4731SOL     OW14620   5.983   5.722   3.129  0.5158 -0.1112 -0.0360
 4731SOL    HW114621   5.930   5.685   3.199 -1.3935  2.6987  0.1534
 4731SOL    HW214622   6.052   5.770   3.174 -0.5664  1.4870 -0.0026
 4732SOL     OW14623   1.240   0.554   3.416 -0.0436 -0.0026 -0.0681
 4732SOL    HW114624   1.216   0.647   3.410 -0.4517 -0.1163 -0.2127
 4732SOL    HW214625   1.333   0.552   3.393  0.0823  0.4271  0.3693
 4733SOL     OW14626   2.473   4.773   2.058 -0.0401  0.0947 -0.3970
 4733SOL    HW114627   2.555   4.783   2.009 -0.0980 -0.2005 -0.5583
 4733SOL    HW214628   2.495   4.802   2.146 -0.0552  1.0761 -0.7048
 4734SOL     OW14629   3.120   3.892   4.922 -0.3760 -0.2385 -0.3594
 4734SOL    HW114630   3.110   3.811   4.872 -2.2112 -1.0232  1.1435
 4734SOL    HW214631   3.187   3.872   4.987 -1.2465 -0.8023  0.3937
 4735SOL     OW14632   2.248   5.596   1.276  0.1692  0.3628 -0.1725
 4735SOL    HW114633   2.194   5.644   1.339  4.2329 -0.1814  4.1759
 4735SOL    HW214634   2.277   5.663   1.214  3.0226  3.2565  3.8170
 4736SOL     OW14635   4.669   5.936   1.783 -0.6030 -0.8937 -0.1762
 4736SOL    HW114636   4.599   5.871   1.783  0.6312 -2.3100  0.7118
 4736SOL    HW214637   4.749   5.884   1.790  0.6034  0.6210 -1.7945
 4737SOL     OW14638   1.396   5.295   1.859  0.0391  0.4748  0.1050
 4737SOL    HW114639   1.354   5.210   1.866 -0.7153  0.7082 -1.3056
 4737SOL    HW214640   1.452   5.300   1.937 -0.0455 -1.2057  0.3132
 4738SOL     OW14641   1.519   5.304   2.436  0.0198  0.1083 -0.5689
 4738SOL    HW114642   1.581   5.377   2.429 -0.7418  0.9676  1.2125
 4738SOL    HW214643   1.574   5.229   2.460  0.8846 -0.1130 -2.9420
 4739SOL     OW14644   4.631   1.121   3.221 -0.2249  0.2278 -0.5189
 4739SOL    HW114645   4.657   1.176   3.146  1.3462  1.0703  0.5707
 4739SOL    HW214646   4.538   1.140   3.234 -0.5062  0.1309 -2.1764
 4740SOL     OW14647   3.755   2.876   5.596  0.1008  0.4674 -0.2140
 4740SOL    HW114648   3.784   2.849   5.509  1.0646  1.0175 -0.0754
 4740SOL    HW214649   3.728   2.967   5.586 -0.1110  0.4311 -0.0019
 4741SOL     OW14650   0.306   2.431   1.151  0.0331  0.1021  0.0870
 4741SOL    HW114651   0.249   2.364   1.189  1.1919 -1.8810 -1.4472
 4741SOL    HW214652   0.245   2.493   1.110 -1.0737 -0.7278  0.4063
 4742SOL     OW14653   5.811   0.608   3.881  0.7418 -0.0276 -0.1489
 4742SOL    HW114654   5.717   0.612   3.863  0.4857  1.2756  1.2658
 4742SOL    HW214655   5.851   0.658   3.810  0.4314 -0.9261 -0.9823
 4743SOL     OW14656   0.519   0.567   3.774 -0.4968  0.1903  0.0597
 4743SOL    HW114657   0.528   0.662   3.777  0.6233  0.1176 -0.3632
 4743SOL    HW214658   0.467   0.545   3.851  1.3532  0.9405  1.6046
 4744SOL     OW14659   4.300   5.348   2.222  0.1426 -0.3034  0.2170
 4744SOL    HW114660   4.211   5.369   2.194  1.0803  1.5021 -1.7859
 4744SOL    HW214661   4.307   5.384   2.310 -0.8217  0.4187  0.0171
 4745SOL     OW14662   3.016   1.931   1.906  0.1734 -0.0053  0.1059
 4745SOL    HW114663   3.039   1.955   1.817  0.4434  0.1475  0.2150
 4745SOL    HW214664   2.957   2.000   1.936  1.2348  0.7492  0.5452
 4746SOL     OW14665   2.597   2.823   1.952  0.2031  0.0104  0.2439
 4746SOL    HW114666   2.627   2.772   2.027  0.7389 -1.6564 -1.0644
 4746SOL    HW214667   2.516   2.781   1.925 -0.2728  0.9351  0.1909
 4747SOL     OW14668   0.552   1.324   4.010  0.1940 -0.6888  0.4942
 4747SOL    HW114669   0.527   1.339   3.919  1.8298 -1.0197 -0.0327
 4747SOL    HW214670   0.543   1.410   4.052 -3.4037 -1.0624  0.8187
 4748SOL     OW14671   4.030   3.664   1.735  0.6487  0.0578 -0.6507
 4748SOL    HW114672   4.064   3.750   1.761 -1.1118  0.0202  2.1004
 4748SOL    HW214673   4.086   3.601   1.781 -1.3331 -0.0481  1.8356
 4749SOL     OW14674   1.468   4.131   4.714 -0.2273  0.1145 -0.0875
 4749SOL    HW114675   1.511   4.068   4.771 -0.8586  0.9258  1.3460
 4749SOL    HW214676   1.423   4.078   4.648 -0.8005 -0.9581  1.1245
 4750SOL     OW14677   1.565   0.592   2.702  0.7355  0.4083 -0.4824
 4750SOL    HW114678   1.499   0.659   2.718  1.8245  1.0624  1.5806
 4750SOL    HW214679   1.545   0.559   2.614 -0.7049  2.4087 -0.9669
 4751SOL     OW14680   3.031   3.756   2.414 -0.0870 -0.3057  0.4689
 4751SOL    HW114681   3.043   3.697   2.340  0.9177  1.6629 -1.0480
 4751SOL    HW214682   2.942   3.738   2.445  0.0006 -2.1890 -0.2572
 4752SOL     OW14683   2.589   4.522   4.560  0.2533 -0.4069  0.2676
 4752SOL    HW114684   2.599   4.616   4.550 -0.1762 -0.4233 -0.4054
 4752SOL    HW214685   2.524   4.498   4.494 -0.8727 -0.9375  1.5416
 4753SOL     OW14686   1.772   3.228   1.264  0.4883 -0.5030 -0.0110
 4753SOL    HW114687   1.788   3.255   1.174 -0.4062  0.2722  0.0497
 4753SOL    HW214688   1.749   3.309   1.310 -2.6030 -1.3398  0.1217
 4754SOL     OW14689   4.514   2.820   1.666  0.6134  0.8491  0.2674
 4754SOL    HW114690   4.505   2.735   1.624  1.4553  1.3088 -0.8863
 4754SOL    HW214691   4.463   2.880   1.611  1.0407  1.3133  0.3751
 4755SOL     OW14692   5.862   5.282   6.151 -0.4470 -0.3633 -0.2679
 4755SOL    HW114693   5.805   5.228   6.206  0.6334 -2.3469 -1.0176
 4755SOL    HW214694   5.857   5.242   6.064  3.6085 -1.9971  0.0352
 4756SOL     OW14695   0.899   4.135   1.079  0.5235 -0.4199 -0.1646
 4756SOL    HW114696   0.940   4.064   1.030  0.1105 -0.3272 -0.6568
 4756SOL    HW214697   0.956   4.149   1.154  1.3399 -0.3622 -0.7790
 4757SOL     OW14698   2.794   0.857   0.759  0.1505  0.5054  0.2671
 4757SOL    HW114699   2.734   0.817   0.696 -0.4403  0.2371  0.9849
 4757SOL    HW214700   2.881   0.835   0.726 -0.1510 -1.2404  0.5378
 4758SOL     OW14701   4.407   4.039   5.062  0.0817 -0.4585 -0.5314
 4758SOL    HW114702   4.316   4.034   5.091 -0.1735  0.1014 -1.2216
 4758SOL    HW214703   4.458   4.010   5.138 -0.5307  1.5279  0.6946
 4759SOL     OW14704   1.464   0.242   1.385 -0.0687 -0.5580 -0.2751
 4759SOL    HW114705   1.385   0.214   1.338 -0.3529 -0.7736  0.3181
 4759SOL    HW214706   1.512   0.161   1.400  1.1769 -0.2552 -2.1976
 4760SOL     OW14707   2.127   1.834   1.396  0.0393 -0.7076  0.3312
 4760SOL    HW114708   2.193   1.765   1.403 -0.2335 -1.0081 -0.0278
 4760SOL    HW214709   2.149   1.879   1.314  0.6997  0.1473  0.9526
 4761SOL     OW14710   4.429   2.195   0.775  0.0575  0.4015 -0.7000
 4761SOL    HW114711   4.476   2.278   0.777  0.2475  0.3071 -1.1764
 4761SOL    HW214712   4.405   2.182   0.683 -0.3517  0.1405 -0.5644
 4762SOL     OW14713   5.856   0.785   5.247 -0.2508  0.1706 -0.1090
 4762SOL    HW114714   5.777   0.812   5.293  1.2001  0.2343  2.5664
 4762SOL    HW214715   5.834   0.699   5.209 -1.2848 -0.3134  1.5088
 4763SOL     OW14716   1.658   2.999   3.533 -0.0395  0.1453  0.0686
 4763SOL    HW114717   1.742   2.963   3.505  0.1451 -0.5129  1.3960
 4763SOL    HW214718   1.657   2.986   3.628 -1.8378 -0.2986  0.0204
 4764SOL     OW14719   2.807   1.791   3.935 -0.3098 -0.7055 -0.1056
 4764SOL    HW114720   2.755   1.842   3.874 -0.7138  0.1806  0.9524
 4764SOL    HW214721   2.895   1.827   3.928  0.1463 -1.9955 -1.6624
 4765SOL     OW14722   3.729   0.820   0.768 -0.0542  0.2499  0.2456
 4765SOL    HW114723   3.811   0.851   0.731 -0.2834  1.5560  0.7781
 4765SOL    HW214724   3.688   0.898   0.804  0.0945 -0.8994  3.1637
 4766SOL     OW14725   3.926   3.107   4.291  0.4987 -0.1696  0.2280
 4766SOL    HW114726   3.925   3.201   4.309  0.7622  0.0848 -0.9486
 4766SOL    HW214727   3.973   3.068   4.365  1.4560  0.7776  0.1467
 4767SOL     OW14728   5.107   6.203   5.811  0.5844  0.0285  0.0483
 4767SOL    HW114729   5.092   6.128   5.753  0.7992 -0.4686  0.6267
 4767SOL    HW214730   5.130   6.164   5.895  0.3859  0.7480  0.4408
 4768SOL     OW14731   2.351   5.436   3.157 -0.5031  0.4361 -0.8526
 4768SOL    HW114732   2.311   5.349   3.165 -0.2997  0.5208  1.9989
 4768SOL    HW214733   2.434   5.420   3.112  0.2488 -1.1582  0.9651
 4769SOL     OW14734   3.375   5.552   3.963  0.3842 -0.3598 -0.2362
 4769SOL    HW114735   3.333   5.526   3.881  1.5915 -0.0098 -0.9865
 4769SOL    HW214736   3.453   5.497   3.969  1.9069  1.6236 -0.8605
 4770SOL     OW14737   0.252   2.734   5.127 -0.1574 -0.0949  0.0063
 4770SOL    HW114738   0.212   2.817   5.152  0.5201 -0.1771  1.4541
 4770SOL    HW214739   0.318   2.758   5.062 -0.1965  0.4632  0.1690
 4771SOL     OW14740   1.992   6.223   2.299 -0.1695 -0.2158  0.8218
 4771SOL    HW114741   2.065   6.188   2.350  0.7946  0.5220  0.0021
 4771SOL    HW214742   2.002   6.318   2.305 -1.4606 -0.0825  1.2231
 4772SOL     OW14743   1.713   5.861   3.094  0.2902  0.2623  0.3749
 4772SOL    HW114744   1.731   5.833   3.184  1.8780  1.7476  0.5754
 4772SOL    HW214745   1.652   5.934   3.103  0.9466  0.8285  0.3118
 4773SOL     OW14746   0.375   5.391   1.583  0.0843 -0.0849  0.0019
 4773SOL    HW114747   0.294   5.354   1.548 -0.7118  1.5963  0.0082
 4773SOL    HW214748   0.347   5.455   1.648  1.3733  1.2265 -0.6655
 4774SOL     OW14749   3.936   1.203   2.319  0.0875 -0.2293  0.1533
 4774SOL    HW114750   3.857   1.253   2.296  0.3709 -0.6468 -1.9862
 4774SOL    HW214751   3.911   1.151   2.395 -1.1671  0.8667  0.5266
 4775SOL     OW14752   0.239   1.056   3.356 -0.3335  0.3786 -0.0742
 4775SOL    HW114753   0.257   1.026   3.266 -3.4121 -1.5589 -0.2052
 4775SOL    HW214754   0.255   0.979   3.410 -2.6843  0.1261  0.3804
 4776SOL     OW14755   5.796   2.110   3.615  0.2948  0.0395 -0.1217
 4776SOL    HW114756   5.737   2.082   3.545  1.5375 -0.1749 -1.1195
 4776SOL    HW214757   5.761   2.069   3.694 -1.8291  1.2555 -0.3712
 4777SOL     OW14758   2.953   1.752   2.180 -0.1828  0.7657 -0.6492
 4777SOL    HW114759   2.910   1.679   2.134 -1.3550  1.9368 -1.4935
 4777SOL    HW214760   2.896   1.827   2.163  0.1340  1.5535  1.5426
 4778SOL     OW14761   1.320   5.483   4.412 -0.2304  0.5303  0.6009
 4778SOL    HW114762   1.405   5.472   4.370  0.0039 -0.1343  1.2231
 4778SOL    HW214763   1.311   5.405   4.467 -1.2591  0.5763  0.5092
 4779SOL     OW14764   4.057   5.174   5.580  0.1223  0.1625  0.6287
 4779SOL    HW114765   4.066   5.112   5.507 -1.2255  0.0520  0.5319
 4779SOL    HW214766   4.143   5.213   5.588  0.6433 -0.7567 -0.1917
 4780SOL     OW14767   4.726   1.510   4.647 -0.0359  0.1005 -0.2576
 4780SOL    HW114768   4.655   1.573   4.654  0.1175  0.2134  0.4343
 4780SOL    HW214769   4.690   1.437   4.596 -0.0892  0.9088 -1.4046
 4781SOL     OW14770   2.172   3.127   4.206 -0.5098 -0.5865 -0.5134
 4781SOL    HW114771   2.145   3.190   4.139 -2.7472 -0.9472 -0.0274
 4781SOL    HW214772   2.203   3.051   4.156  0.0971  0.0393 -1.1092
 4782SOL     OW14773   0.409   1.653   4.379 -0.0544  0.3180  0.9417
 4782SOL    HW114774   0.421   1.611   4.465 -0.2638  0.2410  0.9321
 4782SOL    HW214775   0.319   1.685   4.380  0.3886  1.6317  1.3340
 4783SOL     OW14776   4.083   1.828   3.598 -0.7209 -0.5703  0.2988
 4783SOL    HW114777   4.166   1.855   3.558 -0.2664  0.2702  1.7465
 4783SOL    HW214778   4.094   1.735   3.616 -0.0640 -0.4545  0.5162
 4784SOL     OW14779   1.875   3.019   4.096 -0.0038 -0.6253 -0.2324
 4784SOL    HW114780   1.956   2.972   4.079  0.6846 -0.2976  1.8001
 4784SOL    HW214781   1.816   2.953   4.132 -0.6330 -0.8373 -1.5936
 4785SOL     OW14782   2.392   3.245   0.952 -0.1230  0.0665  0.5032
 4785SOL    HW114783   2.432   3.328   0.927  0.4282  0.5770  2.8551
 4785SOL    HW214784   2.458   3.179   0.930  0.2332  0.4513  0.4012
 4786SOL     OW14785   3.811   1.350   5.066  0.2212 -0.0070 -0.7973
 4786SOL    HW114786   3.811   1.375   4.974  0.8924  1.4097 -0.4465
 4786SOL    HW214787   3.903   1.332   5.085  0.0340 -0.6555 -0.4851
 4787SOL     OW14788   2.692   3.827   0.617 -0.0690  0.1117 -0.1254
 4787SOL    HW114789   2.626   3.777   0.664  1.0788 -0.7273  0.6423
 4787SOL    HW214790   2.650   3.911   0.598 -1.3187 -0.3754  0.3943
 4788SOL     OW14791   5.170   0.541   1.169 -0.4859  0.3762 -0.0301
 4788SOL    HW114792   5.191   0.469   1.228 -0.2796  1.4342  1.2564
 4788SOL    HW214793   5.083   0.520   1.136  0.3994 -1.4526 -1.3096
 4789SOL     OW14794   4.699   0.498   6.192 -0.0504 -0.8065 -0.4973
 4789SOL    HW114795   4.732   0.574   6.144 -0.2981 -1.2107 -1.3094
 4789SOL    HW214796   4.700   0.427   6.129  0.1469 -1.4822  0.2537
 4790SOL     OW14797   2.683   4.221   3.040  0.5077 -0.1744 -0.4875
 4790SOL    HW114798   2.643   4.135   3.031 -1.3580  0.3143  2.0797
 4790SOL    HW214799   2.765   4.205   3.087 -0.4936 -0.5007  1.2417
 4791SOL     OW14800   1.462   1.929   2.096  0.0003  0.0108 -0.4360
 4791SOL    HW114801   1.522   1.962   2.030  0.9390 -0.5841  0.0953
 4791SOL    HW214802   1.519   1.897   2.166 -0.9635  0.2323  0.4653
 4792SOL     OW14803   0.232   3.807   2.923  0.1136  1.1351 -0.2272
 4792SOL    HW114804   0.204   3.869   2.856 -0.6178  2.0777  0.9047
 4792SOL    HW214805   0.317   3.839   2.951 -0.3018  1.7105  0.4175
 4793SOL     OW14806   2.804   4.102   1.168 -0.3288  0.1002 -0.4568
 4793SOL    HW114807   2.856   4.060   1.237 -1.0979  0.3744  0.3005
 4793SOL    HW214808   2.756   4.171   1.213  1.0902  2.0170 -1.7004
 4794SOL     OW14809   1.151   3.458   3.510  0.1794  0.0774  0.0025
 4794SOL    HW114810   1.106   3.438   3.428  1.7058  0.9884 -1.1172
 4794SOL    HW214811   1.144   3.378   3.561 -0.9384 -0.4613 -0.9414
 4795SOL     OW14812   2.004   6.189   4.003 -0.2479 -0.6221  0.2299
 4795SOL    HW114813   1.964   6.121   4.058 -0.9617 -0.2225  0.2080
 4795SOL    HW214814   1.986   6.271   4.049  0.3963 -0.4145  0.1272
 4796SOL     OW14815   3.378   4.608   2.220 -0.1354 -0.5262  0.4630
 4796SOL    HW114816   3.442   4.679   2.228 -1.7968  1.1402 -0.4804
 4796SOL    HW214817   3.417   4.549   2.155 -0.3200  1.4133 -1.5280
 4797SOL     OW14818   4.226   3.860   1.845 -0.7411 -0.0977  0.2428
 4797SOL    HW114819   4.287   3.787   1.847 -0.4669  0.0705 -1.2696
 4797SOL    HW214820   4.204   3.876   1.937 -0.1779 -1.5439  0.6414
 4798SOL     OW14821   2.609   2.976   4.257  0.4194  0.2077  0.2922
 4798SOL    HW114822   2.531   2.921   4.254  1.1228 -0.7830 -1.4393
 4798SOL    HW214823   2.582   3.054   4.306 -1.1002 -0.9002  1.3164
 4799SOL     OW14824   2.381   0.383   5.675 -0.1733 -0.0630  0.2898
 4799SOL    HW114825   2.291   0.410   5.692 -1.2768 -0.1620 -4.1987
 4799SOL    HW214826   2.414   0.447   5.613  1.9632 -1.4279 -0.0847
 4800SOL     OW14827   2.237   5.909   2.547 -0.5692  0.1131  0.0277
 4800SOL    HW114828   2.263   5.841   2.485 -1.6971 -0.1079 -0.2292
 4800SOL    HW214829   2.194   5.976   2.493 -0.9491  0.2384  0.4718
 4801SOL     OW14830   4.289   3.925   0.737 -0.1693  0.5502 -0.4053
 4801SOL    HW114831   4.271   3.988   0.806  0.6311 -0.1792  0.4942
 4801SOL    HW214832   4.245   3.845   0.765  1.3201 -0.1657 -0.0025
 4802SOL     OW14833   0.079   3.306   2.038  0.6366  0.3454  0.0952
 4802SOL    HW114834   0.074   3.280   2.130 -1.9131 -0.9220 -0.3150
 4802SOL    HW214835   0.057   3.399   2.038  0.3701  0.2847  0.7488
 4803SOL     OW14836   2.276   2.233   2.323  0.1740  0.1889  0.0062
 4803SOL    HW114837   2.321   2.156   2.357 -1.3590 -1.0864 -0.7116
 4803SOL    HW214838   2.212   2.255   2.390 -0.1420  0.1420 -0.2769
 4804SOL     OW14839   3.529   1.669   3.032  0.2694 -0.5182 -0.0951
 4804SOL    HW114840   3.473   1.622   3.094  1.7738  1.4514  2.9997
 4804SOL    HW214841   3.601   1.609   3.014  0.7908 -0.4951  1.6827
 4805SOL     OW14842   2.742   0.277   4.353 -0.1479  0.4741 -0.0717
 4805SOL    HW114843   2.810   0.244   4.412  0.0670  1.1665  0.0769
 4805SOL    HW214844   2.767   0.368   4.337 -2.0691  1.3501  1.5309
 4806SOL     OW14845   1.131   1.249   5.207 -0.8900  0.0035 -0.2372
 4806SOL    HW114846   1.156   1.292   5.125 -1.5856 -2.2094 -1.6907
 4806SOL    HW214847   1.120   1.321   5.269  0.8133  1.6743 -1.7367
 4807SOL     OW14848   5.373   1.515   0.583  0.0773  0.5172  0.1106
 4807SOL    HW114849   5.364   1.564   0.665 -0.0009  0.5138  0.1041
 4807SOL    HW214850   5.462   1.535   0.553 -0.5093  1.9307 -0.7289
 4808SOL     OW14851   0.215   6.013   2.089  0.1445  0.4040  0.0303
 4808SOL    HW114852   0.150   5.944   2.100  1.4590 -0.9926 -0.5563
 4808SOL    HW214853   0.263   6.013   2.172 -0.0877  0.8834  0.1672
 4809SOL     OW14854   4.767   2.518   1.961 -0.1270 -0.0512  0.4431
 4809SOL    HW114855   4.773   2.471   2.044  2.2284 -0.1287  0.2998
 4809SOL    HW214856   4.712   2.462   1.906  0.7002 -1.4769  1.0263
 4810SOL     OW14857   4.283   0.820   3.907 -0.1288  0.3695  0.3155
 4810SOL    HW114858   4.363   0.859   3.873 -0.8586  0.8243 -0.9315
 4810SOL    HW214859   4.213   0.878   3.877 -1.0205 -0.5644  0.5403
 4811SOL     OW14860   4.262   5.970   3.992 -0.1643  0.1133  0.4471
 4811SOL    HW114861   4.292   5.927   4.072  0.1285  0.1176  0.3417
 4811SOL    HW214862   4.274   5.905   3.923  1.5345  0.7757  0.0607
 4812SOL     OW14863   0.499   2.511   5.043 -0.1268  0.7055  0.5873
 4812SOL    HW114864   0.452   2.470   5.115 -0.3395  1.2266  0.7459
 4812SOL    HW214865   0.527   2.595   5.077  0.5902  0.5653  0.3672
 4813SOL     OW14866   4.929   4.947   3.364 -0.3116  0.6570  0.8076
 4813SOL    HW114867   4.966   4.973   3.280 -0.6056 -1.0293  0.1001
 4813SOL    HW214868   4.951   5.018   3.424  0.6964  1.4717 -0.4805
 4814SOL     OW14869   4.210   1.324   2.509  0.5317 -0.2602  0.2666
 4814SOL    HW114870   4.170   1.377   2.440  1.1527 -0.4102 -0.2181
 4814SOL    HW214871   4.149   1.252   2.523 -0.1879  0.4199  0.7339
 4815SOL     OW14872   5.730   2.949   0.258  0.1288 -0.5839  0.1280
 4815SOL    HW114873   5.813   2.928   0.302  0.1858  0.3023  0.4516
 4815SOL    HW214874   5.743   3.037   0.222 -1.2780  0.3306  1.7179
 4816SOL     OW14875   1.107   4.599   5.628 -0.1777  0.5039  0.6579
 4816SOL    HW114876   1.104   4.605   5.533  0.4642  0.7294  0.6495
 4816SOL    HW214877   1.146   4.682   5.656 -1.1208  0.7899  1.1648
 4817SOL     OW14878   2.645   4.116   2.501 -0.7827 -0.7784  0.3447
 4817SOL    HW114879   2.599   4.053   2.557  0.1561 -1.0656  0.8281
 4817SOL    HW214880   2.703   4.163   2.561 -0.8108 -0.0826 -0.1630
 4818SOL     OW14881   4.484   5.200   3.671  0.0964  0.1477 -0.9199
 4818SOL    HW114882   4.537   5.228   3.746 -3.1371  0.1720  1.5680
 4818SOL    HW214883   4.470   5.281   3.621  1.1712  0.3881 -0.8738
 4819SOL     OW14884   2.217   5.028   5.419  0.2030 -0.3734 -0.9140
 4819SOL    HW114885   2.269   4.949   5.401  1.6302  0.5938 -1.2152
 4819SOL    HW214886   2.128   5.003   5.398  0.4057 -2.3099  0.2331
 4820SOL     OW14887   5.706   4.891   5.453 -0.6695  0.9357 -0.4210
 4820SOL    HW114888   5.728   4.984   5.462 -1.9041  1.1531  0.6699
 4820SOL    HW214889   5.613   4.891   5.428 -0.8537  0.0123  0.1980
 4821SOL     OW14890   3.091   1.798   3.595 -0.2215 -0.0697  0.3203
 4821SOL    HW114891   3.037   1.722   3.617 -0.2589  0.2858  1.5872
 4821SOL    HW214892   3.178   1.762   3.578 -0.3080 -0.4273  0.6162
 4822SOL     OW14893   0.415   3.810   6.233 -0.6630  0.0933 -0.4020
 4822SOL    HW114894   0.339   3.757   6.259 -0.0067 -1.0154 -0.7041
 4822SOL    HW214895   0.481   3.792   6.300 -1.2693  2.6016  1.0266
 4823SOL     OW14896   3.744   4.401   2.953 -0.3138 -0.1665 -0.4378
 4823SOL    HW114897   3.819   4.386   2.895 -0.9515 -0.3784 -1.2336
 4823SOL    HW214898   3.667   4.393   2.895 -0.9195  0.7489  0.2134
 4824SOL     OW14899   4.306   2.727   3.153  0.4808 -0.3724 -0.0738
 4824SOL    HW114900   4.245   2.671   3.201 -0.6606 -0.0248 -1.0727
 4824SOL    HW214901   4.251   2.780   3.096  1.5366  1.6155  0.6490
 4825SOL     OW14902   0.948   2.361   1.493  0.5138 -0.0392 -0.8909
 4825SOL    HW114903   0.885   2.412   1.442  0.3950 -2.2546 -3.1416
 4825SOL    HW214904   0.901   2.280   1.515  1.8065 -0.7293 -0.5776
 4826SOL     OW14905   5.690   5.358   0.314 -0.2062  0.0257 -0.1749
 4826SOL    HW114906   5.699   5.297   0.387 -0.6698 -0.4927 -0.5469
 4826SOL    HW214907   5.714   5.307   0.237 -1.1203  0.1405 -0.5542
 4827SOL     OW14908   0.741   3.483   1.491  0.0590 -0.5853 -0.4627
 4827SOL    HW114909   0.777   3.407   1.537 -0.0681 -1.4034 -1.6602
 4827SOL    HW214910   0.673   3.517   1.548  0.0812 -1.4161  0.0638
 4828SOL     OW14911   3.153   2.299   3.773 -0.1919  0.1476  0.2715
 4828SOL    HW114912   3.155   2.216   3.726  2.2169  0.7314 -0.8677
 4828SOL    HW214913   3.228   2.347   3.738 -1.2341  2.6289  1.2229
 4829SOL     OW14914   2.236   2.199   4.513  0.0400 -0.1921 -0.9324
 4829SOL    HW114915   2.212   2.107   4.522  0.1796 -0.2680 -1.3568
 4829SOL    HW214916   2.182   2.243   4.579  1.5712 -0.8292  0.8239
 4830SOL     OW14917   5.485   5.408   3.135  0.3614 -0.2991 -0.0362
 4830SOL    HW114918   5.435   5.425   3.055 -0.0873 -1.5447 -0.0335
 4830SOL    HW214919   5.576   5.422   3.108  0.0913  1.1997 -0.2420
 4831SOL     OW14920   0.102   4.564   5.917 -0.6295  0.5546 -0.2282
 4831SOL    HW114921   0.158   4.635   5.948  0.0277  1.2980 -2.8673
 4831SOL    HW214922   0.029   4.608   5.872 -0.5912 -0.4101 -1.2920
 4832SOL     OW14923   3.055   4.103   5.097 -0.1241 -0.2565  0.1246
 4832SOL    HW114924   2.985   4.058   5.146  0.1903 -0.9094 -0.0168
 4832SOL    HW214925   3.080   4.041   5.029 -0.6794  0.7225 -0.9971
 4833SOL     OW14926   1.139   4.995   4.058 -0.2395  0.2163  0.4917
 4833SOL    HW114927   1.075   4.964   3.995 -0.0855 -0.2222  0.5478
 4833SOL    HW214928   1.099   5.072   4.097  0.3921  1.6067 -1.4243
 4834SOL     OW14929   3.248   6.061   5.504  0.5739  0.1210  0.0176
 4834SOL    HW114930   3.332   6.107   5.504  0.8887 -0.4316  1.1259
 4834SOL    HW214931   3.185   6.127   5.477  1.2992  0.6484 -0.4530
 4835SOL     OW14932   5.762   0.008   5.822  0.0408  0.4750 -0.4194
 4835SOL    HW114933   5.757  -0.031   5.909  0.3545  0.6339 -0.3292
 4835SOL    HW214934   5.750  -0.065   5.762  0.0439  0.3312 -0.2462
 4836SOL     OW14935   1.012   2.767   5.035  0.4404  0.5772 -0.2969
 4836SOL    HW114936   1.015   2.715   4.954 -0.9924  0.1028 -0.0794
 4836SOL    HW214937   1.025   2.857   5.006 -1.3059  0.5751 -1.2709
 4837SOL     OW14938   2.238   6.101   2.326 -0.2959 -0.1045  0.0173
 4837SOL    HW114939   2.255   6.093   2.232 -1.1612  0.3925 -0.1892
 4837SOL    HW214940   2.325   6.112   2.365  0.1545 -1.2166 -0.6213
 4838SOL     OW14941   3.479   0.462   5.135 -0.5965 -0.2752 -0.0653
 4838SOL    HW114942   3.502   0.550   5.165 -0.5817  0.4407 -2.0441
 4838SOL    HW214943   3.551   0.406   5.164  0.0799  0.6269  0.0250
 4839SOL     OW14944   0.202   2.137   0.067  0.0522 -0.1557  0.0465
 4839SOL    HW114945   0.151   2.184   0.001  1.4690  0.4251 -0.6892
 4839SOL    HW214946   0.165   2.049   0.068 -0.1441 -0.1150 -1.3775
 4840SOL     OW14947   0.340   5.202   4.476 -0.1143 -0.3045 -0.5291
 4840SOL    HW114948   0.308   5.112   4.478  0.5699 -0.5460  0.8138
 4840SOL    HW214949   0.263   5.255   4.456 -0.8497 -1.0516  0.2744
 4841SOL     OW14950   5.867   4.044   3.786 -0.2857 -0.1830 -0.2348
 4841SOL    HW114951   5.957   4.054   3.816 -0.1457 -1.8932  0.0513
 4841SOL    HW214952   5.818   4.021   3.865 -0.9154  0.3915 -0.4490
 4842SOL     OW14953   4.205   3.638   1.291 -0.4762  0.0470 -0.2087
 4842SOL    HW114954   4.236   3.566   1.345  0.3401 -0.8211 -1.7443
 4842SOL    HW214955   4.265   3.710   1.310 -0.7343  0.0339  0.6675
 4843SOL     OW14956   6.002   4.494   0.251 -0.2493 -0.6961  0.1124
 4843SOL    HW114957   5.944   4.442   0.307 -0.5899  0.4248  0.8185
 4843SOL    HW214958   6.035   4.563   0.308 -0.1153  0.1101 -0.9191
 4844SOL     OW14959   4.399   0.806   2.055 -0.6610 -0.4430  0.0110
 4844SOL    HW114960   4.463   0.742   2.024  0.0897 -1.2175  2.8376
 4844SOL    HW214961   4.391   0.789   2.149 -4.2236  0.3581  0.0159
 4845SOL     OW14962   1.842   0.726   1.999 -0.1344  0.0531 -0.1808
 4845SOL    HW114963   1.825   0.782   1.924 -0.8404  0.7525  0.4825
 4845SOL    HW214964   1.893   0.653   1.964  1.8405  1.6760 -0.8349
 4846SOL     OW14965   4.754   4.304   2.096  0.0815  0.3986  0.0172
 4846SOL    HW114966   4.790   4.372   2.152 -1.9951 -0.3653  2.4288
 4846SOL    HW214967   4.815   4.301   2.021  0.7679  4.1925  0.1975
 4847SOL     OW14968   5.908   0.476   4.085  0.0287 -0.0394 -0.3228
 4847SOL    HW114969   5.880   0.528   4.010  0.5360  0.2845 -0.2948
 4847SOL    HW214970   6.003   0.487   4.087  0.0238 -0.0955  0.3311
 4848SOL     OW14971   2.702   2.672   1.076  0.0135  0.5911 -0.1259
 4848SOL    HW114972   2.730   2.595   1.127 -0.0648  0.8809  0.3651
 4848SOL    HW214973   2.610   2.656   1.057  0.1823  0.2211 -0.6640
 4849SOL     OW14974   2.568   2.736   4.876  0.0832 -0.1508 -0.0045
 4849SOL    HW114975   2.604   2.824   4.889  1.5977 -0.6201 -0.7167
 4849SOL    HW214976   2.544   2.734   4.784 -1.2609 -0.0582  0.3223
 4850SOL     OW14977   2.938   1.198   5.982  0.1713 -0.1423  0.6074
 4850SOL    HW114978   2.961   1.287   6.008  0.6999 -0.3473  0.8584
 4850SOL    HW214979   3.015   1.167   5.933 -1.0109  0.4582 -1.8009
 4851SOL     OW14980   4.371   3.444   6.058 -0.4430  0.0424  0.2853
 4851SOL    HW114981   4.303   3.499   6.098  1.2006  2.2266  0.2464
 4851SOL    HW214982   4.332   3.357   6.054 -3.1887  1.1760  0.3763
 4852SOL     OW14983   1.521   0.550   0.723 -0.1119 -0.1042  0.4479
 4852SOL    HW114984   1.430   0.523   0.718 -0.1764  0.0613  0.7260
 4852SOL    HW214985   1.518   0.643   0.743  0.1160 -0.0327  0.1680
 4853SOL     OW14986   0.078   4.897   2.489  0.4774  0.3653 -0.3240
 4853SOL    HW114987   0.152   4.941   2.448  0.9250  1.2396  1.3524
 4853SOL    HW214988   0.023   4.968   2.522 -1.7955 -0.2107 -2.5756
 4854SOL     OW14989   2.669   1.364   4.693  0.2327 -0.2662 -0.3457
 4854SOL    HW114990   2.741   1.317   4.737 -0.2402  0.0778  0.8270
 4854SOL    HW214991   2.635   1.424   4.760 -1.7064 -1.0159 -0.5955
 4855SOL     OW14992   0.418   2.609   2.399  0.2157  0.1136  0.8932
 4855SOL    HW114993   0.491   2.571   2.447  0.6766 -0.5784 -0.3195
 4855SOL    HW214994   0.457   2.678   2.345 -0.2882  0.8541  1.4496
 4856SOL     OW14995   2.487   1.945   2.894  0.1883  0.9138 -0.2454
 4856SOL    HW114996   2.493   1.857   2.931 -0.2881  1.5036  1.3336
 4856SOL    HW214997   2.426   1.937   2.821 -0.1005 -0.0057  0.0908
 4857SOL     OW14998   0.191   4.842   2.127 -0.8049 -0.2122 -0.1555
 4857SOL    HW114999   0.210   4.889   2.208  0.3668  1.6188 -1.4265
 4857SOL    HW215000   0.096   4.853   2.116 -0.7778  0.6292  0.3176
 4858SOL     OW15001   4.662   0.389   2.200  0.4911 -0.0987 -0.3509
 4858SOL    HW115002   4.591   0.326   2.186 -1.5011  1.2226  2.6870
 4858SOL    HW215003   4.724   0.371   2.130 -0.2123 -4.9933 -0.0957
 4859SOL     OW15004   4.795   3.018   2.516  0.6521  0.0678 -0.0385
 4859SOL    HW115005   4.776   2.924   2.519  0.7645 -0.1264 -2.8775
 4859SOL    HW215006   4.888   3.024   2.494  0.8922  0.8908  1.0927
 4860SOL     OW15007   2.848   0.899   0.212 -0.1560 -0.4186 -0.5471
 4860SOL    HW115008   2.811   0.827   0.161  0.7389 -1.3423  0.0802
 4860SOL    HW215009   2.831   0.977   0.159 -1.8408 -0.9617 -0.8786
 4861SOL     OW15010   5.788   3.230   2.294 -0.4825 -0.0390 -0.0310
 4861SOL    HW115011   5.858   3.235   2.228 -1.0934  0.9259 -0.6353
 4861SOL    HW215012   5.763   3.138   2.295  1.0061 -0.4647  0.4302
 4862SOL     OW15013   3.411   1.911   6.118 -0.0642 -0.3960 -0.9982
 4862SOL    HW115014   3.358   1.912   6.038  1.1239 -0.2580 -1.7975
 4862SOL    HW215015   3.379   1.987   6.168  0.0904  0.3252 -1.9598
 4863SOL     OW15016   3.057   5.873   5.580 -0.0890  0.3332  0.3960
 4863SOL    HW115017   3.128   5.931   5.555  1.1314 -1.4050 -0.3183
 4863SOL    HW215018   3.068   5.795   5.526 -0.6118 -1.3037  2.5107
 4864SOL     OW15019   4.291   2.735   5.383  0.1925  0.1063 -0.4990
 4864SOL    HW115020   4.301   2.735   5.478  1.1002 -0.0786 -0.5808
 4864SOL    HW215021   4.294   2.642   5.359  0.5691  0.1799 -0.7541
 4865SOL     OW15022   1.697   1.609   3.918 -0.2921  0.1428 -0.3220
 4865SOL    HW115023   1.660   1.522   3.910  0.1423  0.0979 -2.0932
 4865SOL    HW215024   1.752   1.604   3.997 -0.5996 -1.0394 -0.1625
 4866SOL     OW15025   2.910   1.522   2.976 -0.2101 -0.4348  0.4740
 4866SOL    HW115026   2.891   1.458   3.044  0.4513 -1.8274 -0.6010
 4866SOL    HW215027   3.005   1.517   2.964 -0.2656  0.1129 -0.2382
 4867SOL     OW15028   3.691   5.324   4.300  0.7774  0.0930 -0.4178
 4867SOL    HW115029   3.762   5.263   4.317  0.4481  0.0257  0.7939
 4867SOL    HW215030   3.617   5.268   4.276  0.7975  0.0908 -0.4746
 4868SOL     OW15031   5.685   3.810   4.250  0.0787  0.1484  0.0228
 4868SOL    HW115032   5.616   3.823   4.314  1.6136  0.9590  1.6019
 4868SOL    HW215033   5.728   3.729   4.277  1.2361  0.9054  0.5644
 4869SOL     OW15034   4.001   2.696   4.868 -0.2427 -0.2129  0.1348
 4869SOL    HW115035   3.918   2.718   4.911 -1.1031 -2.2380 -0.3473
 4869SOL    HW215036   4.056   2.661   4.937 -0.3332 -0.2274  0.1992
 4870SOL     OW15037   3.939   0.112   5.022  0.3247 -0.0611 -0.2848
 4870SOL    HW115038   3.966   0.020   5.027  0.9288  0.1021 -0.4239
 4870SOL    HW215039   3.924   0.138   5.112 -0.0697 -0.3614 -0.2633
 4871SOL     OW15040   1.563   2.395   0.411  0.6267 -0.2002  0.1521
 4871SOL    HW115041   1.546   2.457   0.482  1.3333  0.4720 -0.2438
 4871SOL    HW215042   1.609   2.447   0.344  1.2951 -1.1616 -0.1616
 4872SOL     OW15043   3.461   2.595   1.319 -0.3027  0.5596 -0.1643
 4872SOL    HW115044   3.531   2.605   1.384  1.2328  1.0018 -1.7936
 4872SOL    HW215045   3.472   2.506   1.285 -1.8987 -0.1310  0.9960
 4873SOL     OW15046   1.638   1.288   4.584  0.1327 -0.0789  0.0223
 4873SOL    HW115047   1.551   1.317   4.557 -0.0744 -0.6269  0.1023
 4873SOL    HW215048   1.632   1.193   4.589  0.1091 -0.0293  2.1026
 4874SOL     OW15049   5.519   2.190   0.736 -0.1249  0.5514  0.3868
 4874SOL    HW115050   5.443   2.244   0.759 -0.5347 -0.0783  0.5282
 4874SOL    HW215051   5.487   2.134   0.665  0.4385  0.8171 -0.0890
 4875SOL     OW15052   2.793   6.104   0.971 -0.4002 -0.4455 -0.0621
 4875SOL    HW115053   2.727   6.133   0.908  0.2137  1.7885  0.2364
 4875SOL    HW215054   2.872   6.092   0.919 -0.2019  0.2041  0.0823
 4876SOL     OW15055   5.475   0.795   1.252 -0.1529  0.0149 -0.0243
 4876SOL    HW115056   5.395   0.825   1.209 -0.4467  0.6770  0.9334
 4876SOL    HW215057   5.493   0.863   1.317  1.2824 -0.0471 -0.3268
 4877SOL     OW15058   6.075   3.827   3.590  0.0055  0.5071 -0.1640
 4877SOL    HW115059   6.097   3.812   3.682 -1.4845 -3.3163 -0.2746
 4877SOL    HW215060   6.156   3.808   3.543  0.3201  0.8357  0.2307
 4878SOL     OW15061   0.717   2.000   4.364 -0.0520 -0.2514  0.8260
 4878SOL    HW115062   0.695   2.092   4.378 -0.4622 -0.4909  1.8621
 4878SOL    HW215063   0.806   1.991   4.399  0.1314 -0.1786  0.3894
 4879SOL     OW15064   6.128   5.866   4.099  0.1761  0.3150  0.7792
 4879SOL    HW115065   6.081   5.888   4.179  0.8132  0.2686  1.1727
 4879SOL    HW215066   6.074   5.798   4.058 -0.3692  0.6387  0.9554
 4880SOL     OW15067   0.215   2.836   4.303 -0.7636  0.2055  0.3484
 4880SOL    HW115068   0.278   2.767   4.325  0.2441  1.5073  1.7554
 4880SOL    HW215069   0.221   2.898   4.375 -3.3084  0.6619  0.2453
 4881SOL     OW15070   4.944   4.108   2.373 -0.4145 -0.0919  0.9140
 4881SOL    HW115071   5.020   4.100   2.432  1.8834  0.9810 -1.6823
 4881SOL    HW215072   4.936   4.022   2.334 -0.1978 -0.0779  0.8346
 4882SOL     OW15073   3.926   5.904   2.891 -1.0718  0.1915 -0.4300
 4882SOL    HW115074   3.913   5.975   2.954  0.2061  2.5446 -2.6126
 4882SOL    HW215075   4.015   5.874   2.907 -0.2044  1.7975 -1.9367
 4883SOL     OW15076   0.204   4.616   0.965 -0.1085 -0.0492 -0.0075
 4883SOL    HW115077   0.284   4.607   1.017  0.7435 -0.8583 -1.3795
 4883SOL    HW215078   0.143   4.553   1.003 -0.0950  0.5458  1.0290
 4884SOL     OW15079   3.959   3.394   3.632 -0.3661 -0.3596 -0.1396
 4884SOL    HW115080   3.978   3.488   3.626 -3.5171  0.4183  0.0928
 4884SOL    HW215081   3.916   3.373   3.549 -0.3929 -1.4026  0.1246
 4885SOL     OW15082   0.101   1.910   0.146 -0.6123  0.2545 -0.4445
 4885SOL    HW115083   0.089   1.873   0.233 -1.5576  0.7552 -0.3453
 4885SOL    HW215084   0.056   1.849   0.088 -0.9159  0.4804 -0.4495
 4886SOL     OW15085   2.251   4.082   3.263 -0.1686 -0.4743  0.0203
 4886SOL    HW115086   2.175   4.062   3.209 -0.3062  0.5385 -0.1730
 4886SOL    HW215087   2.276   4.170   3.238  0.4419 -0.4055  0.8269
 4887SOL     OW15088   2.540   3.710   1.039  0.2746  0.6269  0.3883
 4887SOL    HW115089   2.582   3.771   0.978  1.4930  0.5304  1.1057
 4887SOL    HW215090   2.598   3.708   1.115 -0.1387 -0.8473  0.6912
 4888SOL     OW15091   0.130   0.791   1.934  0.5948 -0.1435 -0.3910
 4888SOL    HW115092   0.120   0.863   1.997  1.5004 -0.7841  0.5289
 4888SOL    HW215093   0.101   0.828   1.851  0.1348  0.9866  0.2418
 4889SOL     OW15094   0.085   1.186   5.823 -0.2557  0.1753  0.2960
 4889SOL    HW115095   0.016   1.251   5.810  0.5862  0.8300 -1.0619
 4889SOL    HW215096   0.043   1.103   5.801 -0.4825  0.6206 -1.0406
 4890SOL     OW15097   3.243   4.401   4.176  0.3405 -0.3578 -0.4231
 4890SOL    HW115098   3.270   4.359   4.258  0.1132  0.9066  0.3186
 4890SOL    HW215099   3.326   4.415   4.129  0.5904 -0.1514  0.0624
 4891SOL     OW15100   1.873   4.501   3.903  0.2381 -0.7143  0.7513
 4891SOL    HW115101   1.864   4.579   3.958  0.7482 -0.3535  0.3438
 4891SOL    HW215102   1.964   4.502   3.875 -0.1903 -0.4183 -0.7592
 4892SOL     OW15103   6.096   3.158   0.243  0.5587  0.0033  0.4216
 4892SOL    HW115104   6.085   3.105   0.164 -0.3567  1.8188 -0.7621
 4892SOL    HW215105   6.169   3.118   0.289 -1.4395 -3.5859  0.7974
 4893SOL     OW15106   3.921   0.433   1.902  0.2436 -0.1362 -0.6812
 4893SOL    HW115107   4.004   0.466   1.869 -0.4567  0.4538 -1.9239
 4893SOL    HW215108   3.869   0.511   1.919  0.7443 -0.3651  2.4682
 4894SOL     OW15109   4.644   2.240   4.864 -0.1175 -0.0273  0.4004
 4894SOL    HW115110   4.548   2.237   4.862 -0.1715  1.1210 -0.0630
 4894SOL    HW215111   4.667   2.219   4.954 -1.0438  3.1499  1.5269
 4895SOL     OW15112   3.442   1.662   0.033 -0.2920  0.3540  0.3673
 4895SOL    HW115113   3.439   1.722  -0.042  0.1232 -0.3280 -0.2048
 4895SOL    HW215114   3.449   1.720   0.109 -0.5623  1.0536 -0.1229
 4896SOL     OW15115   0.736   2.160   3.886  0.0569 -0.3686  0.4543
 4896SOL    HW115116   0.646   2.136   3.867 -0.0022  0.1450  0.0487
 4896SOL    HW215117   0.767   2.203   3.806  0.4516  0.0457  0.8205
 4897SOL     OW15118   0.586   0.313   0.865 -0.2605 -0.1802  0.3086
 4897SOL    HW115119   0.660   0.255   0.849  0.3413  0.1132  1.8558
 4897SOL    HW215120   0.524   0.293   0.795 -0.1729 -2.8454  0.8946
 4898SOL     OW15121   3.198   2.217   2.941 -0.0649  0.3937 -0.0627
 4898SOL    HW115122   3.112   2.254   2.923 -0.7806 -1.3812 -0.5609
 4898SOL    HW215123   3.183   2.155   3.013  0.9595  0.6425  0.3923
 4899SOL     OW15124   3.857   3.399   6.146 -0.3011 -0.0561  0.0248
 4899SOL    HW115125   3.779   3.396   6.091 -0.8064 -1.4632  0.7797
 4899SOL    HW215126   3.826   3.374   6.233  0.5709  1.6429  0.8828
 4900SOL     OW15127   0.394   1.626   5.075 -0.2513  0.7261  0.3709
 4900SOL    HW115128   0.383   1.714   5.040 -0.0017  0.5921 -0.0545
 4900SOL    HW215129   0.482   1.600   5.048 -0.9608 -0.3410 -1.0601
 4901SOL     OW15130   0.260   0.461   5.090  0.3526 -0.2300  0.7342
 4901SOL    HW115131   0.238   0.553   5.105 -0.0410  0.1784 -1.8898
 4901SOL    HW215132   0.184   0.425   5.045  1.5350 -1.1078 -0.6662
 4902SOL     OW15133   3.584   3.485   0.387  0.1613  0.2416  0.0263
 4902SOL    HW115134   3.665   3.529   0.414  0.6902 -0.0234 -1.0673
 4902SOL    HW215135   3.532   3.554   0.345  0.6284  0.0315 -0.9284
 4903SOL     OW15136   2.103   4.579   1.615  0.3945 -0.3447  0.4100
 4903SOL    HW115137   2.025   4.525   1.620  0.6898 -0.8099  0.1299
 4903SOL    HW215138   2.167   4.535   1.671  0.8341 -0.6320 -0.2991
 4904SOL     OW15139   0.176   2.962   0.936 -0.4490 -0.7896  0.0159
 4904SOL    HW115140   0.205   2.989   1.022  0.9836 -1.5756 -0.1810
 4904SOL    HW215141   0.081   2.973   0.937 -0.2345  1.2366  0.9387
 4905SOL     OW15142   3.671   1.679   2.039 -0.2262 -0.3386  0.1052
 4905SOL    HW115143   3.587   1.642   2.011 -1.8980  0.3762  3.7210
 4905SOL    HW215144   3.728   1.602   2.049 -0.2483 -0.8145 -2.5635
 4906SOL     OW15145   3.259   5.672   6.163  0.1208  0.5907  0.3030
 4906SOL    HW115146   3.348   5.698   6.186  0.4152 -0.3853  0.3177
 4906SOL    HW215147   3.205   5.746   6.189  0.7505  0.5906  1.7478
 4907SOL     OW15148   0.176   4.701   3.755 -0.3842  0.0552 -0.5331
 4907SOL    HW115149   0.113   4.761   3.795  1.3388  1.3835  0.3299
 4907SOL    HW215150   0.193   4.738   3.668  1.6402  1.6942  0.4610
 4908SOL     OW15151   3.474   1.919   1.463  0.4674  0.4553 -0.1447
 4908SOL    HW115152   3.498   2.008   1.486 -1.0969  0.7859  0.3264
 4908SOL    HW215153   3.518   1.865   1.530  0.0633  1.0118  0.5847
 4909SOL     OW15154   1.077   6.113   5.028  0.5238  0.2309  0.1999
 4909SOL    HW115155   1.034   6.196   5.006 -0.1731  0.2485  1.5068
 4909SOL    HW215156   1.007   6.049   5.029  0.4696  0.2515  2.3335
 4910SOL     OW15157   2.619   5.650   2.683 -0.9138 -0.1836  0.2476
 4910SOL    HW115158   2.587   5.734   2.717 -0.8079  0.0612 -0.2442
 4910SOL    HW215159   2.636   5.597   2.761 -1.6200  0.0158  0.5424
 4911SOL     OW15160   1.367   5.274   4.604  0.1539 -0.4380 -0.1177
 4911SOL    HW115161   1.455   5.243   4.582  0.0359 -0.1832 -0.9851
 4911SOL    HW215162   1.330   5.206   4.660  0.9085 -0.5373  0.2665
 4912SOL     OW15163   1.526   2.228   4.332 -0.0504  0.2154  0.0757
 4912SOL    HW115164   1.482   2.206   4.250 -0.0013  1.1436 -0.2133
 4912SOL    HW215165   1.458   2.218   4.399 -0.2424 -0.0160 -0.1511
 4913SOL     OW15166   2.528   3.466   3.640 -0.1405 -0.4381 -0.3366
 4913SOL    HW115167   2.494   3.545   3.680 -0.5304 -0.4234 -0.6906
 4913SOL    HW215168   2.562   3.494   3.555  0.2609 -0.5478 -0.2146
 4914SOL     OW15169   0.078   3.094   1.870 -0.0282 -0.1596 -0.2941
 4914SOL    HW115170   0.091   3.173   1.923  0.4250 -0.6380  0.3227
 4914SOL    HW215171   0.163   3.079   1.828 -0.7157  0.9280 -2.1935
 4915SOL     OW15172   3.134   4.643   0.001 -0.1275 -0.3798 -0.0050
 4915SOL    HW115173   3.138   4.598  -0.083  1.8936 -1.8168  0.7784
 4915SOL    HW215174   3.067   4.596   0.050 -1.4160  0.5517 -0.7913
 4916SOL     OW15175   5.115   3.507   2.734  0.1459  0.2727 -0.1682
 4916SOL    HW115176   5.208   3.487   2.743  0.0349 -0.9734 -1.3876
 4916SOL    HW215177   5.106   3.597   2.765  1.8793  0.6653 -0.7282
 4917SOL     OW15178   3.641   3.788   1.805 -0.3681 -0.0796  0.1989
 4917SOL    HW115179   3.676   3.740   1.880 -2.2545 -1.2414  0.3895
 4917SOL    HW215180   3.548   3.800   1.825 -0.4263  1.6781 -0.8938
 4918SOL     OW15181   1.029   3.951   0.915  0.1530 -0.2522  0.1337
 4918SOL    HW115182   1.095   3.884   0.897  0.0641 -0.9747  2.2635
 4918SOL    HW215183   0.960   3.935   0.850  0.6065 -1.5593 -0.0479
 4919SOL     OW15184   3.066   0.229   4.180  0.4330  0.3471 -0.2432
 4919SOL    HW115185   3.072   0.135   4.166 -0.9715  0.3216 -0.8205
 4919SOL    HW215186   3.155   0.261   4.164  0.8607 -0.8349 -0.3398
 4920SOL     OW15187   3.365   0.027   5.188  0.4655 -0.2483  0.3272
 4920SOL    HW115188   3.429   0.077   5.138  0.0491  0.5234  0.5494
 4920SOL    HW215189   3.283   0.076   5.179 -0.3650 -1.7203 -0.7549
 4921SOL     OW15190   0.802   2.921   2.499  0.0698  0.1785 -0.1224
 4921SOL    HW115191   0.880   2.965   2.466 -0.4797  1.9683  0.7828
 4921SOL    HW215192   0.782   2.967   2.581 -0.3703 -2.0393  1.1100
 4922SOL     OW15193   5.233   6.062   2.403 -0.2676  0.0318  0.4938
 4922SOL    HW115194   5.194   6.085   2.487 -0.5068  0.4296  0.2739
 4922SOL    HW215195   5.327   6.078   2.415 -0.3964  0.8936  0.4300
 4923SOL     OW15196   1.758   5.199   4.325 -0.4470  0.2406  0.0714
 4923SOL    HW115197   1.777   5.150   4.245  0.7076  0.7337  0.0183
 4923SOL    HW215198   1.695   5.145   4.372 -1.4418  0.1183 -1.3357
 4924SOL     OW15199   0.095   5.841   2.488  0.0316  0.0183  0.1258
 4924SOL    HW115200   0.061   5.914   2.539  0.7018 -0.2066  0.9276
 4924SOL    HW215201   0.176   5.817   2.532  0.2692 -0.6520 -0.6390
 4925SOL     OW15202   2.460   2.530   2.521 -0.1199 -0.5649 -0.5311
 4925SOL    HW115203   2.396   2.569   2.461  1.4580  2.5328 -0.4305
 4925SOL    HW215204   2.409   2.511   2.601 -0.9285  2.5201 -0.1582
 4926SOL     OW15205   0.207   2.329   5.556  0.4490  0.1799 -0.6163
 4926SOL    HW115206   0.263   2.395   5.597  2.6213 -2.0453  0.1777
 4926SOL    HW215207   0.265   2.283   5.495 -2.1793  2.1217 -5.0571
 4927SOL     OW15208   5.463   0.555   0.259 -0.3106  0.8776  0.0061
 4927SOL    HW115209   5.460   0.651   0.267 -1.6853  0.8447  0.0811
 4927SOL    HW215210   5.504   0.540   0.174  1.2650  1.4895  0.6198
 4928SOL     OW15211   5.208   4.219   1.110  0.2336 -0.1587  0.0397
 4928SOL    HW115212   5.297   4.225   1.077  0.6423 -1.1486  0.9343
 4928SOL    HW215213   5.216   4.221   1.205 -0.7056 -0.1962  0.1365
 4929SOL     OW15214   2.250   0.379   0.278 -0.1337 -0.0846  0.2103
 4929SOL    HW115215   2.201   0.367   0.197 -0.0187  1.7411 -0.1661
 4929SOL    HW215216   2.342   0.373   0.253 -0.0997  0.3541  0.2241
 4930SOL     OW15217   3.668   0.168   4.701 -0.0834 -0.1212  0.1038
 4930SOL    HW115218   3.583   0.171   4.743 -0.4767 -1.2681 -0.5664
 4930SOL    HW215219   3.706   0.255   4.716 -1.7258  0.7121 -0.3499
 4931SOL     OW15220   3.968   0.586   4.391  0.4106  0.5075  0.1167
 4931SOL    HW115221   3.951   0.548   4.477  1.0819 -0.3936 -0.1359
 4931SOL    HW215222   4.049   0.636   4.402  0.7421  0.0259 -0.0899
 4932SOL     OW15223   5.077   3.469   4.569 -0.0357 -0.2769  0.3276
 4932SOL    HW115224   5.000   3.438   4.616 -1.2797  2.0073 -0.0279
 4932SOL    HW215225   5.095   3.403   4.503 -1.6452 -0.8954  0.4828
 4933SOL     OW15226   3.987   1.987   1.910 -0.5244  0.6682 -0.6648
 4933SOL    HW115227   3.934   1.964   1.987  0.2221 -1.5963 -0.7315
 4933SOL    HW215228   3.923   2.001   1.840 -1.1295  0.3387 -0.1922
 4934SOL     OW15229   2.354   3.788   4.073 -0.1910 -0.1316  0.3873
 4934SOL    HW115230   2.345   3.883   4.080  0.7593 -0.0083  0.1236
 4934SOL    HW215231   2.440   3.770   4.111 -0.0240 -0.7949 -0.2915
 4935SOL     OW15232   3.619   2.426   3.099 -0.0907  0.1502 -0.4544
 4935SOL    HW115233   3.641   2.351   3.043 -0.8397  0.2626 -0.9214
 4935SOL    HW215234   3.687   2.427   3.166 -0.0370 -0.9257 -0.4696
 4936SOL     OW15235   3.420   4.804   4.288 -0.2092 -0.3121 -0.7183
 4936SOL    HW115236   3.456   4.837   4.205 -1.7317  0.4695 -1.0952
 4936SOL    HW215237   3.325   4.808   4.276 -0.6951  3.6624  2.4057
 4937SOL     OW15238   2.584   1.133   1.971  0.1485  0.0750 -0.2027
 4937SOL    HW115239   2.607   1.084   1.892  3.2959 -0.6528  1.0107
 4937SOL    HW215240   2.531   1.073   2.022  1.4899 -1.0436 -0.0526
 4938SOL     OW15241   6.160   5.044   1.408  0.0170 -0.1520 -0.0164
 4938SOL    HW115242   6.086   5.067   1.464 -0.7291 -2.0713 -0.1484
 4938SOL    HW215243   6.179   5.125   1.360 -0.1795  1.1630  1.9999
 4939SOL     OW15244   3.280   4.168   5.265 -0.0443 -0.3217 -0.0668
 4939SOL    HW115245   3.208   4.170   5.329  1.4708 -0.7086  1.7364
 4939SOL    HW215246   3.247   4.114   5.193 -1.8919  0.3202  0.2417
 4940SOL     OW15247   5.573   4.584   4.616  0.4084 -0.5614  0.2911
 4940SOL    HW115248   5.502   4.533   4.578  0.4188  0.2048 -0.8055
 4940SOL    HW215249   5.634   4.598   4.544  0.5727  0.7026  0.6524
 4941SOL     OW15250   2.313   0.358   0.601 -0.4758  0.1972 -0.3448
 4941SOL    HW115251   2.324   0.363   0.506  0.8843  0.2892 -0.1928
 4941SOL    HW215252   2.350   0.440   0.634 -0.0369 -0.2650  0.3444
 4942SOL     OW15253   3.863   0.158   1.724 -0.1657 -0.2729  0.1872
 4942SOL    HW115254   3.771   0.137   1.713 -0.3066 -0.1591  1.0412
 4942SOL    HW215255   3.865   0.252   1.738  0.1102 -0.2297 -0.1394
 4943SOL     OW15256   2.142   4.603   0.884  0.5054  0.6553 -0.1416
 4943SOL    HW115257   2.178   4.604   0.972  0.3767 -1.0556 -0.0257
 4943SOL    HW215258   2.061   4.653   0.890  0.2727  0.1833  0.8302
 4944SOL     OW15259   3.209   4.096   0.704  0.6124 -0.0880  0.1191
 4944SOL    HW115260   3.257   4.046   0.638 -0.0470  0.6974 -0.9903
 4944SOL    HW215261   3.234   4.187   0.688 -1.7059  0.4344 -0.9595
 4945SOL     OW15262   1.716   1.370   1.831 -0.0711 -0.0613 -0.2479
 4945SOL    HW115263   1.658   1.366   1.754 -1.2956  0.3124  0.6163
 4945SOL    HW215264   1.702   1.458   1.865  0.3071 -0.2956  0.5159
 4946SOL     OW15265   4.734   1.586   1.869 -0.2610  0.0863  0.0115
 4946SOL    HW115266   4.643   1.562   1.849  0.2151 -0.1497 -2.0795
 4946SOL    HW215267   4.787   1.526   1.818  1.0668  1.0149  0.2444
 4947SOL     OW15268   4.059   3.388   0.682 -0.2677  0.1384  0.0196
 4947SOL    HW115269   4.022   3.339   0.755  4.0815 -1.2572  1.5927
 4947SOL    HW215270   4.116   3.454   0.723  3.0199 -1.2552 -1.8696
 4948SOL     OW15271   1.048   6.007   3.007 -0.3000 -0.5571  0.0577
 4948SOL    HW115272   0.990   5.952   2.953 -0.2699  0.5017 -1.0856
 4948SOL    HW215273   1.065   6.084   2.954 -1.4217  1.2276  2.1275
 4949SOL     OW15274   0.923   2.378   0.031  0.6990  0.2865 -0.1615
 4949SOL    HW115275   0.860   2.317  -0.008  0.0163  0.8438  0.0645
 4949SOL    HW215276   0.872   2.429   0.094  1.4892  0.3708  0.4293
 4950SOL     OW15277   0.158   4.924   1.824  0.1247  0.0048 -0.3560
 4950SOL    HW115278   0.198   4.942   1.910 -0.4820  1.3364 -0.3382
 4950SOL    HW215279   0.210   4.974   1.762 -1.0829  1.2358 -0.4143
 4951SOL     OW15280   4.251   1.620   2.611  0.1568 -0.3870 -0.2291
 4951SOL    HW115281   4.325   1.569   2.579 -0.4125 -1.2578 -0.1992
 4951SOL    HW215282   4.239   1.591   2.701  0.4815  0.5827  0.1411
 4952SOL     OW15283   0.579   1.897   1.225  0.5236  0.1251 -0.2602
 4952SOL    HW115284   0.511   1.962   1.239  0.2632 -0.0499 -0.7012
 4952SOL    HW215285   0.594   1.859   1.312 -1.0966 -0.9727 -0.4073
 4953SOL     OW15286   0.451   3.905   2.095 -0.1540 -0.2849 -0.1485
 4953SOL    HW115287   0.384   3.934   2.034 -2.0763  0.0628  1.9947
 4953SOL    HW215288   0.458   3.810   2.080 -2.1953 -0.5884  0.4903
 4954SOL     OW15289   6.136   2.989   3.091 -0.0799  0.0689 -0.0257
 4954SOL    HW115290   6.209   2.987   3.030  0.9959 -0.5619  1.2374
 4954SOL    HW215291   6.141   3.076   3.131 -0.2186  0.1375 -0.1542
 4955SOL     OW15292   5.688   3.409   0.891 -0.2075  0.1074 -0.2320
 4955SOL    HW115293   5.777   3.388   0.865 -0.3069  1.0515 -1.4265
 4955SOL    HW215294   5.640   3.327   0.882  0.8400 -0.8267  2.0075
 4956SOL     OW15295   0.468   3.503   4.102 -0.2031 -0.1313 -0.1023
 4956SOL    HW115296   0.399   3.562   4.131  1.7003  1.3520  1.6845
 4956SOL    HW215297   0.457   3.424   4.154 -2.1742 -1.0924 -1.8260
 4957SOL     OW15298   2.371   4.216   4.719  0.6562 -0.0014  0.2530
 4957SOL    HW115299   2.404   4.299   4.753 -0.9235  0.3090  1.1236
 4957SOL    HW215300   2.444   4.155   4.730  2.4725  1.5695 -1.9594
 4958SOL     OW15301   3.326   5.373   2.100 -0.0196  0.0625 -0.1715
 4958SOL    HW115302   3.358   5.295   2.145  0.1652  0.0379 -0.3481
 4958SOL    HW215303   3.390   5.389   2.031 -1.5041 -1.2569 -1.9503
 4959SOL     OW15304   1.123   2.282   3.958  0.0716 -0.0431 -0.3973
 4959SOL    HW115305   1.128   2.189   3.940 -1.6158  0.0391 -1.4830
 4959SOL    HW215306   1.161   2.324   3.880 -0.8756  0.1933 -0.7429
 4960SOL     OW15307   4.884   0.988   1.739 -0.0518 -0.5299  0.5153
 4960SOL    HW115308   4.806   0.937   1.764  0.0369 -0.2582  1.3787
 4960SOL    HW215309   4.864   1.021   1.652 -1.9247  1.4731  1.5908
 4961SOL     OW15310   1.917   5.558   1.929 -0.1455 -0.5288  0.2326
 4961SOL    HW115311   1.935   5.570   2.022 -0.9604  0.7874  0.2483
 4961SOL    HW215312   1.900   5.465   1.920  0.5679 -0.7832  1.2842
 4962SOL     OW15313   6.175   3.731   3.876 -0.4410 -0.4642 -0.0090
 4962SOL    HW115314   6.093   3.687   3.899 -1.4867  0.9411 -0.8952
 4962SOL    HW215315   6.198   3.780   3.954 -2.0753  1.4770 -0.6690
 4963SOL     OW15316   5.142   2.285   0.426  0.3451  0.8860  0.1440
 4963SOL    HW115317   5.080   2.253   0.360 -0.3869  1.5344  0.5013
 4963SOL    HW215318   5.216   2.226   0.419 -0.9613 -0.9208  0.7836
 4964SOL     OW15319   3.639   5.605   4.614 -0.2378  0.6725  0.0834
 4964SOL    HW115320   3.548   5.626   4.593 -0.0073 -0.0810 -1.8356
 4964SOL    HW215321   3.678   5.688   4.638 -0.7688  1.4782 -1.7024
 4965SOL     OW15322   1.514   3.275   1.856 -0.0182  0.1295 -0.5728
 4965SOL    HW115323   1.487   3.367   1.857 -0.0037  0.1426  0.3988
 4965SOL    HW215324   1.510   3.249   1.948 -0.1647 -0.8856 -0.8545
 4966SOL     OW15325   0.928   2.752   1.164 -0.2918 -0.6023  0.5546
 4966SOL    HW115326   0.846   2.706   1.146  0.6562 -2.6165  1.0559
 4966SOL    HW215327   0.965   2.769   1.077 -1.3048  0.5071  0.3165
 4967SOL     OW15328   5.791   0.283   4.649 -0.8840 -0.0219  0.1484
 4967SOL    HW115329   5.734   0.305   4.575 -1.3734 -0.1711  0.4749
 4967SOL    HW215330   5.832   0.200   4.624 -1.0089 -0.0457  0.0200
 4968SOL     OW15331   1.599   0.157   3.818 -0.6333 -0.3039 -0.2559
 4968SOL    HW115332   1.618   0.089   3.882 -0.9195 -0.2015 -0.0617
 4968SOL    HW215333   1.685   0.182   3.782 -0.3146  0.6469  1.0984
 4969SOL     OW15334   4.089   0.942   3.466 -0.2160  0.3584  0.2259
 4969SOL    HW115335   4.074   0.893   3.546  0.6705 -0.6326 -0.1850
 4969SOL    HW215336   4.004   0.944   3.422 -1.1086  2.3020  1.8889
 4970SOL     OW15337   4.999   5.141   3.945  0.0292 -0.0626  0.8187
 4970SOL    HW115338   5.089   5.140   3.913  0.2672  1.2145  1.3946
 4970SOL    HW215339   4.975   5.234   3.947 -1.5902 -0.4140 -0.1026
 4971SOL     OW15340   4.755   6.211   0.617  0.0814  0.2142  0.0133
 4971SOL    HW115341   4.839   6.173   0.592  0.0852 -0.1949  0.6405
 4971SOL    HW215342   4.751   6.201   0.712 -2.4046 -3.4422 -0.3025
 4972SOL     OW15343   4.548   3.665   0.573  0.1892  0.3901 -0.1049
 4972SOL    HW115344   4.513   3.747   0.538 -0.4687 -0.0103 -0.3866
 4972SOL    HW215345   4.636   3.688   0.603  0.1754  1.0982 -0.5863
 4973SOL     OW15346   2.759   3.598   4.660 -0.1777  0.4392 -0.4733
 4973SOL    HW115347   2.797   3.624   4.577  0.6356  0.2690 -0.1638
 4973SOL    HW215348   2.813   3.641   4.727  0.0945 -0.5648 -0.0061
 4974SOL     OW15349   3.601   3.993   2.065 -0.3401 -0.4315 -0.2890
 4974SOL    HW115350   3.597   4.048   2.143 -3.8667 -0.1353 -0.4992
 4974SOL    HW215351   3.556   4.045   1.998  1.0864 -1.3835 -2.0769
 4975SOL     OW15352   4.351   4.350   6.174  0.4148  0.4055 -0.3895
 4975SOL    HW115353   4.346   4.265   6.130 -0.0254  0.4506 -0.4308
 4975SOL    HW215354   4.419   4.339   6.240  0.0673 -0.1067 -0.1155
 4976SOL     OW15355   0.127   2.015   4.249  0.2586  0.0779 -0.1695
 4976SOL    HW115356   0.205   2.071   4.253  1.0637 -1.0673  1.3146
 4976SOL    HW215357   0.130   1.976   4.162  1.3951  0.0085 -0.1165
 4977SOL     OW15358   4.713   1.133   1.108 -0.1589  0.1558  0.4829
 4977SOL    HW115359   4.779   1.174   1.163 -0.5819  2.6181 -0.6867
 4977SOL    HW215360   4.639   1.117   1.166  1.1800 -2.1519  1.6852
 4978SOL     OW15361   4.693   1.573   1.546  0.2295  0.6836 -0.4634
 4978SOL    HW115362   4.667   1.658   1.581 -2.0603  0.0778 -0.5455
 4978SOL    HW215363   4.682   1.581   1.451  0.5805  0.4793 -0.5230
 4979SOL     OW15364   3.605   2.425   2.801 -0.0296 -0.0856  0.7508
 4979SOL    HW115365   3.607   2.349   2.859 -1.2887  0.1238  1.0996
 4979SOL    HW215366   3.602   2.501   2.859 -0.9656  0.1388  0.4306
 4980SOL     OW15367   0.396   2.043   1.834  0.4564  0.2294  0.0851
 4980SOL    HW115368   0.309   2.004   1.839  0.5130  0.0231 -0.4381
 4980SOL    HW215369   0.405   2.094   1.914  0.1258 -0.3085  0.4675
 4981SOL     OW15370   5.815   1.618   3.040  0.1029 -0.3566  0.0467
 4981SOL    HW115371   5.776   1.565   3.109  0.0793 -0.3676  0.0251
 4981SOL    HW215372   5.751   1.687   3.024  0.1584 -0.2901  0.1130
 4982SOL     OW15373   4.668   3.840   3.950 -0.2081 -0.3312 -0.2119
 4982SOL    HW115374   4.648   3.919   3.899 -1.4408  0.7530  1.7782
 4982SOL    HW215375   4.615   3.850   4.029  0.6214 -2.5476  0.6879
 4983SOL     OW15376   5.097   5.734   6.127  0.7936 -0.1882 -0.3242
 4983SOL    HW115377   5.026   5.791   6.158  0.6162  0.0362 -1.1309
 4983SOL    HW215378   5.121   5.682   6.204  0.7736  0.7824  0.3530
 4984SOL     OW15379   5.056   6.117   2.625  0.2244 -0.1833  0.5223
 4984SOL    HW115380   5.045   6.210   2.608 -1.6373 -0.4038  0.3382
 4984SOL    HW215381   5.000   6.099   2.701 -0.0349 -1.2712  0.1020
 4985SOL     OW15382   0.233   1.848   3.376 -0.0797  0.8672  0.3810
 4985SOL    HW115383   0.267   1.877   3.460  1.7853 -0.7614  0.2838
 4985SOL    HW215384   0.280   1.901   3.311  0.2420  0.5273  0.3282
 4986SOL     OW15385   0.343   0.435   3.963 -0.8156  0.2990  0.6527
 4986SOL    HW115386   0.259   0.420   4.005 -0.7855  0.7120  0.8626
 4986SOL    HW215387   0.393   0.355   3.980 -1.8523 -0.8049 -1.1803
 4987SOL     OW15388   4.735   0.452   3.015 -0.5180  0.5645 -0.5567
 4987SOL    HW115389   4.727   0.524   2.952 -2.5693  0.5068 -0.4358
 4987SOL    HW215390   4.664   0.392   2.992 -0.1965 -0.3438  0.7019
 4988SOL     OW15391   5.072   4.202   5.666 -0.2467 -0.1122 -0.1097
 4988SOL    HW115392   5.118   4.282   5.690 -1.9868  0.5320  1.2208
 4988SOL    HW215393   5.042   4.165   5.749  2.3804 -3.4131 -0.4015
 4989SOL     OW15394   6.216   5.473   1.659  0.4096 -0.3179 -0.0632
 4989SOL    HW115395   6.204   5.533   1.733  0.6701 -0.2175 -0.1025
 4989SOL    HW215396   6.246   5.392   1.700  0.8790 -0.1583 -0.0913
 4990SOL     OW15397   1.158   1.200   4.555 -0.2854 -0.1140  0.5467
 4990SOL    HW115398   1.160   1.174   4.463 -0.0239 -0.1035  0.5477
 4990SOL    HW215399   1.072   1.240   4.567  0.5831  2.1812 -0.3412
 4991SOL     OW15400   0.908   5.758   4.556  0.8928  0.2442  0.2170
 4991SOL    HW115401   0.937   5.729   4.643  0.0295 -0.7848  0.1755
 4991SOL    HW215402   0.969   5.715   4.496 -0.6360 -1.9524  0.1272
 4992SOL     OW15403   1.250   5.997   4.367  0.2453  0.1102  0.0814
 4992SOL    HW115404   1.255   5.985   4.273 -1.1056  0.4093 -0.0419
 4992SOL    HW215405   1.270   5.911   4.404  0.8392  0.0115 -0.4657
 4993SOL     OW15406   3.929   0.009   5.932  0.0654 -0.4009  0.4079
 4993SOL    HW115407   3.964  -0.074   5.966  0.9306  0.1141  0.7996
 4993SOL    HW215408   4.004   0.069   5.933 -0.4951  0.3248 -0.0955
 4994SOL     OW15409   0.372   3.525   1.880 -0.3999 -0.9587  0.1177
 4994SOL    HW115410   0.377   3.439   1.922  1.3246 -0.8894  0.1139
 4994SOL    HW215411   0.305   3.515   1.812  2.0018 -3.3032 -2.1228
 4995SOL     OW15412   3.935   5.987   1.815  0.2672 -0.1300 -0.7009
 4995SOL    HW115413   3.958   5.952   1.729  0.5884  0.0085 -0.6710
 4995SOL    HW215414   3.849   5.948   1.834 -0.2982  0.6629 -1.5532
 4996SOL     OW15415   1.574   1.022   4.562 -0.1002 -0.2819  0.0904
 4996SOL    HW115416   1.490   1.000   4.603 -0.4150  0.6060 -0.0524
 4996SOL    HW215417   1.620   0.939   4.557 -1.1092 -0.8503 -0.1390
 4997SOL     OW15418   1.665   3.765   2.820 -0.1546 -0.0680 -0.4178
 4997SOL    HW115419   1.741   3.725   2.778 -0.2845  0.4770 -1.1874
 4997SOL    HW215420   1.658   3.720   2.904 -0.3368 -1.6977 -1.2731
 4998SOL     OW15421   1.615   4.871   3.994 -0.0901 -0.4201  0.2237
 4998SOL    HW115422   1.571   4.860   3.910 -0.7457  2.5405  0.0507
 4998SOL    HW215423   1.551   4.920   4.047  1.5731  0.7188  1.2576
 4999SOL     OW15424   5.099   0.504   3.689  0.8890 -0.0006 -0.2775
 4999SOL    HW115425   5.171   0.560   3.718  0.4481  0.7985 -0.6616
 4999SOL    HW215426   5.126   0.415   3.710  1.8590  0.3177 -0.1592
 5000SOL     OW15427   0.811   3.940   3.163  0.4273  0.1501 -0.4884
 5000SOL    HW115428   0.840   3.888   3.238  0.5388  0.6927 -0.1482
 5000SOL    HW215429   0.860   4.022   3.170  0.0884  0.3932 -0.8882
 5001SOL     OW15430   3.139   3.356   5.353 -0.1507 -1.0065  0.5900
 5001SOL    HW115431   3.118   3.279   5.300  2.0896 -0.5650 -1.0844
 5001SOL    HW215432   3.235   3.360   5.352 -0.1829  2.1911  0.0179
 5002SOL     OW15433   2.069   5.683   0.030 -0.4086  0.4899  0.2999
 5002SOL    HW115434   2.027   5.601   0.004 -1.7348  1.3455 -0.3433
 5002SOL    HW215435   2.018   5.713   0.105 -0.6662  1.2988 -0.1876
 5003SOL     OW15436   5.124   3.674   5.530  0.0963 -0.4519 -0.4622
 5003SOL    HW115437   5.031   3.654   5.520  0.0647 -1.1122  0.9315
 5003SOL    HW215438   5.128   3.769   5.534 -0.6472 -0.4509  0.5115
 5004SOL     OW15439   0.467   1.527   1.746 -0.1603 -0.0862 -0.1512
 5004SOL    HW115440   0.378   1.562   1.742 -0.1750 -0.2004 -1.8241
 5004SOL    HW215441   0.518   1.595   1.789 -0.9194  0.2915  0.1699
 5005SOL     OW15442   0.042   0.735   0.139  0.0597 -0.7726 -0.2151
 5005SOL    HW115443   0.011   0.825   0.148 -1.2753 -1.3751  2.0650
 5005SOL    HW215444   0.137   0.743   0.134  0.0438  0.7535  0.9563
 5006SOL     OW15445   5.823   3.719   3.676 -0.2970  0.7027 -0.4962
 5006SOL    HW115446   5.795   3.775   3.604  0.5744 -2.2743 -3.3967
 5006SOL    HW215447   5.918   3.712   3.666 -0.1137  0.4103  1.1301
 5007SOL     OW15448   1.557   0.514   2.417 -0.5311 -0.0895 -0.3476
 5007SOL    HW115449   1.610   0.511   2.337  1.1853  0.7462  0.7169
 5007SOL    HW215450   1.503   0.435   2.412  1.3120 -1.3811 -1.1651
 5008SOL     OW15451   5.582   0.261   4.815 -0.4751 -0.4330  0.0572
 5008SOL    HW115452   5.647   0.300   4.756 -0.4118 -0.9484 -0.2158
 5008SOL    HW215453   5.600   0.302   4.900  0.5704 -0.9682  0.1131
 5009SOL     OW15454   1.508   4.346   1.812 -0.0516 -0.5846  0.0559
 5009SOL    HW115455   1.491   4.298   1.731  0.6052 -1.3686  0.3721
 5009SOL    HW215456   1.427   4.336   1.863 -0.7635  0.5605 -0.7945
 5010SOL     OW15457   2.668   2.122   2.577 -0.2967 -0.1996 -0.4009
 5010SOL    HW115458   2.680   2.028   2.593  1.1351 -0.1872 -1.2184
 5010SOL    HW215459   2.634   2.156   2.659 -0.8024 -1.4243 -0.0739
 5011SOL     OW15460   0.862   3.456   1.079  0.4711 -0.8808 -0.2139
 5011SOL    HW115461   0.783   3.441   1.131 -0.8185 -1.4573 -2.2346
 5011SOL    HW215462   0.910   3.373   1.085  1.5007 -0.1958  1.8473
 5012SOL     OW15463   5.366   4.928   1.079  0.1863  0.0496 -0.2968
 5012SOL    HW115464   5.393   4.873   1.153 -1.0367 -3.3717 -2.1688
 5012SOL    HW215465   5.273   4.944   1.095  0.1121 -0.0120 -0.6573
 5013SOL     OW15466   2.312   0.276   3.810 -0.3356 -0.5805  0.4212
 5013SOL    HW115467   2.403   0.301   3.792 -0.5595  0.4246  0.6372
 5013SOL    HW215468   2.319   0.211   3.880  0.3100 -1.7499 -0.6832
 5014SOL     OW15469   2.752   3.395   2.662 -0.5611 -0.1486 -0.5648
 5014SOL    HW115470   2.762   3.307   2.697  0.5941  0.2540  0.1536
 5014SOL    HW215471   2.796   3.452   2.725  0.5653  0.7247 -2.0638
 5015SOL     OW15472   5.185   1.044   5.432  0.2710 -0.1960 -0.0785
 5015SOL    HW115473   5.191   1.121   5.375 -1.3173 -1.1846 -1.6827
 5015SOL    HW215474   5.163   0.972   5.373 -0.5645 -1.4534  1.6797
 5016SOL     OW15475   4.626   2.578   5.514 -0.4197  0.3539 -0.2237
 5016SOL    HW115476   4.605   2.502   5.461  1.3603  0.3858 -1.0547
 5016SOL    HW215477   4.640   2.649   5.450  1.7447  0.3938  0.2175
 5017SOL     OW15478   2.162   0.979   0.027  0.0687 -0.6011 -0.2746
 5017SOL    HW115479   2.080   0.970  -0.023 -0.8231 -0.8389  1.1752
 5017SOL    HW215480   2.133   1.008   0.114  1.3409 -2.6484  0.8981
 5018SOL     OW15481   5.064   4.324   5.926  0.1163 -0.1290  0.5624
 5018SOL    HW115482   5.154   4.354   5.937 -0.2154  0.6925  1.1569
 5018SOL    HW215483   5.049   4.265   5.999  0.4186 -0.9030  0.0111
 5019SOL     OW15484   5.047   3.685   4.400 -0.0499  0.8766  0.1426
 5019SOL    HW115485   5.006   3.653   4.320 -0.8239 -1.0804  1.2500
 5019SOL    HW215486   5.063   3.606   4.452  0.2543  2.0960  1.9940
 5020SOL     OW15487   4.850   1.324   0.864 -0.7936  0.3088  0.1178
 5020SOL    HW115488   4.907   1.265   0.815 -0.9972  0.8782 -0.8229
 5020SOL    HW215489   4.824   1.273   0.941  0.3914 -0.2125  0.1969
 5021SOL     OW15490   3.238   5.424   5.076 -0.0079  0.0331  0.4238
 5021SOL    HW115491   3.285   5.410   5.158 -0.6092 -0.1791  0.7382
 5021SOL    HW215492   3.301   5.399   5.008  0.0704 -1.0255  0.8613
 5022SOL     OW15493   3.307   5.386   0.669  0.4345  0.6168 -0.6143
 5022SOL    HW115494   3.254   5.372   0.591 -2.3031 -1.5010  1.3972
 5022SOL    HW215495   3.268   5.463   0.711  0.7671  0.7229 -0.4972
 5023SOL     OW15496   4.638   6.203   3.027  1.0059 -0.3495  0.2455
 5023SOL    HW115497   4.604   6.115   3.043  0.1228  0.0123  0.4129
 5023SOL    HW215498   4.700   6.218   3.099 -0.4235 -0.0305  1.4645
 5024SOL     OW15499   6.128   5.511   5.781  0.3212 -0.6472 -0.1452
 5024SOL    HW115500   6.219   5.521   5.755  0.3594 -1.2493 -0.2425
 5024SOL    HW215501   6.082   5.487   5.700  0.0090  0.0346 -0.1787
 5025SOL     OW15502   6.000   4.286   2.421  0.3199 -0.5045 -1.4301
 5025SOL    HW115503   5.981   4.369   2.464 -0.9575 -0.8947 -1.1884
 5025SOL    HW215504   5.985   4.304   2.328  0.6952 -0.2951 -1.4512
 5026SOL     OW15505   0.904   2.796   1.435 -0.3901  0.2567 -0.3344
 5026SOL    HW115506   0.951   2.733   1.489  0.1647  1.8356  1.1265
 5026SOL    HW215507   0.907   2.759   1.347  0.5932 -1.3420  0.3271
 5027SOL     OW15508   1.800   0.701   4.333  0.1658 -0.3294 -0.4806
 5027SOL    HW115509   1.778   0.614   4.366 -3.1175  1.3223  2.4901
 5027SOL    HW215510   1.887   0.719   4.368 -0.0790 -1.6028  0.9029
 5028SOL     OW15511   4.230   5.987   1.660  0.0870 -0.0443 -0.2542
 5028SOL    HW115512   4.207   6.050   1.728  0.2409  1.7995 -1.8185
 5028SOL    HW215513   4.287   6.036   1.601  0.3652 -1.7300 -1.4558
 5029SOL     OW15514   5.299   3.763   5.336 -0.4192  0.3387  0.6704
 5029SOL    HW115515   5.236   3.735   5.270 -0.3814 -1.2735  1.2539
 5029SOL    HW215516   5.267   3.722   5.417  1.3911 -0.6022  0.9634
 5030SOL     OW15517   4.606   4.036   4.531  0.4451  0.5786  0.0412
 5030SOL    HW115518   4.532   3.975   4.542  1.6439 -0.9871 -0.1495
 5030SOL    HW215519   4.651   4.034   4.615  2.3388 -1.4219 -0.9165
 5031SOL     OW15520   6.171   5.278   3.198  0.4255 -0.8612 -0.3705
 5031SOL    HW115521   6.262   5.266   3.171  1.3587  0.5051  1.9187
 5031SOL    HW215522   6.138   5.348   3.141  1.9556  1.0771  0.9685
 5032SOL     OW15523   0.690   4.614   3.146 -0.0495 -0.1859 -0.0322
 5032SOL    HW115524   0.672   4.525   3.177  2.0169 -0.6132  0.0974
 5032SOL    HW215525   0.675   4.669   3.223  0.6004 -0.6916  0.4751
 5033SOL     OW15526   3.245   2.908   3.730 -0.0070  0.1370  0.0501
 5033SOL    HW115527   3.244   3.003   3.744  1.6570  0.0812  0.7817
 5033SOL    HW215528   3.329   2.892   3.686  1.0901 -1.2874  2.4763
 5034SOL     OW15529   4.520   1.958   0.578  0.2895 -0.4787 -0.4528
 5034SOL    HW115530   4.560   1.906   0.648  2.4096  1.0335 -0.4568
 5034SOL    HW215531   4.454   2.011   0.624  1.1640 -0.0251  0.3404
 5035SOL     OW15532   0.234   5.291   0.322  0.1154 -0.1688 -0.6673
 5035SOL    HW115533   0.309   5.331   0.366 -0.5913 -1.9402  2.3701
 5035SOL    HW215534   0.157   5.333   0.361 -0.5440 -1.3976 -0.5957
 5036SOL     OW15535   2.149   0.186   0.452  0.1360  0.2617 -0.1525
 5036SOL    HW115536   2.179   0.245   0.383 -0.5738 -1.4183 -2.0017
 5036SOL    HW215537   2.083   0.235   0.501 -0.1714  1.1082 -1.3953
 5037SOL     OW15538   3.780   1.438   4.821  0.3765 -0.0566 -0.3338
 5037SOL    HW115539   3.821   1.360   4.783 -0.8096 -0.4103 -0.9167
 5037SOL    HW215540   3.815   1.511   4.769  1.4890 -0.1745  0.2134
 5038SOL     OW15541   0.220   0.573   2.053 -0.6450  0.1183  0.1567
 5038SOL    HW115542   0.167   0.599   2.129  1.2807  2.1443  0.8997
 5038SOL    HW215543   0.197   0.636   1.985  0.4514  0.7414  0.3472
 5039SOL     OW15544   5.918   1.493   3.745  0.3559  0.4536 -0.0813
 5039SOL    HW115545   5.943   1.580   3.776  1.5837  0.1440 -0.1414
 5039SOL    HW215546   5.866   1.456   3.817  1.6618  0.4233  0.8922
 5040SOL     OW15547   3.419   3.158   0.985  0.0294  0.5207 -0.2805
 5040SOL    HW115548   3.367   3.145   0.906 -1.7831  0.4215  0.8647
 5040SOL    HW215549   3.371   3.110   1.053  2.5321 -1.0112  0.5503
 5041SOL     OW15550   3.810   4.758   0.225 -0.0257 -0.4059 -0.4052
 5041SOL    HW115551   3.904   4.753   0.206 -0.1688 -0.8391 -1.0165
 5041SOL    HW215552   3.786   4.670   0.254 -0.4516 -0.5695 -1.2438
 5042SOL     OW15553   3.958   1.713   1.286 -0.6371 -0.0110 -0.4328
 5042SOL    HW115554   3.922   1.694   1.372 -1.4677 -0.3403 -0.8477
 5042SOL    HW215555   4.000   1.799   1.296  2.1356 -1.4113  1.1329
 5043SOL     OW15556   3.762   0.995   6.084 -0.1054 -0.4314  0.3344
 5043SOL    HW115557   3.849   1.020   6.116 -0.7932  2.0184  0.4751
 5043SOL    HW215558   3.702   1.022   6.154 -1.3306  1.9724 -1.4948
 5044SOL     OW15559   4.192   0.711   0.472 -0.1754 -0.2424 -0.1954
 5044SOL    HW115560   4.185   0.801   0.440 -0.2688 -0.3062 -0.3567
 5044SOL    HW215561   4.287   0.694   0.476 -0.1688 -0.7559 -1.9293
 5045SOL     OW15562   5.247   2.048   3.579 -0.1986  0.0004  0.6310
 5045SOL    HW115563   5.246   2.136   3.617 -0.0040  1.5981 -2.6704
 5045SOL    HW215564   5.337   2.018   3.592  0.1755  0.9913  0.4500
 5046SOL     OW15565   6.144   1.405   5.836  0.4966  0.7551  0.1583
 5046SOL    HW115566   6.078   1.419   5.767 -0.9349  0.2202  1.3558
 5046SOL    HW215567   6.095   1.363   5.907  1.9018  1.3943  1.5612
 5047SOL     OW15568   5.691   0.306   0.038 -0.7197  0.3087 -0.0988
 5047SOL    HW115569   5.731   0.292   0.124 -1.2414 -0.0660  0.0879
 5047SOL    HW215570   5.643   0.388   0.047 -0.6618  0.3389 -0.0698
 5048SOL     OW15571   5.415   5.350   5.466  0.6658  0.2689  0.1640
 5048SOL    HW115572   5.357   5.382   5.535 -0.9746 -0.8429 -0.6461
 5048SOL    HW215573   5.431   5.426   5.410 -0.1158  0.5751  0.3486
 5049SOL     OW15574   1.164   0.813   4.446 -0.1288  0.4881  0.1483
 5049SOL    HW115575   1.177   0.720   4.426  0.2323  0.1846  1.7010
 5049SOL    HW215576   1.200   0.859   4.370  0.2451 -0.6285 -0.3684
 5050SOL     OW15577   3.901   0.640   3.538  0.4685 -0.0532 -0.1031
 5050SOL    HW115578   3.949   0.648   3.455 -0.2473 -2.0865 -0.7807
 5050SOL    HW215579   3.936   0.560   3.578 -0.3872 -0.0184  0.7420
 5051SOL     OW15580   5.739   1.734   0.289 -0.8432  0.0963 -0.1868
 5051SOL    HW115581   5.716   1.826   0.298 -1.3057  0.0546 -0.8440
 5051SOL    HW215582   5.833   1.730   0.306 -0.8380  0.6677 -0.0672
 5052SOL     OW15583   4.971   4.861   5.035 -0.4528  0.0473 -0.1723
 5052SOL    HW115584   5.037   4.928   5.055 -0.2386 -0.1695 -0.1428
 5052SOL    HW215585   4.951   4.821   5.119 -0.1583 -0.3084 -0.2668
 5053SOL     OW15586   0.931   0.901   6.040  0.1546 -1.0785  0.2588
 5053SOL    HW115587   0.910   0.893   6.133  0.0419  0.1508  0.3606
 5053SOL    HW215588   0.973   0.818   6.018 -1.1236 -1.9616  1.0405
 5054SOL     OW15589   3.124   3.479   1.543 -0.8539 -1.0008 -0.3039
 5054SOL    HW115590   3.190   3.409   1.537  0.4734  0.2650 -1.0500
 5054SOL    HW215591   3.050   3.437   1.587  0.3473 -2.5520  0.3755
 5055SOL     OW15592   5.985   1.610   2.652  0.4570 -0.0317 -0.6867
 5055SOL    HW115593   5.982   1.514   2.660  0.3708 -0.0513 -0.9544
 5055SOL    HW215594   6.000   1.640   2.742  1.8769 -0.3565 -0.7911
 5056SOL     OW15595   2.261   0.780   2.679 -0.0944  0.1832  0.2946
 5056SOL    HW115596   2.184   0.726   2.662  0.9015 -0.6324 -2.0611
 5056SOL    HW215597   2.331   0.717   2.698  0.3472  0.8447  0.9171
 5057SOL     OW15598   2.986   2.671   3.442  0.1459  0.4252 -0.4090
 5057SOL    HW115599   2.967   2.747   3.498 -1.4331  0.3342 -0.7784
 5057SOL    HW215600   3.011   2.602   3.503 -1.8875  0.2297  0.2681
 5058SOL     OW15601   4.457   3.523   0.812 -0.9930  0.3211  0.1169
 5058SOL    HW115602   4.399   3.447   0.822  1.7349 -1.8382  0.5600
 5058SOL    HW215603   4.421   3.570   0.737 -2.3720 -1.8407 -0.6972
 5059SOL     OW15604   4.128   5.315   0.029  0.4776  0.6521 -0.2861
 5059SOL    HW115605   4.103   5.408   0.030  3.0232  1.4556 -1.8179
 5059SOL    HW215606   4.105   5.284   0.117 -1.0142  2.5311  0.0681
 5060SOL     OW15607   0.677   2.690   5.558  0.5613  0.1180  0.1356
 5060SOL    HW115608   0.596   2.640   5.568 -0.1795  1.5875  2.4055
 5060SOL    HW215609   0.661   2.748   5.484  0.0411 -0.4476 -0.2088
 5061SOL     OW15610   2.192   3.175   2.006  0.4180  0.5656 -0.2047
 5061SOL    HW115611   2.161   3.096   2.052  1.6672  0.2617  0.1693
 5061SOL    HW215612   2.166   3.162   1.915 -0.8383  0.5053  0.1400
 5062SOL     OW15613   1.178   2.385   1.337 -0.1430 -0.6465 -0.3766
 5062SOL    HW115614   1.154   2.324   1.267 -1.2303  1.4322 -1.9293
 5062SOL    HW215615   1.114   2.368   1.406  0.0389 -1.7489 -0.4677
 5063SOL     OW15616   3.692   5.858   5.297 -0.4082 -0.3737 -0.5512
 5063SOL    HW115617   3.768   5.801   5.302 -0.8638 -1.2297 -2.4213
 5063SOL    HW215618   3.650   5.850   5.382  0.9417 -0.7968  0.1004
 5064SOL     OW15619   0.366   4.313   1.749 -1.3862 -0.0049 -0.0479
 5064SOL    HW115620   0.443   4.325   1.804 -2.0389  1.1391  0.6812
 5064SOL    HW215621   0.367   4.221   1.724  1.1413  0.3410 -1.5022
 5065SOL     OW15622   1.122   5.163   2.880  0.1640  0.3686 -0.2260
 5065SOL    HW115623   1.099   5.071   2.886 -0.4977  0.6285  2.1186
 5065SOL    HW215624   1.148   5.188   2.969  1.2000  2.2395 -0.9730
 5066SOL     OW15625   0.364   2.243   4.030 -0.3159 -0.0656 -0.1134
 5066SOL    HW115626   0.394   2.233   4.120  1.0295  0.7376 -0.4419
 5066SOL    HW215627   0.290   2.304   4.035 -0.3266 -0.1284  0.4607
 5067SOL     OW15628   4.476   0.396   1.011 -0.4967  0.2603 -0.3321
 5067SOL    HW115629   4.415   0.464   1.038  0.0536  0.5842  0.1271
 5067SOL    HW215630   4.426   0.340   0.952 -0.9973  0.9768 -0.5943
 5068SOL     OW15631   1.301   1.511   3.911  0.3870 -0.2499  0.4762
 5068SOL    HW115632   1.272   1.466   3.990 -1.3775  0.6122  0.3537
 5068SOL    HW215633   1.293   1.604   3.932  1.2136  0.0046 -0.2642
 5069SOL     OW15634   3.009   3.560   5.226  0.2285 -0.0646  0.5461
 5069SOL    HW115635   3.008   3.509   5.145 -1.1332  0.4864  0.1925
 5069SOL    HW215636   3.059   3.507   5.287  1.8504 -0.2164 -0.8310
 5070SOL     OW15637   6.162   5.123   5.108 -0.2531 -0.2776 -0.4777
 5070SOL    HW115638   6.239   5.144   5.055 -0.5111  0.1371 -0.6979
 5070SOL    HW215639   6.108   5.067   5.051 -0.5741  0.2442 -0.7023
 5071SOL     OW15640   3.373   4.716   3.000  0.7859 -0.3646 -0.6117
 5071SOL    HW115641   3.313   4.649   2.969 -0.0025  0.1666 -0.2695
 5071SOL    HW215642   3.390   4.693   3.092 -0.7200  0.7356 -0.0173
 5072SOL     OW15643   3.458   2.873   3.579  0.3071 -0.2955 -0.1460
 5072SOL    HW115644   3.514   2.885   3.501  2.4729  1.4428  1.5150
 5072SOL    HW215645   3.492   2.794   3.621  1.9984  1.0241  1.1189
 5073SOL     OW15646   3.120   2.284   5.220 -0.5987 -0.1390  0.1849
 5073SOL    HW115647   3.111   2.270   5.125  0.9929 -1.5273  0.2046
 5073SOL    HW215648   3.189   2.349   5.228 -1.7181  1.0819  0.4010
 5074SOL     OW15649   5.401   4.427   4.518  0.0675  0.2084 -0.4674
 5074SOL    HW115650   5.440   4.344   4.489  1.5661  0.7987 -0.2259
 5074SOL    HW215651   5.318   4.401   4.559  0.9211 -1.2771  0.4040
 5075SOL     OW15652   6.099   0.112   1.592  0.0366 -0.2428  0.1434
 5075SOL    HW115653   6.089   0.066   1.675  3.9911  0.9569  1.5329
 5075SOL    HW215654   6.086   0.204   1.614  0.1103  0.0068 -0.8128
 5076SOL     OW15655   4.192   3.070   1.807  0.2520 -0.2900 -0.0844
 5076SOL    HW115656   4.245   3.041   1.881  0.0455 -0.6648 -0.0811
 5076SOL    HW215657   4.104   3.037   1.826 -0.5538  2.2529  1.0772
 5077SOL     OW15658   1.774   4.201   1.750 -0.0540  0.0459  0.2448
 5077SOL    HW115659   1.682   4.211   1.773 -0.5166 -0.3297 -1.2962
 5077SOL    HW215660   1.783   4.109   1.728  0.8711 -0.0665  1.0233
 5078SOL     OW15661   0.989   2.997   0.432 -0.0467  0.0806 -0.1633
 5078SOL    HW115662   0.964   2.928   0.370  0.1120 -0.2529  0.1382
 5078SOL    HW215663   1.022   3.068   0.378  0.4921 -0.3773 -0.4407
 5079SOL     OW15664   3.805   1.206   2.905  0.1125 -0.2640  0.5849
 5079SOL    HW115665   3.874   1.168   2.851 -2.2602 -1.9640 -1.4665
 5079SOL    HW215666   3.822   1.173   2.993  0.9570 -2.0587 -0.2124
 5080SOL     OW15667   3.697   1.915   3.509 -0.2191  0.6448 -0.2827
 5080SOL    HW115668   3.760   1.861   3.461  0.2367  0.5891  0.3630
 5080SOL    HW215669   3.748   1.954   3.579 -0.8845  0.6905  0.1848
 5081SOL     OW15670   0.909   3.594   5.657 -0.2117 -0.2737 -0.3981
 5081SOL    HW115671   0.843   3.554   5.713  0.7594 -0.1047  0.9155
 5081SOL    HW215672   0.956   3.654   5.715 -0.0742  0.9542 -1.7422
 5082SOL     OW15673   0.754   5.142   2.525 -0.0364 -0.0046  0.6396
 5082SOL    HW115674   0.670   5.187   2.531  0.4824  1.1744 -0.4832
 5082SOL    HW215675   0.818   5.212   2.518  1.1208 -0.8726  1.9890
 5083SOL     OW15676   1.977   5.535   4.960  0.3452  0.2026 -0.8314
 5083SOL    HW115677   1.918   5.583   4.902  2.1354 -0.2608 -3.1875
 5083SOL    HW215678   1.977   5.446   4.925  0.3634 -0.4996  0.8510
 5084SOL     OW15679   0.947   1.414   2.233  0.0961  0.0698  0.4476
 5084SOL    HW115680   0.915   1.328   2.206  1.0769 -0.3500  0.5758
 5084SOL    HW215681   1.042   1.405   2.233  0.1933  0.9856  1.0363
 5085SOL     OW15682   2.023   1.375   0.970  1.0028  0.0399  0.0882
 5085SOL    HW115683   1.996   1.466   0.953  1.6863  0.1418 -0.4683
 5085SOL    HW215684   2.100   1.383   1.027  2.0852 -0.1202 -1.3020
 5086SOL     OW15685   3.026   5.800   5.116  0.4014 -0.3781  0.0929
 5086SOL    HW115686   3.021   5.712   5.080 -0.6010 -0.8933  1.4182
 5086SOL    HW215687   3.041   5.856   5.040 -2.4579 -1.2898 -1.2914
 5087SOL     OW15688   0.086   4.678   5.156  0.3922  0.1826 -0.1909
 5087SOL    HW115689   0.115   4.587   5.151  1.0817  0.4201 -0.7039
 5087SOL    HW215690   0.100   4.713   5.067  1.1722  1.0887  0.2693
 5088SOL     OW15691   5.001   6.145   0.502 -0.1323 -0.0447  0.1055
 5088SOL    HW115692   4.992   6.200   0.424 -1.9978 -0.3638  0.0474
 5088SOL    HW215693   5.082   6.096   0.488  1.0202  1.8855 -0.3313
 5089SOL     OW15694   3.534   5.562   1.535 -0.2915  0.2669 -0.1320
 5089SOL    HW115695   3.445   5.545   1.566 -0.5781 -0.5924 -1.3608
 5089SOL    HW215696   3.522   5.609   1.453  0.3111 -1.5549 -1.3202
 5090SOL     OW15697   1.902   3.682   5.487 -0.5217  0.3237  0.4345
 5090SOL    HW115698   1.917   3.603   5.434  1.8803  0.1462  1.2452
 5090SOL    HW215699   1.917   3.653   5.577 -0.1267  1.5669  0.7901
 5091SOL     OW15700   1.982   4.962   0.764  0.5658  0.6067  0.2608
 5091SOL    HW115701   1.975   5.042   0.816 -2.0196  0.1622  0.7420
 5091SOL    HW215702   2.034   4.987   0.688  1.1442  2.3109  1.1621
 5092SOL     OW15703   5.326   2.337   4.323  0.0514 -0.7896  0.0232
 5092SOL    HW115704   5.409   2.328   4.371 -0.2625 -0.7302  0.5804
 5092SOL    HW215705   5.305   2.248   4.295  0.6491 -0.7100 -0.7149
 5093SOL     OW15706   1.624   3.791   1.430 -0.4028  0.6955  0.3842
 5093SOL    HW115707   1.604   3.848   1.356  1.3166 -0.4445 -1.0475
 5093SOL    HW215708   1.566   3.716   1.418 -0.0982  0.4938  0.1597
 5094SOL     OW15709   5.966   2.910   0.385  0.2581 -0.2486  0.0435
 5094SOL    HW115710   5.969   2.994   0.432  2.0814  0.0804 -0.5959
 5094SOL    HW215711   6.040   2.861   0.419  1.6362 -0.0155 -2.4199
 5095SOL     OW15712   5.208   3.777   3.576  0.4711  0.3823  0.6117
 5095SOL    HW115713   5.293   3.806   3.608  1.6410 -1.9254 -0.1606
 5095SOL    HW215714   5.198   3.688   3.611 -0.7098 -0.1354 -0.9003
 5096SOL     OW15715   2.750   3.079   0.355 -0.3406  0.1560 -0.2701
 5096SOL    HW115716   2.740   3.018   0.428  2.2844 -2.4831 -1.8939
 5096SOL    HW215717   2.830   3.128   0.376  0.4458 -0.6377 -1.3101
 5097SOL     OW15718   3.655   4.225   2.592  0.0059  0.4980  0.8257
 5097SOL    HW115719   3.647   4.286   2.665 -0.5410  0.8019  0.5159
 5097SOL    HW215720   3.565   4.214   2.560  0.1612 -0.0983  0.5789
 5098SOL     OW15721   2.019   0.375   1.544 -0.2169  0.0286 -0.2337
 5098SOL    HW115722   2.083   0.401   1.477  0.2837 -2.5474 -0.8567
 5098SOL    HW215723   2.072   0.330   1.610 -1.0210  0.6133  0.8427
 5099SOL     OW15724   1.296   1.469   1.028 -0.1647 -0.5137 -0.4487
 5099SOL    HW115725   1.370   1.411   1.046  1.4002  0.9992 -1.6170
 5099SOL    HW215726   1.333   1.537   0.971 -1.4606  2.4952  2.0376
 5100SOL     OW15727   0.719   2.216   6.150  0.0916 -0.2598 -0.5124
 5100SOL    HW115728   0.738   2.159   6.075 -1.2635 -1.5691  0.0877
 5100SOL    HW215729   0.624   2.212   6.160 -0.0252  1.8933 -0.2368
 5101SOL     OW15730   5.752   2.460   2.404 -0.5979 -0.3234 -0.2623
 5101SOL    HW115731   5.695   2.424   2.336 -0.1264 -1.9684  0.1466
 5101SOL    HW215732   5.822   2.505   2.356 -1.3039  0.2292 -0.7988
 5102SOL     OW15733   0.305   4.101   4.646  0.1691 -0.3676  0.5853
 5102SOL    HW115734   0.400   4.113   4.636  0.4364 -1.1404  1.9653
 5102SOL    HW215735   0.279   4.174   4.703 -0.0584 -0.1930  0.2572
 5103SOL     OW15736   4.305   0.607   1.349  0.0720 -0.1005  1.1619
 5103SOL    HW115737   4.283   0.549   1.277 -0.0204  0.1079  1.0207
 5103SOL    HW215738   4.247   0.682   1.339  0.4302  0.1768  1.1369
 5104SOL     OW15739   1.804   1.420   5.330 -0.1797  0.0966  0.1359
 5104SOL    HW115740   1.856   1.445   5.406 -0.9412 -0.7953  0.9723
 5104SOL    HW215741   1.760   1.339   5.356 -0.5910 -0.1407 -1.1936
 5105SOL     OW15742   2.232   1.921   4.485 -0.4525  0.1019  0.1752
 5105SOL    HW115743   2.182   1.846   4.516 -0.1574 -0.3213 -0.3505
 5105SOL    HW215744   2.321   1.907   4.520 -0.5670  0.5816  0.6744
 5106SOL     OW15745   5.097   5.648   2.095 -0.3414 -0.1080  0.5205
 5106SOL    HW115746   5.182   5.604   2.098 -0.0893 -0.1108 -2.6176
 5106SOL    HW215747   5.114   5.731   2.052 -1.8759 -0.0890 -0.1361
 5107SOL     OW15748   0.969   6.079   3.275  0.5099  0.1218  0.6931
 5107SOL    HW115749   0.902   6.146   3.258  0.3678 -0.3217 -0.6427
 5107SOL    HW215750   1.001   6.054   3.188  0.5922 -1.5170  1.1505
 5108SOL     OW15751   5.133   1.998   2.078  0.1925 -0.2139 -0.2284
 5108SOL    HW115752   5.069   1.973   2.011  0.0569  0.9010 -0.5335
 5108SOL    HW215753   5.113   2.089   2.098  0.1086 -0.5759  1.4924
 5109SOL     OW15754   6.110   1.253   4.936 -0.3867  0.2732  0.3051
 5109SOL    HW115755   6.175   1.287   4.997  0.7289  1.1564 -1.2768
 5109SOL    HW215756   6.026   1.270   4.977  0.3280  0.7132  1.6360
 5110SOL     OW15757   6.025   5.084   4.343 -0.3393  0.1338  0.2347
 5110SOL    HW115758   6.034   5.041   4.427  0.0704  0.2686  0.2593
 5110SOL    HW215759   5.950   5.040   4.301 -0.9675  0.5155  0.9394
 5111SOL     OW15760   2.567   4.538   3.301 -0.3075 -0.4489 -0.0090
 5111SOL    HW115761   2.502   4.597   3.340 -2.3928 -1.4641 -1.7640
 5111SOL    HW215762   2.576   4.568   3.211  0.3966 -1.3886 -0.2620
 5112SOL     OW15763   1.512   0.903   5.512 -0.5970 -0.7517 -1.0267
 5112SOL    HW115764   1.428   0.858   5.504 -0.6347 -0.5501 -1.7636
 5112SOL    HW215765   1.513   0.966   5.440 -1.3430  1.7622  0.9905
 5113SOL     OW15766   1.364   2.459   3.936 -0.1371  0.4339 -0.2136
 5113SOL    HW115767   1.411   2.528   3.890  1.5612 -0.9308 -0.6132
 5113SOL    HW215768   1.324   2.407   3.867 -0.0815  0.0969  0.0070
 5114SOL     OW15769   3.915   4.966   6.106  0.5499 -0.4389  0.5680
 5114SOL    HW115770   3.880   5.035   6.163 -0.4815  1.7742 -2.4250
 5114SOL    HW215771   3.839   4.913   6.083  0.5402 -0.0784 -0.2665
 5115SOL     OW15772   1.375   2.944   5.145  0.1951 -0.8702  0.5273
 5115SOL    HW115773   1.464   2.910   5.137 -1.0254 -4.0695 -1.0208
 5115SOL    HW215774   1.351   2.927   5.236  0.5009 -1.8328  0.4334
 5116SOL     OW15775   5.705   5.203   0.554 -0.2101  0.1993 -0.0477
 5116SOL    HW115776   5.720   5.110   0.572  0.3019  0.7818  3.0615
 5116SOL    HW215777   5.611   5.214   0.567 -0.3578  0.0554 -0.9269
 5117SOL     OW15778   5.560   4.195   3.193 -0.5510 -0.1332  0.6474
 5117SOL    HW115779   5.641   4.146   3.184 -0.0667  0.8747 -0.9007
 5117SOL    HW215780   5.577   4.258   3.263  0.7488  1.3937 -0.9569
 5118SOL     OW15781   4.295   0.668   0.091  0.3603 -0.4478 -0.0198
 5118SOL    HW115782   4.244   0.671   0.011  1.9809 -0.9659 -1.1352
 5118SOL    HW215783   4.231   0.665   0.162 -1.1020  0.1559 -1.2858
 5119SOL     OW15784   2.467   0.467   6.082 -0.5998 -0.4838  0.4335
 5119SOL    HW115785   2.516   0.411   6.021 -0.4357  0.1641 -0.0402
 5119SOL    HW215786   2.534   0.513   6.132 -0.7259 -0.0945  0.2486
 5120SOL     OW15787   2.803   2.201   0.665  0.3618 -0.4926 -0.2826
 5120SOL    HW115788   2.731   2.202   0.602 -1.4703 -1.0662  1.6735
 5120SOL    HW215789   2.878   2.167   0.616 -1.1362 -1.5312 -1.9603
 5121SOL     OW15790   3.857   2.588   2.033  0.1970 -0.0438  0.1191
 5121SOL    HW115791   3.773   2.559   1.997 -0.0519  0.3637  0.3610
 5121SOL    HW215792   3.869   2.536   2.112  0.1935 -0.1349  0.0595
 5122SOL     OW15793   1.822   4.046   1.299  0.1004 -0.1372  0.0808
 5122SOL    HW115794   1.911   4.059   1.331  0.5191 -0.2015 -0.9951
 5122SOL    HW215795   1.814   3.951   1.286  0.7021  0.0519 -2.0034
 5123SOL     OW15796   2.826   5.081   4.349 -0.0000 -0.0607  0.1126
 5123SOL    HW115797   2.820   5.161   4.401  0.6972  0.5491 -0.7205
 5123SOL    HW215798   2.735   5.057   4.331 -0.2226  1.3653 -0.8336
 5124SOL     OW15799   3.544   3.113   2.261  0.1379 -0.1117  0.6091
 5124SOL    HW115800   3.507   3.196   2.230  1.2087 -0.4447 -1.7934
 5124SOL    HW215801   3.471   3.051   2.256  0.2130 -0.1021 -1.1903
 5125SOL     OW15802   0.429   3.796   2.556 -0.0362 -0.2361  0.0766
 5125SOL    HW115803   0.431   3.784   2.651 -1.2228 -2.7040 -0.1204
 5125SOL    HW215804   0.505   3.746   2.525  0.8748  1.3103 -0.2562
 5126SOL     OW15805   4.052   0.808   3.733 -0.1908 -0.4338  0.0484
 5126SOL    HW115806   3.989   0.839   3.799  1.7770 -0.5201  2.0702
 5126SOL    HW215807   4.044   0.713   3.735 -1.6726 -0.3885 -1.5019
 5127SOL     OW15808   2.058   0.561   2.704  0.3271  0.4279 -0.0097
 5127SOL    HW115809   2.014   0.483   2.670 -0.4326  1.2578 -1.0156
 5127SOL    HW215810   2.003   0.590   2.777 -0.9058  1.5099 -1.3170
 5128SOL     OW15811   4.904   5.889   5.954 -0.3902 -0.0564 -0.1736
 5128SOL    HW115812   4.866   5.909   6.040 -2.1399  0.3908 -1.0070
 5128SOL    HW215813   4.855   5.813   5.923  0.1164 -0.1096 -0.8615
 5129SOL     OW15814   0.035   0.516   2.523  0.3414 -0.1829  0.3967
 5129SOL    HW115815   0.069   0.431   2.551 -0.0132 -0.1148  1.0439
 5129SOL    HW215816  -0.029   0.540   2.590 -1.1547 -0.3936 -0.8913
 5130SOL     OW15817   1.253   2.626   1.219  0.4051 -0.0370 -0.0545
 5130SOL    HW115818   1.171   2.659   1.183  0.5357  1.1198  0.6784
 5130SOL    HW215819   1.229   2.544   1.262 -0.3560  0.2464  0.0735
 5131SOL     OW15820   6.172   5.298   4.291  0.4210 -0.5105 -0.0966
 5131SOL    HW115821   6.142   5.207   4.293 -0.8860 -0.1052 -0.4752
 5131SOL    HW215822   6.232   5.302   4.216 -0.7970 -0.6976 -1.1069
 5132SOL     OW15823   3.546   2.263   0.639  0.1873  0.2007 -0.2582
 5132SOL    HW115824   3.567   2.232   0.551 -1.1967  1.6829 -1.1634
 5132SOL    HW215825   3.455   2.292   0.634 -0.2879 -0.6902  1.9714
 5133SOL     OW15826   3.302   1.870   4.356 -0.4061 -0.3700 -0.0765
 5133SOL    HW115827   3.208   1.859   4.370 -0.4802 -2.1533 -1.4539
 5133SOL    HW215828   3.312   1.866   4.261  1.1182 -0.8647  0.0803
 5134SOL     OW15829   1.524   0.894   5.115  0.0872  0.5398 -0.0265
 5134SOL    HW115830   1.479   0.932   5.040  0.4807 -0.4461 -0.7979
 5134SOL    HW215831   1.565   0.815   5.080 -0.0390 -0.1498  1.3257
 5135SOL     OW15832   2.714   5.263   4.038 -0.2013  0.0105  0.0532
 5135SOL    HW115833   2.656   5.283   3.964 -0.8045 -0.1584  0.4702
 5135SOL    HW215834   2.681   5.180   4.072  0.7166 -0.4290 -0.1162
 5136SOL     OW15835   5.550   1.935   0.915  0.0382  0.6935  0.0553
 5136SOL    HW115836   5.587   1.852   0.947 -1.3917 -0.1898 -0.4752
 5136SOL    HW215837   5.504   1.971   0.991 -0.1417  0.5182  0.0304
 5137SOL     OW15838   5.431   2.480   5.009 -0.7072 -0.7117 -0.3556
 5137SOL    HW115839   5.470   2.398   4.980 -1.4004 -0.8992 -0.7672
 5137SOL    HW215840   5.506   2.533   5.037 -0.3119 -1.7797  0.6973
 5138SOL     OW15841   6.181   4.308   1.443 -0.2135 -0.1330 -0.1917
 5138SOL    HW115842   6.157   4.373   1.377 -0.7231  0.4885  0.5871
 5138SOL    HW215843   6.250   4.350   1.494 -0.0140 -0.5054 -0.1488
 5139SOL     OW15844   3.025   6.183   2.380 -0.1554 -0.1482  0.2121
 5139SOL    HW115845   2.949   6.125   2.381 -0.9803  0.8826  1.6617
 5139SOL    HW215846   3.099   6.127   2.401 -0.7563 -0.9037  0.3552
 5140SOL     OW15847   1.868   3.266   0.367 -0.3033 -0.0114 -0.4268
 5140SOL    HW115848   1.795   3.327   0.359 -0.2874 -0.0631 -1.0931
 5140SOL    HW215849   1.945   3.320   0.349 -0.3645 -0.4094 -2.0609
 5141SOL     OW15850   2.721   5.568   4.871 -0.3266 -0.0859 -0.3336
 5141SOL    HW115851   2.805   5.552   4.914 -0.3444  2.3142  0.7588
 5141SOL    HW215852   2.687   5.646   4.914 -1.6948  0.7900 -2.8298
 5142SOL     OW15853   3.050   1.354   1.028 -0.1786 -0.1156 -0.2546
 5142SOL    HW115854   3.011   1.268   1.017 -0.9599  0.2092 -0.1024
 5142SOL    HW215855   3.109   1.364   0.953  0.0360 -0.8390 -0.1863
 5143SOL     OW15856   2.465   5.341   4.478 -0.5879  0.3660  0.5117
 5143SOL    HW115857   2.494   5.384   4.397 -2.3321  0.6985  0.0192
 5143SOL    HW215858   2.505   5.393   4.548  2.3378 -0.9057 -0.0539
 5144SOL     OW15859   5.904   4.355   4.871 -0.3500 -0.2111  0.6113
 5144SOL    HW115860   5.841   4.353   4.943  1.7505  0.7750  2.6143
 5144SOL    HW215861   5.914   4.448   4.851 -0.3485 -0.4337 -0.4600
 5145SOL     OW15862   2.305   4.969   2.571  0.4189 -0.2165 -0.1507
 5145SOL    HW115863   2.347   4.921   2.642  0.0124 -0.3863 -0.0251
 5145SOL    HW215864   2.314   5.061   2.596 -0.2327 -0.2985  0.4079
 5146SOL     OW15865   1.519   1.426   2.908 -0.0765  0.5762  0.0355
 5146SOL    HW115866   1.481   1.384   2.831 -0.9597  1.0798  0.1932
 5146SOL    HW215867   1.607   1.452   2.881  0.0272 -0.2566 -0.4466
 5147SOL     OW15868   0.944   5.339   2.518 -0.2391 -0.6005 -0.1821
 5147SOL    HW115869   0.923   5.408   2.581  1.8075 -3.2240  3.8527
 5147SOL    HW215870   0.988   5.384   2.446 -1.2284  2.4732  0.9687
 5148SOL     OW15871   3.109   6.203   4.106 -0.0240 -0.9307 -0.1888
 5148SOL    HW115872   3.192   6.156   4.104  0.4344 -0.1907  0.6243
 5148SOL    HW215873   3.043   6.135   4.116  0.6918 -1.3796  1.9396
 5149SOL     OW15874   5.888   1.744   2.423 -0.1669 -0.7999  0.1579
 5149SOL    HW115875   5.908   1.693   2.501  0.0922 -0.5885  0.2281
 5149SOL    HW215876   5.828   1.689   2.373 -4.0654  0.7561  2.5992
 5150SOL     OW15877   4.140   5.686   4.288 -0.0268  0.0451 -0.0903
 5150SOL    HW115878   4.068   5.744   4.263  1.8841  2.9150  0.5925
 5150SOL    HW215879   4.097   5.605   4.315 -2.8214  0.8187 -1.8370
 5151SOL     OW15880   6.184   1.887   4.825 -0.0617 -0.1211 -0.1096
 5151SOL    HW115881   6.239   1.953   4.868 -0.7466  0.8630 -0.7181
 5151SOL    HW215882   6.160   1.827   4.896  1.4710 -0.3665  0.2479
 5152SOL     OW15883   0.716   5.955   4.837 -0.5483 -0.1301 -0.1709
 5152SOL    HW115884   0.790   6.006   4.804 -0.8955  0.2839 -0.3118
 5152SOL    HW215885   0.694   5.895   4.766  1.2014 -1.9691  0.7434
 5153SOL     OW15886   0.835   4.207   4.924  0.4846 -0.1802  0.5290
 5153SOL    HW115887   0.794   4.259   4.993 -2.3682 -3.0593  1.2370
 5153SOL    HW215888   0.809   4.251   4.843 -0.7224  0.2768  1.1352
 5154SOL     OW15889   4.806   1.577   5.603 -0.6808  0.5769  0.6891
 5154SOL    HW115890   4.752   1.639   5.653  1.7061  3.0699  0.4337
 5154SOL    HW215891   4.850   1.525   5.670  0.4258  2.0647  1.1949
 5155SOL     OW15892   2.811   1.492   2.725 -0.0889  0.4794  0.1855
 5155SOL    HW115893   2.869   1.502   2.800 -0.6303 -1.4640  0.9291
 5155SOL    HW215894   2.868   1.461   2.655  0.5365  2.9066 -0.4662
 5156SOL     OW15895   0.716   4.756   1.344  0.2838  0.4288 -0.3175
 5156SOL    HW115896   0.663   4.831   1.372  0.5538  0.3467  0.4549
 5156SOL    HW215897   0.750   4.719   1.426  2.2196  0.9795 -0.8187
 5157SOL     OW15898   5.808   5.195   4.935 -0.5949 -0.1343 -0.1546
 5157SOL    HW115899   5.745   5.139   4.888 -0.9750 -0.9263  1.2513
 5157SOL    HW215900   5.833   5.144   5.012  0.5025  0.8767  0.1863
 5158SOL     OW15901   3.796   3.507   1.030  0.2574 -0.4343 -0.1383
 5158SOL    HW115902   3.789   3.540   1.119 -2.0253 -0.4531 -0.2669
 5158SOL    HW215903   3.706   3.492   1.002  0.9808 -2.4444 -1.7009
 5159SOL     OW15904   3.287   1.382   1.607 -0.3948  0.1234  0.1733
 5159SOL    HW115905   3.196   1.354   1.611 -0.3378 -0.5201 -1.9385
 5159SOL    HW215906   3.292   1.438   1.530  1.2625 -1.0118 -0.5972
 5160SOL     OW15907   0.476   0.871   5.147  0.2408  0.6896 -0.2147
 5160SOL    HW115908   0.526   0.868   5.229 -1.0971 -0.2483  0.6116
 5160SOL    HW215909   0.423   0.950   5.154 -0.1728  0.3975  0.0317
 5161SOL     OW15910   5.707   3.260   2.858 -0.5106  0.3993  0.2245
 5161SOL    HW115911   5.768   3.314   2.808 -0.1395  0.3127  0.5846
 5161SOL    HW215912   5.759   3.184   2.885 -0.6143  0.6248  1.0551
 5162SOL     OW15913   2.016   5.332   3.106  0.6309  0.0280 -0.1060
 5162SOL    HW115914   2.014   5.394   3.179  1.9454  0.2290 -0.2206
 5162SOL    HW215915   1.956   5.369   3.041 -0.1366  0.1239  0.6276
 5163SOL     OW15916   4.070   2.585   0.540 -0.9637 -0.6560 -0.1359
 5163SOL    HW115917   4.071   2.548   0.452 -0.0055 -0.5373 -0.1946
 5163SOL    HW215918   4.109   2.516   0.595  2.0636  0.6306 -0.4509
 5164SOL     OW15919   1.891   0.965   3.295 -0.7997 -0.0537  0.0353
 5164SOL    HW115920   1.923   1.054   3.285 -0.9681 -0.0475 -0.4511
 5164SOL    HW215921   1.836   0.968   3.373 -0.7022  0.2363  0.0944
 5165SOL     OW15922   3.454   3.353   2.153 -0.1754  0.7279 -0.2593
 5165SOL    HW115923   3.400   3.377   2.228 -0.2055 -0.9673  0.3038
 5165SOL    HW215924   3.500   3.434   2.130 -0.9021  1.5224  0.9548
 5166SOL     OW15925   0.287   1.978   0.857 -0.4367  0.3483 -0.0748
 5166SOL    HW115926   0.221   1.928   0.810 -1.3300  2.3375 -1.0456
 5166SOL    HW215927   0.247   1.997   0.942  0.4043 -1.5472  0.8239
 5167SOL     OW15928   2.107   5.572   5.585  0.0963 -0.3153  0.5955
 5167SOL    HW115929   2.114   5.644   5.522  0.7780 -0.3076  0.6700
 5167SOL    HW215930   2.054   5.506   5.541  0.9359 -0.4916 -0.1634
 5168SOL     OW15931   0.606   3.092   4.120  0.3149  0.0887  0.3709
 5168SOL    HW115932   0.637   3.163   4.064 -0.3858  0.9235  1.0141
 5168SOL    HW215933   0.549   3.135   4.184  0.6765 -0.9136  1.3986
 5169SOL     OW15934   5.333   5.233   4.057 -0.8225  0.4047 -0.0020
 5169SOL    HW115935   5.371   5.318   4.035 -1.1790  0.3785 -0.7638
 5169SOL    HW215936   5.320   5.190   3.972  0.1372 -0.7525  0.4043
 5170SOL     OW15937   5.544   1.695   2.765  0.3424  0.2274 -0.0219
 5170SOL    HW115938   5.588   1.651   2.693 -0.1785 -0.6079  0.1562
 5170SOL    HW215939   5.614   1.743   2.810  0.8191  0.0449 -0.5548
 5171SOL     OW15940   0.760   0.014   3.271 -0.0971  0.3102  0.2370
 5171SOL    HW115941   0.753   0.105   3.241  1.0862 -0.0217 -1.1679
 5171SOL    HW215942   0.682  -0.029   3.237 -0.6446  0.7741  0.8781
 5172SOL     OW15943   2.773   1.619   5.257 -0.2894 -0.0685  0.1106
 5172SOL    HW115944   2.735   1.567   5.187  0.4047 -0.1975 -0.1720
 5172SOL    HW215945   2.847   1.568   5.288  1.0686  1.2062 -0.8891
 5173SOL     OW15946   3.159   1.984   0.723 -0.2506 -0.0027 -0.3672
 5173SOL    HW115947   3.148   1.910   0.784 -0.0516  0.7617  0.6210
 5173SOL    HW215948   3.210   2.048   0.772  0.6024  0.3184 -1.6381
 5174SOL     OW15949   1.079   3.683   1.114 -0.5265  0.1514 -0.7489
 5174SOL    HW115950   1.005   3.736   1.087 -0.7326 -0.8326 -2.2356
 5174SOL    HW215951   1.045   3.628   1.184 -0.1422  2.3178  1.2679
 5175SOL     OW15952   5.842   4.771   4.647 -0.0855  0.2880 -0.1155
 5175SOL    HW115953   5.760   4.795   4.604 -0.3490 -1.4186 -0.6240
 5175SOL    HW215954   5.816   4.742   4.734  0.3076  2.4160  0.7665
 5176SOL     OW15955   3.594   3.305   3.412 -0.6364  0.1829  0.0079
 5176SOL    HW115956   3.531   3.331   3.344 -0.9180 -1.8551 -0.5912
 5176SOL    HW215957   3.551   3.234   3.459  0.0442  0.7657  1.5832
 5177SOL     OW15958   1.052   1.946   2.448  0.4700 -0.1303  0.2418
 5177SOL    HW115959   0.998   1.892   2.390 -0.2770  0.1199  0.6997
 5177SOL    HW215960   1.045   1.903   2.534  2.2889 -1.0251 -0.0023
 5178SOL     OW15961   3.111   2.391   2.284  0.2336  0.3398  0.2590
 5178SOL    HW115962   3.032   2.418   2.237  0.3129  0.6821  0.3169
 5178SOL    HW215963   3.094   2.300   2.310 -0.2551  0.5014  0.5136
 5179SOL     OW15964   2.152   2.227   1.079 -0.2810  0.0157 -0.0281
 5179SOL    HW115965   2.190   2.169   1.012 -0.8724  1.1321 -1.3930
 5179SOL    HW215966   2.154   2.314   1.038 -0.7674  0.7134  1.3933
 5180SOL     OW15967   4.558   1.740   5.281  0.1675  0.0398 -0.5598
 5180SOL    HW115968   4.482   1.775   5.328 -0.4954 -1.1255 -0.7229
 5180SOL    HW215969   4.568   1.798   5.206 -0.6171  0.1697 -0.5740
 5181SOL     OW15970   3.105   1.492   3.883  0.5742  0.5526 -0.3937
 5181SOL    HW115971   3.086   1.420   3.943  1.6200 -0.7656 -1.5777
 5181SOL    HW215972   3.181   1.536   3.922 -0.7958  1.8228  0.9626
 5182SOL     OW15973   3.163   3.849   0.844  0.2495 -0.2198 -0.0312
 5182SOL    HW115974   3.200   3.927   0.802 -1.4647  0.3330 -0.6023
 5182SOL    HW215975   3.072   3.847   0.815  0.2769 -2.5624 -0.2093
 5183SOL     OW15976   3.478   5.020   2.049  0.3208  0.8198  0.0978
 5183SOL    HW115977   3.524   4.943   2.081 -1.4631 -0.6131 -0.5864
 5183SOL    HW215978   3.532   5.051   1.976  0.9423  0.0412  0.2092
 5184SOL     OW15979   1.832   0.067   4.899 -0.2061  0.3637 -0.4267
 5184SOL    HW115980   1.885   0.069   4.979  1.0835  0.5949 -1.2684
 5184SOL    HW215981   1.838   0.156   4.864 -0.0376  0.0341 -1.2539
 5185SOL     OW15982   1.285   5.366   1.411 -0.3343  0.3884 -0.5253
 5185SOL    HW115983   1.315   5.334   1.326 -1.1802 -3.3997  0.4084
 5185SOL    HW215984   1.195   5.396   1.395 -1.0926 -1.8468 -0.7706
 5186SOL     OW15985   2.139   2.987   2.206 -0.0105 -0.2629  0.1867
 5186SOL    HW115986   2.214   2.959   2.259  0.9124  0.2531 -0.8168
 5186SOL    HW215987   2.072   3.011   2.271  1.6867  2.0650  1.2442
 5187SOL     OW15988   4.516   3.025   3.681 -0.0636 -0.7938 -0.2229
 5187SOL    HW115989   4.531   3.022   3.775 -0.2306 -3.0758 -0.2139
 5187SOL    HW215990   4.604   3.028   3.643  0.0733 -1.7306 -0.0009
 5188SOL     OW15991   4.147   0.860   6.049 -0.2878 -0.0542 -0.1340
 5188SOL    HW115992   4.075   0.884   5.991 -0.5946  1.4597  0.7969
 5188SOL    HW215993   4.116   0.782   6.095 -0.6127 -0.4314 -0.9811
 5189SOL     OW15994   0.479   0.189   4.000  0.3280 -0.0998  0.3406
 5189SOL    HW115995   0.560   0.227   4.034  0.3653 -1.2756  1.6458
 5189SOL    HW215996   0.505   0.103   3.967 -0.0348  0.3419 -1.1553
 5190SOL     OW15997   2.690   0.485   2.821  0.2371  0.4863 -0.0806
 5190SOL    HW115998   2.753   0.556   2.814  1.2369 -0.4439 -0.8867
 5190SOL    HW215999   2.667   0.482   2.914  1.2793  0.9467  0.2052
 5191SOL     OW16000   0.457   4.396   1.487 -0.3749 -0.5166 -0.3659
 5191SOL    HW116001   0.426   4.393   1.578  0.9281 -1.4835  0.0907
 5191SOL    HW216002   0.404   4.464   1.445 -1.1162 -0.1661  1.0727
 5192SOL     OW16003   1.028   5.657   3.170  0.2955 -0.6702  0.0412
 5192SOL    HW116004   0.960   5.615   3.116 -0.1618  0.0461  0.0495
 5192SOL    HW216005   1.077   5.712   3.108  0.1127 -0.2678  0.2491
 5193SOL     OW16006   5.343   3.091   2.638 -0.1617 -0.1974 -0.1132
 5193SOL    HW116007   5.287   3.158   2.599 -1.3868 -3.0827 -3.8355
 5193SOL    HW216008   5.284   3.039   2.693 -1.0852 -2.4533 -3.0170
 5194SOL     OW16009   4.369   0.290   2.395 -0.3230  0.0379  0.6808
 5194SOL    HW116010   4.304   0.276   2.464 -2.6277  1.0993 -1.1317
 5194SOL    HW216011   4.344   0.373   2.356  1.5174 -0.0514 -0.8128
 5195SOL     OW16012   3.501   6.226   2.735  0.0388 -0.0266  0.2096
 5195SOL    HW116013   3.451   6.161   2.687  0.3455  0.5189 -0.8879
 5195SOL    HW216014   3.593   6.201   2.721  0.1801  0.8686 -0.6046
 5196SOL     OW16015   2.161   2.654   4.168  0.1278 -0.1430  0.0745
 5196SOL    HW116016   2.165   2.574   4.115 -0.4305 -0.1714  0.0681
 5196SOL    HW216017   2.076   2.650   4.211 -0.1833  0.7692 -0.4350
 5197SOL     OW16018   5.995   4.218   5.602 -0.4523  0.3012  0.2586
 5197SOL    HW116019   5.970   4.293   5.655 -0.1468  0.2878  0.4214
 5197SOL    HW216020   6.030   4.155   5.665 -0.6743  0.0360  0.1188
 5198SOL     OW16021   2.334   5.114   0.921 -0.3963 -0.0979  0.0796
 5198SOL    HW116022   2.408   5.085   0.973 -0.2436  0.8334  0.4034
 5198SOL    HW216023   2.262   5.120   0.984 -0.2314  0.9508  0.1853
 5199SOL     OW16024   0.013   5.635   5.340  0.0542  0.0721  0.0363
 5199SOL    HW116025  -0.071   5.637   5.386  0.0135 -1.1022  0.0434
 5199SOL    HW216026  -0.011   5.619   5.248  0.2823 -1.0054  0.1471
 5200SOL     OW16027   4.570   4.549   1.628  0.4071 -0.2470  0.0417
 5200SOL    HW116028   4.537   4.498   1.702 -0.5544  0.5989  0.2299
 5200SOL    HW216029   4.660   4.521   1.617  0.9535  0.4278  2.2935
 5201SOL     OW16030   4.403   1.507   3.117 -0.3907 -0.2683  0.3238
 5201SOL    HW116031   4.475   1.445   3.129  1.0680  0.9465 -1.4260
 5201SOL    HW216032   4.423   1.579   3.178  1.8118  1.5506 -2.2583
 5202SOL     OW16033   4.618   1.171   5.606 -0.1773 -0.4648 -0.3598
 5202SOL    HW116034   4.564   1.147   5.681 -0.9554 -0.4733 -0.9219
 5202SOL    HW216035   4.569   1.142   5.530 -0.3310  1.2879 -0.9772
 5203SOL     OW16036   2.843   3.705   4.387 -0.1931  0.3369  0.5640
 5203SOL    HW116037   2.925   3.656   4.388  0.3188  1.1729  0.8241
 5203SOL    HW216038   2.864   3.787   4.341 -0.5818  1.0430  1.5970
 5204SOL     OW16039   6.086   5.419   0.023  0.2406 -0.1407 -0.0891
 5204SOL    HW116040   6.023   5.355  -0.010  1.1316 -0.6689 -0.8166
 5204SOL    HW216041   6.084   5.407   0.118 -1.6194  0.6936  0.0184
 5205SOL     OW16042   3.053   4.162   5.429  0.0940  0.0971 -0.2400
 5205SOL    HW116043   2.965   4.126   5.438 -0.0951  0.0313 -1.9172
 5205SOL    HW216044   3.046   4.251   5.464 -0.8418  0.3376 -1.0028
 5206SOL     OW16045   1.014   3.743   5.837 -0.4545  0.2422 -0.3069
 5206SOL    HW116046   1.037   3.833   5.813 -0.9423  0.6457  0.6750
 5206SOL    HW216047   1.093   3.708   5.879 -0.9444  0.9783  1.3157
 5207SOL     OW16048   5.528   6.119   3.758 -0.3120 -0.2873 -0.5065
 5207SOL    HW116049   5.612   6.084   3.728 -0.3900 -0.7203 -0.2207
 5207SOL    HW216050   5.547   6.211   3.778  0.8496 -1.0396  2.3702
 5208SOL     OW16051   0.985   4.425   4.390  0.3746 -0.3936 -0.2800
 5208SOL    HW116052   1.070   4.414   4.433  0.0952 -1.4080  0.0325
 5208SOL    HW216053   0.962   4.517   4.405  0.7010 -0.5017  0.9663
 5209SOL     OW16054   4.643   1.836   1.685  0.3632 -0.1165  0.0537
 5209SOL    HW116055   4.601   1.891   1.751  2.3165  0.3609  0.9695
 5209SOL    HW216056   4.689   1.769   1.735  1.3926 -0.1040 -0.8245
 5210SOL     OW16057   1.084   2.989   1.296  0.0068 -0.4875  0.3226
 5210SOL    HW116058   1.121   2.997   1.208  1.2870 -0.5066  0.8344
 5210SOL    HW216059   0.994   2.959   1.282 -1.0487  2.9130 -1.1593
 5211SOL     OW16060   5.053   3.135   2.161  0.4013 -0.4232  0.2332
 5211SOL    HW116061   5.017   3.190   2.092 -1.3794 -2.7105 -0.8082
 5211SOL    HW216062   5.147   3.150   2.157  0.2595  0.2042 -2.0819
 5212SOL     OW16063   6.190   3.337   2.295 -0.7334  0.3667  0.0787
 5212SOL    HW116064   6.185   3.292   2.380 -0.1739  0.1101 -0.0190
 5212SOL    HW216065   6.154   3.424   2.312 -1.2454  0.0916  0.4194
 5213SOL     OW16066   5.171   0.400   5.103 -0.1690 -0.2039 -0.0065
 5213SOL    HW116067   5.177   0.496   5.099  2.4736 -0.3580 -1.8911
 5213SOL    HW216068   5.121   0.376   5.025 -0.3659 -0.3960  0.1787
 5214SOL     OW16069   4.986   5.471   2.983 -0.2131 -0.1416  0.3340
 5214SOL    HW116070   5.039   5.514   2.916  0.4844  1.8512  2.0566
 5214SOL    HW216071   4.900   5.513   2.976  0.6662  2.2955  2.4932
 5215SOL     OW16072   3.651   3.727   3.610  0.1050  0.3428 -0.3072
 5215SOL    HW116073   3.660   3.689   3.523  0.8481 -0.4220  0.1020
 5215SOL    HW216074   3.680   3.818   3.599  1.2758 -0.0559 -0.6164
 5216SOL     OW16075   3.481   2.815   6.123  0.7582  0.1459  0.4270
 5216SOL    HW116076   3.576   2.808   6.114  0.7519 -1.0347  1.1134
 5216SOL    HW216077   3.466   2.829   6.216  0.3361  2.4355  0.0660
 5217SOL     OW16078   5.107   6.226   1.481 -0.5353 -0.2362 -0.4753
 5217SOL    HW116079   5.176   6.248   1.419  0.0679 -0.6717  0.0266
 5217SOL    HW216080   5.026   6.252   1.438 -0.2172 -1.4083 -1.8436
 5218SOL     OW16081   0.519   3.397   5.482  0.3892  0.5959 -0.4660
 5218SOL    HW116082   0.573   3.356   5.549  2.4796  3.2950 -0.2822
 5218SOL    HW216083   0.483   3.475   5.524 -1.9862 -0.0028 -1.2472
 5219SOL     OW16084   2.841   5.012   3.810  0.1260 -0.5668 -0.0166
 5219SOL    HW116085   2.865   4.962   3.888  1.2001  0.7531  0.5503
 5219SOL    HW216086   2.870   4.958   3.736 -2.0495 -2.4328  0.3682
 5220SOL     OW16087   3.719   5.429   0.010  0.0979 -0.8531  1.2371
 5220SOL    HW116088   3.630   5.408  -0.017 -0.6425  1.5791  1.5007
 5220SOL    HW216089   3.775   5.374  -0.044 -1.5359 -1.5953  0.2449
 5221SOL     OW16090   5.593   4.174   1.292  0.2643 -0.0679 -0.3975
 5221SOL    HW116091   5.674   4.145   1.249  0.3268  0.1406 -0.4230
 5221SOL    HW216092   5.614   4.171   1.385  0.1745 -0.3869 -0.3840
 5222SOL     OW16093   2.579   4.389   5.779 -0.3350  0.1514 -0.3255
 5222SOL    HW116094   2.661   4.407   5.732  0.0237  0.8125  0.5189
 5222SOL    HW216095   2.589   4.298   5.808  0.6768  0.6080  0.8512
 5223SOL     OW16096   1.625   5.356   3.417  0.1541 -0.3598  0.2139
 5223SOL    HW116097   1.556   5.395   3.470 -0.8009 -0.6141 -0.8141
 5223SOL    HW216098   1.579   5.297   3.357  1.4552 -2.3456  1.0694
 5224SOL     OW16099   3.055   4.173   1.068  0.4823  0.4627 -0.2381
 5224SOL    HW116100   2.961   4.172   1.084  0.4354  1.6687 -0.3208
 5224SOL    HW216101   3.083   4.083   1.081 -0.9407 -0.2488 -1.8494
 5225SOL     OW16102   1.592   3.746   5.159 -0.2194 -0.2462  0.1282
 5225SOL    HW116103   1.567   3.723   5.248 -0.6545  0.6822  0.2562
 5225SOL    HW216104   1.688   3.753   5.161 -0.3076  1.1839  0.9015
 5226SOL     OW16105   5.585   2.438   5.630 -0.1423 -0.5707 -0.2489
 5226SOL    HW116106   5.529   2.404   5.560 -0.4464 -1.3790  0.3719
 5226SOL    HW216107   5.626   2.360   5.668  0.0805 -0.1372  0.4145
 5227SOL     OW16108   3.391   5.300   1.420 -0.2241  0.2502 -0.3227
 5227SOL    HW116109   3.298   5.322   1.417 -0.0628  1.0913  0.4642
 5227SOL    HW216110   3.405   5.268   1.510  0.3748  0.7536 -0.2252
 5228SOL     OW16111   4.728   2.085   0.988 -0.5533  0.2682  0.2162
 5228SOL    HW116112   4.734   2.178   0.962 -0.9923  0.8565  2.0647
 5228SOL    HW216113   4.779   2.080   1.069  0.6337 -1.4491 -0.5733
 5229SOL     OW16114   3.144   4.875   5.330  1.0978  0.3204 -0.0851
 5229SOL    HW116115   3.229   4.915   5.350  1.4966 -0.0169 -1.0642
 5229SOL    HW216116   3.154   4.841   5.241  0.0038  0.0821 -0.1236
 5230SOL     OW16117   2.793   2.482   2.775 -0.4834 -0.0703  0.5215
 5230SOL    HW116118   2.716   2.443   2.734  0.8752 -2.2693 -0.1350
 5230SOL    HW216119   2.823   2.547   2.711 -0.0967 -1.3704 -0.6794
 5231SOL     OW16120   1.065   0.471   3.168 -0.0381  0.2958 -0.1605
 5231SOL    HW116121   1.141   0.522   3.198  0.2922 -0.0651 -0.3718
 5231SOL    HW216122   0.990   0.520   3.200  0.2611  1.1787 -0.7802
 5232SOL     OW16123   4.585   2.335   5.370  0.4350 -0.1498 -0.2111
 5232SOL    HW116124   4.628   2.297   5.446  1.0285  0.3637 -0.2763
 5232SOL    HW216125   4.574   2.262   5.309 -1.6833 -0.9643  1.0441
 5233SOL     OW16126   3.738   1.626   6.209 -0.8680  0.3833  0.9444
 5233SOL    HW116127   3.645   1.604   6.212 -0.6440 -0.5462  1.4033
 5233SOL    HW216128   3.779   1.562   6.267  0.1411  0.3712  0.2211
 5234SOL     OW16129   2.198   3.967   5.530 -0.3859  0.0646  0.2888
 5234SOL    HW116130   2.122   3.932   5.577 -1.5073  1.2866 -0.5257
 5234SOL    HW216131   2.202   3.917   5.449 -1.5426  1.2398 -0.5423
 5235SOL     OW16132   3.832   1.112   1.546 -0.5285  0.3888 -0.0002
 5235SOL    HW116133   3.826   1.069   1.631  0.0459 -1.4884 -0.8510
 5235SOL    HW216134   3.773   1.062   1.490  0.5143  0.3830 -1.1429
 5236SOL     OW16135   1.643   4.555   4.568  0.5044  0.1821  0.5124
 5236SOL    HW116136   1.663   4.646   4.590  2.9526 -0.4886  1.4656
 5236SOL    HW216137   1.650   4.508   4.651  0.2815 -1.0195 -0.1212
 5237SOL     OW16138   0.961   3.291   6.022  0.0569  0.0873  0.5381
 5237SOL    HW116139   1.002   3.377   6.015 -0.0551  0.0355 -1.4570
 5237SOL    HW216140   0.870   3.305   5.996 -0.6518 -0.2152  2.6708
 5238SOL     OW16141   2.901   1.538   1.502  0.2093 -0.1143  0.1443
 5238SOL    HW116142   2.825   1.482   1.517  0.4494 -0.1652  1.1998
 5238SOL    HW216143   2.911   1.539   1.406 -2.0032  1.0842 -0.1519
 5239SOL     OW16144   1.580   5.276   2.069 -0.0370  0.6587 -0.4696
 5239SOL    HW116145   1.622   5.362   2.077 -0.6817  0.9859 -0.5831
 5239SOL    HW216146   1.652   5.214   2.082  0.6951  1.2011 -1.7731
 5240SOL     OW16147   5.193   1.120   2.944 -0.2844 -0.3018 -0.0459
 5240SOL    HW116148   5.163   1.031   2.962  0.4755 -0.6074 -0.2887
 5240SOL    HW216149   5.232   1.115   2.857 -2.4209  0.7935 -1.1733
 5241SOL     OW16150   0.113   4.107   1.388 -0.1734 -0.2971 -0.2395
 5241SOL    HW116151   0.037   4.151   1.428  2.1113  2.5093  1.4692
 5241SOL    HW216152   0.122   4.148   1.302 -2.2399 -2.8694 -1.8388
 5242SOL     OW16153   4.804   0.974   3.563  0.3008 -0.0910  0.0780
 5242SOL    HW116154   4.860   1.018   3.626 -0.4976 -0.6068  1.1924
 5242SOL    HW216155   4.845   0.889   3.548 -0.1002 -0.4238  0.8074
 5243SOL     OW16156   1.192   3.034   4.962 -0.2721  0.1794  0.1932
 5243SOL    HW116157   1.102   3.028   4.994  0.1011 -0.0211  1.2357
 5243SOL    HW216158   1.244   2.989   5.028  0.7112  1.1507  0.1078
 5244SOL     OW16159   1.670   5.838   4.387 -0.6849  0.2153  0.1490
 5244SOL    HW116160   1.597   5.805   4.335 -0.3294  0.9311 -0.8330
 5244SOL    HW216161   1.748   5.812   4.338 -0.3952  3.2016 -1.1822
 5245SOL     OW16162   0.796   3.268   0.542 -0.2700 -0.0479 -0.5037
 5245SOL    HW116163   0.745   3.344   0.512 -1.4652 -0.7999 -0.4181
 5245SOL    HW216164   0.754   3.242   0.623 -1.9969 -2.8245 -2.1609
 5246SOL     OW16165   2.555   5.280   0.615 -0.2155 -0.4190 -0.5694
 5246SOL    HW116166   2.564   5.189   0.588 -1.7040 -0.3254 -1.4963
 5246SOL    HW216167   2.480   5.313   0.565 -0.4919  0.9605  0.6685
 5247SOL     OW16168   1.905   3.949   5.403 -0.0366 -0.3506 -0.2246
 5247SOL    HW116169   1.981   3.958   5.345  0.3376 -1.9750 -0.0460
 5247SOL    HW216170   1.884   3.856   5.400  0.0068 -0.5093  2.2401
 5248SOL     OW16171   2.574   0.343   5.855 -0.4078 -0.1512 -0.4566
 5248SOL    HW116172   2.503   0.332   5.792  0.2220 -0.4299 -1.1434
 5248SOL    HW216173   2.635   0.271   5.834  0.9202  1.0999 -1.0551
 5249SOL     OW16174   2.107   2.952   3.967 -0.1269  0.0886  0.2896
 5249SOL    HW116175   2.187   2.900   3.957 -0.6340 -1.0314  1.6720
 5249SOL    HW216176   2.115   3.022   3.902  2.6248  0.8667  1.3492
 5250SOL     OW16177   5.262   3.942   1.449 -0.2952 -0.1559  0.1473
 5250SOL    HW116178   5.348   3.911   1.478 -0.5934 -0.8418  0.3104
 5250SOL    HW216179   5.219   3.864   1.413 -1.5858 -0.2643  1.8125
 5251SOL     OW16180   2.704   4.240   0.302 -0.6702 -0.1581  0.1796
 5251SOL    HW116181   2.636   4.307   0.302  0.2081  0.8072 -1.6842
 5251SOL    HW216182   2.772   4.275   0.360 -1.4886 -0.8895  1.6338
 5252SOL     OW16183   1.420   2.454   6.014 -0.0005 -0.2383 -0.5515
 5252SOL    HW116184   1.378   2.488   5.935 -1.1735 -1.0565 -0.3043
 5252SOL    HW216185   1.504   2.420   5.983  0.7623  1.8826 -0.9720
 5253SOL     OW16186   2.398   5.514   3.993 -0.2548  0.4737 -0.6659
 5253SOL    HW116187   2.302   5.514   3.992 -0.3264 -1.0875  1.0660
 5253SOL    HW216188   2.422   5.444   3.932 -0.2498  0.2111 -0.3632
 5254SOL     OW16189   4.138   5.042   1.689  0.2324  0.0335 -0.0463
 5254SOL    HW116190   4.203   4.971   1.691  0.3350  0.1389  1.4108
 5254SOL    HW216191   4.167   5.103   1.757 -1.4576  0.0080  0.7446
 5255SOL     OW16192   3.566   2.812   2.065 -0.3949 -0.5275 -0.1636
 5255SOL    HW116193   3.617   2.821   2.145 -0.2997  1.6759 -0.4145
 5255SOL    HW216194   3.631   2.803   1.995 -0.4405 -0.9348 -0.1557
 5256SOL     OW16195   3.968   1.148   0.742  0.4865  0.3772  0.5304
 5256SOL    HW116196   4.018   1.066   0.738  0.7932  0.5984 -0.5032
 5256SOL    HW216197   3.986   1.183   0.829 -1.7995 -1.9739  2.1027
 5257SOL     OW16198   3.979   1.494   4.327  0.1691  0.1206 -0.1403
 5257SOL    HW116199   3.953   1.409   4.291  0.7402  0.5467 -1.6630
 5257SOL    HW216200   4.017   1.473   4.412 -1.0132 -0.9797  0.1593
 5258SOL     OW16201   2.527   4.179   0.005  0.0496  0.8425  0.1296
 5258SOL    HW116202   2.499   4.265  -0.027 -0.3515  0.1006 -1.6445
 5258SOL    HW216203   2.619   4.192   0.029  0.3249  1.5294 -1.1744
 5259SOL     OW16204   5.059   5.312   5.880  0.9940  0.3295  0.3256
 5259SOL    HW116205   5.140   5.265   5.860  1.0964  0.3814  0.6267
 5259SOL    HW216206   5.077   5.360   5.960 -0.1268 -1.6180  1.8238
 5260SOL     OW16207   5.986   4.157   0.232  0.1478  0.1372  0.1622
 5260SOL    HW116208   6.051   4.217   0.197  0.5334  0.4346  1.3481
 5260SOL    HW216209   5.948   4.203   0.306 -2.1077  0.3491 -1.0569
 5261SOL     OW16210   6.016   3.437   1.778  0.1405 -0.1986 -0.1519
 5261SOL    HW116211   6.095   3.411   1.824 -1.7466 -1.8505  2.4702
 5261SOL    HW216212   5.988   3.358   1.732 -1.4113 -0.5603  1.3037
 5262SOL     OW16213   4.597   0.324   3.670 -0.0635  0.2273  0.0204
 5262SOL    HW116214   4.584   0.264   3.744 -1.8553 -0.4967 -0.8136
 5262SOL    HW216215   4.691   0.322   3.654  0.2419 -0.3627  1.6380
 5263SOL     OW16216   5.584   2.620   5.169  0.1288  0.5146  0.0696
 5263SOL    HW116217   5.636   2.647   5.244 -1.5484 -0.6433  1.7148
 5263SOL    HW216218   5.517   2.688   5.161 -2.2152 -1.3496  2.3015
 5264SOL     OW16219   3.644   3.957   4.166 -0.2072  0.4323  0.0520
 5264SOL    HW116220   3.653   4.020   4.095 -0.7831  0.5329  0.0679
 5264SOL    HW216221   3.573   3.899   4.139  1.1528 -1.0341 -0.5743
 5265SOL     OW16222   3.963   4.442   2.782 -0.2597  0.2199  0.4196
 5265SOL    HW116223   4.026   4.486   2.840 -0.7628 -0.5041  1.5502
 5265SOL    HW216224   4.014   4.374   2.738 -0.2897 -0.5612  1.5576
 5266SOL     OW16225   3.695   4.978   1.555  0.0070 -0.2123 -0.1636
 5266SOL    HW116226   3.689   4.943   1.644 -0.6079  0.7309  0.1825
 5266SOL    HW216227   3.709   5.072   1.567 -0.6743  0.0150 -1.0639
 5267SOL     OW16228   1.880   2.990   2.840  0.4041 -0.1341 -0.5677
 5267SOL    HW116229   1.809   3.015   2.781 -0.0143 -0.2502 -0.1199
 5267SOL    HW216230   1.840   2.988   2.927 -0.0673 -3.8720 -0.6973
 5268SOL     OW16231   5.905   2.628   3.468  0.3081  0.4028  0.2564
 5268SOL    HW116232   5.830   2.569   3.472 -0.3462  1.2168  0.0664
 5268SOL    HW216233   5.928   2.632   3.375  1.5317 -0.9895  0.4531
 5269SOL     OW16234   1.495   3.179   4.427 -0.1869  0.0575  0.0644
 5269SOL    HW116235   1.464   3.267   4.450 -0.8517 -0.8462  3.1169
 5269SOL    HW216236   1.570   3.194   4.369 -0.9060  2.5656 -0.3300
 5270SOL     OW16237   5.514   1.361   2.172 -0.0871  0.2457 -0.7370
 5270SOL    HW116238   5.533   1.310   2.093 -0.3830 -0.3181 -0.4480
 5270SOL    HW216239   5.450   1.426   2.144  0.6781  0.7964 -1.2288
 5271SOL     OW16240   0.201   5.458   5.437  0.3840 -0.5341  0.6375
 5271SOL    HW116241   0.185   5.492   5.525  1.6793  1.9273  0.0121
 5271SOL    HW216242   0.143   5.509   5.380  0.7346 -0.9426 -0.1081
 5272SOL     OW16243   3.423   4.570   3.238 -0.1387 -0.9410 -0.3241
 5272SOL    HW116244   3.430   4.552   3.332 -1.2059 -0.1773 -0.0793
 5272SOL    HW216245   3.504   4.536   3.201  0.9588  0.0532  1.0674
 5273SOL     OW16246   2.508   0.993   0.218 -0.1807 -0.4258 -0.2890
 5273SOL    HW116247   2.478   0.914   0.172 -1.5932  0.6367 -1.2923
 5273SOL    HW216248   2.530   1.054   0.148  1.3723 -0.0753  0.4798
 5274SOL     OW16249   0.317   5.490   3.448  0.0064 -0.0376  0.4849
 5274SOL    HW116250   0.341   5.421   3.385  1.7172  0.0177  1.0155
 5274SOL    HW216251   0.283   5.561   3.395  1.2337 -0.0745 -0.3743
 5275SOL     OW16252   5.665   3.145   6.229 -0.3063  0.8720 -0.1244
 5275SOL    HW116253   5.668   3.052   6.205 -1.8320  0.5404  0.7838
 5275SOL    HW216254   5.684   3.192   6.148  0.4266 -0.2260 -0.6107
 5276SOL     OW16255   2.481   3.832   5.595 -0.0389 -0.9374  0.2448
 5276SOL    HW116256   2.394   3.870   5.583  0.6067  0.6243  0.3330
 5276SOL    HW216257   2.520   3.881   5.667  1.2242 -1.0554 -0.3218
 5277SOL     OW16258   1.316   1.802   2.593  0.2198 -0.1551  0.5921
 5277SOL    HW116259   1.320   1.888   2.551 -0.2608 -1.3737 -2.1310
 5277SOL    HW216260   1.230   1.799   2.634  0.7814  1.1468  1.9495
 5278SOL     OW16261   1.075   5.034   4.993  0.3017 -0.0811 -0.4685
 5278SOL    HW116262   1.149   5.061   4.940 -0.2840 -0.3641 -1.4578
 5278SOL    HW216263   1.052   4.947   4.960 -0.6655  0.1386 -0.3955
 5279SOL     OW16264   0.539   1.627   2.663 -0.4403  0.0846 -0.7009
 5279SOL    HW116265   0.494   1.557   2.617 -1.1002  0.5888 -0.8291
 5279SOL    HW216266   0.538   1.600   2.755  0.7067 -0.8255 -0.9322
 5280SOL     OW16267   2.286   1.150   2.956 -0.2263  0.0183 -0.2117
 5280SOL    HW116268   2.359   1.208   2.935 -0.0365 -0.3433 -0.5590
 5280SOL    HW216269   2.308   1.113   3.042 -0.2507  0.3012 -0.0820
 5281SOL     OW16270   1.049   1.052   5.451  0.1786  0.0415 -0.5482
 5281SOL    HW116271   0.958   1.077   5.435 -0.8919 -1.5399  2.3494
 5281SOL    HW216272   1.083   1.121   5.508  0.2406 -0.1943 -0.2972
 5282SOL     OW16273   2.418   4.701   3.513 -0.0527 -0.0883 -0.3753
 5282SOL    HW116274   2.504   4.666   3.537  1.1651  1.4125 -2.2386
 5282SOL    HW216275   2.437   4.771   3.451 -2.6625  0.0910 -1.0987
 5283SOL     OW16276   0.269   3.810   3.983 -0.5721 -0.2869 -0.5641
 5283SOL    HW116277   0.314   3.731   3.952 -0.5577 -0.9102  0.9413
 5283SOL    HW216278   0.290   3.815   4.076  0.1474  2.0228 -0.7972
 5284SOL     OW16279   3.542   3.872   1.215 -0.1601  0.0992 -0.2367
 5284SOL    HW116280   3.613   3.872   1.151 -0.3204  0.8945 -0.4246
 5284SOL    HW216281   3.505   3.961   1.210 -0.7076 -0.0878  0.3626
 5285SOL     OW16282   1.593   2.436   2.793  0.9249  0.3663 -0.2479
 5285SOL    HW116283   1.643   2.397   2.865 -0.0259 -1.4300 -0.5206
 5285SOL    HW216284   1.653   2.500   2.754  2.3891 -0.5166  0.4890
 5286SOL     OW16285   6.092   1.648   4.979  0.1194 -0.6458 -0.4165
 5286SOL    HW116286   6.093   1.589   4.903  2.1055 -2.5569  0.9409
 5286SOL    HW216287   6.034   1.606   5.042  0.7884 -0.6836  0.1993
 5287SOL     OW16288   4.736   3.306   6.176  0.3594  0.3083 -0.1843
 5287SOL    HW116289   4.677   3.248   6.128  0.6403  0.4124 -0.6659
 5287SOL    HW216290   4.699   3.393   6.164  0.0768  0.2630  0.3286
 5288SOL     OW16291   2.965   3.009   3.329  0.0960  0.4445 -0.1624
 5288SOL    HW116292   3.056   3.037   3.335  0.4166 -0.0642 -1.8885
 5288SOL    HW216293   2.920   3.083   3.288 -0.1543  0.4774  0.1661
 5289SOL     OW16294   0.047   0.329   4.476 -0.1208  0.5548  0.2749
 5289SOL    HW116295   0.010   0.390   4.413 -1.0470 -0.6765 -0.4120
 5289SOL    HW216296   0.049   0.378   4.559  0.8866  2.0996 -0.6198
 5290SOL     OW16297   1.808   2.862   4.379  0.0296  0.6323 -0.4794
 5290SOL    HW116298   1.759   2.818   4.449  0.8114 -0.9335 -0.8780
 5290SOL    HW216299   1.746   2.865   4.306 -0.7319  2.1165  0.1797
 5291SOL     OW16300   0.888   5.817   5.969 -0.3106  0.1107  0.4715
 5291SOL    HW116301   0.793   5.804   5.964 -0.8162  3.4028 -1.3817
 5291SOL    HW216302   0.921   5.782   5.886  0.1245 -0.9722  1.0861
 5292SOL     OW16303   3.980   2.817   0.201 -0.1245 -0.6440 -0.4363
 5292SOL    HW116304   3.937   2.814   0.287  0.1758 -0.6342 -0.2864
 5292SOL    HW216305   3.940   2.744   0.153 -2.9032  1.4122 -1.5367
 5293SOL     OW16306   4.863   6.102   2.857 -0.7090 -0.2294 -0.1978
 5293SOL    HW116307   4.812   6.079   2.934 -2.3034  0.7544 -0.9047
 5293SOL    HW216308   4.873   6.020   2.809  2.1490 -1.3311  1.9880
 5294SOL     OW16309   3.593   4.928   0.134 -0.4987 -0.8569  0.4606
 5294SOL    HW116310   3.658   4.858   0.146 -0.6506 -1.7661 -2.9415
 5294SOL    HW216311   3.570   4.923   0.041 -3.5788  1.1161  0.9839
 5295SOL     OW16312   5.469   4.167   2.907  0.6066  0.6032 -0.2976
 5295SOL    HW116313   5.548   4.119   2.881 -1.3653 -2.0709 -1.8861
 5295SOL    HW216314   5.476   4.172   3.003  1.2095 -2.6027 -0.0458
 5296SOL     OW16315   2.877   2.641   3.727 -0.2213  0.2572  0.3930
 5296SOL    HW116316   2.836   2.558   3.704  0.3169  0.2749 -0.6458
 5296SOL    HW216317   2.817   2.680   3.791  0.1991 -1.5330  1.9689
 5297SOL     OW16318   5.410   5.516   5.981  0.1858  0.0777  0.8625
 5297SOL    HW116319   5.500   5.528   5.951  0.4455  1.5360  2.1243
 5297SOL    HW216320   5.415   5.523   6.076 -1.1126 -0.9440  1.0400
 5298SOL     OW16321   4.698   2.598   4.273 -0.1519  0.3049  0.7734
 5298SOL    HW116322   4.707   2.507   4.302 -0.4101 -0.0188 -0.1293
 5298SOL    HW216323   4.788   2.627   4.258  0.0174  0.5844  2.1449
 5299SOL     OW16324   1.134   4.716   1.457  0.6194  0.1230  0.2459
 5299SOL    HW116325   1.121   4.750   1.368 -0.4227 -0.6411  0.0886
 5299SOL    HW216326   1.185   4.637   1.445  2.0570  0.9708  0.5135
 5300SOL     OW16327   4.651   4.050   5.288  0.5899 -0.6427 -0.3382
 5300SOL    HW116328   4.683   3.968   5.325  1.5775 -0.5242 -0.9002
 5300SOL    HW216329   4.729   4.096   5.260  0.0578  0.6011  0.1604
 5301SOL     OW16330   3.011   1.469   5.257  0.2975 -0.3633  0.5894
 5301SOL    HW116331   3.062   1.534   5.208  1.3520 -1.8508 -0.3596
 5301SOL    HW216332   3.055   1.465   5.342  0.9638 -0.6820  0.2364
 5302SOL     OW16333   5.940   0.610   5.760 -0.7554 -0.7962  0.2022
 5302SOL    HW116334   5.925   0.578   5.849  0.0504 -0.8079  0.3358
 5302SOL    HW216335   6.001   0.547   5.721 -0.1874 -0.1562  0.0330
 5303SOL     OW16336   2.661   3.886   0.051  0.4563 -0.1125 -0.4724
 5303SOL    HW116337   2.662   3.974   0.013 -0.0677 -0.8782 -2.3924
 5303SOL    HW216338   2.594   3.889   0.119  0.1836  0.8703 -0.7720
 5304SOL     OW16339   2.215   5.282   0.760 -0.2491 -0.1469  0.4304
 5304SOL    HW116340   2.275   5.262   0.688  1.0004  0.8736  1.1477
 5304SOL    HW216341   2.255   5.241   0.836 -0.0832  1.1160  1.0458
 5305SOL     OW16342   4.590   0.543   2.422  0.5374 -0.0602 -0.5773
 5305SOL    HW116343   4.553   0.470   2.471  1.0178 -0.7376 -1.1990
 5305SOL    HW216344   4.599   0.510   2.333  1.9839  0.2993 -0.5914
 5306SOL     OW16345   5.130   1.268   3.537  0.6670  0.4742  0.1122
 5306SOL    HW116346   5.199   1.294   3.598  1.3092  0.6656 -0.6738
 5306SOL    HW216347   5.172   1.204   3.479 -0.2178 -0.4991  0.5060
 5307SOL     OW16348   3.783   1.458   5.339 -0.4222  0.6150 -0.3433
 5307SOL    HW116349   3.752   1.415   5.260 -1.0665 -0.2436  0.3585
 5307SOL    HW216350   3.704   1.489   5.383 -0.0638  1.1960 -0.0909
 5308SOL     OW16351   0.646   4.317   1.345  0.0739  0.2846 -0.0376
 5308SOL    HW116352   0.640   4.222   1.333 -1.3505  0.5004 -1.4265
 5308SOL    HW216353   0.573   4.338   1.404  1.8725  0.2733  2.3029
 5309SOL     OW16354   3.255   2.062   5.325  0.0307  0.3464  0.1998
 5309SOL    HW116355   3.334   2.087   5.372  1.0842 -0.5229 -1.0452
 5309SOL    HW216356   3.214   2.145   5.300  2.2454  0.9105 -1.8817
 5310SOL     OW16357   0.617   1.550   5.964 -0.1973 -0.1939 -0.3304
 5310SOL    HW116358   0.656   1.463   5.969  0.5533  0.1524 -0.0684
 5310SOL    HW216359   0.524   1.536   5.985  0.1131 -0.7927  0.7067
 5311SOL     OW16360   3.299   2.645   5.006  0.4400  0.4703  0.3269
 5311SOL    HW116361   3.317   2.608   4.920 -1.5960 -2.2304  0.9249
 5311SOL    HW216362   3.307   2.572   5.066 -2.5541  1.1843  1.7889
 5312SOL     OW16363   6.095   0.004   5.375 -0.4157  0.5300  0.1511
 5312SOL    HW116364   6.117  -0.079   5.333 -1.0720 -0.4186  1.6277
 5312SOL    HW216365   6.002  -0.002   5.396 -0.3413  1.3915  0.8160
 5313SOL     OW16366   6.130   3.913   1.134 -0.3431  0.4069 -0.3785
 5313SOL    HW116367   6.165   3.838   1.087 -0.6620  0.2236 -0.3246
 5313SOL    HW216368   6.125   3.884   1.225 -0.2486  0.5724 -0.3202
 5314SOL     OW16369   4.978   2.167   0.699  0.0126 -0.4233  0.2399
 5314SOL    HW116370   4.982   2.090   0.642  2.1185 -1.0513  1.1218
 5314SOL    HW216371   4.925   2.230   0.651 -0.0056 -1.6765 -1.4683
 5315SOL     OW16372   1.247   4.334   4.574  0.5084 -0.1586  0.1542
 5315SOL    HW116373   1.255   4.362   4.665  1.5759 -0.7896  0.2708
 5315SOL    HW216374   1.337   4.317   4.546  0.2706  0.6996 -1.2441
 5316SOL     OW16375   4.643   2.225   3.755 -0.6454  0.2296 -0.2814
 5316SOL    HW116376   4.679   2.302   3.712 -1.6139  1.1347  0.4699
 5316SOL    HW216377   4.548   2.236   3.748 -0.8021 -0.3976  0.6888
 5317SOL     OW16378   0.223   3.107   4.454  0.0851  0.2339  0.1740
 5317SOL    HW116379   0.159   3.141   4.391 -0.0284  1.6980  1.0266
 5317SOL    HW216380   0.188   3.131   4.540  2.0778  1.7275  0.6488
 5318SOL     OW16381   3.508   3.988   5.904  0.0120 -0.1235 -0.1286
 5318SOL    HW116382   3.462   3.995   5.988  0.6166 -1.5988  0.3543
 5318SOL    HW216383   3.445   4.019   5.840 -0.9687 -0.2939  0.7249
 5319SOL     OW16384   5.307   0.217   4.844  0.3596 -0.1500 -0.3589
 5319SOL    HW116385   5.388   0.236   4.798  0.9188 -1.4953  0.0286
 5319SOL    HW216386   5.260   0.300   4.844  1.7442  0.6693 -0.5587
 5320SOL     OW16387   2.131   3.355   4.381  0.2452 -0.4623  0.2665
 5320SOL    HW116388   2.176   3.272   4.360 -0.6746 -0.9594  0.1983
 5320SOL    HW216389   2.041   3.329   4.402  0.0644  0.4799  0.7163
 5321SOL     OW16390   5.574   5.231   5.868  0.6141 -0.3248  0.5245
 5321SOL    HW116391   5.564   5.227   5.773  2.7767 -1.4137  0.2690
 5321SOL    HW216392   5.614   5.317   5.884  0.7838 -0.3733  0.3711
 5322SOL     OW16393   1.135   2.876   4.381 -0.1519 -0.5171  0.6627
 5322SOL    HW116394   1.087   2.901   4.302  0.7850  0.5847  0.4272
 5322SOL    HW216395   1.134   2.954   4.436  0.2888 -0.8763  1.1913
 5323SOL     OW16396   2.236   5.552   4.782  0.5074 -0.5897 -0.3562
 5323SOL    HW116397   2.247   5.460   4.806 -0.4776 -0.8947 -1.0162
 5323SOL    HW216398   2.188   5.591   4.856 -0.3382 -0.9512 -0.7021
 5324SOL     OW16399   3.414   3.703   5.803  0.8230 -0.1298 -0.0349
 5324SOL    HW116400   3.480   3.760   5.843  0.0258 -0.1106  1.3535
 5324SOL    HW216401   3.408   3.629   5.863 -1.5951  0.6731  0.8519
 5325SOL     OW16402   0.688   3.467   5.992  0.2122  0.3320 -0.0484
 5325SOL    HW116403   0.675   3.528   5.920  1.3119 -0.3850 -0.8835
 5325SOL    HW216404   0.705   3.523   6.068 -0.9909  1.0908 -0.3072
 5326SOL     OW16405   0.884   5.696   3.606  0.3514 -0.1018 -0.1413
 5326SOL    HW116406   0.929   5.737   3.532 -1.0022  1.7645 -0.0104
 5326SOL    HW216407   0.950   5.693   3.676  0.4902  2.0425 -0.1299
 5327SOL     OW16408   3.660   0.318   5.254  0.3829 -0.0067 -0.4918
 5327SOL    HW116409   3.628   0.238   5.212 -1.3984  1.1554 -1.4662
 5327SOL    HW216410   3.688   0.290   5.341 -0.1814 -1.6949 -0.8162
 5328SOL     OW16411   1.694   1.553   0.804  0.0362 -0.4339 -0.2524
 5328SOL    HW116412   1.656   1.596   0.728 -0.1695 -0.6655 -0.2805
 5328SOL    HW216413   1.722   1.467   0.772 -1.6827 -1.2663  0.3302
 5329SOL     OW16414   0.744   0.072   4.800 -0.0179 -0.5831  0.7451
 5329SOL    HW116415   0.674   0.007   4.810 -1.5846  1.0031  0.5330
 5329SOL    HW216416   0.708   0.152   4.838  1.9625  0.1305  1.2315
 5330SOL     OW16417   3.792   2.058   4.836 -0.2375 -0.0325  0.5588
 5330SOL    HW116418   3.874   2.058   4.885 -0.0340  3.1208  0.4434
 5330SOL    HW216419   3.813   2.013   4.754  1.0048 -0.4190  1.0657
 5331SOL     OW16420   3.111   1.056   4.057 -0.3802  0.1773  0.4399
 5331SOL    HW116421   3.183   1.106   4.017 -0.8869  0.1839 -0.5079
 5331SOL    HW216422   3.035   1.076   4.002 -1.0130 -0.1503  1.1847
 5332SOL     OW16423   1.394   2.214   4.080 -0.0660  0.4587 -0.0919
 5332SOL    HW116424   1.311   2.250   4.051 -0.5273  0.1266  0.7663
 5332SOL    HW216425   1.460   2.259   4.027 -0.8074  0.4931 -1.0025
 5333SOL     OW16426   0.586   3.027   2.656  0.5928  0.2484  0.1344
 5333SOL    HW116427   0.492   3.009   2.666  0.4966 -1.0884 -2.3914
 5333SOL    HW216428   0.590   3.118   2.626  0.0027  0.0262 -0.6580
 5334SOL     OW16429   3.720   0.613   0.583  0.0481 -0.2731 -0.0334
 5334SOL    HW116430   3.727   0.672   0.658  1.8239 -1.1579  0.5655
 5334SOL    HW216431   3.737   0.668   0.507 -1.6914  0.6239  0.1819
 5335SOL     OW16432   2.393   5.645   2.071  0.2911  0.2418 -0.9748
 5335SOL    HW116433   2.443   5.582   2.019 -0.0503 -0.0908 -0.9136
 5335SOL    HW216434   2.356   5.706   2.007 -0.5995 -0.5034 -1.1971
 5336SOL     OW16435   3.093   2.139   2.371 -0.0580 -0.1543 -0.3874
 5336SOL    HW116436   3.098   2.126   2.466 -0.6285  0.3681 -0.2840
 5336SOL    HW216437   3.004   2.112   2.348 -0.0004 -0.0455 -0.7360
 5337SOL     OW16438   0.583   5.645   0.793 -0.1774 -0.6854  0.2014
 5337SOL    HW116439   0.633   5.566   0.773 -0.1701 -0.5239 -0.4607
 5337SOL    HW216440   0.577   5.647   0.888  2.0048 -0.1431  0.3760
 5338SOL     OW16441   2.824   3.712   1.463  0.5497 -0.0383  0.2979
 5338SOL    HW116442   2.809   3.734   1.371  2.2250  2.4837  0.5355
 5338SOL    HW216443   2.756   3.648   1.483 -2.4118  2.2092 -1.6602
 5339SOL     OW16444   5.236   4.236   4.389  0.3719  0.3801  1.0488
 5339SOL    HW116445   5.158   4.187   4.418  0.9160 -0.9374  0.3721
 5339SOL    HW216446   5.308   4.196   4.438  0.7890  0.7197  0.7135
 5340SOL     OW16447   4.447   1.014   0.204  0.1111 -0.9368  0.1433
 5340SOL    HW116448   4.424   1.086   0.147 -0.5780 -0.8605  0.5014
 5340SOL    HW216449   4.453   0.938   0.146 -0.9573 -0.9345  0.0133
 5341SOL     OW16450   0.488   1.019   6.145  0.0746 -0.0388  0.5452
 5341SOL    HW116451   0.418   1.062   6.095  1.4581 -0.0497 -1.5010
 5341SOL    HW216452   0.498   1.073   6.224 -1.5883  0.4794  0.4384
 5342SOL     OW16453   0.069   1.055   3.059  0.6187  0.3870 -0.0430
 5342SOL    HW116454   0.031   1.073   2.973  1.4817 -0.0215 -0.5281
 5342SOL    HW216455   0.158   1.025   3.040 -0.1666 -2.8323  0.7836
 5343SOL     OW16456   5.245   4.995   2.795 -0.5870 -0.8503  0.0636
 5343SOL    HW116457   5.266   5.081   2.759 -0.0521 -1.3126 -0.7716
 5343SOL    HW216458   5.220   5.012   2.886 -0.9804  0.2373 -0.2321
 5344SOL     OW16459   4.075   4.738   0.159 -0.0312 -0.1903  0.4397
 5344SOL    HW116460   4.083   4.721   0.065  0.2491  0.0415  0.4222
 5344SOL    HW216461   4.138   4.808   0.177  0.7806 -1.0452  1.0227
 5345SOL     OW16462   1.254   5.877   3.139 -0.2650 -0.3524  0.4197
 5345SOL    HW116463   1.237   5.893   3.232  0.9275 -0.7244  0.7161
 5345SOL    HW216464   1.175   5.909   3.094 -1.4088 -1.3526  1.6510
 5346SOL     OW16465   4.193   1.737   5.163 -0.6157  0.0424  0.2148
 5346SOL    HW116466   4.209   1.658   5.216 -2.0991  1.3817  2.8926
 5346SOL    HW216467   4.218   1.810   5.220  0.9113  1.5911 -2.2624
 5347SOL     OW16468   5.356   3.390   3.525 -0.6568 -0.1676  0.7463
 5347SOL    HW116469   5.310   3.438   3.594 -1.3845 -0.2465  0.3264
 5347SOL    HW216470   5.448   3.412   3.537 -0.7872 -0.0986  1.6807
 5348SOL     OW16471   0.243   0.852   3.580 -0.2115 -0.0047 -0.0742
 5348SOL    HW116472   0.267   0.892   3.664  0.8648  1.4642 -1.0218
 5348SOL    HW216473   0.304   0.779   3.571 -0.5025 -0.3288  0.5336
 5349SOL     OW16474   2.997   1.529   1.227 -1.2136  0.7914 -0.5163
 5349SOL    HW116475   2.993   1.463   1.158 -1.4339  0.1750  0.0786
 5349SOL    HW216476   2.974   1.611   1.183 -3.2756  0.1140 -0.8032
 5350SOL     OW16477   0.915   2.330   3.038  0.2725 -0.4503  0.1896
 5350SOL    HW116478   0.936   2.393   2.969 -3.1921  2.4227  1.4056
 5350SOL    HW216479   0.866   2.261   2.993 -0.2953  0.4003 -0.5311
 5351SOL     OW16480   2.637   3.814   2.174  0.0426 -0.8084  0.0997
 5351SOL    HW116481   2.639   3.726   2.213 -0.9746 -1.1847 -0.6273
 5351SOL    HW216482   2.620   3.798   2.081  0.2002  0.1533 -0.1059
 5352SOL     OW16483   3.099   0.283   3.176 -0.2901 -0.7376 -0.1271
 5352SOL    HW116484   3.035   0.288   3.105 -0.6094  0.3073  0.2259
 5352SOL    HW216485   3.175   0.240   3.137 -0.7077 -0.7688 -0.9187
 5353SOL     OW16486   1.335   0.556   6.200  0.2648  0.5282  0.2366
 5353SOL    HW116487   1.251   0.581   6.238  0.2845  0.7499  0.1392
 5353SOL    HW216488   1.354   0.470   6.237 -0.7570 -0.2379 -0.9147
 5354SOL     OW16489   1.311   1.779   4.365  0.0534  0.0350 -0.0430
 5354SOL    HW116490   1.288   1.866   4.334 -0.8253  0.3453  1.4098
 5354SOL    HW216491   1.248   1.721   4.322 -1.1192  0.4559  1.0291
 5355SOL     OW16492   3.315   2.725   5.905  0.0970 -0.9647  0.3506
 5355SOL    HW116493   3.340   2.638   5.872  0.6823 -0.5006 -0.5050
 5355SOL    HW216494   3.382   2.745   5.971  0.9417 -0.5078 -0.6073
 5356SOL     OW16495   5.394   5.145   1.644 -0.0989 -0.0836  0.8661
 5356SOL    HW116496   5.387   5.219   1.703 -0.6921 -2.0439  3.4114
 5356SOL    HW216497   5.464   5.091   1.680 -0.4544 -1.3475 -0.2328
 5357SOL     OW16498   0.505   1.142   3.035 -0.5852  0.0142 -0.9546
 5357SOL    HW116499   0.478   1.222   3.079 -0.9794  0.8646 -2.6475
 5357SOL    HW216500   0.600   1.153   3.021 -0.6637  0.2672 -1.3103
 5358SOL     OW16501   1.292   2.305   5.625  0.0735  0.2428 -0.3824
 5358SOL    HW116502   1.223   2.274   5.684  0.7286  0.4173  0.4926
 5358SOL    HW216503   1.253   2.300   5.538 -0.5786 -0.9600 -0.0399
 5359SOL     OW16504   0.208   6.236   1.003  0.2346 -0.0743 -0.4064
 5359SOL    HW116505   0.291   6.200   1.035 -0.9865 -2.0452  0.7484
 5359SOL    HW216506   0.163   6.265   1.082 -1.6550 -2.4378 -0.5035
 5360SOL     OW16507   1.504   3.977   0.722 -0.1573 -0.2405 -0.2022
 5360SOL    HW116508   1.456   4.014   0.796  0.6966 -0.3859  0.4484
 5360SOL    HW216509   1.499   4.044   0.654  1.6697  1.3084  1.0722
 5361SOL     OW16510   0.860   1.136   4.626 -0.2511 -0.2033 -0.0266
 5361SOL    HW116511   0.926   1.076   4.660  0.2867  0.6786  0.5257
 5361SOL    HW216512   0.777   1.102   4.660  0.0298 -0.6865  0.1890
 5362SOL     OW16513   5.309   4.851   1.716  0.6687 -0.3324 -0.4012
 5362SOL    HW116514   5.338   4.760   1.712  1.5407 -0.1200  0.7082
 5362SOL    HW216515   5.388   4.903   1.700  0.2808  0.2367 -0.5100
 5363SOL     OW16516   5.159   5.039   0.144  0.4953 -0.1879  0.1579
 5363SOL    HW116517   5.211   4.981   0.088 -1.5958 -1.0320 -1.0466
 5363SOL    HW216518   5.094   5.078   0.084  1.6229  3.2878  0.9490
 5364SOL     OW16519   1.408   4.942   1.336  0.1871 -0.5947  0.2164
 5364SOL    HW116520   1.354   5.002   1.285 -0.4793 -2.2042 -1.0571
 5364SOL    HW216521   1.434   4.874   1.274  2.3445 -0.7357  1.2027
 5365SOL     OW16522   4.590   6.041   2.460  0.0895 -0.4315 -0.1019
 5365SOL    HW116523   4.685   6.031   2.453  0.0201 -1.1854 -0.0193
 5365SOL    HW216524   4.570   6.014   2.549 -0.3785 -1.7930 -0.5900
 5366SOL     OW16525   3.385   4.611   5.908 -0.3492 -0.2642 -0.6339
 5366SOL    HW116526   3.429   4.548   5.852 -0.5841 -1.4606  0.4878
 5366SOL    HW216527   3.312   4.563   5.947 -1.4764  1.1271 -0.9279
 5367SOL     OW16528   4.809   0.721   6.104  0.0772 -1.0271  0.3854
 5367SOL    HW116529   4.754   0.786   6.147  0.9433  0.2156 -0.3114
 5367SOL    HW216530   4.892   0.766   6.090 -0.2369 -1.1906 -2.8653
 5368SOL     OW16531   5.728   1.321   0.395 -0.2068 -0.2969 -0.0172
 5368SOL    HW116532   5.654   1.290   0.447 -0.6058 -1.3656 -1.1699
 5368SOL    HW216533   5.712   1.285   0.307  1.4937 -0.2494 -0.3718
 5369SOL     OW16534   1.033   1.238   2.516 -0.2633 -0.0324  0.6931
 5369SOL    HW116535   1.063   1.276   2.433 -1.8580 -1.9760 -0.8795
 5369SOL    HW216536   1.114   1.220   2.565  0.7965  0.0146 -0.9593
 5370SOL     OW16537   1.745   2.986   3.088 -0.1455  0.0260 -0.3379
 5370SOL    HW116538   1.663   2.951   3.124  0.7977 -0.9018  1.0321
 5370SOL    HW216539   1.808   2.915   3.098  0.8362  0.7019 -1.4116
 5371SOL     OW16540   0.267   4.040   1.911 -0.2141 -0.1081 -0.3110
 5371SOL    HW116541   0.186   4.028   1.862 -0.7075  1.8734 -0.0638
 5371SOL    HW216542   0.259   4.127   1.950  1.9186  0.0319 -0.0594
 5372SOL     OW16543   3.312   3.301   3.261  0.2652  0.3234  0.8084
 5372SOL    HW116544   3.360   3.242   3.204  0.2797  0.8589  0.2643
 5372SOL    HW216545   3.268   3.362   3.202 -2.1395 -0.9058  1.1818
 5373SOL     OW16546   6.162   5.898   0.751  0.2388  0.3368 -0.1765
 5373SOL    HW116547   6.185   5.807   0.769  0.2231  0.0546 -1.4851
 5373SOL    HW216548   6.175   5.943   0.835  0.9131 -0.7287  0.3132
 5374SOL     OW16549   0.515   5.435   5.783 -0.2244  0.5993  0.1179
 5374SOL    HW116550   0.526   5.401   5.872 -0.9321  0.6323  0.2179
 5374SOL    HW216551   0.572   5.380   5.730 -1.2673 -0.6989  0.2922
 5375SOL     OW16552   0.913   1.929   3.786 -0.4263  0.3715  0.1536
 5375SOL    HW116553   1.001   1.934   3.824 -0.6171  0.0646  0.6393
 5375SOL    HW216554   0.861   1.988   3.840 -0.3695  1.1271 -0.5847
 5376SOL     OW16555   6.074   1.822   3.599  0.3947  0.1751 -0.3236
 5376SOL    HW116556   6.148   1.767   3.574 -0.1191 -0.2631 -0.9106
 5376SOL    HW216557   6.060   1.802   3.692  0.8893  0.1131 -0.2608
 5377SOL     OW16558   3.875   5.652   5.296 -0.0461  0.1290  0.0581
 5377SOL    HW116559   3.883   5.654   5.201 -0.8000 -0.2448 -0.0190
 5377SOL    HW216560   3.965   5.637   5.328  0.2182  0.3262 -0.5820
 5378SOL     OW16561   1.628   2.263   1.889  0.3223 -0.2994  0.5610
 5378SOL    HW116562   1.722   2.244   1.900 -0.2414 -2.8163  1.7322
 5378SOL    HW216563   1.616   2.346   1.935  2.2675  1.0656 -1.2258
 5379SOL     OW16564   5.629   2.755   4.021 -0.4800 -0.2556 -0.2761
 5379SOL    HW116565   5.633   2.804   3.939 -0.1889 -1.0930 -0.7747
 5379SOL    HW216566   5.612   2.664   3.994  0.8196 -0.7593  0.4979
 5380SOL     OW16567   4.014   3.856   5.553 -0.0785  0.2424  0.2720
 5380SOL    HW116568   3.930   3.810   5.550  0.8991 -1.6831 -3.1150
 5380SOL    HW216569   4.043   3.847   5.643 -1.4126 -3.1891  0.5031
 5381SOL     OW16570   3.144   3.397   2.152 -0.1781 -0.4799  0.1077
 5381SOL    HW116571   3.180   3.396   2.064  0.6149 -0.5045  0.4249
 5381SOL    HW216572   3.052   3.370   2.142 -0.5599  1.0536 -0.9087
 5382SOL     OW16573   4.250   2.744   0.221  0.2758  0.0416  0.2090
 5382SOL    HW116574   4.255   2.763   0.315 -0.2534 -0.2983  0.3103
 5382SOL    HW216575   4.189   2.809   0.186  0.0424 -0.1846  0.1968
 5383SOL     OW16576   4.643   0.352   0.507 -0.2681  0.0416 -0.5000
 5383SOL    HW116577   4.672   0.336   0.417  1.0228 -2.9374  0.3130
 5383SOL    HW216578   4.557   0.310   0.512 -1.0491  1.5342 -0.6696
 5384SOL     OW16579   4.882   3.735   4.871  0.3093  0.4902 -0.1022
 5384SOL    HW116580   4.931   3.760   4.950  0.1089  0.6052 -0.0153
 5384SOL    HW216581   4.792   3.757   4.891  0.1052 -0.3979  0.0272
 5385SOL     OW16582   2.972   0.131   2.673  0.2909  0.0190  0.7235
 5385SOL    HW116583   3.030   0.057   2.654  1.5677  1.2562 -0.4753
 5385SOL    HW216584   2.925   0.146   2.590  0.6128  1.0093  0.7063
 5386SOL     OW16585   2.629   5.248   2.014  0.6058 -0.4763  0.0782
 5386SOL    HW116586   2.664   5.257   2.102 -0.3180  1.0833  0.3123
 5386SOL    HW216587   2.682   5.306   1.960  0.0840 -0.1165 -0.0602
 5387SOL     OW16588   2.462   2.305   4.789 -0.2601 -0.0129  0.1796
 5387SOL    HW116589   2.385   2.266   4.830  0.1082 -0.4303  0.4921
 5387SOL    HW216590   2.432   2.389   4.755 -0.7441  0.0283  0.6933
 5388SOL     OW16591   0.351   0.505   1.718 -0.9218  0.4390 -0.4447
 5388SOL    HW116592   0.263   0.526   1.749 -0.6750 -0.2164  0.7891
 5388SOL    HW216593   0.384   0.441   1.781  0.6432  1.0630 -0.5721
 5389SOL     OW16594   5.406   2.523   3.419  0.3735 -0.0541  0.3657
 5389SOL    HW116595   5.317   2.491   3.407 -0.6506  2.5706  0.2368
 5389SOL    HW216596   5.419   2.585   3.347  1.5604  1.0072  1.4344
 5390SOL     OW16597   0.138   2.268   1.890 -0.0452  0.2724  0.7354
 5390SOL    HW116598   0.120   2.178   1.917 -0.7686  0.1365 -0.1423
 5390SOL    HW216599   0.054   2.300   1.857  0.8681  0.1628 -2.0053
 5391SOL     OW16600   1.944   3.144   5.300  0.3541  0.6736 -0.1425
 5391SOL    HW116601   1.999   3.121   5.374  0.8253 -0.9763 -0.9759
 5391SOL    HW216602   1.963   3.237   5.285  0.6502  0.9014  1.4355
 5392SOL     OW16603   5.521   2.617   2.422 -0.1816 -0.8298  0.1218
 5392SOL    HW116604   5.600   2.664   2.447 -1.4938  2.4099 -1.1291
 5392SOL    HW216605   5.550   2.552   2.359  1.6450 -0.8167  0.9053
 5393SOL     OW16606   1.779   5.651   4.799  0.2331  0.1646 -0.3182
 5393SOL    HW116607   1.788   5.581   4.733  1.0993 -0.7296  0.7218
 5393SOL    HW216608   1.812   5.729   4.755  1.3340 -0.5354 -0.7745
 5394SOL     OW16609   2.045   3.702   2.602  0.1631 -0.6088  0.2932
 5394SOL    HW116610   1.996   3.784   2.615  0.7780 -0.2552  0.3900
 5394SOL    HW216611   2.030   3.652   2.682 -0.7679 -0.8938 -0.0351
 5395SOL     OW16612   2.476   3.135   1.937 -0.0382  0.3914 -0.0152
 5395SOL    HW116613   2.539   3.151   1.866  1.2013  1.0367  1.1797
 5395SOL    HW216614   2.395   3.112   1.892  0.7469  0.6246 -1.6377
 5396SOL     OW16615   2.810   5.469   0.132 -0.0896 -0.2522  0.2183
 5396SOL    HW116616   2.749   5.540   0.111 -0.9052 -0.4398  1.7737
 5396SOL    HW216617   2.870   5.508   0.196 -1.0600 -1.1486  1.7377
 5397SOL     OW16618   0.719   0.614   2.247 -0.7204 -0.9588  0.4011
 5397SOL    HW116619   0.784   0.678   2.217 -1.6931 -0.4166 -0.6402
 5397SOL    HW216620   0.641   0.633   2.195 -1.7921 -1.4547  1.7606
 5398SOL     OW16621   3.459   5.112   0.584 -0.5122  0.1172  0.5205
 5398SOL    HW116622   3.460   5.059   0.505 -0.4072  1.1458 -0.1910
 5398SOL    HW216623   3.551   5.129   0.604 -0.5316 -0.2989  0.9776
 5399SOL     OW16624   4.883   3.450   4.857 -0.2689  0.3089 -0.2730
 5399SOL    HW116625   4.965   3.432   4.902 -0.8463 -0.5242  0.4633
 5399SOL    HW216626   4.886   3.545   4.841  1.0547  0.2196 -0.7305
 5400SOL     OW16627   5.440   5.317   1.200  0.2223 -0.0916  0.0677
 5400SOL    HW116628   5.505   5.296   1.267 -0.5578 -0.0651  0.8674
 5400SOL    HW216629   5.360   5.273   1.230 -0.8017  1.9453  0.4954
 5401SOL     OW16630   4.281   2.466   5.778  0.1243  0.3017 -0.6352
 5401SOL    HW116631   4.266   2.451   5.871  1.8412  0.7981 -0.2377
 5401SOL    HW216632   4.285   2.379   5.739  2.2379 -0.0697  0.2828
 5402SOL     OW16633   3.795   4.695   2.591 -0.2500 -0.1704  0.7568
 5402SOL    HW116634   3.890   4.700   2.581 -0.3085  0.4343  0.4800
 5402SOL    HW216635   3.782   4.642   2.669  0.2988 -0.9981  0.3071
 5403SOL     OW16636   2.762   3.066   2.346  0.1759  0.6557  0.1117
 5403SOL    HW116637   2.798   3.024   2.268  0.6171 -0.3231  0.8179
 5403SOL    HW216638   2.834   3.062   2.410 -0.7380 -0.1747  1.1310
 5404SOL     OW16639   5.575   4.963   1.738  0.1956 -0.2429 -0.2002
 5404SOL    HW116640   5.567   5.002   1.825  2.5374  0.8461 -0.3865
 5404SOL    HW216641   5.635   4.889   1.751  2.3573  1.2174 -1.1267
 5405SOL     OW16642   2.680   6.173   1.942 -0.3245  0.0388 -0.2525
 5405SOL    HW116643   2.660   6.112   1.872 -0.8893  1.5796 -1.5007
 5405SOL    HW216644   2.697   6.256   1.897 -0.1884  0.9503  1.4084
 5406SOL     OW16645   5.005   5.691   3.759 -0.4678  0.4035 -0.1501
 5406SOL    HW116646   5.017   5.761   3.824 -0.1004 -0.6512  0.9618
 5406SOL    HW216647   4.928   5.718   3.709 -1.2868  0.8463  1.2773
 5407SOL     OW16648   2.790   5.410   1.874  0.0089  0.6799  0.4331
 5407SOL    HW116649   2.838   5.349   1.818 -2.0086 -2.3609  1.7675
 5407SOL    HW216650   2.855   5.476   1.898  2.4196 -1.0128 -0.9287
 5408SOL     OW16651   5.133   6.101   0.009 -0.4200  0.0064 -0.6852
 5408SOL    HW116652   5.185   6.023  -0.013  2.0072  1.5638 -0.8470
 5408SOL    HW216653   5.121   6.096   0.104  2.3925  0.8793 -0.1987
 5409SOL     OW16654   1.320   6.222   3.318 -0.9993  0.2496  0.6231
 5409SOL    HW116655   1.292   6.283   3.249  1.2464  1.5764  0.8048
 5409SOL    HW216656   1.334   6.277   3.395  0.4185 -0.5716  0.9829
 5410SOL     OW16657   0.475   1.694   3.482  0.4470  0.3865 -0.1897
 5410SOL    HW116658   0.478   1.673   3.575 -0.1213  0.4365 -0.1595
 5410SOL    HW216659   0.460   1.788   3.478  1.3896  0.5442 -0.3354
 5411SOL     OW16660   3.180   4.801   5.049  0.5914  0.5440  0.2793
 5411SOL    HW116661   3.157   4.894   5.048  3.8734  1.6625  3.7663
 5411SOL    HW216662   3.239   4.790   4.974  1.4078  1.7539  0.6999
 5412SOL     OW16663   0.406   0.814   4.158 -0.6186 -0.1116 -0.0078
 5412SOL    HW116664   0.500   0.817   4.140 -1.1185  0.2462 -2.9883
 5412SOL    HW216665   0.390   0.724   4.186  0.7107  0.1027  1.6516
 5413SOL     OW16666   0.922   0.844   4.578 -0.2046  0.0464 -0.0834
 5413SOL    HW116667   0.858   0.838   4.507 -0.5576  0.6982  0.1830
 5413SOL    HW216668   1.007   0.830   4.534 -0.2896  1.8162 -0.8742
 5414SOL     OW16669   2.482   1.727   2.385 -0.1109  0.1594 -0.4511
 5414SOL    HW116670   2.392   1.731   2.353 -1.0787 -0.6890  1.9008
 5414SOL    HW216671   2.503   1.634   2.385  1.4116  0.4508 -2.4749
 5415SOL     OW16672   3.006   0.961   1.675  0.3174  0.0847  0.3939
 5415SOL    HW116673   3.011   0.955   1.771 -0.4948 -0.2460  0.4249
 5415SOL    HW216674   3.010   0.870   1.645  1.4848  0.2359  0.0513
 5416SOL     OW16675   0.340   2.949   0.696 -0.4308  0.5049 -0.2587
 5416SOL    HW116676   0.270   2.896   0.657  0.5414 -1.4660  0.5307
 5416SOL    HW216677   0.303   2.979   0.779  0.1366 -1.9640  0.9819
 5417SOL     OW16678   0.833   2.961   3.805  0.7114 -0.3282 -0.1523
 5417SOL    HW116679   0.755   2.910   3.828  1.0226 -0.7119  0.0537
 5417SOL    HW216680   0.866   2.994   3.888  0.0886  0.8506 -0.3455
 5418SOL     OW16681   6.185   4.643   4.415  0.0083 -0.4268 -0.3830
 5418SOL    HW116682   6.196   4.721   4.360  0.3954 -0.4181 -0.2911
 5418SOL    HW216683   6.261   4.643   4.473 -0.7811 -0.0211  0.6775
 5419SOL     OW16684   5.118   6.015   4.785 -0.6335  0.3160  0.0312
 5419SOL    HW116685   5.112   6.101   4.826 -1.6717  0.8130 -1.0995
 5419SOL    HW216686   5.164   5.961   4.849 -0.5088  1.5459  1.0164
 5420SOL     OW16687   1.414   1.819   3.899  0.5321 -0.3301  0.1020
 5420SOL    HW116688   1.427   1.808   3.805  1.3326  0.8403  0.0588
 5420SOL    HW216689   1.457   1.743   3.938 -1.5606 -1.9395 -0.5231
 5421SOL     OW16690   6.122   4.217   4.956 -0.1799  0.5360  0.2278
 5421SOL    HW116691   6.052   4.274   4.925  0.3442  2.0857  1.7075
 5421SOL    HW216692   6.085   4.173   5.033 -0.1659 -0.1862 -0.1678
 5422SOL     OW16693   6.221   1.671   4.645 -0.2208  0.0486  0.2462
 5422SOL    HW116694   6.141   1.622   4.664 -0.8472  0.7187 -0.5747
 5422SOL    HW216695   6.208   1.755   4.691 -0.0785  0.2343 -0.0537
 5423SOL     OW16696   2.105   0.360   0.782 -0.0835 -0.2487  0.0462
 5423SOL    HW116697   2.030   0.327   0.732  1.0613  1.2759 -2.8881
 5423SOL    HW216698   2.179   0.353   0.722  1.7964  0.1005  2.1825
 5424SOL     OW16699   5.253   1.653   2.064  0.4499  0.3266  0.2074
 5424SOL    HW116700   5.167   1.628   2.029  0.2408 -0.6858  1.3801
 5424SOL    HW216701   5.233   1.714   2.134  0.6876  0.1135  0.4607
 5425SOL     OW16702   3.269   1.100   5.833  0.1589  0.3350 -0.0424
 5425SOL    HW116703   3.359   1.113   5.802  0.5858  0.4289  1.2161
 5425SOL    HW216704   3.273   1.017   5.881 -0.3190  0.5745  0.4114
 5426SOL     OW16705   0.626   3.954   4.111 -0.2511  0.2208  0.0677
 5426SOL    HW116706   0.648   3.909   4.193 -0.4630 -0.6868 -0.3610
 5426SOL    HW216707   0.648   3.891   4.042 -2.2154  0.0638 -0.4819
 5427SOL     OW16708   5.161   2.992   1.904 -0.5821  0.2403  0.0613
 5427SOL    HW116709   5.157   3.060   1.837  0.9882  0.0161 -0.3167
 5427SOL    HW216710   5.071   2.962   1.914 -0.7257 -0.7313 -3.0174
 5428SOL     OW16711   6.093   5.565   4.040 -0.0113 -0.3123 -0.1776
 5428SOL    HW116712   6.108   5.470   4.040  1.1623 -0.2889  3.7504
 5428SOL    HW216713   6.002   5.575   4.069  0.5036 -0.2578  1.4690
 5429SOL     OW16714   3.317   5.563   4.727 -0.8854  0.4016  0.1379
 5429SOL    HW116715   3.317   5.617   4.806  2.4587  0.4045  0.2791
 5429SOL    HW216716   3.357   5.619   4.660 -0.5224 -0.7389 -0.6194
 5430SOL     OW16717   1.476   0.914   3.702 -0.4156  0.1960 -0.0977
 5430SOL    HW116718   1.507   0.823   3.697 -2.6894 -0.6758  0.0756
 5430SOL    HW216719   1.527   0.953   3.772 -1.9835 -2.1996  2.6407
 5431SOL     OW16720   5.735   1.557   2.300 -0.3111  0.3351 -0.1766
 5431SOL    HW116721   5.805   1.558   2.235 -0.2859 -0.5493 -0.1801
 5431SOL    HW216722   5.656   1.537   2.250 -0.4232  0.4566 -0.0484
 5432SOL     OW16723   1.321   3.381   3.041 -0.4776  0.2486  0.6515
 5432SOL    HW116724   1.379   3.314   3.077 -1.6623 -0.7774  0.7132
 5432SOL    HW216725   1.304   3.440   3.114  1.0661  0.9973  0.4356
 5433SOL     OW16726   5.920   3.065   2.913  0.0407 -0.0929 -0.7544
 5433SOL    HW116727   6.008   3.101   2.920  1.0089 -2.1023 -1.9065
 5433SOL    HW216728   5.919   2.991   2.974 -0.8142 -0.1727 -0.8509
 5434SOL     OW16729   3.340   3.641   4.448  0.3899  0.1796 -0.1374
 5434SOL    HW116730   3.309   3.730   4.468  0.3377  0.4287 -1.2729
 5434SOL    HW216731   3.422   3.633   4.497  1.1163  1.3716 -1.1033
 5435SOL     OW16732   4.817   2.818   4.016  0.0261 -0.3630  0.1559
 5435SOL    HW116733   4.896   2.788   4.060  1.7968  0.0273 -2.5290
 5435SOL    HW216734   4.847   2.853   3.932 -2.8918  0.8092 -0.5495
 5436SOL     OW16735   4.539   0.031   6.165  0.4954 -0.0828  0.3523
 5436SOL    HW116736   4.552  -0.053   6.121 -1.7397 -0.7468  0.8087
 5436SOL    HW216737   4.530   0.008   6.258  0.9939  0.7933  0.6239
 5437SOL     OW16738   1.487   0.629   4.409 -0.2678  0.1640  0.5831
 5437SOL    HW116739   1.507   0.536   4.407 -0.3457  0.1538  0.0868
 5437SOL    HW216740   1.395   0.634   4.382 -0.2455  0.3885  0.5435
 5438SOL     OW16741   1.361   3.596   1.346  0.0183 -0.2368 -0.6815
 5438SOL    HW116742   1.395   3.550   1.269  1.8274 -1.4670  0.7826
 5438SOL    HW216743   1.322   3.527   1.400 -1.4344  0.6427 -0.5561
 5439SOL     OW16744   0.627   6.055   2.267 -0.4521  0.1892  0.4335
 5439SOL    HW116745   0.586   6.014   2.191 -1.5831  0.6353  0.7811
 5439SOL    HW216746   0.665   6.136   2.233 -1.7594  0.8548  0.4821
 5440SOL     OW16747   4.535   3.090   5.402  0.3624 -0.3570 -0.1257
 5440SOL    HW116748   4.541   3.022   5.469 -1.1858  0.0976  0.5241
 5440SOL    HW216749   4.461   3.065   5.348  1.6161 -0.7275 -1.7448
 5441SOL     OW16750   3.462   5.151   0.232 -0.0004  0.4078 -0.0435
 5441SOL    HW116751   3.381   5.139   0.183 -1.0591 -1.2455  1.9319
 5441SOL    HW216752   3.525   5.092   0.189 -0.9303 -1.0783  0.5493
 5442SOL     OW16753   3.791   5.659   5.666  0.0053  0.6669  0.2070
 5442SOL    HW116754   3.831   5.591   5.612  0.7662  1.3944 -0.1825
 5442SOL    HW216755   3.774   5.617   5.750  2.1000  0.4342  0.5786
 5443SOL     OW16756   4.154   0.345   4.165  0.2465  0.2870  0.0218
 5443SOL    HW116757   4.107   0.429   4.167 -0.9763 -0.3685 -0.3771
 5443SOL    HW216758   4.095   0.286   4.118  0.6012 -1.1026  1.2678
 5444SOL     OW16759   1.257   3.256   4.303  0.5308 -0.5042  0.0248
 5444SOL    HW116760   1.211   3.230   4.382 -0.2758 -0.0134 -0.2666
 5444SOL    HW216761   1.346   3.223   4.314  0.6936  0.3419  1.5418
 5445SOL     OW16762   3.401   1.755   0.264  0.0432 -0.5875  0.2691
 5445SOL    HW116763   3.354   1.806   0.330 -2.0343 -2.0265  0.0057
 5445SOL    HW216764   3.489   1.792   0.264 -0.9828  2.1596  0.9355
 5446SOL     OW16765   1.220   1.201   2.708  0.8110 -0.4036 -0.2397
 5446SOL    HW116766   1.292   1.256   2.675 -0.1179  0.9613 -0.1033
 5446SOL    HW216767   1.236   1.196   2.802  0.0267  1.0447 -0.0014
 5447SOL     OW16768   3.677   5.317   1.633 -0.4879  0.6032  0.9960
 5447SOL    HW116769   3.626   5.389   1.597 -1.1830  0.4756  1.7073
 5447SOL    HW216770   3.768   5.342   1.618 -0.7428  0.4932 -0.9565
 5448SOL     OW16771   0.799   2.266   0.454 -0.0696 -0.1048 -0.3942
 5448SOL    HW116772   0.749   2.344   0.476 -0.3683 -0.3232 -0.2997
 5448SOL    HW216773   0.734   2.201   0.429 -0.0917 -1.2216  2.1925
 5449SOL     OW16774   4.652   1.989   4.105 -0.6938 -0.6881  0.1116
 5449SOL    HW116775   4.600   2.013   4.029 -2.4371  2.2760  2.0260
 5449SOL    HW216776   4.589   1.986   4.177  1.4445  1.8573  2.3402
 5450SOL     OW16777   6.003   3.888   5.405 -0.0976 -0.2550 -0.2721
 5450SOL    HW116778   5.982   3.862   5.495  0.3113  0.1121 -0.0674
 5450SOL    HW216779   5.918   3.898   5.363 -0.2871 -0.7827 -0.0308
 5451SOL     OW16780   3.961   0.508   1.273 -0.7882  0.1888  0.3567
 5451SOL    HW116781   3.909   0.479   1.198 -1.3589  0.2183  0.7339
 5451SOL    HW216782   4.007   0.586   1.241  2.6260 -2.3216 -1.4379
 5452SOL     OW16783   1.907   5.362   1.477 -0.0384  0.1001 -0.3126
 5452SOL    HW116784   1.901   5.448   1.519 -2.0890  0.0112 -0.3308
 5452SOL    HW216785   1.926   5.381   1.386 -0.9523  0.5864 -0.4156
 5453SOL     OW16786   6.196   5.872   2.746  0.7302  0.0119 -0.2460
 5453SOL    HW116787   6.239   5.957   2.742  1.4015 -0.2828  0.5611
 5453SOL    HW216788   6.211   5.841   2.835 -0.9522 -0.2129 -0.0145
 5454SOL     OW16789   0.896   3.130   1.921 -0.2805  0.0114  0.1041
 5454SOL    HW116790   0.963   3.197   1.908 -0.0599 -0.2684 -0.2254
 5454SOL    HW216791   0.858   3.150   2.006  0.8288 -0.3399  0.7072
 5455SOL     OW16792   0.889   5.194   3.597  0.3006  0.4236 -0.1655
 5455SOL    HW116793   0.861   5.283   3.616  0.3657  0.5252 -0.5415
 5455SOL    HW216794   0.819   5.139   3.634 -0.2672  0.6672 -0.8545
 5456SOL     OW16795   3.829   1.776   4.953  0.1613  0.6612 -0.8956
 5456SOL    HW116796   3.840   1.775   4.858  1.3376  0.1317 -0.7733
 5456SOL    HW216797   3.751   1.722   4.968 -0.2259  1.0177 -1.5723
 5457SOL     OW16798   2.026   0.278   4.432  0.2149  0.0542 -0.2839
 5457SOL    HW116799   1.972   0.205   4.402  0.5478 -0.2607 -0.1275
 5457SOL    HW216800   2.098   0.282   4.369  0.7923 -0.4623  0.3273
 5458SOL     OW16801   5.946   6.205   1.378 -0.1758 -0.2613  0.1211
 5458SOL    HW116802   5.993   6.244   1.451 -1.1233  0.7107  0.2369
 5458SOL    HW216803   5.989   6.241   1.300  1.0643 -1.5737  0.1516
 5459SOL     OW16804   1.357   3.336   0.981  0.4323 -0.1895  0.1714
 5459SOL    HW116805   1.423   3.361   1.045 -0.0149  1.5958 -0.0001
 5459SOL    HW216806   1.391   3.369   0.897  0.4189 -1.3709 -0.3215
 5460SOL     OW16807   5.625   6.018   1.390 -0.1861 -0.0942 -0.0698
 5460SOL    HW116808   5.642   6.098   1.341 -0.3452  0.1485  0.2717
 5460SOL    HW216809   5.599   5.954   1.324 -0.6113  0.2915 -0.2728
 5461SOL     OW16810   1.819   5.292   2.709  0.4927  0.3914  0.2320
 5461SOL    HW116811   1.879   5.262   2.641  0.1645  0.2112  0.0174
 5461SOL    HW216812   1.732   5.263   2.679  0.4978 -0.9101  1.4030
 5462SOL     OW16813   5.051   2.744   1.829 -0.5122 -0.0475 -0.8972
 5462SOL    HW116814   5.112   2.779   1.764 -3.3018  2.0831 -2.6150
 5462SOL    HW216815   5.003   2.676   1.782 -0.5873 -0.5581 -0.1012
 5463SOL     OW16816   1.354   4.937   5.370 -0.2531 -0.1756  0.1749
 5463SOL    HW116817   1.411   4.863   5.352 -1.5530 -1.1960  0.1016
 5463SOL    HW216818   1.301   4.909   5.445 -0.2340  0.9873  0.6504
 5464SOL     OW16819   3.665   4.476   1.614  0.7893 -0.8147  0.0646
 5464SOL    HW116820   3.586   4.422   1.607 -0.5951  1.2797 -1.4209
 5464SOL    HW216821   3.666   4.506   1.705  0.3358 -1.5132  0.3051
 5465SOL     OW16822   3.201   1.213   5.399 -0.1886  0.2469 -0.6164
 5465SOL    HW116823   3.229   1.304   5.386  0.5391 -0.0336 -1.1104
 5465SOL    HW216824   3.263   1.162   5.348 -0.5909 -0.5352 -0.3384
 5466SOL     OW16825   3.218   0.663   1.147 -0.3481 -0.1852  0.0289
 5466SOL    HW116826   3.277   0.677   1.073 -2.3632  2.1193 -1.2988
 5466SOL    HW216827   3.153   0.601   1.116 -0.8146  0.2677  0.0742
 5467SOL     OW16828   2.109   4.313   4.652 -0.6347 -0.3121  0.2210
 5467SOL    HW116829   2.158   4.394   4.637  0.2767 -0.5687  1.6552
 5467SOL    HW216830   2.176   4.246   4.660 -1.3992 -1.3581 -1.5239
 5468SOL     OW16831   5.201   1.859   1.006  0.2246 -0.1475 -0.5046
 5468SOL    HW116832   5.154   1.870   1.089  2.5780  1.1536  0.7640
 5468SOL    HW216833   5.254   1.780   1.019 -0.9866 -1.2112 -1.6666
 5469SOL     OW16834   1.527   3.682   4.162 -0.2031 -0.3060 -0.1081
 5469SOL    HW116835   1.509   3.618   4.093  1.4706 -0.2976 -0.6037
 5469SOL    HW216836   1.606   3.727   4.133 -1.5906  2.3924 -0.0196
 5470SOL     OW16837   1.508   4.754   5.642 -0.1354 -0.0864 -0.7525
 5470SOL    HW116838   1.571   4.689   5.610 -0.4608  0.6038 -2.9830
 5470SOL    HW216839   1.562   4.827   5.672  0.2235  0.5700 -2.8065
 5471SOL     OW16840   0.713   0.979   2.314  0.0481 -0.6626 -0.0945
 5471SOL    HW116841   0.710   1.055   2.373  3.4305  0.0009 -0.6178
 5471SOL    HW216842   0.622   0.970   2.283 -0.7548  2.3275  1.0242
 5472SOL     OW16843   1.658   5.069   2.489  0.0894 -0.4845 -0.0616
 5472SOL    HW116844   1.609   4.987   2.482 -0.9834  0.1640 -0.2799
 5472SOL    HW216845   1.750   5.041   2.489 -0.2542 -1.6940  0.0065
 5473SOL     OW16846   3.933   1.244   3.946 -0.0108 -0.0973 -0.7152
 5473SOL    HW116847   3.878   1.187   3.892 -1.3260  0.2499  0.2218
 5473SOL    HW216848   3.895   1.332   3.935  0.5515  0.2081 -0.2963
 5474SOL     OW16849   4.031   3.921   4.558  0.1982  0.2754  0.4380
 5474SOL    HW116850   3.984   3.994   4.597  1.5831  1.4355  0.0418
 5474SOL    HW216851   3.972   3.886   4.492  0.2313  2.3430 -0.7730
 5475SOL     OW16852   5.639   1.513   2.557 -0.1402 -0.2049 -0.6356
 5475SOL    HW116853   5.694   1.448   2.601 -1.5961 -0.1506  1.3895
 5475SOL    HW216854   5.679   1.524   2.471  2.6570 -0.5950  0.5120
 5476SOL     OW16855   5.066   1.825   0.267 -0.0450  0.2400  0.3112
 5476SOL    HW116856   4.999   1.796   0.205  0.6445  1.3835 -1.0145
 5476SOL    HW216857   5.100   1.743   0.304 -1.0908 -0.4228 -0.1316
 5477SOL     OW16858   3.624   2.534   1.568 -0.4388 -0.5057  0.4141
 5477SOL    HW116859   3.585   2.504   1.651 -1.3796 -1.0174 -0.2013
 5477SOL    HW216860   3.700   2.478   1.556  0.9038  0.9023  1.9370
 5478SOL     OW16861   1.383   1.052   3.481 -0.0869  0.1952  0.5900
 5478SOL    HW116862   1.384   1.001   3.562 -3.1067  0.1728  0.7179
 5478SOL    HW216863   1.443   1.124   3.498  1.6414 -1.4185  1.6855
 5479SOL     OW16864   1.014   2.082   0.007 -0.6235  0.0454 -0.3047
 5479SOL    HW116865   0.928   2.056   0.040 -0.3539 -0.2846  0.1588
 5479SOL    HW216866   1.056   2.127   0.081  0.6808 -2.2685  0.4544
 5480SOL     OW16867   0.094   5.344   0.549  0.2032  0.0115 -0.5316
 5480SOL    HW116868   0.061   5.424   0.592 -0.5070 -0.3711 -0.3564
 5480SOL    HW216869   0.155   5.307   0.613  0.8192  0.5984 -0.7624
 5481SOL     OW16870   5.096   1.865   4.625 -0.1893  0.0931 -0.3276
 5481SOL    HW116871   5.186   1.833   4.634 -0.5215 -0.5965  0.7421
 5481SOL    HW216872   5.043   1.785   4.619 -0.6495  0.4896 -2.0672
 5482SOL     OW16873   0.866   0.756   0.797  0.0282 -0.4071 -0.1921
 5482SOL    HW116874   0.862   0.813   0.873 -0.3968 -2.7191  1.6350
 5482SOL    HW216875   0.959   0.750   0.776 -0.0226  2.1691 -1.4978
 5483SOL     OW16876   1.438   0.678   0.966 -0.0480  0.2313 -0.6963
 5483SOL    HW116877   1.396   0.688   1.051  1.9694  1.0336  0.2488
 5483SOL    HW216878   1.386   0.610   0.922 -0.5741 -0.8789  1.5084
 5484SOL     OW16879   5.848   0.317   2.030 -0.0197 -0.1158  0.1506
 5484SOL    HW116880   5.809   0.267   1.958 -0.6554  2.2245 -1.2376
 5484SOL    HW216881   5.940   0.326   2.007 -0.1134  0.1973 -0.0941
 5485SOL     OW16882   6.007   4.914   4.912  0.7598  0.1120 -0.0490
 5485SOL    HW116883   6.071   4.860   4.866 -0.1598 -1.5531  0.5619
 5485SOL    HW216884   5.972   4.857   4.980 -1.1202  1.0913 -0.1481
 5486SOL     OW16885   4.180   3.222   5.796 -0.2787  0.5619 -0.2490
 5486SOL    HW116886   4.121   3.219   5.871  0.8836  3.2741  0.9273
 5486SOL    HW216887   4.259   3.177   5.827 -0.4227  0.1344 -0.4983
 5487SOL     OW16888   4.987   1.659   2.918 -0.9360 -0.0459  0.2243
 5487SOL    HW116889   4.896   1.632   2.907 -1.3943  0.5130  2.1555
 5487SOL    HW216890   5.028   1.586   2.965 -0.7835  0.3119  0.6556
 5488SOL     OW16891   1.800   3.888   0.081  0.0233  0.0160  0.2870
 5488SOL    HW116892   1.864   3.849   0.021 -0.7245  1.5684 -1.6299
 5488SOL    HW216893   1.715   3.857   0.051 -0.3395  0.3245  0.9538
 5489SOL     OW16894   0.927   3.393   4.865 -0.2690  0.2632 -0.2092
 5489SOL    HW116895   0.904   3.444   4.788  0.5234  0.5636 -0.2493
 5489SOL    HW216896   0.927   3.302   4.835 -1.5857  0.2220 -0.1611
 5490SOL     OW16897   4.744   1.068   5.937  0.1360  0.1121  0.0274
 5490SOL    HW116898   4.792   1.101   6.013 -1.6938 -0.7280  1.6341
 5490SOL    HW216899   4.803   1.003   5.898  0.1261 -1.4021  2.3448
 5491SOL     OW16900   5.532   0.612   0.692 -0.8001  0.2479 -0.0674
 5491SOL    HW116901   5.458   0.588   0.635  0.3881 -0.1807 -1.4854
 5491SOL    HW216902   5.587   0.668   0.638  0.5853 -0.5162  0.5137
 5492SOL     OW16903   2.169   3.471   3.623 -0.8951  0.6387  0.2391
 5492SOL    HW116904   2.145   3.382   3.597  0.9118 -0.0341  0.7361
 5492SOL    HW216905   2.094   3.524   3.596 -1.5884 -0.8685 -0.9822
 5493SOL     OW16906   1.386   2.375   3.466  0.0909  0.1596 -0.2324
 5493SOL    HW116907   1.454   2.435   3.434 -0.3579  0.7013 -0.1919
 5493SOL    HW216908   1.349   2.337   3.387 -0.3013  0.7021 -0.3197
 5494SOL     OW16909   3.960   1.977   0.827  0.1347  0.2268  0.2500
 5494SOL    HW116910   3.926   1.945   0.744  0.4841  0.7505 -0.1107
 5494SOL    HW216911   4.055   1.967   0.818  0.1485 -0.0727  0.7426
 5495SOL     OW16912   0.004   2.229   1.459 -0.3655 -0.1517 -0.7019
 5495SOL    HW116913   0.050   2.307   1.491 -1.3162  0.0132  0.2923
 5495SOL    HW216914  -0.087   2.257   1.450 -0.7638 -1.2273 -0.0987
 5496SOL     OW16915   6.121   3.120   4.154  0.0402  0.3156  0.2590
 5496SOL    HW116916   6.173   3.173   4.093  0.5336 -0.3302  0.1016
 5496SOL    HW216917   6.042   3.171   4.169 -0.9438 -0.3022 -2.3659
 5497SOL     OW16918   3.424   1.946   2.443  0.2056 -0.1170  1.0224
 5497SOL    HW116919   3.469   1.867   2.473  0.8046 -0.3616 -0.4048
 5497SOL    HW216920   3.480   1.981   2.373 -1.5855 -0.2170 -0.5658
 5498SOL     OW16921   3.111   3.692   2.136  0.5679 -0.4958  0.3611
 5498SOL    HW116922   3.169   3.765   2.116 -0.2108  0.4313  1.4243
 5498SOL    HW216923   3.169   3.624   2.170  1.1208  0.1670  0.7627
 5499SOL     OW16924   3.893   6.104   0.707  0.2159 -0.7435 -0.0056
 5499SOL    HW116925   3.913   6.097   0.800 -0.5496  1.9485  0.4497
 5499SOL    HW216926   3.797   6.101   0.702  0.1930  0.3087 -0.5346
 5500SOL     OW16927   0.417   0.770   0.295 -0.4883  0.8237 -0.4787
 5500SOL    HW116928   0.481   0.811   0.352 -1.7830  0.1557  1.5935
 5500SOL    HW216929   0.450   0.681   0.281 -1.1531  0.3178  1.0024
 5501SOL     OW16930   2.075   1.100   0.282  0.6004 -0.3182  0.7802
 5501SOL    HW116931   2.080   1.196   0.283  0.6493 -0.3235  1.7246
 5501SOL    HW216932   2.045   1.076   0.370 -1.3148 -1.0899 -0.0471
 5502SOL     OW16933   5.554   5.053   2.948 -0.1151  0.2582  0.4852
 5502SOL    HW116934   5.558   5.100   2.865 -1.3469 -0.3586  0.0601
 5502SOL    HW216935   5.463   5.058   2.975  0.2041  0.1642  1.6476
 5503SOL     OW16936   4.266   3.326   0.971  0.2105  0.2590 -0.1039
 5503SOL    HW116937   4.171   3.330   0.975  0.0880  0.3285 -2.0463
 5503SOL    HW216938   4.295   3.371   1.050 -1.3665  1.2694 -0.0550
 5504SOL     OW16939   1.451   3.106   4.061 -0.7698 -0.9796 -0.3529
 5504SOL    HW116940   1.472   3.087   4.152 -0.8965 -2.4603 -0.6078
 5504SOL    HW216941   1.449   3.202   4.056 -0.9803 -0.8778  1.2322
 5505SOL     OW16942   3.082   6.129   3.577  0.1854 -0.1838  0.2568
 5505SOL    HW116943   3.047   6.219   3.580 -1.3775 -0.7635  0.7236
 5505SOL    HW216944   3.024   6.080   3.636  2.4960 -1.0263  1.9901
 5506SOL     OW16945   4.315   4.347   0.825  0.2565 -0.3976  0.1058
 5506SOL    HW116946   4.393   4.307   0.788  0.4704 -0.4192  0.5666
 5506SOL    HW216947   4.343   4.379   0.911 -0.7305 -2.2946  1.2326
 5507SOL     OW16948   3.624   4.840   2.205 -0.0861  1.2729 -0.3784
 5507SOL    HW116949   3.577   4.843   2.288 -1.5520  0.5792 -1.1505
 5507SOL    HW216950   3.716   4.849   2.229 -0.0754 -2.4166  1.7222
 5508SOL     OW16951   5.733   1.069   3.282 -0.3594  0.0953  0.2195
 5508SOL    HW116952   5.698   1.012   3.214 -1.0359  1.1292 -0.3079
 5508SOL    HW216953   5.658   1.118   3.315  0.5549  2.6129 -1.1685
 5509SOL     OW16954   1.358   0.031   0.096  0.5946 -0.1011 -0.4503
 5509SOL    HW116955   1.305  -0.049   0.095  0.8810 -0.3070 -1.7854
 5509SOL    HW216956   1.392   0.037   0.185  2.0145 -2.4651 -0.7451
 5510SOL     OW16957   4.986   3.459   4.172 -0.3870 -0.3176  0.2621
 5510SOL    HW116958   5.023   3.372   4.189  3.2883  1.2210  1.2164
 5510SOL    HW216959   5.017   3.481   4.084  1.0604  0.9673  1.0336
 5511SOL     OW16960   0.652   1.831   4.955 -0.0551 -0.1057 -0.5834
 5511SOL    HW116961   0.697   1.813   4.872  1.5528  0.3281  0.1421
 5511SOL    HW216962   0.591   1.901   4.934 -0.1934 -0.4924 -1.5537
 5512SOL     OW16963   1.679   0.025   2.270  0.1910  0.5164 -0.4732
 5512SOL    HW116964   1.689   0.046   2.177  1.3361 -1.1359 -0.7652
 5512SOL    HW216965   1.768   0.029   2.305 -0.1286  0.3298  0.3898
 5513SOL     OW16966   0.579   4.604   4.701  0.4988  0.0163 -0.1264
 5513SOL    HW116967   0.606   4.576   4.614 -1.5924 -0.4048 -0.6992
 5513SOL    HW216968   0.621   4.689   4.713 -1.4137  1.4910 -2.7995
 5514SOL     OW16969   5.947   3.921   1.580 -0.0980 -0.5735  0.0485
 5514SOL    HW116970   6.035   3.902   1.546  1.1110 -0.2984  2.7661
 5514SOL    HW216971   5.937   4.016   1.568 -0.0455 -0.6097 -0.2995
 5515SOL     OW16972   4.988   6.131   4.563  0.3420  0.0086 -0.2102
 5515SOL    HW116973   5.039   6.079   4.624  0.8962 -0.0209 -0.6876
 5515SOL    HW216974   4.909   6.079   4.547 -0.5463  0.7167  1.6456
 5516SOL     OW16975   0.439   4.581   1.093  0.1440  0.1180  0.2497
 5516SOL    HW116976   0.422   4.598   1.186 -0.3414 -0.0187  0.1850
 5516SOL    HW216977   0.520   4.531   1.093  0.9523  1.3645  0.5152
 5517SOL     OW16978   4.459   1.036   2.695  0.3368  0.1764  0.1761
 5517SOL    HW116979   4.514   1.114   2.704 -0.7357  0.8884  0.8398
 5517SOL    HW216980   4.520   0.964   2.683  1.4300  0.8829  1.3268
 5518SOL     OW16981   3.628   3.725   2.954 -0.1472  0.0980  0.1899
 5518SOL    HW116982   3.592   3.673   2.882 -0.9484 -0.8183  1.2311
 5518SOL    HW216983   3.590   3.812   2.942  0.1350  0.0924 -0.7904
 5519SOL     OW16984   0.998   4.069   2.914  0.5904 -0.1919  0.2844
 5519SOL    HW116985   0.968   3.986   2.953 -0.1367 -0.7129 -1.3047
 5519SOL    HW216986   0.943   4.080   2.837  0.1681  2.1795  0.8541
 5520SOL     OW16987   3.178   4.670   1.482 -0.1800  0.9670  0.6049
 5520SOL    HW116988   3.203   4.607   1.415 -0.6049  0.0447  1.2943
 5520SOL    HW216989   3.084   4.683   1.470 -0.3136  0.5758  1.1986
 5521SOL     OW16990   5.326   3.571   6.127  0.0721 -0.0951  0.4360
 5521SOL    HW116991   5.387   3.512   6.083  0.7585  0.3022  0.8440
 5521SOL    HW216992   5.351   3.659   6.097 -1.2127 -0.0050 -0.5072
 5522SOL     OW16993   3.501   2.628   0.370  0.7006 -0.6232  0.1063
 5522SOL    HW116994   3.443   2.699   0.399  2.1308  0.4015  0.5917
 5522SOL    HW216995   3.541   2.595   0.451  0.8669 -1.2517 -0.2251
 5523SOL     OW16996   0.690   2.200   2.568 -0.1968  0.1194  0.3274
 5523SOL    HW116997   0.663   2.142   2.497 -1.5002  0.6060  0.4003
 5523SOL    HW216998   0.645   2.283   2.550  1.7489  1.1972  0.1372
 5524SOL     OW16999   0.157   1.313   0.189 -0.4154 -0.2707 -0.4048
 5524SOL    HW117000   0.180   1.265   0.110  2.1688 -0.2546  0.2435
 5524SOL    HW217001   0.219   1.385   0.193  1.3496 -1.7263  2.8775
 5525SOL     OW17002   1.878   2.141   0.220  0.4363 -0.5347 -0.3878
 5525SOL    HW117003   1.960   2.183   0.245 -0.0524 -0.1412  0.5795
 5525SOL    HW217004   1.904   2.053   0.191  1.3089 -0.0410 -1.1417
 5526SOL     OW17005   5.288   0.859   3.576 -0.1477  0.2189  0.0394
 5526SOL    HW117006   5.265   0.869   3.483 -0.1916 -1.9599 -0.2456
 5526SOL    HW217007   5.207   0.877   3.623 -1.0011 -1.7059 -0.5922
 5527SOL     OW17008   3.463   5.092   1.284 -0.0901  0.0469  0.3848
 5527SOL    HW117009   3.504   5.033   1.347  1.3815  0.3588 -0.2282
 5527SOL    HW217010   3.427   5.163   1.338 -1.5921 -1.1962  1.0974
 5528SOL     OW17011   4.793   5.008   4.357 -1.0255  0.3419 -0.4261
 5528SOL    HW117012   4.774   5.092   4.316 -0.2643  0.0360 -1.4565
 5528SOL    HW217013   4.868   4.974   4.308 -0.9612 -0.6813  0.3427
 5529SOL     OW17014   6.213   0.904   2.548 -0.3709  0.3938  0.6149
 5529SOL    HW117015   6.163   0.851   2.487  0.7724 -0.1156  0.0826
 5529SOL    HW217016   6.172   0.990   2.545 -1.5638 -0.1637  0.6477
 5530SOL     OW17017   0.711   3.783   1.919 -0.3523  0.7235 -0.0638
 5530SOL    HW117018   0.666   3.720   1.976  0.6015  0.2857  0.2312
 5530SOL    HW217019   0.642   3.841   1.888 -1.2946 -0.6011 -0.5220
 5531SOL     OW17020   2.993   1.380   4.121  0.6328 -0.0175  0.2738
 5531SOL    HW117021   2.937   1.302   4.121  0.0366  0.4062  0.3611
 5531SOL    HW217022   2.934   1.452   4.140  0.9962  0.5902 -0.8144
 5532SOL     OW17023   1.970   3.819   3.891 -0.2007  0.3254  0.5115
 5532SOL    HW117024   2.055   3.857   3.869  0.2674 -0.7807  0.3766
 5532SOL    HW217025   1.959   3.746   3.831 -1.5128  0.7839  0.1511
 5533SOL     OW17026   1.029   1.664   5.671  0.3891 -0.3786 -0.0090
 5533SOL    HW117027   0.942   1.624   5.663 -0.6399  1.9837 -2.0539
 5533SOL    HW217028   1.089   1.590   5.675 -1.6516 -2.0959  0.5611
 5534SOL     OW17029   2.832   5.963   2.353 -0.3043  0.2449 -0.1250
 5534SOL    HW117030   2.782   5.941   2.274 -1.3103 -1.5849  0.9576
 5534SOL    HW217031   2.907   5.903   2.351  0.3033  0.9979 -0.2664
 5535SOL     OW17032   1.657   0.915   4.204  0.5174 -0.0698 -0.3722
 5535SOL    HW117033   1.711   0.963   4.267 -0.5483 -1.4463  1.7238
 5535SOL    HW217034   1.682   0.824   4.217 -0.6257 -0.4913 -1.0537
 5536SOL     OW17035   4.033   3.756   1.473  0.2671 -0.1144  0.2284
 5536SOL    HW117036   4.011   3.733   1.564  1.1333  1.0665  0.7675
 5536SOL    HW217037   4.096   3.688   1.447  1.3436  0.4827  1.1406
 5537SOL     OW17038   3.040   0.264   4.479  0.1241 -0.1450  0.4593
 5537SOL    HW117039   3.088   0.181   4.475 -1.6211 -1.1982 -0.1188
 5537SOL    HW217040   3.023   0.285   4.387  0.2828  0.6994  0.6194
 5538SOL     OW17041   2.233   1.750   2.239  0.3964 -0.1476  0.6699
 5538SOL    HW117042   2.152   1.749   2.291 -0.5757 -0.4679 -0.7694
 5538SOL    HW217043   2.209   1.797   2.159  1.5151 -0.6369  0.0255
 5539SOL     OW17044   5.369   2.805   5.090  0.1729  0.0586  0.0713
 5539SOL    HW117045   5.283   2.840   5.115 -0.4454 -0.1041 -1.7035
 5539SOL    HW217046   5.378   2.827   4.998  0.8167 -2.3351 -0.5020
 5540SOL     OW17047   4.705   4.169   0.979  0.4795 -0.3907  0.4226
 5540SOL    HW117048   4.626   4.176   1.033 -0.1904  0.1962 -0.5778
 5540SOL    HW217049   4.742   4.258   0.980  0.7654 -0.5102  0.3750
 5541SOL     OW17050   4.728   0.107   5.724  0.2027 -0.4682 -0.0960
 5541SOL    HW117051   4.811   0.118   5.770  0.0659 -0.8913  0.2637
 5541SOL    HW217052   4.711   0.013   5.729  1.8444 -1.1255 -3.8903
 5542SOL     OW17053   2.994   4.650   5.329  0.3153  0.3860  0.4944
 5542SOL    HW117054   3.017   4.623   5.240  0.3084  1.9268 -0.0044
 5542SOL    HW217055   3.021   4.741   5.334 -1.7454  1.0013  1.3238
 5543SOL     OW17056   2.707   0.125   5.749 -0.3001  0.2684 -0.1892
 5543SOL    HW117057   2.787   0.167   5.782 -0.2418  0.4682 -0.5728
 5543SOL    HW217058   2.732   0.033   5.737 -1.0087 -0.3998  2.6245
 5544SOL     OW17059   0.748   4.930   2.726  0.6496  0.1308  0.1680
 5544SOL    HW117060   0.657   4.937   2.755  1.1201 -0.0022  1.7805
 5544SOL    HW217061   0.753   4.986   2.649 -0.3413  1.7710  1.2157
 5545SOL     OW17062   3.934   6.036   2.308 -0.3770  0.3866 -0.0697
 5545SOL    HW117063   3.979   6.099   2.251 -0.6146  1.6198  1.0482
 5545SOL    HW217064   4.000   6.011   2.373  0.1526 -1.6634 -1.3170
 5546SOL     OW17065   5.830   1.052   2.334  0.2361 -0.4567 -0.0168
 5546SOL    HW117066   5.775   1.025   2.408 -0.6652  1.2274 -0.0182
 5546SOL    HW217067   5.769   1.086   2.269  1.2119  1.3846 -0.0668
 5547SOL     OW17068   3.121   2.678   3.831  0.3192  0.3245  0.1486
 5547SOL    HW117069   3.137   2.769   3.804 -0.4145 -0.1551 -2.1615
 5547SOL    HW217070   3.030   2.662   3.804 -0.9605  0.0300  4.0569
 5548SOL     OW17071   2.932   0.699   3.470 -0.2884 -0.0134 -0.1346
 5548SOL    HW117072   2.907   0.682   3.561 -1.9961  0.9050 -0.4034
 5548SOL    HW217073   2.940   0.794   3.464 -1.3232  0.0310 -1.2016
 5549SOL     OW17074   4.750   0.672   3.228  0.7865 -0.1235 -0.2311
 5549SOL    HW117075   4.657   0.652   3.240  0.4725  1.0839 -0.5457
 5549SOL    HW217076   4.781   0.603   3.169  0.5322 -1.5815  1.2742
 5550SOL     OW17077   3.519   3.638   5.383  0.8803 -0.0164 -1.0006
 5550SOL    HW117078   3.567   3.672   5.308  1.3505 -1.7091 -1.5088
 5550SOL    HW217079   3.471   3.563   5.348 -0.8312  0.6064 -0.1275
 5551SOL     OW17080   3.194   0.952   3.219  0.2864 -0.3528 -0.0460
 5551SOL    HW117081   3.272   0.941   3.165  1.0655  2.0430  0.4480
 5551SOL    HW217082   3.227   0.989   3.301 -1.1914 -1.0803  0.9275
 5552SOL     OW17083   3.863   3.440   2.973 -0.1670  0.0302 -0.0159
 5552SOL    HW117084   3.930   3.377   3.002 -0.5050  0.4493  1.8165
 5552SOL    HW217085   3.799   3.441   3.044 -2.0590 -0.2228 -1.6471
 5553SOL     OW17086   4.896   4.525   3.419 -0.4260  0.4056  0.1451
 5553SOL    HW117087   4.807   4.491   3.429 -0.9672  1.1471 -1.5909
 5553SOL    HW217088   4.885   4.604   3.366  1.4414 -0.7753 -2.2366
 5554SOL     OW17089   4.107   4.436   5.187 -0.2807 -0.2719 -0.0678
 5554SOL    HW117090   4.083   4.426   5.094 -0.8489 -0.4134  0.0909
 5554SOL    HW217091   4.030   4.407   5.235  0.3691 -1.1611  0.4691
 5555SOL     OW17092   0.571   4.968   1.449  0.5953  0.3519 -0.1863
 5555SOL    HW117093   0.511   5.026   1.402 -0.1310  1.2118  1.6955
 5555SOL    HW217094   0.651   5.019   1.460  0.7652  0.1518 -0.4960
 5556SOL     OW17095   1.226   5.876   3.710  0.1133 -0.0274  0.3928
 5556SOL    HW117096   1.193   5.914   3.629  2.0661  1.1457  0.0633
 5556SOL    HW217097   1.172   5.798   3.725 -1.2298  0.5461 -1.2344
 5557SOL     OW17098   1.788   4.653   3.345  0.2949  0.4745 -0.2417
 5557SOL    HW117099   1.700   4.637   3.380  0.7678 -2.2823 -0.1404
 5557SOL    HW217100   1.777   4.727   3.285 -1.9997  0.4453  0.0681
 5558SOL     OW17101   4.869   1.331   4.855  0.1111  0.2361 -0.1261
 5558SOL    HW117102   4.818   1.368   4.783 -1.0941 -1.2621 -0.0832
 5558SOL    HW217103   4.863   1.396   4.925 -0.0174  0.9912 -0.8272
 5559SOL     OW17104   5.358   5.523   5.706 -0.0501 -0.2368  0.1655
 5559SOL    HW117105   5.348   5.515   5.801  0.0023  1.8186  0.3839
 5559SOL    HW217106   5.288   5.583   5.680  0.4725 -0.1045 -0.9816
 5560SOL     OW17107   1.989   3.753   4.326 -0.4530  0.3631  0.4028
 5560SOL    HW117108   2.000   3.833   4.274  2.1647 -0.3091 -0.2347
 5560SOL    HW217109   2.019   3.683   4.269  1.7049 -0.5200  2.4515
 5561SOL     OW17110   1.339   0.285   0.048 -0.0645 -0.1408 -0.1053
 5561SOL    HW117111   1.246   0.305   0.051 -0.1920 -0.7759  2.3080
 5561SOL    HW217112   1.342   0.189   0.047  0.5953 -0.1337 -1.5708
 5562SOL     OW17113   0.411   2.181   5.431 -0.0259  0.0178 -0.2894
 5562SOL    HW117114   0.365   2.097   5.430 -0.0201 -0.0586  1.5868
 5562SOL    HW217115   0.498   2.160   5.466 -0.1263  0.8472  0.4800
 5563SOL     OW17116   3.618   6.062   6.022  0.3209  0.2008  0.5949
 5563SOL    HW117117   3.695   6.017   6.054 -0.9177 -2.0836  0.5597
 5563SOL    HW217118   3.552   6.050   6.090 -0.3058  1.2972  0.2217
 5564SOL     OW17119   2.634   4.451   2.890  0.0244  0.0081  0.4702
 5564SOL    HW117120   2.653   4.389   2.960  0.6730 -1.5431 -1.0126
 5564SOL    HW217121   2.552   4.420   2.851  0.2883  0.1363 -0.2073
 5565SOL     OW17122   2.072   2.775   4.576 -0.4013  0.3490 -0.4235
 5565SOL    HW117123   1.978   2.784   4.591 -0.2409  0.1985  0.7967
 5565SOL    HW217124   2.084   2.683   4.553 -0.4503  0.1334  0.3798
 5566SOL     OW17125   3.634   4.608   5.463  0.1312 -0.5346 -0.1509
 5566SOL    HW117126   3.545   4.575   5.448  0.5482 -1.6230 -0.3386
 5566SOL    HW217127   3.649   4.594   5.556  0.4466 -1.2384 -0.3047
 5567SOL     OW17128   4.113   0.790   1.319 -0.3019 -0.4356  0.4042
 5567SOL    HW117129   4.094   0.870   1.367  2.2735  0.1734  0.5373
 5567SOL    HW217130   4.078   0.805   1.231  0.5130  0.9997  0.3114
 5568SOL     OW17131   1.042   0.212   4.212 -0.4732  0.7927  0.0057
 5568SOL    HW117132   1.056   0.217   4.307 -1.6365 -0.2626  0.2561
 5568SOL    HW217133   1.130   0.201   4.175 -0.0734  0.4844  1.0200
 5569SOL     OW17134   0.554   3.433   0.924 -0.3032 -0.2895 -0.1774
 5569SOL    HW117135   0.625   3.432   0.988 -0.9360  0.8855  0.5665
 5569SOL    HW217136   0.474   3.431   0.977 -0.8913  2.8368 -0.7770
 5570SOL     OW17137   1.934   1.738   2.207  0.0285  0.0875 -0.2551
 5570SOL    HW117138   1.910   1.830   2.197  0.2128  0.0637 -1.0183
 5570SOL    HW217139   1.853   1.695   2.234  0.4952  0.8385  2.7100
 5571SOL     OW17140   5.493   4.435   1.163 -0.0311  0.0530 -0.5120
 5571SOL    HW117141   5.563   4.381   1.199 -0.6189 -1.4662 -1.5633
 5571SOL    HW217142   5.450   4.379   1.098 -2.4500  0.8121  0.3193
 5572SOL     OW17143   3.693   4.540   6.037  0.0231 -0.8498  0.4076
 5572SOL    HW117144   3.645   4.457   6.037  0.8691 -1.3611 -0.0696
 5572SOL    HW217145   3.770   4.523   6.093  0.6367 -0.6630 -0.3644
 5573SOL     OW17146   4.898   6.195   1.734 -0.4513 -0.8331  0.0973
 5573SOL    HW117147   4.898   6.196   1.829 -1.0082 -1.2529  0.1039
 5573SOL    HW217148   4.969   6.135   1.710  1.7085  1.4980  0.1912
 5574SOL     OW17149   0.087   2.258   6.097  0.0025  0.0965 -0.3977
 5574SOL    HW117150   0.117   2.338   6.054 -0.7437  0.2193 -0.6962
 5574SOL    HW217151  -0.007   2.268   6.105 -0.1009 -0.7429 -0.4134
 5575SOL     OW17152   3.924   4.024   3.934  0.3055 -0.3037  0.3968
 5575SOL    HW117153   3.937   3.930   3.925 -2.0500 -0.5995 -0.6222
 5575SOL    HW217154   3.932   4.041   4.028  0.7249 -1.5263  0.5926
 5576SOL     OW17155   0.114   2.353   2.742 -0.2121 -0.1876  0.2817
 5576SOL    HW117156   0.209   2.344   2.739 -0.3354 -2.2557 -2.9892
 5576SOL    HW217157   0.083   2.267   2.773 -1.0184  0.0904  0.2652
 5577SOL     OW17158   5.607   4.690   0.893 -0.4923 -0.0897  0.1667
 5577SOL    HW117159   5.523   4.647   0.876 -0.5929  0.4878 -0.8943
 5577SOL    HW217160   5.668   4.650   0.832 -0.2062  0.1171  0.3110
 5578SOL     OW17161   6.021   4.590   2.945  0.6217 -0.4730 -0.3438
 5578SOL    HW117162   5.941   4.639   2.960 -0.7100 -2.6806  0.3310
 5578SOL    HW217163   6.059   4.578   3.032  1.2220 -0.1919 -0.5610
 5579SOL     OW17164   5.929   2.421   5.111  0.5531 -0.1338 -0.4684
 5579SOL    HW117165   5.962   2.331   5.112 -0.7004 -0.6261 -1.4070
 5579SOL    HW217166   5.925   2.446   5.203  0.1451 -1.3424 -0.1374
 5580SOL     OW17167   0.806   0.277   0.502 -0.1550 -0.0259  0.2390
 5580SOL    HW117168   0.773   0.217   0.568  1.3132  0.0929  1.1279
 5580SOL    HW217169   0.858   0.222   0.443 -1.0679 -0.0496 -0.5894
 5581SOL     OW17170   1.931   4.526   5.599  0.1771  0.0482  0.2103
 5581SOL    HW117171   2.011   4.530   5.546  0.1481 -0.8174  0.0753
 5581SOL    HW217172   1.914   4.432   5.608 -0.0063  0.1850  1.4744
 5582SOL     OW17173   2.644   5.895   1.333 -0.2886  0.0924  0.3159
 5582SOL    HW117174   2.684   5.959   1.273 -0.1063  0.9588  1.3250
 5582SOL    HW217175   2.675   5.922   1.419 -1.9182 -0.0752  0.9807
 5583SOL     OW17176   3.903   4.707   4.886  0.0611 -0.0310 -0.0245
 5583SOL    HW117177   3.839   4.777   4.871 -0.9788 -1.0717 -0.5432
 5583SOL    HW217178   3.854   4.637   4.927  1.2698 -0.1886  1.2428
 5584SOL     OW17179   1.624   4.988   5.674  0.0099 -0.3243  0.6357
 5584SOL    HW117180   1.556   5.003   5.740 -0.9328 -0.7473 -0.1980
 5584SOL    HW217181   1.656   5.076   5.652 -1.6741  0.1104 -0.3460
 5585SOL     OW17182   5.647   1.866   1.289 -0.0384  0.1511  0.3392
 5585SOL    HW117183   5.706   1.863   1.364  1.4687 -0.3384 -0.7950
 5585SOL    HW217184   5.670   1.948   1.244 -0.4527  0.1136  0.0553
 5586SOL     OW17185   5.530   1.821   2.041  0.4338 -0.1045  0.5927
 5586SOL    HW117186   5.563   1.732   2.032 -1.1906 -0.8087  1.2698
 5586SOL    HW217187   5.496   1.825   2.130 -0.9639  0.6639  0.0581
 5587SOL     OW17188   3.369   2.872   5.228  0.2364  0.2388 -0.0979
 5587SOL    HW117189   3.286   2.914   5.205 -0.3692 -0.3901  0.8377
 5587SOL    HW217190   3.373   2.794   5.173 -0.5203 -0.5032  0.8512
 5588SOL     OW17191   5.827   0.849   2.110 -0.0140 -0.0599  0.0197
 5588SOL    HW117192   5.830   0.759   2.078 -0.1405 -0.2542  0.5535
 5588SOL    HW217193   5.781   0.844   2.194  1.5184  0.2523  0.9156
 5589SOL     OW17194   3.211   4.789   3.451  0.2609 -0.2484 -0.5720
 5589SOL    HW117195   3.225   4.728   3.378  0.0053 -0.2863 -0.5927
 5589SOL    HW217196   3.194   4.873   3.410 -1.1722 -0.5210 -0.6172
 5590SOL     OW17197   5.918   1.273   0.596  0.1527 -0.0990 -0.3774
 5590SOL    HW117198   5.862   1.236   0.664  0.6141  1.6504  1.0416
 5590SOL    HW217199   5.858   1.292   0.524 -0.7272 -0.1821  0.3056
 5591SOL     OW17200   2.678   1.287   4.281  0.4008  0.2596  0.0834
 5591SOL    HW117201   2.731   1.351   4.328  2.6188 -1.4962  0.1494
 5591SOL    HW217202   2.664   1.325   4.195  2.5611  0.4787 -0.2302
 5592SOL     OW17203   6.084   5.435   0.286  0.6935  0.0483  0.7063
 5592SOL    HW117204   6.072   5.386   0.367  2.1559 -0.7388  0.4879
 5592SOL    HW217205   6.127   5.517   0.313 -0.3531  0.5556  0.8930
 5593SOL     OW17206   1.850   2.921   3.795 -0.1785 -0.1125 -0.1172
 5593SOL    HW117207   1.914   2.921   3.866 -2.4812  0.1216  2.1121
 5593SOL    HW217208   1.782   2.982   3.824 -1.5550 -0.5461 -2.2206
 5594SOL     OW17209   3.940   1.834   0.027 -0.1093  0.3317 -0.0190
 5594SOL    HW117210   3.896   1.918   0.038 -0.3021 -0.0428  2.8831
 5594SOL    HW217211   3.872   1.776  -0.006 -1.0073  0.4934  1.4624
 5595SOL     OW17212   5.234   2.092   1.554 -0.1534  0.1576  0.8889
 5595SOL    HW117213   5.158   2.075   1.498  0.6438 -0.6332  0.0140
 5595SOL    HW217214   5.247   2.187   1.549  0.6134 -0.0175 -1.2588
 5596SOL     OW17215   1.473   3.412   3.350  0.3133 -0.1752  0.5083
 5596SOL    HW117216   1.451   3.383   3.438  0.7222 -2.6321 -0.1428
 5596SOL    HW217217   1.465   3.334   3.295 -0.5158  1.3789 -1.7704
 5597SOL     OW17218   3.011   2.749   6.049  0.8227  0.0643  0.0793
 5597SOL    HW117219   2.927   2.767   6.006  0.3784 -0.5724  0.6565
 5597SOL    HW217220   3.072   2.811   6.009  0.7686 -1.3729 -2.4483
 5598SOL     OW17221   5.519   3.560   4.020 -0.2459 -0.0199  0.2589
 5598SOL    HW117222   5.575   3.613   3.963 -1.6413  0.8919 -0.3173
 5598SOL    HW217223   5.461   3.623   4.062 -1.2647 -0.9890  0.3583
 5599SOL     OW17224   4.883   1.242   2.800  0.2480 -0.2090 -0.2003
 5599SOL    HW117225   4.932   1.191   2.865  1.0075 -0.1995 -0.7596
 5599SOL    HW217226   4.947   1.262   2.732 -0.4494  0.1060 -0.7711
 5600SOL     OW17227   6.096   1.637   2.929 -0.5739  0.2292  0.1636
 5600SOL    HW117228   6.144   1.562   2.964 -0.7424 -0.5532 -1.2134
 5600SOL    HW217229   6.004   1.617   2.946 -0.7316 -0.6241 -1.5145
 5601SOL     OW17230   2.894   3.483   0.083  0.0454  0.3341  0.3661
 5601SOL    HW117231   2.903   3.564   0.034 -0.6295 -0.1185 -0.5256
 5601SOL    HW217232   2.878   3.416   0.017 -0.2521 -0.3928  1.1542
 5602SOL     OW17233   0.529   0.141   1.110  0.0299 -0.3947  0.1263
 5602SOL    HW117234   0.511   0.193   1.188  1.0514  0.2768 -0.0593
 5602SOL    HW217235   0.511   0.200   1.037 -2.1414 -1.4088 -0.2298
 5603SOL     OW17236   6.030   3.019   5.678 -0.3166  0.0768  0.6539
 5603SOL    HW117237   5.941   3.051   5.688 -0.5649 -0.6510  0.8846
 5603SOL    HW217238   6.061   3.058   5.597 -1.0896 -0.1942  0.2136
 5604SOL     OW17239   6.146   5.874   4.563 -0.3317  0.5066 -0.2685
 5604SOL    HW117240   6.085   5.885   4.636  1.0501 -2.5614  1.5425
 5604SOL    HW217241   6.233   5.883   4.602  0.4545 -1.1383 -1.4975
 5605SOL     OW17242   5.619   1.565   1.978 -0.6292 -0.1531 -0.0327
 5605SOL    HW117243   5.695   1.507   1.983 -1.6350 -1.4987  0.2584
 5605SOL    HW217244   5.643   1.631   1.913  0.3137 -1.2742 -0.8591
 5606SOL     OW17245   4.857   5.899   4.306  0.2953  0.4488  0.1560
 5606SOL    HW117246   4.824   5.952   4.233  0.7132 -0.0618 -0.4135
 5606SOL    HW217247   4.793   5.912   4.376 -0.0809  0.9928 -0.2802
 5607SOL     OW17248   0.768   2.868   3.419 -0.6181  0.5596 -0.6258
 5607SOL    HW117249   0.766   2.797   3.356  1.1077 -0.8324  0.7982
 5607SOL    HW217250   0.676   2.882   3.442 -1.0212 -0.9902 -1.1736
 5608SOL     OW17251   3.613   6.175   0.749  0.5256  0.0269  0.2434
 5608SOL    HW117252   3.568   6.154   0.831 -1.3218  1.6288 -0.2822
 5608SOL    HW217253   3.652   6.261   0.765 -1.1865  1.0978 -0.9940
 5609SOL     OW17254   3.257   2.843   2.612 -0.0902  0.2501  0.3590
 5609SOL    HW117255   3.261   2.782   2.686 -1.0283  0.7103  0.8034
 5609SOL    HW217256   3.199   2.800   2.549  0.7208 -0.1490 -0.1231
 5610SOL     OW17257   6.150   5.564   4.815 -0.8176  0.0794 -0.8353
 5610SOL    HW117258   6.241   5.574   4.845 -0.5631  2.0203 -2.0554
 5610SOL    HW217259   6.131   5.646   4.770 -2.2807 -1.3339 -2.9789
 5611SOL     OW17260   4.209   0.513   3.876 -0.2256  0.3534 -0.2646
 5611SOL    HW117261   4.275   0.448   3.901 -1.4119 -0.9935 -0.4503
 5611SOL    HW217262   4.258   0.593   3.859  1.3774 -0.6699 -0.6422
 5612SOL     OW17263   4.729   1.818   4.492  0.0663 -0.1849 -0.0875
 5612SOL    HW117264   4.667   1.769   4.546  1.3568 -0.1351  1.4858
 5612SOL    HW217265   4.761   1.888   4.548  0.7723  0.4421 -1.2262
 5613SOL     OW17266   3.964   2.432   5.066  0.0834  0.5111  0.2075
 5613SOL    HW117267   3.950   2.482   5.146 -1.2415  0.9658 -0.2824
 5613SOL    HW217268   4.044   2.468   5.028  1.2575 -0.3408  1.7777
 5614SOL     OW17269   3.779   0.265   4.155  0.0328 -0.0883 -0.0035
 5614SOL    HW117270   3.729   0.290   4.233 -0.5508  1.8009 -0.9150
 5614SOL    HW217271   3.714   0.265   4.085  1.1170  1.4692 -1.0467
 5615SOL     OW17272   2.893   5.951   5.818  0.2449 -0.0825 -0.5994
 5615SOL    HW117273   2.928   5.882   5.874 -2.3011 -1.9546 -1.1508
 5615SOL    HW217274   2.938   5.939   5.734  2.0652  0.9982  0.1573
 5616SOL     OW17275   1.329   2.282   3.202 -0.4878  0.6883 -0.1144
 5616SOL    HW117276   1.340   2.240   3.117  0.5893  2.2764 -0.8121
 5616SOL    HW217277   1.249   2.333   3.193 -1.6207 -0.8877  0.6254
 5617SOL     OW17278   5.864   0.145   3.674  0.1697  0.2427  0.6380
 5617SOL    HW117279   5.776   0.183   3.666  0.0686 -0.3206 -2.0949
 5617SOL    HW217280   5.919   0.201   3.619  0.8350 -1.2072 -0.2162
 5618SOL     OW17281   4.950   5.059   2.140  0.3520  0.5911  0.1409
 5618SOL    HW117282   4.930   5.016   2.223  1.3677 -1.7691 -0.7610
 5618SOL    HW217283   5.037   5.097   2.153 -0.7198  2.9417  1.0818
 5619SOL     OW17284   0.693   0.391   4.388 -0.2188 -0.3769  0.5669
 5619SOL    HW117285   0.749   0.334   4.441  2.5393 -0.3455 -2.0365
 5619SOL    HW217286   0.639   0.436   4.452  1.1320 -2.0975  3.1441
 5620SOL     OW17287   3.151   5.416   0.020  0.0272  0.5390  0.1265
 5620SOL    HW117288   3.227   5.473   0.011  1.7900 -1.5890  0.6415
 5620SOL    HW217289   3.108   5.446   0.100  0.0476  2.0402 -0.3958
 5621SOL     OW17290   4.140   2.471   0.042 -0.4771 -0.4477  0.5509
 5621SOL    HW117291   4.150   2.454   0.136 -0.9339 -0.7746  0.5473
 5621SOL    HW217292   4.046   2.484   0.031 -0.3920 -0.1429  0.1787
 5622SOL     OW17293   5.479   3.629   0.804 -0.0894  0.0597 -0.5625
 5622SOL    HW117294   5.395   3.607   0.845 -0.1452 -0.0518 -0.7337
 5622SOL    HW217295   5.529   3.547   0.808  0.5096  0.4604  0.7136
 5623SOL     OW17296   3.234   0.763   0.817 -0.1344  0.2640 -0.0527
 5623SOL    HW117297   3.323   0.745   0.788 -0.5117 -1.5841 -0.1847
 5623SOL    HW217298   3.187   0.786   0.737 -0.1780 -0.5366 -0.2646
 5624SOL     OW17299   4.406   2.995   4.339 -0.6165  0.3505  0.1036
 5624SOL    HW117300   4.487   3.041   4.320 -0.5286  0.2387  0.2044
 5624SOL    HW217301   4.368   3.043   4.413  0.9536 -1.4762  2.2297
 5625SOL     OW17302   4.074   3.972   2.708 -0.4442  0.1591  0.3838
 5625SOL    HW117303   4.060   3.891   2.659  1.9696  0.9666 -1.8895
 5625SOL    HW217304   4.008   4.033   2.673 -1.6067 -0.4761  1.3866
 5626SOL     OW17305   5.848   6.011   0.781 -0.6022 -0.6656  0.3560
 5626SOL    HW117306   5.820   5.927   0.745 -1.3930 -0.4573  0.4734
 5626SOL    HW217307   5.907   5.988   0.853  0.1536 -1.0955 -0.3746
 5627SOL     OW17308   3.162   5.191   5.841  0.1809  0.1975  0.1040
 5627SOL    HW117309   3.212   5.265   5.873  1.3079 -1.2407  1.8368
 5627SOL    HW217310   3.226   5.121   5.829 -1.0383 -0.9442 -0.0723
 5628SOL     OW17311   2.960   4.489   0.145  0.0558  0.1867  0.1955
 5628SOL    HW117312   2.873   4.519   0.117  0.0680  0.8869  0.8540
 5628SOL    HW217313   2.959   4.501   0.240  0.2730 -1.4204  0.4202
 5629SOL     OW17314   2.174   2.916   4.790  0.2785 -0.3822 -0.6906
 5629SOL    HW117315   2.148   2.839   4.741  0.3305 -1.5445  1.0167
 5629SOL    HW217316   2.095   2.943   4.837  0.7797 -0.7556  0.4193
 5630SOL     OW17317   3.273   2.822   1.660  0.1160 -0.0161  0.0113
 5630SOL    HW117318   3.280   2.913   1.689 -2.2059  0.7033 -1.3936
 5630SOL    HW217319   3.362   2.798   1.635  0.9079  1.6162  1.0987
 5631SOL     OW17320   0.925   4.259   3.310  0.1247 -0.0819  0.5310
 5631SOL    HW117321   0.991   4.317   3.271  0.1752 -0.8996 -0.6426
 5631SOL    HW217322   0.843   4.306   3.297  0.1160 -0.4204 -0.7670
 5632SOL     OW17323   5.536   2.339   0.439 -0.6693  0.0841  0.2123
 5632SOL    HW117324   5.465   2.293   0.393 -0.2303 -0.1727 -0.2203
 5632SOL    HW217325   5.512   2.333   0.531  0.6260 -3.3518  0.4758
 5633SOL     OW17326   3.338   1.761   4.934 -0.2995  0.2426  0.1700
 5633SOL    HW117327   3.302   1.773   4.846  2.1073 -0.7288 -1.0437
 5633SOL    HW217328   3.397   1.836   4.947 -0.4484  0.2489  0.8715
 5634SOL     OW17329   0.616   0.152   2.176 -0.2698 -0.4338  0.3962
 5634SOL    HW117330   0.602   0.236   2.220  1.8664  0.5298 -0.6228
 5634SOL    HW217331   0.698   0.119   2.212  0.0687 -0.9822 -0.8195
 5635SOL     OW17332   5.672   2.732   0.108  0.4827 -0.1134 -0.0146
 5635SOL    HW117333   5.675   2.809   0.165  0.9887 -0.1516  0.0073
 5635SOL    HW217334   5.595   2.683   0.139 -0.9354  1.2550 -1.1664
 5636SOL     OW17335   5.474   1.474   5.140 -0.3533  0.3210  0.4983
 5636SOL    HW117336   5.427   1.411   5.194  0.3754 -1.2287 -0.5756
 5636SOL    HW217337   5.541   1.510   5.198 -0.8739  0.2251  1.1745
 5637SOL     OW17338   3.369   3.745   1.847 -0.1447 -0.2698  0.2183
 5637SOL    HW117339   3.373   3.792   1.763  1.1644  0.8378  0.8501
 5637SOL    HW217340   3.333   3.659   1.825  1.3000 -0.4589 -1.7187
 5638SOL     OW17341   4.910   4.766   3.919  0.3330 -0.0934 -0.4789
 5638SOL    HW117342   4.885   4.730   4.005  0.0960  0.7102 -0.1999
 5638SOL    HW217343   4.827   4.782   3.875  0.4496 -2.8422 -1.9050
 5639SOL     OW17344   5.819   3.589   4.381 -0.6371 -0.7161  0.5458
 5639SOL    HW117345   5.887   3.632   4.433 -0.2526  0.0183 -0.5223
 5639SOL    HW217346   5.865   3.557   4.304 -1.7871  1.7009 -1.2767
 5640SOL     OW17347   1.123   0.726   1.105  0.0608  0.1776 -0.1017
 5640SOL    HW117348   1.185   0.720   1.178  0.9759  0.2455 -0.8453
 5640SOL    HW217349   1.061   0.793   1.131  0.5779  0.4455  0.4683
 5641SOL     OW17350   4.825   3.716   2.058  0.1124  0.1145  0.0023
 5641SOL    HW117351   4.835   3.791   1.999 -2.5269  1.4239  1.0349
 5641SOL    HW217352   4.814   3.641   2.000  1.5161  0.6972 -1.0825
 5642SOL     OW17353   0.498   4.308   4.671 -0.1790 -0.4237  0.1806
 5642SOL    HW117354   0.583   4.282   4.635 -0.0427 -1.8549  1.4130
 5642SOL    HW217355   0.498   4.403   4.666  1.3477 -0.4144 -0.2095
 5643SOL     OW17356   3.379   0.940   4.112  0.3889 -0.7665  0.3413
 5643SOL    HW117357   3.346   0.850   4.112  1.2087 -1.1203 -1.4475
 5643SOL    HW217358   3.321   0.986   4.052 -1.3168  0.4933  2.7785
 5644SOL     OW17359   2.835   5.514   0.662  0.3961 -0.5065 -0.3791
 5644SOL    HW117360   2.853   5.504   0.569  0.4464  1.8526 -0.6924
 5644SOL    HW217361   2.887   5.445   0.704  1.4508 -0.7599 -1.9944
 5645SOL     OW17362   0.014   3.296   4.365 -0.1972  0.3232 -0.1230
 5645SOL    HW117363  -0.020   3.382   4.391 -0.7399  0.3891 -0.9941
 5645SOL    HW217364  -0.045   3.233   4.407 -1.4549  0.4366 -1.5908
 5646SOL     OW17365   1.943   4.351   2.397  0.0096 -0.3816 -0.2594
 5646SOL    HW117366   1.847   4.349   2.393 -0.1192 -0.7588  1.8154
 5646SOL    HW217367   1.963   4.337   2.490  1.9562  3.3223  0.0808
 5647SOL     OW17368   1.911   1.854   0.148  0.1545 -0.1506  0.1506
 5647SOL    HW117369   1.841   1.842   0.084  0.3405  0.4606 -0.1716
 5647SOL    HW217370   1.949   1.767   0.158 -0.1904 -0.3439 -0.2069
 5648SOL     OW17371   1.928   3.730   3.103  0.1645  0.0305  0.6716
 5648SOL    HW117372   1.888   3.803   3.151 -0.4886 -1.1032  1.9001
 5648SOL    HW217373   2.016   3.724   3.139  0.1994  0.1684  0.6120
 5649SOL     OW17374   2.472   5.108   4.812 -0.3117 -0.3455  0.1173
 5649SOL    HW117375   2.397   5.138   4.863  0.4441  0.6780  0.6593
 5649SOL    HW217376   2.502   5.030   4.858 -0.4859 -0.2318  0.4280
 5650SOL     OW17377   0.595   2.072   0.415  0.3168 -0.3466 -0.0125
 5650SOL    HW117378   0.647   1.999   0.448  1.9095  1.5043  1.8843
 5650SOL    HW217379   0.504   2.047   0.429  0.8451 -1.7147  1.0981
 5651SOL     OW17380   2.163   4.766   5.754 -0.1733  0.3834 -0.6197
 5651SOL    HW117381   2.094   4.736   5.812  0.3376  1.2793  0.4724
 5651SOL    HW217382   2.222   4.817   5.809  1.3975 -0.3834 -1.5054
 5652SOL     OW17383   0.694   1.793   2.528 -1.0353  0.2231  0.0296
 5652SOL    HW117384   0.649   1.711   2.551 -2.1154  0.4991 -0.9594
 5652SOL    HW217385   0.741   1.818   2.607  0.1030 -1.8437  0.0815
 5653SOL     OW17386   5.215   5.874   1.951 -0.4040 -0.1951  0.1752
 5653SOL    HW117387   5.217   5.944   2.016 -0.2386 -0.0531  0.0147
 5653SOL    HW217388   5.192   5.917   1.869  0.5436 -0.1928 -0.0999
 5654SOL     OW17389   1.340   4.318   5.449  0.3842 -0.4097  0.5900
 5654SOL    HW117390   1.275   4.281   5.508 -0.3512  2.2537  1.5843
 5654SOL    HW217391   1.415   4.338   5.505  1.1527 -1.2768 -0.1088
 5655SOL     OW17392   1.025   1.465   4.860 -0.3327 -0.0502 -0.1458
 5655SOL    HW117393   0.962   1.492   4.927 -1.0398 -0.8092 -0.4833
 5655SOL    HW217394   0.971   1.447   4.783  0.5814  2.3030 -1.4541
 5656SOL     OW17395   0.254   3.899   1.117 -0.1521  0.4530  0.0231
 5656SOL    HW117396   0.224   3.984   1.085 -3.8286 -0.7942 -0.4472
 5656SOL    HW217397   0.237   3.901   1.211 -0.8467  0.0571 -0.0885
 5657SOL     OW17398   5.803   0.589   5.068  0.3381  0.1629  0.4789
 5657SOL    HW117399   5.870   0.521   5.066 -0.4715 -0.6598  0.6277
 5657SOL    HW217400   5.823   0.646   4.993  0.5362 -0.7182 -0.1437
 5658SOL     OW17401   2.299   4.574   2.038 -0.2506  0.3130  0.1108
 5658SOL    HW117402   2.229   4.584   2.104 -0.9448 -2.1343 -0.1736
 5658SOL    HW217403   2.348   4.656   2.044 -0.8384  0.5798  3.0346
 5659SOL     OW17404   4.284   1.278   5.786  0.1875  0.5875  0.2000
 5659SOL    HW117405   4.357   1.231   5.826 -0.7870 -1.6640 -0.5113
 5659SOL    HW217406   4.317   1.305   5.700 -0.1850 -1.8183 -0.7946
 5660SOL     OW17407   3.408   4.379   5.410  0.1527 -0.5931 -0.4721
 5660SOL    HW117408   3.340   4.322   5.375 -1.0666  0.5124  0.0371
 5660SOL    HW217409   3.361   4.447   5.458  1.6834 -0.7932  1.4374
 5661SOL     OW17410   5.741   4.420   2.693 -0.4250  0.3283  0.1005
 5661SOL    HW117411   5.700   4.342   2.656 -0.0439  1.0018 -1.9101
 5661SOL    HW217412   5.725   4.414   2.787 -0.1455 -2.2931  0.0548
 5662SOL     OW17413   4.012   0.054   2.520 -0.5628  0.3436 -0.1189
 5662SOL    HW117414   3.989   0.042   2.428 -0.6415 -0.5801  0.0116
 5662SOL    HW217415   4.058   0.137   2.523  0.1398  0.0030 -1.1251
 5663SOL     OW17416   4.253   4.297   4.492  0.0119  0.0245 -0.0166
 5663SOL    HW117417   4.219   4.380   4.459 -0.4315  0.6030  1.7586
 5663SOL    HW217418   4.278   4.247   4.414 -0.4702  1.5012 -1.1416
 5664SOL     OW17419   5.644   4.243   2.011 -0.1195 -0.1338 -0.0216
 5664SOL    HW117420   5.678   4.187   1.942  2.0812  0.5367  0.4526
 5664SOL    HW217421   5.573   4.192   2.050  1.4683 -2.3983  0.0833
 5665SOL     OW17422   0.810   0.666   5.061 -0.3325  0.1051 -0.0623
 5665SOL    HW117423   0.751   0.616   5.004  0.1805 -0.0322 -0.4823
 5665SOL    HW217424   0.868   0.712   5.000  0.1169  0.0882  0.3497
 5666SOL     OW17425   3.640   2.035   3.274  0.2331 -0.1077 -0.1438
 5666SOL    HW117426   3.662   1.985   3.353  0.7424 -1.0930 -0.8961
 5666SOL    HW217427   3.691   1.995   3.204  0.3687  1.2342 -0.8560
 5667SOL     OW17428   3.510   2.322   1.326 -0.4111  0.4300  0.1878
 5667SOL    HW117429   3.543   2.263   1.392  1.4960  0.6370 -0.5235
 5667SOL    HW217430   3.439   2.274   1.283  1.8048 -1.8502 -1.1219
 5668SOL     OW17431   3.558   0.980   0.505 -0.0308  0.1710  0.1814
 5668SOL    HW117432   3.628   1.030   0.547  0.2541  0.3569 -0.5025
 5668SOL    HW217433   3.540   1.027   0.424 -1.6634  0.7200  0.8154
 5669SOL     OW17434   0.351   1.093   4.751  0.4677  0.1571  0.6131
 5669SOL    HW117435   0.358   1.161   4.817 -0.3257 -0.2588  1.1393
 5669SOL    HW217436   0.441   1.075   4.725  0.7902  0.3331  1.5774
 5670SOL     OW17437   4.338   5.464   1.403 -0.2921  0.4088  0.0642
 5670SOL    HW117438   4.256   5.426   1.372  0.8246 -0.9342 -1.3905
 5670SOL    HW217439   4.361   5.529   1.337 -1.1927  2.3396  1.5505
 5671SOL     OW17440   3.250   1.242   0.160  0.1916 -0.4198 -0.5117
 5671SOL    HW117441   3.301   1.267   0.083 -0.0384 -0.9125 -0.8298
 5671SOL    HW217442   3.250   1.320   0.216  1.5504 -0.5051 -0.3634
 5672SOL     OW17443   1.384   5.029   0.314 -0.2393 -0.1820 -0.3109
 5672SOL    HW117444   1.453   5.041   0.380  0.5210  0.1332 -1.1322
 5672SOL    HW217445   1.413   4.954   0.262 -1.5311 -1.2983  0.5519
 5673SOL     OW17446   2.862   4.526   4.915 -0.3353  0.3157  0.2101
 5673SOL    HW117447   2.865   4.581   4.993  1.0030  0.7301 -0.1016
 5673SOL    HW217448   2.806   4.575   4.854  0.6068  1.2310  0.0409
 5674SOL     OW17449   1.406   5.783   6.125 -0.1194  0.1538 -0.4067
 5674SOL    HW117450   1.476   5.845   6.105  0.0781  0.2566  0.5698
 5674SOL    HW217451   1.444   5.722   6.188 -0.1770 -1.2420 -1.6453
 5675SOL     OW17452   3.286   2.862   4.281 -0.0407  0.1421  0.5642
 5675SOL    HW117453   3.333   2.808   4.345  1.9621 -0.2124 -1.0758
 5675SOL    HW217454   3.332   2.946   4.284  1.0632 -0.3225 -1.3250
 5676SOL     OW17455   1.938   0.660   2.918 -0.5083 -0.2960 -0.2144
 5676SOL    HW117456   1.878   0.589   2.939  1.0576 -1.1325  1.7257
 5676SOL    HW217457   1.944   0.712   2.998 -0.5382  1.2257 -1.1638
 5677SOL     OW17458   3.504   1.026   3.749  0.3190  0.6898  0.1253
 5677SOL    HW117459   3.455   1.036   3.831 -1.4627 -2.9411 -0.3101
 5677SOL    HW217460   3.463   1.089   3.690 -2.0632 -0.2958  0.5986
 5678SOL     OW17461   2.479   0.205   2.241  0.0076 -0.0487  0.0784
 5678SOL    HW117462   2.446   0.201   2.331  0.4018 -0.7904  0.1915
 5678SOL    HW217463   2.557   0.151   2.241 -2.1819 -3.6299 -1.6694
 5679SOL     OW17464   5.630   2.543   4.411 -0.0522  0.3297  0.0818
 5679SOL    HW117465   5.663   2.622   4.370 -1.0590  1.7844  1.9002
 5679SOL    HW217466   5.535   2.557   4.419 -0.0440 -0.2978  1.8964
 5680SOL     OW17467   0.966   4.180   5.457  0.0058  0.6911  0.0696
 5680SOL    HW117468   1.035   4.142   5.511  1.0031  0.9957 -0.9550
 5680SOL    HW217469   0.915   4.105   5.427  1.6976  0.0974 -1.5770
 5681SOL     OW17470   2.343   3.584   2.285  0.3152 -0.7664 -0.4984
 5681SOL    HW117471   2.292   3.557   2.208  0.9054 -2.3152 -0.3820
 5681SOL    HW217472   2.427   3.540   2.275  1.0861  0.5184  0.1049
 5682SOL     OW17473   5.954   0.901   2.965  0.4773 -0.0883 -0.6137
 5682SOL    HW117474   6.041   0.867   2.988  0.2634  0.5451  1.2695
 5682SOL    HW217475   5.953   0.990   3.000 -0.6799  0.1618 -1.2587
 5683SOL     OW17476   2.956   4.869   2.714  0.8012  0.2326 -0.3620
 5683SOL    HW117477   2.919   4.921   2.643  0.5107  1.1977  0.4704
 5683SOL    HW217478   2.943   4.778   2.686 -2.0054  0.5052 -0.2496
 5684SOL     OW17479   4.510   0.323   1.521 -0.1494  0.4991  0.3712
 5684SOL    HW117480   4.464   0.257   1.573 -1.1950  0.5962 -0.3917
 5684SOL    HW217481   4.508   0.289   1.432  1.3406  0.4879  0.3168
 5685SOL     OW17482   4.993   4.170   4.753  0.0608 -0.0360  0.6947
 5685SOL    HW117483   5.030   4.108   4.816  0.4289 -2.1760 -1.4668
 5685SOL    HW217484   4.902   4.142   4.743  0.6320 -1.4320 -1.4873
 5686SOL     OW17485   3.410   6.023   1.459  0.1527  0.7098 -0.0223
 5686SOL    HW117486   3.475   5.956   1.437 -1.3190 -0.9175  0.3862
 5686SOL    HW217487   3.412   6.027   1.555 -1.8801 -1.0353  0.1625
 5687SOL     OW17488   1.772   3.208   2.156  0.2716  0.3578  0.5054
 5687SOL    HW117489   1.812   3.133   2.201 -0.2503  0.6256  1.4397
 5687SOL    HW217490   1.680   3.206   2.183 -0.3003 -0.0254 -1.3105
 5688SOL     OW17491   5.670   4.750   0.290  0.4261 -0.1976 -0.2804
 5688SOL    HW117492   5.757   4.761   0.251 -0.5071  0.5306 -2.2737
 5688SOL    HW217493   5.610   4.784   0.224 -1.3554 -0.1982  1.2799
 5689SOL     OW17494   1.180   4.923   2.567  0.4136  0.1068  0.4198
 5689SOL    HW117495   1.099   4.900   2.521  1.7676 -0.4390 -1.8582
 5689SOL    HW217496   1.178   5.018   2.574  0.4810  0.2887 -1.5055
 5690SOL     OW17497   0.147   4.240   3.137 -0.3727 -0.2255 -0.3676
 5690SOL    HW117498   0.189   4.158   3.109 -2.5083 -1.6071  0.2187
 5690SOL    HW217499   0.056   4.230   3.111 -0.3644  2.8799 -2.0680
 5691SOL     OW17500   1.957   5.233   0.843  0.5802 -0.0579 -0.0852
 5691SOL    HW117501   1.934   5.296   0.911 -0.1009 -0.9488  0.5307
 5691SOL    HW217502   2.045   5.260   0.815  0.3124  1.1552  0.1543
 5692SOL     OW17503   0.986   5.245   4.563 -0.2762 -0.2732 -0.0116
 5692SOL    HW117504   0.924   5.275   4.496 -1.8233 -1.4627  0.8099
 5692SOL    HW217505   1.022   5.164   4.527 -0.4821 -0.4792  0.2513
 5693SOL     OW17506   3.432   3.481   3.912  0.4964  0.1859 -0.1131
 5693SOL    HW117507   3.380   3.521   3.981 -0.6306 -0.5288 -0.5181
 5693SOL    HW217508   3.510   3.448   3.956  0.0495  0.2236  0.7184
 5694SOL     OW17509   1.619   0.481   5.518  0.2316 -0.6874  0.3046
 5694SOL    HW117510   1.585   0.546   5.457 -0.1225 -2.0126 -0.9585
 5694SOL    HW217511   1.601   0.518   5.605  2.8142  2.3264 -0.2622
 5695SOL     OW17512   4.533   0.568   0.163  0.6209  0.1030 -0.5693
 5695SOL    HW117513   4.453   0.605   0.125  0.7514  0.1352 -0.8178
 5695SOL    HW217514   4.585   0.542   0.087 -0.1469 -2.0928 -0.4085
 5696SOL     OW17515   0.449   2.825   5.705  0.0730  0.2771  0.2046
 5696SOL    HW117516   0.416   2.913   5.722  1.5280  0.5316  1.9820
 5696SOL    HW217517   0.541   2.837   5.684 -0.1356 -0.6975 -1.4990
 5697SOL     OW17518   4.952   0.966   1.104 -0.2263  0.0333 -0.1368
 5697SOL    HW117519   4.916   1.007   1.025  0.2206  0.7115  0.0054
 5697SOL    HW217520   4.874   0.945   1.156 -0.4655  0.8563 -0.1411
 5698SOL     OW17521   4.865   5.261   1.060  0.3326 -0.0430 -0.0357
 5698SOL    HW117522   4.936   5.196   1.061  0.2538 -0.1271  0.3440
 5698SOL    HW217523   4.798   5.223   1.004  0.4459 -0.1196 -0.1197
 5699SOL     OW17524   3.627   3.419   5.971  0.1150 -0.3383  0.1688
 5699SOL    HW117525   3.683   3.465   5.909  1.1561 -1.4240  0.2678
 5699SOL    HW217526   3.640   3.326   5.952 -2.1982 -0.6451 -0.2610
 5700SOL     OW17527   5.193   3.445   5.917 -0.5691  0.2986 -0.5827
 5700SOL    HW117528   5.129   3.400   5.972 -1.3982  1.9705 -0.1116
 5700SOL    HW217529   5.274   3.444   5.968 -0.8506  0.2573 -0.1300
 5701SOL     OW17530   3.215   3.124   6.018 -0.2317  0.1024  0.6189
 5701SOL    HW117531   3.151   3.055   6.005 -0.0580 -0.3755  2.1386
 5701SOL    HW217532   3.248   3.143   5.930 -3.8508  1.8033 -0.5684
 5702SOL     OW17533   3.008   3.147   0.087  0.1788 -0.0046  0.4065
 5702SOL    HW117534   3.083   3.202   0.111  0.5922 -0.2310 -0.3456
 5702SOL    HW217535   2.964   3.196   0.017  0.4069 -0.5172 -0.0959
 5703SOL     OW17536   6.202   6.134   2.013  0.4248  0.5607  0.1273
 5703SOL    HW117537   6.181   6.197   2.082  0.2773  2.3339 -1.4401
 5703SOL    HW217538   6.295   6.114   2.027  0.0058 -0.4164  1.7845
 5704SOL     OW17539   0.893   1.550   2.632 -0.6172 -0.4847  0.2586
 5704SOL    HW117540   0.869   1.497   2.556  1.7159 -1.1089 -0.1085
 5704SOL    HW217541   0.947   1.492   2.686  1.0195  1.1233  0.4389
 5705SOL     OW17542   4.868   2.694   1.049 -0.2538  0.2746 -0.4469
 5705SOL    HW117543   4.917   2.776   1.039  0.5613 -0.0974  0.4039
 5705SOL    HW217544   4.920   2.629   1.003  0.0924 -0.1346  0.5073
 5706SOL     OW17545   0.482   1.768   5.599  1.0230  0.0127 -0.3390
 5706SOL    HW117546   0.485   1.672   5.604  1.4409  0.0163 -0.5465
 5706SOL    HW217547   0.476   1.796   5.690 -0.2828 -0.2482 -0.3256
 5707SOL     OW17548   3.607   5.988   4.803  0.1963  0.3769 -0.1398
 5707SOL    HW117549   3.587   5.992   4.897 -0.7766 -1.4975 -0.2288
 5707SOL    HW217550   3.524   6.008   4.760  0.3851  0.1960 -0.5906
 5708SOL     OW17551   5.182   2.991   3.921  0.1226  0.0242  0.2997
 5708SOL    HW117552   5.244   2.959   3.986  1.6661  0.7243 -0.7541
 5708SOL    HW217553   5.144   2.911   3.883  0.9998 -0.4588  0.4110
 5709SOL     OW17554   5.380   1.580   4.909 -0.1186  0.1327 -0.0254
 5709SOL    HW117555   5.417   1.541   4.988 -0.1005 -0.3938 -0.2890
 5709SOL    HW217556   5.397   1.516   4.841 -0.5343  0.3836 -0.3693
 5710SOL     OW17557   3.308   1.238   0.451  0.0582  0.0579 -0.0173
 5710SOL    HW117558   3.368   1.237   0.526 -0.9662  0.5771  0.8292
 5710SOL    HW217559   3.336   1.163   0.398  2.7358  1.4295 -0.7201
 5711SOL     OW17560   5.617   2.160   2.399  0.4097 -0.3456 -0.1395
 5711SOL    HW117561   5.616   2.159   2.304 -0.9474 -1.4204 -0.1288
 5711SOL    HW217562   5.554   2.227   2.424  1.0886  0.2533  0.0266
 5712SOL     OW17563   1.121   0.749   0.271 -0.7886 -0.1541 -0.0075
 5712SOL    HW117564   1.171   0.816   0.223 -2.0502  0.6389 -0.2577
 5712SOL    HW217565   1.104   0.681   0.206 -0.8825  0.0444 -0.1938
 5713SOL     OW17566   3.959   5.358   1.569 -0.0956  0.8028 -0.0278
 5713SOL    HW117567   4.019   5.319   1.505 -1.9612 -1.5316 -0.4734
 5713SOL    HW217568   3.970   5.453   1.557  2.4821  0.4687 -0.9907
 5714SOL     OW17569   4.132   0.065   2.853  0.2298 -0.5479 -0.1764
 5714SOL    HW117570   4.191   0.032   2.922 -0.2201  2.0283  1.5713
 5714SOL    HW217571   4.190   0.089   2.782  1.2085  0.6673  0.9843
 5715SOL     OW17572   3.040   2.826   1.488  0.0698 -0.6242 -0.3437
 5715SOL    HW117573   3.103   2.840   1.559 -1.4035  0.7386  0.7704
 5715SOL    HW217574   2.973   2.893   1.501 -1.4746 -1.8091 -1.6458
 5716SOL     OW17575   4.328   2.568   3.711  0.0657  0.2954 -0.2925
 5716SOL    HW117576   4.355   2.595   3.800 -0.1057 -0.3016 -0.0550
 5716SOL    HW217577   4.316   2.651   3.664 -0.5193  0.6404  0.4383
 5717SOL     OW17578   5.328   0.232   3.782  0.2681  0.1034 -0.3296
 5717SOL    HW117579   5.255   0.171   3.794  0.1603  0.4450  0.8135
 5717SOL    HW217580   5.349   0.225   3.689 -0.0379 -1.3412 -0.3146
 5718SOL     OW17581   4.646   3.518   5.405 -0.0909 -0.2912  0.1334
 5718SOL    HW117582   4.618   3.470   5.326 -1.2289  0.7557 -0.1278
 5718SOL    HW217583   4.565   3.553   5.441  0.5046 -0.2028  1.4207
 5719SOL     OW17584   0.027   2.711   5.580  0.6599  0.2548 -1.2657
 5719SOL    HW117585  -0.019   2.650   5.522 -2.2846  0.2368  0.8280
 5719SOL    HW217586   0.092   2.753   5.524  1.0246 -2.8293 -3.4507
 5720SOL     OW17587   5.224   3.868   5.821 -0.3127 -0.2824 -0.0706
 5720SOL    HW117588   5.198   3.919   5.744 -0.4810  2.1412  1.4807
 5720SOL    HW217589   5.298   3.815   5.791 -1.1545 -0.3395 -2.1955
 5721SOL     OW17590   4.792   3.296   3.943 -0.3806 -0.2137 -0.2012
 5721SOL    HW117591   4.764   3.364   4.004 -0.6221  0.2185 -0.7760
 5721SOL    HW217592   4.883   3.278   3.967 -0.6000 -0.3335  0.5312
 5722SOL     OW17593   4.121   4.139   0.317 -0.4931  0.3743  0.0448
 5722SOL    HW117594   4.154   4.119   0.405  1.5715  2.1266 -0.2731
 5722SOL    HW217595   4.119   4.234   0.313 -2.3946  0.3296 -1.2026
 5723SOL     OW17596   3.012   1.620   0.601  0.2140 -0.7675 -0.2925
 5723SOL    HW117597   3.093   1.593   0.558 -0.3827  1.4295 -3.0554
 5723SOL    HW217598   2.942   1.583   0.548 -0.6494 -1.0866  1.0007
 5724SOL     OW17599   4.584   4.097   4.260 -0.0116  0.1147  0.1968
 5724SOL    HW117600   4.499   4.137   4.279 -1.1324 -1.6429 -0.7890
 5724SOL    HW217601   4.609   4.054   4.342 -0.4454  0.0370  0.2923
 5725SOL     OW17602   3.819   4.398   1.856  0.1525 -0.2853  0.2769
 5725SOL    HW117603   3.888   4.343   1.893  1.5345  1.8123  0.9798
 5725SOL    HW217604   3.829   4.388   1.761 -0.2946 -1.9641  0.3669
 5726SOL     OW17605   4.086   1.799   5.541  0.5214  0.3216  0.4543
 5726SOL    HW117606   4.019   1.843   5.490  0.3096  0.7981  1.1351
 5726SOL    HW217607   4.069   1.824   5.632  2.1163  1.1319  0.5782
 5727SOL     OW17608   5.624   5.418   5.653 -0.5655  0.2682 -0.2220
 5727SOL    HW117609   5.582   5.497   5.687  0.1137  0.4608  0.2019
 5727SOL    HW217610   5.566   5.387   5.584 -0.7296  1.2717 -0.5497
 5728SOL     OW17611   1.330   2.221   4.529  0.3128 -0.3841 -0.0489
 5728SOL    HW117612   1.296   2.309   4.547  2.6080  0.2204  1.8496
 5728SOL    HW217613   1.256   2.163   4.542 -0.4299  0.9668  2.3685
 5729SOL     OW17614   4.496   6.168   4.117  0.1296  0.1377 -0.3358
 5729SOL    HW117615   4.464   6.256   4.138  1.7428  0.6731 -0.0348
 5729SOL    HW217616   4.434   6.136   4.052 -1.5379  0.7772  0.8563
 5730SOL     OW17617   1.472   2.281   1.675  0.2318 -0.8043  0.2618
 5730SOL    HW117618   1.490   2.212   1.611 -0.4505 -0.4193 -0.3669
 5730SOL    HW217619   1.512   2.250   1.756 -0.3033 -2.0612  0.0630
 5731SOL     OW17620   3.426   3.771   0.919  0.7467  0.0148 -0.0399
 5731SOL    HW117621   3.429   3.706   0.990 -0.0292  0.8844  0.8134
 5731SOL    HW217622   3.333   3.780   0.899  0.9426 -0.0365 -1.0220
 5732SOL     OW17623   6.174   5.122   3.845  0.1102  0.3135  0.1266
 5732SOL    HW117624   6.231   5.191   3.812  0.8359 -0.4421 -0.2300
 5732SOL    HW217625   6.172   5.056   3.776  0.6263 -0.7074  1.0519
 5733SOL     OW17626   2.306   3.945   2.529  0.1445 -0.6319  0.5786
 5733SOL    HW117627   2.364   3.972   2.600 -0.8962  0.3226  1.0847
 5733SOL    HW217628   2.299   3.850   2.539 -0.8250 -0.4074  2.4280
 5734SOL     OW17629   0.775   5.528   4.859 -0.0066  0.3871 -0.0504
 5734SOL    HW117630   0.838   5.456   4.853 -0.8658 -0.5665  1.5327
 5734SOL    HW217631   0.690   5.488   4.842 -0.5302  0.9449  1.0927
 5735SOL     OW17632   4.421   5.635   5.923 -0.0398 -0.0274  0.3440
 5735SOL    HW117633   4.385   5.561   5.874 -0.1976  0.3118 -0.0698
 5735SOL    HW217634   4.413   5.610   6.015 -1.6480  0.1612  0.2884
 5736SOL     OW17635   4.440   2.059   3.961 -0.0382  0.2229 -0.5402
 5736SOL    HW117636   4.384   2.040   3.886  0.6540  0.4175 -1.1224
 5736SOL    HW217637   4.398   2.135   4.003 -0.1852  0.3982 -0.9938
 5737SOL     OW17638   1.576   3.822   6.190  0.3433 -0.3669 -0.3600
 5737SOL    HW117639   1.560   3.728   6.195  0.9880 -0.5358 -1.1142
 5737SOL    HW217640   1.565   3.842   6.097  0.7834  0.1913 -0.2915
 5738SOL     OW17641   0.809   4.402   4.672  0.3952  0.1983 -0.0544
 5738SOL    HW117642   0.806   4.498   4.662  1.5496  0.4518  1.5811
 5738SOL    HW217643   0.848   4.371   4.591  0.3924  1.1618 -0.4447
 5739SOL     OW17644   6.227   3.633   2.924 -0.1739 -0.4585  0.3269
 5739SOL    HW117645   6.233   3.548   2.967 -0.6210 -1.2095 -1.0404
 5739SOL    HW217646   6.316   3.668   2.927 -0.2784 -0.2504  2.2577
 5740SOL     OW17647   4.860   4.571   1.254  0.0575 -0.4208 -0.0273
 5740SOL    HW117648   4.934   4.516   1.226  0.1248 -1.6874  2.2984
 5740SOL    HW217649   4.785   4.511   1.255  0.0954 -0.5495  2.3973
 5741SOL     OW17650   2.649   1.455   0.652  0.2699 -0.3119  0.4051
 5741SOL    HW117651   2.720   1.510   0.684  0.2832  0.3990 -0.7873
 5741SOL    HW217652   2.596   1.513   0.598  0.0743 -1.3729 -0.5854
 5742SOL     OW17653   3.120   2.688   3.195 -0.3032  0.3438  0.1724
 5742SOL    HW117654   3.094   2.689   3.288 -0.5045  0.9954  0.1185
 5742SOL    HW217655   3.199   2.634   3.193  0.0369  0.7894  0.8285
 5743SOL     OW17656   0.083   3.756   1.507  0.6653  0.1208 -0.4668
 5743SOL    HW117657   0.117   3.669   1.529 -1.3090 -0.7946 -0.8179
 5743SOL    HW217658   0.162   3.810   1.496  1.9268 -1.3243  0.8344
 5744SOL     OW17659   1.120   4.082   0.050  0.6690 -0.3409  0.2087
 5744SOL    HW117660   1.064   4.109  -0.022  1.3398  1.1727  0.2286
 5744SOL    HW217661   1.063   4.081   0.126  0.5548  0.7965  0.1520
 5745SOL     OW17662   2.289   0.555   1.082 -0.5810  0.4487  0.2556
 5745SOL    HW117663   2.331   0.626   1.131 -1.7660  0.4665  1.2985
 5745SOL    HW217664   2.362   0.499   1.054  0.2006  0.9210  1.2794
 5746SOL     OW17665   2.849   4.954   2.454  0.0317 -0.1986 -0.0485
 5746SOL    HW117666   2.920   4.899   2.420 -0.1149  0.4254 -1.4252
 5746SOL    HW217667   2.770   4.900   2.442  0.3885 -1.7126  3.2924
 5747SOL     OW17668   5.721   3.224   4.783  0.1154 -0.3013 -0.5396
 5747SOL    HW117669   5.770   3.144   4.763  1.1454  0.2161 -0.1343
 5747SOL    HW217670   5.776   3.295   4.750 -0.5909  0.2763 -0.5103
 5748SOL     OW17671   5.782   5.036   4.202  0.3252 -0.2213  0.0035
 5748SOL    HW117672   5.744   5.032   4.114 -0.6796 -1.7447  0.4690
 5748SOL    HW217673   5.752   4.956   4.246  2.0055 -0.2324  1.2700
 5749SOL     OW17674   4.701   0.937   6.231 -0.9061  0.0028 -0.3676
 5749SOL    HW117675   4.611   0.907   6.220 -1.2615  0.0731  1.9406
 5749SOL    HW217676   4.697   1.031   6.217 -1.3384  0.1083  0.4298
 5750SOL     OW17677   4.195   0.646   4.608 -0.6080 -0.0996  0.2842
 5750SOL    HW117678   4.202   0.735   4.574 -1.0610  0.3932  1.4515
 5750SOL    HW217679   4.195   0.656   4.703  0.6721 -1.4469  0.4738
 5751SOL     OW17680   4.352   1.850   1.515  0.2126  0.4222 -0.1283
 5751SOL    HW117681   4.420   1.853   1.448  0.5467 -0.3271  0.1686
 5751SOL    HW217682   4.386   1.789   1.581 -1.2122 -0.8220 -0.4995
 5752SOL     OW17683   3.404   2.451   5.770  0.3100 -0.7197  0.0303
 5752SOL    HW117684   3.339   2.423   5.706 -0.9104  0.7183  0.5676
 5752SOL    HW217685   3.488   2.446   5.723 -0.6487  1.4215 -2.1599
 5753SOL     OW17686   4.388   0.171   4.198 -0.0851  0.5286 -0.3339
 5753SOL    HW117687   4.426   0.185   4.285 -0.5918  0.0331 -0.0240
 5753SOL    HW217688   4.306   0.220   4.200  0.2297  1.0804 -0.7788
 5754SOL     OW17689   2.528   6.050   3.780  0.1507 -0.2937 -0.5102
 5754SOL    HW117690   2.569   6.088   3.857  0.7539  2.3326 -1.9812
 5754SOL    HW217691   2.437   6.034   3.806  0.5436 -0.2437  0.9600
 5755SOL     OW17692   2.734   4.036   4.533  0.1005 -1.1844 -0.4628
 5755SOL    HW117693   2.767   4.102   4.473 -1.2937  0.2295  0.2654
 5755SOL    HW217694   2.811   4.009   4.584  0.7443 -0.3374 -0.9617
 5756SOL     OW17695   3.218   1.841   0.480 -0.4380 -0.1801  0.1775
 5756SOL    HW117696   3.259   1.770   0.529  2.6348  1.1640 -0.2098
 5756SOL    HW217697   3.221   1.916   0.539 -1.6906  0.1683 -0.1718
 5757SOL     OW17698   5.177   4.343   4.645 -0.2013  0.5949 -0.0715
 5757SOL    HW117699   5.134   4.429   4.650 -0.7139  0.3270  0.1844
 5757SOL    HW217700   5.107   4.280   4.664  0.1877  0.1239 -0.1915
 5758SOL     OW17701   5.632   0.583   4.258  0.1073 -0.5180 -0.1464
 5758SOL    HW117702   5.616   0.578   4.163  0.3391  1.6113 -0.3544
 5758SOL    HW217703   5.549   0.616   4.293  0.8905  1.4669 -0.0235
 5759SOL     OW17704   5.056   2.682   4.763  0.4717 -0.2652  0.3383
 5759SOL    HW117705   5.135   2.631   4.746 -0.6276 -1.9979  0.2297
 5759SOL    HW217706   4.999   2.624   4.813 -0.6211  1.0667  0.7200
 5760SOL     OW17707   3.061   2.038   4.546  0.1210  0.0648 -0.4894
 5760SOL    HW117708   3.105   2.046   4.462  0.1004  0.0417 -0.5025
 5760SOL    HW217709   3.127   2.000   4.604  1.1493  2.8202  0.3116
 5761SOL     OW17710   3.005   3.172   1.352 -0.3103  0.0496  0.4480
 5761SOL    HW117711   3.063   3.140   1.282 -2.1101 -1.7232 -0.3465
 5761SOL    HW217712   3.061   3.174   1.430  0.7963 -1.8990 -0.1935
 5762SOL     OW17713   5.817   0.079   2.486  0.1159  0.1364  0.1194
 5762SOL    HW117714   5.817   0.092   2.391 -0.0835 -0.9541 -0.0385
 5762SOL    HW217715   5.856   0.159   2.521  0.9730  0.2005 -0.9349
 5763SOL     OW17716   5.890   2.150   4.875 -0.2438 -0.0753  0.2047
 5763SOL    HW117717   5.968   2.151   4.932  0.1649  1.9096 -0.3081
 5763SOL    HW217718   5.913   2.090   4.804  1.0799  0.8835 -0.2244
 5764SOL     OW17719   1.537   0.322   4.120 -0.1778 -0.2099  0.0920
 5764SOL    HW117720   1.601   0.392   4.105  0.0285 -0.6283 -1.1250
 5764SOL    HW217721   1.507   0.335   4.210  0.8401  0.6355  0.3264
 5765SOL     OW17722   3.129   3.162   5.118  0.0635  0.1874 -0.5022
 5765SOL    HW117723   3.095   3.073   5.131  0.3050  0.2027  0.2788
 5765SOL    HW217724   3.061   3.206   5.068 -0.8362  0.0565  0.5759
 5766SOL     OW17725   4.344   2.429   3.487  0.2310 -0.1188  0.3325
 5766SOL    HW117726   4.322   2.478   3.567 -0.9550 -0.3739  0.1759
 5766SOL    HW217727   4.352   2.338   3.516 -2.3006 -0.5683 -0.1317
 5767SOL     OW17728   2.993   5.389   5.336 -0.4707 -0.3530 -0.7951
 5767SOL    HW117729   2.908   5.366   5.372  0.1820 -0.2912  0.8532
 5767SOL    HW217730   2.994   5.348   5.249 -2.1171 -0.4347 -0.8118
 5768SOL     OW17731   2.624   4.405   5.145 -0.1420 -0.5351 -0.3837
 5768SOL    HW117732   2.603   4.312   5.159 -1.4141 -0.4897 -1.7560
 5768SOL    HW217733   2.617   4.417   5.050  1.1913  0.7105 -0.3554
 5769SOL     OW17734   0.906   3.170   4.726 -0.3554  0.1218 -0.1544
 5769SOL    HW117735   0.831   3.189   4.670  0.2591  0.1435 -0.9922
 5769SOL    HW217736   0.904   3.075   4.738  0.1706 -0.0316 -1.1885
 5770SOL     OW17737   1.915   0.184   3.706  0.4911 -0.0092  0.1331
 5770SOL    HW117738   1.910   0.091   3.684  0.2720  0.2435 -0.9953
 5770SOL    HW217739   1.944   0.226   3.625 -0.9541  1.0688  0.1166
 5771SOL     OW17740   2.484   1.530   4.574 -0.3481  1.2055 -0.2955
 5771SOL    HW117741   2.510   1.539   4.666  0.0202  3.4182 -0.5705
 5771SOL    HW217742   2.542   1.590   4.527  0.6132 -1.0720 -2.2496
 5772SOL     OW17743   2.387   4.660   3.825 -0.2713 -0.2378 -0.2684
 5772SOL    HW117744   2.344   4.661   3.911 -0.6573  0.4629 -0.4629
 5772SOL    HW217745   2.349   4.735   3.779 -1.5572 -1.7671 -1.7973
 5773SOL     OW17746   3.129   0.777   4.974 -0.2338 -0.2721  0.4023
 5773SOL    HW117747   3.086   0.862   4.960  2.9121  1.7315  1.7934
 5773SOL    HW217748   3.079   0.738   5.046 -2.6271 -0.3913 -1.1922
 5774SOL     OW17749   5.505   0.869   0.957  0.5879 -1.0575 -0.3767
 5774SOL    HW117750   5.574   0.926   0.923 -0.1095 -0.2883 -0.5196
 5774SOL    HW217751   5.528   0.854   1.049 -0.5804  1.5996  0.4277
 5775SOL     OW17752   4.957   5.859   2.836 -0.7012  0.2574  0.5870
 5775SOL    HW117753   5.019   5.858   2.909  0.5551 -0.5731 -0.4476
 5775SOL    HW217754   4.892   5.793   2.859  0.1298 -0.5779  0.5991
 5776SOL     OW17755   2.227   0.847   5.094 -0.0619  0.0465  0.3833
 5776SOL    HW117756   2.191   0.864   5.006  0.8859  0.0820 -0.0098
 5776SOL    HW217757   2.297   0.911   5.104 -0.5644  0.4459  1.4325
 5777SOL     OW17758   4.717   2.382   1.313  0.3338  0.2928  0.4396
 5777SOL    HW117759   4.659   2.308   1.295  0.4862  0.1539  0.5188
 5777SOL    HW217760   4.681   2.454   1.260 -0.7845  0.6286  1.5953
 5778SOL     OW17761   4.436   0.565   5.327  0.2593  0.2869  0.6308
 5778SOL    HW117762   4.430   0.559   5.423 -1.5164 -0.7687  0.4954
 5778SOL    HW217763   4.513   0.512   5.306  0.7785  0.6765  1.4707
 5779SOL     OW17764   5.894   5.784   5.154 -0.0200 -0.2678 -0.3171
 5779SOL    HW117765   5.939   5.701   5.139 -0.5449 -0.3267 -1.6886
 5779SOL    HW217766   5.952   5.850   5.116  0.5282  0.0522  1.0145
 5780SOL     OW17767   2.347   0.178   6.215 -0.0343 -0.5407  0.3349
 5780SOL    HW117768   2.305   0.257   6.251  1.0735 -0.1108  0.7110
 5780SOL    HW217769   2.432   0.208   6.183 -0.2158 -1.2979 -0.9343
 5781SOL     OW17770   3.212   5.184   1.060  0.2396  0.5821  0.7479
 5781SOL    HW117771   3.231   5.155   0.970  1.7441  1.6126  0.6998
 5781SOL    HW217772   3.199   5.103   1.109 -0.0415 -0.0129 -0.2837
 5782SOL     OW17773   3.293   1.978   4.735 -0.6754 -0.7895 -0.2821
 5782SOL    HW117774   3.285   1.887   4.707  1.1310 -0.8498 -0.7100
 5782SOL    HW217775   3.382   1.985   4.770 -0.3008  1.1289 -1.4802
 5783SOL     OW17776   4.120   1.915   1.342 -0.6487 -0.2099 -0.1286
 5783SOL    HW117777   4.120   2.011   1.350  1.3939  0.0677 -2.3495
 5783SOL    HW217778   4.186   1.886   1.406 -2.9326 -0.4426  2.2710
 5784SOL     OW17779   4.706   6.213   0.319  0.1251 -0.4738  0.4994
 5784SOL    HW117780   4.770   6.284   0.310  1.2919 -1.5313  0.2208
 5784SOL    HW217781   4.701   6.199   0.414  1.5131 -1.4124  0.4664
 5785SOL     OW17782   1.614   5.794   0.424  0.0523  0.0692 -0.2187
 5785SOL    HW117783   1.688   5.830   0.375  0.8635 -0.2010  0.7563
 5785SOL    HW217784   1.536   5.823   0.376  0.7020  2.2843 -0.0344
 5786SOL     OW17785   1.570   0.658   3.840  0.2989  0.3153  1.4861
 5786SOL    HW117786   1.595   0.616   3.922  2.3583 -1.5935  0.0222
 5786SOL    HW217787   1.654   0.679   3.798 -0.6550  0.3982 -0.4809
 5787SOL     OW17788   5.123   0.549   1.654 -0.2311  0.0793  0.0161
 5787SOL    HW117789   5.089   0.486   1.591 -3.6927  0.4530  1.2843
 5787SOL    HW217790   5.158   0.620   1.601 -0.6624 -0.7818 -1.4549
 5788SOL     OW17791   0.162   4.819   3.164 -0.6570 -0.5646 -0.0245
 5788SOL    HW117792   0.118   4.750   3.215  1.8498 -0.9037  1.8740
 5788SOL    HW217793   0.246   4.781   3.140 -0.3254  0.9101 -1.4023
 5789SOL     OW17794   2.815   4.809   0.403 -0.3033 -0.6681 -0.5241
 5789SOL    HW117795   2.872   4.732   0.402  0.5827 -0.0476  0.0411
 5789SOL    HW217796   2.844   4.862   0.329  1.0425  0.4376  0.7140
 5790SOL     OW17797   5.240   4.675   4.483  0.1701 -0.1695 -0.1563
 5790SOL    HW117798   5.303   4.608   4.510  0.6394  0.0950 -0.5799
 5790SOL    HW217799   5.172   4.626   4.437 -0.2766 -0.5363  0.8679
 5791SOL     OW17800   6.196   4.769   3.910 -1.1260  0.4012 -0.4415
 5791SOL    HW117801   6.238   4.726   3.984 -0.4711 -0.6447 -1.3901
 5791SOL    HW217802   6.106   4.783   3.939 -0.5914  1.1157  0.9839
 5792SOL     OW17803   0.953   0.483   4.544 -0.3143 -0.4234 -0.0651
 5792SOL    HW117804   0.918   0.394   4.532 -0.2568 -0.3228 -1.0888
 5792SOL    HW217805   0.947   0.499   4.638 -0.6278 -1.3911  0.0907
 5793SOL     OW17806   1.357   4.681   4.187 -0.0550  0.2897  0.1745
 5793SOL    HW117807   1.391   4.769   4.202  0.2533  0.2235 -0.1326
 5793SOL    HW217808   1.433   4.624   4.198 -0.5235 -0.0795  1.7994
 5794SOL     OW17809   4.101   1.280   1.604  0.5982 -0.0423  0.0179
 5794SOL    HW117810   4.015   1.321   1.599  0.1145 -0.7381  1.7778
 5794SOL    HW217811   4.138   1.291   1.517 -0.9338  0.9983 -0.5439
 5795SOL     OW17812   2.293   4.921   0.601 -0.0706  0.4233 -0.1340
 5795SOL    HW117813   2.214   4.972   0.586 -1.2913 -1.3516 -0.0891
 5795SOL    HW217814   2.350   4.979   0.652 -1.0821  1.9548 -0.6801
 5796SOL     OW17815   3.823   3.313   0.493  0.1364 -0.6479  0.0367
 5796SOL    HW117816   3.885   3.374   0.533 -0.9154  0.1596  0.4900
 5796SOL    HW217817   3.874   3.233   0.478  0.8534 -0.6376  2.0561
 5797SOL     OW17818   4.355   1.618   5.948 -0.8327 -0.7840  0.2472
 5797SOL    HW117819   4.433   1.604   6.001 -0.7383  1.1439  0.6871
 5797SOL    HW217820   4.388   1.650   5.864 -1.1189  1.7908  1.0248
 5798SOL     OW17821   1.987   3.089   2.412 -0.6691 -0.1819 -0.0469
 5798SOL    HW117822   1.987   3.094   2.507 -1.5461  1.0764 -0.0939
 5798SOL    HW217823   1.990   3.180   2.383 -0.1554 -0.5556 -1.2330
 5799SOL     OW17824   1.719   2.267   3.724 -0.7046  0.0953  0.5481
 5799SOL    HW117825   1.797   2.212   3.712 -0.8023 -0.0274  0.4791
 5799SOL    HW217826   1.671   2.259   3.641 -1.2298 -0.5183  0.9036
 5800SOL     OW17827   0.082   6.098   2.665 -0.2626  0.3971 -0.2327
 5800SOL    HW117828   0.010   6.123   2.608  0.5548 -0.3521 -1.6530
 5800SOL    HW217829   0.160   6.132   2.622  0.5628 -1.7011 -0.5534
 5801SOL     OW17830   1.805   4.061   2.324 -0.2982  0.0137  0.1511
 5801SOL    HW117831   1.754   4.103   2.392  0.6835  0.1554  0.8214
 5801SOL    HW217832   1.753   4.072   2.244 -0.6148  1.4532  0.5310
 5802SOL     OW17833   5.089   1.369   4.672  0.1357 -0.1169  1.1298
 5802SOL    HW117834   5.057   1.329   4.753 -1.0204 -0.6180  0.4433
 5802SOL    HW217835   5.057   1.312   4.602  0.2959  0.8257  0.2639
 5803SOL     OW17836   3.262   1.444   4.193 -0.1620  0.0483 -0.5174
 5803SOL    HW117837   3.172   1.411   4.182 -0.5385  1.4690 -2.0614
 5803SOL    HW217838   3.315   1.365   4.201 -1.5013 -0.8322  0.1410
 5804SOL     OW17839   4.593   2.197   6.191  0.2213 -0.6725 -0.3769
 5804SOL    HW117840   4.566   2.210   6.281 -2.2403 -1.7975 -0.8674
 5804SOL    HW217841   4.543   2.121   6.161  0.0666  0.3617 -3.0271
 5805SOL     OW17842   3.892   3.977   1.395 -0.1486 -0.4115 -0.0572
 5805SOL    HW117843   3.974   3.991   1.441  0.9774  1.4519 -2.4252
 5805SOL    HW217844   3.905   3.896   1.346  0.1060 -0.3250 -0.1300
 5806SOL     OW17845   4.681   2.164   5.571  0.0628 -0.3060  0.1390
 5806SOL    HW117846   4.594   2.151   5.610  0.0263 -1.2598 -0.2284
 5806SOL    HW217847   4.742   2.130   5.636  0.3075  1.8550  1.1131
 5807SOL     OW17848   3.170   4.267   2.888 -0.4360  0.0304 -0.2679
 5807SOL    HW117849   3.253   4.228   2.915 -1.3864 -0.7682  1.6902
 5807SOL    HW217850   3.103   4.213   2.930 -1.9883  0.3934 -2.1397
 5808SOL     OW17851   3.535   2.412   6.020  0.4982 -0.3429 -0.5989
 5808SOL    HW117852   3.500   2.413   5.931  0.3736 -0.5632 -0.5510
 5808SOL    HW217853   3.461   2.433   6.076  0.4751 -0.6690 -0.5085
 5809SOL     OW17854   5.767   4.715   0.542  0.1807 -0.4278 -0.3289
 5809SOL    HW117855   5.794   4.804   0.566 -0.2719 -0.0719 -1.0854
 5809SOL    HW217856   5.725   4.726   0.457 -0.2358 -1.3126 -0.2430
 5810SOL     OW17857   3.376   3.676   1.195 -0.1160 -0.3199  0.1531
 5810SOL    HW117858   3.290   3.718   1.195  0.0125 -0.0362 -0.6442
 5810SOL    HW217859   3.436   3.747   1.217  0.0141 -0.2674 -0.3526
 5811SOL     OW17860   2.753   0.534   5.975  0.5623  0.2487  0.1292
 5811SOL    HW117861   2.691   0.486   5.920 -1.2798  1.8858  0.6662
 5811SOL    HW217862   2.821   0.470   5.995  0.5353 -0.8436 -2.7852
 5812SOL     OW17863   1.443   2.813   5.734  0.2628  0.2764  0.4961
 5812SOL    HW117864   1.491   2.794   5.815 -1.4843  1.2949  1.8668
 5812SOL    HW217865   1.399   2.731   5.712 -1.4352  0.6230  2.2240
 5813SOL     OW17866   4.888   0.548   1.182  0.4654 -0.2330  0.1247
 5813SOL    HW117867   4.914   0.470   1.133  2.3011  1.7227 -2.2235
 5813SOL    HW217868   4.799   0.567   1.152  1.6004  1.0182 -2.8328
 5814SOL     OW17869   2.158   3.481   5.030 -0.2883 -0.0972  0.5642
 5814SOL    HW117870   2.116   3.464   4.946 -0.8816  1.7088  0.4444
 5814SOL    HW217871   2.089   3.466   5.095 -0.0557 -0.7144  0.6756
 5815SOL     OW17872   5.148   5.219   2.288 -0.4125 -0.4827 -0.0059
 5815SOL    HW117873   5.084   5.282   2.254  0.8264  1.0402  0.3838
 5815SOL    HW217874   5.108   5.187   2.369 -1.1557 -0.3791 -0.3182
 5816SOL     OW17875   1.155   4.999   1.614  0.3740 -0.4205 -0.1088
 5816SOL    HW117876   1.135   4.909   1.587 -1.0766 -0.2906  0.4314
 5816SOL    HW217877   1.247   5.011   1.591 -0.0973 -1.1430 -2.6326
 5817SOL     OW17878   2.834   1.354   5.582 -0.1438  0.2138  0.3210
 5817SOL    HW117879   2.765   1.313   5.530  0.1410 -1.0200  0.8665
 5817SOL    HW217880   2.910   1.296   5.571  0.5602  1.0978  0.3957
 5818SOL     OW17881   0.482   0.688   2.141 -0.0321  0.4866 -0.5824
 5818SOL    HW117882   0.395   0.659   2.112 -0.4307  0.1712  0.8034
 5818SOL    HW217883   0.475   0.783   2.148 -1.0315  0.3079  1.6687
 5819SOL     OW17884   3.334   1.146   4.885 -0.2522 -0.2035 -0.3315
 5819SOL    HW117885   3.253   1.197   4.888 -1.5725 -2.2066 -0.0100
 5819SOL    HW217886   3.397   1.203   4.840 -1.8843  1.3365 -0.7628
 5820SOL     OW17887   2.108   2.639   5.562  0.6006  0.8551  0.4128
 5820SOL    HW117888   2.161   2.657   5.485  0.7486 -0.2031  0.2568
 5820SOL    HW217889   2.109   2.544   5.571 -0.0135  0.9155  1.2981
 5821SOL     OW17890   4.411   5.309   5.043  0.0552 -0.4113  0.2873
 5821SOL    HW117891   4.506   5.303   5.048  0.0126 -0.2767  2.0124
 5821SOL    HW217892   4.381   5.274   5.127 -1.4069 -0.3775 -0.2010
 5822SOL     OW17893   4.340   5.074   1.322  0.4067 -0.2478 -0.0522
 5822SOL    HW117894   4.347   5.040   1.233 -0.6134  1.1899 -0.7096
 5822SOL    HW217895   4.430   5.073   1.355  0.9209 -0.0106 -1.4072
 5823SOL     OW17896   5.305   4.001   1.948 -0.4161 -0.4395 -0.7088
 5823SOL    HW117897   5.289   4.094   1.960 -0.1225 -0.4773 -0.0310
 5823SOL    HW217898   5.380   3.997   1.888 -0.0699 -0.2387 -0.2873
 5824SOL     OW17899   0.244   1.168   6.066 -0.5208 -0.4547 -0.1256
 5824SOL    HW117900   0.199   1.125   6.139 -2.6244 -1.2772 -1.8103
 5824SOL    HW217901   0.192   1.146   5.989  1.3743  0.7340 -1.8500
 5825SOL     OW17902   5.827   0.129   2.222  0.3017  0.1723 -0.4036
 5825SOL    HW117903   5.762   0.068   2.189 -1.0893  1.3807 -0.0247
 5825SOL    HW217904   5.832   0.198   2.155  1.5833 -0.1531 -0.6668
 5826SOL     OW17905   1.516   0.815   1.644 -0.4374 -0.4063  0.3418
 5826SOL    HW117906   1.600   0.815   1.599 -0.7238 -1.4379 -0.2476
 5826SOL    HW217907   1.454   0.781   1.579 -1.0375 -1.0416  1.2156
 5827SOL     OW17908   6.134   4.446   0.723 -0.0862  0.0015 -0.2569
 5827SOL    HW117909   6.078   4.442   0.799  0.2818  0.4934  0.0485
 5827SOL    HW217910   6.089   4.394   0.656 -1.0311  0.6011 -0.1071
 5828SOL     OW17911   1.175   2.021   4.640  0.4275  0.5070  0.1547
 5828SOL    HW117912   1.232   1.986   4.708  1.4180 -1.3886 -1.5480
 5828SOL    HW217913   1.106   1.955   4.629 -1.1281  1.9097  0.9102
 5829SOL     OW17914   2.152   6.101   1.654  0.7384 -0.2960  0.5684
 5829SOL    HW117915   2.072   6.111   1.603 -0.4333 -0.3634  2.3209
 5829SOL    HW217916   2.197   6.027   1.613  0.4108  0.3507 -1.0368
 5830SOL     OW17917   5.805   5.573   3.328 -0.4236  0.5038  0.2191
 5830SOL    HW117918   5.738   5.505   3.337  0.6800 -0.5571  0.7347
 5830SOL    HW217919   5.816   5.608   3.417  1.5714 -1.2073  0.7136
 5831SOL     OW17920   0.532   3.850   5.955  0.0339  0.2007  0.2574
 5831SOL    HW117921   0.625   3.828   5.960 -0.3484 -1.9230 -0.8254
 5831SOL    HW217922   0.498   3.836   6.044  0.7499  1.2195  0.7126
 5832SOL     OW17923   1.646   2.232   1.311  0.0569 -0.3145 -0.1218
 5832SOL    HW117924   1.659   2.316   1.265  1.6587 -0.4126  0.0986
 5832SOL    HW217925   1.726   2.183   1.294 -1.1848 -2.1657 -0.9284
 5833SOL     OW17926   2.252   5.171   4.238 -0.0517 -0.0702  0.0560
 5833SOL    HW117927   2.190   5.212   4.178  0.8273  0.0592 -0.7940
 5833SOL    HW217928   2.325   5.233   4.244  1.3555 -1.4896 -1.3494
 5834SOL     OW17929   1.701   5.280   1.676 -0.0170  0.0432 -0.2198
 5834SOL    HW117930   1.652   5.361   1.665  2.7673  2.0242  0.9368
 5834SOL    HW217931   1.774   5.287   1.616  0.4029 -1.5382  0.0475
 5835SOL     OW17932   6.069   3.056   5.401 -0.1712 -0.0750 -0.1636
 5835SOL    HW117933   6.030   3.003   5.332 -0.6049  0.8791 -0.6664
 5835SOL    HW217934   6.043   3.146   5.380  1.8165  0.5418 -0.2133
 5836SOL     OW17935   5.191   2.368   1.592  0.5085  0.7936 -0.3905
 5836SOL    HW117936   5.249   2.345   1.664 -0.2094 -0.8375 -0.2916
 5836SOL    HW217937   5.234   2.442   1.549  1.9079  0.5551  0.5437
 5837SOL     OW17938   1.950   4.458   0.172  0.0327 -0.2762 -0.1682
 5837SOL    HW117939   1.969   4.548   0.145 -1.2532 -0.3001 -1.2586
 5837SOL    HW217940   1.880   4.467   0.237 -0.1511 -0.4785 -0.3353
 5838SOL     OW17941   2.768   5.734   3.190 -0.5246  0.6206 -0.5050
 5838SOL    HW117942   2.784   5.658   3.133 -1.0445  1.2514 -1.5194
 5838SOL    HW217943   2.770   5.698   3.278  1.2761 -0.2084 -0.8489
 5839SOL     OW17944   0.157   0.927   2.330 -0.6670  0.4266  0.2148
 5839SOL    HW117945   0.119   0.990   2.392  0.0060 -0.0216  1.1081
 5839SOL    HW217946   0.116   0.948   2.246 -1.2722  1.3367  0.7220
 5840SOL     OW17947   2.253   0.143   5.648  0.3557  0.2700 -0.2937
 5840SOL    HW117948   2.172   0.173   5.688  1.2422  0.6131  1.3713
 5840SOL    HW217949   2.309   0.221   5.645  2.4066 -0.8053  3.3599
 5841SOL     OW17950   2.289   4.381   0.480  0.4332 -0.0119  0.5053
 5841SOL    HW117951   2.241   4.418   0.554 -0.1392 -0.0829  0.1719
 5841SOL    HW217952   2.232   4.313   0.445  0.5802  0.1958 -0.1617
 5842SOL     OW17953   3.854   5.976   2.627  0.2097 -0.3963  1.0233
 5842SOL    HW117954   3.801   6.054   2.613  1.0556  0.0259 -0.0447
 5842SOL    HW217955   3.908   5.997   2.703  1.7139  0.8331 -0.3124
 5843SOL     OW17956   2.530   0.298   5.387 -0.3452 -0.5263  0.6880
 5843SOL    HW117957   2.533   0.392   5.369  1.4385 -0.6243  0.2592
 5843SOL    HW217958   2.459   0.266   5.332 -2.0262  0.7534  1.9828
 5844SOL     OW17959   3.600   6.218   3.620 -0.5771 -0.1882 -0.6074
 5844SOL    HW117960   3.534   6.162   3.661 -1.0306 -0.1868 -1.3176
 5844SOL    HW217961   3.585   6.304   3.659  0.9538 -0.7791  1.4501
 5845SOL     OW17962   3.863   1.406   3.337  0.2729  0.3679 -0.3472
 5845SOL    HW117963   3.847   1.476   3.273  0.6890 -0.4015 -1.3212
 5845SOL    HW217964   3.947   1.428   3.376  0.5642  0.2498 -0.8952
 5846SOL     OW17965   5.478   4.257   1.762  0.1901 -0.1974  0.0125
 5846SOL    HW117966   5.420   4.193   1.804  1.6075 -1.4659  0.1201
 5846SOL    HW217967   5.528   4.296   1.834  1.1806 -0.8954 -0.2806
 5847SOL     OW17968   0.588   3.684   3.224 -0.3035 -0.4017 -0.6090
 5847SOL    HW117969   0.675   3.674   3.263 -0.8689  1.2218  1.2694
 5847SOL    HW217970   0.533   3.621   3.271 -0.0100 -2.1257 -2.4705
 5848SOL     OW17971   5.640   0.648   4.626 -0.0261  0.3547 -0.1737
 5848SOL    HW117972   5.689   0.593   4.564 -0.4614  1.8671 -1.9328
 5848SOL    HW217973   5.698   0.722   4.643 -0.1211  0.2028  0.8694
 5849SOL     OW17974   4.067   1.555   2.409  0.0962 -0.0946 -0.7460
 5849SOL    HW117975   4.139   1.596   2.362  0.8687 -1.4962 -0.8418
 5849SOL    HW217976   4.063   1.603   2.492  3.1828 -1.8086  0.5843
 5850SOL     OW17977   4.041   5.608   1.836  0.6337 -0.3804  0.0535
 5850SOL    HW117978   4.090   5.646   1.762  0.2037  0.1790  0.0498
 5850SOL    HW217979   4.071   5.657   1.912 -0.8101  0.8254 -0.1183
 5851SOL     OW17980   3.797   2.932   4.123 -0.1924 -0.1144  0.4665
 5851SOL    HW117981   3.837   2.862   4.071  1.0392 -0.6980  2.1001
 5851SOL    HW217982   3.872   2.983   4.156 -1.0621  2.6539 -1.4657
 5852SOL     OW17983   0.648   0.495   0.473 -0.1818 -0.2337 -0.2069
 5852SOL    HW117984   0.686   0.408   0.469  0.0671 -0.1581  0.3858
 5852SOL    HW217985   0.585   0.498   0.401 -0.7377 -1.1650  0.2262
 5853SOL     OW17986   2.330   4.412   5.717  0.0111  0.2735  0.4275
 5853SOL    HW117987   2.281   4.360   5.779 -0.0392 -0.0105  0.1512
 5853SOL    HW217988   2.420   4.410   5.750 -0.4509  2.5564  2.1453
 5854SOL     OW17989   1.988   0.058   0.000 -0.0526  0.0044  0.4590
 5854SOL    HW117990   1.906   0.106   0.015 -1.1408 -1.0705 -1.6710
 5854SOL    HW217991   1.987   0.038  -0.093  1.7122 -1.7378  0.7725
 5855SOL     OW17992   3.840   3.977   1.795 -0.2055  0.0753  0.0992
 5855SOL    HW117993   3.870   3.953   1.882 -0.7443 -0.4548  0.1429
 5855SOL    HW217994   3.771   3.914   1.775 -0.0867  0.1900 -0.7103
 5856SOL     OW17995   6.039   4.574   4.985 -0.2703 -0.0319  0.9174
 5856SOL    HW117996   6.070   4.623   4.910  1.1338  0.3927  1.7449
 5856SOL    HW217997   6.114   4.522   5.014 -1.0185 -0.8167  1.5351
 5857SOL     OW17998   3.188   1.530   2.299 -0.0154 -0.3042  0.8385
 5857SOL    HW117999   3.153   1.536   2.388 -1.2972  0.4833  0.3258
 5857SOL    HW218000   3.135   1.463   2.257 -0.1697  0.1043  0.3645
 5858SOL     OW18001   3.610   0.401   3.010  0.5824 -0.3085  0.0063
 5858SOL    HW118002   3.587   0.411   2.918 -1.2586 -0.2752  0.4331
 5858SOL    HW218003   3.582   0.313   3.033  0.1329  0.0238  0.7673
 5859SOL     OW18004   3.435   3.415   1.760  0.0641 -0.3955  0.2639
 5859SOL    HW118005   3.510   3.358   1.773 -0.7652 -1.8428 -1.0364
 5859SOL    HW218006   3.458   3.469   1.685 -0.4391 -1.2898 -0.5423
 5860SOL     OW18007   5.532   5.937   5.847 -0.0423 -0.3737 -0.0392
 5860SOL    HW118008   5.577   5.897   5.921  0.8326  0.8307  0.1019
 5860SOL    HW218009   5.477   6.005   5.886  2.6098  2.2938 -0.6232
 5861SOL     OW18010   5.976   1.469   1.296  0.0979  0.8010  0.0131
 5861SOL    HW118011   5.894   1.518   1.304 -1.9132 -2.1748 -0.6012
 5861SOL    HW218012   5.994   1.469   1.202 -0.7139 -0.6808 -0.1784
 5862SOL     OW18013   1.197   3.452   4.088  0.6095  0.5736 -0.1180
 5862SOL    HW118014   1.195   3.532   4.140 -3.3747  0.2068  0.5900
 5862SOL    HW218015   1.204   3.382   4.152  0.3833  0.2389 -0.4573
 5863SOL     OW18016   0.259   0.147   3.381  0.1180 -0.3858  0.4871
 5863SOL    HW118017   0.247   0.179   3.471 -0.3309 -2.1133  1.0715
 5863SOL    HW218018   0.240   0.053   3.386 -0.9981 -0.3381 -1.6228
 5864SOL     OW18019   3.472   3.566   2.756  0.1934  0.1373 -0.1117
 5864SOL    HW118020   3.434   3.589   2.671 -0.9001 -0.3611  0.2158
 5864SOL    HW218021   3.408   3.506   2.795  0.6523  0.3874  1.0773
 5865SOL     OW18022   5.720   1.767   5.521 -0.2164  0.1816  0.1072
 5865SOL    HW118023   5.666   1.750   5.598 -0.6976  2.0854  0.2438
 5865SOL    HW218024   5.687   1.850   5.487  1.2513  0.3298 -1.0321
 5866SOL     OW18025   2.851   6.012   4.419  0.1527  0.2848 -0.4546
 5866SOL    HW118026   2.912   6.057   4.478 -1.3797  2.5220 -0.4273
 5866SOL    HW218027   2.798   5.958   4.478 -0.0435  0.9234 -0.0307
 5867SOL     OW18028   1.471   5.383   5.429  0.0768 -0.1001  0.0864
 5867SOL    HW118029   1.517   5.303   5.453 -0.4344 -0.0714  1.1993
 5867SOL    HW218030   1.536   5.434   5.380  0.3382 -1.2736 -0.8263
 5868SOL     OW18031   4.904   5.707   2.599  0.0061 -0.5712 -0.2850
 5868SOL    HW118032   4.882   5.665   2.683  0.3990 -0.3698 -0.0765
 5868SOL    HW218033   4.891   5.800   2.615  4.3709  0.0302  1.0215
 5869SOL     OW18034   0.424   2.326   5.944  0.3202 -0.0637  0.2027
 5869SOL    HW118035   0.503   2.315   5.890  0.4087  2.0516 -0.1896
 5869SOL    HW218036   0.416   2.243   5.991  0.9942 -1.5331 -2.0583
 5870SOL     OW18037   3.747   2.941   4.506  0.4764 -0.6991  0.4481
 5870SOL    HW118038   3.656   2.913   4.518  0.3433  0.6038  3.2347
 5870SOL    HW218039   3.740   3.035   4.487  1.2507 -0.3330  1.8946
 5871SOL     OW18040   4.857   5.389   1.796 -0.3282  0.8391 -0.3055
 5871SOL    HW118041   4.850   5.342   1.879 -0.9721  1.3791 -0.0389
 5871SOL    HW218042   4.921   5.459   1.814  1.6021 -0.6399 -1.0654
 5872SOL     OW18043   4.874   0.923   3.242  0.0890 -0.0805 -0.1013
 5872SOL    HW118044   4.919   0.907   3.159  0.4833 -0.5320  0.1973
 5872SOL    HW218045   4.809   0.854   3.247  0.5412 -0.4836  0.2997
 5873SOL     OW18046   3.418   5.741   4.509  0.3008 -0.1683 -0.5391
 5873SOL    HW118047   3.385   5.715   4.424 -3.6223  1.4845  0.2980
 5873SOL    HW218048   3.434   5.835   4.502  3.4746 -0.5801 -0.3586
 5874SOL     OW18049   0.501   4.405   0.786 -0.6114  0.2347 -0.3025
 5874SOL    HW118050   0.448   4.482   0.802 -0.8612  0.0855 -0.4029
 5874SOL    HW218051   0.590   4.438   0.775 -0.5787  0.4214  0.5105
 5875SOL     OW18052   4.278   6.112   4.628  0.1381  0.2704  0.0974
 5875SOL    HW118053   4.327   6.105   4.710  0.2872  0.3098  0.0112
 5875SOL    HW218054   4.239   6.025   4.616  0.9771 -0.0540 -0.3331
 5876SOL     OW18055   5.278   4.427   5.656  0.7954  0.1161 -0.0584
 5876SOL    HW118056   5.356   4.469   5.621  0.4871  0.0924 -0.7908
 5876SOL    HW218057   5.283   4.336   5.624 -0.3081  0.5024 -1.4625
 5877SOL     OW18058   5.217   4.147   6.231  0.1767  0.6600  0.5943
 5877SOL    HW118059   5.122   4.157   6.222  0.1878  0.8784  0.7079
 5877SOL    HW218060   5.250   4.237   6.238  0.4041  0.5918  0.4272
 5878SOL     OW18061   5.295   0.628   0.940 -0.1761 -0.4145  0.2692
 5878SOL    HW118062   5.286   0.610   1.034 -0.9981  0.7165  0.4316
 5878SOL    HW218063   5.377   0.677   0.932  0.2544 -1.1223  0.2940
 5879SOL     OW18064   3.496   5.749   1.325  0.2904 -1.0680 -0.7980
 5879SOL    HW118065   3.534   5.692   1.258  1.1869 -1.3316 -0.1002
 5879SOL    HW218066   3.409   5.714   1.341  0.1207 -1.0788 -1.7254
 5880SOL     OW18067   1.644   2.377   4.697  0.0537  0.0652  0.0108
 5880SOL    HW118068   1.597   2.309   4.745 -2.7596  1.8956  0.1097
 5880SOL    HW218069   1.672   2.334   4.616 -0.1586 -1.6153  0.7963
 5881SOL     OW18070   3.323   1.327   2.937  0.1399 -0.3982 -0.4783
 5881SOL    HW118071   3.269   1.251   2.913 -1.0703  0.3428 -0.2108
 5881SOL    HW218072   3.357   1.359   2.853 -0.9832 -0.0708 -0.8390
 5882SOL     OW18073   2.898   0.953   5.001  0.6729 -0.3901  0.7980
 5882SOL    HW118074   2.811   0.923   4.973  1.0271 -0.3402 -0.4347
 5882SOL    HW218075   2.916   0.905   5.081  0.7828 -2.7430 -0.5429
 5883SOL     OW18076   2.763   3.049   5.447 -0.6068 -0.2047 -0.4579
 5883SOL    HW118077   2.787   3.067   5.356 -1.0427  1.2121 -0.3087
 5883SOL    HW218078   2.716   2.966   5.443 -2.0704  0.6319 -1.7678
 5884SOL     OW18079   3.984   5.586   1.102 -0.3156 -0.0373  0.4474
 5884SOL    HW118080   3.951   5.673   1.081 -3.0319 -1.0409  0.1351
 5884SOL    HW218081   3.999   5.544   1.017  2.9800  0.6889  0.5368
 5885SOL     OW18082   4.186   2.549   1.281  0.4843  0.6380  0.0680
 5885SOL    HW118083   4.178   2.460   1.317  0.0401  0.3708 -0.6703
 5885SOL    HW218084   4.202   2.535   1.188 -1.2318  1.3505 -0.3630
 5886SOL     OW18085   2.068   3.862   3.421  0.3125  0.6109 -0.3923
 5886SOL    HW118086   2.114   3.788   3.380 -0.0109 -0.8106  1.6977
 5886SOL    HW218087   2.139   3.921   3.449  0.7724 -0.4644  0.7687
 5887SOL     OW18088   1.957   6.143   5.471 -0.0093  0.0213  0.5457
 5887SOL    HW118089   2.008   6.221   5.448  1.1171 -1.1749 -1.2371
 5887SOL    HW218090   2.010   6.097   5.536 -0.1197  0.1262  0.7130
 5888SOL     OW18091   3.788   5.572   2.489  0.4924  0.5711  0.3345
 5888SOL    HW118092   3.825   5.530   2.412  0.4785 -1.5585  1.4162
 5888SOL    HW218093   3.806   5.511   2.561 -2.4195  0.8370  1.4291
 5889SOL     OW18094   0.584   5.277   4.859  0.2997  0.3158 -0.1050
 5889SOL    HW118095   0.524   5.306   4.928  0.9210  0.2075  0.4891
 5889SOL    HW218096   0.636   5.207   4.900  0.1664 -0.2739 -0.9119
 5890SOL     OW18097   5.101   6.187   3.012 -1.0980  0.1454 -0.1986
 5890SOL    HW118098   5.182   6.147   2.981 -1.8557 -2.6035  1.0591
 5890SOL    HW218099   5.042   6.182   2.937 -1.1939 -1.2552 -0.0533
 5891SOL     OW18100   2.690   0.090   3.680 -0.0225  0.2172 -0.7474
 5891SOL    HW118101   2.708   0.046   3.597  0.0777  1.2255 -1.2818
 5891SOL    HW218102   2.625   0.034   3.724 -0.0658 -0.3343 -1.4948
 5892SOL     OW18103   2.489   3.418   4.410 -0.5153 -0.0168 -0.4675
 5892SOL    HW118104   2.443   3.496   4.379  0.1548  0.1949 -0.9612
 5892SOL    HW218105   2.567   3.413   4.355  0.1789 -0.2245  0.5082
 5893SOL     OW18106   5.585   6.135   5.515 -0.0523 -0.2113  0.1106
 5893SOL    HW118107   5.557   6.077   5.444  1.3122 -0.9252  0.1173
 5893SOL    HW218108   5.518   6.123   5.583 -1.5538  0.7341 -1.1437
 5894SOL     OW18109   2.870   4.586   1.704  0.3008  0.3762 -0.2168
 5894SOL    HW118110   2.841   4.517   1.764 -0.2509  0.3775 -0.4764
 5894SOL    HW218111   2.901   4.538   1.627 -1.7463  0.4259 -1.1489
 5895SOL     OW18112   3.342   1.633   2.583  0.1050 -0.2310  0.3618
 5895SOL    HW118113   3.361   1.697   2.653 -0.5514 -0.8326  1.1094
 5895SOL    HW218114   3.291   1.682   2.519 -0.2577  0.0362  0.8535
 5896SOL     OW18115   1.806   5.607   0.757 -0.0331 -0.1506 -0.6286
 5896SOL    HW118116   1.738   5.669   0.733 -0.2244 -0.3967 -0.7306
 5896SOL    HW218117   1.795   5.533   0.697 -0.1699 -0.5296 -0.1516
 5897SOL     OW18118   3.694   5.582   0.373 -0.5340 -0.3790  0.2114
 5897SOL    HW118119   3.704   5.646   0.444 -0.6594  1.6880 -1.5417
 5897SOL    HW218120   3.626   5.522   0.404 -1.0414  0.8510  1.5825
 5898SOL     OW18121   3.922   0.050   1.975  0.5485 -0.1055  0.0578
 5898SOL    HW118122   3.939  -0.043   1.958 -1.1670 -0.5170  0.3534
 5898SOL    HW218123   3.943   0.094   1.893  1.8349 -0.6735  0.0594
 5899SOL     OW18124   1.330   5.838   1.201  0.6891 -1.0356 -0.8825
 5899SOL    HW118125   1.413   5.884   1.187  1.0440 -1.2895  0.2782
 5899SOL    HW218126   1.291   5.832   1.114  0.3616  1.9187 -1.0498
 5900SOL     OW18127   0.142   4.433   1.554  0.5939 -0.4633 -0.1666
 5900SOL    HW118128   0.150   4.497   1.626 -1.7540  2.4435 -2.2432
 5900SOL    HW218129   0.183   4.476   1.479  1.5906 -2.7622 -1.0346
 5901SOL     OW18130   2.027   3.375   0.794  0.1971 -0.4615 -0.4379
 5901SOL    HW118131   2.079   3.433   0.850 -0.8932  1.6059 -1.4428
 5901SOL    HW218132   2.025   3.420   0.709 -1.1774 -1.7102 -1.1114
 5902SOL     OW18133   1.699   4.838   4.591 -0.3507 -0.4127 -0.1664
 5902SOL    HW118134   1.684   4.907   4.526  0.1853  1.2256  1.3631
 5902SOL    HW218135   1.684   4.881   4.675  0.4069 -2.0654  0.8590
 5903SOL     OW18136   1.577   5.872   1.031 -0.4088 -0.3417  0.3365
 5903SOL    HW118137   1.544   5.933   0.965 -1.8677 -0.1835  1.1694
 5903SOL    HW218138   1.670   5.894   1.040 -0.6055  0.8343 -0.3585
 5904SOL     OW18139   5.438   1.813   5.329  0.5709  0.1706  0.4543
 5904SOL    HW118140   5.408   1.899   5.359 -1.8958 -0.6601  0.6060
 5904SOL    HW218141   5.442   1.821   5.234  0.4477  0.4933  0.4717
 5905SOL     OW18142   1.009   1.910   1.668  0.2975 -0.0763 -0.5037
 5905SOL    HW118143   1.093   1.954   1.672  0.8106 -0.8540 -2.0235
 5905SOL    HW218144   1.015   1.840   1.733  0.8072 -0.0974 -0.5714
 5906SOL     OW18145   0.169   4.102   4.177  0.8114  0.0330  0.1630
 5906SOL    HW118146   0.253   4.083   4.134  0.4121  1.8052 -1.5692
 5906SOL    HW218147   0.144   4.188   4.143 -2.1710 -0.8331 -0.0941
 5907SOL     OW18148   0.575   2.904   1.423 -0.1257  0.5333  0.4916
 5907SOL    HW118149   0.577   2.832   1.360 -0.9314  0.3344  0.6775
 5907SOL    HW218150   0.665   2.911   1.455 -0.0006 -0.2780  0.3344
 5908SOL     OW18151   0.244   2.476   0.752  0.0905  0.4436 -0.0304
 5908SOL    HW118152   0.204   2.389   0.755 -1.1018  0.9777  0.0060
 5908SOL    HW218153   0.171   2.537   0.758  0.7165  1.4836 -1.9814
 5909SOL     OW18154   4.974   3.195   2.973 -0.2748 -0.5046  0.6004
 5909SOL    HW118155   5.062   3.232   2.983 -0.6193  0.6857 -0.6183
 5909SOL    HW218156   4.919   3.250   3.029 -0.5647  0.0345 -0.1968
 5910SOL     OW18157   5.299   3.358   5.194 -0.5591  0.4336 -0.0362
 5910SOL    HW118158   5.391   3.379   5.210  0.1218 -2.3324  0.1657
 5910SOL    HW218159   5.257   3.374   5.279  0.3648 -1.0245  0.7575
 5911SOL     OW18160   0.433   0.662   6.062  0.3201  0.4692 -0.0063
 5911SOL    HW118161   0.497   0.592   6.058 -0.2666 -0.0670 -0.1204
 5911SOL    HW218162   0.480   0.739   6.030  0.5512 -0.1765 -1.2874
 5912SOL     OW18163   0.387   0.214   2.484  0.5744  0.1026 -0.1120
 5912SOL    HW118164   0.483   0.215   2.481  0.5613  0.5318 -0.5795
 5912SOL    HW218165   0.362   0.303   2.458  0.0152 -0.4482 -1.5842
 5913SOL     OW18166   5.438   1.886   4.224  0.5627  0.1792  0.5189
 5913SOL    HW118167   5.520   1.842   4.246 -0.1559 -2.1983 -1.1043
 5913SOL    HW218168   5.382   1.817   4.189 -1.3657  2.1027 -0.4853
 5914SOL     OW18169   0.559   0.078   5.178  0.2269  0.7778 -0.2000
 5914SOL    HW118170   0.571  -0.015   5.158  1.1041  0.2837  2.3166
 5914SOL    HW218171   0.465   0.088   5.192  0.2290  0.0736  0.3497
 5915SOL     OW18172   6.149   2.656   2.306 -0.2366  1.0135 -0.3214
 5915SOL    HW118173   6.203   2.635   2.230 -0.5890 -0.4523 -0.2095
 5915SOL    HW218174   6.059   2.640   2.277 -0.3111 -0.8139  0.7143
 5916SOL     OW18175   6.201   1.285   0.724 -0.0958  0.0203 -0.1505
 5916SOL    HW118176   6.277   1.240   0.685  0.1505 -1.7795  2.1847
 5916SOL    HW218177   6.126   1.231   0.698 -0.7624  2.0135 -2.7882
 5917SOL     OW18178   2.972   5.603   1.963  1.2481 -0.3877 -0.0606
 5917SOL    HW118179   2.915   5.680   1.967  2.6925  0.6987  0.4689
 5917SOL    HW218180   3.050   5.628   2.012  1.3297 -2.6038  1.0597
 5918SOL     OW18181   3.795   3.483   5.762 -0.2485 -0.2523  0.0114
 5918SOL    HW118182   3.871   3.426   5.747  1.0441  1.5038 -0.4547
 5918SOL    HW218183   3.790   3.537   5.682 -1.8741 -0.1932  0.1315
 5919SOL     OW18184   5.048   4.452   1.104  1.0982 -0.2112 -0.4723
 5919SOL    HW118185   5.120   4.498   1.145  0.7015 -0.0677  0.0732
 5919SOL    HW218186   5.084   4.367   1.080  1.7179  0.2109 -1.1025
 5920SOL     OW18187   1.672   0.393   1.287 -0.1004 -0.1471  0.5807
 5920SOL    HW118188   1.741   0.352   1.340 -0.2023  1.0830  1.7069
 5920SOL    HW218189   1.591   0.355   1.321 -0.0507 -0.9479 -0.1614
 5921SOL     OW18190   4.608   5.227   1.637 -0.3487  0.0080 -0.9645
 5921SOL    HW118191   4.532   5.285   1.627  0.1730  0.6336 -1.3589
 5921SOL    HW218192   4.681   5.277   1.601  0.3156 -0.4596 -0.2766
 5922SOL     OW18193   3.056   4.031   2.506  0.1567  0.3545  0.1085
 5922SOL    HW118194   3.009   3.952   2.479 -1.4892  1.5620 -0.7587
 5922SOL    HW218195   3.148   4.011   2.491 -0.3918 -0.5127 -2.6546
 5923SOL     OW18196   5.594   3.626   5.619  0.1378 -0.9520 -0.4593
 5923SOL    HW118197   5.515   3.640   5.672  0.5583  0.5454 -0.1979
 5923SOL    HW218198   5.564   3.568   5.548 -1.5669  0.6725 -1.1539
 5924SOL     OW18199   5.572   3.786   0.003 -0.4965 -0.1265 -0.2578
 5924SOL    HW118200   5.543   3.753   0.088 -1.1792  0.7955 -0.1223
 5924SOL    HW218201   5.495   3.827  -0.035 -0.7100 -2.0461 -2.1272
 5925SOL     OW18202   4.368   2.261   4.874 -0.0688  0.3715  0.5205
 5925SOL    HW118203   4.306   2.231   4.941 -0.6675  0.7669  0.1490
 5925SOL    HW218204   4.364   2.357   4.879 -0.1083  0.4045 -0.0649
 5926SOL     OW18205   2.956   4.346   5.852  0.7662 -0.4368 -0.7041
 5926SOL    HW118206   2.884   4.321   5.911  0.3053  2.3994  0.0884
 5926SOL    HW218207   2.914   4.359   5.767  0.9702 -1.9574 -1.0646
 5927SOL     OW18208   0.383   0.883   1.933  0.2231 -0.3879  0.0112
 5927SOL    HW118209   0.429   0.833   1.866  2.0446  0.1937  0.7790
 5927SOL    HW218210   0.295   0.845   1.934  1.1926 -2.8359 -0.1817
 5928SOL     OW18211   2.661   2.172   2.859 -0.3049 -0.3484  0.2500
 5928SOL    HW118212   2.628   2.084   2.874  0.1496 -0.4907  0.4484
 5928SOL    HW218213   2.630   2.223   2.934 -1.0066 -0.2106 -0.1271
 5929SOL     OW18214   3.117   4.579   2.152 -0.1821  0.3219 -0.0117
 5929SOL    HW118215   3.067   4.541   2.224  1.3986  3.1212  2.8411
 5929SOL    HW218216   3.205   4.589   2.186  0.7863  1.4125 -2.5445
 5930SOL     OW18217   4.228   6.176   2.323 -0.3147 -0.0722  0.2021
 5930SOL    HW118218   4.291   6.160   2.253 -0.3456 -0.9286  0.3577
 5930SOL    HW218219   4.173   6.247   2.290  0.0157 -0.0944 -0.4120
 5931SOL     OW18220   5.380   4.743   2.768 -0.2491 -0.4777  0.2618
 5931SOL    HW118221   5.339   4.829   2.754  1.3070  0.4497  1.1144
 5931SOL    HW218222   5.386   4.734   2.863 -2.6629 -2.7100  0.3135
 5932SOL     OW18223   1.009   4.337   4.135 -0.2959  0.0577 -0.1012
 5932SOL    HW118224   0.998   4.359   4.227  1.3508 -2.6229  0.8439
 5932SOL    HW218225   1.064   4.407   4.100 -2.1857  1.9409  0.4708
 5933SOL     OW18226   1.789   4.957   0.532 -0.1785 -0.6658  0.0595
 5933SOL    HW118227   1.839   4.944   0.612  1.6088  0.6921 -0.7689
 5933SOL    HW218228   1.852   4.994   0.470 -2.0625  0.5759 -1.2195
 5934SOL     OW18229   2.071   4.828   3.529  0.7011 -0.2064  0.0609
 5934SOL    HW118230   2.037   4.918   3.522  2.0345  0.6314  2.9786
 5934SOL    HW218231   2.010   4.785   3.589 -0.0908 -1.4043 -1.5435
 5935SOL     OW18232   4.709   6.068   5.801 -0.7517 -0.1155 -0.5057
 5935SOL    HW118233   4.787   6.022   5.831 -0.0427  0.3808 -1.5129
 5935SOL    HW218234   4.646   6.060   5.873  0.3727 -0.1708  0.4888
 5936SOL     OW18235   5.553   0.848   3.808 -0.5247  0.2566 -0.0905
 5936SOL    HW118236   5.594   0.929   3.777  2.7284 -0.6793  1.3437
 5936SOL    HW218237   5.500   0.875   3.883 -1.4643  1.3471 -1.1204
 5937SOL     OW18238   5.662   3.290   3.708  0.0756 -0.1807 -0.0112
 5937SOL    HW118239   5.743   3.239   3.702 -0.3279 -1.2753  2.4642
 5937SOL    HW218240   5.593   3.226   3.696 -0.4273  0.0434  1.4651
 5938SOL     OW18241   4.680   4.395   5.222  0.3180 -0.1693 -0.0329
 5938SOL    HW118242   4.601   4.358   5.185  0.4331  1.2027 -1.7636
 5938SOL    HW218243   4.711   4.329   5.284 -0.7365 -1.8789 -1.2604
 5939SOL     OW18244   4.420   2.081   1.054  0.0710 -0.5276  0.7523
 5939SOL    HW118245   4.483   2.092   0.983  1.5897 -2.3903  1.7175
 5939SOL    HW218246   4.440   2.152   1.115 -0.7954  0.6754 -0.3129
 5940SOL     OW18247   0.618   5.766   1.809 -0.3126 -0.4352  0.3903
 5940SOL    HW118248   0.596   5.687   1.859  0.7359 -1.1992 -0.3017
 5940SOL    HW218249   0.706   5.789   1.838 -0.1211 -0.2580 -0.3130
 5941SOL     OW18250   0.048   2.060   2.013 -0.4224  0.0483  0.0789
 5941SOL    HW118251   0.074   1.986   2.067  0.8855 -0.9842 -1.8652
 5941SOL    HW218252  -0.046   2.068   2.027 -0.5368 -1.7862  0.5768
 5942SOL     OW18253   4.379   1.614   0.917 -0.0636 -0.2927  0.2359
 5942SOL    HW118254   4.324   1.692   0.908 -0.3111 -0.6338 -1.6567
 5942SOL    HW218255   4.317   1.541   0.922  0.1577 -0.5982 -0.9912
 5943SOL     OW18256   3.103   4.381   2.613 -0.3755  0.6181 -0.8723
 5943SOL    HW118257   3.174   4.345   2.667 -1.9029  1.4875  1.9464
 5943SOL    HW218258   3.033   4.315   2.619 -0.6673  0.8487 -1.6326
 5944SOL     OW18259   3.075   3.436   4.170  0.3285  0.2686 -0.0896
 5944SOL    HW118260   3.037   3.460   4.255 -0.5258 -0.4469 -0.2579
 5944SOL    HW218261   3.037   3.499   4.109 -1.3334 -0.9763 -0.4057
 5945SOL     OW18262   4.948   4.044   3.737  0.4530 -0.0084 -0.0365
 5945SOL    HW118263   4.902   4.102   3.677 -0.4800 -0.3361  0.3436
 5945SOL    HW218264   4.984   4.102   3.804 -3.2501  0.0002  2.2181
 5946SOL     OW18265   1.414   3.155   2.136  0.3002 -0.2035  0.0803
 5946SOL    HW118266   1.415   3.163   2.231  3.3512  1.6428  0.0348
 5946SOL    HW218267   1.382   3.066   2.119 -0.9796 -0.3394  2.7460
 5947SOL     OW18268   5.262   4.690   4.996  0.6800 -0.4937 -0.1804
 5947SOL    HW118269   5.299   4.722   4.914  1.0206  1.6758  0.7687
 5947SOL    HW218270   5.170   4.718   4.994  0.8640  0.1811  0.4698
 5948SOL     OW18271   5.584   2.499   1.144  0.3361  0.3661  0.1040
 5948SOL    HW118272   5.502   2.503   1.094  1.0072 -0.9766 -1.1847
 5948SOL    HW218273   5.569   2.431   1.209  0.2976  0.4071  0.1382
 5949SOL     OW18274   1.373   0.156   5.261  0.2280 -0.0644  0.3646
 5949SOL    HW118275   1.447   0.097   5.252  1.2473  1.1040  0.8220
 5949SOL    HW218276   1.297   0.098   5.267  1.1367 -1.2977  0.3435
 5950SOL     OW18277   0.247   0.468   1.438  0.0496  0.3388  0.1408
 5950SOL    HW118278   0.185   0.424   1.497 -2.1629  3.6215  0.5345
 5950SOL    HW218279   0.269   0.549   1.483  0.8973  1.4541 -2.1606
 5951SOL     OW18280   0.059   4.626   3.324 -0.1043  0.4827 -0.0216
 5951SOL    HW118281  -0.010   4.577   3.281  0.2797 -0.0822 -0.0093
 5951SOL    HW218282   0.030   4.636   3.414  0.3994 -0.8831  0.3134
 5952SOL     OW18283   1.330   4.759   3.069 -0.1934  0.0818  0.5465
 5952SOL    HW118284   1.381   4.815   3.010  0.1190 -0.4891  0.2689
 5952SOL    HW218285   1.310   4.815   3.144 -0.7031  0.8674 -0.1488
 5953SOL     OW18286   1.335   2.891   3.947 -0.2483 -0.3727  0.0188
 5953SOL    HW118287   1.260   2.937   3.911  0.6048  0.6932 -0.4658
 5953SOL    HW218288   1.380   2.956   4.001  1.5204 -0.2955 -1.4361
 5954SOL     OW18289   4.995   0.666   0.599 -0.0377 -0.1466 -0.9643
 5954SOL    HW118290   4.999   0.673   0.695 -0.6554  2.0713 -1.0506
 5954SOL    HW218291   4.929   0.731   0.574  0.3051 -0.5227 -2.9331
 5955SOL     OW18292   3.794   5.242   3.993 -0.1956 -0.1774 -0.5053
 5955SOL    HW118293   3.832   5.158   3.967  0.1149 -0.2692  0.2027
 5955SOL    HW218294   3.802   5.243   4.088 -1.7723 -0.0837 -0.3486
 5956SOL     OW18295   1.224   1.512   2.684 -0.1003 -0.1983  0.1868
 5956SOL    HW118296   1.256   1.486   2.598 -1.2701 -1.3597  0.0790
 5956SOL    HW218297   1.292   1.569   2.719  0.1306  0.7659 -1.7403
 5957SOL     OW18298   5.016   5.191   2.816  0.3120  0.4199  0.2164
 5957SOL    HW118299   5.108   5.213   2.826 -0.4136  3.8017  0.6254
 5957SOL    HW218300   4.970   5.275   2.819 -3.0148 -1.2375  2.1568
 5958SOL     OW18301   4.854   3.482   2.244  0.1088 -0.4617 -0.0541
 5958SOL    HW118302   4.798   3.428   2.188  0.1153 -0.4093 -0.1116
 5958SOL    HW218303   4.864   3.564   2.195  0.4045 -0.5468 -0.1380
 5959SOL     OW18304   0.819   0.667   0.256  0.5229 -0.0211  0.2818
 5959SOL    HW118305   0.886   0.605   0.287 -0.4375 -1.1331  0.2151
 5959SOL    HW218306   0.760   0.613   0.203  0.1220  1.1361 -0.4749
 5960SOL     OW18307   4.986   3.046   0.362  0.1258  0.6173 -0.2361
 5960SOL    HW118308   4.892   3.055   0.378 -0.1100  0.2879 -1.3437
 5960SOL    HW218309   4.997   3.069   0.270  0.8257 -1.1780 -0.6472
 5961SOL     OW18310   5.099   0.360   5.913  0.2599 -0.5929 -0.2701
 5961SOL    HW118311   5.133   0.444   5.944  0.3196 -0.2404 -1.2664
 5961SOL    HW218312   5.176   0.304   5.905  0.2183 -0.7605  0.4070
 5962SOL     OW18313   0.759   5.325   4.384  0.4100  0.3963 -0.0408
 5962SOL    HW118314   0.682   5.296   4.335  0.1288  1.4196 -0.2394
 5962SOL    HW218315   0.729   5.328   4.475  1.8772 -4.8741  0.9317
 5963SOL     OW18316   4.040   3.743   4.772 -0.8522  0.6773  1.0118
 5963SOL    HW118317   4.058   3.749   4.678  1.8732 -1.4659  1.2707
 5963SOL    HW218318   4.039   3.834   4.802  1.1151  1.3356 -0.6599
 5964SOL     OW18319   4.140   5.128   0.636 -0.3313 -0.3473  0.4542
 5964SOL    HW118320   4.206   5.057   0.636 -1.1717 -1.1801 -1.2224
 5964SOL    HW218321   4.057   5.083   0.651 -0.9468  0.1868 -1.1822
 5965SOL     OW18322   0.471   6.116   3.303  0.4543  0.4033  0.2266
 5965SOL    HW118323   0.501   6.169   3.376 -1.1604  1.9066 -0.1379
 5965SOL    HW218324   0.389   6.077   3.334  0.7320 -0.4824 -0.1300
 5966SOL     OW18325   1.760   0.106   4.360 -0.3047  0.6878 -0.3660
 5966SOL    HW118326   1.785   0.092   4.269 -0.6602  0.4148 -0.4209
 5966SOL    HW218327   1.681   0.054   4.372 -0.0083  0.3571  0.2205
 5967SOL     OW18328   4.969   5.070   1.878  0.7470 -1.0882  0.4631
 5967SOL    HW118329   4.957   5.058   1.972  0.3194 -0.1582  0.5401
 5967SOL    HW218330   5.056   5.034   1.861  0.7547 -1.4362  1.1839
 5968SOL     OW18331   4.775   2.355   0.927  0.1626 -0.0385 -0.1715
 5968SOL    HW118332   4.809   2.403   0.852  1.5366 -0.7781 -0.0483
 5968SOL    HW218333   4.690   2.396   0.945  0.0410  0.4749 -1.7960
 5969SOL     OW18334   6.139   0.170   3.819 -0.5175 -0.9261 -0.0978
 5969SOL    HW118335   6.173   0.086   3.789  1.6627 -0.1046 -0.1102
 5969SOL    HW218336   6.062   0.185   3.765  2.0547 -0.4809 -4.0694
 5970SOL     OW18337   3.556   2.247   4.499 -0.1343  0.0684 -0.1537
 5970SOL    HW118338   3.541   2.153   4.492 -1.0559  0.1696  0.2551
 5970SOL    HW218339   3.601   2.271   4.418 -1.2697 -0.4725 -0.9756
 5971SOL     OW18340   4.308   2.144   0.508 -0.2842  0.5010  0.0521
 5971SOL    HW118341   4.214   2.126   0.498 -0.0164 -0.5432 -0.6250
 5971SOL    HW218342   4.352   2.071   0.464  0.8454  1.5571 -0.6422
 5972SOL     OW18343   5.980   6.167   0.557  0.0407  0.4074  0.4346
 5972SOL    HW118344   6.066   6.206   0.573  0.9812 -1.2914 -0.1635
 5972SOL    HW218345   5.961   6.118   0.637 -0.3758  0.7569  0.5543
 5973SOL     OW18346   0.815   1.486   2.960 -0.7104 -0.3156 -0.5721
 5973SOL    HW118347   0.895   1.457   2.915 -1.0047  0.3893 -1.5944
 5973SOL    HW218348   0.847   1.526   3.041 -0.1829 -1.7951 -0.0258
 5974SOL     OW18349   5.503   3.895   5.559 -0.5587 -0.0013 -0.3983
 5974SOL    HW118350   5.529   3.814   5.603  1.4946  0.2315 -1.0908
 5974SOL    HW218351   5.474   3.867   5.472 -1.2899 -0.1198 -0.1228
 5975SOL     OW18352   4.358   3.022   1.546  0.7652  0.5153 -0.2996
 5975SOL    HW118353   4.314   2.972   1.477  0.6495  0.2834 -0.0582
 5975SOL    HW218354   4.298   3.018   1.621  1.8552 -1.0801  0.5331
 5976SOL     OW18355   2.511   3.608   5.771  0.7442  0.1125 -0.2552
 5976SOL    HW118356   2.563   3.600   5.692  1.7027  1.0925  0.2570
 5976SOL    HW218357   2.487   3.700   5.776 -0.2702 -0.1555  0.0007
 5977SOL     OW18358   5.351   0.249   5.533  0.8812 -0.1917 -0.3321
 5977SOL    HW118359   5.437   0.238   5.493  0.5002 -0.1487 -1.1746
 5977SOL    HW218360   5.369   0.255   5.627  1.6572 -1.7164 -0.3574
 5978SOL     OW18361   4.788   2.754   4.993 -0.0519  0.5962  0.7455
 5978SOL    HW118362   4.840   2.790   4.921 -0.1959 -0.4170  0.1218
 5978SOL    HW218363   4.801   2.659   4.988 -3.2473  0.1040 -0.4878
 5979SOL     OW18364   1.530   6.036   3.130 -0.4913 -0.6244 -0.0270
 5979SOL    HW118365   1.522   6.112   3.188 -0.5842 -0.9978  0.4539
 5979SOL    HW218366   1.441   6.018   3.101 -0.4675 -0.5381 -0.1516
 5980SOL     OW18367   5.435   3.775   3.713 -0.2926  0.3140  0.7341
 5980SOL    HW118368   5.454   3.693   3.667  0.3845  1.1883 -0.5922
 5980SOL    HW218369   5.510   3.789   3.771  1.1939  1.5891 -1.3845
 5981SOL     OW18370   3.045   1.620   1.712 -0.1628  0.1957  0.1190
 5981SOL    HW118371   3.099   1.680   1.659 -0.9194  0.2630 -0.5970
 5981SOL    HW218372   2.995   1.570   1.647 -0.3340 -0.4570  0.7515
 5982SOL     OW18373   5.838   3.611   1.096 -0.0383 -0.3320  0.2486
 5982SOL    HW118374   5.747   3.627   1.120 -0.3375  1.1152 -1.5850
 5982SOL    HW218375   5.876   3.569   1.173 -2.2577 -1.0586  1.0338
 5983SOL     OW18376   3.347   3.208   3.743 -0.0626 -0.0151 -1.0066
 5983SOL    HW118377   3.413   3.235   3.807  0.3009 -0.3267 -1.2440
 5983SOL    HW218378   3.347   3.277   3.677 -1.7813  1.2812  0.2672
 5984SOL     OW18379   1.595   0.002   1.410 -0.0037  0.2382  0.2401
 5984SOL    HW118380   1.662  -0.031   1.470  0.6758  1.2012  0.0361
 5984SOL    HW218381   1.519  -0.053   1.427  0.2295  0.3663  1.8626
 5985SOL     OW18382   6.169   0.148   5.612 -0.1066 -0.0494 -0.0157
 5985SOL    HW118383   6.094   0.207   5.617  0.6623  0.8916  1.5877
 5985SOL    HW218384   6.154   0.096   5.534 -0.2717  3.0666 -2.2623
 5986SOL     OW18385   2.949   1.021   3.100 -0.1113  0.0128 -0.1393
 5986SOL    HW118386   3.029   0.980   3.133 -0.7070 -0.2046  1.0551
 5986SOL    HW218387   2.964   1.115   3.111 -0.2995 -0.0575  0.7426
 5987SOL     OW18388   2.365   2.118   3.058  0.0384 -0.4366 -0.0387
 5987SOL    HW118389   2.314   2.136   2.980 -1.6984  1.0876  1.3694
 5987SOL    HW218390   2.433   2.056   3.029 -1.2080 -0.7667 -2.4586
 5988SOL     OW18391   0.973   3.069   6.178  0.3993  0.2644  0.4586
 5988SOL    HW118392   0.968   3.146   6.121 -1.6952 -0.0511  0.1440
 5988SOL    HW218393   1.008   3.103   6.261  2.1511  0.9832 -0.5245
 5989SOL     OW18394   4.228   5.602   5.617  0.5897  0.0823  0.3179
 5989SOL    HW118395   4.220   5.696   5.633 -1.6675  0.1088 -0.6156
 5989SOL    HW218396   4.193   5.589   5.529 -0.3434 -1.7798  0.9093
 5990SOL     OW18397   6.177   0.559   3.614 -0.6851  0.1485  0.1640
 5990SOL    HW118398   6.164   0.652   3.596  1.4772  0.4137 -0.1854
 5990SOL    HW218399   6.230   0.557   3.694  1.5776 -0.6509 -1.2663
 5991SOL     OW18400   4.879   2.514   4.908  0.1538 -0.3860  0.0202
 5991SOL    HW118401   4.911   2.426   4.890  1.1501 -0.2236  0.9034
 5991SOL    HW218402   4.800   2.522   4.856 -2.1791 -3.1817  2.7816
 5992SOL     OW18403   3.928   2.561   5.306  0.3504 -0.0681  0.0183
 5992SOL    HW118404   3.960   2.649   5.327  1.1489 -0.2866 -0.2330
 5992SOL    HW218405   3.979   2.503   5.363 -0.9359 -0.2983  0.9680
 5993SOL     OW18406   2.167   1.747   5.280 -0.3041  0.7101  0.2314
 5993SOL    HW118407   2.099   1.756   5.347  0.6749  1.5846  1.1452
 5993SOL    HW218408   2.143   1.667   5.232 -2.0820  1.1048  0.3784
 5994SOL     OW18409   0.479   4.637   2.937 -0.2939  0.2348 -0.1509
 5994SOL    HW118410   0.416   4.568   2.956 -0.7328  0.9142  0.9279
 5994SOL    HW218411   0.542   4.632   3.009  0.5334 -0.0073 -0.8699
 5995SOL     OW18412   2.032   5.607   5.840  0.0742 -0.0199  0.2197
 5995SOL    HW118413   2.051   5.587   5.748  2.7280 -0.2640  0.7404
 5995SOL    HW218414   2.007   5.523   5.878 -1.4689  0.1569 -0.3088
 5996SOL     OW18415   3.788   1.303   3.588 -0.1676 -0.0919  0.3499
 5996SOL    HW118416   3.723   1.364   3.624  0.5348  0.6264  0.4381
 5996SOL    HW218417   3.808   1.337   3.501 -0.2855 -0.5973  0.1259
 5997SOL     OW18418   3.021   2.522   1.634  0.2246  0.4012  0.1273
 5997SOL    HW118419   2.932   2.558   1.644  0.4045  0.8830  0.0423
 5997SOL    HW218420   3.062   2.536   1.719 -0.0997 -0.7305  0.4760
 5998SOL     OW18421   5.951   2.748   0.156  0.3368 -0.1679  0.4206
 5998SOL    HW118422   5.938   2.798   0.237  1.0617  0.1259  0.3594
 5998SOL    HW218423   5.863   2.719   0.133 -0.2872  1.8850 -0.0453
 5999SOL     OW18424   6.173   2.989   1.422 -0.2864 -0.3121  0.0975
 5999SOL    HW118425   6.152   2.994   1.329  1.9141 -0.6071 -0.4899
 5999SOL    HW218426   6.194   3.079   1.446  1.2965 -0.5248 -0.3246
 6000SOL     OW18427   0.595   5.650   1.083 -0.5004  0.7836 -0.8581
 6000SOL    HW118428   0.595   5.724   1.143  1.5628  1.2500 -1.3363
 6000SOL    HW218429   0.612   5.574   1.139  0.4274  1.0870 -0.7132
 6001SOL     OW18430   3.064   4.365   1.920  0.0347 -0.5490 -0.0229
 6001SOL    HW118431   2.969   4.355   1.921 -0.1314  0.4404 -2.0204
 6001SOL    HW218432   3.086   4.399   2.007 -1.7837  1.8661 -0.4057
 6002SOL     OW18433   3.241   4.236   6.127  0.1171  0.0702 -0.1135
 6002SOL    HW118434   3.173   4.221   6.192 -0.9763  0.5821 -1.1122
 6002SOL    HW218435   3.279   4.150   6.111 -0.1148 -0.1790  0.6355
 6003SOL     OW18436   6.213   4.454   1.052 -0.3865 -0.2623  0.3372
 6003SOL    HW118437   6.205   4.369   1.094 -0.8419  1.3141  3.8352
 6003SOL    HW218438   6.127   4.471   1.015 -1.3684 -0.0295  2.5593
 6004SOL     OW18439   4.311   1.610   2.875 -0.2694  0.2370  0.0201
 6004SOL    HW118440   4.330   1.577   2.963  0.4830  0.1704 -0.1579
 6004SOL    HW218441   4.389   1.660   2.852  0.9353 -2.2496 -1.8082
 6005SOL     OW18442   5.558   0.973   1.423 -0.1545  0.1643  0.2859
 6005SOL    HW118443   5.551   1.050   1.366  1.3461 -0.2950 -0.6009
 6005SOL    HW218444   5.648   0.977   1.456 -0.3035 -0.8027  0.8228
 6006SOL     OW18445   1.962   0.464   1.829  0.6515 -0.0011  0.4238
 6006SOL    HW118446   1.926   0.375   1.834 -0.5702  0.4975  0.8021
 6006SOL    HW218447   2.056   0.452   1.844  0.5155 -1.2374  0.3985
 6007SOL     OW18448   5.768   5.395   3.970  0.3449 -0.7354 -0.3019
 6007SOL    HW118449   5.857   5.360   3.955  1.0153  0.5696  0.4625
 6007SOL    HW218450   5.752   5.379   4.063  1.0555  1.7243  0.3120
 6008SOL     OW18451   5.481   5.515   0.024  0.4302 -0.1854  0.3668
 6008SOL    HW118452   5.569   5.527   0.060 -0.4122  1.0113  2.1765
 6008SOL    HW218453   5.431   5.590   0.057 -0.2526  1.7775 -4.2586
 6009SOL     OW18454   2.312   0.671   3.300 -0.5986  0.4328 -0.2025
 6009SOL    HW118455   2.383   0.726   3.265 -1.0229  0.8719 -0.3928
 6009SOL    HW218456   2.312   0.593   3.244  0.5321 -0.1451  0.5691
 6010SOL     OW18457   1.365   3.124   1.415  0.3942  0.4773  0.4515
 6010SOL    HW118458   1.283   3.079   1.393  0.1801  0.8221  0.5425
 6010SOL    HW218459   1.431   3.055   1.414 -0.0896 -0.0242  1.5758
 6011SOL     OW18460   5.447   2.293   2.906  0.0510  0.2915  0.4083
 6011SOL    HW118461   5.538   2.279   2.883 -0.0475  1.3104 -0.7260
 6011SOL    HW218462   5.433   2.387   2.894 -1.7083 -0.1420 -1.7156
 6012SOL     OW18463   1.303   5.488   4.836  0.1325 -0.0597 -0.2114
 6012SOL    HW118464   1.313   5.440   4.754 -0.4708  0.8888 -0.8439
 6012SOL    HW218465   1.341   5.429   4.902  0.2452 -1.0079 -1.0949
 6013SOL     OW18466   4.008   1.984   5.003  0.1705 -0.2099  0.2555
 6013SOL    HW118467   4.087   1.937   5.029  0.6474 -0.5616 -1.6410
 6013SOL    HW218468   3.943   1.916   4.985  0.5273 -0.1579 -1.4445
 6014SOL     OW18469   2.631   5.717   0.132  0.5676 -0.3205 -0.0824
 6014SOL    HW118470   2.569   5.707   0.204  0.8346 -0.2524  0.1554
 6014SOL    HW218471   2.576   5.743   0.057  0.3593  0.1172  0.2223
 6015SOL     OW18472   2.240   1.726   3.436  0.3031 -0.7031  0.0464
 6015SOL    HW118473   2.207   1.787   3.371  4.3186  1.2283 -0.5085
 6015SOL    HW218474   2.224   1.769   3.520 -0.8207 -1.0475  0.0230
 6016SOL     OW18475   3.607   4.836   5.134 -0.0475 -0.0821 -0.2857
 6016SOL    HW118476   3.678   4.865   5.077  0.4834  2.4370  1.4941
 6016SOL    HW218477   3.534   4.895   5.115 -1.0457 -1.3503 -0.6412
 6017SOL     OW18478   1.933   2.540   3.032  0.3960  0.2266 -0.3913
 6017SOL    HW118479   1.949   2.481   3.106 -0.1048 -0.4695 -0.8259
 6017SOL    HW218480   1.908   2.623   3.072 -2.7313 -0.9116  0.2798
 6018SOL     OW18481   1.196   4.305   5.688  0.3415 -0.0057 -0.5956
 6018SOL    HW118482   1.159   4.282   5.774  1.0223  1.7972  0.2156
 6018SOL    HW218483   1.215   4.398   5.694  2.7066 -0.3382 -1.8617
 6019SOL     OW18484   3.592   2.399   3.452  1.4006 -0.1452 -0.0201
 6019SOL    HW118485   3.603   2.480   3.402  1.7042 -1.1187 -1.6035
 6019SOL    HW218486   3.667   2.345   3.427  1.2095 -0.9316  1.0203
 6020SOL     OW18487   5.408   1.456   2.914  0.1058 -0.0189 -0.4879
 6020SOL    HW118488   5.468   1.522   2.880  0.7633 -1.6663 -2.7749
 6020SOL    HW218489   5.465   1.383   2.938 -0.9066 -1.7079 -2.9142
 6021SOL     OW18490   6.055   1.047   1.151 -0.0517 -0.1859  0.4950
 6021SOL    HW118491   6.140   1.086   1.130  0.9128 -3.1659 -1.8934
 6021SOL    HW218492   6.070   0.998   1.232  0.3698 -0.3634  0.3087
 6022SOL     OW18493   3.084   5.196   4.104  0.2564 -0.3552 -0.3211
 6022SOL    HW118494   3.107   5.281   4.067  1.0661  0.5044  1.9588
 6022SOL    HW218495   2.989   5.201   4.117  0.0558 -0.4424 -1.6456
 6023SOL     OW18496   1.364   0.964   4.319  0.2610 -0.4403 -0.6474
 6023SOL    HW118497   1.441   0.992   4.368 -0.2031  0.3046 -0.3201
 6023SOL    HW218498   1.398   0.930   4.237  1.0356 -1.5213  0.0993
 6024SOL     OW18499   3.716   1.702   5.937 -0.0995  0.4253 -0.5318
 6024SOL    HW118500   3.723   1.655   6.020  2.6178  0.2466 -0.7942
 6024SOL    HW218501   3.759   1.786   5.954 -0.6512  0.8919 -1.4183
 6025SOL     OW18502   4.819   4.011   1.764 -0.0603 -0.4580  0.2462
 6025SOL    HW118503   4.733   3.985   1.798 -0.3629  0.8205  0.5210
 6025SOL    HW218504   4.826   3.967   1.680 -1.1637 -0.2825  0.0440
 6026SOL     OW18505   0.750   1.435   2.416  0.0709  0.3356  0.2541
 6026SOL    HW118506   0.830   1.437   2.363  0.0275 -1.0739  0.1020
 6026SOL    HW218507   0.748   1.347   2.454  1.0966  1.8274  4.2213
 6027SOL     OW18508   4.061   4.079   3.003 -0.4033 -0.9259  0.2223
 6027SOL    HW118509   4.040   4.028   2.925  0.5853 -0.9244 -0.0539
 6027SOL    HW218510   4.091   4.015   3.067 -1.3114 -0.9396  0.6549
 6028SOL     OW18511   3.402   0.242   4.782 -0.0903  0.2396 -0.5069
 6028SOL    HW118512   3.363   0.308   4.839 -2.3919  0.0436 -1.7408
 6028SOL    HW218513   3.422   0.289   4.701 -0.9005 -0.3633 -1.0710
 6029SOL     OW18514   1.077   1.384   5.686  0.2725 -0.2711 -0.1282
 6029SOL    HW118515   1.134   1.309   5.668  0.4046  0.1961 -1.8695
 6029SOL    HW218516   0.994   1.345   5.712  0.3266 -1.0351 -1.0458
 6030SOL     OW18517   2.547   0.072   2.820  0.9123 -0.4769 -0.2227
 6030SOL    HW118518   2.548  -0.021   2.799 -2.3193 -0.5667 -0.4743
 6030SOL    HW218519   2.554   0.076   2.915  0.3101 -1.0148 -0.1563
 6031SOL     OW18520   5.007   0.764   4.961 -0.2361 -0.0878  0.1793
 6031SOL    HW118521   4.974   0.703   4.895  1.0125  0.0771 -0.6180
 6031SOL    HW218522   5.093   0.730   4.985 -0.1100  0.5921  0.7334
 6032SOL     OW18523   3.221   0.488   2.744  0.3328 -0.0182  0.1176
 6032SOL    HW118524   3.219   0.433   2.666  2.3784 -0.7797  0.5463
 6032SOL    HW218525   3.150   0.455   2.799 -0.1007 -0.5146 -0.7232
 6033SOL     OW18526   0.685   3.318   3.974  0.0235  0.0179 -0.7263
 6033SOL    HW118527   0.740   3.390   4.002  0.1779  0.2155 -1.5303
 6033SOL    HW218528   0.630   3.354   3.905 -1.5106 -0.0192  0.3963
 6034SOL     OW18529   1.768   3.783   4.083 -0.7854  0.7427 -0.1895
 6034SOL    HW118530   1.758   3.877   4.097 -0.7776  0.7205 -0.0238
 6034SOL    HW218531   1.843   3.774   4.024 -1.5982  0.9046 -1.2770
 6035SOL     OW18532   5.883   0.136   5.642  0.1366 -0.0799 -0.5714
 6035SOL    HW118533   5.854   0.085   5.566  1.1619  0.5851 -1.4391
 6035SOL    HW218534   5.854   0.085   5.718  1.4440 -2.1699 -1.3769
 6036SOL     OW18535   4.331   4.171   4.237 -0.1649 -0.7129  0.3218
 6036SOL    HW118536   4.350   4.232   4.166  3.0649 -1.3908  0.4374
 6036SOL    HW218537   4.243   4.138   4.218 -0.6516  1.4259 -1.5637
 6037SOL     OW18538   4.590   3.536   2.677 -0.0369  0.2839  0.3994
 6037SOL    HW118539   4.622   3.445   2.677  0.0960  0.3293  0.7060
 6037SOL    HW218540   4.505   3.531   2.721 -1.1115 -0.0525 -1.5727
 6038SOL     OW18541   0.036   5.000   5.784  0.4136 -0.3005 -0.3005
 6038SOL    HW118542  -0.010   5.012   5.702 -0.0438 -1.3980 -0.2119
 6038SOL    HW218543   0.101   5.071   5.785 -0.7610  0.8334 -0.7547
 6039SOL     OW18544   3.275   5.534   1.589  0.2979 -0.5832  0.2004
 6039SOL    HW118545   3.219   5.552   1.513 -0.0626 -0.8732  0.3927
 6039SOL    HW218546   3.221   5.479   1.646  0.7715 -0.8368  0.4063
 6040SOL     OW18547   4.242   5.166   4.842  0.0686  0.6099 -0.0915
 6040SOL    HW118548   4.296   5.100   4.800 -0.9383  1.2210 -2.5069
 6040SOL    HW218549   4.302   5.212   4.901  1.0619 -1.6003  0.7005
 6041SOL     OW18550   5.728   5.214   1.701  0.0320 -0.6011  0.5244
 6041SOL    HW118551   5.656   5.154   1.722  0.7577 -1.3554  0.9050
 6041SOL    HW218552   5.758   5.246   1.786  0.2572 -0.4231  0.3774
 6042SOL     OW18553   0.302   3.387   0.132  0.2145  0.2303 -0.3977
 6042SOL    HW118554   0.393   3.415   0.125  0.1514  0.9090  1.0952
 6042SOL    HW218555   0.297   3.343   0.217 -0.5851 -0.9193 -1.0075
 6043SOL     OW18556   4.997   2.242   4.023 -0.8220 -0.2209  0.0884
 6043SOL    HW118557   4.990   2.163   4.078 -2.1916  1.8428  3.1354
 6043SOL    HW218558   4.907   2.273   4.015 -0.4199  0.5503 -1.9414
 6044SOL     OW18559   6.055   4.526   4.629  0.0510 -0.5353 -0.2970
 6044SOL    HW118560   6.040   4.434   4.609  0.5262 -0.9706  1.2330
 6044SOL    HW218561   6.107   4.559   4.555 -0.3768 -1.4052 -0.9954
 6045SOL     OW18562   5.170   1.146   5.678 -0.0032  0.3862  0.3842
 6045SOL    HW118563   5.189   1.104   5.594 -3.3171 -0.0762 -0.2719
 6045SOL    HW218564   5.250   1.133   5.730  2.2061  0.8362 -2.6832
 6046SOL     OW18565   4.720   3.086   0.429  0.1720 -0.5314 -0.3592
 6046SOL    HW118566   4.700   3.174   0.397  0.0859  0.6119  2.5726
 6046SOL    HW218567   4.640   3.058   0.473  0.8870 -1.1960  0.5497
 6047SOL     OW18568   2.689   2.740   0.362 -0.0260  0.0487  0.3593
 6047SOL    HW118569   2.618   2.801   0.340 -0.7308  0.2533  2.8376
 6047SOL    HW218570   2.673   2.718   0.454  1.6427 -1.9764  0.2288
 6048SOL     OW18571   2.759   2.966   3.663 -0.1998 -0.3445  0.2269
 6048SOL    HW118572   2.725   2.880   3.640 -0.5347  0.0198 -0.7094
 6048SOL    HW218573   2.853   2.961   3.644 -0.4928  0.0037 -1.5298
 6049SOL     OW18574   2.562   0.527   4.973 -0.0764  0.0203 -0.2957
 6049SOL    HW118575   2.515   0.542   5.055  1.1384  0.3157  0.3566
 6049SOL    HW218576   2.563   0.432   4.963  0.8744 -0.0966  0.7087
 6050SOL     OW18577   5.896   6.063   1.663  0.7359  0.3167  0.2164
 6050SOL    HW118578   5.903   6.037   1.571  0.3902 -0.6784  0.4703
 6050SOL    HW218579   5.806   6.042   1.688  0.8289  0.5660  0.7897
 6051SOL     OW18580   2.942   0.640   2.250  0.2026  0.3638  0.3033
 6051SOL    HW118581   2.965   0.728   2.220 -2.3833  0.9456 -0.2539
 6051SOL    HW218582   2.871   0.654   2.313 -0.4530 -1.3141 -0.0005
 6052SOL     OW18583   3.183   0.522   1.993 -0.2897 -0.0284  0.6110
 6052SOL    HW118584   3.256   0.476   1.951 -0.0426  1.2869 -0.4478
 6052SOL    HW218585   3.206   0.524   2.085 -0.2869 -1.9653  0.7063
 6053SOL     OW18586   4.480   1.623   0.387 -0.2656  0.5013 -0.2312
 6053SOL    HW118587   4.407   1.564   0.365 -0.4202  0.2813  0.8189
 6053SOL    HW218588   4.499   1.605   0.479  1.2361  0.4483 -0.5283
 6054SOL     OW18589   1.763   4.663   4.087 -0.2351  0.0523  0.1295
 6054SOL    HW118590   1.705   4.724   4.041  0.4139  1.3755  0.9782
 6054SOL    HW218591   1.733   4.666   4.178 -0.8476 -1.7360  0.0223
 6055SOL     OW18592   2.704   3.793   1.721 -1.3372  0.1995 -0.2091
 6055SOL    HW118593   2.727   3.811   1.630  2.5295 -0.7898  0.3937
 6055SOL    HW218594   2.699   3.697   1.727  0.4187  0.1316  0.9286
 6056SOL     OW18595   2.131   4.396   5.006 -0.6126 -0.1818  0.3764
 6056SOL    HW118596   2.079   4.347   4.943  0.0419  0.9102 -1.0823
 6056SOL    HW218597   2.078   4.473   5.026 -0.2508  0.1397  0.1118
 6057SOL     OW18598   0.857   4.041   2.644 -0.0758 -0.5239 -0.2641
 6057SOL    HW118599   0.800   4.094   2.587 -0.5673  0.4641  1.1087
 6057SOL    HW218600   0.814   3.957   2.649 -0.8946 -0.0991 -0.0463
 6058SOL     OW18601   5.447   3.850   4.431 -0.0425  0.1350  0.1590
 6058SOL    HW118602   5.380   3.793   4.470 -0.3941  0.2878 -0.2125
 6058SOL    HW218603   5.397   3.920   4.389  0.3186 -0.0856 -0.6551
 6059SOL     OW18604   2.609   0.763   5.209  0.4116  0.4109 -0.3105
 6059SOL    HW118605   2.636   0.818   5.283  1.7236 -1.2406  0.5167
 6059SOL    HW218606   2.646   0.806   5.132  2.4587  0.1601  0.4420
 6060SOL     OW18607   0.869   1.086   4.301 -0.0543 -0.3023 -0.4290
 6060SOL    HW118608   0.835   1.072   4.389  0.1765 -0.2220 -0.3269
 6060SOL    HW218609   0.922   1.008   4.282  1.0511  0.2994  0.0567
 6061SOL     OW18610   2.693   3.217   1.770  0.3461  0.1420 -0.7177
 6061SOL    HW118611   2.715   3.126   1.792 -0.2655  0.1377 -0.0744
 6061SOL    HW218612   2.650   3.211   1.685  0.2113 -0.1900 -0.6304
 6062SOL     OW18613   5.520   5.928   5.361 -0.1916  0.3199  0.0938
 6062SOL    HW118614   5.537   5.883   5.279 -0.5954  0.6822 -0.1978
 6062SOL    HW218615   5.428   5.909   5.380  0.0866 -0.3174  0.8135
 6063SOL     OW18616   3.324   0.600   3.025 -0.9429  0.0629  0.3615
 6063SOL    HW118617   3.412   0.592   3.061 -1.5902  0.2056  2.0709
 6063SOL    HW218618   3.295   0.510   3.013 -2.2031 -0.2519  4.2139
 6064SOL     OW18619   2.895   5.551   1.522 -0.5279 -0.5792 -0.4825
 6064SOL    HW118620   2.933   5.637   1.538 -0.1011 -0.8880  0.2070
 6064SOL    HW218621   2.814   5.569   1.473 -1.4205  0.3563  1.2453
 6065SOL     OW18622   2.164   2.203   4.960 -0.4889  0.2889 -0.2313
 6065SOL    HW118623   2.205   2.254   5.030  0.9313 -0.2305 -0.6575
 6065SOL    HW218624   2.071   2.226   4.965 -0.0845  1.8909  0.4422
 6066SOL     OW18625   6.106   4.782   5.405  0.5648 -0.3553  0.3010
 6066SOL    HW118626   6.136   4.857   5.456  1.6624 -0.6694  0.1481
 6066SOL    HW218627   6.148   4.792   5.320  0.0526 -0.7013 -0.0024
 6067SOL     OW18628   1.077   5.565   0.162 -0.3282  0.4898 -0.0115
 6067SOL    HW118629   0.985   5.585   0.144 -0.6248  0.3088  1.2489
 6067SOL    HW218630   1.091   5.480   0.122 -0.7159  0.5033 -0.1814
 6068SOL     OW18631   0.745   6.122   5.879 -0.3379  0.3803 -0.5653
 6068SOL    HW118632   0.773   6.199   5.831 -0.0580 -0.0670 -1.1361
 6068SOL    HW218633   0.781   6.048   5.829  0.1457 -0.0887  0.4345
 6069SOL     OW18634   5.682   2.194   5.745 -0.2995 -0.2190 -0.1699
 6069SOL    HW118635   5.746   2.208   5.815  1.0574 -2.0610 -0.9816
 6069SOL    HW218636   5.607   2.154   5.790  0.0475 -0.2049  0.4373
 6070SOL     OW18637   3.838   5.218   3.019 -0.0538 -0.1948 -0.4717
 6070SOL    HW118638   3.880   5.301   3.039 -0.0549 -0.3983  0.3875
 6070SOL    HW218639   3.896   5.152   3.057 -0.0367 -0.5951 -1.1709
 6071SOL     OW18640   2.964   2.917   5.578  0.4542 -0.1602 -0.5359
 6071SOL    HW118641   2.883   2.958   5.550 -0.0753 -1.4404 -0.9345
 6071SOL    HW218642   2.965   2.832   5.534  1.0397 -0.9964  1.0003
 6072SOL     OW18643   2.681   1.535   4.017 -0.1434  0.5988 -0.1288
 6072SOL    HW118644   2.627   1.568   4.089  0.3530  0.2001  0.4374
 6072SOL    HW218645   2.738   1.608   3.994  0.2058  0.4940  0.3892
 6073SOL     OW18646   0.223   6.129   3.875  0.1495  0.5879  0.1290
 6073SOL    HW118647   0.272   6.065   3.824 -0.6015  1.6018 -1.9933
 6073SOL    HW218648   0.286   6.165   3.937  0.3996 -2.7229  2.0303
 6074SOL     OW18649   4.413   2.915   3.339  0.3673  0.3854  0.1062
 6074SOL    HW118650   4.408   2.994   3.285 -1.2576 -0.4068 -0.9730
 6074SOL    HW218651   4.410   2.843   3.277 -1.3093 -0.5632  1.2121
 6075SOL     OW18652   2.832   1.434   4.457 -0.2073 -0.0453 -0.0205
 6075SOL    HW118653   2.774   1.430   4.532  0.6960 -1.4904  0.6628
 6075SOL    HW218654   2.918   1.454   4.494  0.0676  0.2277 -0.7833
 6076SOL     OW18655   0.503   6.141   3.019 -0.3783  0.1947  0.3427
 6076SOL    HW118656   0.474   6.129   3.110  1.5937  0.1956  1.0125
 6076SOL    HW218657   0.460   6.221   2.990  1.1707  1.8360  2.2886
 6077SOL     OW18658   4.851   0.005   3.191 -0.0072  0.3720  0.0831
 6077SOL    HW118659   4.850   0.098   3.216 -1.9389 -0.1507  2.4060
 6077SOL    HW218660   4.944  -0.016   3.180  0.5354  2.3725  0.4331
 6078SOL     OW18661   3.821   5.524   4.444  0.6272  0.5832 -0.1465
 6078SOL    HW118662   3.785   5.437   4.426  0.7871  0.3967  0.4014
 6078SOL    HW218663   3.752   5.569   4.492  0.2583  1.0265 -1.0647
 6079SOL     OW18664   1.212   1.457   5.038  0.5644 -0.2620 -0.7018
 6079SOL    HW118665   1.134   1.447   4.983  1.4982 -0.2511 -2.0673
 6079SOL    HW218666   1.196   1.537   5.088 -0.4021 -0.3922 -0.7774
 6080SOL     OW18667   4.955   3.890   3.516 -0.2263  0.5324  0.7513
 6080SOL    HW118668   5.048   3.868   3.524  0.1564  2.1440  1.1552
 6080SOL    HW218669   4.937   3.946   3.592 -1.7332 -0.3542  1.0840
 6081SOL     OW18670   5.468   3.263   5.611  0.5014 -0.5783 -0.0891
 6081SOL    HW118671   5.385   3.264   5.658 -0.1840  0.8697 -1.2116
 6081SOL    HW218672   5.532   3.299   5.673 -0.1347  0.1668  0.1512
 6082SOL     OW18673   2.125   5.079   1.094  0.6676  0.3179 -0.0798
 6082SOL    HW118674   2.050   5.132   1.120 -0.2252 -0.6881 -0.5684
 6082SOL    HW218675   2.115   4.997   1.141  1.4332  0.1405 -0.2036
 6083SOL     OW18676   1.444   3.937   3.327 -0.5033  0.5670  0.2693
 6083SOL    HW118677   1.484   3.925   3.413 -1.5945 -0.0686  0.7072
 6083SOL    HW218678   1.452   3.852   3.285 -1.1364  0.5007  0.2645
 6084SOL     OW18679   2.495   0.384   4.092  0.0156  0.0784  0.1364
 6084SOL    HW118680   2.504   0.421   4.004  0.4800 -0.0086  0.1471
 6084SOL    HW218681   2.495   0.289   4.079 -1.3203  0.0652  0.0950
 6085SOL     OW18682   3.807   5.277   3.507  0.4472 -0.0143 -0.3875
 6085SOL    HW118683   3.805   5.236   3.594  0.2866  0.8425  0.0189
 6085SOL    HW218684   3.785   5.206   3.447  0.0463 -0.4998  0.3188
 6086SOL     OW18685   2.873   3.819   0.421 -0.1109 -0.3961 -0.0022
 6086SOL    HW118686   2.892   3.727   0.399 -1.0643 -1.0977  1.8921
 6086SOL    HW218687   2.792   3.815   0.471 -0.7687  1.6344 -0.8444
 6087SOL     OW18688   0.803   0.131   1.110 -0.2289  0.0297 -0.4636
 6087SOL    HW118689   0.708   0.125   1.115 -0.2139  0.5057  0.7306
 6087SOL    HW218690   0.834   0.052   1.155 -0.0364 -0.7803 -1.9497
 6088SOL     OW18691   3.943   2.419   3.495  0.1147 -0.1771  0.1890
 6088SOL    HW118692   3.978   2.334   3.522  0.7679  0.3540  1.0537
 6088SOL    HW218693   3.925   2.465   3.577  0.6799  0.8901 -0.2693
 6089SOL     OW18694   5.501   0.822   5.607 -0.2389 -0.2531 -0.0499
 6089SOL    HW118695   5.554   0.757   5.654  1.1633  1.1555  0.4255
 6089SOL    HW218696   5.410   0.796   5.623  0.1916 -0.3216  2.8016
 6090SOL     OW18697   0.851   3.549   4.661  0.0861 -0.1070 -0.5524
 6090SOL    HW118698   0.916   3.544   4.591  0.8837 -1.5463  0.2432
 6090SOL    HW218699   0.877   3.625   4.713  1.5159 -0.9782  0.0720
 6091SOL     OW18700   3.476   4.427   4.052 -0.0991  0.5126  0.2488
 6091SOL    HW118701   3.492   4.509   4.005  2.3502  0.0289  0.0922
 6091SOL    HW218702   3.480   4.359   3.984 -0.3601  0.1093  0.6309
 6092SOL     OW18703   6.047   3.477   3.478 -0.4087  0.4317 -1.0694
 6092SOL    HW118704   6.117   3.535   3.449  0.1926  0.6787  0.7877
 6092SOL    HW218705   5.966   3.521   3.450  0.0685  1.7352 -0.4585
 6093SOL     OW18706   2.580   0.559   2.265 -0.2621  0.2161 -0.0221
 6093SOL    HW118707   2.525   0.503   2.319  0.0312  0.4392  0.5220
 6093SOL    HW218708   2.653   0.584   2.322 -0.6580  1.5808 -0.0725
 6094SOL     OW18709   4.622   3.053   2.277  0.4843  0.0758 -0.3804
 6094SOL    HW118710   4.618   2.964   2.242  0.5064  0.4793 -1.4635
 6094SOL    HW218711   4.654   3.043   2.366  1.3638 -0.9338 -0.7936
 6095SOL     OW18712   4.208   2.547   0.991  0.5140 -0.3669  0.3871
 6095SOL    HW118713   4.287   2.595   0.967  0.2392  0.0846  0.3730
 6095SOL    HW218714   4.229   2.455   0.973  1.3887 -0.3689  1.3611
 6096SOL     OW18715   5.045   3.825   4.654  0.0388  0.9638  0.1335
 6096SOL    HW118716   4.959   3.817   4.694 -0.1238  0.8712 -0.2247
 6096SOL    HW218717   5.046   3.759   4.585  0.0168  1.6150 -0.5158
 6097SOL     OW18718   0.848   1.303   4.170  0.0626  0.0809 -0.1028
 6097SOL    HW118719   0.788   1.346   4.230  1.0819 -0.4059  1.3071
 6097SOL    HW218720   0.877   1.224   4.216  0.8411 -0.3272 -1.2418
 6098SOL     OW18721   3.610   1.778   4.100 -0.6293 -0.0534  0.3762
 6098SOL    HW118722   3.695   1.803   4.064 -1.3179  1.4297 -0.2910
 6098SOL    HW218723   3.628   1.756   4.192  0.3765  0.8286  0.4062
 6099SOL     OW18724   5.415   2.535   0.662  0.1764 -0.3980 -0.0998
 6099SOL    HW118725   5.490   2.565   0.713  0.8829 -1.1030 -0.7096
 6099SOL    HW218726   5.382   2.614   0.619 -0.3549  0.1897  1.3056
 6100SOL     OW18727   3.575   3.018   4.246  0.2174  0.4105 -0.4599
 6100SOL    HW118728   3.644   2.980   4.191 -0.3111  1.6093 -2.0173
 6100SOL    HW218729   3.608   3.105   4.268 -0.0855  0.3651  0.1923
 6101SOL     OW18730   5.318   0.622   2.031 -0.1469 -0.0119 -0.1487
 6101SOL    HW118731   5.237   0.659   1.998 -0.6111  0.1564  1.1212
 6101SOL    HW218732   5.364   0.696   2.071 -1.2221 -0.7441  2.6903
 6102SOL     OW18733   3.429   4.861   5.394 -0.1498  0.0503 -0.0193
 6102SOL    HW118734   3.490   4.830   5.327 -0.4585 -0.9847  0.1491
 6102SOL    HW218735   3.461   4.947   5.418  1.8271 -0.8323  0.7487
 6103SOL     OW18736   5.562   4.873   5.204  0.0168  0.0333 -0.1768
 6103SOL    HW118737   5.569   4.800   5.144 -0.7265 -0.7598  0.6705
 6103SOL    HW218738   5.468   4.886   5.215 -0.0621 -2.2982  3.6444
 6104SOL     OW18739   5.732   5.962   4.757 -0.7407  0.1403  0.1323
 6104SOL    HW118740   5.684   5.949   4.839 -0.1803  1.3176  0.6746
 6104SOL    HW218741   5.668   6.003   4.699 -0.7890  0.4881  0.4202
 6105SOL     OW18742   4.674   6.225   4.701  0.2574 -0.0989 -0.1436
 6105SOL    HW118743   4.710   6.282   4.769  0.6179  0.4688 -0.7933
 6105SOL    HW218744   4.588   6.263   4.683 -0.2102 -0.7821  0.6164
 6106SOL     OW18745   0.921   4.646   4.596  0.0620  0.0296 -0.4998
 6106SOL    HW118746   0.928   4.688   4.510  0.3840  0.4953 -0.2480
 6106SOL    HW218747   0.986   4.690   4.650  0.5727 -0.9601 -0.2912
 6107SOL     OW18748   2.763   1.718   3.066 -0.2286  0.0359 -0.5961
 6107SOL    HW118749   2.838   1.661   3.047  0.5385  1.3102 -1.5885
 6107SOL    HW218750   2.802   1.805   3.073 -1.4073  0.4942  0.6200
 6108SOL     OW18751   4.072   3.840   6.155 -0.2139  0.3105  0.4124
 6108SOL    HW118752   4.112   3.873   6.236  0.2774  0.9986 -0.1114
 6108SOL    HW218753   4.080   3.745   6.162 -0.5718  0.3374  1.3738
 6109SOL     OW18754   0.649   3.393   1.234 -0.4131  0.2752 -0.3159
 6109SOL    HW118755   0.559   3.364   1.222  0.4957 -2.4306 -1.4973
 6109SOL    HW218756   0.662   3.392   1.329 -1.0794 -1.3218 -0.2086
 6110SOL     OW18757   4.248   4.642   2.448 -0.0767 -0.4614 -0.6046
 6110SOL    HW118758   4.166   4.673   2.485  0.7981  1.1718  0.0688
 6110SOL    HW218759   4.276   4.712   2.389  1.2405 -0.6030 -0.1784
 6111SOL     OW18760   2.807   5.754   1.075  0.1628  0.4979  0.3060
 6111SOL    HW118761   2.885   5.728   1.125  0.2017  0.8146  0.4115
 6111SOL    HW218762   2.734   5.731   1.133  0.1530 -0.2689 -0.0042
 6112SOL     OW18763   4.636   0.658   1.078 -0.5668 -0.1111 -0.5751
 6112SOL    HW118764   4.666   0.622   0.995 -1.8379 -0.6267 -0.8333
 6112SOL    HW218765   4.541   0.659   1.071 -0.8314 -2.0532  1.6231
 6113SOL     OW18766   0.621   0.709   2.570  0.1939 -0.0633 -0.1586
 6113SOL    HW118767   0.595   0.697   2.478  0.3912 -0.3187 -0.1827
 6113SOL    HW218768   0.714   0.734   2.565  1.1671 -3.2411  0.0934
 6114SOL     OW18769   1.157   0.469   2.459  0.7621 -0.5146  0.1963
 6114SOL    HW118770   1.229   0.486   2.398  0.4901 -0.7593 -0.1995
 6114SOL    HW218771   1.185   0.508   2.542 -0.1700  2.7013 -0.8363
 6115SOL     OW18772   2.127   3.695   0.743  0.3510  0.0402  0.1710
 6115SOL    HW118773   2.140   3.654   0.829 -0.0191  3.0693  1.8089
 6115SOL    HW218774   2.118   3.788   0.762  1.1152  0.9689 -3.2757
 6116SOL     OW18775   0.776   5.676   0.424  0.0496  0.5496 -0.5509
 6116SOL    HW118776   0.725   5.752   0.454 -0.7209  0.7830 -2.3237
 6116SOL    HW218777   0.838   5.659   0.495 -3.1252 -0.3899  2.2589
 6117SOL     OW18778   3.510   3.091   2.830  0.5365 -0.2411 -0.3175
 6117SOL    HW118779   3.497   3.081   2.735 -0.9711  1.6522 -0.3697
 6117SOL    HW218780   3.479   3.008   2.867 -1.2201 -0.0975 -1.3447
 6118SOL     OW18781   3.575   1.813   4.701  0.1478  0.5993  0.3250
 6118SOL    HW118782   3.579   1.730   4.654  3.4649  0.7058  0.1622
 6118SOL    HW218783   3.554   1.878   4.635  0.9427  0.2603 -0.2835
 6119SOL     OW18784   1.890   0.987   6.192  0.5553 -0.4470  0.1933
 6119SOL    HW118785   1.861   1.030   6.112  1.2473  3.1764  1.6985
 6119SOL    HW218786   1.815   0.995   6.251  1.6504  1.5251  1.4346
 6120SOL     OW18787   3.203   3.536   1.784 -0.2217  0.0970 -0.0391
 6120SOL    HW118788   3.158   3.556   1.702  1.1614 -1.6954 -1.3310
 6120SOL    HW218789   3.273   3.477   1.758 -0.3637 -1.3659  2.5898
 6121SOL     OW18790   2.715   2.146   4.857  0.3991 -0.2277  0.1714
 6121SOL    HW118791   2.625   2.168   4.836 -0.4037 -2.0248  1.5097
 6121SOL    HW218792   2.720   2.051   4.851  1.3768 -0.4446  2.9598
 6122SOL     OW18793   3.409   3.587   5.062 -0.1872 -0.3151 -0.3104
 6122SOL    HW118794   3.469   3.660   5.077  0.7403 -0.3681 -3.1167
 6122SOL    HW218795   3.322   3.625   5.074  0.3106  0.9014 -0.3757
 6123SOL     OW18796   3.399   6.117   1.708  0.3720 -0.6502  0.5652
 6123SOL    HW118797   3.326   6.166   1.746  0.8731  0.3518  0.2784
 6123SOL    HW218798   3.444   6.078   1.783  0.6804  0.3585  0.9176
 6124SOL     OW18799   5.927   6.052   3.355  0.3821 -0.5953 -0.3312
 6124SOL    HW118800   5.918   6.071   3.261  0.5335  2.3340  0.1670
 6124SOL    HW218801   6.020   6.069   3.374  0.6380 -2.3686  0.1570
 6125SOL     OW18802   6.058   0.510   0.699  0.1055 -0.2061 -0.2032
 6125SOL    HW118803   5.977   0.459   0.690  0.9351 -1.3794 -1.3798
 6125SOL    HW218804   6.115   0.455   0.753  1.0119 -0.5782 -1.4854
 6126SOL     OW18805   1.591   3.684   4.729  0.4220  0.2514 -0.5857
 6126SOL    HW118806   1.677   3.669   4.689 -0.5809 -0.8669 -2.4946
 6126SOL    HW218807   1.591   3.629   4.807  1.1984 -0.2893 -0.9519
 6127SOL     OW18808   4.584   3.832   1.632  0.0118  0.5687  0.6206
 6127SOL    HW118809   4.555   3.880   1.710 -1.0625  0.4354  0.3194
 6127SOL    HW218810   4.503   3.806   1.589  0.5936 -0.3897  0.0833
 6128SOL     OW18811   4.243   3.674   2.433 -0.1741 -0.4780 -0.0005
 6128SOL    HW118812   4.316   3.699   2.490  0.1803  2.0665 -1.4190
 6128SOL    HW218813   4.166   3.714   2.475 -0.3454 -0.9467  0.1336
 6129SOL     OW18814   4.211   4.205   0.598  0.0759 -0.2008 -0.8222
 6129SOL    HW118815   4.243   4.237   0.683  0.5950  1.2035 -1.5229
 6129SOL    HW218816   4.123   4.172   0.617  1.5687 -3.6044  1.0398
 6130SOL     OW18817   5.281   1.263   5.272  1.2544  0.4742 -0.3760
 6130SOL    HW118818   5.368   1.222   5.270 -0.2599 -3.1951 -0.6456
 6130SOL    HW218819   5.255   1.268   5.180  0.3377 -0.7488 -0.2219
 6131SOL     OW18820   1.908   2.339   4.357  1.0186  0.1907 -0.5092
 6131SOL    HW118821   1.928   2.277   4.286  2.7450 -0.2055  0.2784
 6131SOL    HW218822   1.851   2.290   4.416  2.5759 -0.8190  0.2447
 6132SOL     OW18823   2.502   4.533   1.471 -0.2576  0.5851  0.2569
 6132SOL    HW118824   2.511   4.601   1.537 -1.2550  0.6998  0.2853
 6132SOL    HW218825   2.511   4.451   1.520  1.1014  0.6732  0.1971
 6133SOL     OW18826   3.565   5.818   0.936 -0.1483  0.2868 -0.5102
 6133SOL    HW118827   3.526   5.731   0.947 -0.2929  0.5109  1.0623
 6133SOL    HW218828   3.659   5.803   0.934  0.1249  0.2794  3.6258
 6134SOL     OW18829   0.155   3.676   2.206 -0.0281  0.2077  0.1242
 6134SOL    HW118830   0.230   3.734   2.216  0.7325 -0.3515 -1.7900
 6134SOL    HW218831   0.174   3.602   2.265 -0.1104  1.0207  1.1943
 6135SOL     OW18832   6.051   2.102   5.699 -0.5058  0.3082 -0.2103
 6135SOL    HW118833   6.002   2.021   5.709  0.6478 -0.2160  1.7616
 6135SOL    HW218834   6.121   2.097   5.765 -0.6898  3.1030  0.3565
 6136SOL     OW18835   1.956   0.795   5.779 -0.1737  0.4174 -0.2267
 6136SOL    HW118836   1.932   0.771   5.868  0.1165  1.5225  0.1664
 6136SOL    HW218837   1.873   0.790   5.730 -0.2310 -0.7584 -0.0522
 6137SOL     OW18838   0.639   2.502   4.014  0.1386  0.3940  0.1128
 6137SOL    HW118839   0.703   2.449   4.059 -2.4015 -0.6666  2.7657
 6137SOL    HW218840   0.593   2.441   3.956  1.5214  1.1809 -1.9152
 6138SOL     OW18841   0.648   4.196   6.093 -0.3679 -0.2963 -0.0208
 6138SOL    HW118842   0.582   4.135   6.124 -0.2098  0.2515  1.4344
 6138SOL    HW218843   0.604   4.245   6.023 -1.4425 -0.0648  0.8001
 6139SOL     OW18844   2.123   4.330   1.319  0.2265  0.0513  0.0811
 6139SOL    HW118845   2.065   4.333   1.243  0.7969  1.2184 -0.3235
 6139SOL    HW218846   2.086   4.261   1.374 -1.0155  0.1448 -0.5955
 6140SOL     OW18847   1.306   0.431   5.164 -0.8719  0.2604  0.0049
 6140SOL    HW118848   1.331   0.338   5.171 -0.1460  0.3842 -0.7800
 6140SOL    HW218849   1.211   0.429   5.152 -0.5585 -0.5817 -3.1172
 6141SOL     OW18850   0.323   4.748   0.726  0.0875  0.2040  1.0038
 6141SOL    HW118851   0.280   4.727   0.809  0.8687 -1.0085  1.1259
 6141SOL    HW218852   0.400   4.799   0.750  0.3068 -0.1359  1.0211
 6142SOL     OW18853   5.296   6.122   5.192  0.0466  0.0941 -0.2165
 6142SOL    HW118854   5.289   6.188   5.261  1.2247 -0.8877  0.9142
 6142SOL    HW218855   5.216   6.131   5.141 -1.3068  0.2844  1.8234
 6143SOL     OW18856   0.499   2.848   5.405  0.1958 -0.1066  0.2371
 6143SOL    HW118857   0.556   2.923   5.420  1.2929 -0.9804  0.6238
 6143SOL    HW218858   0.411   2.879   5.426  0.5128  1.2787 -0.3929
 6144SOL     OW18859   5.814   4.485   3.210  0.4964  0.2321  0.3913
 6144SOL    HW118860   5.801   4.451   3.121 -0.7576  2.1791 -0.2526
 6144SOL    HW218861   5.735   4.459   3.257  1.3929 -1.2525  1.1415
 6145SOL     OW18862   5.551   1.870   0.096  0.2910  0.4220  0.2716
 6145SOL    HW118863   5.567   1.776   0.092  1.1869  0.3875  2.6850
 6145SOL    HW218864   5.563   1.901   0.006  1.5552 -1.5448 -0.2870
 6146SOL     OW18865   5.066   4.780   1.973 -0.0702 -0.1787 -0.4482
 6146SOL    HW118866   5.001   4.727   1.928 -0.5990 -0.7373  0.9160
 6146SOL    HW218867   5.051   4.763   2.066  0.1075  1.9363  0.0189
 6147SOL     OW18868   5.447   2.761   0.432  0.0062  0.1153  0.1813
 6147SOL    HW118869   5.490   2.703   0.370  0.5626 -1.5201  2.0125
 6147SOL    HW218870   5.509   2.834   0.444  0.4817 -0.2243 -0.1737
 6148SOL     OW18871   0.951   0.607   6.029  0.2558 -0.0623  0.1980
 6148SOL    HW118872   0.878   0.575   5.976  1.6042  2.2758 -3.4263
 6148SOL    HW218873   1.025   0.550   6.004  0.5565  0.0303  0.8568
 6149SOL     OW18874   5.826   3.691   1.585  0.1006 -0.0277 -0.5216
 6149SOL    HW118875   5.802   3.663   1.674  1.5469 -0.5006 -0.2380
 6149SOL    HW218876   5.871   3.774   1.598 -0.9219  0.5983 -0.9713
 6150SOL     OW18877   5.793   4.575   3.605  0.3642  0.3621  0.0312
 6150SOL    HW118878   5.862   4.565   3.670  0.6173  1.1452 -0.1155
 6150SOL    HW218879   5.734   4.502   3.622 -0.5640  1.5562  2.3382
 6151SOL     OW18880   0.220   1.946   1.145  0.3878  0.0730 -0.0136
 6151SOL    HW118881   0.135   1.901   1.146  0.8665 -0.8636 -0.0445
 6151SOL    HW218882   0.207   2.022   1.202 -0.4518 -0.0974  0.0409
 6152SOL     OW18883   2.605   4.946   3.603  0.3891  0.1367 -0.9231
 6152SOL    HW118884   2.685   4.894   3.603  0.7308  0.6186  0.6687
 6152SOL    HW218885   2.555   4.914   3.527  1.3927 -1.2105 -1.0403
 6153SOL     OW18886   4.407   2.500   0.265 -0.0046  0.2568  0.4237
 6153SOL    HW118887   4.341   2.570   0.264  1.1807  1.4783  1.5389
 6153SOL    HW218888   4.490   2.547   0.269  0.9528 -1.2371 -0.9677
 6154SOL     OW18889   3.732   4.981   2.752  0.7950  0.4734 -0.3624
 6154SOL    HW118890   3.686   4.908   2.794 -2.9449  1.5936 -2.1045
 6154SOL    HW218891   3.764   4.945   2.669  1.9883  0.0290  0.2670
 6155SOL     OW18892   5.330   4.905   6.210  0.1307 -0.4882  0.0566
 6155SOL    HW118893   5.267   4.835   6.189 -2.8143  1.3115  2.0762
 6155SOL    HW218894   5.302   4.979   6.156  0.1403  0.5233  1.3989
 6156SOL     OW18895   0.772   5.509   3.409 -0.6009 -0.0801 -0.7109
 6156SOL    HW118896   0.798   5.591   3.450  0.5760  0.0949 -1.7759
 6156SOL    HW218897   0.740   5.534   3.322 -5.4872 -0.1196  0.7407
 6157SOL     OW18898   1.941   4.493   4.759  0.2711  0.0623  0.0358
 6157SOL    HW118899   1.858   4.447   4.774 -0.0766  0.9676  1.0241
 6157SOL    HW218900   1.990   4.435   4.701 -0.8464 -0.7305 -0.1584
 6158SOL     OW18901   1.930   4.975   1.688  0.6316  0.1803 -0.3709
 6158SOL    HW118902   1.842   4.974   1.650  0.3176  2.8909  0.0776
 6158SOL    HW218903   1.923   4.918   1.765 -1.7619  2.7222  1.5051
 6159SOL     OW18904   3.797   1.469   3.893  0.3021  0.3309 -0.0073
 6159SOL    HW118905   3.820   1.548   3.844 -0.8798  0.8198  0.1922
 6159SOL    HW218906   3.709   1.487   3.928  0.6575 -0.4515  1.3532
 6160SOL     OW18907   3.593   2.769   2.659  0.3296 -0.2625  0.3214
 6160SOL    HW118908   3.499   2.788   2.658  0.5557  0.8828 -0.3108
 6160SOL    HW218909   3.609   2.734   2.747 -0.7298 -0.7696  0.3331
 6161SOL     OW18910   6.106   5.484   3.040  0.3588 -0.1880 -0.0731
 6161SOL    HW118911   6.091   5.563   3.092 -0.5756  0.0170 -0.6206
 6161SOL    HW218912   6.026   5.474   2.988 -0.0974 -2.2180  0.9153
 6162SOL     OW18913   4.193   2.812   4.398  0.2293 -0.6308  0.1487
 6162SOL    HW118914   4.269   2.869   4.385 -0.3479  0.0038 -0.5465
 6162SOL    HW218915   4.152   2.844   4.479  0.2776 -0.4826  0.1142
 6163SOL     OW18916   2.200   5.502   1.828 -0.5278  0.5610 -0.4304
 6163SOL    HW118917   2.222   5.426   1.882  0.3691  1.5601  0.6549
 6163SOL    HW218918   2.106   5.513   1.839 -0.5794 -0.0745 -0.1813
 6164SOL     OW18919   2.972   1.274   0.169  0.3647 -0.3229  0.4592
 6164SOL    HW118920   2.977   1.354   0.116 -0.0517 -0.4338  0.2473
 6164SOL    HW218921   3.052   1.226   0.149  1.2665  0.6500  1.5772
 6165SOL     OW18922   4.041   3.241   0.198  0.1864 -0.1749 -0.2194
 6165SOL    HW118923   4.112   3.297   0.229 -0.2642  0.3525 -0.1166
 6165SOL    HW218924   3.965   3.299   0.194 -0.3528 -0.8430  0.1413
 6166SOL     OW18925   4.457   4.884   4.374  0.3884  0.4417  0.2181
 6166SOL    HW118926   4.484   4.799   4.409  1.4075  0.3591 -0.7196
 6166SOL    HW218927   4.408   4.925   4.445  0.1057 -0.8182  0.7798
 6167SOL     OW18928   4.849   5.126   3.612 -0.0011  0.5267 -0.8467
 6167SOL    HW118929   4.819   5.082   3.692 -1.6301  2.6068 -0.1967
 6167SOL    HW218930   4.929   5.172   3.639  0.5455 -0.3480 -0.9639
 6168SOL     OW18931   1.496   4.032   5.648 -0.0614 -0.4706  0.2721
 6168SOL    HW118932   1.438   4.054   5.576  0.5668  0.3017 -0.0048
 6168SOL    HW218933   1.499   4.110   5.703  1.2878 -0.2225 -0.1083
 6169SOL     OW18934   5.019   3.569   6.148  0.3397 -0.4839  0.0254
 6169SOL    HW118935   5.014   3.632   6.076  1.5189  0.5612  0.8219
 6169SOL    HW218936   5.112   3.562   6.167  0.0235 -0.4345  1.7158
 6170SOL     OW18937   2.736   0.389   3.477  0.0574 -0.1663 -0.2861
 6170SOL    HW118938   2.770   0.378   3.566 -1.8632 -2.3557  0.2708
 6170SOL    HW218939   2.785   0.326   3.425 -1.0699 -1.2577 -0.0661
 6171SOL     OW18940   3.386   5.030   5.839 -0.6310 -0.0234 -0.1927
 6171SOL    HW118941   3.480   5.036   5.824 -0.2631  0.8594  2.0879
 6171SOL    HW218942   3.377   4.973   5.915 -1.4813  3.5077  2.6424
 6172SOL     OW18943   2.753   3.188   3.081  0.3124 -0.3325 -0.3250
 6172SOL    HW118944   2.828   3.193   3.022  0.3807 -0.3330 -0.2367
 6172SOL    HW218945   2.685   3.145   3.028  0.8397 -1.7214  0.0656
 6173SOL     OW18946   4.551   0.744   5.525  0.6297  0.4507 -0.1658
 6173SOL    HW118947   4.598   0.733   5.607 -0.6687 -0.2042  0.5325
 6173SOL    HW218948   4.618   0.735   5.457  1.5551 -0.0972  0.7874
 6174SOL     OW18949   1.981   5.021   2.795  0.4346 -0.9744 -0.2483
 6174SOL    HW118950   2.023   4.935   2.782  1.6536 -0.2292 -1.5437
 6174SOL    HW218951   1.974   5.058   2.707  0.9467  0.7149  0.3833
 6175SOL     OW18952   2.730   4.563   2.386 -0.4368 -0.4605 -0.1572
 6175SOL    HW118953   2.822   4.541   2.370 -0.3725 -0.3829  0.1039
 6175SOL    HW218954   2.712   4.529   2.474 -0.0188  1.4494  0.7312
 6176SOL     OW18955   6.150   5.322   4.736 -0.1124  0.7795 -0.7518
 6176SOL    HW118956   6.070   5.323   4.683 -1.9518  0.1547  1.8381
 6176SOL    HW218957   6.152   5.408   4.778  0.4113  0.6871 -0.5858
 6177SOL     OW18958   2.460   2.416   2.248 -0.0558  0.5538 -0.0991
 6177SOL    HW118959   2.416   2.496   2.278  1.8033  1.3210  0.7285
 6177SOL    HW218960   2.414   2.345   2.293 -1.2682  1.1820 -0.2912
 6178SOL     OW18961   5.573   3.545   3.629 -0.0974 -0.3543 -0.2002
 6178SOL    HW118962   5.654   3.574   3.588  0.4456 -0.8111  0.5013
 6178SOL    HW218963   5.597   3.463   3.674 -1.1798 -1.0281 -0.7934
 6179SOL     OW18964   3.540   0.215   3.742  0.2813  0.4078  0.2990
 6179SOL    HW118965   3.540   0.230   3.836 -0.1045 -0.3893  0.4363
 6179SOL    HW218966   3.463   0.262   3.710  1.9002  2.9972 -0.0446
 6180SOL     OW18967   1.504   1.343   1.602 -0.1393  0.4094 -0.7703
 6180SOL    HW118968   1.463   1.364   1.518  0.4347  0.4325 -1.0548
 6180SOL    HW218969   1.462   1.261   1.630 -1.1483  0.9999 -0.5101
 6181SOL     OW18970   6.101   1.201   4.678 -0.8269 -0.3887 -0.1139
 6181SOL    HW118971   6.156   1.247   4.614 -1.3168 -0.7470 -0.8181
 6181SOL    HW218972   6.144   1.214   4.762 -0.6823  0.9213 -0.3724
 6182SOL     OW18973   3.609   2.627   0.124 -0.9279 -0.3178  0.2682
 6182SOL    HW118974   3.572   2.619   0.212  0.2673 -2.0302  0.6619
 6182SOL    HW218975   3.539   2.597   0.066 -1.3503 -0.2240  0.7201
 6183SOL     OW18976   5.492   3.141   4.038 -0.0482 -0.0444 -0.1251
 6183SOL    HW118977   5.441   3.218   4.064  0.9036  0.9996 -1.2023
 6183SOL    HW218978   5.469   3.127   3.946 -1.3516 -2.0213  0.4339
 6184SOL     OW18979   6.056   2.989   4.954  0.4416  0.2459 -0.3123
 6184SOL    HW118980   6.075   2.899   4.928  1.6475  0.7771 -1.3429
 6184SOL    HW218981   6.140   3.033   4.952 -0.2391  1.5884 -0.5458
 6185SOL     OW18982   0.159   3.825   3.570 -0.1051  0.7690 -0.1026
 6185SOL    HW118983   0.214   3.895   3.535  0.9070 -0.0493 -0.2030
 6185SOL    HW218984   0.201   3.744   3.541 -2.5071  0.0584 -1.9796
 6186SOL     OW18985   2.182   4.430   3.122 -0.5770 -0.0595 -0.2950
 6186SOL    HW118986   2.275   4.407   3.120 -1.2148 -3.0623 -0.7006
 6186SOL    HW218987   2.175   4.498   3.189  1.9713  0.7484 -0.7533
 6187SOL     OW18988   0.823   2.669   5.789  0.3082  0.1182  0.1012
 6187SOL    HW118989   0.779   2.680   5.704  2.2344 -1.4462 -1.1938
 6187SOL    HW218990   0.836   2.758   5.821 -1.1799  0.7095 -0.8476
 6188SOL     OW18991   5.549   0.823   3.237 -0.3546 -0.0801  0.3244
 6188SOL    HW118992   5.564   0.804   3.329  0.9613 -1.4609 -0.1288
 6188SOL    HW218993   5.485   0.758   3.209  0.2004 -0.4846 -0.0189
 6189SOL     OW18994   0.286   1.936   5.171 -0.2643  0.0117  0.1328
 6189SOL    HW118995   0.298   1.937   5.265 -2.5714  0.3967  0.4915
 6189SOL    HW218996   0.211   1.878   5.156 -1.1096  1.3545 -1.2384
 6190SOL     OW18997   0.490   4.459   2.414  0.2680 -0.2065  0.5395
 6190SOL    HW118998   0.441   4.507   2.481  0.2845  0.4540  0.0878
 6190SOL    HW218999   0.545   4.398   2.463  1.0394  0.9766  1.1803
 6191SOL     OW19000   0.491   3.501   1.628 -0.3022  0.1801 -0.1596
 6191SOL    HW119001   0.494   3.493   1.723 -1.9999  0.2937 -0.0653
 6191SOL    HW219002   0.498   3.595   1.611  2.8201  0.0007 -0.3479
 6192SOL     OW19003   3.631   1.552   5.728 -0.4251  0.2522 -0.2547
 6192SOL    HW119004   3.668   1.595   5.805 -2.2947  0.7336  0.4155
 6192SOL    HW219005   3.684   1.473   5.717  0.5077  0.6898  0.8915
 6193SOL     OW19006   3.028   2.719   4.472  0.0451  0.0700 -0.4639
 6193SOL    HW119007   3.087   2.742   4.399 -0.3348  1.7412 -0.2897
 6193SOL    HW219008   2.943   2.755   4.446 -0.4960 -0.7775  0.0838
 6194SOL     OW19009   0.962   3.403   5.440 -0.1465  0.2895  0.3964
 6194SOL    HW119010   0.971   3.406   5.535 -1.2588 -0.1539  0.5340
 6194SOL    HW219011   0.873   3.434   5.423 -0.4306 -0.8778 -0.3894
 6195SOL     OW19012   1.457   4.196   4.409  0.2931 -0.1354 -0.0079
 6195SOL    HW119013   1.425   4.109   4.388  0.4922  0.3566 -2.7775
 6195SOL    HW219014   1.539   4.181   4.457 -1.8042 -1.3686  3.4817
 6196SOL     OW19015   2.601   3.884   5.866  0.2145 -0.0484  0.1784
 6196SOL    HW119016   2.606   3.796   5.903  0.1185  0.1731  0.7274
 6196SOL    HW219017   2.685   3.925   5.889 -0.9652  1.1398  2.9039
 6197SOL     OW19018   2.792   1.699   1.048  0.0314 -0.2520  0.1310
 6197SOL    HW119019   2.852   1.772   1.061 -0.7654  0.1784  1.6118
 6197SOL    HW219020   2.828   1.651   0.973  1.0141  1.1863 -0.3561
 6198SOL     OW19021   3.819   0.469   5.019  0.4962  0.1818 -0.3677
 6198SOL    HW119022   3.786   0.423   5.096 -0.5011  0.6502 -0.5060
 6198SOL    HW219023   3.884   0.529   5.054 -0.3273  0.7671  0.1890
 6199SOL     OW19024   3.627   2.922   5.180 -0.2970 -0.2963 -0.3481
 6199SOL    HW119025   3.532   2.931   5.174 -0.1683  1.1602 -0.5975
 6199SOL    HW219026   3.641   2.847   5.238 -1.6172  1.6190  2.6890
 6200SOL     OW19027   3.089   2.383   2.595  0.4707 -0.1989 -0.6176
 6200SOL    HW119028   3.184   2.381   2.580  0.4048 -0.4205 -1.0321
 6200SOL    HW219029   3.058   2.455   2.540  0.3088 -0.5768 -1.0170
 6201SOL     OW19030   1.377   5.290   5.998 -0.0560 -0.3420  0.1402
 6201SOL    HW119031   1.285   5.296   5.971 -0.0621  0.1426  0.2594
 6201SOL    HW219032   1.375   5.301   6.093 -0.1625 -3.3905  0.5703
 6202SOL     OW19033   2.788   2.658   1.520  0.0014  0.2388  0.1688
 6202SOL    HW119034   2.866   2.662   1.465  0.8458  2.1259  1.3960
 6202SOL    HW219035   2.748   2.745   1.510 -2.2235 -0.8255 -0.7661
 6203SOL     OW19036   1.793   5.612   3.870  0.0706 -0.8391  0.1451
 6203SOL    HW119037   1.759   5.689   3.825 -1.0327 -0.5444  1.4338
 6203SOL    HW219038   1.734   5.541   3.844 -0.5879 -0.6624  1.1067
 6204SOL     OW19039   0.990   0.332   5.785  0.7072  0.5883  0.1709
 6204SOL    HW119040   1.073   0.283   5.782 -0.9696 -2.5454  0.5200
 6204SOL    HW219041   0.996   0.385   5.864  2.4342  0.6059  0.0689
 6205SOL     OW19042   6.005   3.164   1.808 -0.2770  0.2104  0.0570
 6205SOL    HW119043   5.967   3.157   1.896 -0.1208  1.0651  0.1967
 6205SOL    HW219044   6.098   3.145   1.821 -0.2370  0.4321  0.0868
 6206SOL     OW19045   5.672   2.462   6.184 -0.0538  0.6543 -0.3600
 6206SOL    HW119046   5.754   2.474   6.137 -0.8955  1.7754 -1.6301
 6206SOL    HW219047   5.664   2.541   6.238  0.8267 -0.5477  1.6283
 6207SOL     OW19048   3.605   4.742   0.550  0.2199  0.2913  0.4290
 6207SOL    HW119049   3.669   4.813   0.561  0.2569  0.1339  1.2972
 6207SOL    HW219050   3.524   4.787   0.523  0.0742  0.7567  1.5485
 6208SOL     OW19051   3.199   0.618   4.748  0.1174  0.4217 -0.5762
 6208SOL    HW119052   3.258   0.560   4.796  1.3138  0.7684 -1.5976
 6208SOL    HW219053   3.196   0.698   4.801  0.8660  0.5384 -0.7012
 6209SOL     OW19054   4.755   5.294   4.261  0.2983 -0.0889 -0.0426
 6209SOL    HW119055   4.814   5.324   4.192 -0.4071 -1.7647 -1.4633
 6209SOL    HW219056   4.695   5.367   4.275 -1.1204 -0.5028 -3.0713
 6210SOL     OW19057   1.347   2.810   0.781 -0.0454 -0.0861  0.2604
 6210SOL    HW119058   1.308   2.748   0.843 -1.6883 -0.5536 -1.1439
 6210SOL    HW219059   1.285   2.813   0.708  2.2003 -0.2062 -1.7781
 6211SOL     OW19060   4.701   0.263   2.448  0.0585  0.0782  0.0812
 6211SOL    HW119061   4.654   0.184   2.422  1.7553 -0.5732 -1.1362
 6211SOL    HW219062   4.703   0.317   2.369 -1.8681  1.8247  1.1160
 6212SOL     OW19063   0.882   3.375   2.305  0.0648  0.1518  0.0420
 6212SOL    HW119064   0.895   3.438   2.234 -0.2018  0.6926  0.4741
 6212SOL    HW219065   0.911   3.421   2.384  0.0167 -0.3198  0.3382
 6213SOL     OW19066   3.315   2.726   1.144  0.5578  0.0869 -0.1482
 6213SOL    HW119067   3.367   2.705   1.067  1.2111 -0.8173  0.5157
 6213SOL    HW219068   3.365   2.690   1.217 -1.5328 -1.8365  0.4361
 6214SOL     OW19069   0.800   2.587   1.798  0.4111  0.7489  0.3755
 6214SOL    HW119070   0.858   2.529   1.846 -0.3885  0.9600  1.6350
 6214SOL    HW219071   0.837   2.674   1.810  0.7168  0.7018 -0.1753
 6215SOL     OW19072   2.196   1.632   4.516  0.0926  0.3605  0.3277
 6215SOL    HW119073   2.232   1.647   4.429 -0.4097 -0.0773  0.0384
 6215SOL    HW219074   2.273   1.623   4.573  0.4466 -0.5534 -0.2696
 6216SOL     OW19075   1.211   4.276   1.525 -0.2736 -0.0215 -0.2568
 6216SOL    HW119076   1.171   4.253   1.609 -2.0148 -2.2000 -1.5831
 6216SOL    HW219077   1.288   4.220   1.519  0.2658  0.6608  0.1788
 6217SOL     OW19078   0.615   2.727   0.765  0.2029 -0.2809 -0.2655
 6217SOL    HW119079   0.578   2.642   0.742  0.3153 -0.4096  0.0209
 6217SOL    HW219080   0.644   2.765   0.681 -0.1872 -0.3622 -0.4352
 6218SOL     OW19081   1.349   1.373   3.663 -0.2555  0.1306 -0.3178
 6218SOL    HW119082   1.261   1.369   3.626  0.5634  1.8968 -2.7193
 6218SOL    HW219083   1.344   1.441   3.730 -0.3252  1.7730 -1.9099
 6219SOL     OW19084   1.615   3.519   2.098  0.3766  0.2956  0.0179
 6219SOL    HW119085   1.696   3.470   2.081 -0.7693 -1.0166 -2.1002
 6219SOL    HW219086   1.569   3.519   2.014 -1.5585  1.5305  1.0135
 6220SOL     OW19087   3.135   1.668   5.446  0.1834 -0.0200  0.2000
 6220SOL    HW119088   3.066   1.630   5.501  1.3204  0.6905  2.2019
 6220SOL    HW219089   3.111   1.760   5.439  0.3117 -0.0092 -0.0798
 6221SOL     OW19090   0.587   0.007   4.246 -0.7412  0.3618  0.6004
 6221SOL    HW119091   0.675   0.001   4.282 -0.4021  1.2054 -0.0491
 6221SOL    HW219092   0.586   0.090   4.198 -1.1079 -0.7706 -1.4497
 6222SOL     OW19093   5.553   3.752   5.306  0.6907  0.2740 -0.0528
 6222SOL    HW119094   5.464   3.783   5.291  0.6136 -0.1089 -0.4500
 6222SOL    HW219095   5.558   3.671   5.255  1.3311  0.4033 -0.2045
 6223SOL     OW19096   2.482   6.121   2.611  0.4763 -0.3614  0.2184
 6223SOL    HW119097   2.508   6.151   2.524  1.6689  0.6553  0.8971
 6223SOL    HW219098   2.462   6.028   2.599 -1.0603  0.1272 -1.4633
 6224SOL     OW19099   3.459   4.644   1.440 -0.3246 -0.0393 -0.0050
 6224SOL    HW119100   3.520   4.619   1.510 -0.7494 -1.8253 -0.2263
 6224SOL    HW219101   3.376   4.661   1.485  0.0954  1.6116  0.2064
 6225SOL     OW19102   1.767   2.515   5.008  0.1638 -0.4128 -0.5186
 6225SOL    HW119103   1.799   2.598   4.974  1.2225 -0.4801  0.2264
 6225SOL    HW219104   1.675   2.530   5.029  0.6473  0.9856  0.8018
 6226SOL     OW19105   3.561   3.528   3.163 -0.0619 -0.6214  0.8449
 6226SOL    HW119106   3.577   3.599   3.101 -1.7474 -0.2753  0.7679
 6226SOL    HW219107   3.559   3.449   3.110 -0.2406 -0.4768  0.6353
 6227SOL     OW19108   5.271   3.890   0.989 -0.5845  0.3032 -0.4230
 6227SOL    HW119109   5.259   3.949   1.063  0.0577  0.5876 -0.5408
 6227SOL    HW219110   5.366   3.883   0.979 -0.5907 -1.5532  0.2510
 6228SOL     OW19111   3.964   1.459   0.417  0.3303  0.3086  0.3813
 6228SOL    HW119112   3.960   1.405   0.496 -0.4091  0.2030  0.2781
 6228SOL    HW219113   3.955   1.549   0.448 -2.7412  0.1536  0.2524
 6229SOL     OW19114   4.844   5.148   5.986 -0.4691  0.2883  0.0220
 6229SOL    HW119115   4.777   5.097   5.940  0.5727 -0.3532 -0.8467
 6229SOL    HW219116   4.887   5.198   5.917  1.1124 -0.6688  0.2710
 6230SOL     OW19117   1.787   2.549   3.775  0.1004 -0.5822  0.2749
 6230SOL    HW119118   1.715   2.605   3.806 -0.2165 -0.2214 -1.0348
 6230SOL    HW219119   1.764   2.461   3.805  0.2491 -0.1424  1.7647
 6231SOL     OW19120   2.601   0.513   1.989 -0.0601  0.0446 -0.5855
 6231SOL    HW119121   2.635   0.602   1.977 -1.5206  0.7421  0.1838
 6231SOL    HW219122   2.634   0.486   2.075 -0.6425  0.3690 -0.2464
 6232SOL     OW19123   3.887   4.973   1.841 -0.2448  0.3142  0.2581
 6232SOL    HW119124   3.963   5.031   1.849 -0.7054  1.0133 -0.2643
 6232SOL    HW219125   3.903   4.903   1.904  0.5290  0.7888  0.6043
 6233SOL     OW19126   4.027   2.489   3.005  0.8516  0.5405 -0.0203
 6233SOL    HW119127   4.043   2.583   2.996  0.7318  0.6095  0.4532
 6233SOL    HW219128   4.004   2.477   3.097  0.4228  0.1085 -0.1798
 6234SOL     OW19129   5.947   2.299   5.857  0.0201  0.4082 -0.2002
 6234SOL    HW119130   6.019   2.359   5.842  1.3725 -0.7963  1.1417
 6234SOL    HW219131   5.970   2.221   5.806 -0.4655  0.1110  0.0280
 6235SOL     OW19132   0.260   5.606   4.048  0.0298  0.4763 -0.4154
 6235SOL    HW119133   0.231   5.628   4.137  1.7900  2.2256 -0.2044
 6235SOL    HW219134   0.178   5.594   3.999 -0.9826 -0.1275  1.3265
 6236SOL     OW19135   2.171   1.970   3.641  0.3585 -0.0303  0.1187
 6236SOL    HW119136   2.137   1.965   3.731 -3.4521  0.8488 -1.0707
 6236SOL    HW219137   2.210   2.057   3.635  1.3662 -0.3873  1.0721
 6237SOL     OW19138   1.540   4.223   2.204 -0.6077 -0.0946  0.2371
 6237SOL    HW119139   1.514   4.154   2.265 -0.0724  0.2115  0.8345
 6237SOL    HW219140   1.458   4.267   2.181 -0.7081  0.5621  1.7215
 6238SOL     OW19141   1.894   5.698   4.311 -1.1133  0.5425 -0.1104
 6238SOL    HW119142   1.957   5.698   4.383 -1.1532 -0.7907 -0.0431
 6238SOL    HW219143   1.894   5.607   4.279 -1.3481  1.0338 -1.5799
 6239SOL     OW19144   4.447   4.616   0.535  0.3085  0.6501  0.9923
 6239SOL    HW119145   4.407   4.544   0.583  0.3552  1.4206  2.2393
 6239SOL    HW219146   4.380   4.643   0.472  1.1601 -1.9932 -1.2272
 6240SOL     OW19147   5.353   2.999   4.357  0.2526  0.4001  0.1919
 6240SOL    HW119148   5.301   2.934   4.405 -1.1059  0.6073 -0.9201
 6240SOL    HW219149   5.353   2.967   4.266  2.3593  0.2577  0.1926
 6241SOL     OW19150   1.809   1.311   0.803  0.1053 -0.3684  0.0817
 6241SOL    HW119151   1.861   1.296   0.724 -1.6135 -0.9901 -0.9768
 6241SOL    HW219152   1.873   1.311   0.874  1.9393  1.8240 -1.4128
 6242SOL     OW19153   3.651   5.120   5.813 -0.7117 -0.1512  0.2462
 6242SOL    HW119154   3.646   5.179   5.737  0.0832  0.9428  1.0035
 6242SOL    HW219155   3.736   5.139   5.852 -1.1145 -0.6895  1.4232
 6243SOL     OW19156   3.541   5.470   1.271  0.3837  0.1769 -0.3662
 6243SOL    HW119157   3.506   5.401   1.327  1.0392 -0.8636 -1.1878
 6243SOL    HW219158   3.635   5.451   1.266  0.6164  1.2956 -0.3907
 6244SOL     OW19159   2.417   0.779   0.084 -0.1423  0.2434  0.1403
 6244SOL    HW119160   2.494   0.726   0.065 -2.1295 -2.3287 -1.4652
 6244SOL    HW219161   2.389   0.813  -0.002 -1.2412  0.4601  0.5633
 6245SOL     OW19162   3.412   3.568   3.383 -0.0076 -0.0185 -0.7128
 6245SOL    HW119163   3.459   3.570   3.300  0.6431  1.4575 -0.3573
 6245SOL    HW219164   3.342   3.504   3.371 -0.1292  0.4099 -2.5074
 6246SOL     OW19165   2.389   1.371   5.415 -0.0457  0.0449 -0.7669
 6246SOL    HW119166   2.413   1.464   5.416 -1.2895  0.4011  1.1564
 6246SOL    HW219167   2.472   1.324   5.421  0.5016  1.0918  0.1453
 6247SOL     OW19168   0.952   1.658   5.256  0.0882  0.0792  0.6872
 6247SOL    HW119169   0.897   1.683   5.181  0.9582  0.5585  0.1895
 6247SOL    HW219170   0.906   1.692   5.332  0.4025  1.8166  0.1610
 6248SOL     OW19171   0.814   0.693   1.805  0.1285 -0.1847  0.3029
 6248SOL    HW119172   0.845   0.740   1.883  1.7689  0.3289 -0.6221
 6248SOL    HW219173   0.888   0.641   1.776 -0.9026 -1.4733 -0.1352
 6249SOL     OW19174   3.885   2.134   1.439  0.6077  0.1373  0.7439
 6249SOL    HW119175   3.980   2.146   1.442  1.0915 -2.3449 -0.9104
 6249SOL    HW219176   3.864   2.133   1.345 -1.1220  0.8668  1.0818
 6250SOL     OW19177   2.181   1.320   4.936  0.6027  0.4115  1.1458
 6250SOL    HW119178   2.139   1.348   4.854 -0.3484 -0.6915  1.2444
 6250SOL    HW219179   2.111   1.280   4.987  1.2518  0.8084  2.3872
 6251SOL     OW19180   4.607   0.908   1.841  0.2498 -0.0225 -0.1089
 6251SOL    HW119181   4.552   0.862   1.778 -0.7778 -0.0046  0.7270
 6251SOL    HW219182   4.544   0.953   1.898  1.1285 -0.3224  1.1327
 6252SOL     OW19183   4.549   4.237   0.728 -0.5319 -0.3088  0.2341
 6252SOL    HW119184   4.645   4.234   0.728 -0.5540 -1.3946 -0.3548
 6252SOL    HW219185   4.523   4.169   0.666 -1.7162 -0.9135  1.3646
 6253SOL     OW19186   1.130   3.671   5.142 -0.5855  0.0026  0.5652
 6253SOL    HW119187   1.174   3.621   5.212  0.0325 -1.6017 -0.8802
 6253SOL    HW219188   1.202   3.701   5.086 -1.1291  0.3603  0.0493
 6254SOL     OW19189   5.232   3.691   2.381  0.0741 -0.3177 -0.1416
 6254SOL    HW119190   5.293   3.718   2.450 -0.7430 -0.6225  0.7208
 6254SOL    HW219191   5.277   3.714   2.300  0.2620  1.8326  0.5013
 6255SOL     OW19192   4.602   5.920   3.967 -0.1344  0.3727 -0.9655
 6255SOL    HW119193   4.601   5.872   3.884  1.7612 -1.1484 -0.1907
 6255SOL    HW219194   4.525   5.889   4.015 -0.0213 -0.4022 -1.2804
 6256SOL     OW19195   4.721   5.030   1.794 -0.0979 -0.0059 -0.1189
 6256SOL    HW119196   4.812   5.016   1.820  0.0177 -1.1882 -1.0427
 6256SOL    HW219197   4.722   5.113   1.746  0.4021  0.2145  0.2625
 6257SOL     OW19198   2.316   0.218   5.223 -0.0369 -0.1870 -0.0335
 6257SOL    HW119199   2.321   0.138   5.171 -1.2307 -0.8809  0.8549
 6257SOL    HW219200   2.262   0.277   5.171  0.3007 -0.1945 -0.3962
 6258SOL     OW19201   5.365   4.077   4.687 -0.1075  0.0537  0.4032
 6258SOL    HW119202   5.314   4.145   4.732  1.1638  1.9705 -0.8937
 6258SOL    HW219203   5.362   4.001   4.746 -1.8847  1.0972  1.7482
 6259SOL     OW19204   5.350   1.572   5.431 -0.0409 -0.0102 -0.4129
 6259SOL    HW119205   5.417   1.558   5.497 -0.4063 -0.4070 -0.1208
 6259SOL    HW219206   5.388   1.636   5.371 -0.6637  2.4206  1.6072
 6260SOL     OW19207   0.359   1.798   0.412 -0.2043  0.3637 -0.2531
 6260SOL    HW119208   0.360   1.709   0.445 -0.3613  0.0243 -1.1417
 6260SOL    HW219209   0.424   1.844   0.466  0.5385 -0.5071 -0.3892
 6261SOL     OW19210   4.029   2.358   2.688  0.3292  0.0944  0.3360
 6261SOL    HW119211   4.124   2.356   2.674  0.1554  0.9843 -1.2001
 6261SOL    HW219212   3.994   2.298   2.622 -0.1234 -1.4130  1.8752
 6262SOL     OW19213   2.119   2.305   2.528  0.0300 -0.4304  0.1665
 6262SOL    HW119214   2.134   2.240   2.596 -0.4200 -0.3954  0.2995
 6262SOL    HW219215   2.135   2.389   2.572  2.4575 -0.4981 -0.4706
 6263SOL     OW19216   0.295   0.792   0.070 -0.2593  0.6154 -0.2084
 6263SOL    HW119217   0.354   0.780  -0.005 -0.2414 -0.5265 -0.0365
 6263SOL    HW219218   0.350   0.775   0.146 -0.9176 -1.1630 -0.0672
 6264SOL     OW19219   5.463   5.714   2.717 -0.4757 -0.0569 -0.0508
 6264SOL    HW119220   5.390   5.766   2.683 -0.4220 -0.2127 -0.4137
 6264SOL    HW219221   5.520   5.778   2.760  0.7250  0.5785 -2.4141
 6265SOL     OW19222   0.812   2.500   3.556  0.0445 -0.4181 -0.0311
 6265SOL    HW119223   0.818   2.489   3.651 -1.1317 -3.4997 -0.1923
 6265SOL    HW219224   0.724   2.469   3.534  0.1048  0.6987 -2.0949
 6266SOL     OW19225   0.982   5.294   5.047 -0.1659 -0.6453  0.0703
 6266SOL    HW119226   1.007   5.201   5.048 -1.8747 -1.1323  0.6189
 6266SOL    HW219227   0.974   5.316   4.954 -1.5817 -1.5979 -0.0590
 6267SOL     OW19228   1.474   5.092   2.787 -0.3375 -0.2809 -0.5955
 6267SOL    HW119229   1.447   5.120   2.699  0.9210 -0.6833 -1.1378
 6267SOL    HW219230   1.434   5.006   2.798 -1.1508  0.1073 -0.4379
 6268SOL     OW19231   1.660   0.944   2.818 -0.1867  0.9833  0.0110
 6268SOL    HW119232   1.602   0.868   2.819 -0.5492  1.2082 -1.5414
 6268SOL    HW219233   1.679   0.962   2.910 -1.0986 -0.2189  0.4448
 6269SOL     OW19234   0.161   1.691   1.457  0.1400 -0.0983  0.0719
 6269SOL    HW119235   0.127   1.778   1.476  0.0895 -0.1132  0.0499
 6269SOL    HW219236   0.203   1.699   1.372  1.8278  0.3808  0.9151
 6270SOL     OW19237   2.529   1.756   1.069  0.6454  0.3575  0.2688
 6270SOL    HW119238   2.606   1.778   1.017 -0.5530  2.6448 -0.6732
 6270SOL    HW219239   2.538   1.811   1.148 -0.3298  1.1985 -0.1834
 6271SOL     OW19240   3.816   4.857   5.354  0.2375 -0.0407 -0.0750
 6271SOL    HW119241   3.862   4.803   5.290  0.4356 -2.1859  1.7487
 6271SOL    HW219242   3.736   4.808   5.374 -0.2780  1.0506  0.6418
 6272SOL     OW19243   2.511   6.122   5.234  0.6511 -0.3016  0.3356
 6272SOL    HW119244   2.532   6.158   5.320  0.6247 -0.9812  0.6315
 6272SOL    HW219245   2.425   6.082   5.245 -0.1786  1.1693 -0.4817
 6273SOL     OW19246   5.028   4.441   2.715 -0.3749  0.1206 -0.5764
 6273SOL    HW119247   4.943   4.399   2.702 -0.8583  0.6638  0.6457
 6273SOL    HW219248   5.007   4.532   2.733  0.2696 -0.1469  1.9276
 6274SOL     OW19249   2.506   3.694   4.658  0.3833  0.5628 -0.4439
 6274SOL    HW119250   2.458   3.617   4.627 -0.2982  1.5104 -1.8485
 6274SOL    HW219251   2.597   3.665   4.661  0.3287  0.0335 -2.2730
 6275SOL     OW19252   3.186   1.105   2.871  0.4201  0.7854  0.1444
 6275SOL    HW119253   3.221   1.017   2.854  0.7618  0.6135  1.5793
 6275SOL    HW219254   3.130   1.094   2.948 -0.7824  1.5493 -0.5993
 6276SOL     OW19255   4.498   1.156   0.438 -0.0615  0.3754 -0.5705
 6276SOL    HW119256   4.484   1.123   0.349 -0.5021 -1.1617  0.0293
 6276SOL    HW219257   4.410   1.177   0.470  0.2181  2.2803 -0.9580
 6277SOL     OW19258   3.086   0.592   4.158  0.1378  0.3710  0.1806
 6277SOL    HW119259   3.002   0.560   4.125  0.1649 -0.8061  1.1502
 6277SOL    HW219260   3.095   0.550   4.244  2.2969 -0.5853 -0.4410
 6278SOL     OW19261   1.080   2.559   5.864  0.3227  0.2715 -0.2622
 6278SOL    HW119262   0.986   2.572   5.851  0.4895 -0.1301 -2.1595
 6278SOL    HW219263   1.095   2.581   5.956 -2.0931 -2.3324  0.9044
 6279SOL     OW19264   5.927   2.533   0.785 -0.2459  0.0983  0.3061
 6279SOL    HW119265   5.899   2.544   0.875 -1.4478  0.5913 -0.1034
 6279SOL    HW219266   5.871   2.462   0.751 -0.0305  0.1333 -0.1328
 6280SOL     OW19267   0.970   1.174   3.736  0.0595 -0.2859  0.2037
 6280SOL    HW119268   1.003   1.263   3.741  1.8711 -0.8938 -0.0851
 6280SOL    HW219269   0.907   1.167   3.807  0.2509  1.0748  0.5221
 6281SOL     OW19270   3.395   0.980   0.998 -0.5082  0.3830 -0.6553
 6281SOL    HW119271   3.341   1.032   1.057 -1.0342  1.9937 -2.4442
 6281SOL    HW219272   3.335   0.917   0.959 -0.4048  0.0877 -0.3449
 6282SOL     OW19273   3.380   0.349   1.658  0.6966 -0.1903  0.5364
 6282SOL    HW119274   3.286   0.334   1.667  0.5070  0.7316  0.2120
 6282SOL    HW219275   3.389   0.444   1.651  1.4317 -0.3618 -1.8624
 6283SOL     OW19276   5.498   0.023   3.186 -0.4813 -0.3957  0.3414
 6283SOL    HW119277   5.593   0.016   3.179 -0.2099  1.6274  1.3633
 6283SOL    HW219278   5.476  -0.034   3.260 -0.0409 -0.6779  0.2613
 6284SOL     OW19279   2.652   5.210   5.062  0.0512 -0.0432  0.1768
 6284SOL    HW119280   2.628   5.303   5.060 -0.9409 -0.2940 -0.5104
 6284SOL    HW219281   2.619   5.178   5.146  1.0769  0.3836  0.7579
 6285SOL     OW19282   2.037   4.386   2.660  0.4380 -0.1461  0.0769
 6285SOL    HW119283   2.127   4.380   2.628  0.6580 -0.3611  0.7337
 6285SOL    HW219284   2.042   4.444   2.736 -0.0146  0.0185 -0.0164
 6286SOL     OW19285   5.893   4.906   2.578 -0.4681  0.3032  0.6056
 6286SOL    HW119286   5.880   4.812   2.571  0.3894  0.2646 -1.2706
 6286SOL    HW219287   5.863   4.929   2.666  0.7864 -1.9545  1.6859
 6287SOL     OW19288   0.693   4.512   1.164  0.3289  0.5295  0.0588
 6287SOL    HW119289   0.688   4.434   1.219  0.1379  0.5135  0.0189
 6287SOL    HW219290   0.707   4.584   1.226 -3.5164  1.0301  0.5534
 6288SOL     OW19291   0.176   3.279   5.195  0.1963  1.1402 -0.5209
 6288SOL    HW119292   0.248   3.334   5.163  0.5341  1.4826  0.7766
 6288SOL    HW219293   0.196   3.265   5.288 -1.9998  2.2001  0.1754
 6289SOL     OW19294   5.430   0.572   3.415 -0.2384 -0.0261  0.4179
 6289SOL    HW119295   5.345   0.582   3.459 -0.8244 -1.6754 -0.2478
 6289SOL    HW219296   5.413   0.509   3.345  1.7681 -1.1721  0.8922
 6290SOL     OW19297   5.270   1.658   0.359 -0.3939 -0.1536  0.3699
 6290SOL    HW119298   5.256   1.596   0.287 -2.2400  0.7509 -0.0901
 6290SOL    HW219299   5.289   1.602   0.434 -1.7011 -1.2958 -0.0989
 6291SOL     OW19300   6.033   2.129   1.154  0.1310  0.7591 -0.1216
 6291SOL    HW119301   6.009   2.212   1.196  0.1195  0.1836  1.0470
 6291SOL    HW219302   6.105   2.152   1.095  1.7274  1.2254  1.9158
 6292SOL     OW19303   4.822   4.021   2.694 -0.3594 -0.5700  0.3374
 6292SOL    HW119304   4.794   3.931   2.677 -0.6621 -0.0605 -2.4406
 6292SOL    HW219305   4.910   4.012   2.732  0.4555 -2.0806 -1.7220
 6293SOL     OW19306   3.668   4.080   4.608 -0.7318 -0.1485  0.2090
 6293SOL    HW119307   3.668   4.081   4.704 -0.1039 -0.6246  0.2241
 6293SOL    HW219308   3.743   4.134   4.583 -0.8765 -0.0481 -0.0170
 6294SOL     OW19309   2.678   2.327   3.199 -0.1117  0.0538 -0.0594
 6294SOL    HW119310   2.669   2.405   3.145 -0.0389  0.1168  0.0182
 6294SOL    HW219311   2.589   2.307   3.227 -0.0916  0.3134  0.2046
 6295SOL     OW19312   1.695   0.524   2.184  0.2655  0.1688 -0.1024
 6295SOL    HW119313   1.650   0.446   2.150 -2.0124  0.5494  1.7986
 6295SOL    HW219314   1.697   0.584   2.110  0.5914 -1.0652 -1.1392
 6296SOL     OW19315   2.605   4.824   3.312 -0.6120 -0.6620 -0.1866
 6296SOL    HW119316   2.700   4.810   3.311 -0.6707 -1.0353 -0.7820
 6296SOL    HW219317   2.575   4.792   3.227 -1.2038 -0.0428 -0.2168
 6297SOL     OW19318   4.973   1.861   5.850 -1.0314 -0.2523  0.1522
 6297SOL    HW119319   4.898   1.837   5.904 -0.2562  0.1408  1.4388
 6297SOL    HW219320   5.048   1.819   5.892 -0.4205 -0.0361 -0.6887
 6298SOL     OW19321   1.234   1.168   1.664 -0.1902  0.0027  0.5977
 6298SOL    HW119322   1.219   1.212   1.580  0.9859 -0.0334  0.3374
 6298SOL    HW219323   1.232   1.238   1.729  1.6208  0.5038  0.1895
 6299SOL     OW19324   2.302   0.752   5.460  0.0171 -0.1847 -0.0854
 6299SOL    HW119325   2.299   0.689   5.388  2.2217  0.7249 -1.0869
 6299SOL    HW219326   2.252   0.711   5.530 -1.0647 -1.7181 -1.6606
 6300SOL     OW19327   0.153   2.867   3.421  0.0865 -0.2690  0.5663
 6300SOL    HW119328   0.066   2.895   3.452 -0.9950 -2.8737  0.1369
 6300SOL    HW219329   0.192   2.822   3.496  0.8895  0.4535  0.5976
 6301SOL     OW19330   0.251   2.598   2.842 -0.0071  0.6023 -0.2917
 6301SOL    HW119331   0.197   2.552   2.907  0.6873 -1.0929 -0.8428
 6301SOL    HW219332   0.189   2.650   2.792 -1.4187 -2.1522 -1.6513
 6302SOL     OW19333   3.011   0.710   1.923 -0.3900 -0.1990  0.5532
 6302SOL    HW119334   3.031   0.787   1.977 -0.5678 -0.9568  1.7263
 6302SOL    HW219335   3.084   0.650   1.938  0.6684  0.3991 -1.7431
 6303SOL     OW19336   3.193   1.276   3.726  0.6781 -0.0056 -0.5545
 6303SOL    HW119337   3.167   1.357   3.769  1.5171  0.0114 -0.0554
 6303SOL    HW219338   3.122   1.256   3.666 -0.0464  0.5085  0.1255
 6304SOL     OW19339   2.005   2.250   4.700  0.3961  0.0961 -0.4472
 6304SOL    HW119340   1.955   2.329   4.682 -2.1055 -0.8051  1.9145
 6304SOL    HW219341   2.024   2.253   4.794  3.1373 -0.6232 -0.8682
 6305SOL     OW19342   1.447   0.839   4.041  0.1524 -0.2618 -0.9642
 6305SOL    HW119343   1.474   0.774   3.976  2.5639 -0.7675  0.4279
 6305SOL    HW219344   1.529   0.874   4.075 -1.0731  1.5420  0.3038
 6306SOL     OW19345   5.471   3.215   2.399 -0.2649 -0.2099  0.4872
 6306SOL    HW119346   5.551   3.257   2.431  0.8218 -1.8898  0.0647
 6306SOL    HW219347   5.433   3.174   2.477  0.4578 -1.2476  0.3031
 6307SOL     OW19348   3.814   1.191   3.180 -0.3698 -0.1310 -0.0493
 6307SOL    HW119349   3.803   1.119   3.242  1.3148 -0.7001 -0.3470
 6307SOL    HW219350   3.837   1.266   3.234 -2.4413  0.3175  0.2933
 6308SOL     OW19351   0.882   1.893   0.795  0.3503  0.2932 -0.2670
 6308SOL    HW119352   0.899   1.984   0.769  3.0882 -0.4000 -1.2983
 6308SOL    HW219353   0.935   1.882   0.874  0.8560 -0.6575 -0.7297
 6309SOL     OW19354   5.585   4.223   6.027  0.7857 -0.4613 -0.1293
 6309SOL    HW119355   5.561   4.182   5.944 -0.5344 -0.0429  0.0248
 6309SOL    HW219356   5.604   4.149   6.085 -3.4345 -1.1315  0.7356
 6310SOL     OW19357   1.505   0.526   3.325  0.1438  0.1097 -0.2554
 6310SOL    HW119358   1.550   0.482   3.252  0.4923  0.2941 -0.1562
 6310SOL    HW219359   1.572   0.583   3.363 -0.2620  0.6244 -0.2983
 6311SOL     OW19360   3.088   0.882   0.355 -0.5547  0.5856 -0.2820
 6311SOL    HW119361   3.010   0.915   0.311 -0.1887  0.7091 -0.8578
 6311SOL    HW219362   3.125   0.819   0.293 -0.6839 -0.1332  0.3678
 6312SOL     OW19363   6.228   3.422   0.311 -0.1204 -0.3108 -0.5448
 6312SOL    HW119364   6.268   3.337   0.329  0.6177 -0.0261 -0.8290
 6312SOL    HW219365   6.204   3.456   0.398  0.5262 -0.3508 -0.3496
 6313SOL     OW19366   4.799   0.732   1.880  0.6077  0.2003  0.0185
 6313SOL    HW119367   4.822   0.701   1.792 -1.7679 -0.9930 -0.2531
 6313SOL    HW219368   4.732   0.798   1.865  1.6208  1.4751  0.8963
 6314SOL     OW19369   2.554   1.544   2.677  0.4999  0.0960 -0.0037
 6314SOL    HW119370   2.532   1.496   2.598  0.7161 -0.4427  0.2627
 6314SOL    HW219371   2.644   1.519   2.697 -0.0627 -1.0291  1.3057
 6315SOL     OW19372   5.841   0.506   3.371 -0.2063  0.4019 -0.2545
 6315SOL    HW119373   5.815   0.523   3.281 -0.0673 -1.4945 -0.6876
 6315SOL    HW219374   5.804   0.421   3.392 -2.2753  1.7618  2.3330
 6316SOL     OW19375   4.210   1.822   3.181  0.2258  0.7485  0.7168
 6316SOL    HW119376   4.171   1.739   3.154  0.3239  0.4527  1.4493
 6316SOL    HW219377   4.237   1.864   3.099 -0.5114  0.4064  0.2852
 6317SOL     OW19378   5.841   0.724   4.836 -0.0047  0.5597 -0.2830
 6317SOL    HW119379   5.894   0.667   4.780 -0.8559 -2.1625  1.4767
 6317SOL    HW219380   5.890   0.806   4.840  2.0508 -0.5006 -1.8248
 6318SOL     OW19381   1.848   2.902   5.289  0.3673  0.8194  0.1960
 6318SOL    HW119382   1.864   2.996   5.292  0.9665  0.8439 -2.0943
 6318SOL    HW219383   1.931   2.864   5.260  0.1397 -0.4507  1.0896
 6319SOL     OW19384   0.921   0.890   4.871 -0.1451  0.2796 -0.2444
 6319SOL    HW119385   1.001   0.883   4.923 -0.0845 -0.9914 -0.4850
 6319SOL    HW219386   0.947   0.866   4.783 -0.5262  1.1696 -0.6124
 6320SOL     OW19387   1.151   4.420   2.755 -0.2136 -0.3157  0.0884
 6320SOL    HW119388   1.161   4.490   2.819  0.7914  1.0614 -1.4818
 6320SOL    HW219389   1.172   4.340   2.803  1.3323  0.7552  1.2971
 6321SOL     OW19390   1.959   4.874   4.141  0.1132  0.1281 -0.3702
 6321SOL    HW119391   2.004   4.888   4.225 -1.8321 -0.6062  0.8462
 6321SOL    HW219392   1.920   4.788   4.149  0.5374 -0.2905 -2.3859
 6322SOL     OW19393   5.363   3.975   2.382 -0.2273 -0.6601  0.5372
 6322SOL    HW119394   5.389   4.055   2.337  0.4979 -0.6945  0.8824
 6322SOL    HW219395   5.293   3.939   2.328 -1.1626  0.6509  0.8361
 6323SOL     OW19396   6.207   0.975   5.052 -0.1190  0.4366 -0.2879
 6323SOL    HW119397   6.171   1.008   5.134 -0.7132 -0.9662  0.0471
 6323SOL    HW219398   6.217   1.053   4.997 -2.0258  1.0899  0.2266
 6324SOL     OW19399   1.263   3.954   3.843  0.5895 -0.1445 -0.0338
 6324SOL    HW119400   1.282   4.038   3.884 -1.8963  0.5435 -0.0892
 6324SOL    HW219401   1.251   3.975   3.750  0.1841 -0.5905 -0.0873
 6325SOL     OW19402   1.151   0.267   3.379  0.1373  0.4359 -0.1119
 6325SOL    HW119403   1.144   0.363   3.383  2.2724  0.6535 -0.5689
 6325SOL    HW219404   1.111   0.243   3.296 -0.1757  0.9485 -0.1137
 6326SOL     OW19405   1.235   1.932   3.368  0.2276 -0.6438 -0.2837
 6326SOL    HW119406   1.149   1.939   3.325  0.5728 -0.7502 -1.0031
 6326SOL    HW219407   1.297   1.967   3.304  0.8720 -1.6981 -0.2661
 6327SOL     OW19408   3.057   1.495   4.607  0.2031  0.2120  0.3087
 6327SOL    HW119409   3.073   1.401   4.616  2.5588  0.3570 -1.3690
 6327SOL    HW219410   3.035   1.524   4.695  1.5296 -1.5917  1.3009
 6328SOL     OW19411   2.892   1.143   4.421 -0.1430 -0.3049 -0.9166
 6328SOL    HW119412   2.845   1.217   4.383  0.4305 -0.2979 -1.6426
 6328SOL    HW219413   2.855   1.067   4.377  1.0390 -0.2421 -2.0843
 6329SOL     OW19414   2.464   5.792   3.306  0.0006 -0.0588 -0.2906
 6329SOL    HW119415   2.539   5.738   3.329  0.0906 -0.2809 -1.0714
 6329SOL    HW219416   2.395   5.729   3.282  0.4520  0.1485 -2.2791
 6330SOL     OW19417   4.259   5.540   5.008 -0.2820 -0.5844 -0.2316
 6330SOL    HW119418   4.338   5.490   5.028  1.3467  1.4690 -1.1223
 6330SOL    HW219419   4.274   5.573   4.919 -1.1183  1.6474  0.3889
 6331SOL     OW19420   2.162   0.491   1.335  0.0959  0.0325  0.1632
 6331SOL    HW119421   2.219   0.504   1.260  0.1318  3.2670  0.5906
 6331SOL    HW219422   2.074   0.510   1.302  0.0164  0.6912  0.7224
 6332SOL     OW19423   2.817   1.152   0.520 -0.2741  0.5500 -0.5466
 6332SOL    HW119424   2.897   1.123   0.565 -0.6283 -0.5524 -0.5941
 6332SOL    HW219425   2.843   1.230   0.472  0.6166  0.5778 -0.0377
 6333SOL     OW19426   1.541   1.974   3.636  0.2218  0.1682  0.3071
 6333SOL    HW119427   1.582   1.996   3.553  0.4217  1.1126  0.6446
 6333SOL    HW219428   1.613   1.944   3.692  0.3381  1.0713  0.6483
 6334SOL     OW19429   4.106   0.129   1.129  0.5721 -0.0529  0.1396
 6334SOL    HW119430   4.062   0.180   1.061  1.2578  0.9372  0.4141
 6334SOL    HW219431   4.186   0.098   1.087 -0.2543 -1.6891 -0.3001
 6335SOL     OW19432   0.628   3.634   5.786  0.7692  0.1012  0.4518
 6335SOL    HW119433   0.538   3.604   5.768  1.0843 -0.7976  0.2994
 6335SOL    HW219434   0.627   3.727   5.765 -0.3796  0.3257  1.3565
 6336SOL     OW19435   4.784   4.027   5.626 -0.3842 -0.0925 -0.7789
 6336SOL    HW119436   4.849   4.063   5.566 -1.3158 -0.7879 -2.2726
 6336SOL    HW219437   4.750   3.950   5.580 -3.0959  0.9125 -0.6201
 6337SOL     OW19438   1.010   6.105   3.627  0.1551 -0.4526 -0.0684
 6337SOL    HW119439   0.931   6.062   3.594 -0.4387  1.0629 -0.6983
 6337SOL    HW219440   0.979   6.186   3.666  1.4517  0.5527 -1.0205
 6338SOL     OW19441   1.793   4.046   4.140 -0.3380  0.1575  0.1982
 6338SOL    HW119442   1.851   4.090   4.202  2.0934 -0.7298 -1.3157
 6338SOL    HW219443   1.802   4.097   4.059  0.8588 -1.7728 -0.9636
 6339SOL     OW19444   1.870   3.443   2.025  0.1035 -0.3554  0.8178
 6339SOL    HW119445   1.930   3.493   2.081 -0.4983  0.2548  0.9230
 6339SOL    HW219446   1.870   3.355   2.063 -2.1553  0.5921  3.3417
 6340SOL     OW19447   5.114   3.460   2.359 -0.4981 -0.0544  0.3126
 6340SOL    HW119448   5.019   3.463   2.343 -0.2684  0.2188 -1.1590
 6340SOL    HW219449   5.140   3.552   2.366 -0.2486 -0.0986  0.0133
 6341SOL     OW19450   5.114   5.816   3.442 -0.0423  0.3797 -0.0191
 6341SOL    HW119451   5.037   5.778   3.400 -1.5356  2.7274  0.4292
 6341SOL    HW219452   5.091   5.822   3.534  1.0190  0.3613  0.2661
 6342SOL     OW19453   2.417   0.714   2.081 -0.3128  0.3129 -0.1115
 6342SOL    HW119454   2.472   0.636   2.085  0.0901  0.5800 -0.3727
 6342SOL    HW219455   2.366   0.712   2.162 -0.5378 -0.3896 -0.2707
 6343SOL     OW19456   1.364   1.893   2.888 -0.1463 -0.0454 -0.1452
 6343SOL    HW119457   1.295   1.933   2.834 -0.0390  0.4424  0.0752
 6343SOL    HW219458   1.332   1.804   2.905 -1.2072  0.4960  0.7896
 6344SOL     OW19459   3.568   0.639   3.203 -0.4709 -0.8216  0.6355
 6344SOL    HW119460   3.634   0.593   3.150 -0.6162 -0.7009  0.3438
 6344SOL    HW219461   3.548   0.579   3.274  0.2831 -0.6775  0.9827
 6345SOL     OW19462   4.881   4.124   5.174  0.0674  0.0224 -0.1288
 6345SOL    HW119463   4.961   4.168   5.203 -0.4165  0.3985  0.6437
 6345SOL    HW219464   4.857   4.170   5.093  1.4331 -1.0507 -1.1953
 6346SOL     OW19465   5.699   3.549   4.884 -0.3268  0.0390 -0.1729
 6346SOL    HW119466   5.768   3.580   4.943 -0.4691 -1.2503  0.7078
 6346SOL    HW219467   5.747   3.519   4.807 -0.0834  1.0350 -0.4320
 6347SOL     OW19468   0.408   0.430   5.402 -0.0500 -0.0418 -0.0846
 6347SOL    HW119469   0.479   0.480   5.444  1.4326 -1.5491 -0.6686
 6347SOL    HW219470   0.451   0.383   5.330 -1.6463 -1.0240 -0.4494
 6348SOL     OW19471   5.910   5.700   0.793  0.1416 -0.0770  0.8256
 6348SOL    HW119472   5.991   5.660   0.760  0.2532  0.1450  0.8286
 6348SOL    HW219473   5.850   5.699   0.718  0.4138  0.4803  0.5946
 6349SOL     OW19474   0.837   0.823   2.104  0.5828 -0.4892  0.8592
 6349SOL    HW119475   0.822   0.880   2.179  0.7519 -0.6152  0.9885
 6349SOL    HW219476   0.930   0.801   2.109  0.8418  0.3330  0.0355
 6350SOL     OW19477   0.263   5.820   4.562 -0.2496  0.0396  0.6692
 6350SOL    HW119478   0.284   5.730   4.586  1.2837  0.7513  2.3486
 6350SOL    HW219479   0.213   5.854   4.637 -1.7952  0.2925 -0.4336
 6351SOL     OW19480   1.484   3.687   3.220  0.0169  0.1825 -0.2633
 6351SOL    HW119481   1.466   3.598   3.251 -0.7541  0.3154 -0.3096
 6351SOL    HW219482   1.536   3.675   3.141  0.8800 -0.1960  0.3521
 6352SOL     OW19483   5.639   2.273   4.955  0.0463  0.1485 -0.2764
 6352SOL    HW119484   5.584   2.209   5.000  0.7380  0.8687  1.7388
 6352SOL    HW219485   5.720   2.226   4.936 -0.4260 -0.2957 -1.2246
 6353SOL     OW19486   3.744   3.580   1.998  0.4394  0.0765 -0.1271
 6353SOL    HW119487   3.793   3.578   1.915 -2.6664 -2.3776 -2.1774
 6353SOL    HW219488   3.779   3.506   2.048 -0.0518 -0.6762 -0.8727
 6354SOL     OW19489   0.511   5.280   3.749 -0.2615  0.0431 -0.1920
 6354SOL    HW119490   0.481   5.243   3.666 -1.2714  0.6616 -0.1149
 6354SOL    HW219491   0.586   5.334   3.725 -0.2189 -0.1971 -0.6217
 6355SOL     OW19492   2.167   4.986   0.068  0.4673 -0.3137 -0.2006
 6355SOL    HW119493   2.087   5.037   0.060 -0.2716 -1.4158 -0.0022
 6355SOL    HW219494   2.195   5.000   0.159  0.8722  0.5893 -0.4543
 6356SOL     OW19495   5.701   1.245   5.444  0.0094 -0.0188  0.4400
 6356SOL    HW119496   5.785   1.208   5.415 -0.1223  0.2128 -0.2544
 6356SOL    HW219497   5.646   1.243   5.366 -0.6923 -0.3118  0.9275
 6357SOL     OW19498   0.077   5.302   1.220 -0.2271 -0.1345 -0.3601
 6357SOL    HW119499   0.167   5.300   1.187 -0.3588 -1.2984 -0.7041
 6357SOL    HW219500   0.078   5.368   1.289  0.8611 -0.0276 -0.4636
 6358SOL     OW19501   4.412   5.823   1.778 -0.4293  0.3561  0.2624
 6358SOL    HW119502   4.363   5.902   1.754 -0.6762  0.1506  0.0904
 6358SOL    HW219503   4.357   5.751   1.748  0.2622  0.1255 -0.4833
 6359SOL     OW19504   3.300   0.945   1.541  0.1228  0.5697 -0.0695
 6359SOL    HW119505   3.211   0.947   1.576 -0.0198  1.4188 -0.4594
 6359SOL    HW219506   3.348   1.010   1.592  0.8780 -0.8076  1.0271
 6360SOL     OW19507   2.428   2.676   1.035  0.0779  0.1635  0.0733
 6360SOL    HW119508   2.394   2.602   0.985  0.2757 -0.2726  0.5827
 6360SOL    HW219509   2.352   2.711   1.082 -0.0727  0.4669 -0.3821
 6361SOL     OW19510   2.652   3.385   5.804  0.4433 -0.5795  0.5316
 6361SOL    HW119511   2.737   3.422   5.780 -0.0961 -0.5025 -1.4277
 6361SOL    HW219512   2.590   3.458   5.795 -0.9074 -1.9557 -4.9127
 6362SOL     OW19513   3.253   5.559   2.402  0.4302 -0.1982 -0.2505
 6362SOL    HW119514   3.191   5.582   2.472  0.0210  0.3186 -0.7631
 6362SOL    HW219515   3.215   5.481   2.362  0.5701 -0.3893 -0.0142
 6363SOL     OW19516   2.961   5.728   4.072  1.2635  0.2724  0.0154
 6363SOL    HW119517   2.879   5.681   4.060  0.7148  0.8645  1.2182
 6363SOL    HW219518   3.024   5.682   4.017  0.0791 -0.0535 -1.1138
 6364SOL     OW19519   2.991   2.732   4.132 -0.9889 -0.5027 -0.0524
 6364SOL    HW119520   2.931   2.658   4.144 -0.4142 -1.3939 -2.2327
 6364SOL    HW219521   3.078   2.693   4.139 -0.5180  0.7706  3.0481
 6365SOL     OW19522   6.172   2.441   3.468 -0.4743 -0.1096 -0.6818
 6365SOL    HW119523   6.088   2.403   3.492 -1.5272  0.3983 -3.2550
 6365SOL    HW219524   6.227   2.365   3.446 -0.5433 -0.3961  0.0989
 6366SOL     OW19525   0.581   1.093   4.331 -0.4556 -0.1226  0.1015
 6366SOL    HW119526   0.489   1.069   4.320 -0.2567  0.0292 -2.2967
 6366SOL    HW219527   0.623   1.065   4.250  1.4855  0.4849  0.8464
 6367SOL     OW19528   0.633   3.595   2.487  0.5754  0.0185  0.4616
 6367SOL    HW119529   0.602   3.552   2.408 -0.8633  1.1445  0.3524
 6367SOL    HW219530   0.616   3.532   2.557  1.4496 -0.8103 -0.0582
 6368SOL     OW19531   5.808   0.272   6.035  0.3095 -0.2100  0.1414
 6368SOL    HW119532   5.730   0.259   5.981  0.3763 -1.4706  0.3375
 6368SOL    HW219533   5.775   0.282   6.124  0.3752 -0.9479  0.2532
 6369SOL     OW19534   1.402   2.694   2.596  0.0453 -0.3575  0.4723
 6369SOL    HW119535   1.374   2.745   2.672 -1.4336 -1.9575  1.0823
 6369SOL    HW219536   1.497   2.692   2.601 -0.0508 -1.0147  2.6964
 6370SOL     OW19537   2.639   5.419   0.387  0.1390 -0.1629 -0.0637
 6370SOL    HW119538   2.694   5.371   0.325 -0.9974 -1.3005 -0.2153
 6370SOL    HW219539   2.625   5.358   0.459 -1.8158 -0.3107 -0.5273
 6371SOL     OW19540   4.925   1.084   4.703  0.1594 -0.0475  0.1033
 6371SOL    HW119541   4.839   1.056   4.673  0.1727  0.5201 -0.4782
 6371SOL    HW219542   4.906   1.152   4.769  0.1491 -0.6132  0.6916
 6372SOL     OW19543   2.921   0.796   6.140  0.0960  0.6270 -0.3946
 6372SOL    HW119544   2.921   0.806   6.045  1.4539 -0.8727 -0.5842
 6372SOL    HW219545   2.911   0.702   6.155  0.1563  0.8089  0.9390
 6373SOL     OW19546   4.852   3.888   4.398 -0.6807 -0.1278  0.0376
 6373SOL    HW119547   4.908   3.811   4.389 -0.4295  0.1153 -0.4909
 6373SOL    HW219548   4.770   3.854   4.435  0.1757 -0.3294  1.8945
 6374SOL     OW19549   4.221   2.108   1.912 -0.0441  0.2362 -0.3561
 6374SOL    HW119550   4.243   2.089   1.821 -0.6623 -1.8504 -0.1029
 6374SOL    HW219551   4.136   2.067   1.926  1.2254 -1.9244  1.8797
 6375SOL     OW19552   1.495   3.818   3.560  0.4329 -0.4268 -0.9689
 6375SOL    HW119553   1.400   3.806   3.570  0.1797  1.3437 -0.9447
 6375SOL    HW219554   1.533   3.769   3.633 -0.4709 -1.0512 -0.9041
 6376SOL     OW19555   5.754   4.023   6.222  0.0006  0.3203  0.1818
 6376SOL    HW119556   5.740   4.092   6.287 -2.1232 -1.1715  1.4427
 6376SOL    HW219557   5.721   3.944   6.264 -0.4544 -0.9114 -2.3272
 6377SOL     OW19558   0.942   3.168   3.992 -0.2962  0.1258 -0.2226
 6377SOL    HW119559   1.013   3.229   3.974 -1.4592  0.9169 -2.4069
 6377SOL    HW219560   0.865   3.223   4.002 -1.1129 -0.8953 -0.7529
 6378SOL     OW19561   4.139   1.435   3.924 -0.0589  0.1055  0.0369
 6378SOL    HW119562   4.201   1.371   3.960  0.5412  1.0572  0.7713
 6378SOL    HW219563   4.053   1.400   3.945  0.2303 -1.0403 -0.6330
 6379SOL     OW19564   3.430   1.043   6.178 -0.2817 -0.1072 -0.1385
 6379SOL    HW119565   3.335   1.035   6.183 -0.2484 -1.3259 -1.0003
 6379SOL    HW219566   3.446   1.088   6.095 -0.0998 -0.3825 -0.2555
 6380SOL     OW19567   6.212   4.681   0.796  0.1213  0.2772  0.2761
 6380SOL    HW119568   6.286   4.661   0.854  0.9735  0.2934 -0.7601
 6380SOL    HW219569   6.182   4.596   0.765  0.7383  0.3365 -0.5204
 6381SOL     OW19570   3.837   2.386   1.552  0.1239 -0.4747 -0.3918
 6381SOL    HW119571   3.865   2.325   1.483 -0.5915 -0.2389 -0.8990
 6381SOL    HW219572   3.856   2.340   1.634  0.9396 -0.7800 -0.7355
 6382SOL     OW19573   6.171   3.457   0.054  0.2731  0.2455  0.3607
 6382SOL    HW119574   6.200   3.474   0.144 -1.1570  0.3975  0.8138
 6382SOL    HW219575   6.244   3.409   0.015  1.2110  0.7778  1.3808
 6383SOL     OW19576   5.023   1.209   6.061  0.2928 -0.2004 -0.2433
 6383SOL    HW119577   4.978   1.255   6.132  2.0492 -0.2106  0.9678
 6383SOL    HW219578   5.026   1.272   5.990  2.2298  1.5061  1.2234
 6384SOL     OW19579   4.191   4.184   4.730 -0.3318 -0.3177 -0.2271
 6384SOL    HW119580   4.201   4.226   4.645 -2.3513 -0.4257 -0.5694
 6384SOL    HW219581   4.177   4.257   4.791 -2.1473 -0.3515 -0.5513
 6385SOL     OW19582   3.268   2.751   0.413  0.3267  0.4569 -0.0175
 6385SOL    HW119583   3.248   2.717   0.326 -1.2852  0.9319  0.1185
 6385SOL    HW219584   3.183   2.782   0.446  1.1359  1.4951  1.1869
 6386SOL     OW19585   1.958   4.712   0.075 -0.3978  0.2629 -0.0704
 6386SOL    HW119586   2.051   4.735   0.083 -0.1199 -1.2939  1.9641
 6386SOL    HW219587   1.915   4.763   0.143 -1.2161  1.4986 -1.4428
 6387SOL     OW19588   1.234   2.664   3.637  0.2102 -0.2256  0.3657
 6387SOL    HW119589   1.217   2.575   3.669 -1.6523  0.6071  1.8903
 6387SOL    HW219590   1.151   2.691   3.597  0.3950  1.1885  0.8793
 6388SOL     OW19591   3.311   1.887   1.223 -0.0352 -0.7598 -0.3597
 6388SOL    HW119592   3.369   1.873   1.298 -0.7287 -0.1943  0.2891
 6388SOL    HW219593   3.330   1.975   1.193  0.4233 -1.0730 -1.0274
 6389SOL     OW19594   0.537   5.919   1.532  0.1388 -0.2448 -0.0855
 6389SOL    HW119595   0.548   6.002   1.580 -1.0226 -0.2841  0.2603
 6389SOL    HW219596   0.584   5.855   1.585 -0.8697 -0.2281  0.8504
 6390SOL     OW19597   0.362   1.956   4.541  0.5104  0.3308 -0.3589
 6390SOL    HW119598   0.341   1.957   4.635  1.0647  1.0751 -0.2375
 6390SOL    HW219599   0.295   1.899   4.503  1.1865 -1.2373  0.7027
 6391SOL     OW19600   4.812   3.618   5.782  0.1733  0.1855 -0.1796
 6391SOL    HW119601   4.876   3.654   5.844  0.5282 -0.7869  0.0389
 6391SOL    HW219602   4.801   3.527   5.810  0.5879 -0.3786 -1.7389
 6392SOL     OW19603   1.387   2.799   3.432 -0.1429 -0.2177  0.0181
 6392SOL    HW119604   1.415   2.864   3.497  1.6309 -0.8008 -0.1203
 6392SOL    HW219605   1.321   2.747   3.477  2.9449 -2.4050  2.4599
 6393SOL     OW19606   0.050   6.038   6.087  1.1589  0.5822  0.1246
 6393SOL    HW119607  -0.017   6.107   6.089  1.7701  1.1712  0.8082
 6393SOL    HW219608   0.070   6.027   5.994  0.6535  0.9334 -0.0306
 6394SOL     OW19609   4.225   5.917   0.247 -0.6173  0.1345  0.6997
 6394SOL    HW119610   4.261   5.939   0.161 -0.3915 -1.0647  0.4706
 6394SOL    HW219611   4.173   5.837   0.231 -0.8462  0.0961  1.6125
 6395SOL     OW19612   1.890   4.722   0.868  0.2018 -0.5804 -0.5782
 6395SOL    HW119613   1.869   4.718   0.961 -4.6893 -0.1161 -1.3759
 6395SOL    HW219614   1.917   4.813   0.854  0.3232 -0.4772  0.2778
 6396SOL     OW19615   1.718   3.228   4.208 -0.4250  0.3962 -0.5000
 6396SOL    HW119616   1.739   3.304   4.154  1.4286  0.7478  0.6583
 6396SOL    HW219617   1.783   3.163   4.185  1.5431  1.1473  2.4323
 6397SOL     OW19618   3.985   5.012   4.682  0.0632 -0.1094  0.4889
 6397SOL    HW119619   4.010   5.104   4.675  0.4879 -0.2164  0.5380
 6397SOL    HW219620   4.069   4.965   4.687 -0.0201 -0.2100  4.6802
 6398SOL     OW19621   3.292   1.870   3.007 -0.3485 -0.8560  0.3981
 6398SOL    HW119622   3.218   1.899   3.059 -0.6000 -0.0488 -0.3969
 6398SOL    HW219623   3.362   1.933   3.027  0.1600 -1.6352  1.1780
 6399SOL     OW19624   3.183   5.686   5.796  0.0214 -0.2641  0.2837
 6399SOL    HW119625   3.171   5.687   5.701  0.3756  0.5733  0.2429
 6399SOL    HW219626   3.262   5.632   5.809 -0.2462 -0.7013  0.1394
 6400SOL     OW19627   3.391   4.652   6.191  0.2239  0.1146 -0.1670
 6400SOL    HW119628   3.393   4.628   6.098 -0.4575 -0.7191  0.0149
 6400SOL    HW219629   3.305   4.691   6.204  0.0164 -0.4576  0.2579
 6401SOL     OW19630   2.600   0.179   2.588  0.1069  0.7462  0.2518
 6401SOL    HW119631   2.544   0.119   2.538 -2.1222  3.2897 -0.5637
 6401SOL    HW219632   2.590   0.149   2.679  0.1445 -0.8964 -0.2491
 6402SOL     OW19633   3.903   3.015   4.728 -0.8639 -0.0408  0.1069
 6402SOL    HW119634   3.852   2.999   4.649 -0.9164 -1.3275  0.3681
 6402SOL    HW219635   3.989   2.978   4.708 -0.8716 -0.3574  0.6345
 6403SOL     OW19636   1.562   1.334   0.993  0.3812 -0.2163 -0.4944
 6403SOL    HW119637   1.548   1.257   0.939  0.1399 -1.0261  0.6921
 6403SOL    HW219638   1.611   1.394   0.937  1.1824 -1.4974 -1.2082
 6404SOL     OW19639   1.811   4.135   1.036 -0.0811  0.2945 -0.3391
 6404SOL    HW119640   1.810   4.085   1.118 -1.5802  0.0219 -0.4931
 6404SOL    HW219641   1.735   4.194   1.043  0.5819  1.2512 -0.9508
 6405SOL     OW19642   1.589   2.767   0.679  0.1633 -0.2388 -0.6050
 6405SOL    HW119643   1.599   2.831   0.608 -0.6964  0.1710 -0.3665
 6405SOL    HW219644   1.505   2.788   0.719 -0.7697 -2.3059 -1.3281
 6406SOL     OW19645   1.444   4.581   2.752  0.0309 -0.7829 -0.3439
 6406SOL    HW119646   1.535   4.584   2.723  0.3924 -1.7298  0.6108
 6406SOL    HW219647   1.398   4.530   2.685  0.1967 -0.3086 -0.8243
 6407SOL     OW19648   3.859   2.303   0.940 -0.0003 -0.0948 -0.1243
 6407SOL    HW119649   3.911   2.379   0.967 -0.8480  0.8325 -1.0053
 6407SOL    HW219650   3.885   2.287   0.849  0.5388 -1.1959  0.2068
 6408SOL     OW19651   1.334   4.451   0.387  0.0952 -0.5114 -0.0082
 6408SOL    HW119652   1.410   4.407   0.425  1.3769  1.2636 -0.3795
 6408SOL    HW219653   1.330   4.420   0.296  1.2345  0.3951 -0.3853
 6409SOL     OW19654   3.967   2.319   4.536 -0.5354  0.5256 -0.7130
 6409SOL    HW119655   3.918   2.395   4.566 -2.3031  0.3530 -2.9148
 6409SOL    HW219656   4.046   2.355   4.496  0.7032  0.8734  1.8226
 6410SOL     OW19657   5.908   5.791   1.718 -0.2354 -0.2787  0.3220
 6410SOL    HW119658   5.918   5.883   1.693  1.2169 -1.0276 -2.2422
 6410SOL    HW219659   5.887   5.746   1.635 -0.4648 -2.3289  1.4202
 6411SOL     OW19660   3.112   2.685   2.423 -0.2560 -0.0317 -0.1654
 6411SOL    HW119661   3.028   2.668   2.465  0.1751 -1.0587  0.3124
 6411SOL    HW219662   3.089   2.725   2.339 -1.2374 -0.6266 -0.2005
 6412SOL     OW19663   1.430   1.074   3.198 -0.1572  0.0270  0.1399
 6412SOL    HW119664   1.408   1.044   3.286  0.5048 -0.6959  0.0738
 6412SOL    HW219665   1.416   1.169   3.201 -3.4198 -0.3643  0.0152
 6413SOL     OW19666   4.822   3.333   3.676 -0.7301 -0.3536  0.3342
 6413SOL    HW119667   4.804   3.421   3.643 -1.4162 -0.7848 -0.4834
 6413SOL    HW219668   4.777   3.330   3.761 -2.0213 -0.4087 -0.3260
 6414SOL     OW19669   1.920   0.702   6.051  0.4131  0.0509  0.2268
 6414SOL    HW119670   1.841   0.740   6.091 -0.5674  0.1785 -1.7281
 6414SOL    HW219671   1.989   0.721   6.114 -1.1464 -0.3106  2.1420
 6415SOL     OW19672   1.477   0.913   4.867  0.6179 -0.0324 -0.1693
 6415SOL    HW119673   1.425   0.934   4.790 -0.1511  1.2233  0.6348
 6415SOL    HW219674   1.477   0.818   4.872  1.5804 -0.1894 -2.2795
 6416SOL     OW19675   0.042   0.368   4.941 -0.0585  0.1143 -0.1572
 6416SOL    HW119676   0.035   0.282   4.900  0.3449 -0.3938  0.7898
 6416SOL    HW219677  -0.048   0.391   4.964 -0.2533  0.2907 -1.0739
 6417SOL     OW19678   1.515   6.148   2.481 -0.1872  0.2779 -0.3708
 6417SOL    HW119679   1.571   6.171   2.407  1.6705 -1.9645  0.2294
 6417SOL    HW219680   1.565   6.083   2.531 -2.9278 -1.1676  0.7454
 6418SOL     OW19681   4.968   0.763   3.491 -0.6002 -0.4146  0.1191
 6418SOL    HW119682   4.936   0.691   3.436  0.9936 -0.1921 -1.1656
 6418SOL    HW219683   5.014   0.719   3.563 -0.4168 -0.6833 -0.1607
 6419SOL     OW19684   0.385   3.686   5.245 -0.6002 -0.0645 -0.1922
 6419SOL    HW119685   0.422   3.693   5.333 -1.4533  0.5125  0.1272
 6419SOL    HW219686   0.455   3.718   5.187 -0.6362  1.1489  0.4163
 6420SOL     OW19687   2.861   0.742   2.842 -0.1090  0.0820 -0.5203
 6420SOL    HW119688   2.916   0.683   2.894 -0.9448  1.0178  1.5025
 6420SOL    HW219689   2.827   0.805   2.904 -1.9702  0.6872 -2.0524
 6421SOL     OW19690   3.192   1.027   1.953 -0.0280 -0.1095 -0.2296
 6421SOL    HW119691   3.266   0.967   1.941  0.0645 -0.5465  2.0729
 6421SOL    HW219692   3.209   1.098   1.890  1.2555 -1.1923 -1.1709
 6422SOL     OW19693   6.104   4.750   2.429  0.7288  0.3615 -0.4161
 6422SOL    HW119694   6.023   4.791   2.462  0.4568 -0.1961 -0.3865
 6422SOL    HW219695   6.173   4.812   2.453  0.5414 -0.0107  1.1766
 6423SOL     OW19696   4.359   3.009   1.994 -0.4503  0.8153  0.3030
 6423SOL    HW119697   4.325   2.929   2.033  0.4810  0.5352  0.5578
 6423SOL    HW219698   4.359   3.072   2.066 -2.9726  1.6466 -0.3242
 6424SOL     OW19699   4.894   3.550   0.456  0.0268 -0.0031  0.7007
 6424SOL    HW119700   4.814   3.516   0.498 -0.3578  0.1314  0.0939
 6424SOL    HW219701   4.957   3.479   0.465 -1.1083 -1.4015 -1.5756
 6425SOL     OW19702   5.277   4.581   1.193  0.3332 -0.3737 -0.1093
 6425SOL    HW119703   5.365   4.543   1.186  0.4340 -0.3267  0.7349
 6425SOL    HW219704   5.261   4.585   1.287 -0.6469 -0.5294 -0.2639
 6426SOL     OW19705   0.895   4.556   6.172  0.2578  0.2826  0.0125
 6426SOL    HW119706   0.900   4.618   6.100 -0.3406  0.3618  0.0359
 6426SOL    HW219707   0.955   4.591   6.238  2.0200 -0.6088 -1.0362
 6427SOL     OW19708   5.812   3.528   5.361 -0.8845  0.8313  0.4401
 6427SOL    HW119709   5.872   3.557   5.293  0.4900  0.6841  1.5326
 6427SOL    HW219710   5.727   3.566   5.337 -0.4289  0.8300 -1.2831
 6428SOL     OW19711   5.254   1.098   1.001 -0.7045 -0.4832  0.2116
 6428SOL    HW119712   5.168   1.091   1.042 -1.3054  3.8601  0.1572
 6428SOL    HW219713   5.315   1.101   1.074 -1.1676  1.3693  0.5589
 6429SOL     OW19714   2.313   2.479   1.772  0.7934 -0.0733  0.7861
 6429SOL    HW119715   2.238   2.469   1.713 -0.5103  1.5102  2.0615
 6429SOL    HW219716   2.366   2.548   1.731 -0.5429  1.6320  1.7686
 6430SOL     OW19717   1.673   1.661   2.186 -0.0456  0.0855  0.0537
 6430SOL    HW119718   1.641   1.725   2.250 -1.9133 -0.2404 -0.4699
 6430SOL    HW219719   1.610   1.668   2.113  1.5698 -0.0838 -1.4173
 6431SOL     OW19720   2.742   4.567   0.577 -0.2330  0.2271 -0.1340
 6431SOL    HW119721   2.743   4.657   0.609 -0.2553 -0.1238  0.9035
 6431SOL    HW219722   2.816   4.562   0.516 -2.1063  1.7732 -2.6842
 6432SOL     OW19723   2.597   3.483   1.445  0.3239 -0.1373 -0.4310
 6432SOL    HW119724   2.637   3.404   1.410  0.7357 -0.3017  0.3853
 6432SOL    HW219725   2.641   3.497   1.529  0.3096  0.9930 -0.5886
 6433SOL     OW19726   6.062   3.514   4.181 -0.2258 -0.6717 -0.2233
 6433SOL    HW119727   6.039   3.426   4.211 -2.9323  0.2038  0.6188
 6433SOL    HW219728   6.015   3.523   4.098  0.4670 -0.2086 -0.5663
 6434SOL     OW19729   4.103   5.013   2.410 -0.1400 -0.6175 -0.1999
 6434SOL    HW119730   4.044   5.087   2.394 -0.3178 -0.9376 -1.0571
 6434SOL    HW219731   4.175   5.051   2.462 -0.6210 -0.0251  0.0440
 6435SOL     OW19732   4.353   0.808   2.348 -0.7643 -0.4529 -0.1056
 6435SOL    HW119733   4.425   0.868   2.331 -0.7645 -0.0906  1.0596
 6435SOL    HW219734   4.279   0.865   2.370 -1.2472 -0.8383 -0.7026
 6436SOL     OW19735   4.747   3.325   3.083  0.0842 -0.3849  0.3034
 6436SOL    HW119736   4.689   3.400   3.095  0.9761  0.6627 -1.5424
 6436SOL    HW219737   4.696   3.263   3.031 -0.1149 -0.3926  0.5062
 6437SOL     OW19738   3.675   5.232   2.809  0.3754  0.3970  0.0020
 6437SOL    HW119739   3.739   5.234   2.881 -0.0331 -1.2550  0.4663
 6437SOL    HW219740   3.683   5.144   2.773 -1.7423  0.0732  0.1829
 6438SOL     OW19741   1.338   4.836   2.771  0.4984 -0.2386  0.0156
 6438SOL    HW119742   1.345   4.741   2.771  0.9533 -0.2987 -3.4242
 6438SOL    HW219743   1.282   4.857   2.697  0.6632  2.2152  0.4917
 6439SOL     OW19744   2.761   1.602   6.112 -0.0668  0.5890  0.1540
 6439SOL    HW119745   2.843   1.560   6.138  0.0928 -1.1976 -2.7562
 6439SOL    HW219746   2.766   1.690   6.149  2.4407  0.0506  1.3165
 6440SOL     OW19747   0.003   4.179   0.879  0.9484  0.3902  0.3542
 6440SOL    HW119748   0.003   4.269   0.846  0.9164  0.6667  1.0891
 6440SOL    HW219749   0.082   4.139   0.842 -0.5745 -0.2676 -2.5362
 6441SOL     OW19750   3.799   5.456   1.245 -0.5545  0.3738 -0.1625
 6441SOL    HW119751   3.855   5.498   1.179  2.6799 -2.1329  0.7078
 6441SOL    HW219752   3.804   5.363   1.224 -1.7095 -0.2236  1.9700
 6442SOL     OW19753   1.537   2.503   3.203  0.1541 -0.0475 -0.2361
 6442SOL    HW119754   1.604   2.547   3.255  0.4449  0.0129 -0.6604
 6442SOL    HW219755   1.551   2.410   3.220 -0.2318 -0.0008  0.3781
 6443SOL     OW19756   3.986   5.652   5.983 -0.2098  0.1248  0.0589
 6443SOL    HW119757   3.924   5.616   5.920 -0.7521 -0.0929  0.7118
 6443SOL    HW219758   3.958   5.618   6.067  0.1492  0.8917  0.5026
 6444SOL     OW19759   1.666   1.391   4.191 -0.4767  0.3277 -0.4705
 6444SOL    HW119760   1.607   1.461   4.218 -0.9725  0.1134 -0.9843
 6444SOL    HW219761   1.629   1.359   4.108  0.9810  0.9501 -1.3985
 6445SOL     OW19762   1.403   5.431   1.646 -0.3051  0.1709  0.2112
 6445SOL    HW119763   1.406   5.363   1.713 -0.8555 -1.8450 -1.6818
 6445SOL    HW219764   1.368   5.387   1.568 -0.6370  2.6216 -1.1523
 6446SOL     OW19765   1.590   2.449   2.408  0.3879  0.6300  0.1690
 6446SOL    HW119766   1.570   2.531   2.454  0.4677 -0.7520  2.8540
 6446SOL    HW219767   1.662   2.411   2.458  1.2724 -0.4691 -1.8419
 6447SOL     OW19768   4.477   4.322   5.064 -0.3736 -0.0521  0.0847
 6447SOL    HW119769   4.538   4.354   4.997  0.1454 -1.5489 -0.1787
 6447SOL    HW219770   4.465   4.229   5.044 -1.7462 -0.0873  0.9091
 6448SOL     OW19771   5.078   1.244   0.183 -0.1035 -0.5549 -0.1339
 6448SOL    HW119772   5.013   1.307   0.152 -0.3711 -0.4147  0.6761
 6448SOL    HW219773   5.040   1.158   0.164 -0.8198 -0.4828  0.8592
 6449SOL     OW19774   1.499   4.774   0.301  0.9433  0.6977  0.4319
 6449SOL    HW119775   1.516   4.748   0.211 -3.5783  0.3097 -0.5448
 6449SOL    HW219776   1.504   4.693   0.351 -4.0664 -0.9102 -1.0468
 6450SOL     OW19777   4.070   4.381   4.898  0.0433  0.0664  0.1446
 6450SOL    HW119778   4.022   4.409   4.820 -0.5645 -1.2753 -0.0000
 6450SOL    HW219779   4.133   4.450   4.914 -1.0717  1.2639 -0.4452
 6451SOL     OW19780   3.444   4.272   1.637 -0.1152 -0.6152  0.4307
 6451SOL    HW119781   3.437   4.194   1.583  1.3845 -0.5932  0.1566
 6451SOL    HW219782   3.354   4.296   1.657 -0.6902 -0.9266 -1.6039
 6452SOL     OW19783   5.366   4.574   3.447 -0.8452  0.4086 -0.2715
 6452SOL    HW119784   5.341   4.581   3.539 -0.4712 -0.5905 -0.0795
 6452SOL    HW219785   5.363   4.663   3.414  1.2189  1.1478  1.3074
 6453SOL     OW19786   4.023   2.828   5.316 -0.0832 -0.2831  0.1138
 6453SOL    HW119787   4.118   2.823   5.302 -0.0107 -0.1284  0.5326
 6453SOL    HW219788   3.990   2.870   5.237  0.3835  1.1196  0.6318
 6454SOL     OW19789   3.484   5.089   3.581 -0.1014  0.3010 -0.4798
 6454SOL    HW119790   3.559   5.097   3.641 -1.6858  1.3195  1.4607
 6454SOL    HW219791   3.444   5.005   3.603 -0.6238  0.6233 -0.2038
 6455SOL     OW19792   4.425   3.384   2.111 -0.1591  0.0047 -0.1178
 6455SOL    HW119793   4.330   3.384   2.126 -0.0907  0.1718  0.3181
 6455SOL    HW219794   4.454   3.470   2.142  0.2469 -0.3428  0.4868
 6456SOL     OW19795   4.376   2.515   2.620 -0.0498 -0.1316 -0.0208
 6456SOL    HW119796   4.348   2.490   2.708 -1.8107 -0.8043 -0.7277
 6456SOL    HW219797   4.457   2.466   2.605  3.2610  3.6800  3.0100
 6457SOL     OW19798   5.224   4.349   1.566  0.1402 -0.5003  0.4866
 6457SOL    HW119799   5.278   4.309   1.498  0.3234 -1.6736  1.3051
 6457SOL    HW219800   5.238   4.444   1.555  2.0359 -0.7506  0.4108
 6458SOL     OW19801   2.001   4.874   5.522 -0.4394  0.1368 -0.3705
 6458SOL    HW119802   1.992   4.814   5.596 -0.3980  0.7015  0.1046
 6458SOL    HW219803   1.911   4.895   5.497 -0.4792  1.2112  0.5859
 6459SOL     OW19804   2.067   1.491   2.111  0.7119  0.9512  0.6715
 6459SOL    HW119805   2.026   1.577   2.126 -1.4755 -0.0945  1.2150
 6459SOL    HW219806   2.060   1.447   2.196 -1.9250 -1.1492 -0.4652
 6460SOL     OW19807   0.731   2.163   2.892 -0.7170  0.1559 -0.7492
 6460SOL    HW119808   0.683   2.244   2.875 -1.5446 -0.4539 -1.4131
 6460SOL    HW219809   0.770   2.141   2.808  3.2275  2.1309  0.3302
 6461SOL     OW19810   6.211   2.919   4.689 -0.1897 -0.2485  0.2826
 6461SOL    HW119811   6.217   2.860   4.614  0.1219  0.1978 -0.0560
 6461SOL    HW219812   6.203   2.862   4.765 -0.0035 -0.7203 -0.0491
 6462SOL     OW19813   0.867   0.282   6.123 -0.0168  0.0869 -0.4617
 6462SOL    HW119814   0.854   0.231   6.043  1.7884 -0.1914 -0.6129
 6462SOL    HW219815   0.818   0.233   6.190 -1.7257  0.4423 -1.3891
 6463SOL     OW19816   2.460   4.079   1.775 -0.1479  0.2684 -0.0711
 6463SOL    HW119817   2.505   4.142   1.719  2.2230 -1.4453 -0.2283
 6463SOL    HW219818   2.527   4.048   1.835 -1.2779 -1.9089  0.1498
 6464SOL     OW19819   3.021   5.632   2.565  0.5379 -0.0296 -0.3820
 6464SOL    HW119820   2.984   5.673   2.644  2.0847 -0.2243  0.4834
 6464SOL    HW219821   2.947   5.625   2.505 -0.1586  2.4354  0.0811
 6465SOL     OW19822   6.210   5.089   0.458  0.0668  0.1332  0.0716
 6465SOL    HW119823   6.260   5.171   0.461 -0.2939  0.3474  0.4317
 6465SOL    HW219824   6.195   5.068   0.551 -0.1612 -0.1408 -0.0282
 6466SOL     OW19825   3.686   0.865   5.022  0.0453  0.5380 -0.1627
 6466SOL    HW119826   3.781   0.853   5.019 -0.0117  0.2368 -1.9396
 6466SOL    HW219827   3.666   0.917   4.945 -1.3088  0.0257 -0.1920
 6467SOL     OW19828   1.833   5.839   5.795  0.6617  0.3377 -0.4248
 6467SOL    HW119829   1.903   5.778   5.773  2.8648  2.6714 -0.3073
 6467SOL    HW219830   1.872   5.899   5.859 -2.0090  0.6995  1.0024
 6468SOL     OW19831   1.399   1.243   3.911  0.0793  0.2202 -0.1268
 6468SOL    HW119832   1.391   1.329   3.953  0.2395  0.1851 -0.0227
 6468SOL    HW219833   1.375   1.258   3.820  1.4257  0.6645 -0.4372
 6469SOL     OW19834   6.070   4.244   6.072  0.7041 -0.1290  0.2281
 6469SOL    HW119835   6.037   4.156   6.055  3.2791 -0.7928 -2.2261
 6469SOL    HW219836   6.027   4.272   6.152  0.8827 -4.2043  1.9465
 6470SOL     OW19837   2.467   0.165   1.705 -0.0153 -0.2434  0.6374
 6470SOL    HW119838   2.453   0.230   1.773 -1.5036  1.2162 -0.9515
 6470SOL    HW219839   2.562   0.155   1.700  0.3403  2.5244  0.3489
 6471SOL     OW19840   0.173   3.859   4.346 -0.0927  0.7259 -0.3821
 6471SOL    HW119841   0.121   3.895   4.418  0.6033  0.6083  0.1786
 6471SOL    HW219842   0.200   3.936   4.296  0.6276  0.9268  0.2999
 6472SOL     OW19843   1.747   4.786   2.967  0.6326 -0.5227  0.2056
 6472SOL    HW119844   1.734   4.778   2.873 -1.1932  0.1015  0.3757
 6472SOL    HW219845   1.724   4.700   3.002 -1.4895  0.0308  0.3124
 6473SOL     OW19846   2.880   0.165   1.475 -0.4908  0.0552  0.2852
 6473SOL    HW119847   2.834   0.231   1.424 -1.7239  0.4909  1.8712
 6473SOL    HW219848   2.916   0.105   1.409 -1.2402  1.0619 -1.1042
 6474SOL     OW19849   0.320   2.233   3.379  0.0492 -0.1334 -0.1194
 6474SOL    HW119850   0.227   2.211   3.382  0.1892 -0.6209  0.9594
 6474SOL    HW219851   0.324   2.311   3.323 -0.9462 -0.3596 -0.5326
 6475SOL     OW19852   1.734   1.122   1.684 -0.4171 -0.1242 -0.1084
 6475SOL    HW119853   1.666   1.130   1.751 -1.0461 -1.8592 -0.4756
 6475SOL    HW219854   1.804   1.073   1.728 -0.9457 -1.5094 -0.7589
 6476SOL     OW19855   4.130   5.721   0.669  0.4253  0.3830  0.2862
 6476SOL    HW119856   4.163   5.709   0.758 -0.2888 -0.1336  0.4895
 6476SOL    HW219857   4.134   5.816   0.655 -1.9856  0.7933  1.8918
 6477SOL     OW19858   1.009   0.363   2.882 -0.4858  0.1661 -0.6465
 6477SOL    HW119859   1.052   0.398   2.960 -1.6664  0.1643  0.0400
 6477SOL    HW219860   0.940   0.427   2.862 -1.2295 -0.6299 -0.7117
 6478SOL     OW19861   2.755   0.086   0.705 -0.1284 -0.2487  0.4083
 6478SOL    HW119862   2.848   0.071   0.722  0.1974 -1.0656 -1.8215
 6478SOL    HW219863   2.753   0.160   0.645 -0.8823 -0.4952  0.1151
 6479SOL     OW19864   2.244   3.503   5.568  0.3545 -0.4647  0.2508
 6479SOL    HW119865   2.234   3.570   5.500  1.0478 -0.7143 -0.1131
 6479SOL    HW219866   2.257   3.422   5.519 -1.7150 -1.1036  0.6748
 6480SOL     OW19867   6.203   5.349   3.470 -0.0335 -0.1954  0.2197
 6480SOL    HW119868   6.290   5.347   3.511  0.0028 -1.3296  0.1344
 6480SOL    HW219869   6.221   5.342   3.376 -0.2290 -1.3433  0.2532
 6481SOL     OW19870   1.382   1.915   4.788  0.3201  0.0659  0.1160
 6481SOL    HW119871   1.347   1.842   4.737  0.2161  1.1003 -1.3661
 6481SOL    HW219872   1.389   1.881   4.877  1.3358 -2.1004 -0.7222
 6482SOL     OW19873   2.555   4.740   0.421  0.3813  0.0051 -0.0752
 6482SOL    HW119874   2.546   4.747   0.516  1.4623  0.4714  0.0095
 6482SOL    HW219875   2.644   4.772   0.403 -0.1485  0.8330 -1.3461
 6483SOL     OW19876   0.297   6.217   6.144  0.8342  0.6272  0.5155
 6483SOL    HW119877   0.253   6.141   6.183  1.0563  0.5613  0.6385
 6483SOL    HW219878   0.234   6.289   6.156  1.3102  0.8518  1.9538
 6484SOL     OW19879   3.112   4.464   5.473 -0.1389 -0.1251 -0.6421
 6484SOL    HW119880   3.182   4.530   5.476  0.0772 -0.3899  0.8668
 6484SOL    HW219881   3.038   4.510   5.432  0.7884  0.2451 -1.9867
 6485SOL     OW19882   3.883   5.778   0.205  0.9097 -0.0293  0.1261
 6485SOL    HW119883   3.911   5.730   0.283  0.3095 -0.1223  0.2893
 6485SOL    HW219884   3.793   5.804   0.224  0.3714 -0.9877 -0.9625
 6486SOL     OW19885   5.352   2.817   4.125 -0.9062  1.1492 -0.7197
 6486SOL    HW119886   5.442   2.822   4.092 -0.8517 -1.3550 -1.1364
 6486SOL    HW219887   5.337   2.724   4.141 -3.1842  1.5821  0.0734
 6487SOL     OW19888   3.862   1.331   5.760  0.1261 -0.1963 -0.2609
 6487SOL    HW119889   3.812   1.297   5.834  1.5773 -0.3471  0.7110
 6487SOL    HW219890   3.909   1.407   5.796  2.2259 -1.3053 -0.4941
 6488SOL     OW19891   5.850   5.184   0.826 -0.0758  0.3681 -0.1536
 6488SOL    HW119892   5.778   5.238   0.795 -0.2141  0.9108  1.0562
 6488SOL    HW219893   5.838   5.180   0.921  2.0599  1.3166  0.2107
 6489SOL     OW19894   0.347   4.394   4.243  0.0728  0.5170 -0.5578
 6489SOL    HW119895   0.297   4.403   4.161  1.2545  2.7649 -1.1147
 6489SOL    HW219896   0.288   4.349   4.302 -1.3684  0.1179 -2.2115
 6490SOL     OW19897   0.499   1.204   0.145  0.0292  0.2447 -0.2582
 6490SOL    HW119898   0.458   1.279   0.187  1.5752  1.8527 -1.4667
 6490SOL    HW219899   0.512   1.140   0.215  0.4572  1.9033  1.2330
 6491SOL     OW19900   4.681   5.344   3.202  0.1404 -0.2019 -0.2520
 6491SOL    HW119901   4.736   5.289   3.145  1.2643 -0.4899  1.0462
 6491SOL    HW219902   4.643   5.283   3.265 -0.3609  0.2286 -0.1305
 6492SOL     OW19903   0.059   2.265   4.447  0.1192  0.5035  0.2045
 6492SOL    HW119904   0.155   2.262   4.450  0.1374 -0.3054 -0.7210
 6492SOL    HW219905   0.033   2.270   4.539  1.0438  0.6080  0.4772
 6493SOL     OW19906   4.560   2.129   2.184  0.0638 -0.5099  0.4128
 6493SOL    HW119907   4.492   2.062   2.184  1.1402 -1.6500  1.0483
 6493SOL    HW219908   4.635   2.087   2.226  1.5457  0.3045 -1.2517
 6494SOL     OW19909   0.159   5.659   2.302 -0.1709  0.1492 -0.1667
 6494SOL    HW119910   0.077   5.609   2.294 -0.2274  0.2437 -0.1870
 6494SOL    HW219911   0.135   5.735   2.355  0.0116 -0.0499  0.2024
 6495SOL     OW19912   0.312   1.079   5.118 -0.1522  0.0942 -0.1768
 6495SOL    HW119913   0.263   1.126   5.050 -1.7153 -0.9567  0.1687
 6495SOL    HW219914   0.347   1.147   5.174 -2.0124  0.9151  0.0832
 6496SOL     OW19915   2.546   4.143   5.152  0.2728 -0.2905 -0.0871
 6496SOL    HW119916   2.546   4.130   5.247 -0.0939  0.5398  0.0408
 6496SOL    HW219917   2.461   4.112   5.124  0.2424 -0.2050 -0.0904
 6497SOL     OW19918   0.834   1.210   5.472 -0.5312  0.6188  0.0346
 6497SOL    HW119919   0.865   1.230   5.560 -1.3278  1.5478  0.1123
 6497SOL    HW219920   0.768   1.277   5.453 -0.8936  0.0012 -0.9853
 6498SOL     OW19921   1.649   4.521   1.550 -0.2265 -0.2790 -0.0577
 6498SOL    HW119922   1.609   4.447   1.503 -0.8562  1.0380 -1.6795
 6498SOL    HW219923   1.575   4.565   1.591 -0.1725  0.7873 -1.0662
 6499SOL     OW19924   4.491   3.565   3.535  0.0025  0.0697  0.3933
 6499SOL    HW119925   4.517   3.533   3.449 -1.7037 -2.1514  0.6279
 6499SOL    HW219926   4.489   3.660   3.526  0.7966 -0.0749 -1.7181
 6500SOL     OW19927   2.620   1.819   1.974 -0.2311  0.2531  0.6502
 6500SOL    HW119928   2.525   1.817   1.966 -0.1834 -0.2965  0.1492
 6500SOL    HW219929   2.650   1.852   1.889  0.1342 -2.0803 -0.2004
 6501SOL     OW19930   0.325   0.982   3.109  0.3384  0.1158 -0.2359
 6501SOL    HW119931   0.387   0.934   3.163  1.7741  0.3363 -1.6076
 6501SOL    HW219932   0.375   1.056   3.074 -0.8166  0.5546 -1.0531
 6502SOL     OW19933   2.435   5.420   1.387 -0.3102  0.0035  0.1618
 6502SOL    HW119934   2.496   5.441   1.316  0.7561  1.1208  1.3548
 6502SOL    HW219935   2.351   5.456   1.358  0.5593  2.3399  0.3012
 6503SOL     OW19936   5.035   3.296   6.073 -0.4534 -0.3207 -0.6275
 6503SOL    HW119937   4.982   3.361   6.119  0.2921 -0.2253  0.1333
 6503SOL    HW219938   4.974   3.227   6.050 -0.7398 -0.7619  1.2474
 6504SOL     OW19939   0.380   2.147   4.337  0.0494 -0.4580 -0.0704
 6504SOL    HW119940   0.370   2.226   4.391  0.8821 -0.9193  0.7805
 6504SOL    HW219941   0.389   2.076   4.400  0.2383 -1.1199 -0.8325
 6505SOL     OW19942   1.365   5.783   2.453  0.5826  0.0380 -0.5917
 6505SOL    HW119943   1.280   5.738   2.450  0.4422  0.2311  0.2236
 6505SOL    HW219944   1.347   5.864   2.501  0.9447  0.7347 -1.6072
 6506SOL     OW19945   4.609   3.468   4.035 -0.2098  0.5984  0.5387
 6506SOL    HW119946   4.570   3.535   4.092 -1.1876 -0.5135  1.2244
 6506SOL    HW219947   4.556   3.470   3.956 -1.3344 -0.4766  1.2219
 6507SOL     OW19948   2.522   2.745   5.199 -0.2132 -0.3023 -0.1407
 6507SOL    HW119949   2.486   2.822   5.156 -0.1986  0.8665  1.8641
 6507SOL    HW219950   2.517   2.676   5.132  0.4270  1.5643 -2.2246
 6508SOL     OW19951   1.717   3.472   1.363  0.6254  0.6160 -0.0430
 6508SOL    HW119952   1.702   3.425   1.444 -2.1363  0.7049 -0.4092
 6508SOL    HW219953   1.710   3.564   1.387  0.9515  0.6833 -0.1978
 6509SOL     OW19954   2.867   4.674   3.462  0.1577 -0.3394 -0.0149
 6509SOL    HW119955   2.776   4.656   3.486 -0.2868  0.1105 -1.2492
 6509SOL    HW219956   2.905   4.587   3.446  0.5283 -0.6646  2.3351
 6510SOL     OW19957   5.179   3.121   0.877  0.4025  0.1261  0.1981
 6510SOL    HW119958   5.140   3.050   0.927 -1.1552  0.3961 -0.5788
 6510SOL    HW219959   5.202   3.082   0.793 -0.4631  0.5208 -0.2329
 6511SOL     OW19960   4.275   3.149   3.591 -1.0126 -0.5803  0.0808
 6511SOL    HW119961   4.273   3.138   3.496  0.8466  1.6939 -0.3059
 6511SOL    HW219962   4.366   3.133   3.615 -0.9597  1.0662  1.1228
 6512SOL     OW19963   1.969   1.208   2.713  0.6950 -0.6949  0.3395
 6512SOL    HW119964   2.006   1.237   2.796  1.3495 -0.2274 -0.1058
 6512SOL    HW219965   1.994   1.116   2.706  1.6257 -0.4431  0.1461
 6513SOL     OW19966   4.318   5.347   0.662 -0.2566 -0.0908  0.6752
 6513SOL    HW119967   4.251   5.279   0.667 -1.5627  1.2082  2.1099
 6513SOL    HW219968   4.315   5.390   0.748  2.1028  0.3374  0.6151
 6514SOL     OW19969   2.437   5.688   5.142  0.3117 -0.7510  0.7081
 6514SOL    HW119970   2.431   5.696   5.237  0.5273  1.2437  0.5915
 6514SOL    HW219971   2.347   5.688   5.112  0.2380 -1.5618  0.9104
 6515SOL     OW19972   0.416   5.649   3.667  0.0184 -0.2916 -0.2416
 6515SOL    HW119973   0.467   5.688   3.596  2.9214 -1.3480  1.0978
 6515SOL    HW219974   0.364   5.581   3.624 -1.9145  2.0816 -1.9504
 6516SOL     OW19975   1.041   2.746   0.906 -0.3421 -0.4516 -0.5121
 6516SOL    HW119976   1.007   2.683   0.842  1.1286 -0.5618 -1.2246
 6516SOL    HW219977   1.054   2.826   0.855 -0.1509 -0.2198 -0.1033
 6517SOL     OW19978   1.350   5.347   0.798  0.0798 -0.3744 -0.4526
 6517SOL    HW119979   1.401   5.268   0.778  0.1832 -0.4911  0.2315
 6517SOL    HW219980   1.342   5.346   0.894  2.3837  1.8374 -0.1225
 6518SOL     OW19981   2.399   6.069   1.339  0.6057  0.7691  0.3887
 6518SOL    HW119982   2.343   6.028   1.405 -0.9906  1.7618 -0.3053
 6518SOL    HW219983   2.470   6.006   1.326 -0.3635 -0.5597  1.2661
 6519SOL     OW19984   3.863   4.175   0.129 -0.6527 -0.6875 -0.1713
 6519SOL    HW119985   3.931   4.238   0.108  0.9686 -1.5841  1.9826
 6519SOL    HW219986   3.858   4.117   0.053  1.7906 -1.2433  0.0344
 6520SOL     OW19987   3.691   3.144   5.587 -0.3373  0.4546  0.5714
 6520SOL    HW119988   3.661   3.169   5.674 -0.7291  0.8217  0.3359
 6520SOL    HW219989   3.690   3.226   5.537 -1.5092  0.0199 -0.1818
 6521SOL     OW19990   4.924   0.246   0.086 -0.0476 -0.3726 -0.1377
 6521SOL    HW119991   4.994   0.310   0.104 -1.7633  1.3645  0.7569
 6521SOL    HW219992   4.920   0.242  -0.010  1.5525 -0.8464 -0.2066
 6522SOL     OW19993   2.982   3.048   4.402 -0.4927 -0.7782  0.2171
 6522SOL    HW119994   2.938   3.110   4.459  0.1060  0.3196 -0.4679
 6522SOL    HW219995   2.934   3.054   4.319  1.1078  0.7685 -0.6847
 6523SOL     OW19996   6.180   5.848   0.009 -0.4515  0.1930  0.0145
 6523SOL    HW119997   6.177   5.890   0.095  1.1300 -1.5912  1.0023
 6523SOL    HW219998   6.225   5.911  -0.047 -0.5762  0.9513  0.7441
 6524SOL     OW19999   4.497   2.459   0.874  0.1758  0.5792  0.1837
 6524SOL    HW120000   4.462   2.471   0.786 -0.7272 -0.4724  0.3712
 6524SOL    HW220001   4.497   2.546   0.913 -0.2235  0.9187 -0.5689
 6525SOL     OW20002   1.148   3.045   3.751 -0.4603  0.3387  0.4392
 6525SOL    HW120003   1.081   3.114   3.750 -0.3384  0.4603 -1.1856
 6525SOL    HW220004   1.148   3.010   3.662 -0.5500 -1.8266  1.2391
 6526SOL     OW20005   2.724   0.514   4.641 -0.0352  0.1026 -0.0273
 6526SOL    HW120006   2.797   0.485   4.587  0.6009  1.1548  0.2315
 6526SOL    HW220007   2.681   0.433   4.670  1.4646 -0.5595  0.4249
 6527SOL     OW20008   2.368   0.864   3.599  0.1158  0.1545  0.3456
 6527SOL    HW120009   2.309   0.896   3.530 -0.4737  0.1331  0.8334
 6527SOL    HW220010   2.324   0.787   3.634 -0.2569  0.9341  1.6636
 6528SOL     OW20011   0.067   0.577   3.144 -0.2939  0.1296 -0.9281
 6528SOL    HW120012   0.081   0.528   3.226 -2.1274 -1.3102 -1.3932
 6528SOL    HW220013   0.041   0.664   3.173  0.0307 -0.0647 -0.0019
 6529SOL     OW20014   0.118   2.886   2.233 -0.3465 -0.2696 -0.0175
 6529SOL    HW120015   0.091   2.806   2.189 -0.1689 -0.0303 -0.5785
 6529SOL    HW220016   0.212   2.893   2.213 -0.0830 -0.5835  1.0854
 6530SOL     OW20017   4.275   2.217   4.132 -0.4892  0.1296  0.1806
 6530SOL    HW120018   4.269   2.143   4.193  0.0624  0.7635  1.0336
 6530SOL    HW220019   4.341   2.274   4.171  0.3976  0.2228 -1.3976
 6531SOL     OW20020   2.922   0.274   5.918 -0.6592 -0.1493  0.3741
 6531SOL    HW120021   2.930   0.359   5.876  0.3673 -0.0262  0.7832
 6531SOL    HW220022   2.999   0.225   5.889  1.0045  0.5069  3.3025
 6532SOL     OW20023   0.516   1.593   4.095  0.1280  0.3483  0.4662
 6532SOL    HW120024   0.548   1.576   4.184 -0.9288  0.3587  0.8531
 6532SOL    HW220025   0.433   1.638   4.107 -1.0289 -1.4243 -0.4922
 6533SOL     OW20026   3.530   5.104   4.207 -0.0489  0.1516  0.1712
 6533SOL    HW120027   3.436   5.091   4.220 -0.2588  2.1955  1.0477
 6533SOL    HW220028   3.550   5.054   4.127 -1.4925 -1.7292  0.9001
 6534SOL     OW20029   5.261   4.124   3.421 -0.2384  0.2780  0.4723
 6534SOL    HW120030   5.230   4.153   3.335 -1.7776  1.9417  1.5201
 6534SOL    HW220031   5.251   4.201   3.477  3.9431  0.3933  1.4512
 6535SOL     OW20032   5.685   1.040   5.666  0.3017 -0.2575 -0.0431
 6535SOL    HW120033   5.624   0.978   5.627  0.0181 -0.4526  0.6945
 6535SOL    HW220034   5.675   1.119   5.612 -1.3352  0.0527  0.6382
 6536SOL     OW20035   3.131   3.831   3.126  0.2217 -0.4974  0.1527
 6536SOL    HW120036   3.099   3.921   3.116 -0.5980 -0.6775  1.0187
 6536SOL    HW220037   3.225   3.836   3.107  0.3457  0.6954  0.9990
 6537SOL     OW20038   2.915   3.145   0.872  0.2968 -0.2769  0.5912
 6537SOL    HW120039   2.996   3.121   0.828  0.0373  0.3661 -0.2717
 6537SOL    HW220040   2.882   3.063   0.910  1.4124 -0.5118  1.0824
 6538SOL     OW20041   5.949   3.501   3.921  0.4586 -0.1275  0.0145
 6538SOL    HW120042   5.872   3.550   3.890  2.7034  2.5681 -1.7328
 6538SOL    HW220043   5.957   3.428   3.859 -0.1740  0.0587 -0.3000
 6539SOL     OW20044   5.373   4.320   3.634 -0.5944  1.0279  0.1023
 6539SOL    HW120045   5.285   4.350   3.610 -0.9420  1.3900  1.6664
 6539SOL    HW220046   5.368   4.309   3.729  0.9632  0.7318  0.1628
 6540SOL     OW20047   4.353   0.274   6.169 -0.1670  0.7297 -0.3747
 6540SOL    HW120048   4.375   0.335   6.099  0.0996 -1.9801 -2.8542
 6540SOL    HW220049   4.406   0.197   6.151 -1.4824 -0.8041  1.7782
 6541SOL     OW20050   4.261   3.750   2.173  0.2034  0.5016  0.0716
 6541SOL    HW120051   4.267   3.730   2.266 -0.7460  1.0465  0.2680
 6541SOL    HW220052   4.350   3.773   2.147  0.9087 -1.6766  0.3514
 6542SOL     OW20053   0.885   5.166   0.285 -0.2860 -0.4702  0.0372
 6542SOL    HW120054   0.889   5.249   0.333 -1.1658 -0.9394  0.9345
 6542SOL    HW220055   0.806   5.173   0.231 -0.1331 -0.5669 -0.2024
 6543SOL     OW20056   3.924   3.748   4.026 -0.1680 -0.6462  0.4300
 6543SOL    HW120057   3.977   3.672   4.002  0.2027  0.3748 -2.3099
 6543SOL    HW220058   3.837   3.728   3.991 -0.2933 -0.2176  0.4896
 6544SOL     OW20059   1.228   3.513   5.350  0.2156  0.1739  0.3195
 6544SOL    HW120060   1.165   3.505   5.422 -0.1930 -1.0892 -0.1630
 6544SOL    HW220061   1.218   3.433   5.300  1.0072  0.7260 -0.7559
 6545SOL     OW20062   1.844   5.925   1.075  0.2686  0.3789 -0.7606
 6545SOL    HW120063   1.819   6.017   1.067  1.1503  0.5704 -1.4494
 6545SOL    HW220064   1.855   5.911   1.169  0.2075  0.9981 -0.6579
 6546SOL     OW20065   2.275   1.587   4.916 -0.0372  0.0184 -0.0791
 6546SOL    HW120066   2.196   1.639   4.930 -0.4537 -0.6412  0.0613
 6546SOL    HW220067   2.246   1.496   4.926  0.7975 -0.2167  0.2536
 6547SOL     OW20068   4.775   5.099   2.532 -0.1700 -0.2102 -0.1059
 6547SOL    HW120069   4.743   5.184   2.502 -1.0440 -0.4210  0.2017
 6547SOL    HW220070   4.729   5.035   2.477  0.1956 -0.4994 -0.0792
 6548SOL     OW20071   2.068   6.034   6.004  0.1257 -0.8076 -0.3533
 6548SOL    HW120072   2.091   5.941   6.007 -0.1671 -0.8668  1.1420
 6548SOL    HW220073   2.152   6.080   6.012  0.2901 -0.9350 -1.3103
 6549SOL     OW20074   3.771   6.233   2.631 -0.1593 -0.3981 -0.6525
 6549SOL    HW120075   3.865   6.245   2.627 -0.2718  0.8420 -0.0802
 6549SOL    HW220076   3.735   6.321   2.616 -1.2013 -0.7588 -0.3507
 6550SOL     OW20077   0.776   2.179   2.156 -1.0880  0.2963 -0.1504
 6550SOL    HW120078   0.726   2.104   2.122 -2.1472  0.6689  0.5323
 6550SOL    HW220079   0.725   2.210   2.231  0.7577  0.0245  1.2835
 6551SOL     OW20080   1.158   0.909   1.635 -0.0287  0.0773  0.1508
 6551SOL    HW120081   1.161   0.885   1.727  0.1263  1.7492  0.6224
 6551SOL    HW220082   1.169   1.004   1.634 -1.4605  0.3023 -1.4851
 6552SOL     OW20083   0.390   4.698   0.424  0.2037 -0.1943 -0.0345
 6552SOL    HW120084   0.336   4.774   0.405  0.4009  0.1645  0.8040
 6552SOL    HW220085   0.350   4.658   0.502  0.8086 -0.2414  0.2621
 6553SOL     OW20086   6.029   2.081   2.834  0.0842 -0.0170  0.2939
 6553SOL    HW120087   6.049   1.997   2.877 -0.1635 -0.2865 -0.1068
 6553SOL    HW220088   6.066   2.072   2.746  3.4033  1.7048  1.3328
 6554SOL     OW20089   5.800   5.888   0.130 -0.5664  0.8494 -0.0324
 6554SOL    HW120090   5.855   5.914   0.205 -0.5203 -0.7021  0.5065
 6554SOL    HW220091   5.838   5.805   0.100 -2.2947 -0.0206  0.0458
 6555SOL     OW20092   4.799   2.987   1.929  0.1559  0.1092 -0.4010
 6555SOL    HW120093   4.809   2.992   1.834  2.3614 -2.2232 -0.4103
 6555SOL    HW220094   4.736   2.915   1.943 -1.1377  1.2584 -0.0452
 6556SOL     OW20095   1.950   1.177   5.039 -0.1389  0.6572  0.4057
 6556SOL    HW120096   1.925   1.196   5.130  1.3915  2.8928  0.4188
 6556SOL    HW220097   1.867   1.170   4.992 -0.9223  1.9243  1.5333
 6557SOL     OW20098   4.802   1.727   3.784  0.0366  0.3488  0.1720
 6557SOL    HW120099   4.759   1.703   3.866  1.3884 -3.2709  0.0284
 6557SOL    HW220100   4.860   1.799   3.807 -2.5901  2.2046  1.3721
 6558SOL     OW20101   4.148   4.570   2.899 -0.3349 -0.3210 -0.2484
 6558SOL    HW120102   4.214   4.527   2.954  0.6040  0.9544 -0.3248
 6558SOL    HW220103   4.113   4.640   2.955 -0.6266 -0.1229 -0.6782
 6559SOL     OW20104   4.353   1.786   0.123  0.5977  0.7161  0.8752
 6559SOL    HW120105   4.401   1.763   0.203  0.1423  0.4678  1.0802
 6559SOL    HW220106   4.321   1.874   0.139  1.4213  1.0840  0.5287
 6560SOL     OW20107   5.714   0.909   0.030 -0.2747 -0.3947 -0.6817
 6560SOL    HW120108   5.762   0.992   0.030 -0.4823 -0.0629  3.1843
 6560SOL    HW220109   5.622   0.935   0.018 -0.2308 -0.1698 -0.5461
 6561SOL     OW20110   5.162   0.942   4.750 -0.3172 -0.1391 -0.6291
 6561SOL    HW120111   5.076   0.977   4.729 -1.1132 -1.4056  0.3491
 6561SOL    HW220112   5.180   0.975   4.838  0.2113  0.1313 -0.8355
 6562SOL     OW20113   2.505   0.210   3.418  0.1711 -0.2093 -0.1356
 6562SOL    HW120114   2.551   0.130   3.444  0.5989 -0.1996 -0.8432
 6562SOL    HW220115   2.568   0.280   3.434  0.8753 -0.3025 -2.1708
 6563SOL     OW20116   4.751   4.362   3.796  0.1251  0.2303  0.2755
 6563SOL    HW120117   4.695   4.300   3.844  1.0355  0.4496  1.6572
 6563SOL    HW220118   4.840   4.340   3.823  0.8265 -0.5203 -2.3646
 6564SOL     OW20119   5.157   2.585   5.904 -0.4705 -0.4173  0.7563
 6564SOL    HW120120   5.072   2.630   5.911 -1.1463 -1.6637  0.7992
 6564SOL    HW220121   5.194   2.617   5.822 -1.4474 -0.6197  0.2212
 6565SOL     OW20122   1.569   6.026   0.808  0.1603 -0.0058  0.2218
 6565SOL    HW120123   1.513   6.065   0.741 -1.5090 -0.3642  1.3412
 6565SOL    HW220124   1.602   6.101   0.858  0.9757  0.2254 -0.6351
 6566SOL     OW20125   4.331   1.597   3.482 -0.6523  0.1748  0.2793
 6566SOL    HW120126   4.404   1.643   3.440 -0.9145 -0.7397 -1.2975
 6566SOL    HW220127   4.366   1.510   3.501 -1.3855 -0.3701 -0.7687
 6567SOL     OW20128   0.658   1.086   2.050  0.1095  0.9586 -0.1515
 6567SOL    HW120129   0.715   1.016   2.017  0.7122  1.2937  0.1665
 6567SOL    HW220130   0.599   1.042   2.110  2.2541  1.0970  2.2140
 6568SOL     OW20131   4.032   3.272   3.106 -0.3622 -0.0687 -0.1148
 6568SOL    HW120132   4.093   3.229   3.047 -0.4740  0.1282 -0.3758
 6568SOL    HW220133   4.073   3.265   3.192  0.1616  0.3035 -0.3322
 6569SOL     OW20134   3.345   2.378   4.862 -0.3560  0.0260  0.4949
 6569SOL    HW120135   3.349   2.414   4.773  1.3641  0.9545  0.9016
 6569SOL    HW220136   3.435   2.351   4.881 -0.9416 -1.3618  1.5044
 6570SOL     OW20137   5.511   5.538   0.823  0.1111 -0.1191  0.1789
 6570SOL    HW120138   5.476   5.457   0.860 -0.6045 -0.3004 -0.8504
 6570SOL    HW220139   5.456   5.555   0.746  0.3589  1.2470  0.2700
 6571SOL     OW20140   3.280   5.412   2.767  0.3401  0.0125  0.0933
 6571SOL    HW120141   3.298   5.364   2.848  1.0338  1.7064  1.0090
 6571SOL    HW220142   3.201   5.463   2.786 -0.5641 -0.9599 -0.9638
 6572SOL     OW20143   1.648   4.444   5.971  0.2311 -0.5183  0.0773
 6572SOL    HW120144   1.722   4.386   5.952  1.5972 -0.1094  3.4111
 6572SOL    HW220145   1.689   4.524   6.004 -1.7191  0.5642  0.0047
 6573SOL     OW20146   0.112   2.545   3.098  0.2894  0.9196 -0.2278
 6573SOL    HW120147   0.028   2.590   3.112  0.0380  0.0851  1.2064
 6573SOL    HW220148   0.093   2.454   3.121  0.4684 -0.2835 -4.1757
 6574SOL     OW20149   4.968   4.500   0.701 -0.5619  0.1844 -0.1020
 6574SOL    HW120150   4.956   4.568   0.634 -2.7069 -1.5468 -1.6126
 6574SOL    HW220151   4.986   4.420   0.651 -0.2768 -0.8061  1.5212
 6575SOL     OW20152   2.816   5.749   4.598 -0.4098 -0.1416  0.4331
 6575SOL    HW120153   2.734   5.798   4.592 -0.7988 -0.7788  0.4701
 6575SOL    HW220154   2.790   5.663   4.632  0.0402 -0.9186 -1.0917
 6576SOL     OW20155   2.319   0.065   0.784 -0.4665  0.3221  0.1517
 6576SOL    HW120156   2.284   0.152   0.765 -1.6855  0.0416  0.9736
 6576SOL    HW220157   2.290   0.012   0.709 -3.0570 -0.2037  1.4120
 6577SOL     OW20158   2.154   0.031   1.285 -0.1942 -0.4867  0.5830
 6577SOL    HW120159   2.107   0.114   1.293 -1.4609 -1.1064 -0.1752
 6577SOL    HW220160   2.112  -0.027   1.348 -0.9225 -1.2354 -0.5465
 6578SOL     OW20161   6.038   0.494   2.988 -0.2435  0.1282 -0.3245
 6578SOL    HW120162   5.974   0.552   3.030 -0.5724  0.9127 -1.8262
 6578SOL    HW220163   5.988   0.418   2.959 -0.0647 -0.2937  0.4619
 6579SOL     OW20164   1.172   0.934   2.563  0.2052  0.4469 -0.1747
 6579SOL    HW120165   1.175   1.028   2.581 -0.4452  0.2639  0.9603
 6579SOL    HW220166   1.260   0.913   2.530  0.5680  1.3164  0.2099
 6580SOL     OW20167   3.403   0.084   0.455 -0.0118  0.8342 -0.1738
 6580SOL    HW120168   3.396   0.052   0.544 -1.2085  0.9223 -0.2285
 6580SOL    HW220169   3.313   0.105   0.429  0.3219  0.8608 -1.3761
 6581SOL     OW20170   1.242   4.894   5.609 -0.0960 -0.6303 -0.1990
 6581SOL    HW120171   1.298   4.816   5.607  0.2104 -0.6506  2.9759
 6581SOL    HW220172   1.291   4.956   5.663 -1.0354  1.2016 -1.3825
 6582SOL     OW20173   5.335   2.539   1.026 -0.5742 -0.4649  0.4066
 6582SOL    HW120174   5.274   2.576   0.962 -0.3293 -2.4530 -1.0757
 6582SOL    HW220175   5.280   2.516   1.101 -0.8074  2.2764  1.1851
 6583SOL     OW20176   2.260   3.129   5.588  0.3446 -0.5252  0.1641
 6583SOL    HW120177   2.243   3.186   5.513  0.3527 -0.6906  0.0352
 6583SOL    HW220178   2.355   3.113   5.584  0.3353 -0.5844  0.1729
 6584SOL     OW20179   3.333   4.355   4.600  0.8173  0.1941  0.3991
 6584SOL    HW120180   3.365   4.352   4.690  0.9390 -0.2598  0.3388
 6584SOL    HW220181   3.339   4.448   4.577  1.1626  0.2580  0.7219
 6585SOL     OW20182   0.836   2.393   5.588  0.1792  1.0218 -0.8776
 6585SOL    HW120183   0.831   2.469   5.530  0.3725  0.4273 -1.7061
 6585SOL    HW220184   0.851   2.319   5.528 -0.2157  0.3071 -0.1138
 6586SOL     OW20185   3.801   2.791   5.027  0.1158 -0.4299 -0.3227
 6586SOL    HW120186   3.772   2.702   5.044 -0.2554 -0.1269  0.7432
 6586SOL    HW220187   3.744   2.846   5.081  0.4970  0.4353 -0.7675
 6587SOL     OW20188   1.387   4.381   4.817  0.8246  0.1035 -0.1589
 6587SOL    HW120189   1.434   4.302   4.789  1.6976 -0.2238  2.0166
 6587SOL    HW220190   1.360   4.361   4.907 -0.3866  1.6783 -0.1385
 6588SOL     OW20191   0.609   2.031   2.362  0.0821 -0.3891 -0.8169
 6588SOL    HW120192   0.630   1.949   2.407  1.1838  0.0287 -0.5274
 6588SOL    HW220193   0.608   2.008   2.269 -0.4489 -0.8912 -0.6971
 6589SOL     OW20194   6.219   3.854   6.193  0.3191  0.0904  0.6848
 6589SOL    HW120195   6.227   3.872   6.100 -1.3793 -0.9839  0.2913
 6589SOL    HW220196   6.255   3.766   6.203 -0.4812 -0.2307  0.8313
 6590SOL     OW20197   3.808   5.420   0.713 -0.7715  0.4698  0.0081
 6590SOL    HW120198   3.800   5.444   0.805 -0.4185  1.1674 -0.1355
 6590SOL    HW220199   3.720   5.393   0.687 -0.4002 -2.1464  1.1871
 6591SOL     OW20200   1.646   0.316   0.992 -0.0618  0.1767  0.1564
 6591SOL    HW120201   1.686   0.344   1.074  0.6377 -1.5435  0.4524
 6591SOL    HW220202   1.639   0.396   0.940  2.0902  0.8601  0.8149
 6592SOL     OW20203   0.319   3.447   4.761  0.0014  0.3632 -0.1086
 6592SOL    HW120204   0.223   3.457   4.761  0.1423  2.0480  0.8431
 6592SOL    HW220205   0.347   3.478   4.847  1.5968  2.3236 -1.2418
 6593SOL     OW20206   5.431   1.807   5.615  0.2070  0.2243 -0.0608
 6593SOL    HW120207   5.345   1.776   5.644  0.2705 -0.5468 -0.6780
 6593SOL    HW220208   5.427   1.806   5.520  1.1807 -0.6420 -0.1114
 6594SOL     OW20209   2.255   0.287   4.631 -0.0619  0.1241 -0.2176
 6594SOL    HW120210   2.251   0.220   4.564 -0.0850  0.3448 -0.4393
 6594SOL    HW220211   2.163   0.306   4.650 -0.0564  0.2648 -0.3299
 6595SOL     OW20212   0.618   4.621   4.415  0.5836 -0.2274 -0.3970
 6595SOL    HW120213   0.687   4.656   4.358  0.8257 -0.6432 -0.3599
 6595SOL    HW220214   0.609   4.530   4.389  0.3060 -0.2739 -0.1427
 6596SOL     OW20215   4.610   1.431   1.007 -0.8835 -0.0412  0.2503
 6596SOL    HW120216   4.697   1.415   0.972 -1.2081 -2.2638  0.3008
 6596SOL    HW220217   4.574   1.501   0.953  0.6576  0.3942 -0.2377
 6597SOL     OW20218   4.286   4.360   0.389 -0.2916 -0.0265  0.1046
 6597SOL    HW120219   4.277   4.298   0.461 -1.0805 -0.4013 -0.3052
 6597SOL    HW220220   4.376   4.349   0.359  0.1589  0.3685  1.2316
 6598SOL     OW20221   0.900   4.640   2.038  0.0166  0.6303  0.4376
 6598SOL    HW120222   0.821   4.667   2.084 -0.3009  0.6639 -0.1278
 6598SOL    HW220223   0.959   4.610   2.108 -0.2967  1.0853  0.9049
 6599SOL     OW20224   2.479   0.485   1.745  0.4168  0.2502  0.0536
 6599SOL    HW120225   2.518   0.478   1.833  1.7276  0.7435 -0.4686
 6599SOL    HW220226   2.551   0.511   1.689 -0.6291  0.9184 -1.0182
 6600SOL     OW20227   1.153   5.075   0.579 -0.6298 -0.1131 -0.0180
 6600SOL    HW120228   1.200   4.993   0.594  0.4699 -0.0246 -2.4098
 6600SOL    HW220229   1.070   5.048   0.540 -0.4001 -0.1406 -0.5067
 6601SOL     OW20230   3.854   4.569   4.009  0.1667  0.2273  0.4143
 6601SOL    HW120231   3.896   4.501   3.958 -0.6411 -0.6173  0.8564
 6601SOL    HW220232   3.925   4.608   4.061  0.7186  0.0846 -0.2288
 6602SOL     OW20233   2.424   1.023   3.178  0.3461 -0.1241 -0.4957
 6602SOL    HW120234   2.490   1.090   3.196  0.6772 -0.3948 -0.6920
 6602SOL    HW220235   2.472   0.941   3.181 -0.2402 -0.4420  0.7229
 6603SOL     OW20236   2.449   3.794   1.855  0.0014  0.2648 -0.3737
 6603SOL    HW120237   2.541   3.817   1.841  0.4081 -0.8153  0.3868
 6603SOL    HW220238   2.411   3.792   1.767  0.6028  1.0719 -0.6644
 6604SOL     OW20239   0.982   2.606   2.267 -0.1673 -0.1504 -0.0866
 6604SOL    HW120240   1.000   2.637   2.356 -1.7820  0.1949  0.1546
 6604SOL    HW220241   0.950   2.517   2.280  2.7775 -1.3864 -0.6375
 6605SOL     OW20242   6.086   4.181   1.141 -0.5075 -0.1749  0.2870
 6605SOL    HW120243   6.091   4.140   1.228  1.3222  2.3145  1.4824
 6605SOL    HW220244   6.135   4.123   1.084 -1.5578 -1.7561  0.9069
 6606SOL     OW20245   1.420   4.806   3.708  0.0976  0.2389 -0.1556
 6606SOL    HW120246   1.393   4.716   3.691  0.2757  0.1763 -0.1157
 6606SOL    HW220247   1.482   4.826   3.638 -0.4069  0.5442 -0.5227
 6607SOL     OW20248   4.109   5.219   2.896  0.2037 -0.3264 -0.2788
 6607SOL    HW120249   4.115   5.224   2.992  0.2379  0.0839 -0.3031
 6607SOL    HW220250   4.067   5.134   2.880 -1.0077  0.1764  0.1404
 6608SOL     OW20251   0.499   0.760   5.433 -0.0419  0.0232 -0.6554
 6608SOL    HW120252   0.589   0.746   5.404 -0.0865 -0.4477 -0.5734
 6608SOL    HW220253   0.495   0.853   5.454  1.0001 -0.3153  1.2897
 6609SOL     OW20254   1.155   2.727   2.933 -0.0065 -0.0127 -0.2320
 6609SOL    HW120255   1.186   2.690   3.015 -0.8156  1.7704  0.9455
 6609SOL    HW220256   1.234   2.760   2.890  0.2173  0.9115  0.8431
 6610SOL     OW20257   2.373   3.991   3.482  0.2880  0.2333 -0.4637
 6610SOL    HW120258   2.333   4.005   3.396  1.4616 -0.5747 -1.1725
 6610SOL    HW220259   2.436   3.920   3.468  0.4347  0.0137  1.0933
 6611SOL     OW20260   4.477   0.226   2.121 -0.3888  0.6343  0.8386
 6611SOL    HW120261   4.440   0.196   2.204  2.1274 -2.6498  0.9745
 6611SOL    HW220262   4.476   0.148   2.065 -1.5767  2.6194 -2.1594
 6612SOL     OW20263   2.268   4.449   3.603  0.1784  0.2072 -0.2841
 6612SOL    HW120264   2.323   4.523   3.579  0.3160 -0.4130 -2.0289
 6612SOL    HW220265   2.325   4.372   3.592 -0.3271 -0.2576  0.2526
 6613SOL     OW20266   5.403   3.094   3.791  0.5375  0.0407 -0.1429
 6613SOL    HW120267   5.424   3.046   3.711  1.2371 -2.8513  1.6326
 6613SOL    HW220268   5.308   3.084   3.800 -0.0055  2.6434 -1.8450
 6614SOL     OW20269   2.772   1.424   3.320  0.7396  0.3759  0.2691
 6614SOL    HW120270   2.688   1.463   3.342 -0.2271 -1.8467  0.8599
 6614SOL    HW220271   2.811   1.402   3.405 -0.3566 -2.9484  0.0579
 6615SOL     OW20272   6.068   1.204   0.377 -0.0826  0.4737  0.2899
 6615SOL    HW120273   6.033   1.175   0.461  2.1772 -0.7588  0.8745
 6615SOL    HW220274   5.999   1.183   0.314 -1.4489  0.6039  1.6778
 6616SOL     OW20275   6.005   5.485   1.483 -1.2734  0.0678 -0.0976
 6616SOL    HW120276   6.035   5.555   1.425 -1.3075 -1.9134 -2.7045
 6616SOL    HW220277   6.078   5.469   1.542 -0.6572  1.1931 -0.5300
 6617SOL     OW20278   4.861   1.756   4.258  0.5797 -0.1267 -0.4229
 6617SOL    HW120279   4.830   1.756   4.349 -1.0182 -2.3343 -0.9056
 6617SOL    HW220280   4.897   1.844   4.246 -3.4439  1.9267  0.9236
 6618SOL     OW20281   0.372   2.355   5.234  0.1093 -0.1624 -0.0764
 6618SOL    HW120282   0.379   2.425   5.298 -2.9149 -0.9207  1.2961
 6618SOL    HW220283   0.404   2.277   5.280 -0.7150 -0.4491  0.0261
 6619SOL     OW20284   4.588   2.939   5.080 -0.2908 -0.4446  0.2471
 6619SOL    HW120285   4.638   2.870   5.036  2.1771  0.9963  0.5487
 6619SOL    HW220286   4.523   2.967   5.016  1.2025 -0.4548 -1.3466
 6620SOL     OW20287   3.207   1.548   0.179  0.2758  0.0617 -0.0540
 6620SOL    HW120288   3.295   1.585   0.178  0.3444 -0.0452  1.0580
 6620SOL    HW220289   3.150   1.625   0.187  0.3768  0.0190  1.3113
 6621SOL     OW20290   4.594   1.211   6.226 -0.3104  0.0125  0.1670
 6621SOL    HW120291   4.643   1.242   6.150  3.6601 -2.5862  1.3644
 6621SOL    HW220292   4.598   1.283   6.289 -0.2678  0.7689 -0.6809
 6622SOL     OW20293   2.673   0.316   0.066  0.1042 -0.1026  0.5275
 6622SOL    HW120294   2.667   0.246   0.001  0.1489 -0.2788  0.7133
 6622SOL    HW220295   2.743   0.373   0.033 -1.1694  0.8756 -0.6047
 6623SOL     OW20296   1.859   5.919   5.291 -0.1394 -0.0314 -0.5058
 6623SOL    HW120297   1.886   6.001   5.332  0.2139 -0.4746  0.1833
 6623SOL    HW220298   1.789   5.943   5.231 -1.9873  0.4233  1.6870
 6624SOL     OW20299   0.143   4.840   4.275 -0.3358  0.0941  0.1451
 6624SOL    HW120300   0.114   4.926   4.246  1.2235  0.7813  0.5311
 6624SOL    HW220301   0.199   4.857   4.350 -0.9242 -1.3504  0.9515
 6625SOL     OW20302   1.261   4.278   1.897  0.1997  0.1717 -0.7656
 6625SOL    HW120303   1.186   4.281   1.839 -0.4836  1.2416  0.1290
 6625SOL    HW220304   1.225   4.298   1.984  1.1689 -1.4098  0.0595
 6626SOL     OW20305   0.759   3.623   5.327 -0.2491 -0.2123 -0.4027
 6626SOL    HW120306   0.686   3.666   5.372  0.1309  0.2824 -0.2472
 6626SOL    HW220307   0.836   3.669   5.359 -0.0556  1.1691 -2.6743
 6627SOL     OW20308   5.122   3.953   5.592  0.2176  0.1958  0.0945
 6627SOL    HW120309   5.090   4.040   5.614  1.4217  0.5748  0.4467
 6627SOL    HW220310   5.101   3.941   5.500  0.5647  1.1156 -0.1106
 6628SOL     OW20311   4.065   1.241   3.617 -0.6525  0.0517  0.3276
 6628SOL    HW120312   4.098   1.296   3.546 -0.4789  1.0958  1.1855
 6628SOL    HW220313   3.976   1.272   3.633 -1.1968 -1.1232 -0.3539
 6629SOL     OW20314   1.679   4.780   5.072  0.4468 -0.2448  0.3048
 6629SOL    HW120315   1.639   4.755   5.156  2.5840  0.2250  1.5213
 6629SOL    HW220316   1.700   4.873   5.082 -0.0891  0.0565 -1.1306
 6630SOL     OW20317   3.607   1.366   0.004  0.7757  0.1328  0.1197
 6630SOL    HW120318   3.517   1.385   0.029  1.4412  2.2346  1.1199
 6630SOL    HW220319   3.627   1.282   0.047 -1.5445 -1.9797 -2.5323
 6631SOL     OW20320   3.987   6.061   5.239  0.0905 -0.6529 -0.0090
 6631SOL    HW120321   3.968   6.084   5.149 -0.8918  1.2632  0.6316
 6631SOL    HW220322   3.915   6.099   5.290  1.1678 -0.7481  1.6886
 6632SOL     OW20323   5.586   5.621   2.113  0.3842 -0.3104 -0.4802
 6632SOL    HW120324   5.666   5.652   2.070  0.2471 -1.0868 -1.3177
 6632SOL    HW220325   5.521   5.617   2.043 -0.5496  0.7909  0.2843
 6633SOL     OW20326   0.702   4.807   4.804  0.7254  0.2831 -0.0661
 6633SOL    HW120327   0.661   4.877   4.854  2.1545 -0.1221  1.7938
 6633SOL    HW220328   0.767   4.851   4.750  0.4604  0.5516 -0.1660
 6634SOL     OW20329   2.636   4.610   1.235  0.2141 -0.5635 -0.0907
 6634SOL    HW120330   2.575   4.672   1.193  0.8101  1.1418  1.4052
 6634SOL    HW220331   2.600   4.598   1.323 -0.0841 -2.7097 -0.4656
 6635SOL     OW20332   1.104   4.240   2.122  0.2907 -0.3890  0.0587
 6635SOL    HW120333   1.152   4.175   2.173  2.3406  0.2815 -0.9119
 6635SOL    HW220334   1.073   4.303   2.187 -0.6707 -1.6493  0.8752
 6636SOL     OW20335   5.913   2.525   3.901  0.3677 -0.1389  0.6279
 6636SOL    HW120336   6.001   2.548   3.872  1.0414 -0.3364  2.4091
 6636SOL    HW220337   5.923   2.440   3.943 -0.7574 -0.3417  0.5217
 6637SOL     OW20338   3.088   5.632   3.283  0.3711 -0.3847 -0.2433
 6637SOL    HW120339   3.085   5.559   3.221 -0.7303 -1.5167  1.0697
 6637SOL    HW220340   3.129   5.594   3.362 -0.4596  0.3263  0.5505
 6638SOL     OW20341   3.284   0.893   4.677 -0.0598  0.8269 -0.5930
 6638SOL    HW120342   3.287   0.943   4.759 -0.5342  0.7839 -0.5466
 6638SOL    HW220343   3.368   0.910   4.635  0.2472  0.7227 -0.0218
 6639SOL     OW20344   0.950   3.694   0.556 -0.0481  0.0710 -0.4616
 6639SOL    HW120345   1.044   3.706   0.563 -0.2202  0.6286  1.4055
 6639SOL    HW220346   0.930   3.623   0.619 -0.7477 -0.8095 -1.6311
 6640SOL     OW20347   5.413   2.288   1.750  0.3886 -0.3127  0.1280
 6640SOL    HW120348   5.420   2.235   1.830  0.7270 -0.7952 -0.2166
 6640SOL    HW220349   5.408   2.378   1.782  0.2516 -0.5170  0.7050
 6641SOL     OW20350   4.004   4.358   1.346  0.1939 -0.3073  0.6106
 6641SOL    HW120351   4.037   4.291   1.286 -0.7856 -0.0760 -0.2161
 6641SOL    HW220352   4.027   4.441   1.303  0.9912 -0.0924  1.4016
 6642SOL     OW20353   5.225   1.703   0.740  0.0073  0.2453 -0.1997
 6642SOL    HW120354   5.254   1.710   0.831 -1.0208  2.5429  0.0170
 6642SOL    HW220355   5.160   1.773   0.730  1.8643  1.7687 -3.3432
 6643SOL     OW20356   0.888   0.879   0.101  0.2292 -0.2357  1.1161
 6643SOL    HW120357   0.849   0.949   0.153 -0.0933 -0.8890  1.7803
 6643SOL    HW220358   0.873   0.799   0.152 -1.0972 -1.0862 -0.5024
 6644SOL     OW20359   0.710   5.292   5.150  0.4171  1.2496  0.2726
 6644SOL    HW120360   0.731   5.270   5.241 -0.1407  0.0421  0.1294
 6644SOL    HW220361   0.792   5.276   5.102  0.2602  0.2392  0.3113
 6645SOL     OW20362   6.208   1.870   2.899  0.5965 -0.7057 -0.1276
 6645SOL    HW120363   6.168   1.786   2.919  3.3409 -2.2586 -0.5831
 6645SOL    HW220364   6.287   1.873   2.953  1.1324  1.0786 -0.9150
 6646SOL     OW20365   3.877   0.139   5.629  0.4384 -0.4016  0.4608
 6646SOL    HW120366   3.782   0.133   5.634  0.3112  1.1145  0.5233
 6646SOL    HW220367   3.893   0.229   5.600  1.8445 -0.7753  0.0056
 6647SOL     OW20368   0.935   1.013   3.521 -0.3015  0.3400  0.4248
 6647SOL    HW120369   0.958   1.074   3.450  0.9865 -1.2445 -0.6020
 6647SOL    HW220370   0.936   1.067   3.600  0.4420  1.7291 -0.4840
 6648SOL     OW20371   4.206   1.194   3.378 -0.3000 -0.5418 -0.5344
 6648SOL    HW120372   4.258   1.148   3.312 -2.1743  0.2401 -2.6886
 6648SOL    HW220373   4.148   1.127   3.414  1.8934 -1.3714  1.7335
 6649SOL     OW20374   0.231   2.490   0.342 -0.3138  0.2920 -0.0311
 6649SOL    HW120375   0.205   2.457   0.256  0.9346  2.2443 -1.2098
 6649SOL    HW220376   0.180   2.570   0.354 -1.4961 -0.6378  1.7223
 6650SOL     OW20377   4.544   5.999   0.798  0.2396 -0.3190  0.1125
 6650SOL    HW120378   4.512   5.979   0.710 -0.5544 -0.3937  0.4096
 6650SOL    HW220379   4.576   6.089   0.793  0.3732 -0.3907 -0.3015
 6651SOL     OW20380   1.615   0.383   4.847 -0.3379  0.3369 -0.4520
 6651SOL    HW120381   1.700   0.354   4.816 -0.3616 -0.1868 -0.0366
 6651SOL    HW220382   1.633   0.421   4.933 -0.6675 -0.7089  0.0892
 6652SOL     OW20383   2.941   0.776   5.183  0.1098 -0.1975  0.2633
 6652SOL    HW120384   2.916   0.685   5.199  2.3553 -0.8915  0.1184
 6652SOL    HW220385   2.915   0.822   5.264 -1.8613 -0.7270 -0.0139
 6653SOL     OW20386   5.088   4.134   3.170  0.3112  0.7620 -0.1385
 6653SOL    HW120387   5.142   4.062   3.136 -0.5591 -0.6755  1.3747
 6653SOL    HW220388   5.087   4.199   3.099  2.4782  0.0329 -0.9211
 6654SOL     OW20389   4.117   4.698   6.115  0.2901  0.7404 -0.4382
 6654SOL    HW120390   4.160   4.681   6.032  1.6059  1.0893  0.1461
 6654SOL    HW220391   4.147   4.785   6.141  1.0365  0.0841  1.0499
 6655SOL     OW20392   2.926   3.082   4.764  0.6664  0.9349 -0.4579
 6655SOL    HW120393   2.999   3.043   4.714  0.2612 -0.6623  0.1284
 6655SOL    HW220394   2.960   3.166   4.793  2.3848  0.1402 -0.0113
 6656SOL     OW20395   0.893   4.430   3.002 -0.1241 -0.0262 -0.0938
 6656SOL    HW120396   0.853   4.482   2.932  0.6802 -0.4350 -0.8685
 6656SOL    HW220397   0.984   4.461   3.006  0.0663 -0.6081  0.1836
 6657SOL     OW20398   0.543   4.507   3.675 -0.4772 -0.1890 -0.3795
 6657SOL    HW120399   0.465   4.518   3.620 -0.9678  0.1547  0.3647
 6657SOL    HW220400   0.592   4.436   3.633 -1.8184 -1.2947 -0.1683
 6658SOL     OW20401   3.860   5.230   5.301 -0.0737  0.7726 -0.0095
 6658SOL    HW120402   3.921   5.199   5.369  0.0619 -2.8200 -1.5803
 6658SOL    HW220403   3.914   5.236   5.222 -1.0705  0.8553 -0.6983
 6659SOL     OW20404   4.743   2.977   1.653 -0.2561 -0.3458  0.4777
 6659SOL    HW120405   4.698   2.893   1.649  0.5754 -0.7600 -0.5399
 6659SOL    HW220406   4.673   3.041   1.667 -1.1309 -1.0068 -0.6758
 6660SOL     OW20407   2.044   5.268   4.528  0.3536 -0.0209 -0.3698
 6660SOL    HW120408   2.128   5.261   4.575  0.4519 -0.1554 -0.5647
 6660SOL    HW220409   1.998   5.187   4.550 -1.6964  1.9268  3.5070
 6661SOL     OW20410   3.425   5.759   2.369 -0.3055 -0.3427 -0.3614
 6661SOL    HW120411   3.375   5.678   2.375  0.6493 -0.9832 -0.9003
 6661SOL    HW220412   3.504   5.742   2.420  0.2067  0.0088 -1.0217
 6662SOL     OW20413   4.669   2.750   5.301  0.1509  0.0147  0.7164
 6662SOL    HW120414   4.614   2.801   5.242  0.9079 -1.0140 -0.9385
 6662SOL    HW220415   4.755   2.790   5.295  0.2765 -0.2036  1.0155
 6663SOL     OW20416   2.544   0.461   0.259 -0.4849 -0.1632  0.0291
 6663SOL    HW120417   2.571   0.422   0.342 -1.2115  1.3992  1.0629
 6663SOL    HW220418   2.578   0.402   0.192  2.3165 -0.1909  1.3403
 6664SOL     OW20419   5.077   4.915   1.563  0.2122 -0.3393  0.3344
 6664SOL    HW120420   5.070   5.010   1.553  0.3206  0.4335  5.3664
 6664SOL    HW220421   5.160   4.901   1.608 -0.2829 -2.7082  0.6522
 6665SOL     OW20422   1.096   3.790   2.437  0.0126  0.0075 -0.2836
 6665SOL    HW120423   1.145   3.847   2.378 -0.9160  0.9045 -0.2158
 6665SOL    HW220424   1.009   3.785   2.397 -0.4623  0.1682  0.7151
 6666SOL     OW20425   4.740   3.474   0.656  0.1805 -0.2100  0.8955
 6666SOL    HW120426   4.732   3.556   0.703 -0.7529  0.3503 -0.1702
 6666SOL    HW220427   4.713   3.407   0.718 -1.2457  0.5295  1.0986
 6667SOL     OW20428   4.715   5.705   5.910  0.4866 -0.0489  0.2094
 6667SOL    HW120429   4.622   5.694   5.931  0.8448 -2.2636  0.8713
 6667SOL    HW220430   4.729   5.651   5.832  1.3090 -0.1566  0.4232
 6668SOL     OW20431   0.424   0.176   1.486  0.1539  0.4452 -0.3508
 6668SOL    HW120432   0.427   0.243   1.417 -1.5903  1.0542  0.0985
 6668SOL    HW220433   0.331   0.162   1.501  0.4883 -1.7491 -0.0600
 6669SOL     OW20434   3.618   1.121   4.997 -0.1836  0.1728 -0.2996
 6669SOL    HW120435   3.674   1.192   5.030 -1.8792  1.4400 -0.0337
 6669SOL    HW220436   3.621   1.132   4.902 -0.9191  1.0108 -0.2383
 6670SOL     OW20437   0.130   1.485   3.338 -0.2500  0.4598 -0.3454
 6670SOL    HW120438   0.094   1.404   3.374  0.5397  0.3197  0.1487
 6670SOL    HW220439   0.106   1.482   3.245 -1.7265  0.5021  0.0088
 6671SOL     OW20440   2.094   0.147   2.054 -0.0617 -0.1245  0.0215
 6671SOL    HW120441   2.082   0.069   2.107 -0.2120 -0.5138 -0.5689
 6671SOL    HW220442   2.080   0.117   1.964 -0.1026  0.5753 -0.2139
 6672SOL     OW20443   5.272   0.735   1.462  0.2522  0.3501  0.2377
 6672SOL    HW120444   5.270   0.726   1.367 -1.4888  0.2532  0.2445
 6672SOL    HW220445   5.228   0.818   1.479  0.5940  0.3879  0.9558
 6673SOL     OW20446   4.619   0.086   3.879  0.1472  0.8676 -0.5922
 6673SOL    HW120447   4.622   0.086   3.975 -0.0343  1.6422 -0.5853
 6673SOL    HW220448   4.546   0.029   3.858 -0.6721  1.7595 -0.2323
 6674SOL     OW20449   3.782   4.430   2.128  0.2734 -0.2246 -0.1180
 6674SOL    HW120450   3.782   4.432   2.032 -1.4476  0.3969 -0.1514
 6674SOL    HW220451   3.838   4.503   2.154  0.6983 -0.3580 -0.6544
 6675SOL     OW20452   3.447   2.707   0.888 -0.2285 -0.0666 -0.0452
 6675SOL    HW120453   3.480   2.675   0.804  0.3985  0.2417  0.0752
 6675SOL    HW220454   3.361   2.743   0.867 -2.3385 -4.3451  0.3154
 6676SOL     OW20455   3.011   4.040   2.938  0.0063  0.6727  0.4061
 6676SOL    HW120456   2.925   4.022   2.899 -0.1719 -1.0306  1.4786
 6676SOL    HW220457   3.073   3.995   2.881 -0.1417 -0.7387  1.2925
 6677SOL     OW20458   3.708   0.860   5.859  0.3105 -0.4482  0.4401
 6677SOL    HW120459   3.767   0.789   5.835  0.2788 -0.0467 -0.8983
 6677SOL    HW220460   3.731   0.881   5.950  1.3452 -1.1558  0.3525
 6678SOL     OW20461   0.279   1.557   0.576 -0.2543 -0.4733  0.1965
 6678SOL    HW120462   0.214   1.508   0.626  1.5453 -2.3382  0.8645
 6678SOL    HW220463   0.359   1.551   0.629  0.5292  1.6290 -0.6424
 6679SOL     OW20464   3.371   4.047   4.594 -0.2054  0.2643  0.0985
 6679SOL    HW120465   3.338   4.136   4.605 -0.1704  0.1896  0.8831
 6679SOL    HW220466   3.466   4.055   4.601 -0.1073  0.3465 -1.1972
 6680SOL     OW20467   0.487   4.800   2.483 -0.3430  0.7470  0.0931
 6680SOL    HW120468   0.572   4.755   2.485 -0.2353  0.7790 -1.7268
 6680SOL    HW220469   0.424   4.733   2.511  0.1859  0.4983  0.7257
 6681SOL     OW20470   2.325   2.822   1.957  0.1797  0.6754 -0.6553
 6681SOL    HW120471   2.375   2.899   1.982 -0.0525  0.2069  1.3637
 6681SOL    HW220472   2.234   2.851   1.956 -0.1306  0.0443  2.0530
 6682SOL     OW20473   4.962   4.658   0.469  0.5542  0.4002  0.4212
 6682SOL    HW120474   4.899   4.596   0.432  4.2760 -2.8012 -1.3679
 6682SOL    HW220475   4.973   4.725   0.401 -2.2317  2.3123  1.6552
 6683SOL     OW20476   5.327   1.994   3.156  0.2723 -0.2426  0.1907
 6683SOL    HW120477   5.416   2.028   3.164  0.2600 -0.5466  2.0468
 6683SOL    HW220478   5.285   2.051   3.092  1.4856  0.5828  0.1007
 6684SOL     OW20479   0.369   4.279   5.374  0.1329 -0.0709  0.4308
 6684SOL    HW120480   0.306   4.309   5.439  0.4962  0.3875  0.5787
 6684SOL    HW220481   0.361   4.184   5.374 -0.1915 -0.0442  0.8197
 6685SOL     OW20482   5.370   6.137   0.679 -0.0051 -0.3640 -0.3117
 6685SOL    HW120483   5.362   6.083   0.758 -0.4102 -1.6107 -1.1677
 6685SOL    HW220484   5.336   6.222   0.705  0.3674 -0.5906  1.0051
 6686SOL     OW20485   0.669   1.034   3.382  0.2856  0.6814 -0.1019
 6686SOL    HW120486   0.742   1.012   3.439  0.6350  0.6404 -0.5568
 6686SOL    HW220487   0.695   1.117   3.341  0.3423  0.3659 -0.7131
 6687SOL     OW20488   3.198   5.138   2.372  0.1136  0.6434 -0.3924
 6687SOL    HW120489   3.287   5.174   2.373  0.5642 -0.4009  1.4078
 6687SOL    HW220490   3.202   5.067   2.308  1.5577 -1.5196  1.9148
 6688SOL     OW20491   1.955   0.902   1.225 -0.5715  0.5577 -0.1581
 6688SOL    HW120492   2.017   0.962   1.183 -0.5981  0.3806 -0.4541
 6688SOL    HW220493   1.869   0.937   1.205 -0.5696  0.9075  0.4089
 6689SOL     OW20494   1.110   3.314   0.205 -0.5407 -0.0296  0.4425
 6689SOL    HW120495   1.021   3.278   0.203  0.0553 -1.5737  0.7072
 6689SOL    HW220496   1.136   3.308   0.297  0.5025 -1.3268  0.0868
 6690SOL     OW20497   3.971   0.038   0.498  0.5339  0.2636 -0.2502
 6690SOL    HW120498   3.958  -0.023   0.571  0.2236  0.5234 -0.0771
 6690SOL    HW220499   3.885   0.079   0.487  0.8807  1.1101  0.0492
 6691SOL     OW20500   0.685   3.087   3.150 -0.1199  0.0253 -0.2831
 6691SOL    HW120501   0.675   3.086   3.245  2.1981 -3.3628  0.0573
 6691SOL    HW220502   0.752   3.154   3.134  0.6836 -0.5306  0.6527
 6692SOL     OW20503   6.012   2.167   2.565 -0.5080  0.4856 -0.5927
 6692SOL    HW120504   5.956   2.196   2.492 -1.1364 -1.0165 -0.7435
 6692SOL    HW220505   6.093   2.217   2.554 -1.1814  1.4689 -1.3648
 6693SOL     OW20506   3.438   4.785   1.706  0.1589 -0.2328 -0.4541
 6693SOL    HW120507   3.532   4.778   1.724  0.4202  2.7583 -0.0147
 6693SOL    HW220508   3.396   4.748   1.784  0.9899 -0.5614 -0.1522
 6694SOL     OW20509   5.376   5.660   1.876  0.0313 -0.4945  0.1777
 6694SOL    HW120510   5.438   5.692   1.810  0.2288 -0.8196  0.2038
 6694SOL    HW220511   5.338   5.740   1.913  0.4910 -0.2896  0.2136
 6695SOL     OW20512   1.881   3.678   6.115  0.0243 -0.3959  0.0209
 6695SOL    HW120513   1.879   3.740   6.042 -0.8550  0.0127  0.3739
 6695SOL    HW220514   1.851   3.596   6.078 -0.9151 -0.0629  0.0244
 6696SOL     OW20515   5.801   1.875   2.052 -0.1247 -0.2758  0.0251
 6696SOL    HW120516   5.800   1.880   2.148  2.5954 -0.1078  0.1139
 6696SOL    HW220517   5.710   1.857   2.028 -0.7886 -0.8305  2.6627
 6697SOL     OW20518   3.893   1.654   1.558 -0.1224  0.2649  0.2476
 6697SOL    HW120519   3.871   1.564   1.532 -0.3552  0.3524  0.1346
 6697SOL    HW220520   3.930   1.646   1.645  1.9323 -0.1932 -0.6222
 6698SOL     OW20521   1.107   3.028   2.098  0.4232 -0.3155  0.1291
 6698SOL    HW120522   1.157   2.947   2.091 -1.5629 -1.4721 -1.3392
 6698SOL    HW220523   1.108   3.065   2.010 -0.8604 -0.0834  0.2008
 6699SOL     OW20524   4.418   4.649   0.166  0.2129 -0.5530  0.4293
 6699SOL    HW120525   4.455   4.561   0.175  0.6534 -0.4666 -0.3859
 6699SOL    HW220526   4.348   4.639   0.101  0.4682 -0.2494  0.1050
 6700SOL     OW20527   1.856   2.584   1.907 -0.3845  0.2484  0.6625
 6700SOL    HW120528   1.797   2.646   1.950 -1.1263 -0.3628  0.5537
 6700SOL    HW220529   1.943   2.622   1.918 -0.6641  0.5898  1.8544
 6701SOL     OW20530   2.252   5.814   1.109 -0.0704  0.3177 -0.2931
 6701SOL    HW120531   2.205   5.890   1.073 -0.2176 -1.0409 -3.3585
 6701SOL    HW220532   2.343   5.826   1.081  0.0025 -0.3702 -0.3842
 6702SOL     OW20533   0.777   1.754   5.816 -0.1712  0.6520 -1.2705
 6702SOL    HW120534   0.708   1.737   5.880  2.0388  1.9609  1.6830
 6702SOL    HW220535   0.818   1.669   5.801  0.1554  0.5236  0.1977
 6703SOL     OW20536   5.832   1.131   0.097 -0.4834  0.5104 -0.3448
 6703SOL    HW120537   5.911   1.174   0.130  0.1631 -1.5293  0.9560
 6703SOL    HW220538   5.786   1.199   0.049  1.7741  1.9193 -0.6536
 6704SOL     OW20539   0.370   5.820   2.586 -0.6033 -0.0795 -0.3638
 6704SOL    HW120540   0.453   5.847   2.548 -0.5498 -0.6158 -0.6415
 6704SOL    HW220541   0.368   5.863   2.672 -0.5612  0.8403 -0.8178
 6705SOL     OW20542   5.241   0.330   1.313 -0.6108 -0.4852  0.5560
 6705SOL    HW120543   5.313   0.376   1.356  0.3243 -1.4513  0.0775
 6705SOL    HW220544   5.258   0.237   1.330 -1.9494 -0.7146  0.7382
 6706SOL     OW20545   5.387   0.961   5.845 -0.8054 -0.7356  0.3475
 6706SOL    HW120546   5.470   0.946   5.890 -0.1204  0.4198 -0.4869
 6706SOL    HW220547   5.412   0.990   5.757 -2.0343  1.7557  0.7403
 6707SOL     OW20548   1.205   3.952   4.299  0.0061  0.1355  0.5091
 6707SOL    HW120549   1.142   3.997   4.355 -2.1521 -1.9329 -0.0875
 6707SOL    HW220550   1.211   4.007   4.221 -1.1168  0.3609  0.5681
 6708SOL     OW20551   0.789   4.400   0.481  0.4685 -0.3488  0.1330
 6708SOL    HW120552   0.765   4.463   0.549 -0.4125 -1.4977  0.9385
 6708SOL    HW220553   0.711   4.394   0.426  0.4263 -0.9469  0.2482
 6709SOL     OW20554   4.382   3.881   3.713 -0.0723  0.2662 -0.3981
 6709SOL    HW120555   4.457   3.940   3.720  1.3118 -1.4079 -0.3411
 6709SOL    HW220556   4.394   3.836   3.629 -0.0518 -1.2134  0.3592
 6710SOL     OW20557   4.984   4.297   0.505 -0.3840  0.0402 -0.4588
 6710SOL    HW120558   4.914   4.301   0.439  1.1501  0.4013 -2.1586
 6710SOL    HW220559   4.980   4.208   0.540 -2.6508  0.5055  0.6477
 6711SOL     OW20560   3.515   4.375   2.777  0.8264 -0.1867  0.2889
 6711SOL    HW120561   3.493   4.464   2.749  0.5884 -0.0277  0.9535
 6711SOL    HW220562   3.432   4.328   2.770  0.6757 -0.0460  1.0883
 6712SOL     OW20563   2.252   3.565   3.957  0.0483 -0.3338  0.4286
 6712SOL    HW120564   2.274   3.644   4.007 -1.5741  0.1763  0.3962
 6712SOL    HW220565   2.250   3.594   3.866 -1.2385 -0.2218  0.4766
 6713SOL     OW20566   5.947   1.346   2.306  0.2259 -0.2798 -0.2355
 6713SOL    HW120567   5.951   1.441   2.302 -1.6683 -0.1146  0.6493
 6713SOL    HW220568   6.036   1.317   2.288  1.0153  1.6835  0.3355
 6714SOL     OW20569   5.338   1.842   5.012 -0.0474  0.2159 -0.2564
 6714SOL    HW120570   5.251   1.842   5.053 -0.1766  0.5949 -0.5285
 6714SOL    HW220571   5.341   1.759   4.964 -0.4114  0.3775 -0.5641
 6715SOL     OW20572   3.984   0.819   0.662  0.7048  0.2633 -0.3988
 6715SOL    HW120573   3.987   0.735   0.617  2.1647 -0.2179  0.5030
 6715SOL    HW220574   4.073   0.830   0.697 -0.0437  1.1524  1.3400
 6716SOL     OW20575   4.453   5.608   5.385  0.3142 -0.0579  0.6229
 6716SOL    HW120576   4.399   5.533   5.360  0.7888  0.1609 -1.2518
 6716SOL    HW220577   4.411   5.643   5.463 -2.3731  0.1888 -0.7979
 6717SOL     OW20578   0.616   4.702   3.429  0.1952  0.2336  0.3322
 6717SOL    HW120579   0.705   4.670   3.440  0.1374  0.3851  1.3931
 6717SOL    HW220580   0.597   4.749   3.511 -1.0900 -0.3914  0.4264
 6718SOL     OW20581   3.420   1.764   3.278 -0.0998 -0.0108 -0.0824
 6718SOL    HW120582   3.428   1.857   3.301  0.4837 -0.0235 -0.2204
 6718SOL    HW220583   3.335   1.758   3.233  0.3025  0.6515 -0.9677
 6719SOL     OW20584   0.533   3.635   2.075 -0.3554 -0.0884  0.5081
 6719SOL    HW120585   0.473   3.607   2.005 -1.8338  2.5365  0.5839
 6719SOL    HW220586   0.514   3.577   2.148  0.6419 -2.3582 -0.9334
 6720SOL     OW20587   4.767   2.521   5.746  0.1571 -0.0887  0.3422
 6720SOL    HW120588   4.728   2.528   5.659  0.1947 -0.8863  0.2569
 6720SOL    HW220589   4.705   2.469   5.796  1.0621 -1.3284  0.2186
 6721SOL     OW20590   0.626   2.620   1.592 -0.2967  0.0601 -0.3916
 6721SOL    HW120591   0.693   2.604   1.659 -0.0822  0.0270 -0.6143
 6721SOL    HW220592   0.565   2.681   1.634 -0.8836 -0.9696  0.3072
 6722SOL     OW20593   2.889   3.345   4.999 -0.1571  0.0240  0.0436
 6722SOL    HW120594   2.798   3.370   5.015 -0.0163  0.8040 -0.3315
 6722SOL    HW220595   2.904   3.364   4.907  0.2178 -0.6611 -0.0426
 6723SOL     OW20596   0.852   3.245   0.209  0.1521 -0.1500 -0.2877
 6723SOL    HW120597   0.801   3.304   0.264  2.2738  1.4723  0.0706
 6723SOL    HW220598   0.802   3.163   0.208 -2.4143  1.3209 -0.0226
 6724SOL     OW20599   0.296   1.671   1.164  0.1393  0.3381 -0.5350
 6724SOL    HW120600   0.266   1.758   1.138  0.5904  0.7400  0.2526
 6724SOL    HW220601   0.216   1.622   1.184 -0.0622  1.4822  1.8452
 6725SOL     OW20602   2.592   5.521   2.935  0.6259 -0.2375 -0.1188
 6725SOL    HW120603   2.531   5.595   2.929 -0.5717 -0.8519  2.7729
 6725SOL    HW220604   2.665   5.554   2.986  1.4117 -0.3253 -1.1512
 6726SOL     OW20605   1.664   4.498   0.794 -0.0493  0.5668 -0.0883
 6726SOL    HW120606   1.748   4.542   0.806  0.3504 -0.6021  1.7811
 6726SOL    HW220607   1.686   4.406   0.785 -1.0795  0.3769 -0.9596
 6727SOL     OW20608   1.710   2.168   4.514 -0.0280 -0.0848 -0.4519
 6727SOL    HW120609   1.713   2.072   4.513  3.2483 -0.1026 -1.1668
 6727SOL    HW220610   1.651   2.191   4.442 -0.4449 -1.5465 -0.6102
 6728SOL     OW20611   5.378   4.628   3.731 -0.1301 -0.2097  0.0869
 6728SOL    HW120612   5.377   4.542   3.774 -0.1656 -0.5018 -0.4852
 6728SOL    HW220613   5.288   4.659   3.737 -0.1525 -0.2866  0.1544
 6729SOL     OW20614   2.685   0.646   0.515 -0.0248 -0.1532  0.6334
 6729SOL    HW120615   2.745   0.619   0.445 -0.6577 -2.1128  0.8047
 6729SOL    HW220616   2.649   0.729   0.484 -0.2558 -0.9460 -1.3847
 6730SOL     OW20617   3.398   3.406   5.265 -0.1984 -0.6795  0.2307
 6730SOL    HW120618   3.413   3.444   5.178 -0.4275 -2.6809 -0.7478
 6730SOL    HW220619   3.439   3.320   5.260 -0.2909 -0.8577  2.1038
 6731SOL     OW20620   3.108   1.435   5.928  0.4713 -0.8514 -0.0322
 6731SOL    HW120621   3.051   1.479   5.866 -0.4891 -1.3123  0.4940
 6731SOL    HW220622   3.196   1.449   5.895  0.0767  0.1625 -0.6834
 6732SOL     OW20623   4.761   5.040   3.855  0.6019 -0.3767 -0.0160
 6732SOL    HW120624   4.726   5.128   3.868  0.3954 -0.4691  0.0608
 6732SOL    HW220625   4.838   5.036   3.912 -0.2422 -0.7472  1.1333
 6733SOL     OW20626   4.517   4.633   5.186 -0.1352  0.0142 -0.3911
 6733SOL    HW120627   4.461   4.557   5.202 -0.3185  0.4374  1.1559
 6733SOL    HW220628   4.603   4.595   5.166  0.0124 -0.6284  1.2888
 6734SOL     OW20629   0.130   3.583   1.769  0.4840 -0.3706 -0.6605
 6734SOL    HW120630   0.108   3.583   1.862 -0.5234 -1.6298 -0.8686
 6734SOL    HW220631   0.081   3.656   1.732  2.0784  1.0937  0.0250
 6735SOL     OW20632   5.219   4.270   1.864  0.3472 -0.3603  0.5038
 6735SOL    HW120633   5.232   4.352   1.913 -1.4737 -0.8290  1.8666
 6735SOL    HW220634   5.239   4.293   1.774  2.2671  0.9598  1.1895
 6736SOL     OW20635   5.685   2.961   1.337  0.4414  0.1553 -0.1154
 6736SOL    HW120636   5.663   2.980   1.245  0.5067 -0.3822 -0.2474
 6736SOL    HW220637   5.779   2.980   1.343  0.2887  0.8559  0.0176
 6737SOL     OW20638   2.231   2.547   2.924 -0.6038 -0.4090 -0.5355
 6737SOL    HW120639   2.275   2.506   2.998 -1.8329  0.8433  0.9559
 6737SOL    HW220640   2.139   2.555   2.952 -0.9761  0.6467 -1.9508
 6738SOL     OW20641   0.859   2.544   3.818  0.1052 -0.1967  0.4521
 6738SOL    HW120642   0.798   2.548   3.892 -1.7918  2.8032 -1.0837
 6738SOL    HW220643   0.937   2.589   3.849  0.1147 -0.7272  1.2373
 6739SOL     OW20644   2.652   0.555   5.370 -0.3554  0.0438 -0.5098
 6739SOL    HW120645   2.738   0.566   5.412 -1.0275  2.1886  0.4512
 6739SOL    HW220646   2.640   0.635   5.319 -2.1181  0.1472  0.0116
 6740SOL     OW20647   1.762   4.687   6.134  0.0023 -0.6640 -0.1363
 6740SOL    HW120648   1.837   4.708   6.189 -0.0113 -0.4079 -0.2134
 6740SOL    HW220649   1.759   4.758   6.070 -0.3226 -0.6568 -0.1141
 6741SOL     OW20650   0.950   5.812   3.381 -0.1317  0.0046  0.0223
 6741SOL    HW120651   0.937   5.902   3.351 -1.9576 -0.2490 -0.0647
 6741SOL    HW220652   1.004   5.772   3.313 -2.2753  0.0737 -1.8293
 6742SOL     OW20653   2.174   4.794   4.815  0.2870  0.0339 -0.7144
 6742SOL    HW120654   2.110   4.725   4.795  0.2120 -0.2097  0.3073
 6742SOL    HW220655   2.132   4.875   4.786  0.3169 -0.3150 -1.8025
 6743SOL     OW20656   5.817   5.131   5.433 -0.1500 -0.5756  0.3326
 6743SOL    HW120657   5.830   5.148   5.340  0.3727 -1.7018  0.1821
 6743SOL    HW220658   5.831   5.216   5.475 -2.1683  0.3528 -0.7497
 6744SOL     OW20659   4.326   2.986   5.287  0.5581  0.0949 -0.1584
 6744SOL    HW120660   4.270   2.979   5.209  0.5676 -1.8509 -0.0408
 6744SOL    HW220661   4.350   2.896   5.307  2.9410  0.7988  0.4056
 6745SOL     OW20662   3.972   1.832   0.302 -0.1847 -0.0216  0.0276
 6745SOL    HW120663   3.975   1.848   0.208  1.9081 -0.1942  0.0244
 6745SOL    HW220664   4.064   1.827   0.329 -0.7329 -0.6293  1.9675
 6746SOL     OW20665   0.937   6.057   6.096  0.2541  0.0706  0.5156
 6746SOL    HW120666   0.910   5.968   6.073  0.4047  0.2860 -0.5462
 6746SOL    HW220667   0.874   6.113   6.051  0.5739  0.5147  0.6171
 6747SOL     OW20668   4.313   1.226   3.980  0.2261 -0.1261 -0.0139
 6747SOL    HW120669   4.331   1.238   4.073 -1.7942  2.6624  0.1319
 6747SOL    HW220670   4.283   1.135   3.973 -0.1963 -0.2103  2.1678
 6748SOL     OW20671   2.141   6.222   3.118  0.2068 -0.3102  0.2013
 6748SOL    HW120672   2.148   6.133   3.154 -1.9076  0.5378  3.0661
 6748SOL    HW220673   2.217   6.268   3.154  0.7875 -0.6703 -0.5244
 6749SOL     OW20674   0.740   5.937   3.014  0.0296  0.5929 -0.1366
 6749SOL    HW120675   0.755   5.885   2.935 -0.6209 -0.8995  0.6608
 6749SOL    HW220676   0.671   5.998   2.990 -0.8645 -0.5139 -0.4882
 6750SOL     OW20677   1.663   0.479   3.123  0.1995  0.2433 -0.0933
 6750SOL    HW120678   1.752   0.490   3.157  0.3282 -0.0037 -0.3402
 6750SOL    HW220679   1.676   0.463   3.029 -0.0202 -0.9631  0.0584
 6751SOL     OW20680   2.701   2.562   3.041 -0.4388  0.1311  0.1818
 6751SOL    HW120681   2.661   2.549   2.955  0.7032 -0.6792 -0.2459
 6751SOL    HW220682   2.695   2.656   3.056 -1.4037  0.1830 -0.3971
 6752SOL     OW20683   4.646   2.317   5.935  0.6702 -0.1456 -0.5256
 6752SOL    HW120684   4.647   2.301   6.029  1.4416 -0.0147 -0.5061
 6752SOL    HW220685   4.709   2.254   5.899 -0.7624 -1.2826 -1.1456
 6753SOL     OW20686   3.301   0.379   4.096  0.9439 -0.3652 -0.7168
 6753SOL    HW120687   3.329   0.406   4.183 -2.6075 -0.1545  0.5491
 6753SOL    HW220688   3.245   0.451   4.066  0.3935 -1.3752 -2.2182
 6754SOL     OW20689   2.592   5.730   1.685 -0.3106 -0.5694  0.1501
 6754SOL    HW120690   2.502   5.721   1.655  0.3217 -0.7002 -1.8860
 6754SOL    HW220691   2.602   5.662   1.752 -1.4589 -1.1710 -0.2531
 6755SOL     OW20692   5.420   3.325   0.152  0.4454 -0.0551 -0.2362
 6755SOL    HW120693   5.502   3.358   0.115 -0.8766  2.4836 -1.0807
 6755SOL    HW220694   5.394   3.254   0.092  1.9375 -0.8836  0.0291
 6756SOL     OW20695   0.882   6.116   1.623 -0.3202  0.0808  0.3766
 6756SOL    HW120696   0.959   6.065   1.599 -0.6992 -0.2034 -0.2343
 6756SOL    HW220697   0.828   6.056   1.675 -0.4242  0.0826  0.2720
 6757SOL     OW20698   5.811   3.831   0.800  0.6664  0.0390  0.4204
 6757SOL    HW120699   5.802   3.832   0.896  0.9224  1.1082  0.4457
 6757SOL    HW220700   5.877   3.764   0.783  1.4383  0.6168  1.0775
 6758SOL     OW20701   5.098   2.669   3.210  0.2667  0.1771  0.2499
 6758SOL    HW120702   5.062   2.622   3.135 -0.2626 -1.8241  1.6691
 6758SOL    HW220703   5.022   2.693   3.263  0.6769  0.9530  0.5033
 6759SOL     OW20704   3.563   1.311   3.103 -0.3406 -0.2544 -0.0333
 6759SOL    HW120705   3.634   1.247   3.102  0.0903  0.2235 -0.7090
 6759SOL    HW220706   3.519   1.299   3.018  0.4839  1.1485 -0.6883
 6760SOL     OW20707   1.093   0.341   3.904 -0.2805 -0.4912 -0.1691
 6760SOL    HW120708   1.111   0.404   3.834  0.2783 -0.7717 -0.2794
 6760SOL    HW220709   1.002   0.315   3.890 -0.4381  0.0988 -0.2755
 6761SOL     OW20710   2.152   3.127   0.904 -0.1066  0.5034 -0.2837
 6761SOL    HW120711   2.243   3.151   0.921 -0.2344 -0.3233  1.8653
 6761SOL    HW220712   2.111   3.208   0.874  1.4264  0.7543 -1.8860
 6762SOL     OW20713   1.088   5.480   1.139  0.2626 -0.5509 -0.1830
 6762SOL    HW120714   1.034   5.405   1.167  0.6351 -0.2024  1.5799
 6762SOL    HW220715   1.040   5.556   1.171  0.1895 -0.0404 -1.4535
 6763SOL     OW20716   1.660   6.071   0.128 -0.2456  0.1177 -0.2231
 6763SOL    HW120717   1.678   6.137   0.196 -2.1343  0.5050 -0.0281
 6763SOL    HW220718   1.725   6.003   0.143  0.2863  0.8604  1.0674
 6764SOL     OW20719   5.854   1.719   3.944 -0.3062  0.0775 -0.0550
 6764SOL    HW120720   5.943   1.711   3.977 -0.0003  3.2216  0.1570
 6764SOL    HW220721   5.801   1.737   4.022 -0.6125  1.1429 -0.4834
 6765SOL     OW20722   2.507   5.941   5.543 -0.3934  0.3375 -0.2132
 6765SOL    HW120723   2.485   5.902   5.627  0.9765  0.6605  0.3214
 6765SOL    HW220724   2.460   6.025   5.543  1.5954  1.5400  1.4022
 6766SOL     OW20725   3.766   5.416   4.815 -0.2424 -0.3762 -0.5330
 6766SOL    HW120726   3.743   5.496   4.768  2.4042  0.5526 -0.3824
 6766SOL    HW220727   3.743   5.434   4.906 -0.1683 -0.0261 -0.5848
 6767SOL     OW20728   3.783   5.505   2.193  0.2466  0.6060 -0.5599
 6767SOL    HW120729   3.709   5.474   2.246  0.3949  0.5157 -0.4052
 6767SOL    HW220730   3.776   5.601   2.197  0.6872  0.6103  0.2356
 6768SOL     OW20731   2.355   1.179   1.037  0.0427  0.1805  0.6184
 6768SOL    HW120732   2.300   1.238   1.088 -1.6167 -0.2412 -0.5987
 6768SOL    HW220733   2.435   1.229   1.021 -1.1033  1.9319  0.0619
 6769SOL     OW20734   0.421   0.745   5.735 -0.8062  0.7581 -0.2993
 6769SOL    HW120735   0.441   0.717   5.646 -0.1207 -1.0521  0.3882
 6769SOL    HW220736   0.502   0.733   5.783 -0.9941  2.3147  0.4615
 6770SOL     OW20737   5.787   4.341   0.418  0.1164 -0.1078  0.0383
 6770SOL    HW120738   5.751   4.312   0.502  0.1067  1.1112  0.4763
 6770SOL    HW220739   5.718   4.396   0.381  1.3552  2.0571  0.7692
 6771SOL     OW20740   3.140   0.200   1.610 -0.1238  0.0172  0.0030
 6771SOL    HW120741   3.156   0.141   1.684 -1.7731  0.6464  0.9054
 6771SOL    HW220742   3.064   0.164   1.566  1.4035 -0.8883 -2.0286
 6772SOL     OW20743   5.751   5.398   3.055 -0.7142 -0.0316 -0.3116
 6772SOL    HW120744   5.823   5.389   2.993 -1.0176 -1.1119 -0.5177
 6772SOL    HW220745   5.794   5.413   3.140 -0.2226 -1.0655 -0.3624
 6773SOL     OW20746   6.210   2.542   4.972 -0.0956 -0.0091 -0.6353
 6773SOL    HW120747   6.270   2.492   5.028  0.3213  0.1703 -0.9236
 6773SOL    HW220748   6.257   2.553   4.890 -0.0119  1.2296 -0.4402
 6774SOL     OW20749   1.751   6.189   1.186 -0.0451  0.4469  0.4292
 6774SOL    HW120750   1.701   6.225   1.259 -0.5828  1.8334 -0.5701
 6774SOL    HW220751   1.841   6.219   1.200  0.4742 -1.6114  1.9504
 6775SOL     OW20752   5.320   3.892   6.149  0.0354  0.0160  0.3005
 6775SOL    HW120753   5.304   3.978   6.189 -1.0128 -1.3689  3.1441
 6775SOL    HW220754   5.246   3.877   6.091  0.1513  0.9402 -0.0998
 6776SOL     OW20755   3.940   4.287   5.337 -0.0237 -0.2940 -0.7230
 6776SOL    HW120756   3.947   4.355   5.404 -2.2796 -0.2510 -0.4742
 6776SOL    HW220757   4.004   4.221   5.363  0.1615  0.3970  0.6570
 6777SOL     OW20758   2.492   1.089   5.202  0.2514  0.5366 -0.3693
 6777SOL    HW120759   2.513   1.031   5.128 -0.7238  1.3270 -1.3028
 6777SOL    HW220760   2.457   1.168   5.161  0.4787  1.3353  0.9283
 6778SOL     OW20761   5.045   0.895   2.520  0.1524 -0.0728  0.4583
 6778SOL    HW120762   5.052   0.988   2.501 -0.5005  0.0059  0.5867
 6778SOL    HW220763   4.951   0.877   2.521  0.2398 -0.5414  1.3653
 6779SOL     OW20764   5.885   5.453   5.085 -0.2141  0.2896  0.2704
 6779SOL    HW120765   5.828   5.430   5.158  0.6410 -1.0309  0.5624
 6779SOL    HW220766   5.858   5.393   5.014  1.6835 -1.3588  0.8601
 6780SOL     OW20767   5.576   4.509   0.069 -0.3088 -1.0398  0.5646
 6780SOL    HW120768   5.587   4.515   0.164 -1.0442 -0.8361  0.6477
 6780SOL    HW220769   5.586   4.599   0.038  1.2255 -1.2837  0.2787
 6781SOL     OW20770   5.132   5.273   0.786  0.1800 -0.0898 -0.2982
 6781SOL    HW120771   5.216   5.298   0.826  0.3562 -0.0981 -0.6615
 6781SOL    HW220772   5.124   5.180   0.804  0.5600 -0.2296 -0.8183
 6782SOL     OW20773   6.163   2.379   0.807  0.0435  0.6500 -0.0592
 6782SOL    HW120774   6.092   2.439   0.784  1.6040  1.1341 -4.5633
 6782SOL    HW220775   6.141   2.298   0.761  1.5488  0.2408 -0.1151
 6783SOL     OW20776   5.769   0.003   3.031  0.0520  0.1984  0.2290
 6783SOL    HW120777   5.734  -0.043   2.954 -0.5286 -0.1039  0.6675
 6783SOL    HW220778   5.794   0.089   2.997 -0.3865  0.1435 -0.2597
 6784SOL     OW20779   6.005   3.748   4.532 -0.0563 -0.1839 -0.1849
 6784SOL    HW120780   5.983   3.838   4.509  1.2515  0.1179 -0.3659
 6784SOL    HW220781   6.061   3.757   4.610  1.5211 -0.6955 -1.2077
 6785SOL     OW20782   6.141   2.712   3.185  0.0346 -0.0315  0.2382
 6785SOL    HW120783   6.141   2.799   3.145 -1.0588  0.1641  0.6147
 6785SOL    HW220784   6.066   2.667   3.146 -0.3691 -0.2339  1.2185
 6786SOL     OW20785   0.268   5.642   0.230 -0.1686 -0.8530 -0.1035
 6786SOL    HW120786   0.331   5.596   0.176 -1.2530 -1.5741 -0.7980
 6786SOL    HW220787   0.315   5.661   0.311  0.9123 -1.4106 -0.5826
 6787SOL     OW20788   1.234   5.010   3.748 -0.6647 -0.3387 -0.4791
 6787SOL    HW120789   1.251   5.061   3.670  0.9127  1.2884  0.8493
 6787SOL    HW220790   1.281   4.928   3.735 -1.6403 -0.7262 -1.8075
 6788SOL     OW20791   4.010   4.215   2.235 -0.1060  0.6033  0.1024
 6788SOL    HW120792   4.096   4.177   2.253 -0.4270  0.0986  0.6394
 6788SOL    HW220793   3.949   4.142   2.246 -0.5889  0.9124 -0.4444
 6789SOL     OW20794   1.292   5.685   3.398  0.3722  0.4711 -0.2111
 6789SOL    HW120795   1.304   5.780   3.402  0.3892  0.4722 -0.2977
 6789SOL    HW220796   1.370   5.653   3.353  0.3535  0.4179 -0.2060
 6790SOL     OW20797   3.726   0.271   1.423 -0.4363 -0.1691  0.1813
 6790SOL    HW120798   3.671   0.210   1.473 -0.1319 -0.4762  0.1465
 6790SOL    HW220799   3.785   0.308   1.489  0.3586 -1.0093 -0.0276
 6791SOL     OW20800   5.921   4.727   0.140 -1.0159 -0.1773  0.6407
 6791SOL    HW120801   5.935   4.633   0.152 -0.6878 -0.5608 -2.0917
 6791SOL    HW220802   6.008   4.761   0.120 -1.4398  0.3007 -0.4620
 6792SOL     OW20803   1.200   3.436   2.793 -0.2952 -0.4226 -0.0960
 6792SOL    HW120804   1.119   3.486   2.803  1.5863  3.5619 -2.4355
 6792SOL    HW220805   1.244   3.445   2.878 -0.5477  0.9002 -0.0880
 6793SOL     OW20806   1.913   1.457   2.579  0.4457 -0.4992 -0.3389
 6793SOL    HW120807   1.999   1.462   2.536  1.9712 -1.2084  2.3732
 6793SOL    HW220808   1.910   1.369   2.616 -0.7877  0.0329  0.9137
 6794SOL     OW20809   3.939   5.836   1.023 -0.3475  0.4998  0.6880
 6794SOL    HW120810   3.900   5.832   0.936 -0.5237  0.0869  0.7821
 6794SOL    HW220811   3.959   5.928   1.037 -0.6526  0.6165  0.3553
 6795SOL     OW20812   3.317   0.397   1.372 -0.5108 -0.4171  0.0706
 6795SOL    HW120813   3.227   0.420   1.396  0.0989  0.1090  2.0119
 6795SOL    HW220814   3.334   0.315   1.418  0.2907 -0.0415  0.4580
 6796SOL     OW20815   4.437   1.803   4.058  0.5905 -0.1741  0.1310
 6796SOL    HW120816   4.426   1.887   4.014 -0.2940  0.0012  0.6549
 6796SOL    HW220817   4.358   1.754   4.034  0.9276 -0.7160  0.1277
 6797SOL     OW20818   5.398   4.380   2.765 -0.3288  0.0599 -0.7664
 6797SOL    HW120819   5.392   4.454   2.825  1.6766  0.4199 -0.9168
 6797SOL    HW220820   5.437   4.310   2.817  0.1645 -0.0493 -1.2625
 6798SOL     OW20821   3.064   5.376   0.922  0.1681 -0.1402  0.2219
 6798SOL    HW120822   3.115   5.309   0.967 -2.6292 -2.5259  0.1849
 6798SOL    HW220823   3.000   5.404   0.987 -1.3986 -0.7183 -0.9973
 6799SOL     OW20824   4.992   1.896   0.537 -0.5773  0.1632 -0.0056
 6799SOL    HW120825   4.948   1.843   0.471 -0.8857 -1.1955  1.2429
 6799SOL    HW220826   5.073   1.924   0.495 -1.5637  0.8659 -1.5709
 6800SOL     OW20827   3.772   1.530   3.056 -0.2349  0.0988 -0.3585
 6800SOL    HW120828   3.715   1.454   3.044  1.1311 -0.8237 -1.1948
 6800SOL    HW220829   3.843   1.517   2.995  2.0619  0.0974  2.1226
 6801SOL     OW20830   0.583   4.166   3.920 -0.0219  0.1670 -0.4100
 6801SOL    HW120831   0.495   4.189   3.888  0.0154  1.5696  0.3926
 6801SOL    HW220832   0.567   4.103   3.990 -0.3277 -0.1874 -0.7916
 6802SOL     OW20833   1.276   0.371   2.772 -0.6730  0.1731  0.1954
 6802SOL    HW120834   1.207   0.375   2.838  0.0711  0.1052  1.0007
 6802SOL    HW220835   1.269   0.454   2.726 -0.4070  0.7716  1.1997
 6803SOL     OW20836   2.563   0.006   3.118 -0.4018 -0.3992 -0.1403
 6803SOL    HW120837   2.499  -0.065   3.124  0.1618 -0.8775  0.4830
 6803SOL    HW220838   2.648  -0.039   3.114 -0.0332  0.2361  0.3172
 6804SOL     OW20839   2.861   4.311   4.616 -0.1171 -0.0962  0.2020
 6804SOL    HW120840   2.869   4.282   4.707 -2.8779 -1.8690 -0.0085
 6804SOL    HW220841   2.773   4.348   4.611  0.4319  1.0827 -1.5106
 6805SOL     OW20842   6.143   4.731   4.776 -0.1791 -0.4153 -0.0709
 6805SOL    HW120843   6.086   4.685   4.714 -0.9364 -0.2877  0.5168
 6805SOL    HW220844   6.231   4.722   4.739 -0.5097 -1.0583 -0.7263
 6806SOL     OW20845   1.791   3.490   4.155 -0.0224  0.0742  1.1150
 6806SOL    HW120846   1.760   3.572   4.193 -1.1066 -0.1095  0.6655
 6806SOL    HW220847   1.886   3.499   4.153 -0.1157  1.2550  1.2188
 6807SOL     OW20848   1.426   2.050   2.478  0.9592 -0.1724  0.1236
 6807SOL    HW120849   1.400   2.114   2.412 -2.0570 -0.2691  1.0800
 6807SOL    HW220850   1.466   2.102   2.548 -1.5180  0.7733  0.9184
 6808SOL     OW20851   1.385   6.158   2.910 -0.2508  0.7942 -0.0845
 6808SOL    HW120852   1.319   6.191   2.971 -0.3898 -0.6629  0.6095
 6808SOL    HW220853   1.396   6.228   2.846 -1.4419  1.6292  0.5779
 6809SOL     OW20854   3.652   0.999   5.634 -0.1656 -0.9984 -0.0351
 6809SOL    HW120855   3.727   1.054   5.613 -0.5256  0.1491  1.5690
 6809SOL    HW220856   3.661   0.980   5.727 -3.1383  1.2754  0.8557
 6810SOL     OW20857   2.361   6.075   6.188  0.0605 -0.1929  0.1644
 6810SOL    HW120858   2.390   5.988   6.160  0.6360  0.4106 -1.2069
 6810SOL    HW220859   2.346   6.123   6.106 -0.3727  0.9637  0.8934
 6811SOL     OW20860   4.891   4.999   6.210  0.5799 -0.2830  0.4447
 6811SOL    HW120861   4.869   5.042   6.128 -0.3015  0.6974  1.1803
 6811SOL    HW220862   4.899   4.906   6.187  0.9494  0.0499 -0.8495
 6812SOL     OW20863   2.236   0.690   1.511  0.3785 -0.6455 -0.0145
 6812SOL    HW120864   2.184   0.769   1.493 -0.0171 -0.9390 -0.1878
 6812SOL    HW220865   2.209   0.628   1.443  1.5128 -0.5509 -0.5738
 6813SOL     OW20866   5.724   3.293   1.143  0.0498 -0.3967 -0.6535
 6813SOL    HW120867   5.630   3.309   1.143  0.1392  1.4308  3.5550
 6813SOL    HW220868   5.759   3.354   1.078 -1.5467 -0.2661 -1.4357
 6814SOL     OW20869   2.992   0.815   5.877  0.0530  0.1353 -0.2648
 6814SOL    HW120870   2.957   0.874   5.811 -1.7772 -1.3409 -0.6938
 6814SOL    HW220871   3.081   0.847   5.894 -0.4612  2.2518 -1.3234
 6815SOL     OW20872   0.824   4.379   0.944 -0.3733  0.3555  0.8330
 6815SOL    HW120873   0.758   4.420   1.000 -2.2410 -2.3307  0.7413
 6815SOL    HW220874   0.850   4.300   0.990 -0.4158 -0.8464 -1.0944
 6816SOL     OW20875   5.978   0.779   3.738 -0.0606  0.2333  0.0786
 6816SOL    HW120876   6.064   0.814   3.717  0.5798 -0.6011  1.1804
 6816SOL    HW220877   5.933   0.773   3.654 -0.5566  4.4040 -0.1722
 6817SOL     OW20878   1.938   0.406   3.224 -0.2529 -0.1582  0.0562
 6817SOL    HW120879   1.949   0.324   3.178  0.3728 -0.1674  0.2205
 6817SOL    HW220880   1.899   0.382   3.308  0.2381 -0.3185  0.2365
 6818SOL     OW20881   3.071   2.386   0.432 -0.2498  0.9456  0.1246
 6818SOL    HW120882   3.051   2.441   0.508  0.7655  0.4483  0.7794
 6818SOL    HW220883   3.088   2.299   0.470 -1.9551  0.0977 -0.8855
 6819SOL     OW20884   1.999   1.039   3.834 -0.4661  0.1954 -0.0675
 6819SOL    HW120885   2.024   1.012   3.745 -0.3791  1.3700 -0.4105
 6819SOL    HW220886   1.991   0.957   3.882  0.6701 -0.3955 -0.8471
 6820SOL     OW20887   3.150   4.457   3.571  0.1500  0.7387 -0.1276
 6820SOL    HW120888   3.097   4.412   3.505  1.3744  0.4776 -0.9828
 6820SOL    HW220889   3.105   4.440   3.653 -0.4263 -0.5169 -0.6599
 6821SOL     OW20890   0.909   1.523   3.992  0.1129  0.6865 -0.0467
 6821SOL    HW120891   0.852   1.479   4.055 -0.1835 -0.1948 -0.9079
 6821SOL    HW220892   0.854   1.593   3.955 -0.9300 -0.9838 -1.8428
 6822SOL     OW20893   5.754   2.577   0.505  0.5111  0.1476 -0.0108
 6822SOL    HW120894   5.842   2.553   0.478  0.4426 -0.1559  0.0285
 6822SOL    HW220895   5.726   2.506   0.563 -0.0963 -0.2358 -0.7410
 6823SOL     OW20896   2.346   2.216   1.896  0.0418 -0.1426 -0.1970
 6823SOL    HW120897   2.363   2.294   1.842  1.3621  0.4671  1.0129
 6823SOL    HW220898   2.277   2.243   1.956 -0.4144 -0.3436 -0.6272
 6824SOL     OW20899   5.898   1.857   5.727  0.5379 -0.1401 -0.1326
 6824SOL    HW120900   5.841   1.835   5.800  0.8018  0.7468  0.3561
 6824SOL    HW220901   5.844   1.841   5.649  0.1427 -0.7624  0.2675
 6825SOL     OW20902   4.980   0.570   5.615  0.3774  0.1063  0.0093
 6825SOL    HW120903   5.041   0.497   5.613 -0.2995 -0.4585 -0.7273
 6825SOL    HW220904   4.914   0.544   5.680  1.0244  0.8312  1.0030
 6826SOL     OW20905   5.206   2.705   3.792  0.3636 -0.4916 -0.9683
 6826SOL    HW120906   5.167   2.701   3.705 -0.5932 -0.0107 -0.5697
 6826SOL    HW220907   5.181   2.623   3.834  0.7574 -0.6879 -1.1051
 6827SOL     OW20908   2.610   5.350   6.072  0.2798  0.3760  0.2305
 6827SOL    HW120909   2.542   5.411   6.046  0.3849 -0.1915 -1.4545
 6827SOL    HW220910   2.620   5.364   6.167 -1.4331  1.1794  0.3238
 6828SOL     OW20911   1.859   3.284   1.006  0.4827  0.5328 -0.6949
 6828SOL    HW120912   1.828   3.210   0.952  0.2625 -0.9065  1.2847
 6828SOL    HW220913   1.933   3.320   0.957  0.1465 -0.5389 -2.0713
 6829SOL     OW20914   1.746   4.088   4.528 -0.0805  0.1268  0.0545
 6829SOL    HW120915   1.754   4.028   4.454 -0.0637  0.9179 -0.5990
 6829SOL    HW220916   1.815   4.061   4.589 -0.7694 -1.2077  0.2932
 6830SOL     OW20917   1.906   5.383   3.358 -0.0632 -0.6185 -0.2665
 6830SOL    HW120918   1.903   5.297   3.315  0.4971  0.0686 -1.7566
 6830SOL    HW220919   1.815   5.405   3.374 -0.1843 -1.8186  0.8628
 6831SOL     OW20920   1.495   3.995   4.998  0.0499  0.5377  0.5229
 6831SOL    HW120921   1.400   3.988   4.999 -0.1060  2.1480 -0.1559
 6831SOL    HW220922   1.526   3.908   5.023 -1.5337 -1.5348 -3.6530
 6832SOL     OW20923   2.023   2.206   1.679  0.1360 -0.3222 -0.5905
 6832SOL    HW120924   2.016   2.242   1.768  0.3617  2.9480 -1.7545
 6832SOL    HW220925   1.946   2.150   1.670  1.1331 -2.3731  2.2410
 6833SOL     OW20926   2.002   5.065   3.623 -0.3427 -0.1803 -0.0461
 6833SOL    HW120927   1.977   5.061   3.716 -0.1592 -1.5054 -0.0265
 6833SOL    HW220928   1.920   5.069   3.576 -0.4601 -0.0862  0.1653
 6834SOL     OW20929   0.668   1.811   1.010 -0.1938  0.3825  0.1485
 6834SOL    HW120930   0.613   1.835   1.085  0.9111 -0.4759  1.2880
 6834SOL    HW220931   0.702   1.894   0.976 -0.3414  0.7572  0.9023
 6835SOL     OW20932   5.827   5.026   2.116  0.2284 -0.2072  0.0850
 6835SOL    HW120933   5.892   5.020   2.186  1.0385  0.6059 -0.5721
 6835SOL    HW220934   5.841   4.946   2.064 -1.2092 -1.4385  1.5103
 6836SOL     OW20935   2.107   2.807   5.174  0.3745 -0.2957 -0.4508
 6836SOL    HW120936   2.183   2.809   5.233 -0.4953 -0.7951  0.7190
 6836SOL    HW220937   2.135   2.752   5.101  1.5299  0.4636 -0.6161
 6837SOL     OW20938   2.863   4.795   5.057  0.3257  0.1808  0.0312
 6837SOL    HW120939   2.811   4.815   5.135  0.1403 -1.5727  0.4012
 6837SOL    HW220940   2.891   4.881   5.024 -2.0646  1.1374  0.3049
 6838SOL     OW20941   3.280   1.077   1.228  0.0394 -0.7486 -0.1934
 6838SOL    HW120942   3.204   1.124   1.262 -0.5109 -0.3772 -1.8530
 6838SOL    HW220943   3.354   1.136   1.246 -0.3529 -0.1845 -0.3998
 6839SOL     OW20944   1.451   4.563   2.445 -0.1342  0.0329 -0.1863
 6839SOL    HW120945   1.407   4.560   2.360  0.4459 -0.9417 -0.4786
 6839SOL    HW220946   1.439   4.475   2.480  1.6639 -0.3180 -0.3457
 6840SOL     OW20947   4.801   0.366   4.305  0.9935 -0.6166 -0.4889
 6840SOL    HW120948   4.725   0.405   4.262 -0.2492 -0.7369  1.4974
 6840SOL    HW220949   4.876   0.406   4.261 -0.2005  2.3513 -0.0596
 6841SOL     OW20950   0.050   4.437   2.351 -0.4292  0.3353 -0.1378
 6841SOL    HW120951   0.034   4.476   2.437 -0.9448  1.8170 -0.8542
 6841SOL    HW220952   0.113   4.367   2.367 -1.1558  0.0218  1.5524
 6842SOL     OW20953   1.698   1.245   4.916 -0.0766 -0.5979 -0.2429
 6842SOL    HW120954   1.741   1.324   4.885 -0.3841 -0.3243  0.0171
 6842SOL    HW220955   1.605   1.267   4.918 -0.1154 -0.7867  0.3429
 6843SOL     OW20956   5.299   6.199   4.642  0.0272  0.1311 -0.3307
 6843SOL    HW120957   5.228   6.242   4.691  2.3937  0.8381  2.8629
 6843SOL    HW220958   5.287   6.106   4.659  0.5539  0.3356  1.4528
 6844SOL     OW20959   6.002   3.613   0.844 -0.1367  0.3075  0.6906
 6844SOL    HW120960   5.996   3.523   0.810 -0.9161 -0.0772  1.8008
 6844SOL    HW220961   5.950   3.612   0.924  0.9961  1.3887  1.4825
 6845SOL     OW20962   2.653   5.435   0.847 -0.1712 -0.4142  0.1852
 6845SOL    HW120963   2.702   5.486   0.782 -1.1988  0.8742  0.3789
 6845SOL    HW220964   2.629   5.355   0.802  1.3253 -0.6693 -0.1993
 6846SOL     OW20965   2.424   4.808   1.190 -0.1753  0.2732  0.0002
 6846SOL    HW120966   2.413   4.862   1.269 -2.2689 -2.7720  2.0174
 6846SOL    HW220967   2.350   4.748   1.193  1.3181 -1.8880 -2.7694
 6847SOL     OW20968   0.631   4.043   2.991 -0.1101 -0.3721  0.3292
 6847SOL    HW120969   0.685   4.006   3.061  1.7750  1.6963  0.0840
 6847SOL    HW220970   0.623   4.136   3.012 -1.1702 -0.0731 -1.1764
 6848SOL     OW20971   1.981   3.078   4.395 -0.0307 -0.1819  0.4085
 6848SOL    HW120972   2.026   3.092   4.312  0.6227  1.2396  0.9723
 6848SOL    HW220973   1.949   2.987   4.390  1.5364 -0.7177 -0.6421
 6849SOL     OW20974   6.205   3.755   4.182 -0.5032  0.0352  1.0050
 6849SOL    HW120975   6.179   3.664   4.190 -1.7271  0.4972  2.8357
 6849SOL    HW220976   6.285   3.763   4.234 -0.2494 -0.0359  0.6307
 6850SOL     OW20977   0.591   2.255   1.809  0.2124 -0.1116 -0.4128
 6850SOL    HW120978   0.503   2.292   1.808 -0.3481 -1.2821  1.1133
 6850SOL    HW220979   0.588   2.181   1.749  0.2470  0.0284 -0.5877
 6851SOL     OW20980   0.092   2.228   3.837 -0.4362 -0.3482  0.2635
 6851SOL    HW120981   0.164   2.255   3.780 -0.6102  0.3199  0.3498
 6851SOL    HW220982   0.078   2.302   3.896 -1.8419 -0.0422 -0.3937
 6852SOL     OW20983   2.683   3.926   0.963  0.3981 -0.3393 -0.2601
 6852SOL    HW120984   2.715   3.990   1.026  0.7760 -0.2250 -0.5648
 6852SOL    HW220985   2.761   3.900   0.913 -0.2356  1.1844 -2.1496
 6853SOL     OW20986   3.699   4.783   0.905  0.0476  0.4968 -0.0029
 6853SOL    HW120987   3.621   4.817   0.948 -0.7013  0.5890 -1.3900
 6853SOL    HW220988   3.675   4.695   0.877 -0.0111  0.9845 -1.5545
 6854SOL     OW20989   2.567   2.523   1.615 -0.1517 -0.0616 -0.2934
 6854SOL    HW120990   2.495   2.566   1.568 -0.4337  0.9013  0.9714
 6854SOL    HW220991   2.646   2.552   1.569 -0.5076 -0.3886 -1.1253
 6855SOL     OW20992   5.895   3.668   5.568  1.0547  0.1068  0.6153
 6855SOL    HW120993   5.809   3.688   5.605  0.5735 -0.8908  0.0725
 6855SOL    HW220994   5.876   3.609   5.495  2.3442 -1.9867  1.8761
 6856SOL     OW20995   6.183   0.534   5.281  0.2853 -0.1676 -0.6358
 6856SOL    HW120996   6.269   0.538   5.322 -0.7083  1.2075  1.4651
 6856SOL    HW220997   6.180   0.611   5.223  0.6433 -0.5025 -1.1021
 6857SOL     OW20998   6.232   1.946   1.483  0.1225 -0.1277  0.2326
 6857SOL    HW120999   6.150   1.919   1.442  0.2780  1.1011 -0.9739
 6857SOL    HW221000   6.222   2.041   1.496  2.2928  0.5748 -2.3687
 6858SOL     OW21001   3.902   5.405   5.565 -0.4220 -0.0728  0.0638
 6858SOL    HW121002   3.961   5.451   5.505 -0.6243  0.1174  0.0076
 6858SOL    HW221003   3.925   5.313   5.555 -0.5944 -0.0613 -0.4595
 6859SOL     OW21004   1.086   6.013   3.949 -0.2279 -0.0208 -0.5007
 6859SOL    HW121005   1.172   5.983   3.977 -0.0166  1.0910  0.1395
 6859SOL    HW221006   1.095   6.027   3.855 -0.2138 -1.4718 -0.7383
 6860SOL     OW21007   5.992   0.514   4.718  0.8993  0.6204  0.0602
 6860SOL    HW121008   6.062   0.558   4.766  0.4695  1.5062 -0.1026
 6860SOL    HW221009   5.947   0.461   4.785 -0.3326  2.6253  0.9313
 6861SOL     OW21010   5.535   3.034   3.039  0.4343  0.6182  0.2615
 6861SOL    HW121011   5.514   3.060   3.129 -0.7050  1.3278 -0.1885
 6861SOL    HW221012   5.482   3.091   2.984  0.4203 -0.4143 -0.8488
 6862SOL     OW21013   5.602   3.901   2.499 -1.1246  0.3929 -0.2494
 6862SOL    HW121014   5.533   3.921   2.436 -0.2946 -1.7114 -1.9204
 6862SOL    HW221015   5.568   3.826   2.548 -1.1014  1.0410  0.7988
 6863SOL     OW21016   5.219   4.948   5.560 -0.2187 -0.2738  0.1780
 6863SOL    HW121017   5.248   4.875   5.505 -0.4082  0.2066 -0.5825
 6863SOL    HW221018   5.161   4.908   5.625  0.2101 -0.8901  0.1851
 6864SOL     OW21019   4.103   1.014   4.121 -0.1615  0.5159  0.1545
 6864SOL    HW121020   4.057   1.026   4.038 -0.2871 -1.5455 -0.1213
 6864SOL    HW221021   4.160   0.939   4.106  0.1176  0.3651  1.8194
 6865SOL     OW21022   0.360   1.860   5.857 -0.0337  0.2319  0.1404
 6865SOL    HW121023   0.308   1.899   5.786 -1.9931 -1.2383  0.6680
 6865SOL    HW221024   0.297   1.845   5.928  1.3821 -0.5133  1.3112
 6866SOL     OW21025   6.105   1.118   2.402 -0.3890  0.3387 -0.2750
 6866SOL    HW121026   6.099   1.212   2.416  1.9981  1.1382 -3.4430
 6866SOL    HW221027   6.017   1.092   2.376 -1.1094  1.6563  0.7495
 6867SOL     OW21028   1.224   2.368   3.691 -0.5126 -0.1296 -0.1658
 6867SOL    HW121029   1.304   2.334   3.651 -1.0834 -2.4955  0.5365
 6867SOL    HW221030   1.159   2.366   3.621  0.2428  3.0501 -1.1135
 6868SOL     OW21031   0.817   2.168   3.321 -0.2895  0.2454  0.1316
 6868SOL    HW121032   0.855   2.125   3.397 -0.8507 -1.2463 -0.3907
 6868SOL    HW221033   0.884   2.229   3.291  0.7640 -0.6622  0.5884
 6869SOL     OW21034   4.843   2.505   0.703 -0.5209  0.4881  0.7485
 6869SOL    HW121035   4.851   2.590   0.660  0.0389  0.3823  0.6268
 6869SOL    HW221036   4.832   2.443   0.631 -1.3323  0.4931  0.8564
 6870SOL     OW21037   2.362   5.668   4.322  0.1033 -0.3913 -0.9496
 6870SOL    HW121038   2.395   5.716   4.246  1.4137 -0.1786 -0.2686
 6870SOL    HW221039   2.434   5.610   4.347  0.1527  0.3892  0.8296
 6871SOL     OW21040   1.196   2.675   1.791 -0.7446  0.2444 -0.6339
 6871SOL    HW121041   1.143   2.658   1.869 -1.1875  0.6181 -0.8449
 6871SOL    HW221042   1.198   2.591   1.744 -0.5654  0.0472 -0.2738
 6872SOL     OW21043   3.358   5.977   6.143  0.0044 -0.3168 -0.3533
 6872SOL    HW121044   3.275   5.950   6.184  0.7891 -1.2747  0.6775
 6872SOL    HW221045   3.342   5.969   6.049 -2.0331  2.4133 -0.3967
 6873SOL     OW21046   5.149   3.392   4.944 -0.1316  0.1084  0.2856
 6873SOL    HW121047   5.222   3.395   4.881  0.0139 -0.6871  0.4104
 6873SOL    HW221048   5.191   3.395   5.030 -0.3007  0.6093  0.3525
 6874SOL     OW21049   0.585   4.143   3.443 -0.2970  0.0193 -0.2466
 6874SOL    HW121050   0.630   4.153   3.528 -0.3304  1.9561 -0.4121
 6874SOL    HW221051   0.580   4.232   3.409 -1.6334 -0.5525 -1.6122
 6875SOL     OW21052   2.571   4.061   0.523 -0.2629 -0.3647  0.2394
 6875SOL    HW121053   2.641   4.108   0.479  0.4794 -1.2970  0.3895
 6875SOL    HW221054   2.492   4.111   0.503  0.4510  0.7877  0.1847
 6876SOL     OW21055   0.495   3.833   2.844 -0.1070 -0.4911 -0.0698
 6876SOL    HW121056   0.537   3.913   2.877 -0.8308 -0.0202 -0.2819
 6876SOL    HW221057   0.559   3.764   2.862  0.6674  0.1809 -0.1768
 6877SOL     OW21058   5.153   1.103   4.997 -0.1522 -0.8423  0.0089
 6877SOL    HW121059   5.059   1.104   5.011 -0.2178 -2.7270 -0.0624
 6877SOL    HW221060   5.176   1.195   4.985 -2.1437 -0.4115 -1.0460
 6878SOL     OW21061   4.373   3.849   1.349  0.4356 -0.1899  0.2672
 6878SOL    HW121062   4.443   3.915   1.347  1.1495 -0.9526 -1.0929
 6878SOL    HW221063   4.318   3.876   1.422  1.4734  1.1310  0.6142
 6879SOL     OW21064   4.868   2.319   1.527  0.5078  0.1712 -0.0837
 6879SOL    HW121065   4.816   2.345   1.451  1.5048 -1.4474 -1.3908
 6879SOL    HW221066   4.862   2.393   1.587 -1.5356  0.8822 -1.0838
 6880SOL     OW21067   4.009   5.764   3.827  0.3407  0.1581 -0.1179
 6880SOL    HW121068   3.966   5.774   3.742 -2.7405  1.4625  1.4501
 6880SOL    HW221069   3.958   5.697   3.872  2.0321 -0.6576  0.7119
 6881SOL     OW21070   2.979   4.582   0.423  0.0316  0.2993 -0.1800
 6881SOL    HW121071   3.053   4.642   0.419 -0.3818  0.8678  0.3695
 6881SOL    HW221072   3.018   4.496   0.439  0.5800  0.5616 -0.0899
 6882SOL     OW21073   4.320   0.224   3.381 -0.0296 -0.1783 -0.1547
 6882SOL    HW121074   4.341   0.301   3.434  0.2678 -0.5334  0.2491
 6882SOL    HW221075   4.322   0.151   3.443 -1.9321 -0.3177 -0.1998
 6883SOL     OW21076   1.132   3.344   1.711 -0.2025 -0.2295 -0.0767
 6883SOL    HW121077   1.147   3.417   1.771  1.3307  1.0540 -1.8691
 6883SOL    HW221078   1.121   3.268   1.767 -0.6287  1.1762  1.8453
 6884SOL     OW21079   4.792   0.989   1.462 -0.3994 -0.4491  0.0677
 6884SOL    HW121080   4.850   0.916   1.444  1.5877  0.8996  0.6728
 6884SOL    HW221081   4.798   1.045   1.385 -1.0809 -0.3776  0.0529
 6885SOL     OW21082   2.754   0.705   4.933  0.0965  0.4095 -0.1864
 6885SOL    HW121083   2.813   0.669   4.867 -0.7635 -1.4205 -0.0275
 6885SOL    HW221084   2.699   0.631   4.958 -1.2066  1.6679  0.8224
 6886SOL     OW21085   5.723   3.090   5.629  0.1466 -0.3124  0.4255
 6886SOL    HW121086   5.670   3.090   5.548  0.8642  1.1342 -0.0817
 6886SOL    HW221087   5.676   3.031   5.688 -0.2173 -1.6789 -1.1553
 6887SOL     OW21088   1.991   5.256   4.038  0.1329 -0.0511  0.3044
 6887SOL    HW121089   1.963   5.314   4.108  0.5413  0.9332 -0.3258
 6887SOL    HW221090   1.930   5.183   4.041 -0.4359  0.4474  1.0620
 6888SOL     OW21091   2.427   2.441   5.408  0.0756 -0.6377 -0.4529
 6888SOL    HW121092   2.522   2.451   5.407  0.0862 -0.6252  0.3951
 6888SOL    HW221093   2.413   2.351   5.437 -0.1799 -0.3308  0.4172
 6889SOL     OW21094   3.841   2.062   2.438 -0.1619 -0.1087 -0.1943
 6889SOL    HW121095   3.908   2.055   2.370  0.5612  0.3170  0.4544
 6889SOL    HW221096   3.780   2.128   2.406  0.2306  0.1615 -0.3773
 6890SOL     OW21097   1.555   2.647   4.740 -0.2369 -0.4828 -0.0251
 6890SOL    HW121098   1.557   2.551   4.741 -1.7356 -0.6557  3.7370
 6890SOL    HW221099   1.487   2.670   4.804 -1.9216  3.1421 -2.7956
 6891SOL     OW21100   1.800   0.705   5.046  0.6016  0.5971 -0.3187
 6891SOL    HW121101   1.832   0.765   5.114 -2.0783  1.6768  0.1050
 6891SOL    HW221102   1.868   0.707   4.979  2.2686  1.2813  1.2791
 6892SOL     OW21103   2.239   1.723   4.209 -0.4448  0.2545 -0.3869
 6892SOL    HW121104   2.194   1.795   4.167 -2.2159 -0.2911  0.4941
 6892SOL    HW221105   2.200   1.644   4.172 -1.4447 -0.2367  1.5420
 6893SOL     OW21106   2.351   1.373   4.362  0.1601 -0.0562  0.2816
 6893SOL    HW121107   2.392   1.414   4.438 -1.4833 -1.2943  1.9650
 6893SOL    HW221108   2.374   1.280   4.370 -1.6978 -0.5562  0.5279
 6894SOL     OW21109   2.026   1.780   5.007 -0.0234  0.5469  0.0800
 6894SOL    HW121110   1.974   1.753   4.932  0.2358 -1.7965  0.6660
 6894SOL    HW221111   1.976   1.851   5.048  0.0765  2.2311 -2.5044
 6895SOL     OW21112   5.484   0.232   2.262 -0.1375 -0.2201  0.1726
 6895SOL    HW121113   5.448   0.268   2.181  1.7904 -0.3367 -0.7904
 6895SOL    HW221114   5.498   0.140   2.243  2.2477  0.1465 -0.1457
 6896SOL     OW21115   4.478   3.401   0.515 -0.5549 -0.5704  0.0793
 6896SOL    HW121116   4.493   3.490   0.547 -1.1117  0.5394 -2.4941
 6896SOL    HW221117   4.549   3.385   0.453 -0.3535 -2.0153  0.6457
 6897SOL     OW21118   3.857   2.295   2.934 -0.3238 -0.0068  0.2723
 6897SOL    HW121119   3.871   2.374   2.985  0.0928 -0.1602  0.4015
 6897SOL    HW221120   3.901   2.312   2.850 -1.7871  0.6079 -0.4093
 6898SOL     OW21121   4.988   5.493   4.678 -0.4728 -0.8324  0.1998
 6898SOL    HW121122   5.078   5.463   4.663 -0.8209 -1.9250  0.2193
 6898SOL    HW221123   4.996   5.588   4.692  0.8311 -1.1176  1.5950
 6899SOL     OW21124   2.244   5.672   2.326 -0.0380 -0.3112 -0.1866
 6899SOL    HW121125   2.299   5.691   2.250  0.3061  0.2134  0.1869
 6899SOL    HW221126   2.231   5.577   2.322  0.8133 -0.4344 -0.3380
 6900SOL     OW21127   0.370   4.551   3.413 -0.3026 -0.2409 -0.2337
 6900SOL    HW121128   0.431   4.624   3.417 -0.6798  0.0548  0.2647
 6900SOL    HW221129   0.296   4.584   3.361 -0.1888 -0.4856 -0.5555
 6901SOL     OW21130   0.554   2.425   0.502  1.0014 -0.0940  0.5705
 6901SOL    HW121131   0.473   2.375   0.492  1.0022  0.0695 -0.3364
 6901SOL    HW221132   0.525   2.516   0.507  1.1342 -0.0217  0.0731
 6902SOL     OW21133   1.191   3.455   0.662  0.1270 -0.4830 -0.2634
 6902SOL    HW121134   1.166   3.453   0.754 -1.0933 -0.3359 -0.5786
 6902SOL    HW221135   1.269   3.510   0.660 -1.4578  1.9334  0.3347
 6903SOL     OW21136   1.332   5.296   0.311 -0.4570 -0.1705  0.1958
 6903SOL    HW121137   1.285   5.314   0.392 -0.0402 -1.8791  0.8681
 6903SOL    HW221138   1.330   5.200   0.303  1.4069 -0.1871 -0.6331
 6904SOL     OW21139   5.275   2.585   2.343 -0.2855  0.3970  0.1072
 6904SOL    HW121140   5.361   2.573   2.383 -0.9147  0.9707  1.7305
 6904SOL    HW221141   5.257   2.678   2.351 -2.2144 -0.0657  2.4538
 6905SOL     OW21142   2.297   3.116   2.942 -0.4382 -0.1713  0.2572
 6905SOL    HW121143   2.383   3.079   2.926 -0.3766 -0.2521  0.7371
 6905SOL    HW221144   2.301   3.204   2.905 -0.6573 -0.7128 -1.0861
 6906SOL     OW21145   0.729   3.826   3.827  0.7249 -0.3183 -0.1367
 6906SOL    HW121146   0.694   3.751   3.876 -0.6559 -0.4149 -1.1904
 6906SOL    HW221147   0.810   3.849   3.872 -0.0617 -0.9174  1.6762
 6907SOL     OW21148   4.817   4.065   0.592 -0.6049 -0.1005  0.2501
 6907SOL    HW121149   4.785   3.980   0.562 -0.6016 -0.2017  0.5333
 6907SOL    HW221150   4.769   4.129   0.540 -1.2338 -0.2512  0.6440
 6908SOL     OW21151   1.552   5.607   4.036  0.2694  0.2459 -0.7190
 6908SOL    HW121152   1.511   5.619   3.951  0.5399  0.7317 -0.7872
 6908SOL    HW221153   1.644   5.589   4.016  0.1089 -0.8183 -0.5690
 6909SOL     OW21154   4.353   5.307   2.817  0.1926  0.7543  0.2496
 6909SOL    HW121155   4.263   5.273   2.822  1.0045 -1.4275  1.4191
 6909SOL    HW221156   4.360   5.365   2.893 -0.7659  2.5540 -0.9521
 6910SOL     OW21157   0.344   5.166   5.721 -0.3335  0.1104 -0.2799
 6910SOL    HW121158   0.274   5.193   5.661  0.1895  0.7298 -0.6206
 6910SOL    HW221159   0.338   5.226   5.795 -0.8160 -0.4947  0.1843
 6911SOL     OW21160   0.097   2.476   1.605  0.3764  0.3234  0.3702
 6911SOL    HW121161   0.049   2.550   1.567 -0.4504 -0.4451 -0.1050
 6911SOL    HW221162   0.187   2.488   1.574 -0.0695  0.2723 -1.0095
 6912SOL     OW21163   0.789   1.105   3.028  0.0118  0.6984  0.5075
 6912SOL    HW121164   0.859   1.143   3.081 -0.2272 -0.3624  1.6279
 6912SOL    HW221165   0.833   1.041   2.973 -0.0409  0.0878  1.1562
 6913SOL     OW21166   4.320   1.790   4.372  0.1490 -0.2135  0.2184
 6913SOL    HW121167   4.287   1.761   4.457  0.5727 -1.3218  0.0311
 6913SOL    HW221168   4.383   1.722   4.347 -0.6296 -0.3727 -1.3886
 6914SOL     OW21169   3.171   3.234   4.379 -0.3595 -0.2349  0.0380
 6914SOL    HW121170   3.236   3.238   4.309 -2.1775  1.3399 -1.6580
 6914SOL    HW221171   3.132   3.147   4.370 -1.2374  0.2960 -1.5890
 6915SOL     OW21172   4.491   4.170   1.161 -0.2965 -0.1079 -0.5982
 6915SOL    HW121173   4.444   4.246   1.195  1.4168  1.1066 -0.7953
 6915SOL    HW221174   4.517   4.121   1.239 -2.4793 -1.2487 -0.5056
 6916SOL     OW21175   0.339   3.740   0.910  0.3967  0.7630  0.6854
 6916SOL    HW121176   0.285   3.778   0.979 -1.6326 -1.3980  0.3738
 6916SOL    HW221177   0.309   3.650   0.902  2.1757  0.2760 -1.4472
 6917SOL     OW21178   5.632   0.860   5.361 -0.5224 -0.2641  0.1519
 6917SOL    HW121179   5.607   0.875   5.453 -1.7404  0.8917 -0.3238
 6917SOL    HW221180   5.602   0.771   5.343 -2.6967  0.4088  0.1683
 6918SOL     OW21181   2.281   4.158   4.989 -0.5687 -0.1544  0.3245
 6918SOL    HW121182   2.275   4.249   5.019 -0.3931 -0.2867  0.7750
 6918SOL    HW221183   2.321   4.164   4.902 -1.4805  0.2708 -0.0804
 6919SOL     OW21184   0.462   1.070   0.405  0.4646 -0.6426  0.0619
 6919SOL    HW121185   0.476   1.013   0.480  1.1860  0.9223  1.1895
 6919SOL    HW221186   0.515   1.148   0.424  0.1756  0.0626 -1.7867
 6920SOL     OW21187   3.821   0.809   0.419 -0.1531 -0.3663 -0.2439
 6920SOL    HW121188   3.807   0.823   0.326 -1.8177  0.6044  0.1104
 6920SOL    HW221189   3.843   0.896   0.454 -1.9950 -0.1928  0.6175
 6921SOL     OW21190   0.193   4.268   4.847 -0.0811 -0.0536 -0.6110
 6921SOL    HW121191   0.130   4.213   4.895 -1.1549 -1.0225 -2.9862
 6921SOL    HW221192   0.268   4.274   4.906 -0.4376 -2.9918  0.3530
 6922SOL     OW21193   1.566   4.634   0.068  0.9911 -0.0932  0.3310
 6922SOL    HW121194   1.642   4.639   0.010  0.6867 -0.0434 -0.0647
 6922SOL    HW221195   1.552   4.540   0.081 -0.4032 -0.2130 -1.6312
 6923SOL     OW21196   0.222   3.425   2.350 -0.1417 -0.6239  0.0109
 6923SOL    HW121197   0.162   3.464   2.413  1.4809 -0.8352  1.7683
 6923SOL    HW221198   0.200   3.331   2.350 -0.2890 -0.5891  0.0695
 6924SOL     OW21199   0.181   1.504   3.994 -0.2958 -0.1308  0.4226
 6924SOL    HW121200   0.124   1.446   3.943  2.7972 -1.5232 -1.8202
 6924SOL    HW221201   0.222   1.561   3.928  0.4112  1.2719  1.9936
 6925SOL     OW21202   3.029   2.940   1.886  0.2564 -0.0653  0.5929
 6925SOL    HW121203   3.097   2.883   1.920  0.4628  0.5682  1.2822
 6925SOL    HW221204   3.072   2.992   1.818  0.0735 -0.7132 -0.0185
 6926SOL     OW21205   4.357   4.816   0.844 -0.2014  0.3673 -0.1283
 6926SOL    HW121206   4.438   4.856   0.812  0.4255 -2.8566 -3.1752
 6926SOL    HW221207   4.304   4.802   0.765 -1.0037 -3.1267  0.8429
 6927SOL     OW21208   2.083   5.661   2.839 -0.0527  0.1733 -0.0280
 6927SOL    HW121209   2.085   5.736   2.780 -0.0895 -1.7711 -2.6638
 6927SOL    HW221210   1.994   5.626   2.830  0.4605 -1.1536 -0.2148
 6928SOL     OW21211   3.299   1.586   0.852 -0.1468  0.1839 -0.1291
 6928SOL    HW121212   3.282   1.505   0.804  0.5235  0.5763 -1.0672
 6928SOL    HW221213   3.362   1.633   0.797  1.0456  0.4336  1.3975
 6929SOL     OW21214   0.760   6.120   1.390  0.4401 -0.2643 -0.1341
 6929SOL    HW121215   0.824   6.114   1.461  0.3356 -0.6196 -0.0697
 6929SOL    HW221216   0.676   6.104   1.432  0.2256  0.9199 -0.0889
 6930SOL     OW21217   2.572   0.969   4.727  0.0546  0.0701 -0.2949
 6930SOL    HW121218   2.645   0.940   4.673 -0.1618  0.3290 -0.7255
 6930SOL    HW221219   2.497   0.918   4.697 -0.2539  0.8213 -0.8294
 6931SOL     OW21220   4.197   2.049   3.776  0.6443 -0.1479 -0.1999
 6931SOL    HW121221   4.242   1.995   3.711 -0.8373 -0.9960 -0.5549
 6931SOL    HW221222   4.150   1.987   3.831 -0.8462  0.7398 -0.4293
 6932SOL     OW21223   5.013   2.946   3.071 -0.0491  0.6980  0.4099
 6932SOL    HW121224   4.961   3.017   3.034  0.6510  0.4034 -1.2356
 6932SOL    HW221225   4.995   2.871   3.014 -0.2634 -0.2800  1.7163
 6933SOL     OW21226   1.529   3.557   1.849  0.9042 -0.3514  0.1743
 6933SOL    HW121227   1.616   3.578   1.814  0.4779 -0.8249 -1.2205
 6933SOL    HW221228   1.470   3.617   1.804  0.1781 -1.8346 -0.9170
 6934SOL     OW21229   1.949   2.953   0.971 -0.1951  0.5317  0.0321
 6934SOL    HW121230   2.024   3.013   0.963 -0.2092  0.4087 -1.0905
 6934SOL    HW221231   1.895   2.971   0.895  1.6041 -3.3574 -2.4801
 6935SOL     OW21232   4.732   4.945   5.790  0.5955  0.5398 -0.4715
 6935SOL    HW121233   4.687   4.862   5.775  0.1655  0.4001  1.3892
 6935SOL    HW221234   4.787   4.956   5.712 -0.6266 -0.6150 -1.5542
 6936SOL     OW21235   0.315   4.990   2.374  0.2802  0.1725 -0.7532
 6936SOL    HW121236   0.385   4.928   2.389 -0.4654 -0.8438 -1.3495
 6936SOL    HW221237   0.344   5.071   2.417  1.7467 -0.2565 -0.8929
 6937SOL     OW21238   4.217   2.196   5.708 -0.4989 -0.2651  0.2269
 6937SOL    HW121239   4.146   2.158   5.759 -0.4244  0.4259  0.8639
 6937SOL    HW221240   4.175   2.228   5.628 -0.9439  0.3397  0.6991
 6938SOL     OW21241   1.901   0.957   1.820  0.3168  0.2117  0.1898
 6938SOL    HW121242   1.906   1.018   1.894  0.5906 -2.6482  2.7544
 6938SOL    HW221243   1.989   0.921   1.813 -0.3582 -1.5524  0.3562
 6939SOL     OW21244   0.211   3.129   2.380  0.2386 -0.0170 -0.1069
 6939SOL    HW121245   0.225   3.042   2.343 -0.1887 -0.4424  0.6907
 6939SOL    HW221246   0.297   3.155   2.413  0.8690  0.8303 -2.2899
 6940SOL     OW21247   3.712   3.762   1.548  0.1235 -0.3793 -0.1461
 6940SOL    HW121248   3.747   3.847   1.520  0.8538 -0.5628  0.1898
 6940SOL    HW221249   3.680   3.778   1.637  2.3137 -0.9644  0.8144
 6941SOL     OW21250   5.774   2.430   2.082 -0.3212 -0.1536  0.2785
 6941SOL    HW121251   5.689   2.398   2.114  0.2589 -1.1217  0.9144
 6941SOL    HW221252   5.769   2.419   1.987  0.0136 -2.7220  0.4735
 6942SOL     OW21253   4.371   1.350   4.333  0.2104 -0.0254 -0.0026
 6942SOL    HW121254   4.350   1.259   4.353  0.6730 -0.2491 -0.5058
 6942SOL    HW221255   4.305   1.401   4.380 -1.4468 -0.6871 -1.5090
 6943SOL     OW21256   5.587   5.206   0.817  0.2196  0.3046 -0.0626
 6943SOL    HW121257   5.566   5.116   0.795 -0.7268  0.1677  1.3123
 6943SOL    HW221258   5.543   5.258   0.750  0.6025 -0.2265 -0.7381
 6944SOL     OW21259   5.619   2.656   0.795 -0.0046 -0.1769 -0.2497
 6944SOL    HW121260   5.690   2.691   0.741 -1.3774  1.0359 -1.3769
 6944SOL    HW221261   5.649   2.669   0.885  1.1781  0.3430 -0.6893
 6945SOL     OW21262   5.545   1.588   0.029 -0.3014  0.7067 -0.6393
 6945SOL    HW121263   5.523   1.523  -0.039 -2.1888  1.3422 -0.7094
 6945SOL    HW221264   5.493   1.561   0.105  1.3444  0.3491  0.4085
 6946SOL     OW21265   5.579   0.573   1.153  0.4019 -0.3942 -0.5321
 6946SOL    HW121266   5.643   0.530   1.209  2.3139  1.1011 -1.4612
 6946SOL    HW221267   5.543   0.643   1.207  1.2242  0.1768 -0.7125
 6947SOL     OW21268   1.731   1.489   3.646 -0.4343 -0.3052 -0.0887
 6947SOL    HW121269   1.782   1.447   3.715  0.1083 -0.5033 -0.5974
 6947SOL    HW221270   1.795   1.541   3.597 -0.7760 -0.2919 -0.5318
 6948SOL     OW21271   5.004   0.406   4.139 -0.2624  0.4348  0.1416
 6948SOL    HW121272   5.040   0.346   4.204  1.7432  2.6158  1.1854
 6948SOL    HW221273   4.963   0.349   4.074 -1.4457 -1.8807  2.7071
 6949SOL     OW21274   5.752   4.696   2.302 -0.3714  0.1338  0.5498
 6949SOL    HW121275   5.690   4.640   2.256  1.8923 -2.9134  0.9385
 6949SOL    HW221276   5.818   4.718   2.237  0.3288 -0.1648  1.1458
 6950SOL     OW21277   2.785   1.896   5.231  0.3594  0.5331  0.2087
 6950SOL    HW121278   2.783   1.802   5.212 -2.4228  0.1658  1.7483
 6950SOL    HW221279   2.780   1.901   5.326 -1.6211  2.2180  0.0721
 6951SOL     OW21280   5.629   5.810   5.146 -0.4694 -0.5275  0.5564
 6951SOL    HW121281   5.594   5.767   5.068 -0.3174  1.3084 -0.5765
 6951SOL    HW221282   5.724   5.799   5.139 -0.3680  0.6767 -0.1907
 6952SOL     OW21283   6.113   4.983   1.911 -0.3635  0.0758  0.0134
 6952SOL    HW121284   6.084   5.068   1.878 -1.8590 -0.3922  0.0395
 6952SOL    HW221285   6.188   4.959   1.856  0.2157  1.4999  0.1569
 6953SOL     OW21286   6.020   6.027   3.885  0.0342  0.1965 -0.8949
 6953SOL    HW121287   6.047   5.959   3.947  0.7066  1.8352  0.6703
 6953SOL    HW221288   5.970   5.979   3.819 -1.1397 -1.5720  1.1385
 6954SOL     OW21289   5.926   1.055   5.428 -0.1329  0.5319 -0.4886
 6954SOL    HW121290   5.900   0.972   5.466 -1.0210  1.2069  0.4061
 6954SOL    HW221291   5.925   1.040   5.333  0.7369 -0.7582 -0.3136
 6955SOL     OW21292   5.655   3.741   3.121 -0.0515  0.1971  0.5460
 6955SOL    HW121293   5.563   3.748   3.145 -0.2808  0.4088 -0.3732
 6955SOL    HW221294   5.655   3.707   3.032  0.7728 -0.0971  0.6414
 6956SOL     OW21295   5.419   1.399   4.687  0.0477  0.6462 -0.6032
 6956SOL    HW121296   5.420   1.306   4.711  0.1325  0.8264  0.1148
 6956SOL    HW221297   5.420   1.399   4.591  2.7688 -0.0557 -0.6465
 6957SOL     OW21298   5.045   3.016   4.214  0.1500 -0.2299  0.2364
 6957SOL    HW121299   4.971   2.959   4.239  0.6163 -1.0385 -0.1848
 6957SOL    HW221300   5.116   2.955   4.195  0.5156  0.4769 -0.7210
 6958SOL     OW21301   5.759   1.292   4.626  0.1085  0.1658  0.2360
 6958SOL    HW121302   5.744   1.361   4.690  1.9425  0.8369  0.0022
 6958SOL    HW221303   5.741   1.211   4.673 -0.9164  0.7438  0.8612
 6959SOL     OW21304   4.126   0.413   0.904 -0.2367  0.4562 -0.3834
 6959SOL    HW121305   4.188   0.463   0.851 -0.9464  0.9994 -0.7103
 6959SOL    HW221306   4.043   0.418   0.857 -0.7170  0.3613  0.4244
 6960SOL     OW21307   2.285   2.444   3.447  0.7079 -0.2851 -0.1142
 6960SOL    HW121308   2.377   2.416   3.454  0.6012 -1.0714 -1.4778
 6960SOL    HW221309   2.280   2.523   3.500  2.0324 -0.5634  0.4749
 6961SOL     OW21310   0.654   3.820   4.353 -0.3375  0.3254  0.4280
 6961SOL    HW121311   0.621   3.904   4.384  1.6630  0.9061  1.1531
 6961SOL    HW221312   0.688   3.777   4.431  0.1803 -0.4107 -0.1828
 6962SOL     OW21313   4.517   0.730   1.632 -0.4316 -0.1881 -0.2636
 6962SOL    HW121314   4.574   0.715   1.557 -0.5569  0.3520 -0.4683
 6962SOL    HW221315   4.510   0.644   1.674  1.4002 -0.0627  0.4018
 6963SOL     OW21316   5.607   6.205   0.161 -0.0140  0.3753  0.1013
 6963SOL    HW121317   5.613   6.225   0.254  1.0714 -1.3020  0.4318
 6963SOL    HW221318   5.695   6.221   0.127 -0.1227 -0.0844 -0.4084
 6964SOL     OW21319   4.934   3.801   3.928  0.0368  0.1115  0.6812
 6964SOL    HW121320   4.838   3.807   3.927  0.0920  1.2709  0.2399
 6964SOL    HW221321   4.962   3.866   3.864  1.1099 -0.9521  0.0335
 6965SOL     OW21322   2.344   4.711   3.139 -0.1198 -0.0879 -0.4842
 6965SOL    HW121323   2.312   4.786   3.190 -0.4732 -0.4480 -0.1652
 6965SOL    HW221324   2.316   4.729   3.049 -0.7761 -0.1434 -0.2994
 6966SOL     OW21325   5.447   3.113   3.291 -0.0610  0.4644  0.4735
 6966SOL    HW121326   5.470   3.075   3.375 -1.2598  0.3464  0.7622
 6966SOL    HW221327   5.362   3.156   3.305 -2.1545 -2.6281 -1.4767
 6967SOL     OW21328   1.373   5.908   5.582 -0.3825 -0.3741  0.5753
 6967SOL    HW121329   1.411   5.985   5.539 -0.0286 -0.6780  0.3358
 6967SOL    HW221330   1.410   5.834   5.534 -0.8510 -0.6897  0.6992
 6968SOL     OW21331   3.604   3.985   3.452  0.1781  0.8321 -0.4242
 6968SOL    HW121332   3.537   4.050   3.477  1.4978  1.9215  0.4141
 6968SOL    HW221333   3.681   4.038   3.430 -0.0529 -0.1731 -4.4557
 6969SOL     OW21334   0.116   5.808   3.901 -0.3150  0.2726 -0.0185
 6969SOL    HW121335   0.207   5.824   3.879  0.0078 -0.2079  0.8994
 6969SOL    HW221336   0.101   5.858   3.981 -0.8608  0.3551 -0.1634
 6970SOL     OW21337   4.042   1.693   4.169 -0.4563 -0.9393 -0.0503
 6970SOL    HW121338   4.020   1.610   4.212 -1.8506 -0.4141  0.3266
 6970SOL    HW221339   4.116   1.726   4.219 -0.6100 -1.4308  0.5220
 6971SOL     OW21340   3.175   6.080   1.099 -0.5782 -0.0822  0.5662
 6971SOL    HW121341   3.113   6.040   1.038  0.9746 -0.8858 -0.5415
 6971SOL    HW221342   3.144   6.169   1.111 -2.2208 -0.6075  0.4487
 6972SOL     OW21343   1.330   5.436   3.861  0.8690  0.5276  0.1760
 6972SOL    HW121344   1.249   5.430   3.810  0.5826  1.9690  0.4116
 6972SOL    HW221345   1.303   5.419   3.951  1.2387 -1.2073 -0.0004
 6973SOL     OW21346   0.449   2.131   1.229 -0.4695  0.0475 -0.2164
 6973SOL    HW121347   0.408   2.215   1.207 -1.2860 -0.8988 -2.5669
 6973SOL    HW221348   0.393   2.095   1.298  0.3091  1.6831  1.3771
 6974SOL     OW21349   5.515   0.554   3.977 -0.3307  0.4895 -0.2520
 6974SOL    HW121350   5.489   0.558   3.885 -0.0350 -0.2147 -0.3783
 6974SOL    HW221351   5.468   0.478   4.012 -0.3175  0.6562  0.1356
 6975SOL     OW21352   4.992   2.378   5.814 -0.0565 -0.2028 -0.1431
 6975SOL    HW121353   4.922   2.441   5.794 -1.1061 -0.8840  1.1792
 6975SOL    HW221354   5.062   2.431   5.852 -1.3672  0.1032  2.0087
 6976SOL     OW21355   2.166   4.555   5.428 -0.1486  0.6417 -0.1049
 6976SOL    HW121356   2.256   4.576   5.452 -0.0545  1.1105 -0.8560
 6976SOL    HW221357   2.169   4.464   5.401  0.4490  1.1314 -1.7892
 6977SOL     OW21358   3.697   5.125   3.736 -0.0545  0.5124 -0.0584
 6977SOL    HW121359   3.763   5.057   3.754 -1.1295 -0.4244  0.4656
 6977SOL    HW221360   3.709   5.189   3.805 -0.6025 -0.3679  0.8744
 6978SOL     OW21361   0.710   1.675   1.399  0.1415 -0.0958 -0.1764
 6978SOL    HW121362   0.673   1.589   1.377  0.0607  0.2371 -1.4173
 6978SOL    HW221363   0.771   1.694   1.327  0.7435  0.5499  0.4848
 6979SOL     OW21364   3.254   4.095   3.350 -0.1358  0.5081 -0.0404
 6979SOL    HW121365   3.275   4.005   3.375 -0.0172  0.9732  1.6569
 6979SOL    HW221366   3.309   4.149   3.406 -1.6763  1.6715  0.4339
 6980SOL     OW21367   1.450   5.101   3.889 -0.0947  0.3853 -0.4371
 6980SOL    HW121368   1.428   5.062   3.973  0.3255  1.5391  0.2266
 6980SOL    HW221369   1.365   5.114   3.846 -0.3818  0.6453  0.1978
 6981SOL     OW21370   0.052   1.382   2.757 -0.2407 -0.1765 -0.0591
 6981SOL    HW121371   0.143   1.356   2.767 -0.4607 -0.8164  0.4284
 6981SOL    HW221372   0.055   1.470   2.721  0.5505 -0.6921 -1.2972
 6982SOL     OW21373   1.380   4.873   0.617 -0.2002 -0.1284  0.1450
 6982SOL    HW121374   1.363   4.850   0.525  0.5873 -0.9672  0.1921
 6982SOL    HW221375   1.386   4.788   0.661  0.0294  0.2598  0.8660
 6983SOL     OW21376   4.598   1.324   4.482 -0.1620  0.2408  0.3836
 6983SOL    HW121377   4.641   1.312   4.397 -0.4910  2.7266 -0.1901
 6983SOL    HW221378   4.505   1.310   4.463 -0.1871  0.3145  0.4556
 6984SOL     OW21379   0.117   4.404   3.791  0.0915 -0.0265  0.4374
 6984SOL    HW121380   0.052   4.365   3.733 -1.0970  0.7224  1.2236
 6984SOL    HW221381   0.101   4.498   3.786  2.0560  0.2994 -0.4171
 6985SOL     OW21382   0.646   1.462   0.056  0.1600 -0.2201 -0.5226
 6985SOL    HW121383   0.633   1.435  -0.034  3.8206 -0.3124 -1.1969
 6985SOL    HW221384   0.691   1.388   0.097  1.0297  0.8556  0.5435
 6986SOL     OW21385   4.458   1.912   5.873  0.2980  0.0715  0.4760
 6986SOL    HW121386   4.465   2.004   5.847 -0.2974  0.1666  0.6404
 6986SOL    HW221387   4.457   1.864   5.790 -0.9151  0.3288  0.3159
 6987SOL     OW21388   2.371   0.374   2.694  0.3287  0.3136  0.3339
 6987SOL    HW121389   2.364   0.447   2.633 -0.7232  0.2022  0.2994
 6987SOL    HW221390   2.459   0.339   2.681  0.4168  0.8351 -0.4888
 6988SOL     OW21391   0.948   6.097   4.724  0.0596 -0.1666  0.4728
 6988SOL    HW121392   1.037   6.116   4.694  0.0131 -0.2363  0.2881
 6988SOL    HW221393   0.902   6.181   4.721 -0.7060 -0.5623 -2.1995
 6989SOL     OW21394   3.602   1.867   5.478  0.1447  0.1761  0.3212
 6989SOL    HW121395   3.565   1.797   5.530 -0.0330 -0.5750 -0.7776
 6989SOL    HW221396   3.585   1.842   5.387 -0.4129  1.8987 -0.1010
 6990SOL     OW21397   4.547   0.481   1.743  0.2515 -0.1408  0.0133
 6990SOL    HW121398   4.500   0.431   1.677  0.0461 -1.3331  1.0125
 6990SOL    HW221399   4.639   0.458   1.729  0.2857  0.2199 -0.3521
 6991SOL     OW21400   4.663   6.068   3.517 -0.6549  0.3798  0.2100
 6991SOL    HW121401   4.626   6.151   3.487 -0.2824  0.1805 -0.8244
 6991SOL    HW221402   4.615   6.049   3.598  0.1078  2.2200  1.1581
 6992SOL     OW21403   4.416   0.470   5.969 -0.0031 -0.3646  0.0120
 6992SOL    HW121404   4.454   0.552   5.999 -0.2458 -0.4980  0.6953
 6992SOL    HW221405   4.479   0.437   5.904 -0.2910  0.7371 -0.8496
 6993SOL     OW21406   2.204   2.561   2.001  0.1940  0.2107  0.7758
 6993SOL    HW121407   2.251   2.529   1.924 -0.9617 -0.5808  0.3785
 6993SOL    HW221408   2.247   2.644   2.022  0.2603  0.6519 -0.9688
 6994SOL     OW21409   0.907   3.533   0.788  0.4172  0.1095  0.5007
 6994SOL    HW121410   0.841   3.464   0.786 -0.4127  0.8831 -0.5939
 6994SOL    HW221411   0.970   3.505   0.854 -0.2506 -1.3505  0.5509
 6995SOL     OW21412   4.451   6.153   1.564  0.3122  0.1234  0.5525
 6995SOL    HW121413   4.545   6.136   1.558  0.1587 -0.7547  0.5249
 6995SOL    HW221414   4.445   6.242   1.598  1.1533  0.2615  0.3704
 6996SOL     OW21415   5.751   5.541   0.012  0.8094  0.7077  0.4279
 6996SOL    HW121416   5.843   5.548   0.038  0.6123 -1.8130  2.1157
 6996SOL    HW221417   5.743   5.453  -0.025 -1.4908 -0.3658  3.1824
 6997SOL     OW21418   0.589   1.011   1.603 -0.6713  0.2006  0.0899
 6997SOL    HW121419   0.519   1.074   1.617 -0.0173  0.8053  0.7833
 6997SOL    HW221420   0.568   0.939   1.662 -0.6832  0.4055  0.3383
 6998SOL     OW21421   0.837   0.013   5.211 -0.7159 -0.1562 -0.0379
 6998SOL    HW121422   0.746   0.041   5.218 -0.0922  1.8342  0.8889
 6998SOL    HW221423   0.871   0.059   5.134 -0.3908 -0.6023 -0.1684
 6999SOL     OW21424   4.669   1.337   5.110  0.1715  0.4444  0.0381
 6999SOL    HW121425   4.636   1.371   5.193 -0.5364  1.5032 -0.6561
 6999SOL    HW221426   4.596   1.348   5.049  1.5646  2.2403 -1.3964
 7000SOL     OW21427   2.931   2.311   2.969 -0.3320 -0.1929  0.0811
 7000SOL    HW121428   2.868   2.360   2.916 -0.8677  0.0247  0.9062
 7000SOL    HW221429   2.939   2.362   3.050  0.3920 -0.5779  0.2553
 7001SOL     OW21430   0.024   6.049   5.756 -0.1352 -0.0928  0.3322
 7001SOL    HW121431   0.090   5.979   5.755 -1.5958 -1.6956  3.2574
 7001SOL    HW221432   0.002   6.062   5.664  1.1351 -2.5618 -0.4241
 7002SOL     OW21433   0.157   1.492   4.284  0.0969 -0.0723  0.2356
 7002SOL    HW121434   0.189   1.513   4.196 -0.1324  0.3940  0.2594
 7002SOL    HW221435   0.237   1.473   4.334  0.3116  0.6839  0.1915
 7003SOL     OW21436   3.119   2.178   4.233  0.6898  0.5908  0.1599
 7003SOL    HW121437   3.071   2.223   4.163  0.3767  1.0349  0.6483
 7003SOL    HW221438   3.211   2.196   4.215  0.9569 -2.5152 -2.3530
 7004SOL     OW21439   5.666   4.792   1.389 -0.1229  0.0609 -0.0372
 7004SOL    HW121440   5.719   4.868   1.366  0.4174  0.4106  2.1713
 7004SOL    HW221441   5.576   4.823   1.380  0.0919  0.9879  0.8381
 7005SOL     OW21442   3.554   2.802   1.586 -0.4556 -0.1801 -0.2718
 7005SOL    HW121443   3.610   2.855   1.643  1.2637 -1.7093 -0.4090
 7005SOL    HW221444   3.603   2.720   1.575 -3.0022 -1.8596  0.0137
 7006SOL     OW21445   1.538   4.826   2.536 -0.0736 -0.3663  0.6786
 7006SOL    HW121446   1.582   4.804   2.618  1.0384 -2.6405 -0.4544
 7006SOL    HW221447   1.494   4.745   2.509 -0.2191  0.2595 -1.1006
 7007SOL     OW21448   5.184   2.669   0.437 -0.1864  0.5760  0.4643
 7007SOL    HW121449   5.275   2.689   0.417  0.5322 -1.3782  1.4615
 7007SOL    HW221450   5.156   2.610   0.367  0.0011 -0.4508  1.2283
 7008SOL     OW21451   5.964   4.121   0.818  0.6902 -0.8107 -0.5631
 7008SOL    HW121452   6.056   4.124   0.845  0.3548 -0.9968  0.6674
 7008SOL    HW221453   5.955   4.036   0.773  1.2633 -0.4956 -1.2959
 7009SOL     OW21454   4.019   2.110   5.985 -0.1652 -0.1096  0.2950
 7009SOL    HW121455   4.097   2.106   6.040  0.9135  0.7987 -1.1082
 7009SOL    HW221456   3.992   2.202   5.987 -0.2889 -0.1217 -0.4143
 7010SOL     OW21457   1.952   0.786   3.973 -0.3568 -0.3578 -0.1039
 7010SOL    HW121458   1.975   0.735   3.896 -0.2649 -3.0758  1.5755
 7010SOL    HW221459   1.959   0.724   4.046 -2.6859  1.4314  1.8179
 7011SOL     OW21460   4.542   2.138   5.190 -0.4026  0.1481 -0.0453
 7011SOL    HW121461   4.580   2.054   5.164 -1.1771  0.1677 -1.2859
 7011SOL    HW221462   4.447   2.122   5.192 -0.4517  0.2223  2.5568
 7012SOL     OW21463   2.927   5.820   2.787  0.3073 -0.2788  0.4975
 7012SOL    HW121464   2.840   5.820   2.827  0.5263  1.6151  1.1013
 7012SOL    HW221465   2.922   5.886   2.719  0.7779 -1.4655 -0.7284
 7013SOL     OW21466   2.851   2.232   3.675 -0.8131 -0.1815  0.3687
 7013SOL    HW121467   2.940   2.197   3.672 -0.7819 -0.2334  1.5880
 7013SOL    HW221468   2.840   2.276   3.591  0.5837  0.3804  0.4584
 7014SOL     OW21469   4.704   5.441   4.764 -0.6326  0.4360  0.6056
 7014SOL    HW121470   4.797   5.428   4.780 -0.6686  0.8240  1.1645
 7014SOL    HW221471   4.701   5.495   4.685 -0.4360 -0.9765 -0.4164
 7015SOL     OW21472   1.494   3.374   1.204 -0.1119  0.0631  0.0638
 7015SOL    HW121473   1.575   3.406   1.242  0.6866  0.0655 -1.5555
 7015SOL    HW221474   1.504   3.279   1.202  0.8997  0.1475 -2.2113
 7016SOL     OW21475   2.568   1.383   6.193  0.1645 -0.4925 -0.5703
 7016SOL    HW121476   2.627   1.446   6.150  1.1834 -0.5829  0.6471
 7016SOL    HW221477   2.614   1.299   6.187  1.3401 -0.1745  2.4136
 7017SOL     OW21478   5.785   0.664   0.126  0.4147  0.1514  0.0310
 7017SOL    HW121479   5.694   0.634   0.135  0.9497 -1.2369  1.2192
 7017SOL    HW221480   5.778   0.753   0.091 -1.5463  1.2268  2.8102
 7018SOL     OW21481   3.375   3.413   1.289 -0.5850  0.3042 -0.3402
 7018SOL    HW121482   3.461   3.391   1.253 -0.3460  1.0983 -0.2714
 7018SOL    HW221483   3.353   3.497   1.249  0.1586  1.7508  2.0992
 7019SOL     OW21484   2.686   5.121   1.475 -0.2769  0.3164 -0.7294
 7019SOL    HW121485   2.629   5.179   1.526 -0.9016 -1.0338  0.1643
 7019SOL    HW221486   2.768   5.169   1.466 -0.1763  0.6371  1.5111
 7020SOL     OW21487   3.666   2.625   4.155 -0.2841  0.2359  0.5847
 7020SOL    HW121488   3.588   2.647   4.207 -0.8622 -1.6432  0.5621
 7020SOL    HW221489   3.740   2.647   4.213 -0.7893  1.8217  0.6909
 7021SOL     OW21490   6.103   2.781   6.026  0.2707  0.4417 -0.4282
 7021SOL    HW121491   6.177   2.774   5.965  0.1655 -0.3820 -0.4660
 7021SOL    HW221492   6.032   2.818   5.974  0.4024  0.4296 -0.6175
 7022SOL     OW21493   3.889   2.353   4.004  0.6798 -0.7127  0.1009
 7022SOL    HW121494   3.916   2.273   4.048  0.7076 -0.9743 -0.3828
 7022SOL    HW221495   3.909   2.423   4.066 -0.8313 -1.2007  1.2049
 7023SOL     OW21496   1.220   1.061   2.075 -0.7685 -0.1918 -0.0335
 7023SOL    HW121497   1.267   1.141   2.052 -1.2274  0.0521 -0.1511
 7023SOL    HW221498   1.156   1.089   2.141 -0.4924 -0.5911  0.4045
 7024SOL     OW21499   5.799   0.103   0.477  0.0364  0.0588  0.5419
 7024SOL    HW121500   5.731   0.036   0.485 -0.6369  0.5247 -1.0160
 7024SOL    HW221501   5.880   0.056   0.493 -0.3353 -1.4042 -1.4401
 7025SOL     OW21502   3.142   2.888   3.019  0.0697  0.3263  0.2209
 7025SOL    HW121503   3.110   2.859   2.934  1.7930  0.2491 -0.4248
 7025SOL    HW221504   3.122   2.814   3.078  2.3253 -1.3435 -0.9400
 7026SOL     OW21505   1.136   4.899   6.130  0.0480 -0.2966  0.1212
 7026SOL    HW121506   1.144   4.939   6.043 -0.0022 -0.0753  0.2180
 7026SOL    HW221507   1.227   4.892   6.161 -0.0337  1.2299  0.7743
 7027SOL     OW21508   2.308   5.907   3.883  0.0519  0.8958 -0.2285
 7027SOL    HW121509   2.225   5.889   3.928  1.4373 -2.4018  1.3630
 7027SOL    HW221510   2.310   5.844   3.811  2.0418 -0.6876  1.1041
 7028SOL     OW21511   5.370   4.877   2.266  0.3794  0.6394  0.1354
 7028SOL    HW121512   5.364   4.972   2.255 -1.5452  0.5194 -0.0624
 7028SOL    HW221513   5.289   4.852   2.309 -0.5598 -1.2778 -2.5134
 7029SOL     OW21514   0.945   2.648   4.230 -0.5891  0.8343 -0.1590
 7029SOL    HW121515   0.942   2.731   4.183 -1.2432  0.1389 -1.4231
 7029SOL    HW221516   1.037   2.620   4.223 -0.6379  0.8254 -0.9164
 7030SOL     OW21517   5.742   5.680   4.673  0.1143  0.1417  0.4146
 7030SOL    HW121518   5.722   5.773   4.682  2.9803  0.6738  2.7143
 7030SOL    HW221519   5.778   5.672   4.585  0.8369  1.4483  0.5730
 7031SOL     OW21520   0.156   2.751   0.258  0.6045  0.2761  0.2173
 7031SOL    HW121521   0.104   2.735   0.179  1.1704 -1.5666  0.1779
 7031SOL    HW221522   0.228   2.807   0.228  1.7400 -1.7120 -1.0100
 7032SOL     OW21523   4.137   3.980   5.128  0.1814 -0.1041  0.2910
 7032SOL    HW121524   4.093   4.011   5.048  0.6505 -0.3179 -0.0546
 7032SOL    HW221525   4.112   3.887   5.134 -0.3312  0.0539  0.7226
 7033SOL     OW21526   5.832   0.752   3.502  0.1950 -0.0259 -0.0696
 7033SOL    HW121527   5.737   0.759   3.497  0.3568  1.5898 -2.1961
 7033SOL    HW221528   5.852   0.670   3.456 -0.0946  0.8406 -1.8528
 7034SOL     OW21529   1.704   3.622   3.050  0.9517  0.1118  0.5031
 7034SOL    HW121530   1.775   3.686   3.063  0.7047  0.1362  1.8341
 7034SOL    HW221531   1.746   3.537   3.065  0.8356  0.0902  0.7066
 7035SOL     OW21532   1.264   1.972   3.637 -0.5471  0.0310  0.4010
 7035SOL    HW121533   1.257   1.954   3.543 -0.3646 -1.0389  0.5800
 7035SOL    HW221534   1.355   1.999   3.650 -0.7470  0.8226  0.1706
 7036SOL     OW21535   0.097   3.218   2.761  0.3685  0.0608  0.1758
 7036SOL    HW121536   0.110   3.165   2.840 -0.6202 -1.3442 -0.5647
 7036SOL    HW221537   0.148   3.174   2.694  1.2434  1.2821  0.0103
 7037SOL     OW21538   2.375   4.652   5.593 -0.4581  0.2003 -0.0890
 7037SOL    HW121539   2.308   4.710   5.631  0.2900  0.6749  0.5392
 7037SOL    HW221540   2.377   4.576   5.651  0.1769  0.5985  0.4216
 7038SOL     OW21541   4.694   1.296   2.431  0.4861  0.0545  0.2833
 7038SOL    HW121542   4.680   1.242   2.354  0.1361  0.1136  0.3035
 7038SOL    HW221543   4.787   1.284   2.453  0.6451  0.2331 -0.2867
 7039SOL     OW21544   4.016   5.238   4.196 -0.5321 -0.0947 -0.5865
 7039SOL    HW121545   4.024   5.150   4.232  0.1594  0.5057  0.7927
 7039SOL    HW221546   4.018   5.296   4.272 -1.4263  1.1001 -1.4322
 7040SOL     OW21547   5.901   2.040   0.929 -0.0672 -0.1222 -0.5738
 7040SOL    HW121548   5.980   2.078   0.891 -0.2496 -0.0445 -0.8764
 7040SOL    HW221549   5.843   2.115   0.945  0.0132 -0.1527 -0.1301
 7041SOL     OW21550   2.921   0.786   4.339  0.0182 -0.0929  0.5479
 7041SOL    HW121551   2.946   0.797   4.431  0.3083  2.1107  0.2648
 7041SOL    HW221552   3.002   0.800   4.290 -0.2793 -0.5365 -0.0875
 7042SOL     OW21553   0.569   5.214   5.590  0.2128 -0.0177 -0.0391
 7042SOL    HW121554   0.480   5.222   5.625  0.2911  1.6439 -0.1168
 7042SOL    HW221555   0.592   5.122   5.603 -0.9173 -0.1325  1.4328
 7043SOL     OW21556   5.334   6.045   4.030 -0.0069 -0.5502  0.0866
 7043SOL    HW121557   5.270   6.115   4.026  0.5983  0.1730  1.9024
 7043SOL    HW221558   5.288   5.968   3.998 -0.8028  0.5716 -1.5886
 7044SOL     OW21559   2.297   5.231   4.649  0.4739 -0.6337 -0.2667
 7044SOL    HW121560   2.366   5.175   4.685  1.5608  0.6133 -0.3399
 7044SOL    HW221561   2.341   5.285   4.583 -0.3108  0.9484  0.4369
 7045SOL     OW21562   1.887   0.786   2.327 -0.1626  0.5514 -0.3113
 7045SOL    HW121563   1.869   0.714   2.388 -1.4617  1.3561  0.3256
 7045SOL    HW221564   1.872   0.749   2.240  1.3412 -0.5142 -0.1403
 7046SOL     OW21565   3.896   2.422   3.234  0.4313  0.1535  0.6411
 7046SOL    HW121566   3.911   2.436   3.327  1.7512 -2.4186  0.9015
 7046SOL    HW221567   3.914   2.329   3.220  0.2431  0.4466 -2.1867
 7047SOL     OW21568   1.041   0.472   1.040  0.0044  0.0391 -0.4737
 7047SOL    HW121569   1.087   0.437   1.116  0.4418  0.2920 -0.6194
 7047SOL    HW221570   1.050   0.567   1.048 -1.4084  0.1543  0.0679
 7048SOL     OW21571   5.378   5.623   3.406  0.4718 -0.1941 -0.4592
 7048SOL    HW121572   5.291   5.644   3.440 -0.0049 -2.0953 -0.4485
 7048SOL    HW221573   5.387   5.529   3.418  2.6763  0.0044 -0.1630
 7049SOL     OW21574   0.597   3.070   5.993 -0.3435  0.0896 -0.7181
 7049SOL    HW121575   0.571   3.112   6.074  0.4184 -2.2244  0.8405
 7049SOL    HW221576   0.675   3.019   6.016  0.6996  0.3781 -3.2332
 7050SOL     OW21577   3.297   2.341   0.590  0.1034 -0.2480 -0.9818
 7050SOL    HW121578   3.256   2.339   0.503 -0.4376  1.3096 -0.7855
 7050SOL    HW221579   3.303   2.434   0.612  1.8043 -0.5316 -0.0695
 7051SOL     OW21580   4.569   2.721   0.513 -0.0163 -0.1109  0.4093
 7051SOL    HW121581   4.572   2.712   0.418 -1.2959 -0.3060  0.3681
 7051SOL    HW221582   4.661   2.724   0.540  0.3705 -0.7988 -0.7632
 7052SOL     OW21583   2.290   3.799   1.121  0.1674 -0.1536  0.3195
 7052SOL    HW121584   2.379   3.769   1.104  0.3615 -0.1151  1.1996
 7052SOL    HW221585   2.291   3.891   1.096  0.4893 -0.0523  0.6881
 7053SOL     OW21586   2.153   1.974   2.106  0.1324 -0.7467 -0.0822
 7053SOL    HW121587   2.193   2.058   2.083 -0.3024 -0.5323 -0.0770
 7053SOL    HW221588   2.062   1.996   2.126  0.6434 -0.7910  2.5849
 7054SOL     OW21589   0.190   0.193   2.015 -0.2629  0.1190  0.2764
 7054SOL    HW121590   0.220   0.137   2.087  0.0387  0.0822  0.1246
 7054SOL    HW221591   0.264   0.251   1.997  0.1351 -0.6902 -0.8256
 7055SOL     OW21592   5.970   0.391   5.575 -0.6991  1.3130  0.3915
 7055SOL    HW121593   5.945   0.401   5.483 -0.1754  2.2299  0.3318
 7055SOL    HW221594   5.918   0.317   5.606 -1.2482  1.2999 -0.5113
 7056SOL     OW21595   0.059   1.353   5.116 -0.2762  0.2273 -0.2159
 7056SOL    HW121596   0.129   1.348   5.182 -1.1287 -2.0526  0.6055
 7056SOL    HW221597   0.085   1.425   5.060  0.8355  1.8615  2.2142
 7057SOL     OW21598   1.903   2.362   2.251  0.1049  0.3086  0.5341
 7057SOL    HW121599   1.813   2.331   2.262 -0.2900  0.3673 -1.9975
 7057SOL    HW221600   1.957   2.284   2.264 -0.4222 -0.0603  0.5309
 7058SOL     OW21601   0.423   0.994   2.268 -0.6561 -0.2035  0.1091
 7058SOL    HW121602   0.334   0.971   2.242 -0.4895 -0.6299 -0.0934
 7058SOL    HW221603   0.412   1.055   2.341 -1.1303  0.8213 -0.7868
 7059SOL     OW21604   2.365   3.065   6.089  0.0384  0.0971 -0.7463
 7059SOL    HW121605   2.342   2.979   6.124  0.1318  0.0211 -0.8691
 7059SOL    HW221606   2.284   3.096   6.047 -1.2091  1.7572  2.5570
 7060SOL     OW21607   3.883   3.425   1.689 -0.8590  0.0928 -0.0871
 7060SOL    HW121608   3.959   3.368   1.688 -1.2233 -0.4120  0.2937
 7060SOL    HW221609   3.919   3.514   1.682 -0.1677 -0.0726  1.1068
 7061SOL     OW21610   0.894   3.468   4.062 -0.2579 -0.6322 -0.5719
 7061SOL    HW121611   0.971   3.524   4.053  0.4451 -1.7981 -2.0634
 7061SOL    HW221612   0.884   3.457   4.157  0.9546  0.1342 -0.3331
 7062SOL     OW21613   1.396   6.145   4.108 -0.1045  0.2077  0.1819
 7062SOL    HW121614   1.380   6.062   4.062 -0.9156  1.3778 -1.7316
 7062SOL    HW221615   1.315   6.195   4.097  0.4061  1.3270  1.2368
 7063SOL     OW21616   5.102   6.046   3.316 -0.2806  0.2098  0.7379
 7063SOL    HW121617   5.065   6.002   3.239 -0.2866  0.2607  0.7117
 7063SOL    HW221618   5.117   5.975   3.378 -0.0179  0.1306  0.5877
 7064SOL     OW21619   5.202   0.271   0.301  0.0116  0.8917  0.2273
 7064SOL    HW121620   5.129   0.232   0.349 -0.0383  2.1637  1.2138
 7064SOL    HW221621   5.279   0.227   0.336 -0.1021  1.1589  0.8243
 7065SOL     OW21622   1.564   2.576   4.132  0.0640 -0.1168  0.0568
 7065SOL    HW121623   1.492   2.594   4.072  0.2330  0.7292  0.0911
 7065SOL    HW221624   1.612   2.503   4.092 -0.6144 -0.4585 -0.1336
 7066SOL     OW21625   1.055   2.555   0.453  0.4517  0.7359 -0.3174
 7066SOL    HW121626   1.031   2.463   0.446 -0.6826  1.0646 -0.9352
 7066SOL    HW221627   1.014   2.596   0.377  0.3996  1.8696  0.3112
 7067SOL     OW21628   2.639   1.437   2.160 -0.2019 -0.1391 -0.2635
 7067SOL    HW121629   2.701   1.477   2.099  0.9386 -0.7918  0.4509
 7067SOL    HW221630   2.693   1.383   2.218 -1.0497  1.5189  2.2195
 7068SOL     OW21631   6.159   3.632   5.666 -0.6114 -0.2960  0.2167
 7068SOL    HW121632   6.193   3.658   5.580 -1.0565  0.8413  0.3725
 7068SOL    HW221633   6.064   3.637   5.657 -0.7602 -2.3977  0.1165
 7069SOL     OW21634   1.682   6.020   2.659 -0.0819  0.2444 -0.0680
 7069SOL    HW121635   1.623   5.957   2.701  0.5118  0.6042  1.3404
 7069SOL    HW221636   1.756   6.028   2.719  0.0743  1.9292 -0.4434
 7070SOL     OW21637   2.390   4.168   5.583  0.2814 -0.0781 -0.3211
 7070SOL    HW121638   2.323   4.106   5.612 -0.2224  0.6294  0.0678
 7070SOL    HW221639   2.378   4.244   5.639  1.1589  0.2162 -0.5191
 7071SOL     OW21640   0.476   1.768   0.813  0.1193 -0.7974  0.1038
 7071SOL    HW121641   0.534   1.776   0.888  0.3456 -0.8696 -0.0629
 7071SOL    HW221642   0.417   1.843   0.821  0.0410 -0.8909  0.4381
 7072SOL     OW21643   2.134   0.420   2.139  0.0186  0.3094 -0.0618
 7072SOL    HW121644   2.073   0.346   2.132 -0.0039  0.2164  1.0856
 7072SOL    HW221645   2.191   0.410   2.063 -2.0982  1.0697 -1.8857
 7073SOL     OW21646   0.631   1.703   1.880  0.0367  0.0083  0.0923
 7073SOL    HW121647   0.670   1.719   1.794 -0.8194  2.0324  0.0277
 7073SOL    HW221648   0.704   1.678   1.936  0.6502 -1.0145 -1.1315
 7074SOL     OW21649   1.983   4.036   6.126  0.3328  0.4107  0.3201
 7074SOL    HW121650   2.021   4.117   6.092 -0.9239  1.2009  0.7075
 7074SOL    HW221651   1.934   4.064   6.204 -0.3132 -0.6821  0.3264
 7075SOL     OW21652   5.500   6.154   2.342 -0.3276  0.5534  0.4207
 7075SOL    HW121653   5.580   6.175   2.293 -0.5552  1.6079  0.4843
 7075SOL    HW221654   5.531   6.109   2.421  0.0199 -1.6302 -0.8804
 7076SOL     OW21655   4.929   1.472   5.258  0.5120  0.1450 -0.3892
 7076SOL    HW121656   4.900   1.503   5.172  1.1597  1.4886 -0.1498
 7076SOL    HW221657   4.848   1.450   5.304  0.2137 -1.9438 -1.7895
 7077SOL     OW21658   4.415   6.023   4.860  0.0526  0.2252  0.1264
 7077SOL    HW121659   4.377   5.955   4.916 -0.4266  0.8534  0.5785
 7077SOL    HW221660   4.493   5.982   4.822 -0.5446 -0.7665 -0.0612
 7078SOL     OW21661   1.604   5.659   0.116  0.4153  0.0485 -0.0141
 7078SOL    HW121662   1.684   5.689   0.159  0.8417 -0.4616 -0.4376
 7078SOL    HW221663   1.627   5.574   0.078 -1.1448 -1.5064  2.3067
 7079SOL     OW21664   5.387   6.102   6.034  0.2857  0.2254  0.4990
 7079SOL    HW121665   5.342   6.035   6.086 -0.5443  0.6176  0.3010
 7079SOL    HW221666   5.401   6.175   6.095 -1.6636  1.1271 -0.0376
 7080SOL     OW21667   4.114   5.759   3.230 -0.0490  0.1826  0.3143
 7080SOL    HW121668   4.164   5.832   3.268 -0.5166  0.6348  0.0633
 7080SOL    HW221669   4.169   5.727   3.159  0.0808  0.4072  0.3110
 7081SOL     OW21670   6.063   3.885   0.183  0.5038 -0.5848  0.1187
 7081SOL    HW121671   6.039   3.978   0.188 -0.9870 -0.9179 -0.4064
 7081SOL    HW221672   6.122   3.880   0.107 -1.0433 -0.3601 -1.1473
 7082SOL     OW21673   4.459   5.591   1.148  0.3208 -0.0512  0.6740
 7082SOL    HW121674   4.481   5.637   1.067  2.0893  3.0989  2.7569
 7082SOL    HW221675   4.537   5.538   1.167 -0.0435 -0.6889  0.4341
 7083SOL     OW21676   2.045   5.758   5.381  0.4007 -0.1465 -0.4159
 7083SOL    HW121677   2.003   5.683   5.338 -0.2121 -0.7509  1.1802
 7083SOL    HW221678   1.981   5.829   5.373 -0.7537 -0.8871  1.4362
 7084SOL     OW21679   4.215   3.524   1.533  0.2120 -0.1823  0.4853
 7084SOL    HW121680   4.208   3.440   1.488  2.1618 -0.6720  0.9762
 7084SOL    HW221681   4.205   3.502   1.626 -3.2695  0.7499  0.4577
 7085SOL     OW21682   4.502   1.575   0.666 -0.0030  0.1590 -0.1656
 7085SOL    HW121683   4.595   1.580   0.688 -0.0281  1.3413 -0.2502
 7085SOL    HW221684   4.457   1.601   0.746 -0.2513 -0.1559 -0.2022
 7086SOL     OW21685   3.488   0.539   2.470 -0.2730 -0.3602 -0.1768
 7086SOL    HW121686   3.506   0.484   2.547  2.2480 -1.1353 -1.2090
 7086SOL    HW221687   3.410   0.500   2.431  0.9594 -2.7968 -0.4077
 7087SOL     OW21688   2.661   3.823   1.264 -0.4902 -0.3487  0.0700
 7087SOL    HW121689   2.683   3.889   1.197  1.1925 -1.8260 -0.9367
 7087SOL    HW221690   2.633   3.874   1.340 -1.5008  1.4248 -1.4285
 7088SOL     OW21691   2.444   3.332   2.137 -0.7632 -0.6426 -0.6081
 7088SOL    HW121692   2.444   3.283   2.219  4.4023 -1.1359 -0.5485
 7088SOL    HW221693   2.421   3.268   2.070 -1.6671 -1.0917  0.1137
 7089SOL     OW21694   2.084   5.299   5.367  0.7711 -0.1555  0.0352
 7089SOL    HW121695   2.098   5.224   5.425 -1.8591  1.0903  2.5739
 7089SOL    HW221696   2.171   5.333   5.350  1.7551 -0.5795  3.4370
 7090SOL     OW21697   2.944   1.029   5.698 -0.5410 -0.6255 -0.6433
 7090SOL    HW121698   2.851   1.048   5.685 -0.2452  2.3030  0.7431
 7090SOL    HW221699   2.988   1.113   5.684  1.3394 -0.7123  3.3340
 7091SOL     OW21700   2.270   6.186   3.920 -0.4022 -0.4931 -0.2206
 7091SOL    HW121701   2.177   6.197   3.902 -0.2684 -0.7579 -1.1216
 7091SOL    HW221702   2.283   6.091   3.919 -0.1329 -0.4607 -0.0278
 7092SOL     OW21703   2.096   2.612   1.520 -0.3311 -0.3705 -0.4228
 7092SOL    HW121704   2.175   2.641   1.475 -0.9896 -1.1251 -2.1327
 7092SOL    HW221705   2.096   2.517   1.510 -1.0435 -0.4562  0.2849
 7093SOL     OW21706   0.358   4.058   3.080 -0.9736 -0.7915 -0.2438
 7093SOL    HW121707   0.392   4.021   3.162  0.3759  2.9651  1.1406
 7093SOL    HW221708   0.436   4.078   3.029 -1.5443  0.5562 -0.6341
 7094SOL     OW21709   5.830   4.929   0.691  0.5803 -0.4301 -0.3234
 7094SOL    HW121710   5.833   4.892   0.779  0.7792 -0.9358 -0.5406
 7094SOL    HW221711   5.850   5.022   0.703 -1.0129 -0.1467  0.3634
 7095SOL     OW21712   4.631   3.072   1.335 -0.5279 -0.2049 -0.0788
 7095SOL    HW121713   4.544   3.036   1.352 -0.9347  1.7335  2.6827
 7095SOL    HW221714   4.648   3.129   1.411  3.1832 -0.5492 -0.4863
 7096SOL     OW21715   4.920   3.695   2.551 -0.2277 -0.2757  0.3463
 7096SOL    HW121716   4.857   3.715   2.621 -0.5786  1.0866 -0.3216
 7096SOL    HW221717   4.941   3.603   2.563 -0.7090 -0.2036  1.9055
 7097SOL     OW21718   4.310   2.794   2.538 -0.4959 -0.3425 -0.3333
 7097SOL    HW121719   4.304   2.864   2.604 -0.1279 -1.3302  0.7912
 7097SOL    HW221720   4.298   2.713   2.588 -2.1592 -1.0603 -1.7846
 7098SOL     OW21721   1.930   4.769   1.869 -0.3195 -0.3716 -0.2973
 7098SOL    HW121722   1.911   4.771   1.962  0.8333  0.0984 -0.0496
 7098SOL    HW221723   1.939   4.677   1.847  2.3563 -0.4349  0.7320
 7099SOL     OW21724   3.582   0.119   1.634  0.0502  0.2405  0.3393
 7099SOL    HW121725   3.552   0.035   1.669 -0.2605  0.7150  1.2533
 7099SOL    HW221726   3.502   0.172   1.628  0.0548  0.1223 -1.3114
 7100SOL     OW21727   5.047   3.349   0.199  0.3592  0.1414  0.5104
 7100SOL    HW121728   5.099   3.425   0.175  3.1740 -1.5772  0.7147
 7100SOL    HW221729   5.075   3.326   0.287 -2.5281  0.4463  1.6398
 7101SOL     OW21730   4.700   6.196   0.883 -0.3422  0.0895  0.1402
 7101SOL    HW121731   4.720   6.159   0.969  2.8064  0.4434 -0.3300
 7101SOL    HW221732   4.673   6.286   0.901  0.1724  0.1230  0.7570
 7102SOL     OW21733   4.381   5.501   3.761 -0.3683 -0.0356  0.5008
 7102SOL    HW121734   4.315   5.445   3.720 -0.4334 -0.0960  0.6836
 7102SOL    HW221735   4.397   5.460   3.846 -1.7207  1.2062  1.3807
 7103SOL     OW21736   0.825   3.771   2.374  0.2534  0.8739  0.0033
 7103SOL    HW121737   0.776   3.708   2.427  0.2109  0.6535 -0.2951
 7103SOL    HW221738   0.767   3.847   2.368 -0.6246  0.1320 -1.4328
 7104SOL     OW21739   3.428   1.388   2.176 -0.0157 -0.1348 -0.8137
 7104SOL    HW121740   3.370   1.443   2.227 -0.6642 -0.6437 -0.9902
 7104SOL    HW221741   3.433   1.430   2.090 -0.6915 -0.4656 -1.0199
 7105SOL     OW21742   0.744   1.846   0.527 -0.4248  0.1772 -0.2349
 7105SOL    HW121743   0.813   1.821   0.465  1.1006  2.3332  0.4504
 7105SOL    HW221744   0.792   1.888   0.599 -2.2714 -0.7274  1.6322
 7106SOL     OW21745   0.256   5.358   4.939 -0.8063  0.1446  1.0856
 7106SOL    HW121746   0.239   5.452   4.936  0.1686  0.3589  1.9230
 7106SOL    HW221747   0.323   5.347   5.006  0.1916 -0.9895 -0.0488
 7107SOL     OW21748   6.056   0.646   1.602 -0.0546  0.1597 -0.3587
 7107SOL    HW121749   6.036   0.593   1.525 -1.4425  0.5812 -0.3126
 7107SOL    HW221750   6.110   0.718   1.569 -2.0620  1.3267 -1.3171
 7108SOL     OW21751   4.869   1.251   1.310 -0.2300  0.2700 -0.2775
 7108SOL    HW121752   4.805   1.251   1.382 -1.0607  2.1943 -0.9593
 7108SOL    HW221753   4.904   1.339   1.308  2.2871 -0.6539 -0.1435
 7109SOL     OW21754   2.206   3.986   1.790 -0.3021  0.6573 -0.6339
 7109SOL    HW121755   2.298   4.009   1.778 -0.0461 -0.2042 -0.3528
 7109SOL    HW221756   2.162   4.071   1.799  0.3852  1.0924 -1.2643
 7110SOL     OW21757   2.095   4.500   2.240 -0.5636 -0.1342 -0.5537
 7110SOL    HW121758   2.050   4.441   2.301  0.9991  0.3940  1.1883
 7110SOL    HW221759   2.032   4.569   2.222 -1.6656 -1.2106 -0.9433
 7111SOL     OW21760   4.497   2.300   4.602 -0.2202 -0.0966 -0.1718
 7111SOL    HW121761   4.433   2.346   4.548  0.2447 -0.6774 -1.2411
 7111SOL    HW221762   4.447   2.229   4.642 -0.9996  1.3874  1.6745
 7112SOL     OW21763   1.007   5.908   2.362 -0.3528 -0.2123  0.6433
 7112SOL    HW121764   1.010   5.894   2.457 -0.9290 -0.5226  0.6243
 7112SOL    HW221765   1.032   5.824   2.324  0.5530  0.1057  0.5105
 7113SOL     OW21766   3.313   4.918   4.830 -0.0619 -0.0459 -0.1916
 7113SOL    HW121767   3.343   4.937   4.919  1.0087  1.8673 -0.8945
 7113SOL    HW221768   3.392   4.923   4.776 -0.7386 -0.8824 -1.3140
 7114SOL     OW21769   1.695   4.270   3.221  0.1225 -0.3282  0.1866
 7114SOL    HW121770   1.772   4.245   3.272  0.3765 -0.9523 -0.4858
 7114SOL    HW221771   1.727   4.274   3.131 -1.0674 -2.7000 -0.4176
 7115SOL     OW21772   2.506   3.909   4.488  0.4155 -0.2329 -0.4083
 7115SOL    HW121773   2.529   3.836   4.546 -0.5530 -1.3056 -1.3212
 7115SOL    HW221774   2.587   3.959   4.479  0.8998 -0.7495  0.8678
 7116SOL     OW21775   4.703   1.278   0.557 -0.2831 -0.2592 -0.3501
 7116SOL    HW121776   4.659   1.255   0.639  0.2473 -0.1807 -0.0396
 7116SOL    HW221777   4.652   1.234   0.489 -1.8156  1.1509 -0.1670
 7117SOL     OW21778   6.214   1.256   4.259 -0.0170  0.6225  0.3439
 7117SOL    HW121779   6.262   1.338   4.247  0.5363  0.4241  1.1247
 7117SOL    HW221780   6.126   1.283   4.284  0.0567  0.9852  0.2112
 7118SOL     OW21781   3.348   3.391   2.402 -0.0595  0.4632 -0.0539
 7118SOL    HW121782   3.400   3.346   2.469  0.1342  2.1005  0.9578
 7118SOL    HW221783   3.257   3.380   2.431 -0.3963 -2.3192 -1.7733
 7119SOL     OW21784   5.283   6.234   5.469 -0.1645 -0.0373 -0.0605
 7119SOL    HW121785   5.190   6.233   5.492  0.4998 -0.9953  2.9720
 7119SOL    HW221786   5.311   6.324   5.487 -0.0182 -0.3548  1.3771
 7120SOL     OW21787   2.302   4.006   5.837 -0.4451 -0.3857 -0.3767
 7120SOL    HW121788   2.373   3.947   5.861 -1.7563 -0.9175  2.6875
 7120SOL    HW221789   2.240   3.952   5.789  0.8618 -0.0605 -2.5328
 7121SOL     OW21790   5.584   1.041   1.752 -0.3681 -0.4570 -0.7733
 7121SOL    HW121791   5.648   0.974   1.733  0.9310  0.6802 -0.5624
 7121SOL    HW221792   5.507   0.993   1.783  0.9190 -1.7979  0.5383
 7122SOL     OW21793   2.239   4.751   6.133 -0.6239  0.0964 -0.1388
 7122SOL    HW121794   2.234   4.847   6.132  0.2054  0.1607  0.6844
 7122SOL    HW221795   2.311   4.730   6.074  0.2753  0.0761  0.9466
 7123SOL     OW21796   3.853   1.883   2.765 -0.1943 -0.4614  0.2513
 7123SOL    HW121797   3.835   1.969   2.728 -0.5863 -0.3110  0.7763
 7123SOL    HW221798   3.820   1.821   2.700  0.9374 -0.2425 -0.5628
 7124SOL     OW21799   0.869   0.574   2.821  0.0718 -0.2625 -0.5603
 7124SOL    HW121800   0.776   0.583   2.843  0.1960 -2.1613  1.0157
 7124SOL    HW221801   0.870   0.570   2.726 -1.3668  0.5306 -0.6464
 7125SOL     OW21802   2.426   0.915   1.024  0.1211 -0.4190 -0.6028
 7125SOL    HW121803   2.423   0.895   0.931 -0.2017 -1.4045 -0.3989
 7125SOL    HW221804   2.386   1.001   1.032 -0.0447 -0.4242 -1.3499
 7126SOL     OW21805   0.068   1.089   4.046  0.8726  0.4161  0.3590
 7126SOL    HW121806  -0.006   1.088   4.106  0.7335 -0.6700  0.1965
 7126SOL    HW221807   0.132   1.146   4.088 -0.2177  1.7459  0.2803
 7127SOL     OW21808   0.104   2.544   5.240 -0.0754 -0.0961 -0.4357
 7127SOL    HW121809   0.179   2.528   5.297 -0.7819 -1.2188  0.2324
 7127SOL    HW221810   0.127   2.622   5.190  1.6686 -0.6099 -0.4902
 7128SOL     OW21811   5.058   1.925   2.778 -0.5653 -0.3982  0.2378
 7128SOL    HW121812   4.975   1.973   2.781 -0.1730  0.3893 -0.8549
 7128SOL    HW221813   5.113   1.969   2.842  0.3703  1.8244 -1.9390
 7129SOL     OW21814   3.678   1.393   2.274 -0.1498 -0.4467 -0.1660
 7129SOL    HW121815   3.585   1.385   2.253 -0.2596  0.0131  0.1402
 7129SOL    HW221816   3.683   1.465   2.337  0.3035 -1.1163  0.5851
 7130SOL     OW21817   1.831   3.210   4.941 -0.2652  0.5293 -0.7790
 7130SOL    HW121818   1.768   3.244   5.005 -0.1640 -0.4873 -0.1102
 7130SOL    HW221819   1.788   3.222   4.856 -0.0456  2.7081 -0.6510
 7131SOL     OW21820   1.179   2.964   6.042 -0.4529  0.0864  0.0939
 7131SOL    HW121821   1.098   3.002   6.077 -1.1968 -1.0290 -0.3693
 7131SOL    HW221822   1.157   2.939   5.953  1.0335  1.6562 -0.7675
 7132SOL     OW21823   3.560   5.210   6.042  0.0177 -0.2488  0.1961
 7132SOL    HW121824   3.482   5.237   5.995  0.9426  1.9750 -0.1777
 7132SOL    HW221825   3.600   5.143   5.987 -1.3355 -1.0646  0.1659
 7133SOL     OW21826   3.707   0.739   2.374 -0.0568 -0.3803 -0.7041
 7133SOL    HW121827   3.656   0.815   2.347  0.5988  0.5806  0.6708
 7133SOL    HW221828   3.649   0.665   2.357 -1.5506  0.5983 -0.0704
 7134SOL     OW21829   3.645   0.528   6.104  0.9192 -0.0695  0.4727
 7134SOL    HW121830   3.702   0.463   6.062 -0.7243 -1.1701 -0.1153
 7134SOL    HW221831   3.579   0.477   6.150 -0.8521  1.1608 -0.6005
 7135SOL     OW21832   2.573   0.259   0.461 -0.0128 -0.1188  0.3206
 7135SOL    HW121833   2.562   0.171   0.425 -1.4910 -0.3480  1.2433
 7135SOL    HW221834   2.515   0.261   0.537  0.2171  1.5662  0.4875
 7136SOL     OW21835   5.534   0.142   5.952 -0.3367  0.3663 -0.3507
 7136SOL    HW121836   5.517   0.137   6.047 -2.2071  0.5641 -0.6292
 7136SOL    HW221837   5.558   0.052   5.928  1.4895  0.5842  0.5021
 7137SOL     OW21838   1.792   1.503   2.830  0.6598 -0.2611  0.0706
 7137SOL    HW121839   1.873   1.474   2.873  1.5553  0.5508 -0.9786
 7137SOL    HW221840   1.815   1.506   2.737 -0.4305  0.4666 -0.1862
 7138SOL     OW21841   3.552   1.919   0.687  0.2322 -0.0576 -0.5615
 7138SOL    HW121842   3.509   1.981   0.627 -0.5307  0.5480  0.5754
 7138SOL    HW221843   3.518   1.833   0.661  1.3682 -0.0561 -2.2150
 7139SOL     OW21844   2.621   3.221   5.027 -0.0251  0.1493 -0.2751
 7139SOL    HW121845   2.563   3.242   5.099  1.5902  0.2859  1.0313
 7139SOL    HW221846   2.622   3.299   4.972 -1.7470 -0.1789 -0.8218
 7140SOL     OW21847   1.060   5.123   1.137  0.0678 -0.3901  0.3468
 7140SOL    HW121848   1.061   5.120   1.041  0.2251  2.2101  0.1903
 7140SOL    HW221849   1.152   5.119   1.162  0.0704 -0.2911  0.3517
 7141SOL     OW21850   2.577   0.054   1.179 -0.5593 -0.5123 -0.3215
 7141SOL    HW121851   2.601   0.049   1.086  1.9879  2.1884  0.0418
 7141SOL    HW221852   2.639  -0.003   1.224 -0.8681 -0.7169 -0.1516
 7142SOL     OW21853   5.277   1.117   2.671 -0.5021 -0.5728  0.0907
 7142SOL    HW121854   5.297   1.042   2.615 -1.3215 -0.6938 -0.0546
 7142SOL    HW221855   5.355   1.173   2.665  0.0277 -1.2964  0.0263
 7143SOL     OW21856   2.792   0.909   2.618  0.1199  0.2999 -0.4068
 7143SOL    HW121857   2.753   0.980   2.670  0.6400  0.5363 -0.3348
 7143SOL    HW221858   2.838   0.855   2.682 -1.4244 -0.8965 -0.2651
 7144SOL     OW21859   4.676   3.013   6.120  0.2843 -0.1608 -0.9263
 7144SOL    HW121860   4.630   2.946   6.069  0.7216 -0.9614 -0.2986
 7144SOL    HW221861   4.642   3.004   6.209  0.6296  0.1856 -0.7542
 7145SOL     OW21862   1.981   4.984   4.819  0.3545 -0.2281  0.0078
 7145SOL    HW121863   1.975   5.077   4.796  0.7919 -0.2702 -0.2993
 7145SOL    HW221864   1.893   4.950   4.806 -0.1444  0.4394  1.4547
 7146SOL     OW21865   4.803   0.723   3.846  0.2200 -0.1357  0.3039
 7146SOL    HW121866   4.783   0.672   3.767  1.5638 -1.0430  0.5253
 7146SOL    HW221867   4.869   0.671   3.892 -0.0880  0.6906  1.7213
 7147SOL     OW21868   3.385   5.667   2.749 -0.1229 -0.2354  0.3250
 7147SOL    HW121869   3.480   5.662   2.751 -0.0525  0.9830  0.7990
 7147SOL    HW221870   3.356   5.576   2.742  1.0680 -0.6258  0.3407
 7148SOL     OW21871   1.042   5.651   0.890  0.3311  0.1228  0.4494
 7148SOL    HW121872   1.118   5.703   0.862  0.8477 -1.3910 -1.1122
 7148SOL    HW221873   1.079   5.583   0.947  0.0135 -0.1128  0.3738
 7149SOL     OW21874   1.704   1.791   5.165 -0.6367  0.0232 -0.0375
 7149SOL    HW121875   1.766   1.718   5.173 -2.0594 -1.2171  0.0847
 7149SOL    HW221876   1.733   1.838   5.087  0.7277 -0.2573  0.2716
 7150SOL     OW21877   4.147   5.360   3.717 -0.2454 -0.2414 -0.0050
 7150SOL    HW121878   4.141   5.310   3.799  1.3609  1.9379  1.5783
 7150SOL    HW221879   4.075   5.422   3.722 -0.3527 -0.3273 -0.4436
 7151SOL     OW21880   1.635   2.137   0.374  0.2589  0.1557  0.3727
 7151SOL    HW121881   1.728   2.138   0.355  0.3251  0.4452  0.7109
 7151SOL    HW221882   1.610   2.229   0.383 -0.4501  0.2010 -1.5568
 7152SOL     OW21883   2.361   3.368   5.138  0.0165 -0.2296 -0.2697
 7152SOL    HW121884   2.313   3.429   5.082 -0.0477  0.2530  0.2957
 7152SOL    HW221885   2.310   3.287   5.133  1.9225 -1.4049 -3.7289
 7153SOL     OW21886   0.196   1.853   2.131  0.1327 -0.0723 -0.4903
 7153SOL    HW121887   0.231   1.886   2.214 -0.1832  0.5780 -0.6060
 7153SOL    HW221888   0.223   1.761   2.128 -1.7830 -0.7738  1.3936
 7154SOL     OW21889   0.877   5.830   1.861 -0.2709 -0.1291  0.2975
 7154SOL    HW121890   0.858   5.922   1.880 -0.2209  0.1395 -0.8951
 7154SOL    HW221891   0.957   5.811   1.910 -0.1338  0.5333  0.3282
 7155SOL     OW21892   5.183   1.388   4.996  0.3554 -0.3089  0.5308
 7155SOL    HW121893   5.117   1.456   5.012  1.1849  1.3552 -2.2589
 7155SOL    HW221894   5.256   1.435   4.956  1.6011 -2.6475 -0.1329
 7156SOL     OW21895   3.360   5.943   2.191 -0.2812  0.5101  0.6560
 7156SOL    HW121896   3.381   5.906   2.105 -1.9809  1.0039 -0.0206
 7156SOL    HW221897   3.385   5.875   2.253 -0.6380 -0.5819 -0.3611
 7157SOL     OW21898   2.578   1.177   0.608  0.0305  0.2682 -0.1869
 7157SOL    HW121899   2.663   1.152   0.573 -1.2734 -1.6297 -2.2515
 7157SOL    HW221900   2.582   1.272   0.615  1.7602  0.3661 -1.7957
 7158SOL     OW21901   0.805   5.403   2.247 -0.1100 -0.0100  0.4095
 7158SOL    HW121902   0.759   5.320   2.239  0.7457 -0.4128 -0.5510
 7158SOL    HW221903   0.898   5.380   2.240  0.1390  1.0161  0.1359
 7159SOL     OW21904   4.700   0.999   4.243 -0.3685  0.0376  0.3066
 7159SOL    HW121905   4.687   0.939   4.169 -2.0074  0.0554  0.5502
 7159SOL    HW221906   4.668   1.083   4.211  0.3121  0.4058  0.5593
 7160SOL     OW21907   6.087   6.198   5.904 -0.4894  0.5382 -0.0615
 7160SOL    HW121908   6.143   6.198   5.827 -0.2498  0.5655  0.1117
 7160SOL    HW221909   6.073   6.291   5.923 -0.4456  0.5318  0.0026
 7161SOL     OW21910   2.617   5.525   5.516 -0.1066 -0.1923  0.0714
 7161SOL    HW121911   2.586   5.481   5.596  0.6451  0.4882  0.7584
 7161SOL    HW221912   2.671   5.460   5.472 -0.7317 -0.6592 -0.0183
 7162SOL     OW21913   2.686   5.829   2.963 -0.1764 -0.1451  0.0753
 7162SOL    HW121914   2.727   5.801   3.045  1.4780 -1.3085 -1.0888
 7162SOL    HW221915   2.624   5.897   2.989 -0.9313 -1.6316  2.4802
 7163SOL     OW21916   3.235   5.740   5.280 -0.1110 -0.1510  0.0767
 7163SOL    HW121917   3.289   5.728   5.202  0.3696 -0.5919  0.4662
 7163SOL    HW221918   3.148   5.761   5.247 -0.3117 -1.9189 -0.6300
 7164SOL     OW21919   3.056   3.534   4.435  0.5778  0.2304 -0.4829
 7164SOL    HW121920   3.142   3.572   4.416  1.6907 -1.2586  1.2705
 7164SOL    HW221921   3.075   3.442   4.454 -1.2713  0.1072  0.9530
 7165SOL     OW21922   0.332   5.143   0.598  0.3157 -0.1192 -0.3853
 7165SOL    HW121923   0.271   5.083   0.643  1.6447 -1.2107  0.0385
 7165SOL    HW221924   0.392   5.171   0.667  1.1789 -0.2288 -1.0854
 7166SOL     OW21925   5.468   1.952   0.596 -0.2422 -0.6746  0.0615
 7166SOL    HW121926   5.445   1.912   0.512  0.2724 -0.0237 -0.4036
 7166SOL    HW221927   5.417   1.903   0.661 -1.3049 -0.6202 -0.7064
 7167SOL     OW21928   5.361   0.602   4.469  0.1074  0.6102  0.2043
 7167SOL    HW121929   5.431   0.660   4.497  0.5078  0.3481 -0.2301
 7167SOL    HW221930   5.407   0.522   4.441 -0.3906  0.3049  0.2561
 7168SOL     OW21931   0.545   2.561   1.923 -0.2776 -0.5349 -0.1065
 7168SOL    HW121932   0.486   2.506   1.872 -0.6458  1.7560 -2.3399
 7168SOL    HW221933   0.631   2.544   1.886 -0.2277 -0.4412 -0.0335
 7169SOL     OW21934   0.641   1.428   4.413 -0.2034 -0.0956 -0.0239
 7169SOL    HW121935   0.570   1.365   4.426 -1.0774  0.6692 -0.8276
 7169SOL    HW221936   0.708   1.404   4.476 -1.7181 -0.0983  1.6598
 7170SOL     OW21937   5.363   5.962   0.890 -0.3391  0.6669 -0.1561
 7170SOL    HW121938   5.419   6.019   0.942 -0.6101 -1.1842  2.3348
 7170SOL    HW221939   5.277   5.967   0.932 -1.2289  0.9538 -1.9227
 7171SOL     OW21940   4.137   2.702   4.130 -0.8018  0.1679 -0.7424
 7171SOL    HW121941   4.105   2.622   4.173  0.2725 -0.7219 -1.5310
 7171SOL    HW221942   4.174   2.754   4.202  1.0689 -1.3397 -0.4967
 7172SOL     OW21943   1.049   1.738   0.984 -0.3955 -0.0700 -0.1740
 7172SOL    HW121944   1.054   1.717   1.077  0.8662  0.7455 -0.0290
 7172SOL    HW221945   1.115   1.682   0.943  0.6317  1.1696 -0.2466
 7173SOL     OW21946   5.092   3.260   3.656 -0.7023 -0.2889  0.7186
 7173SOL    HW121947   5.090   3.167   3.636 -0.2971 -0.0873 -0.2828
 7173SOL    HW221948   5.004   3.279   3.689 -1.4326 -0.6247 -0.9362
 7174SOL     OW21949   3.310   1.291   4.447  0.5245  0.4059 -0.6990
 7174SOL    HW121950   3.349   1.248   4.371  0.0431 -0.5013 -0.4497
 7174SOL    HW221951   3.299   1.382   4.421  0.1421  0.0548 -1.8043
 7175SOL     OW21952   4.275   1.498   5.310  0.1101  0.2497 -0.5853
 7175SOL    HW121953   4.323   1.504   5.392 -0.4612  0.7957 -0.2832
 7175SOL    HW221954   4.183   1.490   5.337 -0.1246  0.8650 -1.1754
 7176SOL     OW21955   2.682   3.506   1.697  0.3444 -0.4087 -0.2533
 7176SOL    HW121956   2.735   3.472   1.769  0.5669 -0.4612 -0.4433
 7176SOL    HW221957   2.599   3.458   1.703  0.1966 -0.1049  0.2345
 7177SOL     OW21958   4.919   3.258   0.558  0.1258  0.2295  0.2059
 7177SOL    HW121959   4.879   3.340   0.588  1.0582 -0.1819  2.9394
 7177SOL    HW221960   4.845   3.197   0.551 -0.3331  0.7793  0.1390
 7178SOL     OW21961   4.816   3.304   4.525  0.4581  0.5267 -0.6853
 7178SOL    HW121962   4.733   3.293   4.572  0.9705  2.3240  0.7638
 7178SOL    HW221963   4.793   3.352   4.446  0.0820  0.8450 -0.3847
 7179SOL     OW21964   0.438   0.336   1.271 -0.0843  0.4819 -0.1261
 7179SOL    HW121965   0.373   0.395   1.309 -0.4075 -0.3517  0.6361
 7179SOL    HW221966   0.512   0.393   1.249 -0.2696  1.1349  0.8877
 7180SOL     OW21967   0.792   1.251   1.297 -0.6153  0.3405  0.0068
 7180SOL    HW121968   0.887   1.250   1.284 -0.5080 -0.1883  0.8172
 7180SOL    HW221969   0.757   1.247   1.208  0.1068  1.4380 -0.3671
 7181SOL     OW21970   5.694   0.574   0.908  0.0740  0.0653  0.0978
 7181SOL    HW121971   5.649   0.562   0.992  0.8429  1.3138  0.7175
 7181SOL    HW221972   5.623   0.583   0.844 -0.5404  0.4044  0.8091
 7182SOL     OW21973   4.640   6.106   1.141 -0.3301 -0.3744  0.6340
 7182SOL    HW121974   4.581   6.040   1.177 -0.5486 -0.4314  0.1831
 7182SOL    HW221975   4.609   6.189   1.178 -2.3666 -0.0393 -1.5872
 7183SOL     OW21976   2.702   0.911   3.022 -0.3083  0.7363  0.3529
 7183SOL    HW121977   2.785   0.952   3.046  1.3801 -1.5809 -1.0122
 7183SOL    HW221978   2.678   0.859   3.098 -0.3682  1.1988  0.6534
 7184SOL     OW21979   2.703   0.664   4.007 -0.2549 -0.0691  0.0857
 7184SOL    HW121980   2.614   0.691   3.988 -0.2873  0.6126  1.1575
 7184SOL    HW221981   2.756   0.743   3.992 -0.0017 -0.1254  0.6454
 7185SOL     OW21982   3.558   0.129   3.377 -0.3309 -0.0284  0.2634
 7185SOL    HW121983   3.464   0.115   3.392 -0.2540 -1.1265 -0.1882
 7185SOL    HW221984   3.600   0.054   3.417  0.2326 -0.3594 -0.9006
 7186SOL     OW21985   0.811   3.502   3.677  0.2119 -0.0686 -0.2586
 7186SOL    HW121986   0.833   3.503   3.584 -0.7136 -0.2253 -0.4857
 7186SOL    HW221987   0.725   3.462   3.681  0.2348 -0.0450  0.6705
 7187SOL     OW21988   1.287   2.631   3.154  0.0457  0.3675 -0.4467
 7187SOL    HW121989   1.374   2.601   3.180 -0.5970 -1.0874  0.1261
 7187SOL    HW221990   1.261   2.690   3.224 -0.0246 -0.3728  0.1661
 7188SOL     OW21991   1.507   3.176   3.141 -0.1042  0.6688 -0.2679
 7188SOL    HW121992   1.572   3.119   3.182 -2.8283 -0.7118  2.6432
 7188SOL    HW221993   1.488   3.135   3.057  2.0220  0.5972 -0.7691
 7189SOL     OW21994   0.384   5.323   4.023 -0.5105  0.6565 -0.4522
 7189SOL    HW121995   0.320   5.386   3.991 -1.7423  0.0013  0.5801
 7189SOL    HW221996   0.427   5.290   3.945 -1.2739  1.2986 -1.1595
 7190SOL     OW21997   4.981   5.476   0.906  0.1364  0.2269 -0.5313
 7190SOL    HW121998   5.058   5.437   0.864  1.4037  1.9946  0.0275
 7190SOL    HW221999   4.968   5.425   0.986 -0.4856 -1.2806 -1.5411
 7191SOL     OW22000   0.916   5.409   0.404 -0.4883  0.2875 -0.0966
 7191SOL    HW122001   0.873   5.495   0.406 -1.7263 -0.3096 -0.2776
 7191SOL    HW222002   0.985   5.415   0.470 -1.5183  0.9328  0.9575
 7192SOL     OW22003   5.956   5.531   5.980  0.1270  0.0002  0.6694
 7192SOL    HW122004   6.030   5.534   5.920 -0.0219  0.1317  0.4959
 7192SOL    HW222005   5.954   5.440   6.010  0.2139 -0.0596  0.4938
 7193SOL     OW22006   5.171   5.736   5.595 -0.3890  0.2391 -0.1291
 7193SOL    HW122007   5.185   5.788   5.674 -0.4367 -0.6261  0.4627
 7193SOL    HW222008   5.211   5.788   5.525  0.2559  0.7028  0.5682
 7194SOL     OW22009   1.096   0.729   3.911  0.5414  0.8973  0.3598
 7194SOL    HW122010   1.179   0.771   3.885  1.4805 -0.3679  1.1699
 7194SOL    HW222011   1.039   0.738   3.835  1.4020  1.8589 -0.1946
 7195SOL     OW22012   0.887   5.420   6.072 -0.6917 -0.0481  0.2403
 7195SOL    HW122013   0.949   5.427   6.146 -1.5598 -0.5599  1.0329
 7195SOL    HW222014   0.919   5.485   6.009 -0.2335  0.7872  1.2905
 7196SOL     OW22015   3.644   2.655   2.959  0.6690  0.5534  0.5383
 7196SOL    HW122016   3.620   2.587   3.022  0.9974 -0.3490 -0.2857
 7196SOL    HW222017   3.574   2.719   2.965 -0.5904 -0.7110  0.0897
 7197SOL     OW22018   6.033   0.062   1.149  0.2065 -0.1216 -0.2699
 7197SOL    HW122019   6.128   0.058   1.161  0.1423 -0.3462  0.1868
 7197SOL    HW222020   6.022   0.077   1.055  0.6715 -1.1629 -0.5105
 7198SOL     OW22021   3.195   1.725   1.914 -0.8593  0.1859 -0.3417
 7198SOL    HW122022   3.118   1.782   1.923 -2.1137 -1.5740  0.7113
 7198SOL    HW222023   3.167   1.655   1.856  0.2871  0.0338 -0.7360
 7199SOL     OW22024   1.735   1.514   4.850 -0.3061  0.0648  0.1065
 7199SOL    HW122025   1.648   1.552   4.862 -0.4454 -0.1263 -0.2862
 7199SOL    HW222026   1.735   1.481   4.760  0.4442  0.7490 -0.1529
 7200SOL     OW22027   2.159   3.207   3.516 -0.1825 -0.0184  0.2276
 7200SOL    HW122028   2.116   3.201   3.431 -0.2954  2.0725  0.0929
 7200SOL    HW222029   2.252   3.197   3.497 -0.3562 -1.9449  0.1986
 7201SOL     OW22030   0.617   4.668   2.196  0.3335  0.2642  0.2089
 7201SOL    HW122031   0.646   4.662   2.287 -0.2383 -0.3951  0.3498
 7201SOL    HW222032   0.534   4.622   2.194  0.3545  0.2518 -0.6618
 7202SOL     OW22033   0.467   4.923   5.676 -0.4859 -0.0156  0.1055
 7202SOL    HW122034   0.423   4.844   5.643  1.4418 -0.4517 -1.6066
 7202SOL    HW222035   0.407   4.994   5.654 -1.7326 -0.8417  0.6551
 7203SOL     OW22036   0.724   1.444   5.357  0.2765 -0.2926 -0.2979
 7203SOL    HW122037   0.741   1.511   5.423 -1.6024 -0.4227  0.3732
 7203SOL    HW222038   0.780   1.468   5.283  1.7157  0.3936  0.9706
 7204SOL     OW22039   3.001   4.365   5.176 -0.1826 -0.2301 -0.1523
 7204SOL    HW122040   2.932   4.348   5.241 -1.9022  1.6360 -1.3802
 7204SOL    HW222041   3.033   4.278   5.152 -0.2878 -1.0388  2.2986
 7205SOL     OW22042   2.100   1.360   3.578  0.1186 -0.1666 -0.0823
 7205SOL    HW122043   2.177   1.417   3.571 -1.1976  1.6244 -0.8269
 7205SOL    HW222044   2.081   1.334   3.488 -0.6300  0.1400 -0.0278
 7206SOL     OW22045   2.071   5.904   3.996  0.5535  0.0826 -0.1338
 7206SOL    HW122046   2.069   5.811   4.021 -1.5348  0.1554  0.1494
 7206SOL    HW222047   2.052   5.951   4.078  2.5113  0.8549 -0.0725
 7207SOL     OW22048   3.059   3.578   5.572 -0.0587 -0.3837  0.1870
 7207SOL    HW122049   3.134   3.636   5.554  1.0433 -1.4253  1.2133
 7207SOL    HW222050   3.084   3.494   5.533 -1.3903 -0.3570 -0.7916
 7208SOL     OW22051   2.611   5.907   5.051  0.5925 -0.2738 -0.0705
 7208SOL    HW122052   2.547   5.836   5.050  1.4388 -1.0553 -0.0226
 7208SOL    HW222053   2.574   5.973   5.109 -1.4309  0.4882 -2.1038
 7209SOL     OW22054   2.973   6.180   5.463 -0.1317 -0.0214  0.7322
 7209SOL    HW122055   2.919   6.140   5.396  1.5262 -1.3694  0.1362
 7209SOL    HW222056   2.925   6.166   5.545 -2.5911  2.3791 -0.1548
 7210SOL     OW22057   0.934   3.213   1.355 -0.0445 -0.0637 -0.1474
 7210SOL    HW122058   0.907   3.226   1.264 -0.3975 -0.2305 -0.0674
 7210SOL    HW222059   1.003   3.147   1.350  0.2561  0.2594 -0.3385
 7211SOL     OW22060   6.192   5.054   2.157 -0.0638 -0.2932  0.3019
 7211SOL    HW122061   6.156   5.031   2.071 -1.6056  1.0646  0.5235
 7211SOL    HW222062   6.118   5.042   2.217 -0.4644  3.1669  0.6972
 7212SOL     OW22063   4.486   2.453   1.874  0.3911 -0.3290 -0.3852
 7212SOL    HW122064   4.497   2.432   1.967  0.4080  1.3776  0.0341
 7212SOL    HW222065   4.392   2.447   1.859  0.5740 -3.2133 -0.9782
 7213SOL     OW22066   0.812   1.675   1.661  0.1679 -0.2635 -0.0380
 7213SOL    HW122067   0.809   1.662   1.566  1.3256  3.0572 -0.6576
 7213SOL    HW222068   0.906   1.671   1.682 -0.0422 -0.4789  0.8980
 7214SOL     OW22069   3.437   4.616   2.681  0.2819 -0.6024  0.1135
 7214SOL    HW122070   3.362   4.609   2.740  0.4254 -0.3666  0.3291
 7214SOL    HW222071   3.400   4.632   2.595  0.1317  1.7354  0.5568
 7215SOL     OW22072   5.280   4.937   5.196  1.0498  0.1994 -0.1890
 7215SOL    HW122073   5.243   4.924   5.283 -0.1297  1.5035 -0.4667
 7215SOL    HW222074   5.260   5.028   5.175  5.1182  1.3393 -0.0361
 7216SOL     OW22075   1.074   1.017   0.582  0.0893  0.1089 -0.4074
 7216SOL    HW122076   1.113   1.026   0.495 -0.9330  1.1007 -0.7959
 7216SOL    HW222077   0.985   1.051   0.572 -0.9235 -2.0768  0.4327
 7217SOL     OW22078   1.542   0.869   0.741  0.0770  0.6463 -0.3915
 7217SOL    HW122079   1.490   0.875   0.661 -0.7983  1.7533  0.2271
 7217SOL    HW222080   1.533   0.955   0.782  1.8954  0.6694  0.0649
 7218SOL     OW22081   4.928   2.779   2.854  0.0884 -0.0416  0.0045
 7218SOL    HW122082   4.933   2.693   2.895  1.5698 -0.2563 -0.5695
 7218SOL    HW222083   4.977   2.770   2.772 -1.4768  0.7960 -1.0836
 7219SOL     OW22084   2.957   4.746   3.069  0.5304  0.0366  0.2247
 7219SOL    HW122085   3.015   4.672   3.086  0.7870 -0.1819 -1.3897
 7219SOL    HW222086   3.013   4.809   3.023  0.2028  1.0740  1.1970
 7220SOL     OW22087   1.408   3.596   0.672 -0.4874  0.4668  0.1426
 7220SOL    HW122088   1.455   3.520   0.706  0.1117  0.9233  0.3549
 7220SOL    HW222089   1.476   3.651   0.634 -1.0041  0.5474 -0.6963
 7221SOL     OW22090   0.400   6.172   5.898 -0.2892 -0.1661 -0.0691
 7221SOL    HW122091   0.491   6.157   5.923 -0.1693 -1.4735 -1.2004
 7221SOL    HW222092   0.357   6.198   5.979  0.9085 -0.3736  0.6532
 7222SOL     OW22093   4.694   1.300   1.517 -0.0480  0.2558  0.9984
 7222SOL    HW122094   4.685   1.394   1.534 -1.9427  0.1731  0.7247
 7222SOL    HW222095   4.650   1.258   1.591 -0.8332 -0.3382  0.2116
 7223SOL     OW22096   3.274   2.872   1.997  0.1674 -0.2011 -0.1335
 7223SOL    HW122097   3.251   2.793   2.046 -1.5456  0.1589 -0.2784
 7223SOL    HW222098   3.370   2.873   1.996  0.2319 -2.1833 -0.0099
 7224SOL     OW22099   3.549   3.315   4.492 -0.7136  0.0584  0.4028
 7224SOL    HW122100   3.458   3.307   4.462 -0.3114 -0.6039 -0.6741
 7224SOL    HW222101   3.556   3.254   4.565 -0.3772 -2.1716 -1.3828
 7225SOL     OW22102   1.113   1.389   1.824 -0.1325 -0.0777 -0.1766
 7225SOL    HW122103   1.123   1.423   1.912 -0.2332  1.9936 -0.9053
 7225SOL    HW222104   1.043   1.325   1.830 -1.7999  1.7523  0.8444
 7226SOL     OW22105   1.682   3.182   2.448  0.2215  0.1218 -0.2510
 7226SOL    HW122106   1.587   3.187   2.461  0.1423 -1.1427 -0.1794
 7226SOL    HW222107   1.711   3.273   2.445 -1.1380  0.5554 -1.3629
 7227SOL     OW22108   0.416   4.865   3.342  0.1004 -0.5077 -0.2634
 7227SOL    HW122109   0.437   4.936   3.282  0.9719  0.8578  1.5661
 7227SOL    HW222110   0.500   4.826   3.364 -0.0581 -0.2259  0.9270
 7228SOL     OW22111   2.485   0.529   1.351 -0.2578 -0.3617  0.0483
 7228SOL    HW122112   2.395   0.536   1.381 -0.7977  0.7231 -1.6522
 7228SOL    HW222113   2.492   0.594   1.280  1.6709 -0.8555 -0.2844
 7229SOL     OW22114   3.725   3.998   5.335 -0.2147 -0.2137  0.7934
 7229SOL    HW122115   3.806   3.954   5.361  0.8296  1.0194 -0.2271
 7229SOL    HW222116   3.753   4.065   5.273 -2.2071 -0.7189 -0.7533
 7230SOL     OW22117   2.654   2.806   5.408  0.3065  0.1288  0.1428
 7230SOL    HW122118   2.625   2.779   5.321  0.2309  1.9010 -0.4261
 7230SOL    HW222119   2.717   2.738   5.434  1.3830  0.2391 -1.9061
 7231SOL     OW22120   1.162   1.004   0.088  0.1675 -0.0725  0.0832
 7231SOL    HW122121   1.078   0.957   0.091  0.0680  0.0837 -0.1776
 7231SOL    HW222122   1.136   1.096   0.083  0.3121  0.3194  3.7846
 7232SOL     OW22123   1.442   2.764   1.805 -0.1153  0.5885  0.0378
 7232SOL    HW122124   1.421   2.844   1.758 -1.3611 -0.4477 -1.2505
 7232SOL    HW222125   1.361   2.713   1.804  1.4311 -2.0994 -2.0695
 7233SOL     OW22126   4.498   1.010   1.261  0.1086 -0.2191 -0.6559
 7233SOL    HW122127   4.439   1.037   1.331  1.8710 -2.3547  1.8757
 7233SOL    HW222128   4.530   0.924   1.288  1.7811 -0.6726 -3.5774
 7234SOL     OW22129   3.883   1.253   4.638 -0.8620 -0.2705 -0.1159
 7234SOL    HW122130   3.958   1.304   4.608 -0.7840 -0.5137 -0.3341
 7234SOL    HW222131   3.910   1.162   4.629 -0.5128 -0.3602  1.5186
 7235SOL     OW22132   0.049   3.505   1.050 -0.1481  0.5038  0.5810
 7235SOL    HW122133   0.079   3.444   0.983 -0.6062 -0.3424  1.1238
 7235SOL    HW222134   0.020   3.583   1.002 -1.8032 -0.6230 -0.3285
 7236SOL     OW22135   1.086   3.312   5.135 -0.1048 -0.7206 -0.3047
 7236SOL    HW122136   1.020   3.376   5.161 -0.5843 -1.5067  0.4985
 7236SOL    HW222137   1.096   3.323   5.041  0.1284  0.7998 -0.1231
 7237SOL     OW22138   5.641   1.698   3.764  0.1532  0.5779  0.2917
 7237SOL    HW122139   5.681   1.676   3.680 -1.7014 -1.6439 -0.1222
 7237SOL    HW222140   5.714   1.706   3.825  1.5040  1.7905 -1.3958
 7238SOL     OW22141   3.441   6.065   0.934 -0.4984 -0.9798 -0.4830
 7238SOL    HW122142   3.384   6.070   1.011 -1.6306 -1.9028 -1.2327
 7238SOL    HW222143   3.467   5.973   0.930  1.5999 -0.4797  0.1917
 7239SOL     OW22144   1.896   2.056   2.211  0.3144 -0.1293 -0.3372
 7239SOL    HW122145   1.879   2.054   2.306  1.7893  1.8172  0.0421
 7239SOL    HW222146   1.816   2.093   2.174 -0.8445 -2.2106 -0.0847
 7240SOL     OW22147   4.133   0.572   6.114  0.3881 -0.2711  0.0727
 7240SOL    HW122148   4.195   0.538   6.050 -0.6335 -0.0193 -1.0845
 7240SOL    HW222149   4.104   0.494   6.162  0.1400 -0.6708 -0.7005
 7241SOL     OW22150   6.139   4.129   1.945 -0.0627  0.0505  0.0647
 7241SOL    HW122151   6.079   4.058   1.968  0.9248 -0.5412  0.8940
 7241SOL    HW222152   6.191   4.094   1.873 -0.2269  0.2937 -0.1709
 7242SOL     OW22153   6.151   4.275   4.492  0.6407 -0.8734  0.0749
 7242SOL    HW122154   6.193   4.192   4.517  1.1224 -0.5702  0.2853
 7242SOL    HW222155   6.207   4.343   4.530  0.0537 -0.4549  0.2152
 7243SOL     OW22156   1.744   1.754   4.452  0.1962 -0.2396  0.3112
 7243SOL    HW122157   1.805   1.735   4.523  0.5548 -0.9325 -0.1695
 7243SOL    HW222158   1.799   1.752   4.373 -0.6281 -2.0165 -0.2553
 7244SOL     OW22159   1.250   0.222   5.784  0.1315  1.1906  0.4648
 7244SOL    HW122160   1.275   0.229   5.692 -0.7590  0.8793  0.1909
 7244SOL    HW222161   1.289   0.139   5.813 -1.5072  0.0940 -0.2918
 7245SOL     OW22162   1.880   2.469   2.768 -0.9826  0.6475 -0.6417
 7245SOL    HW122163   1.965   2.503   2.741  0.2913 -0.7172  1.3895
 7245SOL    HW222164   1.878   2.482   2.863 -1.5766 -2.3095 -0.1590
 7246SOL     OW22165   2.319   2.401   3.137 -0.6841  0.0675  0.1551
 7246SOL    HW122166   2.353   2.312   3.139  2.9812  1.3073  0.8467
 7246SOL    HW222167   2.289   2.417   3.227 -1.0703 -0.3490  0.1036
 7247SOL     OW22168   5.503   5.772   0.197 -0.0931 -0.5729  0.1523
 7247SOL    HW122169   5.593   5.804   0.188  0.8026 -2.3756  1.9361
 7247SOL    HW222170   5.479   5.793   0.287 -0.8877 -1.4438  0.1546
 7248SOL     OW22171   2.139   5.763   6.019  0.1815  0.3380 -0.7767
 7248SOL    HW122172   2.166   5.704   6.090 -0.8058  1.7481  0.8372
 7248SOL    HW222173   2.114   5.704   5.948  0.2676 -1.1643  0.3795
 7249SOL     OW22174   5.259   2.305   3.679  0.1449  0.0529  0.1359
 7249SOL    HW122175   5.226   2.362   3.748 -2.2786  0.8572 -1.5556
 7249SOL    HW222176   5.314   2.361   3.625 -1.1063  0.4945 -0.7296
 7250SOL     OW22177   1.265   3.305   6.164 -0.2550 -0.3750  0.0512
 7250SOL    HW122178   1.215   3.229   6.137  0.3005 -0.3170 -1.1925
 7250SOL    HW222179   1.227   3.330   6.248 -0.0527 -2.3783  0.7954
 7251SOL     OW22180   1.410   4.371   5.137  0.5206  0.2215 -0.6210
 7251SOL    HW122181   1.347   4.308   5.170  0.5570  0.7336  0.4555
 7251SOL    HW222182   1.474   4.382   5.207  1.8176 -0.2637 -1.6780
 7252SOL     OW22183   3.174   4.121   2.001 -0.0963  0.1600  0.8388
 7252SOL    HW122184   3.136   4.184   1.939  0.2920 -0.4631 -0.0542
 7252SOL    HW222185   3.125   4.135   2.082 -1.9205 -0.2975 -0.1267
 7253SOL     OW22186   3.369   2.839   0.148  0.3158 -0.3671  0.6672
 7253SOL    HW122187   3.308   2.913   0.141  1.2970  0.3528 -1.3276
 7253SOL    HW222188   3.434   2.867   0.213  0.0708  0.0670  0.7278
 7254SOL     OW22189   2.223   1.377   1.164  0.3175 -0.1754  0.2187
 7254SOL    HW122190   2.252   1.467   1.152 -1.6635  0.6675  1.2592
 7254SOL    HW222191   2.191   1.374   1.254 -0.2525 -1.7443 -0.0112
 7255SOL     OW22192   5.329   1.564   3.379  0.3794  0.2579 -0.1916
 7255SOL    HW122193   5.288   1.599   3.300  0.8178  0.3723 -0.3702
 7255SOL    HW222194   5.255   1.539   3.435  0.0613 -0.1238 -0.7702
 7256SOL     OW22195   2.741   2.311   1.671 -1.0694 -0.3342  0.2868
 7256SOL    HW122196   2.690   2.391   1.654 -1.0867 -0.2859  0.5546
 7256SOL    HW222197   2.774   2.285   1.585 -0.7163  0.1928  0.2581
 7257SOL     OW22198   3.471   4.368   0.693  0.5319  0.3188  0.1695
 7257SOL    HW122199   3.477   4.272   0.695  1.4329  0.3684  2.9087
 7257SOL    HW222200   3.377   4.386   0.693  0.3506 -0.5657  0.9704
 7258SOL     OW22201   4.248   4.086   2.191 -0.0369 -0.1518  0.0544
 7258SOL    HW122202   4.282   4.011   2.142 -0.7704 -0.8080  0.5264
 7258SOL    HW222203   4.313   4.103   2.258  0.6999  0.3861 -0.7801
 7259SOL     OW22204   5.985   0.036   4.586 -0.4523  0.2545 -0.7938
 7259SOL    HW122205   6.000   0.005   4.496 -1.8892 -1.0848 -0.6288
 7259SOL    HW222206   6.040  -0.021   4.640 -2.3472 -1.5226 -0.5773
 7260SOL     OW22207   5.322   2.549   4.114  0.4601  0.5889 -0.7479
 7260SOL    HW122208   5.401   2.507   4.079  0.5548  0.2125 -0.0832
 7260SOL    HW222209   5.301   2.499   4.192 -1.8529 -0.9069 -2.2080
 7261SOL     OW22210   5.850   1.952   1.504  0.2076  0.4375 -1.0768
 7261SOL    HW122211   5.912   1.929   1.435  0.2478 -0.6490 -0.6921
 7261SOL    HW222212   5.905   1.989   1.574  0.5368 -1.1390 -0.4635
 7262SOL     OW22213   4.900   4.369   4.151  0.5122 -0.7679 -0.0112
 7262SOL    HW122214   4.812   4.386   4.119  0.7986 -0.7488 -0.7985
 7262SOL    HW222215   4.897   4.279   4.184  0.0212 -0.5331  0.5945
 7263SOL     OW22216   1.906   4.194   3.405 -0.0893  0.2436 -0.1191
 7263SOL    HW122217   1.946   4.115   3.443 -0.0633  1.4051  2.4954
 7263SOL    HW222218   1.978   4.258   3.402 -0.7292  1.0012  0.4450
 7264SOL     OW22219   2.237   3.647   3.055  0.2746 -0.0095  0.0684
 7264SOL    HW122220   2.288   3.636   2.975 -0.3871 -0.6339 -0.2788
 7264SOL    HW222221   2.200   3.561   3.072 -0.0032  0.2412  0.7656
 7265SOL     OW22222   0.312   4.578   4.756  0.5220 -0.2843 -0.4243
 7265SOL    HW122223   0.349   4.570   4.844 -0.1867  1.1510  0.0368
 7265SOL    HW222224   0.389   4.587   4.699  0.9622 -0.3547  0.1491
 7266SOL     OW22225   1.671   4.543   5.503 -0.8594  0.0443 -0.2443
 7266SOL    HW122226   1.765   4.561   5.511 -0.7565  0.3254 -1.8510
 7266SOL    HW222227   1.665   4.449   5.492 -0.7626  0.0349 -0.2219
 7267SOL     OW22228   2.937   1.582   3.663 -0.3662 -0.1495  0.1255
 7267SOL    HW122229   2.974   1.558   3.748 -0.4652 -1.4021 -0.1627
 7267SOL    HW222230   2.908   1.499   3.625  1.9958 -0.0614 -2.2190
 7268SOL     OW22231   6.130   5.704   0.548 -0.0936 -0.1672  0.6992
 7268SOL    HW122232   6.179   5.679   0.470 -0.2272 -0.4440  0.7026
 7268SOL    HW222233   6.161   5.792   0.569 -1.9966  1.0525 -1.2347
 7269SOL     OW22234   5.571   4.497   0.361 -0.4970  0.3320  0.3515
 7269SOL    HW122235   5.477   4.496   0.376 -0.7901  2.5014 -0.8995
 7269SOL    HW222236   5.596   4.589   0.375  1.0948  0.1518 -1.0696
 7270SOL     OW22237   0.931   3.739   4.245  0.1148 -0.1331  0.1992
 7270SOL    HW122238   0.846   3.769   4.279 -0.0350  0.1466 -0.4224
 7270SOL    HW222239   0.968   3.688   4.318  0.1578  1.1094  1.0824
 7271SOL     OW22240   2.552   6.123   2.340  0.1669 -0.6004 -0.0449
 7271SOL    HW122241   2.630   6.170   2.307  0.5286 -0.3159  1.1799
 7271SOL    HW222242   2.542   6.049   2.279  0.5317  0.1630 -1.0707
 7272SOL     OW22243   1.762   2.496   1.689  0.9871 -0.1460 -0.0699
 7272SOL    HW122244   1.797   2.536   1.769 -0.1058  0.6420  0.0443
 7272SOL    HW222245   1.724   2.413   1.719  0.4723  0.2011  0.2732
 7273SOL     OW22246   3.881   2.577   2.645 -0.4187  0.6462  0.0888
 7273SOL    HW122247   3.915   2.493   2.676 -1.4053 -0.0680 -0.6907
 7273SOL    HW222248   3.811   2.553   2.584  0.4220  1.9970 -1.4972
 7274SOL     OW22249   5.380   0.815   2.818  0.4031 -0.0341 -0.0994
 7274SOL    HW122250   5.297   0.769   2.817  0.9962 -1.1310 -0.1643
 7274SOL    HW222251   5.397   0.837   2.727 -0.1712  0.8816 -0.0000
 7275SOL     OW22252   3.739   4.238   3.460  0.0864 -0.2487 -0.3248
 7275SOL    HW122253   3.831   4.227   3.438  0.1531  0.7549 -0.6188
 7275SOL    HW222254   3.718   4.326   3.429 -0.4775  0.2804  1.4538
 7276SOL     OW22255   4.341   3.625   2.736 -0.0096 -0.6397 -0.1421
 7276SOL    HW122256   4.336   3.703   2.791 -1.1859 -1.0702  0.3886
 7276SOL    HW222257   4.268   3.570   2.765 -0.4586 -1.0287 -1.9189
 7277SOL     OW22258   1.481   1.113   2.299 -0.0439  0.4970 -0.5320
 7277SOL    HW122259   1.560   1.131   2.349 -0.2770  1.7195 -0.5861
 7277SOL    HW222260   1.500   1.145   2.211  0.1531 -1.1185 -1.1131
 7278SOL     OW22261   5.471   5.511   2.338 -0.5563 -0.2032 -0.0898
 7278SOL    HW122262   5.516   5.529   2.256  0.5566 -0.0399  0.5362
 7278SOL    HW222263   5.378   5.504   2.314 -0.1230 -1.2829 -1.5206
 7279SOL     OW22264   4.190   4.017   0.081 -0.6116 -0.2348 -0.2643
 7279SOL    HW122265   4.284   4.000   0.093 -0.6999  0.2348  1.2317
 7279SOL    HW222266   4.164   4.067   0.158 -1.7477  1.1133 -1.4546
 7280SOL     OW22267   2.642   1.210   5.403  0.3634  0.2984 -0.5267
 7280SOL    HW122268   2.707   1.139   5.405 -0.8500 -0.8250 -0.0333
 7280SOL    HW222269   2.580   1.184   5.335 -0.0452  0.9490 -0.4115
 7281SOL     OW22270   0.528   1.182   5.669  0.4862 -0.3321 -0.0531
 7281SOL    HW122271   0.590   1.218   5.733 -0.2699 -0.8547  1.0146
 7281SOL    HW222272   0.444   1.184   5.715 -0.2126 -0.0508 -1.3072
 7282SOL     OW22273   0.451   5.099   3.541  0.1005  0.5028 -0.5720
 7282SOL    HW122274   0.509   5.125   3.470  1.2221 -0.6026 -0.1138
 7282SOL    HW222275   0.407   5.020   3.509 -1.0337  1.2129 -0.8340
 7283SOL     OW22276   0.948   1.041   5.153 -0.2391 -0.3064  0.1787
 7283SOL    HW122277   0.874   1.092   5.120 -0.1035 -1.1179 -1.4621
 7283SOL    HW222278   1.005   1.106   5.194 -0.5551  0.7388 -0.9648
 7284SOL     OW22279   4.156   5.788   1.191  0.1448 -0.0281  0.4875
 7284SOL    HW122280   4.086   5.843   1.154  1.6336  1.0337 -0.8606
 7284SOL    HW222281   4.121   5.699   1.189 -1.7008  0.6339  1.1833
 7285SOL     OW22282   4.824   0.533   0.857  0.0014  0.0255 -0.3387
 7285SOL    HW122283   4.891   0.601   0.861  0.2088 -0.2548  2.0580
 7285SOL    HW222284   4.870   0.452   0.878 -0.8084 -0.4053 -0.1702
 7286SOL     OW22285   1.565   4.378   3.505  0.0298  0.6083 -0.4221
 7286SOL    HW122286   1.584   4.319   3.433 -2.1174  0.8582 -1.2796
 7286SOL    HW222287   1.620   4.348   3.577  0.3892 -1.2093 -1.4192
 7287SOL     OW22288   0.614   5.970   6.193 -0.3710  0.6074 -0.3934
 7287SOL    HW122289   0.605   5.935   6.104  1.5819  0.7787 -0.6894
 7287SOL    HW222290   0.534   5.941   6.238 -2.8740  2.9378 -2.9424
 7288SOL     OW22291   4.386   0.300   3.941  0.0161  0.0281 -0.1254
 7288SOL    HW122292   4.417   0.303   4.032 -0.6031  0.6290  0.0738
 7288SOL    HW222293   4.401   0.209   3.914 -0.9153 -0.4816  0.9856
 7289SOL     OW22294   1.864   5.333   0.336  1.0092 -0.0035 -0.2056
 7289SOL    HW122295   1.850   5.276   0.412  0.2432  0.1755 -0.2105
 7289SOL    HW222296   1.860   5.421   0.372 -0.8585  0.1403 -0.6688
 7290SOL     OW22297   3.324   0.758   5.631  0.0663  0.4229  0.2043
 7290SOL    HW122298   3.285   0.679   5.592  0.5791 -0.4508  1.4032
 7290SOL    HW222299   3.384   0.724   5.697  1.3339  1.7939 -0.2014
 7291SOL     OW22300   2.083   1.640   0.976  0.1277  0.6374  0.5944
 7291SOL    HW122301   2.152   1.624   1.040 -0.3562 -1.4569  0.6752
 7291SOL    HW222302   2.100   1.728   0.943  0.6906  1.6051  3.2173
 7292SOL     OW22303   2.784   0.244   3.055 -0.6207 -0.9811 -0.2653
 7292SOL    HW122304   2.733   0.170   3.022 -1.0242 -1.1016  0.5887
 7292SOL    HW222305   2.723   0.318   3.054 -1.0634 -1.2805  1.4192
 7293SOL     OW22306   5.525   1.266   0.204 -0.1528 -0.0176 -0.2653
 7293SOL    HW122307   5.478   1.348   0.189 -1.5012  0.0244  3.3440
 7293SOL    HW222308   5.457   1.202   0.225  1.0300 -1.5631 -0.9024
 7294SOL     OW22309   6.224   2.700   1.013  0.0667  0.6301 -0.2445
 7294SOL    HW122310   6.173   2.781   1.003 -0.5853  0.1422 -1.0065
 7294SOL    HW222311   6.239   2.671   0.923 -2.6843 -1.9135 -0.0275
 7295SOL     OW22312   4.117   3.625   0.396  0.1874  0.0926 -0.3413
 7295SOL    HW122313   4.178   3.699   0.405 -0.8306  0.8685  0.3556
 7295SOL    HW222314   4.030   3.664   0.405 -0.4179 -1.0430 -1.0317
 7296SOL     OW22315   0.457   6.012   5.155  0.3178 -0.1012 -0.3082
 7296SOL    HW122316   0.389   6.014   5.222  1.1997 -0.3978  0.6215
 7296SOL    HW222317   0.426   5.949   5.091  0.1749 -1.0140  0.6289
 7297SOL     OW22318   4.388   3.637   3.917 -0.2082 -0.5429  0.1647
 7297SOL    HW122319   4.392   3.732   3.901  2.0237 -0.6515 -0.3587
 7297SOL    HW222320   4.343   3.602   3.840  1.9229 -0.1480 -1.3635
 7298SOL     OW22321   0.954   3.719   4.858 -0.2399  0.1616  0.0997
 7298SOL    HW122322   0.985   3.699   4.947 -1.0273 -1.4707  0.0438
 7298SOL    HW222323   1.026   3.768   4.818  0.1712  0.8340  1.5939
 7299SOL     OW22324   2.968   5.979   4.132 -0.3358  0.0391  0.2374
 7299SOL    HW122325   2.893   6.002   4.186 -0.6177 -0.1016 -0.0890
 7299SOL    HW222326   2.949   5.890   4.102  0.9651 -0.8289  1.8852
 7300SOL     OW22327   1.390   1.581   1.733  0.5451 -0.0281 -0.2800
 7300SOL    HW122328   1.430   1.503   1.696  2.2177  0.5420  0.2295
 7300SOL    HW222329   1.312   1.595   1.681 -1.0303 -3.2462  0.9496
 7301SOL     OW22330   3.879   3.865   2.050 -0.2464  0.4908  0.7014
 7301SOL    HW122331   3.806   3.912   2.090 -0.5414 -0.1164  0.8886
 7301SOL    HW222332   3.896   3.793   2.110 -1.5414 -1.2088 -0.8576
 7302SOL     OW22333   5.287   5.259   2.770  0.0324  0.0909 -0.4752
 7302SOL    HW122334   5.274   5.351   2.789  0.4041 -0.1268  0.9300
 7302SOL    HW222335   5.382   5.250   2.758 -0.0047 -0.1105 -0.6230
 7303SOL     OW22336   6.157   1.004   0.651  0.0794 -0.1676  0.6651
 7303SOL    HW122337   6.215   0.969   0.719  2.7487 -0.4303 -1.5493
 7303SOL    HW222338   6.092   0.934   0.637 -0.4934 -0.1303  2.8021
 7304SOL     OW22339   0.972   5.732   4.825  0.1877 -0.0103  0.5382
 7304SOL    HW122340   0.958   5.788   4.902  0.3506 -1.0093  1.3201
 7304SOL    HW222341   0.926   5.650   4.847  0.3633 -0.3574 -0.3631
 7305SOL     OW22342   4.173   1.437   5.981  0.4104 -0.5829 -0.0209
 7305SOL    HW122343   4.222   1.516   5.957  0.6931 -0.1422  1.8263
 7305SOL    HW222344   4.220   1.365   5.938  1.0916  0.0887 -0.4360
 7306SOL     OW22345   4.872   2.786   5.745  0.0523 -0.0396  0.0297
 7306SOL    HW122346   4.843   2.695   5.747  0.4018 -0.1850 -1.0026
 7306SOL    HW222347   4.921   2.796   5.826 -1.7424 -0.1480  1.1814
 7307SOL     OW22348   1.118   1.270   0.859 -0.6950  0.3218  1.0678
 7307SOL    HW122349   1.120   1.312   0.945  1.9877  0.5115  0.9952
 7307SOL    HW222350   1.129   1.177   0.878  2.5863  0.5595  0.9695
 7308SOL     OW22351   1.919   4.248   5.601  0.6755  0.6951  0.6373
 7308SOL    HW122352   1.858   4.180   5.628 -0.6250  0.9848 -1.3642
 7308SOL    HW222353   1.994   4.200   5.564  1.4696  0.3506  2.6040
 7309SOL     OW22354   0.107   5.675   4.267 -0.1985 -0.0980 -0.0626
 7309SOL    HW122355   0.023   5.692   4.226  0.3760  1.3249 -0.7245
 7309SOL    HW222356   0.086   5.637   4.353 -1.4475 -1.4232 -0.9245
 7310SOL     OW22357   3.474   5.806   5.847  0.3191 -0.2186  0.3295
 7310SOL    HW122358   3.390   5.840   5.879  1.0949  0.9348  1.2262
 7310SOL    HW222359   3.482   5.844   5.759  1.1338  1.9966  1.2811
 7311SOL     OW22360   3.441   0.731   3.821  0.1223 -0.2570 -0.1175
 7311SOL    HW122361   3.361   0.736   3.873 -0.1714 -1.9572 -0.3547
 7311SOL    HW222362   3.485   0.651   3.851  1.1418  0.0115 -0.8187
 7312SOL     OW22363   1.512   3.891   0.392  0.1903  0.1916 -0.1180
 7312SOL    HW122364   1.483   3.953   0.459 -2.6153 -0.5948 -0.4876
 7312SOL    HW222365   1.515   3.942   0.311 -1.3667  0.0691 -0.2793
 7313SOL     OW22366   0.650   0.176   5.961 -0.0326 -0.5129 -0.3698
 7313SOL    HW122367   0.642   0.105   5.898 -2.9983  0.4404 -1.2612
 7313SOL    HW222368   0.591   0.244   5.927  0.1153  1.0138  2.1757
 7314SOL     OW22369   0.623   0.619   2.936  0.6883 -0.3916 -0.2423
 7314SOL    HW122370   0.530   0.610   2.956  0.3412 -0.6718 -1.8405
 7314SOL    HW222371   0.650   0.698   2.983 -0.5517  0.1279 -0.3657
 7315SOL     OW22372   5.701   2.003   0.442  0.0908 -0.9366  0.0601
 7315SOL    HW122373   5.614   2.031   0.469  0.1239  0.1169 -0.8240
 7315SOL    HW222374   5.745   1.979   0.523 -1.6498 -3.4683  0.3563
 7316SOL     OW22375   5.194   5.874   2.667  0.3128  0.6935 -0.6035
 7316SOL    HW122376   5.136   5.855   2.741  0.6670 -1.0432 -0.7509
 7316SOL    HW222377   5.186   5.969   2.656  0.5372  1.0918  1.9073
 7317SOL     OW22378   3.360   4.134   0.203 -0.9056 -0.3511  1.1884
 7317SOL    HW122379   3.327   4.224   0.193  0.3113  0.0067  0.2094
 7317SOL    HW222380   3.376   4.104   0.113  0.0445 -1.0307  1.5728
 7318SOL     OW22381   2.847   1.870   4.587 -0.3503  0.9523  0.0960
 7318SOL    HW122382   2.927   1.920   4.572  0.4781 -0.0311  1.0939
 7318SOL    HW222383   2.836   1.870   4.682  0.0975 -1.3643  0.2087
 7319SOL     OW22384   4.150   5.461   5.869 -0.0676 -0.4107  0.1348
 7319SOL    HW122385   4.103   5.515   5.804  2.7236  0.7549 -1.0620
 7319SOL    HW222386   4.102   5.476   5.950 -0.3862  2.7089 -0.4762
 7320SOL     OW22387   0.972   3.126   5.362 -0.1306 -0.2609  0.3122
 7320SOL    HW122388   1.047   3.116   5.420  1.1258  2.0628 -0.7657
 7320SOL    HW222389   0.957   3.220   5.358 -2.4808 -0.6001 -0.3303
 7321SOL     OW22390   5.272   2.229   6.058  0.1979  0.3779  0.1762
 7321SOL    HW122391   5.240   2.167   5.992 -3.6755  2.3603 -0.0474
 7321SOL    HW222392   5.339   2.281   6.012 -0.1039 -0.3583 -1.1529
 7322SOL     OW22393   4.604   4.473   2.732 -0.2680  0.0891  0.3295
 7322SOL    HW122394   4.563   4.547   2.686 -1.0519 -0.2842  0.4246
 7322SOL    HW222395   4.639   4.512   2.812  2.1043  0.9890 -1.0180
 7323SOL     OW22396   3.722   5.586   4.196 -0.2833 -0.2828  0.0335
 7323SOL    HW122397   3.685   5.509   4.239 -2.5467  1.2036  0.9178
 7323SOL    HW222398   3.793   5.614   4.255 -0.7161 -0.5808  0.7094
 7324SOL     OW22399   2.007   5.246   2.529 -0.4495  0.3227  0.0986
 7324SOL    HW122400   2.009   5.273   2.438  1.3152  0.1328  0.0388
 7324SOL    HW222401   2.089   5.279   2.566 -0.7816 -0.2448  1.4117
 7325SOL     OW22402   4.727   2.099   0.305 -0.0115  0.3097 -0.1157
 7325SOL    HW122403   4.693   2.014   0.333 -1.1167  0.5863 -0.5643
 7325SOL    HW222404   4.813   2.080   0.268  0.5920 -0.3457  1.5267
 7326SOL     OW22405   1.774   5.887   3.739  0.2433  0.1138 -0.3697
 7326SOL    HW122406   1.795   5.831   3.664  0.5780  1.3670 -1.2366
 7326SOL    HW222407   1.681   5.906   3.730  0.3653  0.5782 -0.7018
 7327SOL     OW22408   2.478   3.841   4.888 -0.4904  0.9417  0.4768
 7327SOL    HW122409   2.537   3.914   4.868 -0.2955  0.2095 -1.9779
 7327SOL    HW222410   2.465   3.797   4.804 -0.2257 -2.1459  1.9064
 7328SOL     OW22411   1.390   0.278   1.788  0.0547  0.1471 -0.1957
 7328SOL    HW122412   1.318   0.216   1.798  0.3647 -0.4196 -1.3069
 7328SOL    HW222413   1.369   0.350   1.847 -1.0354 -0.3626  0.0485
 7329SOL     OW22414   4.389   4.052   5.339  0.4045 -0.0073 -0.4090
 7329SOL    HW122415   4.375   4.121   5.403 -0.5947 -0.0181 -0.5945
 7329SOL    HW222416   4.484   4.049   5.326  0.5345  0.6180  0.3706
 7330SOL     OW22417   3.760   1.096   3.772 -0.2565 -0.3441  0.1642
 7330SOL    HW122418   3.669   1.067   3.765  0.1358 -1.6826  0.2513
 7330SOL    HW222419   3.774   1.153   3.697 -0.7945 -1.2072 -0.6084
 7331SOL     OW22420   2.069   0.354   5.722 -0.3522  0.6082 -0.5155
 7331SOL    HW122421   2.074   0.449   5.729  1.7622  0.4807  0.3853
 7331SOL    HW222422   1.983   0.337   5.682 -1.9088  2.7622  1.6444
 7332SOL     OW22423   3.410   1.371   4.691 -0.6490  0.1558  0.1275
 7332SOL    HW122424   3.431   1.464   4.691 -0.7986  0.1915  0.6972
 7332SOL    HW222425   3.383   1.353   4.600  2.7102 -0.1053 -0.9515
 7333SOL     OW22426   4.141   3.566   0.001 -0.5627  0.0514  0.2237
 7333SOL    HW122427   4.062   3.520  -0.028 -1.2944  1.3660  0.0772
 7333SOL    HW222428   4.133   3.571   0.096 -0.7928  0.4408  0.1821
 7334SOL     OW22429   3.939   4.645   2.195  0.4978 -0.1916 -0.5038
 7334SOL    HW122430   3.907   4.720   2.245 -1.0265 -1.2896  0.2651
 7334SOL    HW222431   3.968   4.583   2.262 -0.7302 -1.3187 -0.9536
 7335SOL     OW22432   1.684   5.543   5.349 -0.5259  0.0165  0.2484
 7335SOL    HW122433   1.673   5.618   5.407  0.7179  1.7864 -1.6528
 7335SOL    HW222434   1.777   5.544   5.325  0.6132 -4.5517  3.1189
 7336SOL     OW22435   3.378   2.383   0.284 -0.0272 -0.2739 -1.0297
 7336SOL    HW122436   3.424   2.466   0.296  0.5065 -0.6582 -0.4018
 7336SOL    HW222437   3.294   2.408   0.246 -0.5889  0.7418  0.7565
 7337SOL     OW22438   0.441   1.546   5.339  0.1883  0.5183  0.0933
 7337SOL    HW122439   0.435   1.592   5.255  1.3616  0.1818 -0.1965
 7337SOL    HW222440   0.535   1.528   5.350 -0.0597 -0.3223  0.9986
 7338SOL     OW22441   4.541   0.460   4.260  0.5658 -0.5214 -0.3356
 7338SOL    HW122442   4.556   0.523   4.190  1.5294 -2.5108 -1.9940
 7338SOL    HW222443   4.447   0.468   4.279  0.1940 -0.1725 -2.1159
 7339SOL     OW22444   4.816   2.135   3.421 -0.9920  0.2753 -0.3396
 7339SOL    HW122445   4.878   2.106   3.354 -2.2267  0.5216 -1.6351
 7339SOL    HW222446   4.838   2.083   3.498 -1.2535 -2.0070 -1.7180
 7340SOL     OW22447   4.994   2.963   0.644  0.1803 -0.4029 -0.1668
 7340SOL    HW122448   4.952   3.010   0.716 -0.2988 -2.0418  0.6807
 7340SOL    HW222449   4.991   3.024   0.570 -0.2390  0.9395  0.9112
 7341SOL     OW22450   2.246   0.032   6.011 -0.2686 -0.3439 -0.1960
 7341SOL    HW122451   2.177   0.087   5.973 -0.6440 -0.9229 -0.3622
 7341SOL    HW222452   2.262   0.070   6.098 -0.5834 -0.0225 -0.2782
 7342SOL     OW22453   4.775   0.079   4.349  0.4647 -0.0564 -0.5603
 7342SOL    HW122454   4.790   0.172   4.331  1.1609 -0.3398 -1.5252
 7342SOL    HW222455   4.862   0.042   4.362  0.1850 -0.5514 -0.0537
 7343SOL     OW22456   1.899   2.734   4.937  0.1489  0.5504  0.2677
 7343SOL    HW122457   1.925   2.824   4.957 -0.7235  0.5396  1.6212
 7343SOL    HW222458   1.981   2.684   4.943  0.2402  0.8479  2.2475
 7344SOL     OW22459   0.430   3.555   4.530 -0.7454 -0.4131 -0.2996
 7344SOL    HW122460   0.375   3.506   4.591  0.6878 -0.5071  0.9945
 7344SOL    HW222461   0.449   3.637   4.574  0.0606 -0.3473 -0.7348
 7345SOL     OW22462   0.380   1.025   3.789  0.4283  0.0686  0.4691
 7345SOL    HW122463   0.412   1.066   3.709 -0.4465 -0.6436 -0.2652
 7345SOL    HW222464   0.304   1.078   3.815  0.1121 -0.2823  0.2692
 7346SOL     OW22465   1.128   5.604   2.394  0.1250 -0.2303 -0.3700
 7346SOL    HW122466   1.045   5.596   2.441  0.2546 -1.0336 -0.2692
 7346SOL    HW222467   1.189   5.550   2.443  0.3625 -0.7524 -1.2274
 7347SOL     OW22468   0.300   6.232   2.589 -0.4113  0.0945 -0.4603
 7347SOL    HW122469   0.302   6.325   2.568 -0.1717  0.4683  1.0342
 7347SOL    HW222470   0.392   6.211   2.608 -0.8440  0.5707  2.9359
 7348SOL     OW22471   4.964   1.690   2.579  0.1797 -0.3851  0.8142
 7348SOL    HW122472   4.906   1.639   2.523  0.8690  0.7676 -1.0285
 7348SOL    HW222473   4.939   1.664   2.668 -0.2433 -3.0561  0.0162
 7349SOL     OW22474   5.466   4.960   0.218  0.1827 -0.3833  0.2758
 7349SOL    HW122475   5.400   4.941   0.152 -0.3668  4.1370 -0.7592
 7349SOL    HW222476   5.416   4.980   0.297  0.5184 -0.2275  0.4489
 7350SOL     OW22477   0.511   2.688   4.161 -0.0018  0.6262  0.2265
 7350SOL    HW122478   0.580   2.736   4.208  1.0557 -0.6385  0.0161
 7350SOL    HW222479   0.557   2.618   4.116 -1.4440 -0.2466  0.0604
 7351SOL     OW22480   5.988   3.896   1.966  0.0251 -0.1808 -0.2881
 7351SOL    HW122481   6.058   3.852   2.014  1.2808  1.8724 -0.1653
 7351SOL    HW222482   5.914   3.834   1.970  0.8794 -1.1431  2.0732
 7352SOL     OW22483   2.599   5.904   4.613 -0.2052 -0.3693 -0.0728
 7352SOL    HW122484   2.517   5.870   4.648  0.6907  0.3595  2.9988
 7352SOL    HW222485   2.642   5.947   4.687  3.0409 -0.8197 -1.4987
 7353SOL     OW22486   0.101   4.927   0.675  0.4508  0.1133  0.3295
 7353SOL    HW122487   0.176   4.869   0.662  0.0277 -0.1036 -1.4179
 7353SOL    HW222488   0.027   4.867   0.691 -0.0081  0.1090 -1.5886
 7354SOL     OW22489   3.512   2.436   3.990 -0.1351 -0.3132  0.1972
 7354SOL    HW122490   3.514   2.388   3.908 -0.2182  1.3961 -0.8546
 7354SOL    HW222491   3.590   2.492   3.987 -0.0999 -0.2739  1.3184
 7355SOL     OW22492   0.353   5.917   3.441  0.5217 -0.5946 -0.1354
 7355SOL    HW122493   0.406   5.889   3.516 -1.7242  0.0772  1.7976
 7355SOL    HW222494   0.329   5.835   3.397 -1.4129 -1.4237  2.2603
 7356SOL     OW22495   5.499   2.370   5.975 -0.3636  0.1658 -0.1524
 7356SOL    HW122496   5.536   2.438   6.032 -0.2586  0.8820 -1.0589
 7356SOL    HW222497   5.540   2.385   5.890  0.3993 -1.6538 -0.1453
 7357SOL     OW22498   2.280   5.181   4.991  0.6989 -0.5281 -0.3900
 7357SOL    HW122499   2.225   5.117   5.036  1.9078 -1.3820 -0.0735
 7357SOL    HW222500   2.346   5.206   5.056  1.6967 -0.8058 -1.2589
 7358SOL     OW22501   5.954   5.957   5.719 -0.5562  0.4140 -0.5872
 7358SOL    HW122502   6.016   6.003   5.777 -0.3227  1.7415 -1.8198
 7358SOL    HW222503   5.923   5.883   5.771  1.7841 -0.0947  0.2244
 7359SOL     OW22504   0.133   3.454   5.682  0.1804 -0.1629  0.6256
 7359SOL    HW122505   0.070   3.526   5.673 -0.2510 -0.7931 -2.5494
 7359SOL    HW222506   0.088   3.390   5.737 -0.8756  0.5458  0.6258
 7360SOL     OW22507   0.981   3.161   3.150 -0.2171  0.0926 -0.0897
 7360SOL    HW122508   1.068   3.140   3.183 -0.3719  2.2402  1.9773
 7360SOL    HW222509   0.945   3.077   3.122  1.1594 -1.4795  2.4231
 7361SOL     OW22510   5.058   4.302   5.349  0.7485  0.4949 -0.2811
 7361SOL    HW122511   4.969   4.293   5.382  0.9241 -0.5447 -0.0619
 7361SOL    HW222512   5.107   4.232   5.393  1.5365  0.6650 -0.8708
 7362SOL     OW22513   0.221   0.514   0.453  0.5379 -0.1017  0.5073
 7362SOL    HW122514   0.190   0.604   0.464 -2.4607 -1.1327  1.5282
 7362SOL    HW222515   0.274   0.516   0.374 -0.3406  2.3510 -0.1023
 7363SOL     OW22516   4.870   1.679   0.150 -0.1702 -0.6282 -0.2777
 7363SOL    HW122517   4.834   1.658   0.235  0.8861 -3.5857 -0.4420
 7363SOL    HW222518   4.813   1.747   0.115  0.3507  2.0222  3.4076
 7364SOL     OW22519   1.244   4.178   5.243  0.4154  0.4407  0.5810
 7364SOL    HW122520   1.255   4.210   5.333 -1.7677  0.5248  0.8834
 7364SOL    HW222521   1.173   4.231   5.208 -0.8695 -1.6136 -0.1223
 7365SOL     OW22522   0.203   0.757   0.650  0.6711 -0.7483  0.3189
 7365SOL    HW122523   0.261   0.719   0.716 -0.9898 -1.3387  1.5306
 7365SOL    HW222524   0.127   0.787   0.700  0.0106  0.1840 -1.1689
 7366SOL     OW22525   0.141   1.685   5.339  0.1128 -0.6556  0.0261
 7366SOL    HW122526   0.085   1.684   5.416 -1.5856  0.1892 -1.1342
 7366SOL    HW222527   0.227   1.657   5.371 -0.0004  1.5537  2.6470
 7367SOL     OW22528   2.556   1.352   0.906  0.8278  0.1436  1.3160
 7367SOL    HW122529   2.554   1.388   0.818  0.0924  1.7108  1.9162
 7367SOL    HW222530   2.595   1.265   0.897 -1.0462 -0.5686 -0.8269
 7368SOL     OW22531   0.809   3.737   1.060 -0.1960 -0.0092 -1.0427
 7368SOL    HW122532   0.805   3.646   1.028 -0.0946 -0.5066  0.2952
 7368SOL    HW222533   0.779   3.731   1.151  2.8451  0.7657  0.1075
 7369SOL     OW22534   1.682   1.215   5.477 -0.5203 -0.4183 -0.3495
 7369SOL    HW122535   1.589   1.235   5.491 -0.1903  0.4510  0.6934
 7369SOL    HW222536   1.681   1.145   5.412 -1.9146 -0.5153 -0.2633
 7370SOL     OW22537   5.995   5.021   1.152  0.0619  0.0346  0.3122
 7370SOL    HW122538   6.070   4.971   1.121  0.7380  0.4044  1.2927
 7370SOL    HW222539   6.029   5.110   1.161 -0.3879  0.1337  1.0942
 7371SOL     OW22540   3.642   1.236   1.800 -0.2669  0.2822 -0.1801
 7371SOL    HW122541   3.654   1.330   1.787 -1.5829  0.6875  1.2195
 7371SOL    HW222542   3.729   1.203   1.819  0.4213  0.9674 -1.9320
 7372SOL     OW22543   0.405   5.371   5.210 -0.5135 -0.3704 -0.4322
 7372SOL    HW122544   0.401   5.357   5.305  2.3030  0.9533  0.0035
 7372SOL    HW222545   0.457   5.298   5.177  1.9677  1.2042 -0.2613
 7373SOL     OW22546   1.005   4.791   0.101  0.0264 -0.2383  0.0912
 7373SOL    HW122547   1.030   4.842   0.178  2.4270 -0.7257 -0.2772
 7373SOL    HW222548   1.063   4.822   0.031 -2.0707  0.1784 -1.5629
 7374SOL     OW22549   4.663   2.583   2.337 -0.3823 -1.0213 -0.2212
 7374SOL    HW122550   4.619   2.507   2.299  0.2810 -2.3896  1.6204
 7374SOL    HW222551   4.750   2.552   2.361  1.0442  1.1771 -2.1712
 7375SOL     OW22552   0.697   3.230   0.792  0.3686  0.0681 -0.1130
 7375SOL    HW122553   0.652   3.311   0.815  4.0972  1.7314  2.4497
 7375SOL    HW222554   0.663   3.165   0.854  0.2354  0.8027  0.6077
 7376SOL     OW22555   4.168   4.273   2.655 -0.0923 -0.4719  0.2486
 7376SOL    HW122556   4.219   4.198   2.624  0.1237  0.0717 -0.7729
 7376SOL    HW222557   4.079   4.254   2.627 -0.4685 -1.4073  2.0069
 7377SOL     OW22558   6.118   5.944   1.129 -0.7063  0.5229  0.3998
 7377SOL    HW122559   6.134   6.014   1.066  2.1185  1.1953  1.7193
 7377SOL    HW222560   6.171   5.871   1.097 -1.3594 -0.0483  0.5989
 7378SOL     OW22561   5.768   2.751   2.789 -0.2208  0.1779 -0.0701
 7378SOL    HW122562   5.711   2.736   2.864  1.3640  0.6425  1.2667
 7378SOL    HW222563   5.739   2.835   2.753 -0.5181  0.3098  0.4690
 7379SOL     OW22564   5.042   0.041   1.016  0.3509  0.1295 -0.1552
 7379SOL    HW122565   5.133   0.015   1.001  0.4917  1.2392 -1.3940
 7379SOL    HW222566   4.993  -0.004   0.947  0.4209  1.9637 -1.4700
 7380SOL     OW22567   2.702   5.953   2.105  0.5103 -0.1475 -0.3135
 7380SOL    HW122568   2.744   5.906   2.033  0.4420 -0.0089 -0.4437
 7380SOL    HW222569   2.684   6.040   2.070 -3.0412 -1.1804 -1.4913
 7381SOL     OW22570   0.089   1.068   3.750  0.1886 -0.1302  0.2430
 7381SOL    HW122571   0.118   0.981   3.724 -0.7883 -0.3987 -0.0131
 7381SOL    HW222572   0.027   1.052   3.821  0.3092  0.3861  0.4701
 7382SOL     OW22573   1.466   3.055   0.876 -0.3917  0.0320  0.2966
 7382SOL    HW122574   1.421   2.984   0.831 -2.0004 -0.0885  1.9665
 7382SOL    HW222575   1.430   3.135   0.837  0.7065 -0.0227 -0.9051
 7383SOL     OW22576   5.625   0.340   3.654  0.2120  0.3033 -0.7837
 7383SOL    HW122577   5.609   0.434   3.647 -0.3869  0.4755  1.8462
 7383SOL    HW222578   5.564   0.300   3.592  1.3448  1.6377 -2.8595
 7384SOL     OW22579   0.868   5.045   4.211  0.1364 -0.3590  0.2960
 7384SOL    HW122580   0.814   5.047   4.290 -2.4595  0.3064 -1.3342
 7384SOL    HW222581   0.804   5.044   4.139  2.3594 -0.7258 -1.8021
 7385SOL     OW22582   5.983   0.446   0.070 -0.1959 -0.5335 -0.3584
 7385SOL    HW122583   5.912   0.506   0.095  3.5537  4.6563 -0.3779
 7385SOL    HW222584   6.024   0.422   0.153 -1.3020 -2.7911 -0.4035
 7386SOL     OW22585   0.264   0.745   5.032 -0.2071  0.3858 -0.3823
 7386SOL    HW122586   0.220   0.802   4.969  0.6017  1.1176 -0.2965
 7386SOL    HW222587   0.346   0.790   5.053  0.1468 -0.4892  0.1892
 7387SOL     OW22588   0.793   5.556   5.343  0.0683 -0.2754 -0.1688
 7387SOL    HW122589   0.873   5.552   5.291  0.8792  0.9018  0.9379
 7387SOL    HW222590   0.723   5.559   5.278  1.0292  0.5985 -1.2052
 7388SOL     OW22591   1.667   5.450   4.570 -0.5679  0.3854  0.4842
 7388SOL    HW122592   1.654   5.436   4.477 -2.2970  2.9296  0.2498
 7388SOL    HW222593   1.762   5.461   4.579 -0.3903  0.2757 -0.9939
 7389SOL     OW22594   0.547   1.529   5.696 -0.7292  0.2452  0.1889
 7389SOL    HW122595   0.483   1.462   5.673  0.6117 -1.6771  1.7037
 7389SOL    HW222596   0.558   1.522   5.791  4.7100 -2.6627 -0.2462
 7390SOL     OW22597   6.222   1.377   3.851 -0.0293 -0.0394  0.2214
 7390SOL    HW122598   6.173   1.402   3.773  0.2501  1.1040  0.3884
 7390SOL    HW222599   6.166   1.314   3.897 -1.3326  1.1968  0.3853
 7391SOL     OW22600   5.234   5.760   4.063  0.7937 -0.1104 -0.0255
 7391SOL    HW122601   5.152   5.788   4.022  0.7681 -2.2976 -1.6706
 7391SOL    HW222602   5.211   5.744   4.154  0.0229  1.6330  0.1365
 7392SOL     OW22603   1.390   4.801   6.176 -0.4834  0.1605  0.6442
 7392SOL    HW122604   1.441   4.730   6.216  2.4844  2.4065  1.2456
 7392SOL    HW222605   1.367   4.768   6.089  0.3510 -1.7095  1.0795
 7393SOL     OW22606   2.263   1.931   5.050  0.0169 -0.3536  0.5064
 7393SOL    HW122607   2.199   1.860   5.056  0.9837 -1.3137 -0.2359
 7393SOL    HW222608   2.211   2.007   5.024 -0.8327 -1.1272 -0.1587
 7394SOL     OW22609   5.037   5.771   0.629 -0.2737  0.1562 -0.1310
 7394SOL    HW122610   4.964   5.812   0.674 -0.9545 -0.3454 -0.7682
 7394SOL    HW222611   5.021   5.677   0.638  0.1193  0.0452 -0.5554
 7395SOL     OW22612   3.925   4.176   2.559 -0.0794  0.2479  0.6569
 7395SOL    HW122613   3.836   4.200   2.584 -0.7420  0.4010 -1.6373
 7395SOL    HW222614   3.914   4.099   2.503  1.3009 -0.1986  0.9642
 7396SOL     OW22615   5.957   2.791   1.465 -0.7849  0.2096  0.2528
 7396SOL    HW122616   6.027   2.840   1.422 -1.7600  0.8977 -0.5961
 7396SOL    HW222617   5.912   2.857   1.519 -1.0901 -0.1162  0.4017
 7397SOL     OW22618   1.249   1.249   0.266  0.2507  0.0470 -0.1485
 7397SOL    HW122619   1.186   1.266   0.196  0.6105 -1.1704 -0.7893
 7397SOL    HW222620   1.203   1.273   0.347 -1.5506 -2.0814 -0.4778
 7398SOL     OW22621   2.083   3.619   0.038 -0.3964 -0.0524 -0.2420
 7398SOL    HW122622   2.148   3.677  -0.002  0.2138 -0.6646 -0.1530
 7398SOL    HW222623   2.001   3.641  -0.006 -0.2479  1.1446  0.0564
 7399SOL     OW22624   1.328   5.456   2.566 -0.1393 -0.5226  0.1612
 7399SOL    HW122625   1.354   5.514   2.637  0.1751  0.3473 -0.6448
 7399SOL    HW222626   1.408   5.408   2.544 -0.2405 -0.8037  0.3895
 7400SOL     OW22627   3.336   5.692   0.243  0.3562 -0.2791  0.4603
 7400SOL    HW122628   3.427   5.692   0.213  0.9102 -0.2322  2.0644
 7400SOL    HW222629   3.330   5.765   0.304 -0.6604 -0.5129  0.6674
 7401SOL     OW22630   4.616   0.135   5.487 -0.3235 -0.0890  0.0415
 7401SOL    HW122631   4.647   0.124   5.577 -2.1607 -1.1068  0.6031
 7401SOL    HW222632   4.526   0.102   5.488  0.2127 -2.0193 -2.6084
 7402SOL     OW22633   4.313   2.607   4.581  0.4155  0.4338  0.1444
 7402SOL    HW122634   4.378   2.653   4.528 -0.0272 -0.2509 -1.0445
 7402SOL    HW222635   4.298   2.664   4.656 -0.7102  2.6959 -1.6437
 7403SOL     OW22636   2.190   2.779   3.468 -0.1628  0.3757  0.1615
 7403SOL    HW122637   2.226   2.746   3.551 -0.1666 -0.1695 -0.0493
 7403SOL    HW222638   2.260   2.834   3.432  0.5492 -0.8089 -0.3210
 7404SOL     OW22639   3.258   2.567   4.069 -0.6198 -0.1658  0.1493
 7404SOL    HW122640   3.347   2.540   4.046 -1.5872 -3.2580 -0.4566
 7404SOL    HW222641   3.222   2.603   3.988  0.0329  1.0769  0.3920
 7405SOL     OW22642   1.705   4.470   2.118  0.0198  0.2637 -0.1250
 7405SOL    HW122643   1.727   4.395   2.172  3.4162  1.1426 -0.0659
 7405SOL    HW222644   1.624   4.504   2.155  0.5602 -0.9979  2.3887
 7406SOL     OW22645   0.764   0.782   3.507  0.1587 -0.2680 -0.1549
 7406SOL    HW122646   0.808   0.728   3.573  0.4338 -0.6317 -0.6350
 7406SOL    HW222647   0.812   0.864   3.507  1.1524 -0.8386 -1.0236
 7407SOL     OW22648   1.266   1.374   2.365  0.0356  0.3108  0.0303
 7407SOL    HW122649   1.333   1.305   2.365  0.2713  0.5003 -1.5096
 7407SOL    HW222650   1.314   1.455   2.381  0.1227  0.3921 -0.6128
 7408SOL     OW22651   5.491   0.242   3.029  0.2122 -0.0423  0.3015
 7408SOL    HW122652   5.428   0.238   2.957  0.6305  0.6446 -0.1198
 7408SOL    HW222653   5.471   0.166   3.083 -0.4687 -0.2638 -0.2440
 7409SOL     OW22654   3.043   1.676   2.697  0.1744 -0.3408 -0.2694
 7409SOL    HW122655   3.004   1.761   2.714 -0.6151 -0.9097  0.8683
 7409SOL    HW222656   3.113   1.668   2.761  0.3989 -0.4653 -0.5253
 7410SOL     OW22657   3.243   3.494   0.020  0.1074 -0.0560 -0.2262
 7410SOL    HW122658   3.168   3.462  -0.031  0.2490  0.1595 -0.5714
 7410SOL    HW222659   3.306   3.522  -0.046  0.3441  0.1083  0.0707
 7411SOL     OW22660   1.902   6.121   0.785 -0.2602 -0.1307  0.0516
 7411SOL    HW122661   1.942   6.148   0.867 -0.3924  0.5011 -0.0898
 7411SOL    HW222662   1.809   6.110   0.806 -0.1692 -0.7056  0.1635
 7412SOL     OW22663   3.816   3.623   5.254  0.6092 -0.1821  0.6635
 7412SOL    HW122664   3.877   3.658   5.189  0.7668 -1.5427  0.0553
 7412SOL    HW222665   3.869   3.611   5.333  0.3372  1.8143  1.2079
 7413SOL     OW22666   5.278   1.508   5.860  0.2943  0.5277  0.1377
 7413SOL    HW122667   5.335   1.525   5.785 -0.4336  1.5953 -0.1904
 7413SOL    HW222668   5.193   1.485   5.821  0.0393  0.6235  0.6257
 7414SOL     OW22669   1.505   1.677   3.647  0.2791 -0.1148 -0.1940
 7414SOL    HW122670   1.583   1.628   3.672 -0.6017 -2.4269 -1.6773
 7414SOL    HW222671   1.535   1.768   3.640  2.2949 -0.5776  1.3901
 7415SOL     OW22672   3.169   5.324   1.742 -0.3667 -0.1794  0.3970
 7415SOL    HW122673   3.238   5.260   1.725 -0.1494 -0.1700  1.1881
 7415SOL    HW222674   3.096   5.271   1.774 -0.1457 -0.0316  1.1689
 7416SOL     OW22675   2.503   1.855   3.467  0.3168  0.1546  0.0567
 7416SOL    HW122676   2.426   1.799   3.462 -0.4270  1.1255  0.2626
 7416SOL    HW222677   2.570   1.802   3.510 -0.2770 -0.6603 -0.0172
 7417SOL     OW22678   2.096   0.275   2.395  0.1228 -0.4287  0.1716
 7417SOL    HW122679   2.020   0.311   2.350  0.5182  0.2095 -0.0180
 7417SOL    HW222680   2.075   0.283   2.488  0.0334 -0.0632  0.1245
 7418SOL     OW22681   4.695   3.267   2.099  0.2142 -0.5554 -0.0388
 7418SOL    HW122682   4.687   3.186   2.148 -0.3723 -0.5161 -0.0574
 7418SOL    HW222683   4.613   3.314   2.116  1.0599  0.6119  0.9866
 7419SOL     OW22684   0.650   4.704   5.547 -0.1469  0.3337 -0.0100
 7419SOL    HW122685   0.566   4.675   5.582 -0.1095  0.3068  0.0563
 7419SOL    HW222686   0.713   4.687   5.617 -0.1540  0.7359  0.0971
 7420SOL     OW22687   1.368   5.651   5.510  0.8131 -0.7789 -0.5234
 7420SOL    HW122688   1.322   5.664   5.427 -0.9651 -3.4067 -0.0946
 7420SOL    HW222689   1.443   5.595   5.487  2.2642  1.1451 -0.7648
 7421SOL     OW22690   3.403   2.449   4.614  0.5098 -0.5088  0.4353
 7421SOL    HW122691   3.459   2.376   4.587  0.1582 -1.1025  1.2971
 7421SOL    HW222692   3.345   2.464   4.538  1.7794  0.1065 -0.4643
 7422SOL     OW22693   2.677   1.851   2.548 -0.0714  0.3684 -0.0799
 7422SOL    HW122694   2.662   1.815   2.635  1.1961 -2.1289 -0.7735
 7422SOL    HW222695   2.602   1.819   2.497  0.6117 -0.6523 -0.4951
 7423SOL     OW22696   0.443   1.119   3.546  0.2411 -0.0641 -0.1579
 7423SOL    HW122697   0.389   1.157   3.476  1.3826  1.5948 -0.1893
 7423SOL    HW222698   0.525   1.096   3.503  0.5083 -0.1764  0.4045
 7424SOL     OW22699   2.601   3.240   4.600  0.8954  0.3366  0.0893
 7424SOL    HW122700   2.529   3.276   4.548 -0.3781 -0.8520  0.9554
 7424SOL    HW222701   2.613   3.302   4.672  2.0474  1.5083 -1.0530
 7425SOL     OW22702   5.361   4.158   0.359  0.1105 -0.4868  0.5031
 7425SOL    HW122703   5.278   4.110   0.351 -0.2525  0.2715 -0.5037
 7425SOL    HW222704   5.409   4.135   0.279 -0.4096  1.4007 -0.4052
 7426SOL     OW22705   0.368   5.832   0.022  0.4788 -0.5563  0.0502
 7426SOL    HW122706   0.302   5.846   0.091  1.8897  0.9345  1.1635
 7426SOL    HW222707   0.330   5.764  -0.033 -1.3879 -0.7204  1.4303
 7427SOL     OW22708   3.222   1.414   1.930 -0.0018  0.0444 -0.1803
 7427SOL    HW122709   3.169   1.413   1.850  0.7717  0.3252 -0.7082
 7427SOL    HW222710   3.161   1.393   2.000 -1.0389  1.3436 -0.6453
 7428SOL     OW22711   4.891   2.031   1.227 -0.1522 -0.9794 -0.5544
 7428SOL    HW122712   4.830   2.000   1.295  0.7984 -0.3206  0.6327
 7428SOL    HW222713   4.965   1.970   1.232  0.3206 -0.3937 -0.3765
 7429SOL     OW22714   4.033   3.386   5.624  0.1033 -0.1625  0.5198
 7429SOL    HW122715   4.080   3.397   5.541  0.0234  0.4095  0.5435
 7429SOL    HW222716   4.096   3.341   5.681  0.6765  0.6892  0.5846
 7430SOL     OW22717   1.852   4.404   3.634  0.1245  0.0337 -0.0419
 7430SOL    HW122718   1.901   4.461   3.693 -0.2245 -0.7320  1.0214
 7430SOL    HW222719   1.902   4.405   3.552  0.6098  1.1293  0.2565
 7431SOL     OW22720   1.170   6.071   0.072  0.4142 -0.1944 -0.2265
 7431SOL    HW122721   1.140   6.005   0.135 -1.2141  1.8292  1.2440
 7431SOL    HW222722   1.111   6.061  -0.003  0.3026 -0.5301 -0.0957
 7432SOL     OW22723   0.454   6.074   4.723  0.0791 -0.2135 -0.3575
 7432SOL    HW122724   0.460   6.050   4.631 -2.0156 -1.9012 -0.1113
 7432SOL    HW222725   0.527   6.027   4.765  0.3854 -0.2879 -0.9645
 7433SOL     OW22726   4.047   4.170   3.392 -0.3151  0.2809  0.4912
 7433SOL    HW122727   4.033   4.087   3.347 -1.7896 -1.1083  3.2377
 7433SOL    HW222728   4.129   4.157   3.440 -0.0655  0.7951  0.2130
 7434SOL     OW22729   3.245   4.036   1.701  0.0641 -0.1431 -0.2782
 7434SOL    HW122730   3.202   3.992   1.774  1.4413  0.8974  1.2440
 7434SOL    HW222731   3.292   3.967   1.655 -0.6584 -0.7858 -0.0665
 7435SOL     OW22732   3.009   0.804   0.602 -0.4881 -0.0075 -0.1634
 7435SOL    HW122733   3.015   0.709   0.604 -0.1426  0.0176  0.3667
 7435SOL    HW222734   3.046   0.829   0.517  1.0691 -0.2624  0.3923
 7436SOL     OW22735   0.957   3.104   2.334  0.4981 -0.1373 -0.3992
 7436SOL    HW122736   1.006   3.062   2.264 -1.0089  0.4255 -1.8532
 7436SOL    HW222737   0.954   3.196   2.310  2.1716  0.5997  1.8001
 7437SOL     OW22738   3.637   3.741   0.770  0.2218  0.0719 -0.5431
 7437SOL    HW122739   3.562   3.762   0.826 -0.4225  0.0231 -1.3832
 7437SOL    HW222740   3.713   3.775   0.818 -0.4482  1.1210 -0.2144
 7438SOL     OW22741   5.234   3.552   0.147 -0.3639 -0.1826  0.0499
 7438SOL    HW122742   5.274   3.586   0.067  0.0386  1.8060  1.0365
 7438SOL    HW222743   5.289   3.478   0.172 -0.1817 -0.4907 -1.1895
 7439SOL     OW22744   3.930   2.943   2.173 -0.1247  0.1344  0.3882
 7439SOL    HW122745   3.914   2.858   2.214 -1.8459  0.9929  1.6110
 7439SOL    HW222746   4.010   2.975   2.215  0.2099 -0.6391  0.3447
 7440SOL     OW22747   4.135   4.511   4.336  0.3257  0.4473 -0.7095
 7440SOL    HW122748   4.158   4.579   4.272  0.8039  0.1700 -0.8408
 7440SOL    HW222749   4.093   4.558   4.407 -1.0510  0.6579 -1.6301
 7441SOL     OW22750   1.823   4.554   1.325 -0.1973  0.8535  0.6761
 7441SOL    HW122751   1.775   4.591   1.399 -0.3979 -0.2349  1.1200
 7441SOL    HW222752   1.858   4.471   1.359 -0.5787  0.1778 -0.5299
 7442SOL     OW22753   0.570   2.402   2.243  0.1177  0.2959 -0.3402
 7442SOL    HW122754   0.583   2.495   2.260 -0.0466  0.4816 -1.1959
 7442SOL    HW222755   0.508   2.399   2.170 -1.0623 -0.4970  0.6327
 7443SOL     OW22756   3.763   0.869   0.148  0.3645 -0.4753 -0.8806
 7443SOL    HW122757   3.682   0.834   0.185  0.2302 -0.5997 -1.2815
 7443SOL    HW222758   3.797   0.798   0.094  0.9893 -0.5880 -0.3404
 7444SOL     OW22759   5.440   3.124   1.982 -0.0551  0.0498  0.1968
 7444SOL    HW122760   5.452   3.182   1.907  0.5059 -0.5386 -0.1789
 7444SOL    HW222761   5.356   3.082   1.968 -0.9213  1.4493  0.9515
 7445SOL     OW22762   1.167   0.926   2.886  0.1222  0.3869  0.2363
 7445SOL    HW122763   1.085   0.885   2.912  0.0537 -0.2607 -0.9753
 7445SOL    HW222764   1.149   0.968   2.802  1.1774 -0.3108 -0.3688
 7446SOL     OW22765   4.398   5.320   6.033  0.3683 -0.1691  0.0757
 7446SOL    HW122766   4.402   5.326   6.129  0.1687  0.4021  0.0510
 7446SOL    HW222767   4.307   5.299   6.014  0.6323 -1.3631  0.0561
 7447SOL     OW22768   0.066   6.110   4.341 -0.2163 -0.2947  0.4383
 7447SOL    HW122769   0.056   6.124   4.247  1.2916 -1.3043  0.0885
 7447SOL    HW222770   0.121   6.033   4.348 -2.8688 -2.2129  2.1882
 7448SOL     OW22771   3.020   4.820   0.895 -0.4393 -0.1544  0.1282
 7448SOL    HW122772   3.073   4.842   0.818  0.5707  0.7109  1.0341
 7448SOL    HW222773   2.999   4.728   0.884  1.6552 -0.6562 -0.0603
 7449SOL     OW22774   0.091   5.395   2.552  0.0803 -0.3767 -0.3591
 7449SOL    HW122775   0.072   5.412   2.644  1.0711  0.0026 -0.2131
 7449SOL    HW222776   0.184   5.414   2.543  0.4486 -2.2201 -1.0185
 7450SOL     OW22777   5.554   5.362   1.454  0.3144  0.4549 -0.1020
 7450SOL    HW122778   5.476   5.312   1.477  0.4075 -0.2962 -1.3137
 7450SOL    HW222779   5.606   5.364   1.535  0.1450 -1.1276  0.0850
 7451SOL     OW22780   1.200   3.860   1.282 -0.3277  0.1757 -0.1818
 7451SOL    HW122781   1.262   3.793   1.309 -0.5141  0.3335  0.6638
 7451SOL    HW222782   1.169   3.831   1.196 -1.2655 -1.4245  0.6463
 7452SOL     OW22783   2.594   1.259   3.988 -0.3838  0.0190 -0.0190
 7452SOL    HW122784   2.640   1.342   3.997 -1.2127  0.3435  1.5109
 7452SOL    HW222785   2.520   1.278   3.930  0.7316 -0.2430 -1.5788
 7453SOL     OW22786   3.788   2.635   5.737  0.0447  0.8828  0.7497
 7453SOL    HW122787   3.882   2.618   5.735 -0.4066 -2.0866 -0.9265
 7453SOL    HW222788   3.774   2.706   5.674  1.0870  1.1011  0.7523
 7454SOL     OW22789   5.195   1.762   5.975  0.2123 -0.1833 -0.2380
 7454SOL    HW122790   5.208   1.794   6.065 -1.1749  0.8940 -0.4026
 7454SOL    HW222791   5.251   1.684   5.970  2.7541  1.4365  0.5789
 7455SOL     OW22792   2.542   5.468   4.232  0.9354  0.2358 -0.0872
 7455SOL    HW122793   2.630   5.475   4.197  0.9639  0.1138 -0.0385
 7455SOL    HW222794   2.485   5.480   4.156  0.9953  0.1756 -0.1413
 7456SOL     OW22795   3.305   0.296   2.948 -0.4586  0.3137  0.3136
 7456SOL    HW122796   3.289   0.253   2.864  1.1463  2.4898 -1.2167
 7456SOL    HW222797   3.362   0.236   2.995 -0.8421 -0.6480 -0.4062
 7457SOL     OW22798   2.272   4.382   0.788  0.2665  0.1464 -0.1136
 7457SOL    HW122799   2.238   4.450   0.846 -0.6860  0.5902 -1.1476
 7457SOL    HW222800   2.358   4.415   0.761 -0.0755  0.8353 -0.4037
 7458SOL     OW22801   2.202   5.628   0.835  0.4730 -0.0012 -0.0203
 7458SOL    HW122802   2.274   5.638   0.773  1.1985  0.0339  0.8104
 7458SOL    HW222803   2.243   5.634   0.921 -0.0962 -2.6942  0.5337
 7459SOL     OW22804   1.781   0.531   0.806  0.3466 -0.0306 -0.6592
 7459SOL    HW122805   1.690   0.550   0.782  1.1310  0.9710 -3.0867
 7459SOL    HW222806   1.812   0.611   0.848 -0.1252 -0.7320  1.1402
 7460SOL     OW22807   4.691   2.841   3.122  0.4055  0.1098 -0.1316
 7460SOL    HW122808   4.668   2.934   3.129 -1.9221 -0.3916 -0.2603
 7460SOL    HW222809   4.672   2.819   3.031 -1.3232 -1.0005  0.4634
 7461SOL     OW22810   0.463   4.011   5.125  0.4421 -0.5007  0.0883
 7461SOL    HW122811   0.542   3.961   5.107  0.3980 -0.9169  1.0165
 7461SOL    HW222812   0.464   4.082   5.060  1.7891 -0.2554  0.3594
 7462SOL     OW22813   1.827   3.612   1.811 -0.5731  0.2020 -0.3569
 7462SOL    HW122814   1.829   3.693   1.863 -1.9820  0.6590 -0.9576
 7462SOL    HW222815   1.844   3.542   1.873  1.8895  1.0041 -0.0113
 7463SOL     OW22816   4.493   3.869   4.164 -0.1458  0.2275  0.1250
 7463SOL    HW122817   4.512   3.961   4.184 -1.9762  1.1917 -2.1039
 7463SOL    HW222818   4.398   3.862   4.174 -0.2495 -0.9622 -1.3631
 7464SOL     OW22819   0.543   3.463   0.037 -0.6195 -0.1492  0.0546
 7464SOL    HW122820   0.555   3.458  -0.058  1.1718 -0.0885  0.2488
 7464SOL    HW222821   0.576   3.550   0.061 -0.6226 -0.3415  0.7960
 7465SOL     OW22822   3.469   3.525   0.674 -0.1812 -1.1622  0.9358
 7465SOL    HW122823   3.495   3.611   0.707 -0.0246 -1.2837  1.1308
 7465SOL    HW222824   3.378   3.537   0.647  0.7455 -0.0311 -2.1444
 7466SOL     OW22825   4.309   4.982   1.076  0.0733  0.3267  0.2298
 7466SOL    HW122826   4.343   4.924   1.008 -0.6738  0.3426 -0.1653
 7466SOL    HW222827   4.215   4.987   1.059  0.1841  2.0391 -0.0305
 7467SOL     OW22828   5.482   1.000   3.000  0.2064  0.1476 -0.1945
 7467SOL    HW122829   5.442   0.946   2.932  1.0160  1.0456 -1.4243
 7467SOL    HW222830   5.515   0.938   3.065 -1.3089 -0.6934 -0.1704
 7468SOL     OW22831   5.514   3.632   4.688  0.1082  0.0323 -0.1952
 7468SOL    HW122832   5.538   3.584   4.609  0.5301 -0.1889  0.0636
 7468SOL    HW222833   5.524   3.569   4.759 -1.5947 -0.1850 -0.0935
 7469SOL     OW22834   6.004   1.087   2.086  0.2040 -0.3733 -0.6384
 7469SOL    HW122835   5.948   1.020   2.125  1.9457 -1.8222 -0.4966
 7469SOL    HW222836   5.983   1.167   2.134 -0.1317 -1.3782  0.9693
 7470SOL     OW22837   3.191   1.312   0.774  0.1775  0.4324  0.3238
 7470SOL    HW122838   3.279   1.304   0.737  1.0269  1.0514  2.0886
 7470SOL    HW222839   3.141   1.242   0.732  1.2850  0.5370 -1.2768
 7471SOL     OW22840   0.424   1.977   2.779  0.6743  0.0934  0.2307
 7471SOL    HW122841   0.426   2.073   2.783 -0.4091  0.1280  0.4169
 7471SOL    HW222842   0.394   1.957   2.691 -1.6642  0.0210  0.9796
 7472SOL     OW22843   3.110   6.170   6.185 -0.0907 -0.6196  0.0817
 7472SOL    HW122844   3.161   6.181   6.265  0.5799  0.6517 -0.4932
 7472SOL    HW222845   3.168   6.199   6.115 -1.0852 -0.5434 -0.7394
 7473SOL     OW22846   2.461   5.974   3.093  0.0369 -0.1418  0.1293
 7473SOL    HW122847   2.377   5.964   3.049  0.4382 -1.9470 -0.3030
 7473SOL    HW222848   2.456   5.915   3.168  1.1731 -0.8347 -0.3217
 7474SOL     OW22849   1.194   2.519   0.679  0.6655  0.0005 -0.1778
 7474SOL    HW122850   1.178   2.492   0.589  1.4691  1.2429 -0.7253
 7474SOL    HW222851   1.112   2.501   0.724 -0.7195  1.8021 -1.7840
 7475SOL     OW22852   2.674   1.724   4.440 -0.0694  0.2508  0.6021
 7475SOL    HW122853   2.688   1.726   4.345 -2.0660 -0.2189  0.2484
 7475SOL    HW222854   2.750   1.770   4.476  0.2724  1.2841 -1.2759
 7476SOL     OW22855   0.613   4.625   0.015 -0.7891  0.0840  0.0246
 7476SOL    HW122856   0.707   4.615  -0.004 -0.1258  1.5292  2.1861
 7476SOL    HW222857   0.595   4.559   0.081 -1.0265  0.5217  0.3980
 7477SOL     OW22858   0.076   4.359   4.091  0.3180  0.3328  0.1021
 7477SOL    HW122859   0.057   4.336   4.000  0.2228 -1.2593  0.5082
 7477SOL    HW222860   0.071   4.455   4.092 -2.6298  0.3032 -0.9517
 7478SOL     OW22861   0.267   1.850   4.782  0.2056  0.3206  0.0691
 7478SOL    HW122862   0.227   1.934   4.804 -0.0609  0.5714 -1.3111
 7478SOL    HW222863   0.193   1.794   4.757  0.5160  0.1660 -0.5306
 7479SOL     OW22864   0.914   0.970   1.837 -0.1424 -0.7899  0.2165
 7479SOL    HW122865   0.883   0.948   1.749  0.6486 -0.7694 -0.0757
 7479SOL    HW222866   1.000   0.928   1.843 -0.4672 -1.3293  1.2221
 7480SOL     OW22867   2.800   0.237   5.417 -0.0548 -0.2213 -0.4757
 7480SOL    HW122868   2.793   0.169   5.349  1.0687  0.0256 -0.8708
 7480SOL    HW222869   2.713   0.275   5.423 -0.9978 -2.3770  0.4758
 7481SOL     OW22870   0.524   5.600   0.030 -0.2846  0.0988 -0.0063
 7481SOL    HW122871   0.530   5.689   0.065  0.0363  0.3595 -0.7020
 7481SOL    HW222872   0.613   5.566   0.034 -0.6058 -0.6781  1.4466
 7482SOL     OW22873   3.921   0.170   3.002 -0.0288 -0.6291 -0.0234
 7482SOL    HW122874   3.991   0.181   3.066 -0.3915  0.5208  0.1900
 7482SOL    HW222875   3.965   0.138   2.923  0.6741 -0.3332  0.2462
 7483SOL     OW22876   0.401   3.076   5.800 -0.2890  0.0257 -0.0638
 7483SOL    HW122877   0.310   3.083   5.828 -0.4174 -1.3542 -0.0392
 7483SOL    HW222878   0.452   3.098   5.878 -0.5171  2.7059 -0.5631
 7484SOL     OW22879   1.219   5.337   0.562 -0.7048  0.0624 -0.7369
 7484SOL    HW122880   1.204   5.244   0.583 -0.0787 -0.2843 -1.7600
 7484SOL    HW222881   1.248   5.375   0.645 -2.9650 -0.1657  0.2402
 7485SOL     OW22882   3.692   1.804   1.680  0.0110 -0.2663  0.0845
 7485SOL    HW122883   3.745   1.883   1.695 -0.9425  0.7748 -1.6767
 7485SOL    HW222884   3.752   1.743   1.637  0.5692 -0.2522  0.8248
 7486SOL     OW22885   3.572   1.709   3.716  0.3603  0.1982 -0.1099
 7486SOL    HW122886   3.663   1.737   3.711  0.1829  0.8578  0.3691
 7486SOL    HW222887   3.523   1.787   3.740 -0.1707 -0.4575  1.0117
 7487SOL     OW22888   2.098   6.212   3.444  0.3580 -0.1524  0.1039
 7487SOL    HW122889   2.009   6.183   3.429 -0.3102  0.4152  2.5161
 7487SOL    HW222890   2.152   6.158   3.386 -1.3784 -1.6988 -0.1416
 7488SOL     OW22891   2.608   0.488   3.073  0.6648 -0.0282  1.1409
 7488SOL    HW122892   2.514   0.471   3.079  0.9433 -2.5363 -0.2709
 7488SOL    HW222893   2.634   0.511   3.162 -1.5495  2.6855  1.2205
 7489SOL     OW22894   2.934   2.186   2.664  0.2108  0.1817  0.5894
 7489SOL    HW122895   2.877   2.208   2.738 -1.5444 -1.4516 -0.2010
 7489SOL    HW222896   2.981   2.267   2.645 -1.7618  1.5725  1.3667
 7490SOL     OW22897   3.946   4.140   0.660 -0.1593  0.0327  0.3259
 7490SOL    HW122898   3.868   4.168   0.611  0.7772  2.1802 -0.0820
 7490SOL    HW222899   3.969   4.217   0.712  1.6905 -0.5538  0.4329
 7491SOL     OW22900   4.819   1.658   0.423  0.2164  0.0059  0.0693
 7491SOL    HW122901   4.764   1.666   0.501  0.1688 -0.5888  0.1046
 7491SOL    HW222902   4.883   1.590   0.446  2.0232  1.7823  0.6415
 7492SOL     OW22903   3.092   4.618   4.224 -0.1736  0.3179 -0.2667
 7492SOL    HW122904   3.128   4.698   4.263 -0.0088  0.4749 -0.7329
 7492SOL    HW222905   3.168   4.575   4.185  0.0328 -0.8767  1.3468
 7493SOL     OW22906   5.533   2.296   1.327 -0.2591  0.2324 -0.3182
 7493SOL    HW122907   5.556   2.305   1.419  0.4892 -0.7533 -0.3977
 7493SOL    HW222908   5.589   2.226   1.294 -1.4414 -0.3450 -1.2038
 7494SOL     OW22909   0.900   5.678   4.014 -0.2386 -0.6808 -0.4478
 7494SOL    HW122910   0.849   5.636   3.944 -0.7087 -0.4908 -0.2210
 7494SOL    HW222911   0.977   5.622   4.023 -0.2966 -0.8513 -0.9443
 7495SOL     OW22912   5.563   4.082   5.786  0.0240 -0.0784  0.0707
 7495SOL    HW122913   5.639   4.112   5.738 -0.1192  1.9861  1.0224
 7495SOL    HW222914   5.511   4.033   5.722 -0.4802  3.0548 -2.1715
 7496SOL     OW22915   2.998   2.442   1.366  0.2345 -0.4539  0.0355
 7496SOL    HW122916   3.036   2.518   1.321 -0.8886 -0.5208 -1.0688
 7496SOL    HW222917   2.988   2.471   1.457 -0.4350  0.8301 -0.4231
 7497SOL     OW22918   6.179   3.538   2.049  0.3585 -0.0903 -0.6798
 7497SOL    HW122919   6.099   3.551   2.100  0.0372  0.1221 -1.2299
 7497SOL    HW222920   6.243   3.596   2.089  0.3712 -0.5917  0.0451
 7498SOL     OW22921   4.322   0.037   3.580 -0.3976  0.1003  0.4020
 7498SOL    HW122922   4.232   0.014   3.555  0.1121 -1.6968  0.1006
 7498SOL    HW222923   4.337  -0.011   3.661  0.5735 -0.3380 -0.0227
 7499SOL     OW22924   2.580   3.536   6.137 -0.4510  0.2459  0.0198
 7499SOL    HW122925   2.656   3.574   6.093  1.1090 -0.8835  1.6267
 7499SOL    HW222926   2.541   3.477   6.071 -1.8636  3.0512 -1.8861
 7500SOL     OW22927   0.134   2.296   2.268  0.3539 -0.3521  0.0116
 7500SOL    HW122928   0.096   2.208   2.257 -1.3377  0.1434  1.3978
 7500SOL    HW222929   0.089   2.331   2.345  1.9440  1.2530  0.2509
 7501SOL     OW22930   1.244   3.645   0.263  0.3264  0.2521 -0.0241
 7501SOL    HW122931   1.244   3.674   0.354 -0.9259  0.6701 -0.1322
 7501SOL    HW222932   1.334   3.616   0.246  0.5366  0.0396  1.3755
 7502SOL     OW22933   4.179   2.433   4.418  0.1954  0.2238  0.2685
 7502SOL    HW122934   4.235   2.490   4.470  0.9027  0.1323 -0.3860
 7502SOL    HW222935   4.239   2.380   4.366 -0.4816 -0.2512 -0.0498
 7503SOL     OW22936   0.577   1.171   2.727  0.3661  0.3253  0.4680
 7503SOL    HW122937   0.573   1.078   2.752  0.1550  0.2070  0.0086
 7503SOL    HW222938   0.621   1.213   2.800 -1.4415  0.2137  1.6778
 7504SOL     OW22939   4.903   3.078   3.349 -0.2511 -0.5345 -0.1053
 7504SOL    HW122940   4.909   2.988   3.315 -0.0077 -0.0170 -1.4963
 7504SOL    HW222941   4.992   3.113   3.338  0.1723 -0.6777  2.1765
 7505SOL     OW22942   5.500   1.401   0.940 -0.0653 -0.1050  0.3163
 7505SOL    HW122943   5.565   1.422   0.873 -0.5832 -0.4999 -0.3229
 7505SOL    HW222944   5.436   1.347   0.895  0.1644 -1.3480  1.4062
 7506SOL     OW22945   3.973   3.496   3.985  0.6143  0.1525 -0.3329
 7506SOL    HW122946   4.065   3.480   4.005  0.2000 -0.9885  0.7642
 7506SOL    HW222947   3.931   3.411   3.993 -0.5389  0.6398 -0.8891
 7507SOL     OW22948   2.393   2.881   1.327 -0.0695 -0.2710 -0.2129
 7507SOL    HW122949   2.323   2.944   1.310 -0.7760 -0.6360  1.1812
 7507SOL    HW222950   2.469   2.916   1.279 -0.8949  0.7313 -0.8300
 7508SOL     OW22951   5.480   4.547   5.536  0.8010  0.4483 -0.3295
 7508SOL    HW122952   5.494   4.516   5.446  3.1354 -2.9521  0.9872
 7508SOL    HW222953   5.569   4.559   5.570 -0.0358  1.6195  1.5510
 7509SOL     OW22954   0.697   2.211   1.337  0.0363 -0.3390 -0.0911
 7509SOL    HW122955   0.647   2.161   1.272 -0.5851  1.1979 -0.8408
 7509SOL    HW222956   0.762   2.149   1.369 -0.2495 -1.4260 -1.4965
 7510SOL     OW22957   1.049   3.163   2.749 -0.0564 -0.2912  0.5115
 7510SOL    HW122958   1.111   3.204   2.808 -1.7533  0.6849  1.7119
 7510SOL    HW222959   0.986   3.232   2.729 -1.1624 -1.4246 -0.0772
 7511SOL     OW22960   3.055   2.651   5.484 -0.0371 -0.3065 -0.5539
 7511SOL    HW122961   3.055   2.652   5.580 -1.0006  1.6972 -0.5255
 7511SOL    HW222962   3.142   2.680   5.460  0.3454 -1.2131 -0.3096
 7512SOL     OW22963   1.541   3.594   0.160  0.0300 -0.4386 -0.0646
 7512SOL    HW122964   1.550   3.520   0.219 -1.0289 -0.2884  0.3019
 7512SOL    HW222965   1.592   3.664   0.201 -1.1542 -0.1574  1.0099
 7513SOL     OW22966   1.337   0.500   1.945 -0.1015  0.8665 -0.5851
 7513SOL    HW122967   1.251   0.539   1.961 -0.5062  0.9547 -2.6583
 7513SOL    HW222968   1.399   0.569   1.970 -0.6171  0.8818  0.7264
 7514SOL     OW22969   1.925   1.664   3.601 -0.1799 -0.3403 -0.1413
 7514SOL    HW122970   1.977   1.622   3.669 -0.1402  0.6919  0.4842
 7514SOL    HW222971   1.984   1.668   3.525  0.3235 -0.0583  0.2582
 7515SOL     OW22972   6.087   0.344   1.704 -0.0429 -0.5999  0.1560
 7515SOL    HW122973   6.122   0.337   1.793  0.6595 -0.6887 -0.1274
 7515SOL    HW222974   6.026   0.417   1.709 -0.0165 -0.6053  0.7114
 7516SOL     OW22975   5.107   0.321   5.643  0.0517  0.8723 -0.2164
 7516SOL    HW122976   5.198   0.291   5.635 -1.0533 -3.0560  0.2704
 7516SOL    HW222977   5.090   0.322   5.737 -0.5912  0.9433 -0.3289
 7517SOL     OW22978   0.200   2.447   3.640 -0.9676 -0.3554 -0.6033
 7517SOL    HW122979   0.124   2.469   3.586 -1.1364 -0.7081 -0.5105
 7517SOL    HW222980   0.253   2.527   3.639 -0.4520 -0.6836 -2.1463
 7518SOL     OW22981   4.364   2.801   3.571  0.7398  0.0688  0.2507
 7518SOL    HW122982   4.398   2.869   3.628  2.1737  1.6344 -2.2622
 7518SOL    HW222983   4.401   2.821   3.485  1.0298 -3.7639 -0.7014
 7519SOL     OW22984   0.345   3.431   1.106 -0.2492  0.1567  0.2993
 7519SOL    HW122985   0.250   3.435   1.109 -0.2315  0.3409  2.7155
 7519SOL    HW222986   0.374   3.514   1.144  0.8468 -0.4281  0.8011
 7520SOL     OW22987   5.140   2.142   4.649  0.5515 -0.3583  0.0492
 7520SOL    HW122988   5.109   2.051   4.642  1.9418 -0.9440  1.0260
 7520SOL    HW222989   5.233   2.137   4.629  0.6264  0.8876  0.0092
 7521SOL     OW22990   3.279   3.143   3.032  0.0025  0.3925 -0.1919
 7521SOL    HW122991   3.248   3.194   2.957 -0.2555  0.3181 -0.1344
 7521SOL    HW222992   3.232   3.061   3.027  2.7954 -1.2579 -2.2169
 7522SOL     OW22993   4.912   3.337   1.286 -0.7025  0.6322 -0.1371
 7522SOL    HW122994   4.878   3.250   1.265  0.0219  0.2903  0.0728
 7522SOL    HW222995   4.840   3.380   1.331 -0.8823 -0.0659  0.2691
 7523SOL     OW22996   0.592   3.350   4.415  0.0009 -0.2355  0.3446
 7523SOL    HW122997   0.547   3.422   4.458  1.9762  1.8590 -0.8586
 7523SOL    HW222998   0.522   3.296   4.378 -1.5858  0.1602  2.6055
 7524SOL     OW22999   3.894   5.545   3.959  0.1977 -0.4301 -0.0107
 7524SOL    HW123000   3.842   5.477   3.916 -1.2949  0.4094  0.3769
 7524SOL    HW223001   3.864   5.544   4.050  1.0005 -0.0370  0.2671
 7525SOL     OW23002   4.064   5.007   5.355 -0.3427  0.3698 -0.0378
 7525SOL    HW123003   3.981   4.960   5.352  0.6341 -1.4437  0.3510
 7525SOL    HW223004   4.113   4.975   5.279  0.1974  1.0677  0.0018
 7526SOL     OW23005   5.601   6.090   0.941  0.4752 -0.3992 -0.2511
 7526SOL    HW123006   5.678   6.084   0.997  0.6679  0.9372 -0.3445
 7526SOL    HW223007   5.636   6.113   0.855  0.1200 -1.7182 -0.7670
 7527SOL     OW23008   5.406   2.320   2.505 -0.1224 -1.0043  0.3511
 7527SOL    HW123009   5.364   2.399   2.540  0.6955 -0.8183  0.9415
 7527SOL    HW223010   5.336   2.274   2.458 -0.7174 -0.1621  0.3956
 7528SOL     OW23011   2.351   0.132   2.469 -0.2883 -0.0447 -0.2239
 7528SOL    HW123012   2.337   0.185   2.548 -0.1790  1.6575 -1.3091
 7528SOL    HW223013   2.284   0.161   2.408  1.5477  0.9157 -1.8640
 7529SOL     OW23014   4.023   3.745   2.578 -0.0701  0.1454 -0.2836
 7529SOL    HW123015   4.039   3.691   2.655  0.7203  0.1415 -0.4423
 7529SOL    HW223016   3.976   3.686   2.518  1.6397 -0.7091 -0.8416
 7530SOL     OW23017   0.293   1.567   2.207  0.3916  0.6910 -0.0888
 7530SOL    HW123018   0.309   1.529   2.294  0.0880  1.4401  0.3071
 7530SOL    HW223019   0.380   1.591   2.175  0.4286  1.3217  0.4467
 7531SOL     OW23020   4.835   5.812   1.347  0.7736 -0.1360 -0.0358
 7531SOL    HW123021   4.743   5.810   1.371  0.5221 -1.4776 -0.9978
 7531SOL    HW223022   4.878   5.754   1.410  0.8343 -0.1245 -0.0658
 7532SOL     OW23023   0.366   3.261   1.962  0.4185 -1.0659  0.8538
 7532SOL    HW123024   0.285   3.232   2.004  0.3132 -2.5737 -0.3312
 7532SOL    HW223025   0.405   3.181   1.926  2.2619 -0.3279  1.0738
 7533SOL     OW23026   3.442   5.449   1.855 -1.0713  0.0034  0.0528
 7533SOL    HW123027   3.350   5.425   1.843 -1.4065  1.3255 -0.1987
 7533SOL    HW223028   3.485   5.417   1.776 -1.4695  0.0706 -0.1959
 7534SOL     OW23029   0.784   3.772   2.680 -0.2428  0.4595  0.6051
 7534SOL    HW123030   0.782   3.719   2.759 -2.2861  0.7255  0.7781
 7534SOL    HW223031   0.733   3.722   2.616  0.1754  0.9101 -0.0913
 7535SOL     OW23032   6.084   3.800   1.363  0.1477 -0.3744 -0.2073
 7535SOL    HW123033   6.046   3.713   1.372  1.5927 -1.2366 -2.0244
 7535SOL    HW223034   6.177   3.789   1.383  0.2890  0.8391 -0.0859
 7536SOL     OW23035   0.954   2.881   3.031 -0.1854 -0.2611  0.1499
 7536SOL    HW123036   0.909   2.916   2.954 -1.5674 -2.5449 -0.1609
 7536SOL    HW223037   1.013   2.814   2.996 -0.7332 -1.2351  1.0148
 7537SOL     OW23038   0.467   2.664   1.284 -0.2631 -0.6671  0.3476
 7537SOL    HW123039   0.416   2.619   1.351 -1.5528  0.5010  0.2178
 7537SOL    HW223040   0.407   2.671   1.209  0.2969  0.1738 -0.0462
 7538SOL     OW23041   5.346   2.914   4.833 -0.0275 -0.1126  0.6473
 7538SOL    HW123042   5.396   2.993   4.814  0.1061 -0.1029  1.0120
 7538SOL    HW223043   5.260   2.929   4.796  0.4892 -0.4857 -0.7967
 7539SOL     OW23044   0.889   4.935   2.373  0.5191  0.1056 -0.6596
 7539SOL    HW123045   0.829   5.003   2.404 -0.5181 -1.0031 -0.1394
 7539SOL    HW223046   0.918   4.966   2.287 -1.4383  0.3174 -1.2863
 7540SOL     OW23047   3.799   1.687   1.011  0.1005 -0.2301  0.1887
 7540SOL    HW123048   3.863   1.725   1.071  0.0006 -0.4625  0.4444
 7540SOL    HW223049   3.734   1.756   0.997 -0.1080 -0.3206  0.6894
 7541SOL     OW23050   6.024   3.586   2.257  0.7581 -0.1016  0.2390
 7541SOL    HW123051   5.933   3.589   2.227  1.6260 -1.4605 -2.8928
 7541SOL    HW223052   6.039   3.671   2.297 -1.4532  0.7233 -0.5332
 7542SOL     OW23053   6.218   5.831   2.092 -0.3315  0.4333 -0.1599
 7542SOL    HW123054   6.186   5.897   2.153 -1.3530  0.6229 -0.8671
 7542SOL    HW223055   6.189   5.747   2.129  1.5323  0.2799  1.0838
 7543SOL     OW23056   1.730   0.766   5.635  0.4742 -0.1962 -0.2144
 7543SOL    HW123057   1.661   0.704   5.661  0.0882 -1.5712 -4.0059
 7543SOL    HW223058   1.682   0.842   5.601  0.9202  0.4370  0.5398
 7544SOL     OW23059   2.046   0.377   3.870 -0.4375 -0.3473 -0.5057
 7544SOL    HW123060   2.130   0.330   3.873 -0.4431 -0.3014  1.0117
 7544SOL    HW223061   1.986   0.316   3.827  0.6797  0.1842 -2.9988
 7545SOL     OW23062   0.546   5.361   0.358  0.0484 -0.0643  0.2521
 7545SOL    HW123063   0.637   5.358   0.386 -0.1787  0.7769  1.1470
 7545SOL    HW223064   0.545   5.315   0.275  0.9171 -1.9104  1.2007
 7546SOL     OW23065   3.145   1.487   3.438  0.2040  0.3629 -0.1316
 7546SOL    HW123066   3.226   1.525   3.473 -0.3120 -0.3012  1.9765
 7546SOL    HW223067   3.092   1.471   3.516 -0.4236 -2.7394 -1.0786
 7547SOL     OW23068   0.611   1.047   5.448 -0.1925 -0.8719  0.0628
 7547SOL    HW123069   0.588   1.054   5.540  2.2134 -0.6186  0.6986
 7547SOL    HW223070   0.701   1.079   5.443  0.0797 -1.8100 -2.2091
 7548SOL     OW23071   5.683   0.418   2.296 -0.1787 -0.0936 -0.2253
 7548SOL    HW123072   5.748   0.377   2.240  0.7563  0.1097  0.6738
 7548SOL    HW223073   5.605   0.363   2.287  0.3437 -0.7609 -0.7606
 7549SOL     OW23074   5.259   0.294   0.956  0.4350 -0.0542 -0.0020
 7549SOL    HW123075   5.287   0.384   0.940  2.1733 -0.5119  0.3539
 7549SOL    HW223076   5.289   0.274   1.045 -1.8284 -0.3022  0.7815
 7550SOL     OW23077   4.992   5.858   3.976  0.1404  0.2180  0.0514
 7550SOL    HW123078   4.907   5.852   4.019 -0.0069  1.0878 -0.1043
 7550SOL    HW223079   5.030   5.939   4.009  0.1830  0.7128 -1.1829
 7551SOL     OW23080   0.884   5.949   5.682 -0.3255 -0.2002  0.2790
 7551SOL    HW123081   0.870   5.962   5.589 -1.2980 -0.0909  0.4252
 7551SOL    HW223082   0.977   5.928   5.690 -0.5958 -2.0812 -0.9230
 7552SOL     OW23083   0.019   2.228   1.021  0.1756  0.4701 -0.0448
 7552SOL    HW123084  -0.053   2.290   1.012 -0.6057 -0.3480  0.3521
 7552SOL    HW223085   0.058   2.222   0.934  1.1479  2.5254  0.1941
 7553SOL     OW23086   0.632   4.337   3.034 -0.0749  0.3610 -0.0104
 7553SOL    HW123087   0.603   4.337   2.943  1.1852  0.4810 -0.4333
 7553SOL    HW223088   0.725   4.362   3.030 -0.4425  2.1824  1.4608
 7554SOL     OW23089   4.478   3.113   4.900 -0.5013  0.3614  0.4465
 7554SOL    HW123090   4.562   3.148   4.870  0.3121 -1.5731  0.2518
 7554SOL    HW223091   4.425   3.190   4.920  1.2821  1.6491  0.4802
 7555SOL     OW23092   1.309   0.668   3.118 -0.4100  0.0705 -0.1824
 7555SOL    HW123093   1.354   0.594   3.159 -0.4296 -0.3020 -0.8130
 7555SOL    HW223094   1.315   0.739   3.182  0.8404 -0.0561 -0.1465
 7556SOL     OW23095   2.129   5.609   4.466  0.5800 -0.1302  0.3511
 7556SOL    HW123096   2.180   5.638   4.542 -0.6824  2.0816  0.4467
 7556SOL    HW223097   2.189   5.619   4.392  0.2584  2.9685  0.3817
 7557SOL     OW23098   5.437   0.207   3.477 -0.2461 -0.1471  0.1165
 7557SOL    HW123099   5.391   0.126   3.454 -2.3627  0.5384  1.6313
 7557SOL    HW223100   5.419   0.266   3.404 -0.3541 -0.4073 -0.0708
 7558SOL     OW23101   3.777   4.700   4.249  0.2390  0.2546 -0.5164
 7558SOL    HW123102   3.774   4.649   4.169  1.0469 -0.2264 -0.2522
 7558SOL    HW223103   3.726   4.650   4.312 -1.2023  1.1060 -0.9750
 7559SOL     OW23104   0.894   2.850   1.882  0.2563  0.3539 -0.2534
 7559SOL    HW123105   0.900   2.934   1.927  2.0132 -0.4785  1.1832
 7559SOL    HW223106   0.938   2.865   1.798 -0.6244  1.1813 -0.5943
 7560SOL     OW23107   4.238   4.539   1.649 -0.5541 -0.6831  0.2167
 7560SOL    HW123108   4.288   4.564   1.572  0.3240  0.4140  1.0945
 7560SOL    HW223109   4.245   4.615   1.708 -1.2716 -1.4416  1.3345
 7561SOL     OW23110   0.552   6.112   2.580  0.1942 -0.1733 -0.0109
 7561SOL    HW123111   0.592   6.097   2.494  1.1650  0.6949  0.2629
 7561SOL    HW223112   0.597   6.189   2.614  2.3126 -2.3901  2.7301
 7562SOL     OW23113   3.883   5.154   0.085 -0.2648  0.2973 -0.6170
 7562SOL    HW123114   3.959   5.140   0.141 -0.1379 -1.2937 -1.1458
 7562SOL    HW223115   3.830   5.219   0.132  1.4901  1.5877 -0.3338
 7563SOL     OW23116   6.067   2.321   6.122  0.1728 -0.0998  0.3886
 7563SOL    HW123117   6.016   2.395   6.089  0.0482 -0.7774 -1.0243
 7563SOL    HW223118   6.035   2.306   6.210 -1.0608  0.4072  0.0404
 7564SOL     OW23119   0.812   1.426   4.648 -0.6797 -0.0446 -0.5376
 7564SOL    HW123120   0.817   1.331   4.651 -0.3888  0.0023  1.3065
 7564SOL    HW223121   0.743   1.449   4.710  0.6395  1.0266  0.5787
 7565SOL     OW23122   3.913   1.938   4.619  0.1760  0.0299 -0.6540
 7565SOL    HW123123   4.008   1.944   4.625  0.0116  1.7840  1.4360
 7565SOL    HW223124   3.891   1.976   4.535  1.2977 -0.4531 -1.1867
 7566SOL     OW23125   2.935   3.216   4.084 -0.1279 -0.0428  0.0845
 7566SOL    HW123126   2.919   3.235   3.992  1.6423  1.6245  0.0633
 7566SOL    HW223127   2.989   3.289   4.115 -0.2187 -0.8438  2.3036
 7567SOL     OW23128   2.791   2.431   1.179 -0.0652  0.4180  0.2887
 7567SOL    HW123129   2.838   2.392   1.105  1.3064  1.3048  0.6483
 7567SOL    HW223130   2.858   2.443   1.246 -1.0741  0.6111  1.2891
 7568SOL     OW23131   5.830   3.012   4.065  0.1767 -0.2215  0.0203
 7568SOL    HW123132   5.838   3.052   3.978  1.2034 -2.4706 -0.9940
 7568SOL    HW223133   5.785   2.929   4.049  3.1954 -2.2252  1.0074
 7569SOL     OW23134   1.959   4.853   3.111 -0.0831 -0.2197 -0.9366
 7569SOL    HW123135   2.024   4.839   3.042 -0.6794 -0.4062 -1.4661
 7569SOL    HW223136   1.875   4.832   3.070 -0.9434  3.3493 -1.3611
 7570SOL     OW23137   1.276   2.333   6.204  0.3302  0.2238 -0.1339
 7570SOL    HW123138   1.333   2.379   6.141  0.7496  0.7747  0.6317
 7570SOL    HW223139   1.198   2.311   6.154  0.7332  0.4956 -0.8974
 7571SOL     OW23140   0.442   5.695   5.793 -0.1882 -0.0796  0.1055
 7571SOL    HW123141   0.517   5.635   5.787 -0.0507  0.1260 -0.2698
 7571SOL    HW223142   0.367   5.641   5.768  0.1551  0.3212 -1.9656
 7572SOL     OW23143   5.720   0.847   0.752 -0.1110 -0.7111 -0.0634
 7572SOL    HW123144   5.702   0.761   0.790 -1.8964 -1.2848 -2.0204
 7572SOL    HW223145   5.799   0.833   0.700 -0.3227 -1.1283 -0.2790
 7573SOL     OW23146   3.874   2.111   1.168 -0.1933 -0.0737  0.1652
 7573SOL    HW123147   3.880   2.189   1.112  1.8600 -0.2544  0.0791
 7573SOL    HW223148   3.844   2.042   1.109  1.3799 -0.1262 -0.6333
 7574SOL     OW23149   3.083   5.274   4.781  0.1048  0.0538  0.4839
 7574SOL    HW123150   2.994   5.239   4.791  0.1601 -0.7050 -1.3432
 7574SOL    HW223151   3.076   5.337   4.709  1.5274 -2.0153 -1.5981
 7575SOL     OW23152   1.977   1.174   1.993  0.2904 -0.2919 -0.0804
 7575SOL    HW123153   1.920   1.202   2.065 -0.5999  1.4623 -1.4008
 7575SOL    HW223154   2.063   1.166   2.034 -0.7625 -2.8306  1.9212
 7576SOL     OW23155   5.183   1.362   1.813 -0.4237 -0.0683 -0.4975
 7576SOL    HW123156   5.264   1.388   1.857  0.0127 -1.6477 -0.2800
 7576SOL    HW223157   5.209   1.342   1.723  0.0521 -3.0857  0.1828
 7577SOL     OW23158   0.836   5.305   0.968  0.3363  0.0244 -0.2211
 7577SOL    HW123159   0.769   5.301   1.036  0.4035  0.3564 -0.1354
 7577SOL    HW223160   0.914   5.269   1.009  0.3101 -0.0150 -0.2053
 7578SOL     OW23161   2.021   0.239   3.472  0.4307  0.4221 -0.1023
 7578SOL    HW123162   2.059   0.151   3.476 -0.5084  0.0393  0.7954
 7578SOL    HW223163   2.085   0.291   3.423  0.7784 -0.8702 -1.0614
 7579SOL     OW23164   2.944   3.571   1.913 -0.0841 -0.1941 -0.0953
 7579SOL    HW123165   3.018   3.555   1.854 -0.3657 -2.7062  0.1258
 7579SOL    HW223166   2.983   3.615   1.989  0.9969 -0.5542 -0.4262
 7580SOL     OW23167   1.750   1.810   3.752 -0.1409 -0.4956 -0.5007
 7580SOL    HW123168   1.806   1.786   3.678 -1.7636  0.0873 -2.0115
 7580SOL    HW223169   1.728   1.726   3.794  0.1510 -0.9260 -1.1879
 7581SOL     OW23170   0.651   5.191   2.196  0.0594  0.2262  0.0769
 7581SOL    HW123171   0.625   5.101   2.173 -0.9147  0.2854  0.8877
 7581SOL    HW223172   0.583   5.221   2.256  2.1264  0.3048  2.5508
 7582SOL     OW23173   4.734   5.445   0.722  0.2043  0.0974  0.4787
 7582SOL    HW123174   4.692   5.362   0.745  0.2016 -0.4295 -1.3285
 7582SOL    HW223175   4.822   5.438   0.759 -0.1371 -0.2538  1.2535
 7583SOL     OW23176   0.223   4.888   0.380  0.3283  0.1971 -0.0761
 7583SOL    HW123177   0.196   4.964   0.431  0.2711  0.2796 -0.2288
 7583SOL    HW223178   0.249   4.923   0.295  0.0238  0.0171 -0.2470
 7584SOL     OW23179   2.783   3.598   5.349  0.1392  0.0373 -0.5890
 7584SOL    HW123180   2.710   3.536   5.348 -0.7956  1.1135 -1.5562
 7584SOL    HW223181   2.858   3.546   5.320 -0.1098 -1.1952  0.8044
 7585SOL     OW23182   4.198   0.018   4.394 -0.4996 -0.1816  0.7342
 7585SOL    HW123183   4.282   0.017   4.349 -0.2656  1.6495  1.0379
 7585SOL    HW223184   4.210  -0.039   4.470 -0.3891 -1.9928 -0.5795
 7586SOL     OW23185   4.478   1.084   5.830 -0.3554  0.1518  0.3013
 7586SOL    HW123186   4.557   1.068   5.882 -0.6633 -0.4039  0.6126
 7586SOL    HW223187   4.430   1.002   5.835 -0.0202 -0.2127 -1.5396
 7587SOL     OW23188   1.240   1.382   4.180 -0.6036 -0.0335  0.2713
 7587SOL    HW123189   1.264   1.440   4.251 -0.3016  1.2372 -0.8223
 7587SOL    HW223190   1.204   1.304   4.223 -0.7913  0.8483  1.7709
 7588SOL     OW23191   3.156   6.136   2.780  0.3112 -0.1874 -0.3759
 7588SOL    HW123192   3.210   6.214   2.763 -3.6473  2.4160 -2.8206
 7588SOL    HW223193   3.156   6.128   2.875  3.0654  1.0255 -0.1682
 7589SOL     OW23194   3.026   1.224   1.317 -0.1848 -0.0990  0.1438
 7589SOL    HW123195   3.071   1.308   1.310  0.9922 -0.8362 -1.7197
 7589SOL    HW223196   2.935   1.244   1.294 -0.2832  0.9180  1.2996
 7590SOL     OW23197   1.879   6.038   2.827  0.0174 -0.1072 -0.1096
 7590SOL    HW123198   1.817   6.099   2.866 -0.7767  0.0346 -1.5019
 7590SOL    HW223199   1.949   6.030   2.891  1.1248  3.7263 -0.6042
 7591SOL     OW23200   3.800   5.801   0.793  0.2824 -0.4762  0.8552
 7591SOL    HW123201   3.749   5.857   0.734 -3.1094 -0.6437  3.3366
 7591SOL    HW223202   3.805   5.717   0.747  0.4797  0.2470 -0.5038
 7592SOL     OW23203   2.224   0.661   2.974  0.8101  0.0855 -0.0143
 7592SOL    HW123204   2.288   0.666   2.902 -1.5817  0.8620 -2.2548
 7592SOL    HW223205   2.139   0.659   2.930 -0.7601 -1.2434  2.7981
 7593SOL     OW23206   4.641   1.258   4.202  0.1931 -0.3414 -0.0939
 7593SOL    HW123207   4.643   1.281   4.109  3.9096  0.4910  0.0174
 7593SOL    HW223208   4.556   1.289   4.233  0.0767  2.2958 -2.5811
 7594SOL     OW23209   3.059   2.579   1.914  0.0725 -0.6854  0.1247
 7594SOL    HW123210   2.996   2.616   1.975 -0.2351  0.6717 -0.9816
 7594SOL    HW223211   3.144   2.589   1.958 -0.4038 -2.3875  1.5532
 7595SOL     OW23212   0.034   1.545   0.064 -0.6258  0.3124 -0.3613
 7595SOL    HW123213   0.122   1.582   0.071  1.5165 -3.2917 -3.9227
 7595SOL    HW223214   0.033   1.474   0.129 -0.8376  0.2658 -0.4142
 7596SOL     OW23215   1.859   2.738   3.218 -0.1880  0.6157 -0.0637
 7596SOL    HW123216   1.948   2.707   3.236 -0.4538 -1.3110 -1.6729
 7596SOL    HW223217   1.806   2.699   3.287 -0.1896 -0.8979 -0.8647
 7597SOL     OW23218   2.129   0.656   6.223  0.0593 -0.5575 -0.1300
 7597SOL    HW123219   2.198   0.671   6.288 -0.6206 -1.0851  0.7423
 7597SOL    HW223220   2.048   0.655   6.274 -1.0082  2.9543 -1.4439
 7598SOL     OW23221   3.500   0.474   2.748 -0.2633  0.0473  0.2797
 7598SOL    HW123222   3.540   0.560   2.761  0.3297 -0.4777  2.2661
 7598SOL    HW223223   3.406   0.490   2.759 -0.1919  0.4877  0.2967
 7599SOL     OW23224   5.601   4.401   3.368 -0.6313 -0.1502  0.4161
 7599SOL    HW123225   5.653   4.396   3.448 -0.3403  0.0998  0.2449
 7599SOL    HW223226   5.524   4.453   3.392 -0.6479 -0.2557  0.5873
 7600SOL     OW23227   2.497   4.648   5.949 -0.1876 -0.6172 -0.5363
 7600SOL    HW123228   2.582   4.643   5.904 -0.3188 -0.7414 -0.7741
 7600SOL    HW223229   2.469   4.739   5.938  0.3503 -0.3350  0.3555
 7601SOL     OW23230   1.646   0.571   1.847  0.2244  0.4293  0.3784
 7601SOL    HW123231   1.727   0.522   1.832 -0.1122 -0.0919  0.2495
 7601SOL    HW223232   1.615   0.594   1.760 -0.6970 -0.9099  0.3271
 7602SOL     OW23233   0.082   5.257   5.905 -0.4778  0.2993  0.5109
 7602SOL    HW123234   0.046   5.224   5.987  1.3736 -0.7053  0.9722
 7602SOL    HW223235   0.100   5.349   5.922  1.4705 -0.2746  1.8712
 7603SOL     OW23236   1.421   5.905   0.270 -0.7616 -0.6744 -0.2908
 7603SOL    HW123237   1.381   5.831   0.225 -0.1019 -0.7701 -0.7386
 7603SOL    HW223238   1.465   5.954   0.200  0.2724 -0.8192  0.2363
 7604SOL     OW23239   6.001   4.254   0.582 -0.1618 -0.0506 -0.3276
 7604SOL    HW123240   5.963   4.233   0.668 -0.3597 -0.5405 -0.5343
 7604SOL    HW223241   5.927   4.286   0.530 -0.0918 -0.0102 -0.4032
 7605SOL     OW23242   3.190   1.600   2.941  0.6619 -0.5872  0.5293
 7605SOL    HW123243   3.225   1.684   2.970  2.2797 -0.1938 -2.1520
 7605SOL    HW223244   3.233   1.535   2.997 -1.0378  0.3061  3.0172
 7606SOL     OW23245   3.306   4.885   3.693 -0.5982  0.3088 -0.5618
 7606SOL    HW123246   3.246   4.849   3.759 -0.7098  0.7992 -0.3934
 7606SOL    HW223247   3.267   4.861   3.609  0.1772 -1.3972 -0.4792
 7607SOL     OW23248   5.101   3.586   3.957  0.1887  0.5666 -0.3871
 7607SOL    HW123249   5.180   3.624   3.995 -0.1615  2.4117 -1.3764
 7607SOL    HW223250   5.036   3.656   3.961 -2.0623 -1.4051  2.0918
 7608SOL     OW23251   5.270   2.755   2.873  0.2577 -0.0710  0.1600
 7608SOL    HW123252   5.222   2.673   2.866 -1.0882  0.7939 -1.4887
 7608SOL    HW223253   5.333   2.752   2.801 -1.4383  1.2897 -1.4893
 7609SOL     OW23254   0.569   3.086   1.013 -0.1568  0.6314  0.2296
 7609SOL    HW123255   0.546   3.098   1.106 -0.0839 -0.5197  0.4106
 7609SOL    HW223256   0.545   2.995   0.994  0.9866  0.4785 -0.5407
 7610SOL     OW23257   2.510   1.920   1.639 -0.6295  0.0889  0.0221
 7610SOL    HW123258   2.507   1.909   1.544 -1.9812 -3.0874  0.3288
 7610SOL    HW223259   2.603   1.923   1.661 -0.3043  0.0444 -1.3124
 7611SOL     OW23260   2.317   6.170   1.032  0.0152  0.0724  0.2711
 7611SOL    HW123261   2.346   6.208   0.949 -0.9065  1.0845  0.3916
 7611SOL    HW223262   2.247   6.110   1.008 -1.2611  1.4539  0.4136
 7612SOL     OW23263   5.699   1.880   2.892  0.1774  0.1167  0.1235
 7612SOL    HW123264   5.691   1.958   2.838  0.5554 -0.1058 -0.2588
 7612SOL    HW223265   5.768   1.900   2.954 -0.1070  0.2908  0.3871
 7613SOL     OW23266   1.548   5.453   0.387  0.2686 -0.9092  0.6746
 7613SOL    HW123267   1.557   5.531   0.331  0.3966 -0.7170  0.9592
 7613SOL    HW223268   1.469   5.410   0.356  0.6321 -1.0985 -0.0170
 7614SOL     OW23269   5.583   0.874   4.896  0.0309  0.0754  0.5272
 7614SOL    HW123270   5.643   0.931   4.944 -0.3778  1.8497 -0.9608
 7614SOL    HW223271   5.641   0.815   4.847  0.5023  0.1518  0.9793
 7615SOL     OW23272   4.369   3.561   5.825  0.2587  0.6282 -0.1573
 7615SOL    HW123273   4.403   3.508   5.753  1.2148  0.8217  0.1374
 7615SOL    HW223274   4.369   3.502   5.901  0.1723  0.7077 -0.0942
 7616SOL     OW23275   2.748   3.298   1.039 -0.0568  0.2821  0.3863
 7616SOL    HW123276   2.665   3.287   0.994  0.3641 -1.1491 -0.0831
 7616SOL    HW223277   2.814   3.269   0.976  0.7602  0.7370  0.9995
 7617SOL     OW23278   4.665   4.797   0.129 -0.4794  0.4703  0.2851
 7617SOL    HW123279   4.579   4.756   0.142  0.2213 -0.5851  2.0494
 7617SOL    HW223280   4.649   4.868   0.068 -2.2579 -0.8270 -0.8555
 7618SOL     OW23281   6.062   0.255   5.952 -0.1470  0.1691  0.1632
 7618SOL    HW123282   6.075   0.233   6.045 -0.0718  2.7145  0.8225
 7618SOL    HW223283   5.968   0.266   5.943 -0.1061  0.4555  0.0765
 7619SOL     OW23284   6.108   5.043   5.535 -0.2349 -0.3259 -0.3283
 7619SOL    HW123285   6.154   5.074   5.457 -1.9401 -0.1606 -1.3179
 7619SOL    HW223286   6.040   5.108   5.550 -1.1210 -1.3412  0.1564
 7620SOL     OW23287   4.875   0.449   5.252 -0.8659 -0.1709 -0.2460
 7620SOL    HW123288   4.935   0.521   5.270  0.2069 -0.9166 -0.7223
 7620SOL    HW223289   4.924   0.370   5.277  0.1382 -1.1840 -4.5171
 7621SOL     OW23290   3.031   2.909   5.085  0.1181 -0.1726  0.2295
 7621SOL    HW123291   3.081   2.918   5.004  0.3667 -0.0346  0.3997
 7621SOL    HW223292   3.001   2.818   5.085 -3.0754  0.6947 -1.9086
 7622SOL     OW23293   1.185   1.009   0.842  0.6508 -0.0667  0.7211
 7622SOL    HW123294   1.207   0.917   0.861  1.9557 -0.1181 -0.8556
 7622SOL    HW223295   1.138   1.005   0.758  2.6023  0.8627 -0.4604
 7623SOL     OW23296   1.043   3.487   4.509  0.3486 -0.0291  0.4533
 7623SOL    HW123297   1.128   3.530   4.506 -0.1126  1.0637  1.9288
 7623SOL    HW223298   1.064   3.393   4.510  1.5201  0.2143  0.6724
 7624SOL     OW23299   5.089   0.205   4.321  0.3092  0.3150 -0.0828
 7624SOL    HW123300   5.110   0.264   4.394  1.7735  0.6762 -0.7445
 7624SOL    HW223301   5.153   0.134   4.329 -1.9979 -1.7994  1.2577
 7625SOL     OW23302   2.362   1.161   0.409 -0.1277 -0.0127  0.0147
 7625SOL    HW123303   2.396   1.121   0.329 -1.0527  0.6046 -0.7127
 7625SOL    HW223304   2.431   1.148   0.474  0.9439  0.0894 -1.0717
 7626SOL     OW23305   1.170   0.849   3.447  0.0078 -0.1951  0.1371
 7626SOL    HW123306   1.235   0.898   3.497  0.8728  1.1063 -2.0841
 7626SOL    HW223307   1.086   0.883   3.479  0.5059  0.2890  0.9783
 7627SOL     OW23308   6.103   0.477   2.157 -0.3209  0.7034 -0.0144
 7627SOL    HW123309   6.042   0.513   2.222  0.1815  0.2616  0.7087
 7627SOL    HW223310   6.190   0.502   2.188 -0.0044 -0.5519  0.1380
 7628SOL     OW23311   2.501   0.950   0.742  0.4399  0.0074  0.0970
 7628SOL    HW123312   2.479   0.919   0.655  1.6193  1.3568 -0.7314
 7628SOL    HW223313   2.568   1.017   0.728  0.6967  0.2352  2.0412
 7629SOL     OW23314   2.678   3.044   4.001  0.2401 -0.5758  0.3318
 7629SOL    HW123315   2.762   3.089   4.011 -0.4126  0.7456  0.1198
 7629SOL    HW223316   2.646   3.032   4.090  0.0136  0.2001  0.3609
 7630SOL     OW23317   4.314   3.873   2.866 -0.2249  0.5465  0.1169
 7630SOL    HW123318   4.320   3.966   2.846  1.4217  0.1343 -1.4810
 7630SOL    HW223319   4.226   3.847   2.836 -0.3327  1.3688 -0.2808
 7631SOL     OW23320   1.024   5.228   5.599  0.0992  0.4318  0.2539
 7631SOL    HW123321   0.984   5.213   5.684 -1.5335 -0.6372 -0.6539
 7631SOL    HW223322   1.114   5.254   5.619  0.2634 -1.4106  2.2508
 7632SOL     OW23323   4.996   1.714   3.311 -0.8698 -0.0499  0.6219
 7632SOL    HW123324   5.041   1.798   3.314  0.2211 -0.5834  0.0539
 7632SOL    HW223325   5.044   1.659   3.373 -0.2276 -0.8491 -0.5497
 7633SOL     OW23326   2.458   4.771   2.750 -0.2013 -0.3988  0.4373
 7633SOL    HW123327   2.470   4.677   2.745 -3.1149 -0.8729  0.8017
 7633SOL    HW223328   2.497   4.796   2.834 -0.8954 -1.5905  1.1351
 7634SOL     OW23329   5.735   0.321   0.305  0.6940  0.1020 -0.7451
 7634SOL    HW123330   5.721   0.238   0.351  2.8488 -0.3736 -0.8392
 7634SOL    HW223331   5.745   0.386   0.374  0.1226  0.0732 -0.6375
 7635SOL     OW23332   0.625   2.881   4.531 -0.1024 -0.4078 -0.2285
 7635SOL    HW123333   0.635   2.967   4.573  1.1665 -1.3551  1.5357
 7635SOL    HW223334   0.692   2.880   4.463 -0.3912  0.1350 -0.5309
 7636SOL     OW23335   0.869   1.992   5.258  0.7356  0.4022  0.1424
 7636SOL    HW123336   0.924   1.977   5.334  1.9100 -1.2347 -0.9566
 7636SOL    HW223337   0.930   2.019   5.189  0.3108 -1.7030 -1.1721
 7637SOL     OW23338   3.987   5.301   4.700 -0.2157  0.2574 -0.5553
 7637SOL    HW123339   3.907   5.339   4.738 -0.2617  0.2822 -0.6756
 7637SOL    HW223340   4.047   5.293   4.774 -0.5250 -0.2820 -0.3571
 7638SOL     OW23341   4.820   4.137   1.324  0.2114 -0.6707 -0.4338
 7638SOL    HW123342   4.890   4.160   1.385 -1.1102 -0.6882  1.1360
 7638SOL    HW223343   4.866   4.100   1.248  1.8837 -0.8802  0.6345
 7639SOL     OW23344   1.636   3.691   0.515  0.2313  0.2600  0.0355
 7639SOL    HW123345   1.606   3.770   0.471 -1.2660 -0.0733  0.3855
 7639SOL    HW223346   1.714   3.664   0.467 -0.6265  0.6077 -1.6170
 7640SOL     OW23347   0.038   3.393   3.105  0.0184 -0.4195 -0.1794
 7640SOL    HW123348  -0.053   3.391   3.134  0.1726  0.9763  0.5200
 7640SOL    HW223349   0.089   3.381   3.186  0.4452  0.8662 -0.2326
 7641SOL     OW23350   2.805   4.958   1.025 -0.4496  0.1969  0.0071
 7641SOL    HW123351   2.871   4.940   0.958 -0.8842 -0.1689 -0.3290
 7641SOL    HW223352   2.721   4.944   0.980 -0.7878 -3.3205  1.4502
 7642SOL     OW23353   1.618   1.939   2.734  0.2691  0.4339  0.4021
 7642SOL    HW123354   1.568   1.862   2.757  0.6777 -0.0429 -0.2581
 7642SOL    HW223355   1.553   2.003   2.707 -0.0552  0.2450  0.7257
 7643SOL     OW23356   5.889   3.348   0.186 -0.1508  0.4960  0.2190
 7643SOL    HW123357   5.866   3.346   0.279  0.1676 -1.0926  0.3001
 7643SOL    HW223358   5.975   3.305   0.182 -0.6563 -0.4784 -0.9122
 7644SOL     OW23359   3.268   4.635   0.444 -0.1226  0.0658 -0.0542
 7644SOL    HW123360   3.348   4.688   0.443 -1.0460  1.5921  1.3147
 7644SOL    HW223361   3.299   4.545   0.455  1.5776  0.0192 -3.8888
 7645SOL     OW23362   4.347   5.974   1.993 -0.6687 -0.2557  0.1696
 7645SOL    HW123363   4.387   5.900   1.947  0.5546  0.1951  0.4606
 7645SOL    HW223364   4.385   5.971   2.081 -0.1731  1.0134  0.0260
 7646SOL     OW23365   5.594   4.938   2.474 -0.1143 -0.5560 -0.0034
 7646SOL    HW123366   5.638   4.868   2.523  0.2350 -0.7760 -0.6302
 7646SOL    HW223367   5.597   4.910   2.383  1.5062  1.0196 -0.5159
 7647SOL     OW23368   4.436   3.737   5.420  0.0732  0.1850  0.0066
 7647SOL    HW123369   4.355   3.694   5.447  0.4138 -0.5813 -0.1607
 7647SOL    HW223370   4.411   3.828   5.403 -0.9905 -0.2913 -1.1324
 7648SOL     OW23371   3.598   1.638   5.017  0.8319 -0.6624 -0.6857
 7648SOL    HW123372   3.532   1.652   4.949  0.6269  0.7464 -0.2463
 7648SOL    HW223373   3.630   1.549   5.003  0.0758 -0.7483 -1.9879
 7649SOL     OW23374   6.168   4.741   5.765 -0.2348  0.9947  0.1797
 7649SOL    HW123375   6.075   4.759   5.782 -0.2475  1.8686 -0.6694
 7649SOL    HW223376   6.210   4.827   5.770  0.5644  0.5835  0.7260
 7650SOL     OW23377   2.750   0.808   4.602 -0.2011 -0.0414  0.1639
 7650SOL    HW123378   2.841   0.806   4.634 -0.8259 -2.3617  2.1253
 7650SOL    HW223379   2.720   0.718   4.612 -3.4624  1.0749  1.9113
 7651SOL     OW23380   0.870   3.376   2.693  0.0361  0.5746  0.1401
 7651SOL    HW123381   0.908   3.447   2.641  1.8756  0.7624  1.6399
 7651SOL    HW223382   0.811   3.332   2.633  3.5753 -0.5805 -2.8645
 7652SOL     OW23383   0.934   5.490   4.291  0.1940  0.2508  0.4453
 7652SOL    HW123384   0.898   5.578   4.279 -0.9114  0.2583  3.1054
 7652SOL    HW223385   0.859   5.437   4.319  0.7078 -1.7502 -1.6095
 7653SOL     OW23386   5.606   5.799   5.589 -0.2922 -0.0320  0.1765
 7653SOL    HW123387   5.592   5.838   5.675  1.6085  1.1232  0.0223
 7653SOL    HW223388   5.596   5.872   5.528  1.6114 -0.0818 -0.2658
 7654SOL     OW23389   3.869   3.662   4.291  0.3232 -0.4688 -0.2603
 7654SOL    HW123390   3.889   3.719   4.218  0.0867  0.1293  0.1357
 7654SOL    HW223391   3.818   3.716   4.351 -0.9744 -1.4562 -0.4460
 7655SOL     OW23392   0.868   0.185   2.716 -0.1356 -0.0320  0.0739
 7655SOL    HW123393   0.877   0.091   2.733 -1.5972 -0.1568  0.2587
 7655SOL    HW223394   0.917   0.227   2.788  1.6931 -0.6204 -0.7621
 7656SOL     OW23395   4.435   3.455   1.162  0.8208 -0.7288  0.2794
 7656SOL    HW123396   4.502   3.430   1.098 -0.4092 -1.3368 -0.8085
 7656SOL    HW223397   4.463   3.541   1.194  1.0269 -0.0005 -1.7251
 7657SOL     OW23398   1.164   1.556   0.462  0.4517 -0.3086 -0.2079
 7657SOL    HW123399   1.253   1.523   0.477  0.4278  0.2707  1.3779
 7657SOL    HW223400   1.118   1.542   0.544 -0.4898  0.7548 -0.5184
 7658SOL     OW23401   4.855   4.533   5.865 -0.0621 -0.6570 -0.1233
 7658SOL    HW123402   4.950   4.531   5.876 -0.0753  0.7375  0.3790
 7658SOL    HW223403   4.827   4.443   5.884  1.1935 -1.2105 -0.7704
 7659SOL     OW23404   3.667   0.350   4.387  0.5014  0.2182  0.1805
 7659SOL    HW123405   3.736   0.361   4.453  0.4613  2.1094 -0.0571
 7659SOL    HW223406   3.600   0.414   4.410 -0.0470  0.1086 -1.0197
 7660SOL     OW23407   5.990   0.367   5.008 -0.2603  0.0734  0.6863
 7660SOL    HW123408   6.045   0.332   5.078  0.2872  1.0222  0.7385
 7660SOL    HW223409   5.933   0.293   4.984  1.1117 -0.9788  0.5318
 7661SOL     OW23410   2.623   2.293   3.990 -0.1224  0.0023 -0.3027
 7661SOL    HW123411   2.585   2.381   3.988  1.3801  0.7113  0.2677
 7661SOL    HW223412   2.675   2.288   3.909  0.1919 -0.1695 -0.0920
 7662SOL     OW23413   0.573   0.584   4.923  0.1378  0.0133 -0.0390
 7662SOL    HW123414   0.604   0.672   4.898  0.8253  0.7274  2.9715
 7662SOL    HW223415   0.486   0.598   4.960  0.4440 -0.4709  0.9002
 7663SOL     OW23416   3.421   5.034   5.055 -0.3110  0.1519 -0.3381
 7663SOL    HW123417   3.332   5.067   5.049  0.1553  1.4431 -0.5319
 7663SOL    HW223418   3.473   5.095   5.002  0.4663 -1.4607 -1.5378
 7664SOL     OW23419   2.470   0.562   0.676  0.0743  0.1339  0.0701
 7664SOL    HW123420   2.539   0.596   0.618 -0.1586 -0.3743 -0.5167
 7664SOL    HW223421   2.518   0.532   0.753  0.6952 -1.4651 -0.8891
 7665SOL     OW23422   5.227   0.510   4.718  0.2155  0.1630  0.2822
 7665SOL    HW123423   5.286   0.559   4.775 -0.2056  0.8233  0.1631
 7665SOL    HW223424   5.201   0.573   4.651  0.1403 -0.3992 -0.2262
 7666SOL     OW23425   1.691   5.743   5.518  0.5268 -0.1292 -0.2150
 7666SOL    HW123426   1.731   5.827   5.495 -0.3334  0.7623  1.4040
 7666SOL    HW223427   1.704   5.735   5.612  0.6775 -1.8832 -0.3552
 7667SOL     OW23428   4.992   4.112   4.460  0.2442  0.6038  0.2783
 7667SOL    HW123429   4.992   4.104   4.556  2.3852 -2.7742  0.1595
 7667SOL    HW223430   4.952   4.031   4.429  0.8251  1.0178 -1.6986
 7668SOL     OW23431   1.690   6.058   5.673 -0.3277  0.4604  0.2411
 7668SOL    HW123432   1.742   5.994   5.723  0.0182  0.9731  0.5429
 7668SOL    HW223433   1.600   6.041   5.701  0.0161  2.0411  2.6016
 7669SOL     OW23434   4.219   4.877   4.636 -0.1727  0.3443  0.7040
 7669SOL    HW123435   4.242   4.960   4.593  0.9982 -0.3461 -0.0514
 7669SOL    HW223436   4.302   4.829   4.642 -1.2027 -1.8716 -1.2676
 7670SOL     OW23437   1.208   2.629   4.471  0.8636  0.0875  0.3929
 7670SOL    HW123438   1.292   2.604   4.434 -0.1872 -0.5831 -1.7392
 7670SOL    HW223439   1.183   2.707   4.421 -0.3530 -0.4924  0.0565
 7671SOL     OW23440   1.165   0.854   1.899  0.4661  0.2815  0.0993
 7671SOL    HW123441   1.245   0.803   1.905 -0.1243 -0.6089  0.6776
 7671SOL    HW223442   1.177   0.927   1.960  0.9746  0.3641 -0.0981
 7672SOL     OW23443   1.316   0.274   0.553 -0.9837 -0.0853  0.4110
 7672SOL    HW123444   1.307   0.364   0.585 -0.0733  0.3922 -0.6132
 7672SOL    HW223445   1.271   0.221   0.619  1.9220  0.6706  3.2664
 7673SOL     OW23446   2.688   2.372   5.347  0.8329 -0.8599 -0.6473
 7673SOL    HW123447   2.714   2.464   5.342  1.1925 -0.8256  1.2820
 7673SOL    HW223448   2.711   2.337   5.261  0.7841  0.8123 -1.3923
 7674SOL     OW23449   3.450   5.945   2.644  0.5760 -0.9984 -0.3427
 7674SOL    HW123450   3.517   5.898   2.594  2.1584 -0.7322  1.3953
 7674SOL    HW223451   3.443   5.896   2.726  1.5301  1.1454  1.0937
 7675SOL     OW23452   4.638   4.440   3.513  0.0969 -0.3157  0.1745
 7675SOL    HW123453   4.585   4.513   3.481 -0.7040 -0.9251  0.0730
 7675SOL    HW223454   4.659   4.463   3.603  0.8299  0.5673 -0.2031
 7676SOL     OW23455   2.394   1.151   5.734 -0.7676  0.3637  0.2990
 7676SOL    HW123456   2.390   1.097   5.656 -0.0446  1.5538 -0.6078
 7676SOL    HW223457   2.407   1.240   5.701  2.7076  0.5764  1.7726
 7677SOL     OW23458   4.310   2.704   5.656 -0.1531  0.0631  0.5584
 7677SOL    HW123459   4.254   2.688   5.732  0.5767 -1.5454  0.8073
 7677SOL    HW223460   4.332   2.616   5.624  2.3412  0.6076  0.5833
 7678SOL     OW23461   5.210   1.561   4.467 -0.7263 -1.1107 -0.1286
 7678SOL    HW123462   5.156   1.490   4.503 -1.1052 -0.7682 -0.0119
 7678SOL    HW223463   5.288   1.562   4.523 -1.1595 -0.8003  0.4822
 7679SOL     OW23464   0.194   5.689   3.319 -0.0429  0.1297  0.0331
 7679SOL    HW123465   0.109   5.681   3.361  1.0840 -1.7785  2.1706
 7679SOL    HW223466   0.177   5.739   3.239 -2.8496  1.1612  1.1686
 7680SOL     OW23467   5.749   3.174   3.310  0.1770 -0.3007 -0.3498
 7680SOL    HW123468   5.762   3.242   3.244  2.1833 -0.3283 -0.0481
 7680SOL    HW223469   5.656   3.151   3.303 -0.2473  1.5116 -1.3671
 7681SOL     OW23470   2.631   2.520   3.837  0.6676 -0.2984  0.3560
 7681SOL    HW123471   2.549   2.524   3.789  1.0162 -0.4016 -0.2490
 7681SOL    HW223472   2.628   2.595   3.897 -0.6628 -1.3050  1.6335
 7682SOL     OW23473   5.247   5.047   5.798  0.1112 -0.0108 -0.1072
 7682SOL    HW123474   5.181   4.980   5.779  0.7771 -0.3610 -1.3333
 7682SOL    HW223475   5.305   5.045   5.722 -0.1822  2.3890 -0.4787
 7683SOL     OW23476   5.319   2.781   1.952  0.2435 -0.3283  0.5849
 7683SOL    HW123477   5.279   2.756   2.036 -0.7950  0.7522  0.4292
 7683SOL    HW223478   5.267   2.855   1.921  1.6699  0.3838 -0.2038
 7684SOL     OW23479   5.616   3.850   2.165  0.2720  0.0475 -0.3411
 7684SOL    HW123480   5.521   3.843   2.158  0.3695 -2.7028 -0.0991
 7684SOL    HW223481   5.631   3.936   2.205 -2.0883  0.5697 -0.4318
 7685SOL     OW23482   0.595   4.989   5.004  0.3190  0.0421  0.1047
 7685SOL    HW123483   0.514   4.966   5.049 -0.0031  0.0321 -0.4765
 7685SOL    HW223484   0.664   4.962   5.065 -0.0875 -0.8850  0.1736
 7686SOL     OW23485   3.364   4.162   3.072  0.0560 -0.3990  0.3966
 7686SOL    HW123486   3.452   4.192   3.091 -0.2519  0.3471  0.6696
 7686SOL    HW223487   3.325   4.145   3.157 -0.0871 -0.6699  0.2797
 7687SOL     OW23488   1.821   2.028   1.649  0.6116  0.0972 -0.4751
 7687SOL    HW123489   1.732   2.031   1.612 -0.1470 -1.1777  1.1115
 7687SOL    HW223490   1.855   1.943   1.621 -0.0559 -0.9864  1.7911
 7688SOL     OW23491   4.202   3.144   2.954 -0.2352 -0.7018 -0.2151
 7688SOL    HW123492   4.139   3.082   2.916 -0.2730 -0.8724  0.1190
 7688SOL    HW223493   4.250   3.092   3.019  0.4966 -0.6653 -0.7202
 7689SOL     OW23494   0.286   1.938   5.453  0.7152  0.1221  0.1740
 7689SOL    HW123495   0.356   1.896   5.503  0.5722 -1.3291 -0.7762
 7689SOL    HW223496   0.211   1.937   5.512  0.7625 -0.8520  0.2438
 7690SOL     OW23497   0.511   1.815   1.535  0.8032  1.0143  0.2130
 7690SOL    HW123498   0.555   1.852   1.611 -0.8557  1.4999  0.9851
 7690SOL    HW223499   0.556   1.732   1.520  1.6796  1.2794  1.2391
 7691SOL     OW23500   4.301   4.970   3.710 -0.4481 -0.4529  0.2681
 7691SOL    HW123501   4.352   5.029   3.654 -1.3129 -2.6983 -3.1692
 7691SOL    HW223502   4.366   4.931   3.769  1.0465  0.0356 -0.9829
 7692SOL     OW23503   3.919   3.671   2.320 -0.1759  0.4601  0.5237
 7692SOL    HW123504   3.865   3.598   2.350 -0.2278  0.9341  1.6321
 7692SOL    HW223505   3.986   3.630   2.266 -0.0574 -0.4507  1.3212
 7693SOL     OW23506   4.127   4.657   4.083 -0.0110 -0.2445 -0.1261
 7693SOL    HW123507   4.166   4.739   4.114  0.3411 -0.0806 -0.9638
 7693SOL    HW223508   4.174   4.638   4.002 -0.7940 -0.7316 -0.4770
 7694SOL     OW23509   6.006   4.456   2.714 -0.2855  0.4481 -0.0199
 7694SOL    HW123510   5.916   4.426   2.699 -0.2331  0.2210  0.1199
 7694SOL    HW223511   6.002   4.501   2.798 -0.0445 -0.5094  0.5198
 7695SOL     OW23512   2.147   4.211   2.297 -0.1398 -0.2568  0.2914
 7695SOL    HW123513   2.182   4.300   2.292  0.3492 -0.4943 -0.7147
 7695SOL    HW223514   2.055   4.223   2.323  0.2321  0.4546  1.3626
 7696SOL     OW23515   3.136   1.155   3.440  0.7131 -0.0755  0.3344
 7696SOL    HW123516   3.082   1.092   3.487  0.8973 -0.0759  0.5463
 7696SOL    HW223517   3.082   1.235   3.438  0.6888 -0.0861  0.5142
 7697SOL     OW23518   0.817   0.981   1.021 -0.1687 -0.3371  0.0404
 7697SOL    HW123519   0.749   0.967   1.087 -1.3962 -1.0959 -1.3191
 7697SOL    HW223520   0.821   1.076   1.010 -1.1692 -0.2949 -0.0045
 7698SOL     OW23521   1.457   1.660   0.943 -0.1184  1.1308 -0.4108
 7698SOL    HW123522   1.547   1.640   0.917 -0.0880  0.7605 -0.0205
 7698SOL    HW223523   1.465   1.693   1.032 -0.7228 -2.5236  1.1322
 7699SOL     OW23524   0.972   5.271   1.341 -0.3398 -0.7022  0.0984
 7699SOL    HW123525   1.016   5.211   1.280  0.8862  0.4487 -0.2105
 7699SOL    HW223526   0.880   5.269   1.315 -0.1795 -1.7580 -0.4642
 7700SOL     OW23527   3.458   5.796   1.965 -0.0290 -1.0309  0.0290
 7700SOL    HW123528   3.373   5.752   1.956 -0.6970 -0.3718  2.2964
 7700SOL    HW223529   3.523   5.727   1.955 -0.8306 -1.6277 -1.2724
 7701SOL     OW23530   0.867   2.155   0.699  0.2674  0.1567  0.1939
 7701SOL    HW123531   0.817   2.193   0.771 -0.0219 -2.3960  1.4571
 7701SOL    HW223532   0.824   2.187   0.620  0.2854  2.6288  1.0994
 7702SOL     OW23533   4.830   5.920   4.935 -0.1556 -0.2462 -0.6127
 7702SOL    HW123534   4.841   6.015   4.939  0.1655 -0.1670 -2.3707
 7702SOL    HW223535   4.841   5.890   5.025  0.9609  1.2603 -0.2117
 7703SOL     OW23536   3.531   0.870   2.849 -0.1051 -0.5141 -0.0760
 7703SOL    HW123537   3.600   0.806   2.833 -0.9390 -1.4352 -0.0328
 7703SOL    HW223538   3.535   0.930   2.774  0.7143 -0.5719 -0.0836
 7704SOL     OW23539   1.385   1.044   5.299  0.3619 -0.6391 -0.2003
 7704SOL    HW123540   1.303   1.024   5.254  0.0813  0.0996 -0.0248
 7704SOL    HW223541   1.451   0.994   5.251 -0.6386 -4.3834  1.8997
 7705SOL     OW23542   4.200   3.855   4.162 -0.0532  0.0930  0.2724
 7705SOL    HW123543   4.128   3.916   4.173 -2.2733 -2.0753 -1.0252
 7705SOL    HW223544   4.203   3.838   4.068  1.0179 -1.1820  0.4996
 7706SOL     OW23545   0.876   2.317   4.082  0.2871  0.0015  0.3504
 7706SOL    HW123546   0.841   2.255   4.018  1.5143 -0.7393  0.3696
 7706SOL    HW223547   0.971   2.308   4.075  0.4775  1.4012  0.8340
 7707SOL     OW23548   5.087   2.456   5.385  0.5075  0.0564  0.1370
 7707SOL    HW123549   5.152   2.483   5.450  0.0712 -0.8467  0.9778
 7707SOL    HW223550   5.116   2.497   5.304  1.9216 -0.0222  0.5726
 7708SOL     OW23551   6.140   0.760   4.472  0.0755 -0.3499 -0.0409
 7708SOL    HW123552   6.192   0.840   4.463  0.4543 -0.4634  1.0526
 7708SOL    HW223553   6.060   0.778   4.423 -0.0650  0.9000  0.6054
 7709SOL     OW23554   0.878   4.367   5.636  0.3228  0.2512 -0.0586
 7709SOL    HW123555   0.887   4.299   5.569 -0.3084 -0.0698  0.1766
 7709SOL    HW223556   0.968   4.382   5.666  0.4254 -0.7824  0.1887
 7710SOL     OW23557   0.063   2.796   1.616  0.0220 -0.1220 -0.4530
 7710SOL    HW123558   0.001   2.857   1.575 -0.2921 -0.0020  0.1816
 7710SOL    HW223559   0.008   2.743   1.673  0.2440 -1.2002 -1.2049
 7711SOL     OW23560   4.262   0.895   0.710 -0.1816 -0.2605  0.4933
 7711SOL    HW123561   4.310   0.891   0.627  2.3984 -0.7516  1.9235
 7711SOL    HW223562   4.286   0.980   0.747 -2.1296  0.4040  0.3483
 7712SOL     OW23563   0.588   2.664   2.169 -0.4480 -0.0826 -0.3056
 7712SOL    HW123564   0.661   2.700   2.119 -1.3953  1.2480 -0.8107
 7712SOL    HW223565   0.550   2.597   2.113  0.7135 -1.1993  0.2041
 7713SOL     OW23566   5.567   2.900   1.722 -0.0473  0.1152  0.0455
 7713SOL    HW123567   5.617   2.981   1.717  1.3073 -0.6190  0.8517
 7713SOL    HW223568   5.523   2.904   1.807  1.4054 -0.6990  0.8856
 7714SOL     OW23569   5.841   0.527   1.712  0.5158 -0.1524  0.1531
 7714SOL    HW123570   5.780   0.579   1.764 -0.1466  0.9422 -1.6336
 7714SOL    HW223571   5.912   0.587   1.690  1.6223 -1.0486  1.0699
 7715SOL     OW23572   5.379   0.397   3.222  0.1989  0.2290 -0.1935
 7715SOL    HW123573   5.432   0.365   3.150  0.1479 -1.7151  0.5579
 7715SOL    HW223574   5.297   0.347   3.216 -2.3205  4.0761 -2.1646
 7716SOL     OW23575   3.357   2.508   3.188  0.7741 -0.7040 -0.0105
 7716SOL    HW123576   3.387   2.515   3.279 -0.5982 -3.2325  0.7406
 7716SOL    HW223577   3.437   2.495   3.137  1.9336  3.6879  0.2414
 7717SOL     OW23578   2.361   5.004   1.389 -0.3743 -0.4918  0.3174
 7717SOL    HW123579   2.329   5.079   1.339  1.1090  0.6036  0.9210
 7717SOL    HW223580   2.298   4.994   1.460 -0.7195  0.0405  0.1002
 7718SOL     OW23581   0.024   3.172   5.001 -0.7396  0.1483  0.1478
 7718SOL    HW123582   0.098   3.137   5.050  0.1684  0.8851 -0.6703
 7718SOL    HW223583  -0.004   3.248   5.052  0.6691  1.3527 -0.7952
 7719SOL     OW23584   1.081   4.998   4.492 -0.6293 -0.0769 -0.0369
 7719SOL    HW123585   1.105   4.943   4.567 -0.7079  0.2666  0.2407
 7719SOL    HW223586   1.082   4.938   4.417  0.9948 -0.1110 -0.0305
 7720SOL     OW23587   2.714   5.624   1.315 -0.2745 -0.2839  0.8075
 7720SOL    HW123588   2.690   5.717   1.322 -0.9855 -0.1579 -2.0703
 7720SOL    HW223589   2.634   5.580   1.288  1.0336 -0.8631 -2.7638
 7721SOL     OW23590   5.909   3.546   1.380  0.6443 -0.1481 -0.5848
 7721SOL    HW123591   5.956   3.481   1.432  2.6470  0.7442 -1.1826
 7721SOL    HW223592   5.859   3.597   1.444 -1.1514 -2.2952 -0.1176
 7722SOL     OW23593   0.407   2.867   4.930 -0.2637 -0.3069  0.3268
 7722SOL    HW123594   0.463   2.835   4.860 -0.1702 -0.2233  0.3621
 7722SOL    HW223595   0.379   2.954   4.900 -0.1127 -0.2138  0.4531
 7723SOL     OW23596   3.863   1.941   5.415 -0.2692  0.0392  0.1658
 7723SOL    HW123597   3.857   1.945   5.320 -2.7960 -1.9305  0.1333
 7723SOL    HW223598   3.773   1.926   5.444  0.7098 -1.5808  2.7068
 7724SOL     OW23599   0.210   0.824   1.234 -0.1910  0.1248 -0.0931
 7724SOL    HW123600   0.127   0.831   1.280  0.2770  0.5978  0.7042
 7724SOL    HW223601   0.261   0.761   1.285  0.6323  1.2580  0.5503
 7725SOL     OW23602   2.572   2.357   3.553 -0.5946  0.4954 -0.5832
 7725SOL    HW123603   2.621   2.412   3.491  0.4029  1.3130  0.8877
 7725SOL    HW223604   2.619   2.365   3.635 -1.2618 -1.4664  0.0429
 7726SOL     OW23605   0.355   2.382   1.799  0.6152  0.0370  0.0875
 7726SOL    HW123606   0.365   2.424   1.714  0.6781 -1.0773 -0.4792
 7726SOL    HW223607   0.265   2.349   1.798 -0.3666  2.4242  1.6052
 7727SOL     OW23608   5.004   0.452   2.227  0.0734 -0.8844 -0.8836
 7727SOL    HW123609   4.987   0.525   2.167  1.9103 -0.5840 -1.1128
 7727SOL    HW223610   4.992   0.374   2.174 -1.8985 -0.8053 -0.6401
 7728SOL     OW23611   4.952   1.096   4.143 -0.1556 -0.0190 -0.6094
 7728SOL    HW123612   4.929   1.067   4.054 -0.7710  2.0098 -1.1676
 7728SOL    HW223613   4.873   1.082   4.194 -0.0826 -0.3722 -0.5916
 7729SOL     OW23614   5.249   4.644   0.311  0.2513 -0.0269  0.3251
 7729SOL    HW123615   5.187   4.612   0.245  1.4013 -1.1110 -0.2780
 7729SOL    HW223616   5.212   4.617   0.395 -1.1643  1.2517  0.1488
 7730SOL     OW23617   3.517   2.018   2.164  0.4270  0.1043 -0.1578
 7730SOL    HW123618   3.537   1.979   2.079  1.2906  0.5448 -0.1550
 7730SOL    HW223619   3.460   2.092   2.144  0.4673  0.0894 -0.3265
 7731SOL     OW23620   3.997   6.114   1.022 -0.2034  0.1311  0.3260
 7731SOL    HW123621   3.943   6.191   1.039 -0.9524 -0.4560  0.6641
 7731SOL    HW223622   4.085   6.149   1.007 -0.3971  0.9974  1.1284
 7732SOL     OW23623   2.403   4.258   1.321 -0.0337 -0.3972  0.5869
 7732SOL    HW123624   2.337   4.326   1.306  1.2423  0.8212  0.2587
 7732SOL    HW223625   2.379   4.188   1.262 -0.0526  0.7660 -0.8516
 7733SOL     OW23626   2.950   4.854   1.762  0.2999  0.0103  0.4483
 7733SOL    HW123627   2.971   4.833   1.853 -0.9376  0.3530  0.8382
 7733SOL    HW223628   2.920   4.772   1.725  0.5963 -0.0812  0.4055
 7734SOL     OW23629   0.196   2.215   0.748  0.4719 -0.0498 -0.3087
 7734SOL    HW123630   0.227   2.125   0.758  0.4947 -0.0434 -0.3226
 7734SOL    HW223631   0.225   2.242   0.661  0.7157  0.0703 -0.1909
 7735SOL     OW23632   4.003   5.337   2.601 -0.3429  0.3874  0.5032
 7735SOL    HW123633   4.085   5.385   2.592 -0.2869  0.0427 -0.9358
 7735SOL    HW223634   3.997   5.319   2.695  0.8080  1.1286  0.7448
 7736SOL     OW23635   1.702   0.810   1.462  0.0707  0.0366  0.4366
 7736SOL    HW123636   1.790   0.790   1.496  0.8310  1.7566 -0.4239
 7736SOL    HW223637   1.693   0.753   1.385  0.6410  0.2040  0.2391
 7737SOL     OW23638   2.730   2.400   2.487  0.6922 -0.4439  0.4668
 7737SOL    HW123639   2.644   2.441   2.480  1.0399  0.0759 -1.1004
 7737SOL    HW223640   2.711   2.311   2.517 -0.3462 -0.2290  0.4944
 7738SOL     OW23641   1.672   2.353   3.999 -0.1481  0.6259  0.2897
 7738SOL    HW123642   1.680   2.319   3.910  0.8923  1.1699  0.1591
 7738SOL    HW223643   1.730   2.297   4.051  0.3447  1.1974  0.3601
 7739SOL     OW23644   2.733   2.426   4.440 -0.5863 -0.4514 -0.0011
 7739SOL    HW123645   2.673   2.358   4.470 -1.7616  0.8302  0.6801
 7739SOL    HW223646   2.820   2.388   4.453 -1.2071 -1.8821  0.1777
 7740SOL     OW23647   4.230   3.493   4.095  0.5724  0.2269 -0.2879
 7740SOL    HW123648   4.280   3.544   4.031 -0.2625  0.2835 -0.9146
 7740SOL    HW223649   4.232   3.545   4.175 -0.1119  1.1565 -0.8699
 7741SOL     OW23650   2.382   1.706   3.886 -0.6100  0.0629  0.5953
 7741SOL    HW123651   2.306   1.763   3.896 -0.3748  0.4915  0.0130
 7741SOL    HW223652   2.453   1.765   3.860 -0.4720 -0.5546 -0.4860
 7742SOL     OW23653   3.370   0.894   5.050  0.1570  0.1342 -1.1138
 7742SOL    HW123654   3.439   0.831   5.026  0.3941 -0.3005  0.5975
 7742SOL    HW223655   3.292   0.840   5.061  0.7042 -0.2105  1.9471
 7743SOL     OW23656   3.710   3.392   4.846  0.6372  0.8425  0.2523
 7743SOL    HW123657   3.695   3.356   4.934  0.9282  0.8236  0.2957
 7743SOL    HW223658   3.672   3.480   4.849  0.5036  0.7827  0.3473
 7744SOL     OW23659   5.428   4.800   0.437 -0.2942  0.2700  0.3705
 7744SOL    HW123660   5.369   4.748   0.382 -1.2429  0.6391  1.0350
 7744SOL    HW223661   5.512   4.796   0.391 -0.3427 -1.8123  0.3707
 7745SOL     OW23662   4.850   5.923   0.804  0.0526 -0.4229 -1.2823
 7745SOL    HW123663   4.798   6.001   0.823 -2.4121 -1.8442 -1.7458
 7745SOL    HW223664   4.853   5.875   0.887  0.4580 -0.4514 -1.3108
 7746SOL     OW23665   0.355   0.395   3.235  0.0744  0.4153  0.3198
 7746SOL    HW123666   0.298   0.331   3.277 -0.7191  0.6840 -0.3188
 7746SOL    HW223667   0.317   0.480   3.259  0.7420  0.6297  0.6350
 7747SOL     OW23668   1.650   2.860   4.139 -0.2592 -0.5381 -0.1373
 7747SOL    HW123669   1.637   2.766   4.144  0.1294 -0.5401  2.3603
 7747SOL    HW223670   1.577   2.892   4.086 -0.6781 -2.1864 -0.5905
 7748SOL     OW23671   4.782   0.386   0.273 -0.2840  0.3435 -0.1668
 7748SOL    HW123672   4.715   0.447   0.243  1.0825  1.6046 -0.7603
 7748SOL    HW223673   4.817   0.346   0.193 -0.6215 -0.6589  0.1669
 7749SOL     OW23674   3.575   5.757   6.103  0.3213 -0.6446  0.3304
 7749SOL    HW123675   3.537   5.794   6.023 -0.6746 -1.2603  0.4952
 7749SOL    HW223676   3.631   5.826   6.138  1.5321 -0.6982 -1.3877
 7750SOL     OW23677   4.693   5.244   5.647 -0.4733 -0.1474 -0.1818
 7750SOL    HW123678   4.620   5.271   5.704 -0.9161  0.4946 -1.0276
 7750SOL    HW223679   4.678   5.292   5.565  1.5392  0.9351  0.0165
 7751SOL     OW23680   1.095   0.547   4.120 -0.2664  0.2617 -0.0589
 7751SOL    HW123681   1.101   0.461   4.077 -0.8605 -0.4505  1.2219
 7751SOL    HW223682   1.131   0.608   4.056 -0.8508 -0.7901 -1.4514
 7752SOL     OW23683   2.785   3.891   1.947 -0.5200  0.2647  0.1102
 7752SOL    HW123684   2.830   3.811   1.972  0.1535  0.3424 -0.8018
 7752SOL    HW223685   2.750   3.874   1.860 -2.3983  0.1716  0.8312
 7753SOL     OW23686   1.136   4.808   4.688 -0.1257 -0.2864 -0.4618
 7753SOL    HW123687   1.216   4.759   4.670 -0.2317 -0.3714 -0.7008
 7753SOL    HW223688   1.126   4.803   4.783  0.6540  0.5048 -0.3182
 7754SOL     OW23689   2.448   3.382   1.717  0.0090  0.2965 -0.3914
 7754SOL    HW123690   2.406   3.372   1.632 -1.3297 -0.3905  0.3046
 7754SOL    HW223691   2.382   3.427   1.771  0.6726  0.3614  0.3816
 7755SOL     OW23692   6.226   0.062   0.638  0.1341 -0.3047  0.5847
 7755SOL    HW123693   6.230   0.154   0.612 -2.0090 -0.6238 -1.1562
 7755SOL    HW223694   6.317   0.031   0.631  0.6484  1.2893 -0.2851
 7756SOL     OW23695   2.039   0.647   3.759  0.2800 -0.8457  0.9592
 7756SOL    HW123696   2.046   0.563   3.804  2.0122 -0.7622  0.9125
 7756SOL    HW223697   2.097   0.640   3.684  0.8473  0.5577  1.2237
 7757SOL     OW23698   4.812   5.792   5.503  0.2323  0.1566 -0.3604
 7757SOL    HW123699   4.843   5.881   5.491 -1.3376  1.0232  1.5495
 7757SOL    HW223700   4.847   5.744   5.428  0.5135  2.5158 -1.8230
 7758SOL     OW23701   5.438   4.220   2.212 -0.3351 -0.2021 -0.0285
 7758SOL    HW123702   5.354   4.255   2.242 -0.6273 -1.8546  1.2006
 7758SOL    HW223703   5.503   4.280   2.250 -0.8934  0.1732  0.3623
 7759SOL     OW23704   2.119   0.112   5.413  0.6597  0.3776  0.1844
 7759SOL    HW123705   2.184   0.144   5.349 -0.5278  2.0346 -0.2800
 7759SOL    HW223706   2.170   0.086   5.489  2.2065 -2.2693 -1.5790
 7760SOL     OW23707   1.875   0.332   4.840  0.0502 -0.4679 -0.2177
 7760SOL    HW123708   1.960   0.288   4.839 -0.3985 -1.3576  0.2466
 7760SOL    HW223709   1.893   0.420   4.805  0.5803 -1.6831 -3.3861
 7761SOL     OW23710   5.967   4.104   5.161  0.3163  0.3270  0.3522
 7761SOL    HW123711   5.927   4.022   5.135  0.8010 -0.3214  1.5607
 7761SOL    HW223712   5.981   4.096   5.255 -0.5202  2.1878  0.6919
 7762SOL     OW23713   3.481   4.182   1.882 -0.6776 -0.0638  0.6567
 7762SOL    HW123714   3.525   4.226   1.809  0.4819 -2.5893 -0.2861
 7762SOL    HW223715   3.392   4.166   1.851 -1.7161  3.0071  1.6890
 7763SOL     OW23716   2.343   5.160   5.686 -0.0403  0.1776  0.2383
 7763SOL    HW123717   2.293   5.113   5.619 -0.1306 -0.3562  0.6771
 7763SOL    HW223718   2.365   5.094   5.751  0.7877  0.5151  0.3167
 7764SOL     OW23719   1.802   1.904   2.520 -0.0085  0.4631  0.4343
 7764SOL    HW123720   1.891   1.934   2.537  0.3332  0.9644 -1.9247
 7764SOL    HW223721   1.758   1.912   2.605  2.2494 -0.1818  1.7698
 7765SOL     OW23722   3.312   2.002   1.885  0.1826  0.4730 -0.3872
 7765SOL    HW123723   3.240   2.029   1.943  1.4049  1.8051  0.6160
 7765SOL    HW223724   3.289   1.914   1.856 -1.7907  0.8320 -0.0331
 7766SOL     OW23725   5.512   0.150   5.342 -0.7665  0.7857 -0.0821
 7766SOL    HW123726   5.443   0.144   5.276 -0.8786 -0.6248  0.1448
 7766SOL    HW223727   5.514   0.064   5.383 -1.1495  1.7861  2.2206
 7767SOL     OW23728   2.598   3.243   6.032 -0.1353 -0.5853  0.6982
 7767SOL    HW123729   2.511   3.206   6.018 -1.7490  2.4793  1.7633
 7767SOL    HW223730   2.618   3.289   5.951  0.1867 -0.7304  0.6943
 7768SOL     OW23731   3.389   1.832   2.750  0.4481  0.1980 -0.6429
 7768SOL    HW123732   3.398   1.928   2.746 -1.5445  0.3987 -1.7465
 7768SOL    HW223733   3.379   1.813   2.843 -2.1879  1.4728 -0.5732
 7769SOL     OW23734   3.123   5.045   5.554 -0.0990 -0.2099  0.7581
 7769SOL    HW123735   3.087   5.017   5.471 -0.2993  0.5443  0.5830
 7769SOL    HW223736   3.211   5.078   5.533 -0.5795  1.0443  0.6528
 7770SOL     OW23737   4.901   1.157   5.554  0.4677  0.1827 -0.5481
 7770SOL    HW123738   4.896   1.084   5.493 -0.7998  0.1238 -0.3989
 7770SOL    HW223739   4.810   1.177   5.575  0.8485  0.8076  0.5997
 7771SOL     OW23740   0.820   5.803   0.955 -0.0304  0.6232 -0.2261
 7771SOL    HW123741   0.881   5.736   0.925  0.5918 -0.5817  3.3444
 7771SOL    HW223742   0.758   5.757   1.010 -0.8058  2.6850  0.7315
 7772SOL     OW23743   3.408   6.033   3.751  0.5245 -0.3544 -0.4562
 7772SOL    HW123744   3.379   6.017   3.661  1.2387 -1.3132 -0.5314
 7772SOL    HW223745   3.398   5.948   3.794 -1.9268  0.5738  1.0105
 7773SOL     OW23746   2.760   2.963   1.791  0.2144  0.2659  0.2648
 7773SOL    HW123747   2.702   2.911   1.848 -0.1345 -0.7815 -1.0054
 7773SOL    HW223748   2.845   2.961   1.836  0.3147 -1.7516  0.0811
 7774SOL     OW23749   2.368   2.630   3.710 -0.4455  0.3848 -0.0370
 7774SOL    HW123750   2.412   2.690   3.650 -0.2608  0.8275  0.5338
 7774SOL    HW223751   2.390   2.663   3.797 -1.7498  0.5073  0.2701
 7775SOL     OW23752   4.833   5.110   4.901  0.4846  0.0009  0.1360
 7775SOL    HW123753   4.881   5.049   4.957 -1.5045 -0.2638  1.7058
 7775SOL    HW223754   4.794   5.173   4.963 -1.6272 -0.1736 -0.9132
 7776SOL     OW23755   2.169   1.027   2.744 -0.4329 -0.1204  0.1365
 7776SOL    HW123756   2.217   0.948   2.720  0.6183  0.9869 -1.6580
 7776SOL    HW223757   2.232   1.079   2.795 -0.2015  0.6652 -0.9111
 7777SOL     OW23758   4.661   2.360   3.413  0.1516  0.1222  0.1525
 7777SOL    HW123759   4.713   2.294   3.458 -0.4005 -0.9403 -0.7284
 7777SOL    HW223760   4.622   2.411   3.484  0.6587 -0.4262  0.8477
 7778SOL     OW23761   5.874   5.369   5.582 -0.0603 -0.6661 -0.1813
 7778SOL    HW123762   5.917   5.328   5.657 -0.2791  3.2087  2.3176
 7778SOL    HW223763   5.784   5.385   5.611 -0.4310  0.0732 -1.6272
 7779SOL     OW23764   2.846   0.051   4.731  0.6498 -0.3513  0.5962
 7779SOL    HW123765   2.845   0.120   4.796  0.1223  0.0835  0.1438
 7779SOL    HW223766   2.766   0.065   4.680  0.5289 -1.2972  0.5003
 7780SOL     OW23767   3.472   0.686   5.854 -0.3600 -0.0967 -0.1245
 7780SOL    HW123768   3.521   0.768   5.845  1.7876 -1.4445 -1.9074
 7780SOL    HW223769   3.540   0.618   5.859 -2.0381 -1.9804 -1.3299
 7781SOL     OW23770   1.834   1.724   1.048  0.0288 -0.5017  0.2987
 7781SOL    HW123771   1.928   1.723   1.030 -0.0033  2.2652 -0.5249
 7781SOL    HW223772   1.797   1.658   0.989  1.2519 -0.1792 -0.8728
 7782SOL     OW23773   3.620   4.489   0.881  0.3550  0.0101  0.6491
 7782SOL    HW123774   3.558   4.444   0.823  2.5950 -1.4017 -0.7878
 7782SOL    HW223775   3.596   4.459   0.969 -0.9206 -0.5532  0.1434
 7783SOL     OW23776   4.036   4.427   5.988 -0.2464  0.2374  0.3480
 7783SOL    HW123777   3.998   4.456   5.906 -1.2278  1.2752  1.1498
 7783SOL    HW223778   3.985   4.471   6.056  0.3618 -0.8075  1.5280
 7784SOL     OW23779   2.287   4.060   0.025  0.7663  0.1778 -0.0490
 7784SOL    HW123780   2.373   4.098   0.008  0.1966  2.1148  0.9772
 7784SOL    HW223781   2.227   4.134   0.016 -0.8797 -1.2317 -1.2430
 7785SOL     OW23782   4.169   0.288   0.153 -0.5399 -0.3312  0.5891
 7785SOL    HW123783   4.188   0.344   0.229  1.2179 -0.2840  0.1568
 7785SOL    HW223784   4.251   0.285   0.104 -1.1956 -1.6186 -0.5062
 7786SOL     OW23785   4.779   4.601   2.331 -0.3258  0.4088  0.6466
 7786SOL    HW123786   4.762   4.525   2.388  1.7393 -0.8428 -0.2558
 7786SOL    HW223787   4.705   4.659   2.345 -0.5638 -0.4286  3.6150
 7787SOL     OW23788   1.253   2.030   1.756  0.4971  0.7947  0.1347
 7787SOL    HW123789   1.197   2.107   1.767  0.3979  0.7781 -0.2651
 7787SOL    HW223790   1.272   2.027   1.663 -0.4694 -0.3558 -0.0477
 7788SOL     OW23791   2.333   2.317   4.147 -0.3274  0.5510 -0.1269
 7788SOL    HW123792   2.373   2.248   4.093 -0.1163  0.6245 -0.0675
 7788SOL    HW223793   2.407   2.354   4.196 -0.6724 -0.3176  1.1027
 7789SOL     OW23794   3.100   4.869   4.375  0.1131 -0.6815  0.1142
 7789SOL    HW123795   3.005   4.869   4.360  0.0994  0.8222  0.0490
 7789SOL    HW223796   3.109   4.863   4.470 -0.0931  0.3947  0.2123
 7790SOL     OW23797   4.349   3.286   3.972  0.3192 -0.3148  0.8764
 7790SOL    HW123798   4.297   3.212   3.940  0.4267  0.1438 -0.4134
 7790SOL    HW223799   4.284   3.353   3.993  0.3497  0.0933 -0.2957
 7791SOL     OW23800   3.386   2.258   2.101 -0.0586  0.0763  0.3321
 7791SOL    HW123801   3.425   2.329   2.151  0.2957  0.6020 -0.6679
 7791SOL    HW223802   3.311   2.298   2.057  0.4630 -0.0094 -0.6737
 7792SOL     OW23803   1.751   4.876   5.917 -0.3183 -0.3643 -0.4806
 7792SOL    HW123804   1.808   4.804   5.892 -1.8770 -2.0643  0.6033
 7792SOL    HW223805   1.705   4.899   5.836  0.9701  0.1763 -1.0720
 7793SOL     OW23806   6.178   0.959   5.734  0.4464  0.2095  0.0864
 7793SOL    HW123807   6.134   0.882   5.697  0.0850 -0.1265  1.1723
 7793SOL    HW223808   6.269   0.932   5.745  0.5156  0.2478 -0.3645
 7794SOL     OW23809   3.834   2.610   0.755  0.0564  0.2556 -0.4012
 7794SOL    HW123810   3.915   2.616   0.704  0.2000 -0.4399 -0.2612
 7794SOL    HW223811   3.861   2.621   0.846  0.3608 -2.2984 -0.1068
 7795SOL     OW23812   5.738   3.525   1.786  0.0869 -0.5712 -0.0706
 7795SOL    HW123813   5.692   3.465   1.846  2.3231 -1.5126  0.7968
 7795SOL    HW223814   5.830   3.500   1.793  1.3452  3.6114  1.0911
 7796SOL     OW23815   3.726   4.427   4.380  0.1370 -0.1789  0.4674
 7796SOL    HW123816   3.648   4.391   4.338  0.2633 -1.6862  1.4445
 7796SOL    HW223817   3.693   4.498   4.435 -0.1082  1.3924 -1.6074
 7797SOL     OW23818   0.434   2.558   5.643 -0.1274  0.0651  0.2135
 7797SOL    HW123819   0.428   2.641   5.691  1.5455  0.2459  0.1468
 7797SOL    HW223820   0.473   2.497   5.706  0.2031 -0.2292 -0.2747
 7798SOL     OW23821   1.956   0.063   5.167 -0.3000  0.6269 -0.1961
 7798SOL    HW123822   1.877   0.114   5.185 -0.9138 -0.1738 -0.5405
 7798SOL    HW223823   2.016   0.086   5.238 -1.2116  0.5008  0.6391
 7799SOL     OW23824   4.136   5.232   3.962 -0.3152 -0.2081  0.6452
 7799SOL    HW123825   4.220   5.188   3.977 -0.8854 -1.3441  0.6617
 7799SOL    HW223826   4.092   5.227   4.047 -0.2150  0.8113  0.7644
 7800SOL     OW23827   0.641   5.574   3.184  0.2283  0.3253 -0.5698
 7800SOL    HW123828   0.566   5.541   3.134  0.4863  0.4932 -1.0711
 7800SOL    HW223829   0.608   5.655   3.224 -0.6667 -0.9369  1.3543
 7801SOL     OW23830   4.733   0.452   4.562 -0.4426 -0.0691 -0.3192
 7801SOL    HW123831   4.759   0.406   4.483 -2.1037 -0.6349 -0.5618
 7801SOL    HW223832   4.638   0.450   4.562 -0.5129  1.1325  0.9897
 7802SOL     OW23833   5.944   4.860   1.667 -0.4782  0.5123  0.6806
 7802SOL    HW123834   5.871   4.800   1.658 -0.2504  0.0570  1.7285
 7802SOL    HW223835   5.954   4.872   1.761  0.8240  0.5343  0.5537
 7803SOL     OW23836   1.017   2.343   4.995 -0.1414 -0.1906 -0.0677
 7803SOL    HW123837   0.939   2.355   5.049  0.0243 -1.1734  0.4224
 7803SOL    HW223838   1.053   2.259   5.024  1.3721  0.4891  0.0546
 7804SOL     OW23839   0.210   1.614   1.729  0.1463  0.3483  0.0446
 7804SOL    HW123840   0.167   1.646   1.650 -1.3955 -1.4567  0.0553
 7804SOL    HW223841   0.169   1.662   1.801 -0.8789 -0.3377 -0.0564
 7805SOL     OW23842   2.273   4.146   2.891 -0.1300  0.0003  0.3218
 7805SOL    HW123843   2.278   4.079   2.959 -0.9936  0.7127  1.1242
 7805SOL    HW223844   2.185   4.138   2.855  0.4503 -0.6225 -1.0081
 7806SOL     OW23845   3.200   3.463   3.061 -0.5967  0.7403  0.3849
 7806SOL    HW123846   3.173   3.429   2.976  1.5656  1.3524 -0.6165
 7806SOL    HW223847   3.136   3.531   3.081 -0.4718  1.4015 -1.3370
 7807SOL     OW23848   5.345   5.044   4.433  0.3791  0.4293 -0.8171
 7807SOL    HW123849   5.364   5.003   4.350  0.2076  0.5196 -0.9019
 7807SOL    HW223850   5.287   5.117   4.411 -0.2000  0.0592 -0.5467
 7808SOL     OW23851   0.124   5.296   4.107  0.1917 -0.0012 -0.3403
 7808SOL    HW123852   0.218   5.292   4.125  0.3496 -0.8091 -1.2638
 7808SOL    HW223853   0.117   5.307   4.012 -0.6363 -0.9966 -0.4210
 7809SOL     OW23854   4.614   4.584   3.756 -0.0491 -0.3822  0.3439
 7809SOL    HW123855   4.675   4.658   3.752 -0.0191 -0.4713 -2.1008
 7809SOL    HW223856   4.660   4.517   3.807  2.0828 -0.5489 -1.6709
 7810SOL     OW23857   5.536   2.414   2.227  0.1867  0.6483 -0.5397
 7810SOL    HW123858   5.506   2.471   2.156 -1.0330 -0.0906 -0.6570
 7810SOL    HW223859   5.466   2.349   2.236  0.4319  0.5714  1.1671
 7811SOL     OW23860   2.476   2.919   0.324  0.4257 -0.1908  0.4259
 7811SOL    HW123861   2.442   3.005   0.348 -0.5574 -0.2552 -0.6634
 7811SOL    HW223862   2.485   2.922   0.229  0.7417 -1.1671  0.4124
 7812SOL     OW23863   1.811   3.440   5.986 -0.1452  0.0600 -0.1420
 7812SOL    HW123864   1.737   3.418   6.043  0.2562 -0.4281  0.2015
 7812SOL    HW223865   1.800   3.383   5.910 -0.5085  0.4872 -0.4089
 7813SOL     OW23866   3.527   5.472   2.333 -0.1357  0.4229 -0.3114
 7813SOL    HW123867   3.454   5.505   2.384  0.0885  0.8862 -0.2833
 7813SOL    HW223868   3.509   5.379   2.322 -1.6143  0.8208 -1.7515
 7814SOL     OW23869   1.058   2.260   1.748  0.2008  0.6885  0.0078
 7814SOL    HW123870   0.994   2.279   1.817 -1.2111 -0.9727 -0.7629
 7814SOL    HW223871   1.012   2.281   1.666  0.8452  0.0571 -0.5359
 7815SOL     OW23872   5.262   4.436   0.033 -0.1005 -0.5634  0.0848
 7815SOL    HW123873   5.189   4.469   0.084 -0.8901 -1.5784 -0.3564
 7815SOL    HW223874   5.339   4.454   0.087 -0.7489 -0.1681  0.8937
 7816SOL     OW23875   1.699   4.361   4.104 -0.2095  0.4738  0.0175
 7816SOL    HW123876   1.742   4.348   4.188  1.0290  1.1122 -0.4885
 7816SOL    HW223877   1.716   4.453   4.082 -2.0865  0.8504 -0.0842
 7817SOL     OW23878   0.124   1.925   1.758  0.5436 -0.3835 -0.1379
 7817SOL    HW123879   0.084   1.957   1.839  1.5833  0.3983  0.0848
 7817SOL    HW223880   0.054   1.929   1.693  0.1225  0.4951  0.3596
 7818SOL     OW23881   1.682   3.380   1.617 -0.4392  0.0365 -0.6303
 7818SOL    HW123882   1.624   3.328   1.673 -0.1131 -0.1706 -0.4877
 7818SOL    HW223883   1.770   3.347   1.635 -0.0096  1.8077  0.7701
 7819SOL     OW23884   1.076   0.600   0.034 -0.4168  0.1140  0.3039
 7819SOL    HW123885   1.049   0.511   0.055  0.5890  0.1233  1.7975
 7819SOL    HW223886   1.022   0.625  -0.042 -0.9825 -1.6033  0.1063
 7820SOL     OW23887   4.734   2.318   4.015  0.3379 -0.1479 -0.0271
 7820SOL    HW123888   4.702   2.278   3.934  1.6046 -0.6148 -0.3242
 7820SOL    HW223889   4.683   2.398   4.025  0.0539 -0.1746 -1.1968
 7821SOL     OW23890   3.137   0.039   1.851  0.0928 -0.5737  0.5432
 7821SOL    HW123891   3.141   0.106   1.919 -1.8556  0.3056 -0.1667
 7821SOL    HW223892   3.128  -0.044   1.899  0.1262 -0.1097  1.3606
 7822SOL     OW23893   5.154   2.593   5.117 -0.3833 -0.0273  0.2553
 7822SOL    HW123894   5.102   2.659   5.071 -1.0962 -1.0756 -0.4862
 7822SOL    HW223895   5.245   2.615   5.097 -0.6596 -0.1675 -1.2708
 7823SOL     OW23896   1.735   6.231   3.512 -0.4723  0.1175 -0.0578
 7823SOL    HW123897   1.724   6.317   3.472 -1.5086 -0.3270 -0.7617
 7823SOL    HW223898   1.651   6.214   3.555  0.7605  0.8342  2.9219
 7824SOL     OW23899   2.881   5.194   0.094 -0.6171  0.1874  0.1851
 7824SOL    HW123900   2.854   5.156   0.010 -1.2529 -0.0054  0.4748
 7824SOL    HW223901   2.860   5.287   0.086  1.2204  0.5860 -0.6421
 7825NA      NA23902   5.934   3.483   0.015  0.0266  0.4197  0.0198
 7826NA      NA23903   3.834   4.385   1.488 -0.4267  0.1973 -0.1410
 7827NA      NA23904   2.370   0.017   1.230 -0.6049  0.1125  0.0681
 7828NA      NA23905   2.422   2.053   1.772 -0.0863 -0.5231  0.2152
 7829NA      NA23906   3.428   1.100   5.074  0.4550 -0.0656 -0.3454
 7830NA      NA23907   5.147   1.746   2.701 -0.0708 -0.4596 -0.2522
 7831NA      NA23908   0.093   0.257   5.695 -0.8063 -0.0030 -0.0459
 7832NA      NA23909   4.745   1.074   3.389  0.2509  0.0768  0.2914
 7833NA      NA23910   5.145   2.202   0.824  0.1289 -0.2709  0.1617
 7834NA      NA23911   5.021   1.301   5.635  0.0401 -0.0036 -0.0938
 7835NA      NA23912   2.072   0.906   0.578 -0.4149 -0.4674 -0.1851
 7836NA      NA23913   2.088   5.918   0.333  0.4119 -0.1802 -0.0374
 7837NA      NA23914   2.578   3.123   0.212  0.1605 -0.3451 -0.5902
 7838NA      NA23915   2.281   1.049   5.906 -0.1078 -0.0169 -0.3589
 7839NA      NA23916   1.587   2.573   1.336 -0.3112 -0.1746  0.1222
 7840NA      NA23917   1.259   1.957   0.239  0.0818  0.1710 -0.0879
 7841NA      NA23918   3.026   5.217   5.680  0.6959  0.3734  0.5234
 7842NA      NA23919   1.738   2.815   5.465  0.3034 -0.0502 -0.3200
 7843NA      NA23920   2.242   4.033   2.349 -0.5203 -0.1738 -0.2975
 7844NA      NA23921   5.782   0.407   4.304 -0.5841 -0.1733 -0.5019
 7845NA      NA23922   3.487   0.829   3.628  0.2585 -0.2182  0.3514
 7846NA      NA23923   3.160   1.749   2.207 -0.1644  0.1751  0.0103
 7847CL      CL23924   0.945   2.770   0.244 -0.3650  0.6716 -0.2062
 7848CL      CL23925   3.988   4.772   3.087 -0.3424  0.0144 -0.1699
 7849CL      CL23926   2.362   4.955   5.929  0.5173 -0.0918 -0.3297
 7850CL      CL23927   4.105   2.331   5.463 -0.1848 -0.1365 -0.0359
 7851CL      CL23928   2.951   0.506   0.040 -0.3706 -0.0552  0.2876
 7852CL      CL23929   4.944   1.405   5.830 -0.0517 -0.1361 -0.3701
 7853CL      CL23930   1.972   3.449   5.285 -0.2877  0.4339 -0.5654
 7854CL      CL23931   3.165   3.090   0.701 -0.1823  0.0153 -0.3387
 7855CL      CL23932   4.142   1.448   4.583  0.1203 -0.1470  0.1112
 7856CL      CL23933   1.893   6.144   1.500 -0.2064  0.2735 -0.1370
 7857CL      CL23934   0.827   1.261   5.812 -0.1755 -0.2011 -0.0052
 7858CL      CL23935   1.876   5.841   0.246 -0.1440 -0.2044  0.2820
 7859CL      CL23936   2.535   2.905   2.856 -0.3309  0.2776  0.2423
 7860CL      CL23937   4.577   5.540   4.289  0.2475 -0.1705  0.1673
 7861CL      CL23938   5.958   3.318   0.767  0.0779  0.5582 -0.2014
 7862CL      CL23939   2.889   1.277   3.604 -0.3713 -0.2919  0.2074
 7863CL      CL23940   2.786   3.901   2.761  0.2460 -0.0776 -0.1306
 7864CL      CL23941   4.541   4.361   0.200 -0.3273  0.1071  0.1747
 7865CL      CL23942   4.159   2.260   1.412  0.3269  0.2043  0.0754
 7866CL      CL23943   0.622   1.397   4.869 -0.1609  0.0852  0.1889
 7867CL      CL23944   6.173   0.871   1.394  0.0260 -0.4170  0.2823
 7868CL      CL23945   4.719   5.672   2.883  0.0344  0.0824 -0.5195
   6.23669   6.23669   6.23669
