;
;   File g2.5ocore_petim.itp  was generated
;   By user: sairam (1000)
;   On host: sairam
;   At date: Thu. August  4 10:36:41 2023
;
;   This is a standalone topology file
;
;   Created by:
;   ParmEd:       amb2gro_top_gro.py, VERSION 3.4.1
;   Executable:   amb2gro_top_gro.py
;   Library dir:  /usr/local/gromacs/share/gromacs/top
;   Command line:
;     ./amb2gro_top_gro.py -p g2.5ocore_petim.prmtop -c g2.5ocore_petim.inpcrd -t g2.5ocore_petim.itp -g g2.5ocore_petim.gro -b g2.5ocore_petim.pdb
;

;[ defaults ]
;; nbfunc        comb-rule       gen-pairs       fudgeLJ fudgeQQ
;1               2               yes             0.5          0.83333333  
;
;[ atomtypes ]
;; name    at.num    mass    charge ptype  sigma      epsilon
;os             8  16.000000  0.00000000  A     0.30000123        0.71128
;c3             6  12.010000  0.00000000  A     0.33996695      0.4577296
;h1             1   1.008000  0.00000000  A      0.2471353      0.0656888
;hc             1   1.008000  0.00000000  A     0.26495328      0.0656888
;n3             7  14.010000  0.00000000  A     0.32499985        0.71128
;c              6  12.010000  0.00000000  A     0.33996695       0.359824
;o              8  16.000000  0.00000000  A     0.29599219        0.87864


[ moleculetype ]
; Name            nrexcl
g2.5ocore_petim      3

[ atoms ]
;   nr       type  resnr residue  atom   cgnr    charge       mass  typeB    chargeB      massB
; residue    1 aaa rtp aaa q -0.0
    1         os      1    aaa     O1      1 -0.43807400  16.000000   ; qtot -0.438074
    2         c3      1    aaa     C1      2 0.04509800  12.010000   ; qtot -0.392976
    3         h1      1    aaa     H1      3 0.04771700   1.008000   ; qtot -0.345259
    4         h1      1    aaa     H2      4 0.04771700   1.008000   ; qtot -0.297542
    5         c3      1    aaa     C2      5 0.04509800  12.010000   ; qtot -0.252444
    6         h1      1    aaa     H3      6 0.04771700   1.008000   ; qtot -0.204727
    7         h1      1    aaa     H4      7 0.04771700   1.008000   ; qtot -0.157010
    8         c3      1    aaa     C3      8 0.05658600  12.010000   ; qtot -0.100424
    9         hc      1    aaa     H5      9 0.04933800   1.008000   ; qtot -0.051086
   10         hc      1    aaa     H6     10 0.04933800   1.008000   ; qtot -0.001748
   11         c3      1    aaa     C4     11 0.05658600  12.010000   ; qtot 0.054838
   12         hc      1    aaa     H7     12 0.04933800   1.008000   ; qtot 0.104176
   13         hc      1    aaa     H8     13 0.04933800   1.008000   ; qtot 0.153514
   14         c3      1    aaa     C5     14 0.00989700  12.010000   ; qtot 0.163411
   15         h1      1    aaa     H9     15 0.04845500   1.008000   ; qtot 0.211866
   16         h1      1    aaa    H10     16 0.04845500   1.008000   ; qtot 0.260321
   17         c3      1    aaa     C6     17 0.00989700  12.010000   ; qtot 0.270218
   18         h1      1    aaa    H11     18 0.04845500   1.008000   ; qtot 0.318673
   19         h1      1    aaa    H12     19 0.04845500   1.008000   ; qtot 0.367128
   20         n3      1    aaa     N1     20 -0.59936800  14.010000   ; qtot -0.232240
   21         n3      1    aaa     N2     21 -0.59936800  14.010000   ; qtot -0.831608
   22         c3      1    aaa     C7     22 0.08030200  12.010000   ; qtot -0.751306
   23         h1      1    aaa    H13     23 0.05071600   1.008000   ; qtot -0.700590
   24         h1      1    aaa    H14     24 0.05071600   1.008000   ; qtot -0.649874
   25         c3      1    aaa     C8     25 0.08030200  12.010000   ; qtot -0.569572
   26         h1      1    aaa    H15     26 0.05071600   1.008000   ; qtot -0.518856
   27         h1      1    aaa    H16     27 0.05071600   1.008000   ; qtot -0.468140
   28         c3      1    aaa     C9     28 0.08030200  12.010000   ; qtot -0.387838
   29         h1      1    aaa    H17     29 0.05071600   1.008000   ; qtot -0.337122
   30         h1      1    aaa    H18     30 0.05071600   1.008000   ; qtot -0.286406
   31         c3      1    aaa    C10     31 0.08030200  12.010000   ; qtot -0.206104
   32         h1      1    aaa    H19     32 0.05071600   1.008000   ; qtot -0.155388
   33         h1      1    aaa    H20     33 0.05071600   1.008000   ; qtot -0.104672
   34         c3      1    aaa    C11     34 0.10287800  12.010000   ; qtot -0.001794
   35         hc      1    aaa    H21     35 0.06787400   1.008000   ; qtot 0.066080
   36         hc      1    aaa    H22     36 0.06787400   1.008000   ; qtot 0.133954
   37         c3      1    aaa    C12     37 0.10287800  12.010000   ; qtot 0.236832
   38         hc      1    aaa    H23     38 0.06787400   1.008000   ; qtot 0.304706
   39         hc      1    aaa    H24     39 0.06787400   1.008000   ; qtot 0.372580
   40         c3      1    aaa    C13     40 0.10287800  12.010000   ; qtot 0.475458
   41         hc      1    aaa    H25     41 0.06787400   1.008000   ; qtot 0.543332
   42         hc      1    aaa    H26     42 0.06787400   1.008000   ; qtot 0.611206
   43         c3      1    aaa    C14     43 0.10287800  12.010000   ; qtot 0.714084
   44         hc      1    aaa    H27     44 0.06787400   1.008000   ; qtot 0.781958
   45         hc      1    aaa    H28     45 0.06787400   1.008000   ; qtot 0.849832
   46         c3      1    aaa    C15     46 -0.72585200  12.010000   ; qtot 0.123980
   47         h1      1    aaa    H29     47 0.25669700   1.008000   ; qtot 0.380677
   48         h1      1    aaa    H30     48 0.25669700   1.008000   ; qtot 0.637374
   49         c3      1    aaa    C16     49 -0.72585200  12.010000   ; qtot -0.088478
   50         h1      1    aaa    H31     50 0.25669700   1.008000   ; qtot 0.168219
   51         h1      1    aaa    H32     51 0.25669700   1.008000   ; qtot 0.424916
   52         c3      1    aaa    C17     52 -0.72585200  12.010000   ; qtot -0.300936
   53         h1      1    aaa    H33     53 0.25669700   1.008000   ; qtot -0.044239
   54         h1      1    aaa    H34     54 0.25669700   1.008000   ; qtot 0.212458
   55         c3      1    aaa    C18     55 -0.72585200  12.010000   ; qtot -0.513394
   56         h1      1    aaa    H35     56 0.25669700   1.008000   ; qtot -0.256697
   57         h1      1    aaa    H36     57 0.25669700   1.008000   ; qtot -0.000000
; residue    2 bbb rtp bbb q -0.0
   58         n3      2    bbb     N1     58 -0.59685800  14.010000   ; qtot -0.596858
   59         c3      2    bbb     C1     59 0.10137000  12.010000   ; qtot -0.495488
   60         h1      2    bbb     H1     60 0.04411300   1.008000   ; qtot -0.451375
   61         h1      2    bbb     H2     61 0.04411300   1.008000   ; qtot -0.407262
   62         c3      2    bbb     C2     62 0.10137000  12.010000   ; qtot -0.305892
   63         h1      2    bbb     H3     63 0.04411300   1.008000   ; qtot -0.261779
   64         h1      2    bbb     H4     64 0.04411300   1.008000   ; qtot -0.217666
   65         c3      2    bbb     C3     65 -0.00195300  12.010000   ; qtot -0.219619
   66         h1      2    bbb     H5     66 0.05064400   1.008000   ; qtot -0.168975
   67         h1      2    bbb     H6     67 0.05064400   1.008000   ; qtot -0.118331
   68         c3      2    bbb     C4     68 -0.01612100  12.010000   ; qtot -0.134452
   69         hc      2    bbb     H7     69 0.04936100   1.008000   ; qtot -0.085091
   70         hc      2    bbb     H8     70 0.04936100   1.008000   ; qtot -0.035730
   71         c3      2    bbb     C5     71 0.11363000  12.010000   ; qtot 0.077900
   72         hc      2    bbb     H9     72 0.06265900   1.008000   ; qtot 0.140559
   73         hc      2    bbb    H10     73 0.06265900   1.008000   ; qtot 0.203218
   74         c3      2    bbb     C6     74 0.11363000  12.010000   ; qtot 0.316848
   75         hc      2    bbb    H11     75 0.06265900   1.008000   ; qtot 0.379507
   76         hc      2    bbb    H12     76 0.06265900   1.008000   ; qtot 0.442166
   77         c3      2    bbb     C7     77 0.05858200  12.010000   ; qtot 0.500748
   78         h1      2    bbb    H13     78 0.06123400   1.008000   ; qtot 0.561982
   79         h1      2    bbb    H14     79 0.06123400   1.008000   ; qtot 0.623216
   80         c3      2    bbb     C8     80 -0.72423400  12.010000   ; qtot -0.101018
   81         h1      2    bbb    H15     81 0.25637600   1.008000   ; qtot 0.155358
   82         h1      2    bbb    H16     82 0.25637600   1.008000   ; qtot 0.411734
   83         c3      2    bbb     C9     83 -0.72423400  12.010000   ; qtot -0.312500
   84         h1      2    bbb    H17     84 0.25637600   1.008000   ; qtot -0.056124
   85         h1      2    bbb    H18     85 0.25637600   1.008000   ; qtot 0.200252
   86         os      2    bbb     O1     86 -0.20025300  16.000000   ; qtot -0.000001
; residue    3 bbb rtp bbb q -0.0
   87         n3      3    bbb     N1     87 -0.59685800  14.010000   ; qtot -0.596859
   88         c3      3    bbb     C1     88 0.10137000  12.010000   ; qtot -0.495489
   89         h1      3    bbb     H1     89 0.04411300   1.008000   ; qtot -0.451376
   90         h1      3    bbb     H2     90 0.04411300   1.008000   ; qtot -0.407263
   91         c3      3    bbb     C2     91 0.10137000  12.010000   ; qtot -0.305893
   92         h1      3    bbb     H3     92 0.04411300   1.008000   ; qtot -0.261780
   93         h1      3    bbb     H4     93 0.04411300   1.008000   ; qtot -0.217667
   94         c3      3    bbb     C3     94 -0.00195300  12.010000   ; qtot -0.219620
   95         h1      3    bbb     H5     95 0.05064400   1.008000   ; qtot -0.168976
   96         h1      3    bbb     H6     96 0.05064400   1.008000   ; qtot -0.118332
   97         c3      3    bbb     C4     97 -0.01612100  12.010000   ; qtot -0.134453
   98         hc      3    bbb     H7     98 0.04936100   1.008000   ; qtot -0.085092
   99         hc      3    bbb     H8     99 0.04936100   1.008000   ; qtot -0.035731
  100         c3      3    bbb     C5    100 0.11363000  12.010000   ; qtot 0.077899
  101         hc      3    bbb     H9    101 0.06265900   1.008000   ; qtot 0.140558
  102         hc      3    bbb    H10    102 0.06265900   1.008000   ; qtot 0.203217
  103         c3      3    bbb     C6    103 0.11363000  12.010000   ; qtot 0.316847
  104         hc      3    bbb    H11    104 0.06265900   1.008000   ; qtot 0.379506
  105         hc      3    bbb    H12    105 0.06265900   1.008000   ; qtot 0.442165
  106         c3      3    bbb     C7    106 0.05858200  12.010000   ; qtot 0.500747
  107         h1      3    bbb    H13    107 0.06123400   1.008000   ; qtot 0.561981
  108         h1      3    bbb    H14    108 0.06123400   1.008000   ; qtot 0.623215
  109         c3      3    bbb     C8    109 -0.72423400  12.010000   ; qtot -0.101019
  110         h1      3    bbb    H15    110 0.25637600   1.008000   ; qtot 0.155357
  111         h1      3    bbb    H16    111 0.25637600   1.008000   ; qtot 0.411733
  112         c3      3    bbb     C9    112 -0.72423400  12.010000   ; qtot -0.312501
  113         h1      3    bbb    H17    113 0.25637600   1.008000   ; qtot -0.056125
  114         h1      3    bbb    H18    114 0.25637600   1.008000   ; qtot 0.200251
  115         os      3    bbb     O1    115 -0.20025300  16.000000   ; qtot -0.000002
; residue    4 bbb rtp bbb q -0.0
  116         n3      4    bbb     N1    116 -0.59685800  14.010000   ; qtot -0.596860
  117         c3      4    bbb     C1    117 0.10137000  12.010000   ; qtot -0.495490
  118         h1      4    bbb     H1    118 0.04411300   1.008000   ; qtot -0.451377
  119         h1      4    bbb     H2    119 0.04411300   1.008000   ; qtot -0.407264
  120         c3      4    bbb     C2    120 0.10137000  12.010000   ; qtot -0.305894
  121         h1      4    bbb     H3    121 0.04411300   1.008000   ; qtot -0.261781
  122         h1      4    bbb     H4    122 0.04411300   1.008000   ; qtot -0.217668
  123         c3      4    bbb     C3    123 -0.00195300  12.010000   ; qtot -0.219621
  124         h1      4    bbb     H5    124 0.05064400   1.008000   ; qtot -0.168977
  125         h1      4    bbb     H6    125 0.05064400   1.008000   ; qtot -0.118333
  126         c3      4    bbb     C4    126 -0.01612100  12.010000   ; qtot -0.134454
  127         hc      4    bbb     H7    127 0.04936100   1.008000   ; qtot -0.085093
  128         hc      4    bbb     H8    128 0.04936100   1.008000   ; qtot -0.035732
  129         c3      4    bbb     C5    129 0.11363000  12.010000   ; qtot 0.077898
  130         hc      4    bbb     H9    130 0.06265900   1.008000   ; qtot 0.140557
  131         hc      4    bbb    H10    131 0.06265900   1.008000   ; qtot 0.203216
  132         c3      4    bbb     C6    132 0.11363000  12.010000   ; qtot 0.316846
  133         hc      4    bbb    H11    133 0.06265900   1.008000   ; qtot 0.379505
  134         hc      4    bbb    H12    134 0.06265900   1.008000   ; qtot 0.442164
  135         c3      4    bbb     C7    135 0.05858200  12.010000   ; qtot 0.500746
  136         h1      4    bbb    H13    136 0.06123400   1.008000   ; qtot 0.561980
  137         h1      4    bbb    H14    137 0.06123400   1.008000   ; qtot 0.623214
  138         c3      4    bbb     C8    138 -0.72423400  12.010000   ; qtot -0.101020
  139         h1      4    bbb    H15    139 0.25637600   1.008000   ; qtot 0.155356
  140         h1      4    bbb    H16    140 0.25637600   1.008000   ; qtot 0.411732
  141         c3      4    bbb     C9    141 -0.72423400  12.010000   ; qtot -0.312502
  142         h1      4    bbb    H17    142 0.25637600   1.008000   ; qtot -0.056126
  143         h1      4    bbb    H18    143 0.25637600   1.008000   ; qtot 0.200250
  144         os      4    bbb     O1    144 -0.20025300  16.000000   ; qtot -0.000003
; residue    5 bbb rtp bbb q -0.0
  145         n3      5    bbb     N1    145 -0.59685800  14.010000   ; qtot -0.596861
  146         c3      5    bbb     C1    146 0.10137000  12.010000   ; qtot -0.495491
  147         h1      5    bbb     H1    147 0.04411300   1.008000   ; qtot -0.451378
  148         h1      5    bbb     H2    148 0.04411300   1.008000   ; qtot -0.407265
  149         c3      5    bbb     C2    149 0.10137000  12.010000   ; qtot -0.305895
  150         h1      5    bbb     H3    150 0.04411300   1.008000   ; qtot -0.261782
  151         h1      5    bbb     H4    151 0.04411300   1.008000   ; qtot -0.217669
  152         c3      5    bbb     C3    152 -0.00195300  12.010000   ; qtot -0.219622
  153         h1      5    bbb     H5    153 0.05064400   1.008000   ; qtot -0.168978
  154         h1      5    bbb     H6    154 0.05064400   1.008000   ; qtot -0.118334
  155         c3      5    bbb     C4    155 -0.01612100  12.010000   ; qtot -0.134455
  156         hc      5    bbb     H7    156 0.04936100   1.008000   ; qtot -0.085094
  157         hc      5    bbb     H8    157 0.04936100   1.008000   ; qtot -0.035733
  158         c3      5    bbb     C5    158 0.11363000  12.010000   ; qtot 0.077897
  159         hc      5    bbb     H9    159 0.06265900   1.008000   ; qtot 0.140556
  160         hc      5    bbb    H10    160 0.06265900   1.008000   ; qtot 0.203215
  161         c3      5    bbb     C6    161 0.11363000  12.010000   ; qtot 0.316845
  162         hc      5    bbb    H11    162 0.06265900   1.008000   ; qtot 0.379504
  163         hc      5    bbb    H12    163 0.06265900   1.008000   ; qtot 0.442163
  164         c3      5    bbb     C7    164 0.05858200  12.010000   ; qtot 0.500745
  165         h1      5    bbb    H13    165 0.06123400   1.008000   ; qtot 0.561979
  166         h1      5    bbb    H14    166 0.06123400   1.008000   ; qtot 0.623213
  167         c3      5    bbb     C8    167 -0.72423400  12.010000   ; qtot -0.101021
  168         h1      5    bbb    H15    168 0.25637600   1.008000   ; qtot 0.155355
  169         h1      5    bbb    H16    169 0.25637600   1.008000   ; qtot 0.411731
  170         c3      5    bbb     C9    170 -0.72423400  12.010000   ; qtot -0.312503
  171         h1      5    bbb    H17    171 0.25637600   1.008000   ; qtot -0.056127
  172         h1      5    bbb    H18    172 0.25637600   1.008000   ; qtot 0.200249
  173         os      5    bbb     O1    173 -0.20025300  16.000000   ; qtot -0.000004
; residue    6 ccc rtp ccc q -2.0
  174         c3      6    ccc     C3    174 -0.04070000  12.010000   ; qtot -0.040704
  175         h1      6    ccc     H5    175 0.04610000   1.008000   ; qtot 0.005396
  176         h1      6    ccc     H6    176 0.04610000   1.008000   ; qtot 0.051496
  177         c3      6    ccc     C2    177 -0.02540000  12.010000   ; qtot 0.026096
  178         hc      6    ccc     H3    178 0.00850000   1.008000   ; qtot 0.034596
  179         hc      6    ccc     H4    179 0.00850000   1.008000   ; qtot 0.043096
  180         c3      6    ccc     C1    180 0.60210000  12.010000   ; qtot 0.645196
  181         h1      6    ccc     H1    181 -0.09250000   1.008000   ; qtot 0.552696
  182         h1      6    ccc     H2    182 -0.09250000   1.008000   ; qtot 0.460196
  183         n3      6    ccc     N1    183 -0.59700000  14.010000   ; qtot -0.136804
  184         c3      6    ccc     C4    184 0.32800000  12.010000   ; qtot 0.191196
  185         h1      6    ccc     H7    185 -0.07120000   1.008000   ; qtot 0.119996
  186         h1      6    ccc     H8    186 -0.07120000   1.008000   ; qtot 0.048796
  187         c3      6    ccc     C5    187 -0.39330000  12.010000   ; qtot -0.344504
  188         hc      6    ccc     H9    188 0.08130000   1.008000   ; qtot -0.263204
  189         hc      6    ccc    H10    189 0.08130000   1.008000   ; qtot -0.181904
  190          c      6    ccc     C6    190 1.08970000  12.010000   ; qtot 0.907796
  191          o      6    ccc     O2    191 -0.96050000  16.000000   ; qtot -0.052704
  192          o      6    ccc     O3    192 -0.96050000  16.000000   ; qtot -1.013204
  193         c3      6    ccc     C7    193 0.32800000  12.010000   ; qtot -0.685204
  194         h1      6    ccc    H11    194 -0.07120000   1.008000   ; qtot -0.756404
  195         h1      6    ccc    H12    195 -0.07120000   1.008000   ; qtot -0.827604
  196         c3      6    ccc     C8    196 -0.39330000  12.010000   ; qtot -1.220904
  197         hc      6    ccc    H13    197 0.08130000   1.008000   ; qtot -1.139604
  198         hc      6    ccc    H14    198 0.08130000   1.008000   ; qtot -1.058304
  199          c      6    ccc     C9    199 1.08970000  12.010000   ; qtot 0.031396
  200          o      6    ccc     O4    200 -0.96050000  16.000000   ; qtot -0.929104
  201          o      6    ccc     O5    201 -0.96050000  16.000000   ; qtot -1.889604
  202         os      6    ccc     O1    202 -0.11060000  16.000000   ; qtot -2.000204
; residue    7 ccc rtp ccc q -2.0
  203         c3      7    ccc     C3    203 -0.04070000  12.010000   ; qtot -2.040904
  204         h1      7    ccc     H5    204 0.04610000   1.008000   ; qtot -1.994804
  205         h1      7    ccc     H6    205 0.04610000   1.008000   ; qtot -1.948704
  206         c3      7    ccc     C2    206 -0.02540000  12.010000   ; qtot -1.974104
  207         hc      7    ccc     H3    207 0.00850000   1.008000   ; qtot -1.965604
  208         hc      7    ccc     H4    208 0.00850000   1.008000   ; qtot -1.957104
  209         c3      7    ccc     C1    209 0.60210000  12.010000   ; qtot -1.355004
  210         h1      7    ccc     H1    210 -0.09250000   1.008000   ; qtot -1.447504
  211         h1      7    ccc     H2    211 -0.09250000   1.008000   ; qtot -1.540004
  212         n3      7    ccc     N1    212 -0.59700000  14.010000   ; qtot -2.137004
  213         c3      7    ccc     C4    213 0.32800000  12.010000   ; qtot -1.809004
  214         h1      7    ccc     H7    214 -0.07120000   1.008000   ; qtot -1.880204
  215         h1      7    ccc     H8    215 -0.07120000   1.008000   ; qtot -1.951404
  216         c3      7    ccc     C5    216 -0.39330000  12.010000   ; qtot -2.344704
  217         hc      7    ccc     H9    217 0.08130000   1.008000   ; qtot -2.263404
  218         hc      7    ccc    H10    218 0.08130000   1.008000   ; qtot -2.182104
  219          c      7    ccc     C6    219 1.08970000  12.010000   ; qtot -1.092404
  220          o      7    ccc     O2    220 -0.96050000  16.000000   ; qtot -2.052904
  221          o      7    ccc     O3    221 -0.96050000  16.000000   ; qtot -3.013404
  222         c3      7    ccc     C7    222 0.32800000  12.010000   ; qtot -2.685404
  223         h1      7    ccc    H11    223 -0.07120000   1.008000   ; qtot -2.756604
  224         h1      7    ccc    H12    224 -0.07120000   1.008000   ; qtot -2.827804
  225         c3      7    ccc     C8    225 -0.39330000  12.010000   ; qtot -3.221104
  226         hc      7    ccc    H13    226 0.08130000   1.008000   ; qtot -3.139804
  227         hc      7    ccc    H14    227 0.08130000   1.008000   ; qtot -3.058504
  228          c      7    ccc     C9    228 1.08970000  12.010000   ; qtot -1.968804
  229          o      7    ccc     O4    229 -0.96050000  16.000000   ; qtot -2.929304
  230          o      7    ccc     O5    230 -0.96050000  16.000000   ; qtot -3.889804
  231         os      7    ccc     O1    231 -0.11060000  16.000000   ; qtot -4.000404
; residue    8 ccc rtp ccc q -2.0
  232         c3      8    ccc     C3    232 -0.04070000  12.010000   ; qtot -4.041104
  233         h1      8    ccc     H5    233 0.04610000   1.008000   ; qtot -3.995004
  234         h1      8    ccc     H6    234 0.04610000   1.008000   ; qtot -3.948904
  235         c3      8    ccc     C2    235 -0.02540000  12.010000   ; qtot -3.974304
  236         hc      8    ccc     H3    236 0.00850000   1.008000   ; qtot -3.965804
  237         hc      8    ccc     H4    237 0.00850000   1.008000   ; qtot -3.957304
  238         c3      8    ccc     C1    238 0.60210000  12.010000   ; qtot -3.355204
  239         h1      8    ccc     H1    239 -0.09250000   1.008000   ; qtot -3.447704
  240         h1      8    ccc     H2    240 -0.09250000   1.008000   ; qtot -3.540204
  241         n3      8    ccc     N1    241 -0.59700000  14.010000   ; qtot -4.137204
  242         c3      8    ccc     C4    242 0.32800000  12.010000   ; qtot -3.809204
  243         h1      8    ccc     H7    243 -0.07120000   1.008000   ; qtot -3.880404
  244         h1      8    ccc     H8    244 -0.07120000   1.008000   ; qtot -3.951604
  245         c3      8    ccc     C5    245 -0.39330000  12.010000   ; qtot -4.344904
  246         hc      8    ccc     H9    246 0.08130000   1.008000   ; qtot -4.263604
  247         hc      8    ccc    H10    247 0.08130000   1.008000   ; qtot -4.182304
  248          c      8    ccc     C6    248 1.08970000  12.010000   ; qtot -3.092604
  249          o      8    ccc     O2    249 -0.96050000  16.000000   ; qtot -4.053104
  250          o      8    ccc     O3    250 -0.96050000  16.000000   ; qtot -5.013604
  251         c3      8    ccc     C7    251 0.32800000  12.010000   ; qtot -4.685604
  252         h1      8    ccc    H11    252 -0.07120000   1.008000   ; qtot -4.756804
  253         h1      8    ccc    H12    253 -0.07120000   1.008000   ; qtot -4.828004
  254         c3      8    ccc     C8    254 -0.39330000  12.010000   ; qtot -5.221304
  255         hc      8    ccc    H13    255 0.08130000   1.008000   ; qtot -5.140004
  256         hc      8    ccc    H14    256 0.08130000   1.008000   ; qtot -5.058704
  257          c      8    ccc     C9    257 1.08970000  12.010000   ; qtot -3.969004
  258          o      8    ccc     O4    258 -0.96050000  16.000000   ; qtot -4.929504
  259          o      8    ccc     O5    259 -0.96050000  16.000000   ; qtot -5.890004
  260         os      8    ccc     O1    260 -0.11060000  16.000000   ; qtot -6.000604
; residue    9 ccc rtp ccc q -2.0
  261         c3      9    ccc     C3    261 -0.04070000  12.010000   ; qtot -6.041304
  262         h1      9    ccc     H5    262 0.04610000   1.008000   ; qtot -5.995204
  263         h1      9    ccc     H6    263 0.04610000   1.008000   ; qtot -5.949104
  264         c3      9    ccc     C2    264 -0.02540000  12.010000   ; qtot -5.974504
  265         hc      9    ccc     H3    265 0.00850000   1.008000   ; qtot -5.966004
  266         hc      9    ccc     H4    266 0.00850000   1.008000   ; qtot -5.957504
  267         c3      9    ccc     C1    267 0.60210000  12.010000   ; qtot -5.355404
  268         h1      9    ccc     H1    268 -0.09250000   1.008000   ; qtot -5.447904
  269         h1      9    ccc     H2    269 -0.09250000   1.008000   ; qtot -5.540404
  270         n3      9    ccc     N1    270 -0.59700000  14.010000   ; qtot -6.137404
  271         c3      9    ccc     C4    271 0.32800000  12.010000   ; qtot -5.809404
  272         h1      9    ccc     H7    272 -0.07120000   1.008000   ; qtot -5.880604
  273         h1      9    ccc     H8    273 -0.07120000   1.008000   ; qtot -5.951804
  274         c3      9    ccc     C5    274 -0.39330000  12.010000   ; qtot -6.345104
  275         hc      9    ccc     H9    275 0.08130000   1.008000   ; qtot -6.263804
  276         hc      9    ccc    H10    276 0.08130000   1.008000   ; qtot -6.182504
  277          c      9    ccc     C6    277 1.08970000  12.010000   ; qtot -5.092804
  278          o      9    ccc     O2    278 -0.96050000  16.000000   ; qtot -6.053304
  279          o      9    ccc     O3    279 -0.96050000  16.000000   ; qtot -7.013804
  280         c3      9    ccc     C7    280 0.32800000  12.010000   ; qtot -6.685804
  281         h1      9    ccc    H11    281 -0.07120000   1.008000   ; qtot -6.757004
  282         h1      9    ccc    H12    282 -0.07120000   1.008000   ; qtot -6.828204
  283         c3      9    ccc     C8    283 -0.39330000  12.010000   ; qtot -7.221504
  284         hc      9    ccc    H13    284 0.08130000   1.008000   ; qtot -7.140204
  285         hc      9    ccc    H14    285 0.08130000   1.008000   ; qtot -7.058904
  286          c      9    ccc     C9    286 1.08970000  12.010000   ; qtot -5.969204
  287          o      9    ccc     O4    287 -0.96050000  16.000000   ; qtot -6.929704
  288          o      9    ccc     O5    288 -0.96050000  16.000000   ; qtot -7.890204
  289         os      9    ccc     O1    289 -0.11060000  16.000000   ; qtot -8.000804
; residue   10 ccc rtp ccc q -2.0
  290         c3     10    ccc     C3    290 -0.04070000  12.010000   ; qtot -8.041504
  291         h1     10    ccc     H5    291 0.04610000   1.008000   ; qtot -7.995404
  292         h1     10    ccc     H6    292 0.04610000   1.008000   ; qtot -7.949304
  293         c3     10    ccc     C2    293 -0.02540000  12.010000   ; qtot -7.974704
  294         hc     10    ccc     H3    294 0.00850000   1.008000   ; qtot -7.966204
  295         hc     10    ccc     H4    295 0.00850000   1.008000   ; qtot -7.957704
  296         c3     10    ccc     C1    296 0.60210000  12.010000   ; qtot -7.355604
  297         h1     10    ccc     H1    297 -0.09250000   1.008000   ; qtot -7.448104
  298         h1     10    ccc     H2    298 -0.09250000   1.008000   ; qtot -7.540604
  299         n3     10    ccc     N1    299 -0.59700000  14.010000   ; qtot -8.137604
  300         c3     10    ccc     C4    300 0.32800000  12.010000   ; qtot -7.809604
  301         h1     10    ccc     H7    301 -0.07120000   1.008000   ; qtot -7.880804
  302         h1     10    ccc     H8    302 -0.07120000   1.008000   ; qtot -7.952004
  303         c3     10    ccc     C5    303 -0.39330000  12.010000   ; qtot -8.345304
  304         hc     10    ccc     H9    304 0.08130000   1.008000   ; qtot -8.264004
  305         hc     10    ccc    H10    305 0.08130000   1.008000   ; qtot -8.182704
  306          c     10    ccc     C6    306 1.08970000  12.010000   ; qtot -7.093004
  307          o     10    ccc     O2    307 -0.96050000  16.000000   ; qtot -8.053504
  308          o     10    ccc     O3    308 -0.96050000  16.000000   ; qtot -9.014004
  309         c3     10    ccc     C7    309 0.32800000  12.010000   ; qtot -8.686004
  310         h1     10    ccc    H11    310 -0.07120000   1.008000   ; qtot -8.757204
  311         h1     10    ccc    H12    311 -0.07120000   1.008000   ; qtot -8.828404
  312         c3     10    ccc     C8    312 -0.39330000  12.010000   ; qtot -9.221704
  313         hc     10    ccc    H13    313 0.08130000   1.008000   ; qtot -9.140404
  314         hc     10    ccc    H14    314 0.08130000   1.008000   ; qtot -9.059104
  315          c     10    ccc     C9    315 1.08970000  12.010000   ; qtot -7.969404
  316          o     10    ccc     O4    316 -0.96050000  16.000000   ; qtot -8.929904
  317          o     10    ccc     O5    317 -0.96050000  16.000000   ; qtot -9.890404
  318         os     10    ccc     O1    318 -0.11060000  16.000000   ; qtot -10.001004
; residue   11 ccc rtp ccc q -2.0
  319         c3     11    ccc     C3    319 -0.04070000  12.010000   ; qtot -10.041704
  320         h1     11    ccc     H5    320 0.04610000   1.008000   ; qtot -9.995604
  321         h1     11    ccc     H6    321 0.04610000   1.008000   ; qtot -9.949504
  322         c3     11    ccc     C2    322 -0.02540000  12.010000   ; qtot -9.974904
  323         hc     11    ccc     H3    323 0.00850000   1.008000   ; qtot -9.966404
  324         hc     11    ccc     H4    324 0.00850000   1.008000   ; qtot -9.957904
  325         c3     11    ccc     C1    325 0.60210000  12.010000   ; qtot -9.355804
  326         h1     11    ccc     H1    326 -0.09250000   1.008000   ; qtot -9.448304
  327         h1     11    ccc     H2    327 -0.09250000   1.008000   ; qtot -9.540804
  328         n3     11    ccc     N1    328 -0.59700000  14.010000   ; qtot -10.137804
  329         c3     11    ccc     C4    329 0.32800000  12.010000   ; qtot -9.809804
  330         h1     11    ccc     H7    330 -0.07120000   1.008000   ; qtot -9.881004
  331         h1     11    ccc     H8    331 -0.07120000   1.008000   ; qtot -9.952204
  332         c3     11    ccc     C5    332 -0.39330000  12.010000   ; qtot -10.345504
  333         hc     11    ccc     H9    333 0.08130000   1.008000   ; qtot -10.264204
  334         hc     11    ccc    H10    334 0.08130000   1.008000   ; qtot -10.182904
  335          c     11    ccc     C6    335 1.08970000  12.010000   ; qtot -9.093204
  336          o     11    ccc     O2    336 -0.96050000  16.000000   ; qtot -10.053704
  337          o     11    ccc     O3    337 -0.96050000  16.000000   ; qtot -11.014204
  338         c3     11    ccc     C7    338 0.32800000  12.010000   ; qtot -10.686204
  339         h1     11    ccc    H11    339 -0.07120000   1.008000   ; qtot -10.757404
  340         h1     11    ccc    H12    340 -0.07120000   1.008000   ; qtot -10.828604
  341         c3     11    ccc     C8    341 -0.39330000  12.010000   ; qtot -11.221904
  342         hc     11    ccc    H13    342 0.08130000   1.008000   ; qtot -11.140604
  343         hc     11    ccc    H14    343 0.08130000   1.008000   ; qtot -11.059304
  344          c     11    ccc     C9    344 1.08970000  12.010000   ; qtot -9.969604
  345          o     11    ccc     O4    345 -0.96050000  16.000000   ; qtot -10.930104
  346          o     11    ccc     O5    346 -0.96050000  16.000000   ; qtot -11.890604
  347         os     11    ccc     O1    347 -0.11060000  16.000000   ; qtot -12.001204
; residue   12 ccc rtp ccc q -2.0
  348         c3     12    ccc     C3    348 -0.04070000  12.010000   ; qtot -12.041904
  349         h1     12    ccc     H5    349 0.04610000   1.008000   ; qtot -11.995804
  350         h1     12    ccc     H6    350 0.04610000   1.008000   ; qtot -11.949704
  351         c3     12    ccc     C2    351 -0.02540000  12.010000   ; qtot -11.975104
  352         hc     12    ccc     H3    352 0.00850000   1.008000   ; qtot -11.966604
  353         hc     12    ccc     H4    353 0.00850000   1.008000   ; qtot -11.958104
  354         c3     12    ccc     C1    354 0.60210000  12.010000   ; qtot -11.356004
  355         h1     12    ccc     H1    355 -0.09250000   1.008000   ; qtot -11.448504
  356         h1     12    ccc     H2    356 -0.09250000   1.008000   ; qtot -11.541004
  357         n3     12    ccc     N1    357 -0.59700000  14.010000   ; qtot -12.138004
  358         c3     12    ccc     C4    358 0.32800000  12.010000   ; qtot -11.810004
  359         h1     12    ccc     H7    359 -0.07120000   1.008000   ; qtot -11.881204
  360         h1     12    ccc     H8    360 -0.07120000   1.008000   ; qtot -11.952404
  361         c3     12    ccc     C5    361 -0.39330000  12.010000   ; qtot -12.345704
  362         hc     12    ccc     H9    362 0.08130000   1.008000   ; qtot -12.264404
  363         hc     12    ccc    H10    363 0.08130000   1.008000   ; qtot -12.183104
  364          c     12    ccc     C6    364 1.08970000  12.010000   ; qtot -11.093404
  365          o     12    ccc     O2    365 -0.96050000  16.000000   ; qtot -12.053904
  366          o     12    ccc     O3    366 -0.96050000  16.000000   ; qtot -13.014404
  367         c3     12    ccc     C7    367 0.32800000  12.010000   ; qtot -12.686404
  368         h1     12    ccc    H11    368 -0.07120000   1.008000   ; qtot -12.757604
  369         h1     12    ccc    H12    369 -0.07120000   1.008000   ; qtot -12.828804
  370         c3     12    ccc     C8    370 -0.39330000  12.010000   ; qtot -13.222104
  371         hc     12    ccc    H13    371 0.08130000   1.008000   ; qtot -13.140804
  372         hc     12    ccc    H14    372 0.08130000   1.008000   ; qtot -13.059504
  373          c     12    ccc     C9    373 1.08970000  12.010000   ; qtot -11.969804
  374          o     12    ccc     O4    374 -0.96050000  16.000000   ; qtot -12.930304
  375          o     12    ccc     O5    375 -0.96050000  16.000000   ; qtot -13.890804
  376         os     12    ccc     O1    376 -0.11060000  16.000000   ; qtot -14.001404
; residue   13 ccc rtp ccc q -2.0
  377         c3     13    ccc     C3    377 -0.04070000  12.010000   ; qtot -14.042104
  378         h1     13    ccc     H5    378 0.04610000   1.008000   ; qtot -13.996004
  379         h1     13    ccc     H6    379 0.04610000   1.008000   ; qtot -13.949904
  380         c3     13    ccc     C2    380 -0.02540000  12.010000   ; qtot -13.975304
  381         hc     13    ccc     H3    381 0.00850000   1.008000   ; qtot -13.966804
  382         hc     13    ccc     H4    382 0.00850000   1.008000   ; qtot -13.958304
  383         c3     13    ccc     C1    383 0.60210000  12.010000   ; qtot -13.356204
  384         h1     13    ccc     H1    384 -0.09250000   1.008000   ; qtot -13.448704
  385         h1     13    ccc     H2    385 -0.09250000   1.008000   ; qtot -13.541204
  386         n3     13    ccc     N1    386 -0.59700000  14.010000   ; qtot -14.138204
  387         c3     13    ccc     C4    387 0.32800000  12.010000   ; qtot -13.810204
  388         h1     13    ccc     H7    388 -0.07120000   1.008000   ; qtot -13.881404
  389         h1     13    ccc     H8    389 -0.07120000   1.008000   ; qtot -13.952604
  390         c3     13    ccc     C5    390 -0.39330000  12.010000   ; qtot -14.345904
  391         hc     13    ccc     H9    391 0.08130000   1.008000   ; qtot -14.264604
  392         hc     13    ccc    H10    392 0.08130000   1.008000   ; qtot -14.183304
  393          c     13    ccc     C6    393 1.08970000  12.010000   ; qtot -13.093604
  394          o     13    ccc     O2    394 -0.96050000  16.000000   ; qtot -14.054104
  395          o     13    ccc     O3    395 -0.96050000  16.000000   ; qtot -15.014604
  396         c3     13    ccc     C7    396 0.32800000  12.010000   ; qtot -14.686604
  397         h1     13    ccc    H11    397 -0.07120000   1.008000   ; qtot -14.757804
  398         h1     13    ccc    H12    398 -0.07120000   1.008000   ; qtot -14.829004
  399         c3     13    ccc     C8    399 -0.39330000  12.010000   ; qtot -15.222304
  400         hc     13    ccc    H13    400 0.08130000   1.008000   ; qtot -15.141004
  401         hc     13    ccc    H14    401 0.08130000   1.008000   ; qtot -15.059704
  402          c     13    ccc     C9    402 1.08970000  12.010000   ; qtot -13.970004
  403          o     13    ccc     O4    403 -0.96050000  16.000000   ; qtot -14.930504
  404          o     13    ccc     O5    404 -0.96050000  16.000000   ; qtot -15.891004
  405         os     13    ccc     O1    405 -0.11060000  16.000000   ; qtot -16.001604

[ bonds ]
;    ai     aj funct         c0         c1         c2         c3
      1      2     1   0.14316 258236.480000
      1      5     1   0.14316 258236.480000
      2      8     1   0.15375 251793.120000
      5     11     1   0.15375 251793.120000
      8     14     1   0.15375 251793.120000
     11     17     1   0.15375 251793.120000
     14     20     1   0.14647 272713.120000
     17     21     1   0.14647 272713.120000
     20     28     1   0.14647 272713.120000
     20     31     1   0.14647 272713.120000
     21     22     1   0.14647 272713.120000
     21     25     1   0.14647 272713.120000
     22     34     1   0.15375 251793.120000
     25     37     1   0.15375 251793.120000
     28     40     1   0.15375 251793.120000
     31     43     1   0.15375 251793.120000
     34     55     1   0.15375 251793.120000
     37     52     1   0.15375 251793.120000
     40     49     1   0.15375 251793.120000
     43     46     1   0.15375 251793.120000
     46     86     1   0.14316 258236.480000
     49    115     1   0.14316 258236.480000
     52    144     1   0.14316 258236.480000
     55    173     1   0.14316 258236.480000
     58     59     1   0.14647 272713.120000
     58     62     1   0.14647 272713.120000
     58     65     1   0.14647 272713.120000
     59     71     1   0.15375 251793.120000
     62     74     1   0.15375 251793.120000
     65     68     1   0.15375 251793.120000
     68     77     1   0.15375 251793.120000
     71     83     1   0.15375 251793.120000
     74     80     1   0.15375 251793.120000
     77     86     1   0.14316 258236.480000
     80    202     1   0.14316 258236.480000
     83    231     1   0.14316 258236.480000
     87     88     1   0.14647 272713.120000
     87     91     1   0.14647 272713.120000
     87     94     1   0.14647 272713.120000
     88    100     1   0.15375 251793.120000
     91    103     1   0.15375 251793.120000
     94     97     1   0.15375 251793.120000
     97    106     1   0.15375 251793.120000
    100    112     1   0.15375 251793.120000
    103    109     1   0.15375 251793.120000
    106    115     1   0.14316 258236.480000
    109    260     1   0.14316 258236.480000
    112    289     1   0.14316 258236.480000
    116    117     1   0.14647 272713.120000
    116    120     1   0.14647 272713.120000
    116    123     1   0.14647 272713.120000
    117    129     1   0.15375 251793.120000
    120    132     1   0.15375 251793.120000
    123    126     1   0.15375 251793.120000
    126    135     1   0.15375 251793.120000
    129    141     1   0.15375 251793.120000
    132    138     1   0.15375 251793.120000
    135    144     1   0.14316 258236.480000
    138    318     1   0.14316 258236.480000
    141    347     1   0.14316 258236.480000
    145    146     1   0.14647 272713.120000
    145    149     1   0.14647 272713.120000
    145    152     1   0.14647 272713.120000
    146    158     1   0.15375 251793.120000
    149    161     1   0.15375 251793.120000
    152    155     1   0.15375 251793.120000
    155    164     1   0.15375 251793.120000
    158    170     1   0.15375 251793.120000
    161    167     1   0.15375 251793.120000
    164    173     1   0.14316 258236.480000
    167    376     1   0.14316 258236.480000
    170    405     1   0.14316 258236.480000
    174    177     1   0.15375 251793.120000
    174    202     1   0.14316 258236.480000
    177    180     1   0.15375 251793.120000
    180    183     1   0.14647 272713.120000
    183    184     1   0.14647 272713.120000
    183    193     1   0.14647 272713.120000
    184    187     1   0.15375 251793.120000
    187    190     1   0.15241 261918.400000
    190    191     1   0.12183 533627.360000
    190    192     1   0.12183 533627.360000
    193    196     1   0.15375 251793.120000
    196    199     1   0.15241 261918.400000
    199    200     1   0.12183 533627.360000
    199    201     1   0.12183 533627.360000
    203    206     1   0.15375 251793.120000
    203    231     1   0.14316 258236.480000
    206    209     1   0.15375 251793.120000
    209    212     1   0.14647 272713.120000
    212    213     1   0.14647 272713.120000
    212    222     1   0.14647 272713.120000
    213    216     1   0.15375 251793.120000
    216    219     1   0.15241 261918.400000
    219    220     1   0.12183 533627.360000
    219    221     1   0.12183 533627.360000
    222    225     1   0.15375 251793.120000
    225    228     1   0.15241 261918.400000
    228    229     1   0.12183 533627.360000
    228    230     1   0.12183 533627.360000
    232    235     1   0.15375 251793.120000
    232    260     1   0.14316 258236.480000
    235    238     1   0.15375 251793.120000
    238    241     1   0.14647 272713.120000
    241    242     1   0.14647 272713.120000
    241    251     1   0.14647 272713.120000
    242    245     1   0.15375 251793.120000
    245    248     1   0.15241 261918.400000
    248    249     1   0.12183 533627.360000
    248    250     1   0.12183 533627.360000
    251    254     1   0.15375 251793.120000
    254    257     1   0.15241 261918.400000
    257    258     1   0.12183 533627.360000
    257    259     1   0.12183 533627.360000
    261    264     1   0.15375 251793.120000
    261    289     1   0.14316 258236.480000
    264    267     1   0.15375 251793.120000
    267    270     1   0.14647 272713.120000
    270    271     1   0.14647 272713.120000
    270    280     1   0.14647 272713.120000
    271    274     1   0.15375 251793.120000
    274    277     1   0.15241 261918.400000
    277    278     1   0.12183 533627.360000
    277    279     1   0.12183 533627.360000
    280    283     1   0.15375 251793.120000
    283    286     1   0.15241 261918.400000
    286    287     1   0.12183 533627.360000
    286    288     1   0.12183 533627.360000
    290    293     1   0.15375 251793.120000
    290    318     1   0.14316 258236.480000
    293    296     1   0.15375 251793.120000
    296    299     1   0.14647 272713.120000
    299    300     1   0.14647 272713.120000
    299    309     1   0.14647 272713.120000
    300    303     1   0.15375 251793.120000
    303    306     1   0.15241 261918.400000
    306    307     1   0.12183 533627.360000
    306    308     1   0.12183 533627.360000
    309    312     1   0.15375 251793.120000
    312    315     1   0.15241 261918.400000
    315    316     1   0.12183 533627.360000
    315    317     1   0.12183 533627.360000
    319    322     1   0.15375 251793.120000
    319    347     1   0.14316 258236.480000
    322    325     1   0.15375 251793.120000
    325    328     1   0.14647 272713.120000
    328    329     1   0.14647 272713.120000
    328    338     1   0.14647 272713.120000
    329    332     1   0.15375 251793.120000
    332    335     1   0.15241 261918.400000
    335    336     1   0.12183 533627.360000
    335    337     1   0.12183 533627.360000
    338    341     1   0.15375 251793.120000
    341    344     1   0.15241 261918.400000
    344    345     1   0.12183 533627.360000
    344    346     1   0.12183 533627.360000
    348    351     1   0.15375 251793.120000
    348    376     1   0.14316 258236.480000
    351    354     1   0.15375 251793.120000
    354    357     1   0.14647 272713.120000
    357    358     1   0.14647 272713.120000
    357    367     1   0.14647 272713.120000
    358    361     1   0.15375 251793.120000
    361    364     1   0.15241 261918.400000
    364    365     1   0.12183 533627.360000
    364    366     1   0.12183 533627.360000
    367    370     1   0.15375 251793.120000
    370    373     1   0.15241 261918.400000
    373    374     1   0.12183 533627.360000
    373    375     1   0.12183 533627.360000
    377    380     1   0.15375 251793.120000
    377    405     1   0.14316 258236.480000
    380    383     1   0.15375 251793.120000
    383    386     1   0.14647 272713.120000
    386    387     1   0.14647 272713.120000
    386    396     1   0.14647 272713.120000
    387    390     1   0.15375 251793.120000
    390    393     1   0.15241 261918.400000
    393    394     1   0.12183 533627.360000
    393    395     1   0.12183 533627.360000
    396    399     1   0.15375 251793.120000
    399    402     1   0.15241 261918.400000
    402    403     1   0.12183 533627.360000
    402    404     1   0.12183 533627.360000
      2      3     1   0.10969 276646.080000
      2      4     1   0.10969 276646.080000
      5      6     1   0.10969 276646.080000
      5      7     1   0.10969 276646.080000
      8      9     1   0.10969 276646.080000
      8     10     1   0.10969 276646.080000
     11     12     1   0.10969 276646.080000
     11     13     1   0.10969 276646.080000
     14     15     1   0.10969 276646.080000
     14     16     1   0.10969 276646.080000
     17     18     1   0.10969 276646.080000
     17     19     1   0.10969 276646.080000
     22     23     1   0.10969 276646.080000
     22     24     1   0.10969 276646.080000
     25     26     1   0.10969 276646.080000
     25     27     1   0.10969 276646.080000
     28     29     1   0.10969 276646.080000
     28     30     1   0.10969 276646.080000
     31     32     1   0.10969 276646.080000
     31     33     1   0.10969 276646.080000
     34     35     1   0.10969 276646.080000
     34     36     1   0.10969 276646.080000
     37     38     1   0.10969 276646.080000
     37     39     1   0.10969 276646.080000
     40     41     1   0.10969 276646.080000
     40     42     1   0.10969 276646.080000
     43     44     1   0.10969 276646.080000
     43     45     1   0.10969 276646.080000
     46     47     1   0.10969 276646.080000
     46     48     1   0.10969 276646.080000
     49     50     1   0.10969 276646.080000
     49     51     1   0.10969 276646.080000
     52     53     1   0.10969 276646.080000
     52     54     1   0.10969 276646.080000
     55     56     1   0.10969 276646.080000
     55     57     1   0.10969 276646.080000
     59     60     1   0.10969 276646.080000
     59     61     1   0.10969 276646.080000
     62     63     1   0.10969 276646.080000
     62     64     1   0.10969 276646.080000
     65     66     1   0.10969 276646.080000
     65     67     1   0.10969 276646.080000
     68     69     1   0.10969 276646.080000
     68     70     1   0.10969 276646.080000
     71     72     1   0.10969 276646.080000
     71     73     1   0.10969 276646.080000
     74     75     1   0.10969 276646.080000
     74     76     1   0.10969 276646.080000
     77     78     1   0.10969 276646.080000
     77     79     1   0.10969 276646.080000
     80     81     1   0.10969 276646.080000
     80     82     1   0.10969 276646.080000
     83     84     1   0.10969 276646.080000
     83     85     1   0.10969 276646.080000
     88     89     1   0.10969 276646.080000
     88     90     1   0.10969 276646.080000
     91     92     1   0.10969 276646.080000
     91     93     1   0.10969 276646.080000
     94     95     1   0.10969 276646.080000
     94     96     1   0.10969 276646.080000
     97     98     1   0.10969 276646.080000
     97     99     1   0.10969 276646.080000
    100    101     1   0.10969 276646.080000
    100    102     1   0.10969 276646.080000
    103    104     1   0.10969 276646.080000
    103    105     1   0.10969 276646.080000
    106    107     1   0.10969 276646.080000
    106    108     1   0.10969 276646.080000
    109    110     1   0.10969 276646.080000
    109    111     1   0.10969 276646.080000
    112    113     1   0.10969 276646.080000
    112    114     1   0.10969 276646.080000
    117    118     1   0.10969 276646.080000
    117    119     1   0.10969 276646.080000
    120    121     1   0.10969 276646.080000
    120    122     1   0.10969 276646.080000
    123    124     1   0.10969 276646.080000
    123    125     1   0.10969 276646.080000
    126    127     1   0.10969 276646.080000
    126    128     1   0.10969 276646.080000
    129    130     1   0.10969 276646.080000
    129    131     1   0.10969 276646.080000
    132    133     1   0.10969 276646.080000
    132    134     1   0.10969 276646.080000
    135    136     1   0.10969 276646.080000
    135    137     1   0.10969 276646.080000
    138    139     1   0.10969 276646.080000
    138    140     1   0.10969 276646.080000
    141    142     1   0.10969 276646.080000
    141    143     1   0.10969 276646.080000
    146    147     1   0.10969 276646.080000
    146    148     1   0.10969 276646.080000
    149    150     1   0.10969 276646.080000
    149    151     1   0.10969 276646.080000
    152    153     1   0.10969 276646.080000
    152    154     1   0.10969 276646.080000
    155    156     1   0.10969 276646.080000
    155    157     1   0.10969 276646.080000
    158    159     1   0.10969 276646.080000
    158    160     1   0.10969 276646.080000
    161    162     1   0.10969 276646.080000
    161    163     1   0.10969 276646.080000
    164    165     1   0.10969 276646.080000
    164    166     1   0.10969 276646.080000
    167    168     1   0.10969 276646.080000
    167    169     1   0.10969 276646.080000
    170    171     1   0.10969 276646.080000
    170    172     1   0.10969 276646.080000
    174    175     1   0.10969 276646.080000
    174    176     1   0.10969 276646.080000
    177    178     1   0.10969 276646.080000
    177    179     1   0.10969 276646.080000
    180    181     1   0.10969 276646.080000
    180    182     1   0.10969 276646.080000
    184    185     1   0.10969 276646.080000
    184    186     1   0.10969 276646.080000
    187    188     1   0.10969 276646.080000
    187    189     1   0.10969 276646.080000
    193    194     1   0.10969 276646.080000
    193    195     1   0.10969 276646.080000
    196    197     1   0.10969 276646.080000
    196    198     1   0.10969 276646.080000
    203    204     1   0.10969 276646.080000
    203    205     1   0.10969 276646.080000
    206    207     1   0.10969 276646.080000
    206    208     1   0.10969 276646.080000
    209    210     1   0.10969 276646.080000
    209    211     1   0.10969 276646.080000
    213    214     1   0.10969 276646.080000
    213    215     1   0.10969 276646.080000
    216    217     1   0.10969 276646.080000
    216    218     1   0.10969 276646.080000
    222    223     1   0.10969 276646.080000
    222    224     1   0.10969 276646.080000
    225    226     1   0.10969 276646.080000
    225    227     1   0.10969 276646.080000
    232    233     1   0.10969 276646.080000
    232    234     1   0.10969 276646.080000
    235    236     1   0.10969 276646.080000
    235    237     1   0.10969 276646.080000
    238    239     1   0.10969 276646.080000
    238    240     1   0.10969 276646.080000
    242    243     1   0.10969 276646.080000
    242    244     1   0.10969 276646.080000
    245    246     1   0.10969 276646.080000
    245    247     1   0.10969 276646.080000
    251    252     1   0.10969 276646.080000
    251    253     1   0.10969 276646.080000
    254    255     1   0.10969 276646.080000
    254    256     1   0.10969 276646.080000
    261    262     1   0.10969 276646.080000
    261    263     1   0.10969 276646.080000
    264    265     1   0.10969 276646.080000
    264    266     1   0.10969 276646.080000
    267    268     1   0.10969 276646.080000
    267    269     1   0.10969 276646.080000
    271    272     1   0.10969 276646.080000
    271    273     1   0.10969 276646.080000
    274    275     1   0.10969 276646.080000
    274    276     1   0.10969 276646.080000
    280    281     1   0.10969 276646.080000
    280    282     1   0.10969 276646.080000
    283    284     1   0.10969 276646.080000
    283    285     1   0.10969 276646.080000
    290    291     1   0.10969 276646.080000
    290    292     1   0.10969 276646.080000
    293    294     1   0.10969 276646.080000
    293    295     1   0.10969 276646.080000
    296    297     1   0.10969 276646.080000
    296    298     1   0.10969 276646.080000
    300    301     1   0.10969 276646.080000
    300    302     1   0.10969 276646.080000
    303    304     1   0.10969 276646.080000
    303    305     1   0.10969 276646.080000
    309    310     1   0.10969 276646.080000
    309    311     1   0.10969 276646.080000
    312    313     1   0.10969 276646.080000
    312    314     1   0.10969 276646.080000
    319    320     1   0.10969 276646.080000
    319    321     1   0.10969 276646.080000
    322    323     1   0.10969 276646.080000
    322    324     1   0.10969 276646.080000
    325    326     1   0.10969 276646.080000
    325    327     1   0.10969 276646.080000
    329    330     1   0.10969 276646.080000
    329    331     1   0.10969 276646.080000
    332    333     1   0.10969 276646.080000
    332    334     1   0.10969 276646.080000
    338    339     1   0.10969 276646.080000
    338    340     1   0.10969 276646.080000
    341    342     1   0.10969 276646.080000
    341    343     1   0.10969 276646.080000
    348    349     1   0.10969 276646.080000
    348    350     1   0.10969 276646.080000
    351    352     1   0.10969 276646.080000
    351    353     1   0.10969 276646.080000
    354    355     1   0.10969 276646.080000
    354    356     1   0.10969 276646.080000
    358    359     1   0.10969 276646.080000
    358    360     1   0.10969 276646.080000
    361    362     1   0.10969 276646.080000
    361    363     1   0.10969 276646.080000
    367    368     1   0.10969 276646.080000
    367    369     1   0.10969 276646.080000
    370    371     1   0.10969 276646.080000
    370    372     1   0.10969 276646.080000
    377    378     1   0.10969 276646.080000
    377    379     1   0.10969 276646.080000
    380    381     1   0.10969 276646.080000
    380    382     1   0.10969 276646.080000
    383    384     1   0.10969 276646.080000
    383    385     1   0.10969 276646.080000
    387    388     1   0.10969 276646.080000
    387    389     1   0.10969 276646.080000
    390    391     1   0.10969 276646.080000
    390    392     1   0.10969 276646.080000
    396    397     1   0.10969 276646.080000
    396    398     1   0.10969 276646.080000
    399    400     1   0.10969 276646.080000
    399    401     1   0.10969 276646.080000

[ pairs ]
;    ai     aj funct         c0         c1         c2         c3
      1     14     1
      1     17     1
      2     11     1
      2     20     1
      5      8     1
      5     21     1
      8     28     1
      8     31     1
     11     22     1
     11     25     1
     14     40     1
     14     43     1
     17     34     1
     17     37     1
     20     49     1
     20     46     1
     21     55     1
     21     52     1
     22     37     1
     22    173     1
     25     34     1
     25    144     1
     28     43     1
     28    115     1
     31     40     1
     31     86     1
     34    164     1
     37    135     1
     40    106     1
     43     77     1
     46     68     1
     49     97     1
     52    126     1
     55    155     1
     58     83     1
     58     80     1
     58     77     1
     59     74     1
     59     68     1
     59    231     1
     62     71     1
     62     68     1
     62    202     1
     65     71     1
     65     74     1
     65     86     1
     71    203     1
     74    174     1
     80    177     1
     83    206     1
     87    112     1
     87    109     1
     87    106     1
     88    103     1
     88     97     1
     88    289     1
     91    100     1
     91     97     1
     91    260     1
     94    100     1
     94    103     1
     94    115     1
    100    261     1
    103    232     1
    109    235     1
    112    264     1
    116    141     1
    116    138     1
    116    135     1
    117    132     1
    117    126     1
    117    347     1
    120    129     1
    120    126     1
    120    318     1
    123    129     1
    123    132     1
    123    144     1
    129    319     1
    132    290     1
    138    293     1
    141    322     1
    145    170     1
    145    167     1
    145    164     1
    146    161     1
    146    155     1
    146    405     1
    149    158     1
    149    155     1
    149    376     1
    152    158     1
    152    161     1
    152    173     1
    158    377     1
    161    348     1
    167    351     1
    170    380     1
    174    183     1
    177    184     1
    177    193     1
    180    202     1
    180    187     1
    180    196     1
    183    190     1
    183    199     1
    184    196     1
    184    191     1
    184    192     1
    187    193     1
    193    200     1
    193    201     1
    203    212     1
    206    213     1
    206    222     1
    209    216     1
    209    225     1
    209    231     1
    212    219     1
    212    228     1
    213    220     1
    213    221     1
    213    225     1
    216    222     1
    222    229     1
    222    230     1
    232    241     1
    235    242     1
    235    251     1
    238    260     1
    238    245     1
    238    254     1
    241    248     1
    241    257     1
    242    254     1
    242    249     1
    242    250     1
    245    251     1
    251    258     1
    251    259     1
    261    270     1
    264    271     1
    264    280     1
    267    274     1
    267    283     1
    267    289     1
    270    277     1
    270    286     1
    271    278     1
    271    279     1
    271    283     1
    274    280     1
    280    287     1
    280    288     1
    290    299     1
    293    300     1
    293    309     1
    296    318     1
    296    303     1
    296    312     1
    299    306     1
    299    315     1
    300    312     1
    300    307     1
    300    308     1
    303    309     1
    309    316     1
    309    317     1
    319    328     1
    322    329     1
    322    338     1
    325    332     1
    325    341     1
    325    347     1
    328    335     1
    328    344     1
    329    336     1
    329    337     1
    329    341     1
    332    338     1
    338    345     1
    338    346     1
    348    357     1
    351    358     1
    351    367     1
    354    376     1
    354    361     1
    354    370     1
    357    364     1
    357    373     1
    358    370     1
    358    365     1
    358    366     1
    361    367     1
    367    374     1
    367    375     1
    377    386     1
    380    387     1
    380    396     1
    383    390     1
    383    399     1
    383    405     1
    386    393     1
    386    402     1
    387    394     1
    387    395     1
    387    399     1
    390    396     1
    396    403     1
    396    404     1
      1      9     1
      1     10     1
      1     12     1
      1     13     1
      2      6     1
      2      7     1
      2     15     1
      2     16     1
      5      3     1
      3     14     1
      3      9     1
      3     10     1
      5      4     1
      4     14     1
      4      9     1
      4     10     1
      5     18     1
      5     19     1
      6     17     1
      6     12     1
      6     13     1
      7     17     1
      7     12     1
      7     13     1
      9     20     1
      9     15     1
      9     16     1
     10     20     1
     10     15     1
     10     16     1
     12     21     1
     12     18     1
     12     19     1
     13     21     1
     13     18     1
     13     19     1
     14     29     1
     14     30     1
     14     32     1
     14     33     1
     15     28     1
     15     31     1
     16     28     1
     16     31     1
     17     23     1
     17     24     1
     17     26     1
     17     27     1
     18     22     1
     18     25     1
     19     22     1
     19     25     1
     20     41     1
     20     42     1
     20     44     1
     20     45     1
     21     35     1
     21     36     1
     21     38     1
     21     39     1
     22     26     1
     22     27     1
     22     56     1
     22     57     1
     23     25     1
     23     55     1
     23     35     1
     23     36     1
     24     25     1
     24     55     1
     24     35     1
     24     36     1
     25     53     1
     25     54     1
     26     52     1
     26     38     1
     26     39     1
     27     52     1
     27     38     1
     27     39     1
     28     32     1
     28     33     1
     28     50     1
     28     51     1
     29     31     1
     29     49     1
     29     41     1
     29     42     1
     30     31     1
     30     49     1
     30     41     1
     30     42     1
     31     47     1
     31     48     1
     32     46     1
     32     44     1
     32     45     1
     33     46     1
     33     44     1
     33     45     1
     35    173     1
     35     56     1
     35     57     1
     36    173     1
     36     56     1
     36     57     1
     38    144     1
     38     53     1
     38     54     1
     39    144     1
     39     53     1
     39     54     1
     41    115     1
     41     50     1
     41     51     1
     42    115     1
     42     50     1
     42     51     1
     44     86     1
     44     47     1
     44     48     1
     45     86     1
     45     47     1
     45     48     1
     46     78     1
     46     79     1
     47     77     1
     48     77     1
     49    107     1
     49    108     1
     50    106     1
     51    106     1
     52    136     1
     52    137     1
     53    135     1
     54    135     1
     55    165     1
     55    166     1
     56    164     1
     57    164     1
     58     72     1
     58     73     1
     58     75     1
     58     76     1
     58     69     1
     58     70     1
     59     63     1
     59     64     1
     59     66     1
     59     67     1
     59     84     1
     59     85     1
     60     62     1
     60     65     1
     60     83     1
     60     72     1
     60     73     1
     61     62     1
     61     65     1
     61     83     1
     61     72     1
     61     73     1
     62     66     1
     62     67     1
     62     81     1
     62     82     1
     63     65     1
     63     80     1
     63     75     1
     63     76     1
     64     65     1
     64     80     1
     64     75     1
     64     76     1
     65     78     1
     65     79     1
     66     77     1
     66     69     1
     66     70     1
     67     77     1
     67     69     1
     67     70     1
     69     86     1
     69     78     1
     69     79     1
     70     86     1
     70     78     1
     70     79     1
     72    231     1
     72     84     1
     72     85     1
     73    231     1
     73     84     1
     73     85     1
     75    202     1
     75     81     1
     75     82     1
     76    202     1
     76     81     1
     76     82     1
     80    175     1
     80    176     1
     81    174     1
     82    174     1
     83    204     1
     83    205     1
     84    203     1
     85    203     1
     87    101     1
     87    102     1
     87    104     1
     87    105     1
     87     98     1
     87     99     1
     88     92     1
     88     93     1
     88     95     1
     88     96     1
     88    113     1
     88    114     1
     89     91     1
     89     94     1
     89    112     1
     89    101     1
     89    102     1
     90     91     1
     90     94     1
     90    112     1
     90    101     1
     90    102     1
     91     95     1
     91     96     1
     91    110     1
     91    111     1
     92     94     1
     92    109     1
     92    104     1
     92    105     1
     93     94     1
     93    109     1
     93    104     1
     93    105     1
     94    107     1
     94    108     1
     95    106     1
     95     98     1
     95     99     1
     96    106     1
     96     98     1
     96     99     1
     98    115     1
     98    107     1
     98    108     1
     99    115     1
     99    107     1
     99    108     1
    101    289     1
    101    113     1
    101    114     1
    102    289     1
    102    113     1
    102    114     1
    104    260     1
    104    110     1
    104    111     1
    105    260     1
    105    110     1
    105    111     1
    109    233     1
    109    234     1
    110    232     1
    111    232     1
    112    262     1
    112    263     1
    113    261     1
    114    261     1
    116    130     1
    116    131     1
    116    133     1
    116    134     1
    116    127     1
    116    128     1
    117    121     1
    117    122     1
    117    124     1
    117    125     1
    117    142     1
    117    143     1
    118    120     1
    118    123     1
    118    141     1
    118    130     1
    118    131     1
    119    120     1
    119    123     1
    119    141     1
    119    130     1
    119    131     1
    120    124     1
    120    125     1
    120    139     1
    120    140     1
    121    123     1
    121    138     1
    121    133     1
    121    134     1
    122    123     1
    122    138     1
    122    133     1
    122    134     1
    123    136     1
    123    137     1
    124    135     1
    124    127     1
    124    128     1
    125    135     1
    125    127     1
    125    128     1
    127    144     1
    127    136     1
    127    137     1
    128    144     1
    128    136     1
    128    137     1
    130    347     1
    130    142     1
    130    143     1
    131    347     1
    131    142     1
    131    143     1
    133    318     1
    133    139     1
    133    140     1
    134    318     1
    134    139     1
    134    140     1
    138    291     1
    138    292     1
    139    290     1
    140    290     1
    141    320     1
    141    321     1
    142    319     1
    143    319     1
    145    159     1
    145    160     1
    145    162     1
    145    163     1
    145    156     1
    145    157     1
    146    150     1
    146    151     1
    146    153     1
    146    154     1
    146    171     1
    146    172     1
    147    149     1
    147    152     1
    147    170     1
    147    159     1
    147    160     1
    148    149     1
    148    152     1
    148    170     1
    148    159     1
    148    160     1
    149    153     1
    149    154     1
    149    168     1
    149    169     1
    150    152     1
    150    167     1
    150    162     1
    150    163     1
    151    152     1
    151    167     1
    151    162     1
    151    163     1
    152    165     1
    152    166     1
    153    164     1
    153    156     1
    153    157     1
    154    164     1
    154    156     1
    154    157     1
    156    173     1
    156    165     1
    156    166     1
    157    173     1
    157    165     1
    157    166     1
    159    405     1
    159    171     1
    159    172     1
    160    405     1
    160    171     1
    160    172     1
    162    376     1
    162    168     1
    162    169     1
    163    376     1
    163    168     1
    163    169     1
    167    349     1
    167    350     1
    168    348     1
    169    348     1
    170    378     1
    170    379     1
    171    377     1
    172    377     1
    174    181     1
    174    182     1
    175    180     1
    175    178     1
    175    179     1
    176    180     1
    176    178     1
    176    179     1
    178    202     1
    178    183     1
    178    181     1
    178    182     1
    179    202     1
    179    183     1
    179    181     1
    179    182     1
    180    185     1
    180    186     1
    180    194     1
    180    195     1
    181    184     1
    181    193     1
    182    184     1
    182    193     1
    183    188     1
    183    189     1
    183    197     1
    183    198     1
    184    194     1
    184    195     1
    185    193     1
    185    190     1
    185    188     1
    185    189     1
    186    193     1
    186    190     1
    186    188     1
    186    189     1
    188    191     1
    188    192     1
    189    191     1
    189    192     1
    194    199     1
    194    197     1
    194    198     1
    195    199     1
    195    197     1
    195    198     1
    197    200     1
    197    201     1
    198    200     1
    198    201     1
    203    210     1
    203    211     1
    204    209     1
    204    207     1
    204    208     1
    205    209     1
    205    207     1
    205    208     1
    207    212     1
    207    210     1
    207    211     1
    207    231     1
    208    212     1
    208    210     1
    208    211     1
    208    231     1
    209    214     1
    209    215     1
    209    223     1
    209    224     1
    210    213     1
    210    222     1
    211    213     1
    211    222     1
    212    217     1
    212    218     1
    212    226     1
    212    227     1
    213    223     1
    213    224     1
    214    219     1
    214    217     1
    214    218     1
    214    222     1
    215    219     1
    215    217     1
    215    218     1
    215    222     1
    217    220     1
    217    221     1
    218    220     1
    218    221     1
    223    228     1
    223    226     1
    223    227     1
    224    228     1
    224    226     1
    224    227     1
    226    229     1
    226    230     1
    227    229     1
    227    230     1
    232    239     1
    232    240     1
    233    238     1
    233    236     1
    233    237     1
    234    238     1
    234    236     1
    234    237     1
    236    260     1
    236    241     1
    236    239     1
    236    240     1
    237    260     1
    237    241     1
    237    239     1
    237    240     1
    238    243     1
    238    244     1
    238    252     1
    238    253     1
    239    242     1
    239    251     1
    240    242     1
    240    251     1
    241    246     1
    241    247     1
    241    255     1
    241    256     1
    242    252     1
    242    253     1
    243    251     1
    243    248     1
    243    246     1
    243    247     1
    244    251     1
    244    248     1
    244    246     1
    244    247     1
    246    249     1
    246    250     1
    247    249     1
    247    250     1
    252    257     1
    252    255     1
    252    256     1
    253    257     1
    253    255     1
    253    256     1
    255    258     1
    255    259     1
    256    258     1
    256    259     1
    261    268     1
    261    269     1
    262    267     1
    262    265     1
    262    266     1
    263    267     1
    263    265     1
    263    266     1
    265    270     1
    265    268     1
    265    269     1
    265    289     1
    266    270     1
    266    268     1
    266    269     1
    266    289     1
    267    272     1
    267    273     1
    267    281     1
    267    282     1
    268    271     1
    268    280     1
    269    271     1
    269    280     1
    270    275     1
    270    276     1
    270    284     1
    270    285     1
    271    281     1
    271    282     1
    272    277     1
    272    275     1
    272    276     1
    272    280     1
    273    277     1
    273    275     1
    273    276     1
    273    280     1
    275    278     1
    275    279     1
    276    278     1
    276    279     1
    281    286     1
    281    284     1
    281    285     1
    282    286     1
    282    284     1
    282    285     1
    284    287     1
    284    288     1
    285    287     1
    285    288     1
    290    297     1
    290    298     1
    291    296     1
    291    294     1
    291    295     1
    292    296     1
    292    294     1
    292    295     1
    294    318     1
    294    299     1
    294    297     1
    294    298     1
    295    318     1
    295    299     1
    295    297     1
    295    298     1
    296    301     1
    296    302     1
    296    310     1
    296    311     1
    297    300     1
    297    309     1
    298    300     1
    298    309     1
    299    304     1
    299    305     1
    299    313     1
    299    314     1
    300    310     1
    300    311     1
    301    309     1
    301    306     1
    301    304     1
    301    305     1
    302    309     1
    302    306     1
    302    304     1
    302    305     1
    304    307     1
    304    308     1
    305    307     1
    305    308     1
    310    315     1
    310    313     1
    310    314     1
    311    315     1
    311    313     1
    311    314     1
    313    316     1
    313    317     1
    314    316     1
    314    317     1
    319    326     1
    319    327     1
    320    325     1
    320    323     1
    320    324     1
    321    325     1
    321    323     1
    321    324     1
    323    328     1
    323    326     1
    323    327     1
    323    347     1
    324    328     1
    324    326     1
    324    327     1
    324    347     1
    325    330     1
    325    331     1
    325    339     1
    325    340     1
    326    329     1
    326    338     1
    327    329     1
    327    338     1
    328    333     1
    328    334     1
    328    342     1
    328    343     1
    329    339     1
    329    340     1
    330    335     1
    330    333     1
    330    334     1
    330    338     1
    331    335     1
    331    333     1
    331    334     1
    331    338     1
    333    336     1
    333    337     1
    334    336     1
    334    337     1
    339    344     1
    339    342     1
    339    343     1
    340    344     1
    340    342     1
    340    343     1
    342    345     1
    342    346     1
    343    345     1
    343    346     1
    348    355     1
    348    356     1
    349    354     1
    349    352     1
    349    353     1
    350    354     1
    350    352     1
    350    353     1
    352    376     1
    352    357     1
    352    355     1
    352    356     1
    353    376     1
    353    357     1
    353    355     1
    353    356     1
    354    359     1
    354    360     1
    354    368     1
    354    369     1
    355    358     1
    355    367     1
    356    358     1
    356    367     1
    357    362     1
    357    363     1
    357    371     1
    357    372     1
    358    368     1
    358    369     1
    359    367     1
    359    364     1
    359    362     1
    359    363     1
    360    367     1
    360    364     1
    360    362     1
    360    363     1
    362    365     1
    362    366     1
    363    365     1
    363    366     1
    368    373     1
    368    371     1
    368    372     1
    369    373     1
    369    371     1
    369    372     1
    371    374     1
    371    375     1
    372    374     1
    372    375     1
    377    384     1
    377    385     1
    378    383     1
    378    381     1
    378    382     1
    379    383     1
    379    381     1
    379    382     1
    381    386     1
    381    384     1
    381    385     1
    381    405     1
    382    386     1
    382    384     1
    382    385     1
    382    405     1
    383    388     1
    383    389     1
    383    397     1
    383    398     1
    384    387     1
    384    396     1
    385    387     1
    385    396     1
    386    391     1
    386    392     1
    386    400     1
    386    401     1
    387    397     1
    387    398     1
    388    393     1
    388    391     1
    388    392     1
    388    396     1
    389    393     1
    389    391     1
    389    392     1
    389    396     1
    391    394     1
    391    395     1
    392    394     1
    392    395     1
    397    402     1
    397    400     1
    397    401     1
    398    402     1
    398    400     1
    398    401     1
    400    403     1
    400    404     1
    401    403     1
    401    404     1

[ angles ]
;    ai     aj     ak funct         c0         c1         c2         c3
      1      2      8     1   107.9700462 569.024000
      1      5     11     1   107.9700462 569.024000
      2      1      5     1   112.4800480 524.673600
      2      8     14     1   111.5100476 526.347200
      5     11     17     1   111.5100476 526.347200
      8     14     20     1   111.0400475 552.288000
     11     17     21     1   111.0400475 552.288000
     14     20     28     1   112.3500484 533.878400
     14     20     31     1   112.3500484 533.878400
     17     21     22     1   112.3500484 533.878400
     17     21     25     1   112.3500484 533.878400
     20     28     40     1   111.0400475 552.288000
     20     31     43     1   111.0400475 552.288000
     21     22     34     1   111.0400475 552.288000
     21     25     37     1   111.0400475 552.288000
     22     21     25     1   112.3500484 533.878400
     22     34     55     1   111.5100476 526.347200
     25     37     52     1   111.5100476 526.347200
     28     20     31     1   112.3500484 533.878400
     28     40     49     1   111.5100476 526.347200
     31     43     46     1   111.5100476 526.347200
     34     55    173     1   107.9700462 569.024000
     37     52    144     1   107.9700462 569.024000
     40     49    115     1   107.9700462 569.024000
     43     46     86     1   107.9700462 569.024000
     46     86     77     1   112.4800480 524.673600
     49    115    106     1   112.4800480 524.673600
     52    144    135     1   112.4800480 524.673600
     55    173    164     1   112.4800480 524.673600
     58     59     71     1   111.0400475 552.288000
     58     62     74     1   111.0400475 552.288000
     58     65     68     1   111.0400475 552.288000
     59     58     62     1   112.3500484 533.878400
     59     58     65     1   112.3500484 533.878400
     59     71     83     1   111.5100476 526.347200
     62     58     65     1   112.3500484 533.878400
     62     74     80     1   111.5100476 526.347200
     65     68     77     1   111.5100476 526.347200
     68     77     86     1   107.9700462 569.024000
     71     83    231     1   107.9700462 569.024000
     74     80    202     1   107.9700462 569.024000
     80    202    174     1   112.4800480 524.673600
     83    231    203     1   112.4800480 524.673600
     87     88    100     1   111.0400475 552.288000
     87     91    103     1   111.0400475 552.288000
     87     94     97     1   111.0400475 552.288000
     88     87     91     1   112.3500484 533.878400
     88     87     94     1   112.3500484 533.878400
     88    100    112     1   111.5100476 526.347200
     91     87     94     1   112.3500484 533.878400
     91    103    109     1   111.5100476 526.347200
     94     97    106     1   111.5100476 526.347200
     97    106    115     1   107.9700462 569.024000
    100    112    289     1   107.9700462 569.024000
    103    109    260     1   107.9700462 569.024000
    109    260    232     1   112.4800480 524.673600
    112    289    261     1   112.4800480 524.673600
    116    117    129     1   111.0400475 552.288000
    116    120    132     1   111.0400475 552.288000
    116    123    126     1   111.0400475 552.288000
    117    116    120     1   112.3500484 533.878400
    117    116    123     1   112.3500484 533.878400
    117    129    141     1   111.5100476 526.347200
    120    116    123     1   112.3500484 533.878400
    120    132    138     1   111.5100476 526.347200
    123    126    135     1   111.5100476 526.347200
    126    135    144     1   107.9700462 569.024000
    129    141    347     1   107.9700462 569.024000
    132    138    318     1   107.9700462 569.024000
    138    318    290     1   112.4800480 524.673600
    141    347    319     1   112.4800480 524.673600
    145    146    158     1   111.0400475 552.288000
    145    149    161     1   111.0400475 552.288000
    145    152    155     1   111.0400475 552.288000
    146    145    149     1   112.3500484 533.878400
    146    145    152     1   112.3500484 533.878400
    146    158    170     1   111.5100476 526.347200
    149    145    152     1   112.3500484 533.878400
    149    161    167     1   111.5100476 526.347200
    152    155    164     1   111.5100476 526.347200
    155    164    173     1   107.9700462 569.024000
    158    170    405     1   107.9700462 569.024000
    161    167    376     1   107.9700462 569.024000
    167    376    348     1   112.4800480 524.673600
    170    405    377     1   112.4800480 524.673600
    174    177    180     1   111.5100476 526.347200
    177    174    202     1   107.9700462 569.024000
    177    180    183     1   111.0400475 552.288000
    180    183    184     1   112.3500484 533.878400
    180    183    193     1   112.3500484 533.878400
    183    184    187     1   111.0400475 552.288000
    183    193    196     1   111.0400475 552.288000
    184    183    193     1   112.3500484 533.878400
    184    187    190     1   111.0400475 529.694400
    187    190    191     1   123.2000528 564.003200
    187    190    192     1   123.2000528 564.003200
    191    190    192     1   130.2500561 651.867200
    193    196    199     1   111.0400475 529.694400
    196    199    200     1   123.2000528 564.003200
    196    199    201     1   123.2000528 564.003200
    200    199    201     1   130.2500561 651.867200
    203    206    209     1   111.5100476 526.347200
    206    209    212     1   111.0400475 552.288000
    206    203    231     1   107.9700462 569.024000
    209    212    213     1   112.3500484 533.878400
    209    212    222     1   112.3500484 533.878400
    212    213    216     1   111.0400475 552.288000
    212    222    225     1   111.0400475 552.288000
    213    216    219     1   111.0400475 529.694400
    213    212    222     1   112.3500484 533.878400
    216    219    220     1   123.2000528 564.003200
    216    219    221     1   123.2000528 564.003200
    220    219    221     1   130.2500561 651.867200
    222    225    228     1   111.0400475 529.694400
    225    228    229     1   123.2000528 564.003200
    225    228    230     1   123.2000528 564.003200
    229    228    230     1   130.2500561 651.867200
    232    235    238     1   111.5100476 526.347200
    235    232    260     1   107.9700462 569.024000
    235    238    241     1   111.0400475 552.288000
    238    241    242     1   112.3500484 533.878400
    238    241    251     1   112.3500484 533.878400
    241    242    245     1   111.0400475 552.288000
    241    251    254     1   111.0400475 552.288000
    242    241    251     1   112.3500484 533.878400
    242    245    248     1   111.0400475 529.694400
    245    248    249     1   123.2000528 564.003200
    245    248    250     1   123.2000528 564.003200
    249    248    250     1   130.2500561 651.867200
    251    254    257     1   111.0400475 529.694400
    254    257    258     1   123.2000528 564.003200
    254    257    259     1   123.2000528 564.003200
    258    257    259     1   130.2500561 651.867200
    261    264    267     1   111.5100476 526.347200
    264    267    270     1   111.0400475 552.288000
    264    261    289     1   107.9700462 569.024000
    267    270    271     1   112.3500484 533.878400
    267    270    280     1   112.3500484 533.878400
    270    271    274     1   111.0400475 552.288000
    270    280    283     1   111.0400475 552.288000
    271    274    277     1   111.0400475 529.694400
    271    270    280     1   112.3500484 533.878400
    274    277    278     1   123.2000528 564.003200
    274    277    279     1   123.2000528 564.003200
    278    277    279     1   130.2500561 651.867200
    280    283    286     1   111.0400475 529.694400
    283    286    287     1   123.2000528 564.003200
    283    286    288     1   123.2000528 564.003200
    287    286    288     1   130.2500561 651.867200
    290    293    296     1   111.5100476 526.347200
    293    290    318     1   107.9700462 569.024000
    293    296    299     1   111.0400475 552.288000
    296    299    300     1   112.3500484 533.878400
    296    299    309     1   112.3500484 533.878400
    299    300    303     1   111.0400475 552.288000
    299    309    312     1   111.0400475 552.288000
    300    299    309     1   112.3500484 533.878400
    300    303    306     1   111.0400475 529.694400
    303    306    307     1   123.2000528 564.003200
    303    306    308     1   123.2000528 564.003200
    307    306    308     1   130.2500561 651.867200
    309    312    315     1   111.0400475 529.694400
    312    315    316     1   123.2000528 564.003200
    312    315    317     1   123.2000528 564.003200
    316    315    317     1   130.2500561 651.867200
    319    322    325     1   111.5100476 526.347200
    322    325    328     1   111.0400475 552.288000
    322    319    347     1   107.9700462 569.024000
    325    328    329     1   112.3500484 533.878400
    325    328    338     1   112.3500484 533.878400
    328    329    332     1   111.0400475 552.288000
    328    338    341     1   111.0400475 552.288000
    329    332    335     1   111.0400475 529.694400
    329    328    338     1   112.3500484 533.878400
    332    335    336     1   123.2000528 564.003200
    332    335    337     1   123.2000528 564.003200
    336    335    337     1   130.2500561 651.867200
    338    341    344     1   111.0400475 529.694400
    341    344    345     1   123.2000528 564.003200
    341    344    346     1   123.2000528 564.003200
    345    344    346     1   130.2500561 651.867200
    348    351    354     1   111.5100476 526.347200
    351    348    376     1   107.9700462 569.024000
    351    354    357     1   111.0400475 552.288000
    354    357    358     1   112.3500484 533.878400
    354    357    367     1   112.3500484 533.878400
    357    358    361     1   111.0400475 552.288000
    357    367    370     1   111.0400475 552.288000
    358    357    367     1   112.3500484 533.878400
    358    361    364     1   111.0400475 529.694400
    361    364    365     1   123.2000528 564.003200
    361    364    366     1   123.2000528 564.003200
    365    364    366     1   130.2500561 651.867200
    367    370    373     1   111.0400475 529.694400
    370    373    374     1   123.2000528 564.003200
    370    373    375     1   123.2000528 564.003200
    374    373    375     1   130.2500561 651.867200
    377    380    383     1   111.5100476 526.347200
    380    383    386     1   111.0400475 552.288000
    380    377    405     1   107.9700462 569.024000
    383    386    387     1   112.3500484 533.878400
    383    386    396     1   112.3500484 533.878400
    386    387    390     1   111.0400475 552.288000
    386    396    399     1   111.0400475 552.288000
    387    390    393     1   111.0400475 529.694400
    387    386    396     1   112.3500484 533.878400
    390    393    394     1   123.2000528 564.003200
    390    393    395     1   123.2000528 564.003200
    394    393    395     1   130.2500561 651.867200
    396    399    402     1   111.0400475 529.694400
    399    402    403     1   123.2000528 564.003200
    399    402    404     1   123.2000528 564.003200
    403    402    404     1   130.2500561 651.867200
      1      2      3     1   109.7800468 425.094400
      1      2      4     1   109.7800468 425.094400
      1      5      6     1   109.7800468 425.094400
      1      5      7     1   109.7800468 425.094400
      2      8      9     1   109.8000471 387.438400
      2      8     10     1   109.8000471 387.438400
      3      2      8     1   109.5600471 388.275200
      3      2      4     1   108.4600466 328.025600
      4      2      8     1   109.5600471 388.275200
      5     11     12     1   109.8000471 387.438400
      5     11     13     1   109.8000471 387.438400
      6      5     11     1   109.5600471 388.275200
      6      5      7     1   108.4600466 328.025600
      7      5     11     1   109.5600471 388.275200
      8     14     15     1   109.5600471 388.275200
      8     14     16     1   109.5600471 388.275200
      9      8     14     1   109.8000471 387.438400
      9      8     10     1   107.5800459 329.699200
     10      8     14     1   109.8000471 387.438400
     11     17     18     1   109.5600471 388.275200
     11     17     19     1   109.5600471 388.275200
     12     11     17     1   109.8000471 387.438400
     12     11     13     1   107.5800459 329.699200
     13     11     17     1   109.8000471 387.438400
     15     14     20     1   109.8800469 414.216000
     15     14     16     1   108.4600466 328.025600
     16     14     20     1   109.8800469 414.216000
     18     17     21     1   109.8800469 414.216000
     18     17     19     1   108.4600466 328.025600
     19     17     21     1   109.8800469 414.216000
     20     28     29     1   109.8800469 414.216000
     20     28     30     1   109.8800469 414.216000
     20     31     32     1   109.8800469 414.216000
     20     31     33     1   109.8800469 414.216000
     21     22     23     1   109.8800469 414.216000
     21     22     24     1   109.8800469 414.216000
     21     25     26     1   109.8800469 414.216000
     21     25     27     1   109.8800469 414.216000
     22     34     35     1   109.8000471 387.438400
     22     34     36     1   109.8000471 387.438400
     23     22     34     1   109.5600471 388.275200
     23     22     24     1   108.4600466 328.025600
     24     22     34     1   109.5600471 388.275200
     25     37     38     1   109.8000471 387.438400
     25     37     39     1   109.8000471 387.438400
     26     25     37     1   109.5600471 388.275200
     26     25     27     1   108.4600466 328.025600
     27     25     37     1   109.5600471 388.275200
     28     40     41     1   109.8000471 387.438400
     28     40     42     1   109.8000471 387.438400
     29     28     40     1   109.5600471 388.275200
     29     28     30     1   108.4600466 328.025600
     30     28     40     1   109.5600471 388.275200
     31     43     44     1   109.8000471 387.438400
     31     43     45     1   109.8000471 387.438400
     32     31     43     1   109.5600471 388.275200
     32     31     33     1   108.4600466 328.025600
     33     31     43     1   109.5600471 388.275200
     34     55     56     1   109.5600471 388.275200
     34     55     57     1   109.5600471 388.275200
     35     34     55     1   109.8000471 387.438400
     35     34     36     1   107.5800459 329.699200
     36     34     55     1   109.8000471 387.438400
     37     52     53     1   109.5600471 388.275200
     37     52     54     1   109.5600471 388.275200
     38     37     52     1   109.8000471 387.438400
     38     37     39     1   107.5800459 329.699200
     39     37     52     1   109.8000471 387.438400
     40     49     50     1   109.5600471 388.275200
     40     49     51     1   109.5600471 388.275200
     41     40     49     1   109.8000471 387.438400
     41     40     42     1   107.5800459 329.699200
     42     40     49     1   109.8000471 387.438400
     43     46     47     1   109.5600471 388.275200
     43     46     48     1   109.5600471 388.275200
     44     43     46     1   109.8000471 387.438400
     44     43     45     1   107.5800459 329.699200
     45     43     46     1   109.8000471 387.438400
     47     46     86     1   109.7800468 425.094400
     47     46     48     1   108.4600466 328.025600
     48     46     86     1   109.7800468 425.094400
     50     49    115     1   109.7800468 425.094400
     50     49     51     1   108.4600466 328.025600
     51     49    115     1   109.7800468 425.094400
     53     52    144     1   109.7800468 425.094400
     53     52     54     1   108.4600466 328.025600
     54     52    144     1   109.7800468 425.094400
     56     55    173     1   109.7800468 425.094400
     56     55     57     1   108.4600466 328.025600
     57     55    173     1   109.7800468 425.094400
     58     59     60     1   109.8800469 414.216000
     58     59     61     1   109.8800469 414.216000
     58     62     63     1   109.8800469 414.216000
     58     62     64     1   109.8800469 414.216000
     58     65     66     1   109.8800469 414.216000
     58     65     67     1   109.8800469 414.216000
     59     71     72     1   109.8000471 387.438400
     59     71     73     1   109.8000471 387.438400
     60     59     71     1   109.5600471 388.275200
     60     59     61     1   108.4600466 328.025600
     61     59     71     1   109.5600471 388.275200
     62     74     75     1   109.8000471 387.438400
     62     74     76     1   109.8000471 387.438400
     63     62     74     1   109.5600471 388.275200
     63     62     64     1   108.4600466 328.025600
     64     62     74     1   109.5600471 388.275200
     65     68     69     1   109.8000471 387.438400
     65     68     70     1   109.8000471 387.438400
     66     65     68     1   109.5600471 388.275200
     66     65     67     1   108.4600466 328.025600
     67     65     68     1   109.5600471 388.275200
     68     77     78     1   109.5600471 388.275200
     68     77     79     1   109.5600471 388.275200
     69     68     77     1   109.8000471 387.438400
     69     68     70     1   107.5800459 329.699200
     70     68     77     1   109.8000471 387.438400
     71     83     84     1   109.5600471 388.275200
     71     83     85     1   109.5600471 388.275200
     72     71     83     1   109.8000471 387.438400
     72     71     73     1   107.5800459 329.699200
     73     71     83     1   109.8000471 387.438400
     74     80     81     1   109.5600471 388.275200
     74     80     82     1   109.5600471 388.275200
     75     74     80     1   109.8000471 387.438400
     75     74     76     1   107.5800459 329.699200
     76     74     80     1   109.8000471 387.438400
     78     77     86     1   109.7800468 425.094400
     78     77     79     1   108.4600466 328.025600
     79     77     86     1   109.7800468 425.094400
     81     80    202     1   109.7800468 425.094400
     81     80     82     1   108.4600466 328.025600
     82     80    202     1   109.7800468 425.094400
     84     83    231     1   109.7800468 425.094400
     84     83     85     1   108.4600466 328.025600
     85     83    231     1   109.7800468 425.094400
     87     88     89     1   109.8800469 414.216000
     87     88     90     1   109.8800469 414.216000
     87     91     92     1   109.8800469 414.216000
     87     91     93     1   109.8800469 414.216000
     87     94     95     1   109.8800469 414.216000
     87     94     96     1   109.8800469 414.216000
     88    100    101     1   109.8000471 387.438400
     88    100    102     1   109.8000471 387.438400
     89     88    100     1   109.5600471 388.275200
     89     88     90     1   108.4600466 328.025600
     90     88    100     1   109.5600471 388.275200
     91    103    104     1   109.8000471 387.438400
     91    103    105     1   109.8000471 387.438400
     92     91    103     1   109.5600471 388.275200
     92     91     93     1   108.4600466 328.025600
     93     91    103     1   109.5600471 388.275200
     94     97     98     1   109.8000471 387.438400
     94     97     99     1   109.8000471 387.438400
     95     94     97     1   109.5600471 388.275200
     95     94     96     1   108.4600466 328.025600
     96     94     97     1   109.5600471 388.275200
     97    106    107     1   109.5600471 388.275200
     97    106    108     1   109.5600471 388.275200
     98     97    106     1   109.8000471 387.438400
     98     97     99     1   107.5800459 329.699200
     99     97    106     1   109.8000471 387.438400
    100    112    113     1   109.5600471 388.275200
    100    112    114     1   109.5600471 388.275200
    101    100    112     1   109.8000471 387.438400
    101    100    102     1   107.5800459 329.699200
    102    100    112     1   109.8000471 387.438400
    103    109    110     1   109.5600471 388.275200
    103    109    111     1   109.5600471 388.275200
    104    103    109     1   109.8000471 387.438400
    104    103    105     1   107.5800459 329.699200
    105    103    109     1   109.8000471 387.438400
    107    106    115     1   109.7800468 425.094400
    107    106    108     1   108.4600466 328.025600
    108    106    115     1   109.7800468 425.094400
    110    109    260     1   109.7800468 425.094400
    110    109    111     1   108.4600466 328.025600
    111    109    260     1   109.7800468 425.094400
    113    112    289     1   109.7800468 425.094400
    113    112    114     1   108.4600466 328.025600
    114    112    289     1   109.7800468 425.094400
    116    117    118     1   109.8800469 414.216000
    116    117    119     1   109.8800469 414.216000
    116    120    121     1   109.8800469 414.216000
    116    120    122     1   109.8800469 414.216000
    116    123    124     1   109.8800469 414.216000
    116    123    125     1   109.8800469 414.216000
    117    129    130     1   109.8000471 387.438400
    117    129    131     1   109.8000471 387.438400
    118    117    129     1   109.5600471 388.275200
    118    117    119     1   108.4600466 328.025600
    119    117    129     1   109.5600471 388.275200
    120    132    133     1   109.8000471 387.438400
    120    132    134     1   109.8000471 387.438400
    121    120    132     1   109.5600471 388.275200
    121    120    122     1   108.4600466 328.025600
    122    120    132     1   109.5600471 388.275200
    123    126    127     1   109.8000471 387.438400
    123    126    128     1   109.8000471 387.438400
    124    123    126     1   109.5600471 388.275200
    124    123    125     1   108.4600466 328.025600
    125    123    126     1   109.5600471 388.275200
    126    135    136     1   109.5600471 388.275200
    126    135    137     1   109.5600471 388.275200
    127    126    135     1   109.8000471 387.438400
    127    126    128     1   107.5800459 329.699200
    128    126    135     1   109.8000471 387.438400
    129    141    142     1   109.5600471 388.275200
    129    141    143     1   109.5600471 388.275200
    130    129    141     1   109.8000471 387.438400
    130    129    131     1   107.5800459 329.699200
    131    129    141     1   109.8000471 387.438400
    132    138    139     1   109.5600471 388.275200
    132    138    140     1   109.5600471 388.275200
    133    132    138     1   109.8000471 387.438400
    133    132    134     1   107.5800459 329.699200
    134    132    138     1   109.8000471 387.438400
    136    135    144     1   109.7800468 425.094400
    136    135    137     1   108.4600466 328.025600
    137    135    144     1   109.7800468 425.094400
    139    138    318     1   109.7800468 425.094400
    139    138    140     1   108.4600466 328.025600
    140    138    318     1   109.7800468 425.094400
    142    141    347     1   109.7800468 425.094400
    142    141    143     1   108.4600466 328.025600
    143    141    347     1   109.7800468 425.094400
    145    146    147     1   109.8800469 414.216000
    145    146    148     1   109.8800469 414.216000
    145    149    150     1   109.8800469 414.216000
    145    149    151     1   109.8800469 414.216000
    145    152    153     1   109.8800469 414.216000
    145    152    154     1   109.8800469 414.216000
    146    158    159     1   109.8000471 387.438400
    146    158    160     1   109.8000471 387.438400
    147    146    158     1   109.5600471 388.275200
    147    146    148     1   108.4600466 328.025600
    148    146    158     1   109.5600471 388.275200
    149    161    162     1   109.8000471 387.438400
    149    161    163     1   109.8000471 387.438400
    150    149    161     1   109.5600471 388.275200
    150    149    151     1   108.4600466 328.025600
    151    149    161     1   109.5600471 388.275200
    152    155    156     1   109.8000471 387.438400
    152    155    157     1   109.8000471 387.438400
    153    152    155     1   109.5600471 388.275200
    153    152    154     1   108.4600466 328.025600
    154    152    155     1   109.5600471 388.275200
    155    164    165     1   109.5600471 388.275200
    155    164    166     1   109.5600471 388.275200
    156    155    164     1   109.8000471 387.438400
    156    155    157     1   107.5800459 329.699200
    157    155    164     1   109.8000471 387.438400
    158    170    171     1   109.5600471 388.275200
    158    170    172     1   109.5600471 388.275200
    159    158    170     1   109.8000471 387.438400
    159    158    160     1   107.5800459 329.699200
    160    158    170     1   109.8000471 387.438400
    161    167    168     1   109.5600471 388.275200
    161    167    169     1   109.5600471 388.275200
    162    161    167     1   109.8000471 387.438400
    162    161    163     1   107.5800459 329.699200
    163    161    167     1   109.8000471 387.438400
    165    164    173     1   109.7800468 425.094400
    165    164    166     1   108.4600466 328.025600
    166    164    173     1   109.7800468 425.094400
    168    167    376     1   109.7800468 425.094400
    168    167    169     1   108.4600466 328.025600
    169    167    376     1   109.7800468 425.094400
    171    170    405     1   109.7800468 425.094400
    171    170    172     1   108.4600466 328.025600
    172    170    405     1   109.7800468 425.094400
    174    177    178     1   109.8000471 387.438400
    174    177    179     1   109.8000471 387.438400
    175    174    177     1   109.5600471 388.275200
    175    174    202     1   109.7800468 425.094400
    175    174    176     1   108.4600466 328.025600
    176    174    177     1   109.5600471 388.275200
    176    174    202     1   109.7800468 425.094400
    177    180    181     1   109.5600471 388.275200
    177    180    182     1   109.5600471 388.275200
    178    177    180     1   109.8000471 387.438400
    178    177    179     1   107.5800459 329.699200
    179    177    180     1   109.8000471 387.438400
    181    180    183     1   109.8800469 414.216000
    181    180    182     1   108.4600466 328.025600
    182    180    183     1   109.8800469 414.216000
    183    184    185     1   109.8800469 414.216000
    183    184    186     1   109.8800469 414.216000
    183    193    194     1   109.8800469 414.216000
    183    193    195     1   109.8800469 414.216000
    184    187    188     1   109.8000471 387.438400
    184    187    189     1   109.8000471 387.438400
    185    184    187     1   109.5600471 388.275200
    185    184    186     1   108.4600466 328.025600
    186    184    187     1   109.5600471 388.275200
    188    187    190     1   108.7700466 392.459200
    188    187    189     1   107.5800459 329.699200
    189    187    190     1   108.7700466 392.459200
    193    196    197     1   109.8000471 387.438400
    193    196    198     1   109.8000471 387.438400
    194    193    196     1   109.5600471 388.275200
    194    193    195     1   108.4600466 328.025600
    195    193    196     1   109.5600471 388.275200
    197    196    199     1   108.7700466 392.459200
    197    196    198     1   107.5800459 329.699200
    198    196    199     1   108.7700466 392.459200
    203    206    207     1   109.8000471 387.438400
    203    206    208     1   109.8000471 387.438400
    204    203    206     1   109.5600471 388.275200
    204    203    231     1   109.7800468 425.094400
    204    203    205     1   108.4600466 328.025600
    205    203    206     1   109.5600471 388.275200
    205    203    231     1   109.7800468 425.094400
    206    209    210     1   109.5600471 388.275200
    206    209    211     1   109.5600471 388.275200
    207    206    209     1   109.8000471 387.438400
    207    206    208     1   107.5800459 329.699200
    208    206    209     1   109.8000471 387.438400
    210    209    212     1   109.8800469 414.216000
    210    209    211     1   108.4600466 328.025600
    211    209    212     1   109.8800469 414.216000
    212    213    214     1   109.8800469 414.216000
    212    213    215     1   109.8800469 414.216000
    212    222    223     1   109.8800469 414.216000
    212    222    224     1   109.8800469 414.216000
    213    216    217     1   109.8000471 387.438400
    213    216    218     1   109.8000471 387.438400
    214    213    216     1   109.5600471 388.275200
    214    213    215     1   108.4600466 328.025600
    215    213    216     1   109.5600471 388.275200
    217    216    219     1   108.7700466 392.459200
    217    216    218     1   107.5800459 329.699200
    218    216    219     1   108.7700466 392.459200
    222    225    226     1   109.8000471 387.438400
    222    225    227     1   109.8000471 387.438400
    223    222    225     1   109.5600471 388.275200
    223    222    224     1   108.4600466 328.025600
    224    222    225     1   109.5600471 388.275200
    226    225    228     1   108.7700466 392.459200
    226    225    227     1   107.5800459 329.699200
    227    225    228     1   108.7700466 392.459200
    232    235    236     1   109.8000471 387.438400
    232    235    237     1   109.8000471 387.438400
    233    232    235     1   109.5600471 388.275200
    233    232    260     1   109.7800468 425.094400
    233    232    234     1   108.4600466 328.025600
    234    232    235     1   109.5600471 388.275200
    234    232    260     1   109.7800468 425.094400
    235    238    239     1   109.5600471 388.275200
    235    238    240     1   109.5600471 388.275200
    236    235    238     1   109.8000471 387.438400
    236    235    237     1   107.5800459 329.699200
    237    235    238     1   109.8000471 387.438400
    239    238    241     1   109.8800469 414.216000
    239    238    240     1   108.4600466 328.025600
    240    238    241     1   109.8800469 414.216000
    241    242    243     1   109.8800469 414.216000
    241    242    244     1   109.8800469 414.216000
    241    251    252     1   109.8800469 414.216000
    241    251    253     1   109.8800469 414.216000
    242    245    246     1   109.8000471 387.438400
    242    245    247     1   109.8000471 387.438400
    243    242    245     1   109.5600471 388.275200
    243    242    244     1   108.4600466 328.025600
    244    242    245     1   109.5600471 388.275200
    246    245    248     1   108.7700466 392.459200
    246    245    247     1   107.5800459 329.699200
    247    245    248     1   108.7700466 392.459200
    251    254    255     1   109.8000471 387.438400
    251    254    256     1   109.8000471 387.438400
    252    251    254     1   109.5600471 388.275200
    252    251    253     1   108.4600466 328.025600
    253    251    254     1   109.5600471 388.275200
    255    254    257     1   108.7700466 392.459200
    255    254    256     1   107.5800459 329.699200
    256    254    257     1   108.7700466 392.459200
    261    264    265     1   109.8000471 387.438400
    261    264    266     1   109.8000471 387.438400
    262    261    264     1   109.5600471 388.275200
    262    261    289     1   109.7800468 425.094400
    262    261    263     1   108.4600466 328.025600
    263    261    264     1   109.5600471 388.275200
    263    261    289     1   109.7800468 425.094400
    264    267    268     1   109.5600471 388.275200
    264    267    269     1   109.5600471 388.275200
    265    264    267     1   109.8000471 387.438400
    265    264    266     1   107.5800459 329.699200
    266    264    267     1   109.8000471 387.438400
    268    267    270     1   109.8800469 414.216000
    268    267    269     1   108.4600466 328.025600
    269    267    270     1   109.8800469 414.216000
    270    271    272     1   109.8800469 414.216000
    270    271    273     1   109.8800469 414.216000
    270    280    281     1   109.8800469 414.216000
    270    280    282     1   109.8800469 414.216000
    271    274    275     1   109.8000471 387.438400
    271    274    276     1   109.8000471 387.438400
    272    271    274     1   109.5600471 388.275200
    272    271    273     1   108.4600466 328.025600
    273    271    274     1   109.5600471 388.275200
    275    274    277     1   108.7700466 392.459200
    275    274    276     1   107.5800459 329.699200
    276    274    277     1   108.7700466 392.459200
    280    283    284     1   109.8000471 387.438400
    280    283    285     1   109.8000471 387.438400
    281    280    283     1   109.5600471 388.275200
    281    280    282     1   108.4600466 328.025600
    282    280    283     1   109.5600471 388.275200
    284    283    286     1   108.7700466 392.459200
    284    283    285     1   107.5800459 329.699200
    285    283    286     1   108.7700466 392.459200
    290    293    294     1   109.8000471 387.438400
    290    293    295     1   109.8000471 387.438400
    291    290    293     1   109.5600471 388.275200
    291    290    318     1   109.7800468 425.094400
    291    290    292     1   108.4600466 328.025600
    292    290    293     1   109.5600471 388.275200
    292    290    318     1   109.7800468 425.094400
    293    296    297     1   109.5600471 388.275200
    293    296    298     1   109.5600471 388.275200
    294    293    296     1   109.8000471 387.438400
    294    293    295     1   107.5800459 329.699200
    295    293    296     1   109.8000471 387.438400
    297    296    299     1   109.8800469 414.216000
    297    296    298     1   108.4600466 328.025600
    298    296    299     1   109.8800469 414.216000
    299    300    301     1   109.8800469 414.216000
    299    300    302     1   109.8800469 414.216000
    299    309    310     1   109.8800469 414.216000
    299    309    311     1   109.8800469 414.216000
    300    303    304     1   109.8000471 387.438400
    300    303    305     1   109.8000471 387.438400
    301    300    303     1   109.5600471 388.275200
    301    300    302     1   108.4600466 328.025600
    302    300    303     1   109.5600471 388.275200
    304    303    306     1   108.7700466 392.459200
    304    303    305     1   107.5800459 329.699200
    305    303    306     1   108.7700466 392.459200
    309    312    313     1   109.8000471 387.438400
    309    312    314     1   109.8000471 387.438400
    310    309    312     1   109.5600471 388.275200
    310    309    311     1   108.4600466 328.025600
    311    309    312     1   109.5600471 388.275200
    313    312    315     1   108.7700466 392.459200
    313    312    314     1   107.5800459 329.699200
    314    312    315     1   108.7700466 392.459200
    319    322    323     1   109.8000471 387.438400
    319    322    324     1   109.8000471 387.438400
    320    319    322     1   109.5600471 388.275200
    320    319    347     1   109.7800468 425.094400
    320    319    321     1   108.4600466 328.025600
    321    319    322     1   109.5600471 388.275200
    321    319    347     1   109.7800468 425.094400
    322    325    326     1   109.5600471 388.275200
    322    325    327     1   109.5600471 388.275200
    323    322    325     1   109.8000471 387.438400
    323    322    324     1   107.5800459 329.699200
    324    322    325     1   109.8000471 387.438400
    326    325    328     1   109.8800469 414.216000
    326    325    327     1   108.4600466 328.025600
    327    325    328     1   109.8800469 414.216000
    328    329    330     1   109.8800469 414.216000
    328    329    331     1   109.8800469 414.216000
    328    338    339     1   109.8800469 414.216000
    328    338    340     1   109.8800469 414.216000
    329    332    333     1   109.8000471 387.438400
    329    332    334     1   109.8000471 387.438400
    330    329    332     1   109.5600471 388.275200
    330    329    331     1   108.4600466 328.025600
    331    329    332     1   109.5600471 388.275200
    333    332    335     1   108.7700466 392.459200
    333    332    334     1   107.5800459 329.699200
    334    332    335     1   108.7700466 392.459200
    338    341    342     1   109.8000471 387.438400
    338    341    343     1   109.8000471 387.438400
    339    338    341     1   109.5600471 388.275200
    339    338    340     1   108.4600466 328.025600
    340    338    341     1   109.5600471 388.275200
    342    341    344     1   108.7700466 392.459200
    342    341    343     1   107.5800459 329.699200
    343    341    344     1   108.7700466 392.459200
    348    351    352     1   109.8000471 387.438400
    348    351    353     1   109.8000471 387.438400
    349    348    351     1   109.5600471 388.275200
    349    348    376     1   109.7800468 425.094400
    349    348    350     1   108.4600466 328.025600
    350    348    351     1   109.5600471 388.275200
    350    348    376     1   109.7800468 425.094400
    351    354    355     1   109.5600471 388.275200
    351    354    356     1   109.5600471 388.275200
    352    351    354     1   109.8000471 387.438400
    352    351    353     1   107.5800459 329.699200
    353    351    354     1   109.8000471 387.438400
    355    354    357     1   109.8800469 414.216000
    355    354    356     1   108.4600466 328.025600
    356    354    357     1   109.8800469 414.216000
    357    358    359     1   109.8800469 414.216000
    357    358    360     1   109.8800469 414.216000
    357    367    368     1   109.8800469 414.216000
    357    367    369     1   109.8800469 414.216000
    358    361    362     1   109.8000471 387.438400
    358    361    363     1   109.8000471 387.438400
    359    358    361     1   109.5600471 388.275200
    359    358    360     1   108.4600466 328.025600
    360    358    361     1   109.5600471 388.275200
    362    361    364     1   108.7700466 392.459200
    362    361    363     1   107.5800459 329.699200
    363    361    364     1   108.7700466 392.459200
    367    370    371     1   109.8000471 387.438400
    367    370    372     1   109.8000471 387.438400
    368    367    370     1   109.5600471 388.275200
    368    367    369     1   108.4600466 328.025600
    369    367    370     1   109.5600471 388.275200
    371    370    373     1   108.7700466 392.459200
    371    370    372     1   107.5800459 329.699200
    372    370    373     1   108.7700466 392.459200
    377    380    381     1   109.8000471 387.438400
    377    380    382     1   109.8000471 387.438400
    378    377    380     1   109.5600471 388.275200
    378    377    405     1   109.7800468 425.094400
    378    377    379     1   108.4600466 328.025600
    379    377    380     1   109.5600471 388.275200
    379    377    405     1   109.7800468 425.094400
    380    383    384     1   109.5600471 388.275200
    380    383    385     1   109.5600471 388.275200
    381    380    383     1   109.8000471 387.438400
    381    380    382     1   107.5800459 329.699200
    382    380    383     1   109.8000471 387.438400
    384    383    386     1   109.8800469 414.216000
    384    383    385     1   108.4600466 328.025600
    385    383    386     1   109.8800469 414.216000
    386    387    388     1   109.8800469 414.216000
    386    387    389     1   109.8800469 414.216000
    386    396    397     1   109.8800469 414.216000
    386    396    398     1   109.8800469 414.216000
    387    390    391     1   109.8000471 387.438400
    387    390    392     1   109.8000471 387.438400
    388    387    390     1   109.5600471 388.275200
    388    387    389     1   108.4600466 328.025600
    389    387    390     1   109.5600471 388.275200
    391    390    393     1   108.7700466 392.459200
    391    390    392     1   107.5800459 329.699200
    392    390    393     1   108.7700466 392.459200
    396    399    400     1   109.8000471 387.438400
    396    399    401     1   109.8000471 387.438400
    397    396    399     1   109.5600471 388.275200
    397    396    398     1   108.4600466 328.025600
    398    396    399     1   109.5600471 388.275200
    400    399    402     1   108.7700466 392.459200
    400    399    401     1   107.5800459 329.699200
    401    399    402     1   108.7700466 392.459200

[ dihedrals ]
;    ai     aj     ak     al funct         c0         c1         c2         c3         c4         c5
      1      2      8     14     1  0.0000000  0.6508444  3
      1      5     11     17     1  0.0000000  0.6508444  3
      2      1      5     11     1  180.0000771  0.4184000  2
      2      1      5     11     1  0.0000000  1.6024720  3
      2      8     14     20     1  0.0000000  0.6508444  3
      5      1      2      8     1  180.0000771  0.4184000  2
      5      1      2      8     1  0.0000000  1.6024720  3
      5     11     17     21     1  0.0000000  0.6508444  3
      8     14     20     28     1  180.0000771  2.0083200  2
      8     14     20     28     1  0.0000000  1.2552000  3
      8     14     20     31     1  180.0000771  2.0083200  2
      8     14     20     31     1  0.0000000  1.2552000  3
     11     17     21     22     1  180.0000771  2.0083200  2
     11     17     21     22     1  0.0000000  1.2552000  3
     11     17     21     25     1  180.0000771  2.0083200  2
     11     17     21     25     1  0.0000000  1.2552000  3
     14     20     28     40     1  180.0000771  2.0083200  2
     14     20     28     40     1  0.0000000  1.2552000  3
     14     20     31     43     1  180.0000771  2.0083200  2
     14     20     31     43     1  0.0000000  1.2552000  3
     17     21     22     34     1  180.0000771  2.0083200  2
     17     21     22     34     1  0.0000000  1.2552000  3
     17     21     25     37     1  180.0000771  2.0083200  2
     17     21     25     37     1  0.0000000  1.2552000  3
     20     28     40     49     1  0.0000000  0.6508444  3
     20     31     43     46     1  0.0000000  0.6508444  3
     21     22     34     55     1  0.0000000  0.6508444  3
     21     25     37     52     1  0.0000000  0.6508444  3
     22     21     25     37     1  180.0000771  2.0083200  2
     22     21     25     37     1  0.0000000  1.2552000  3
     22     34     55    173     1  0.0000000  0.6508444  3
     25     21     22     34     1  180.0000771  2.0083200  2
     25     21     22     34     1  0.0000000  1.2552000  3
     25     37     52    144     1  0.0000000  0.6508444  3
     28     20     31     43     1  180.0000771  2.0083200  2
     28     20     31     43     1  0.0000000  1.2552000  3
     28     40     49    115     1  0.0000000  0.6508444  3
     31     20     28     40     1  180.0000771  2.0083200  2
     31     20     28     40     1  0.0000000  1.2552000  3
     31     43     46     86     1  0.0000000  0.6508444  3
     34     55    173    164     1  180.0000771  0.4184000  2
     34     55    173    164     1  0.0000000  1.6024720  3
     37     52    144    135     1  180.0000771  0.4184000  2
     37     52    144    135     1  0.0000000  1.6024720  3
     40     49    115    106     1  180.0000771  0.4184000  2
     40     49    115    106     1  0.0000000  1.6024720  3
     43     46     86     77     1  180.0000771  0.4184000  2
     43     46     86     77     1  0.0000000  1.6024720  3
     46     86     77     68     1  180.0000771  0.4184000  2
     46     86     77     68     1  0.0000000  1.6024720  3
     49    115    106     97     1  180.0000771  0.4184000  2
     49    115    106     97     1  0.0000000  1.6024720  3
     52    144    135    126     1  180.0000771  0.4184000  2
     52    144    135    126     1  0.0000000  1.6024720  3
     55    173    164    155     1  180.0000771  0.4184000  2
     55    173    164    155     1  0.0000000  1.6024720  3
     58     59     71     83     1  0.0000000  0.6508444  3
     58     62     74     80     1  0.0000000  0.6508444  3
     58     65     68     77     1  0.0000000  0.6508444  3
     59     58     62     74     1  180.0000771  2.0083200  2
     59     58     62     74     1  0.0000000  1.2552000  3
     59     58     65     68     1  180.0000771  2.0083200  2
     59     58     65     68     1  0.0000000  1.2552000  3
     59     71     83    231     1  0.0000000  0.6508444  3
     62     58     59     71     1  180.0000771  2.0083200  2
     62     58     59     71     1  0.0000000  1.2552000  3
     62     58     65     68     1  180.0000771  2.0083200  2
     62     58     65     68     1  0.0000000  1.2552000  3
     62     74     80    202     1  0.0000000  0.6508444  3
     65     58     59     71     1  180.0000771  2.0083200  2
     65     58     59     71     1  0.0000000  1.2552000  3
     65     58     62     74     1  180.0000771  2.0083200  2
     65     58     62     74     1  0.0000000  1.2552000  3
     65     68     77     86     1  0.0000000  0.6508444  3
     71     83    231    203     1  180.0000771  0.4184000  2
     71     83    231    203     1  0.0000000  1.6024720  3
     74     80    202    174     1  180.0000771  0.4184000  2
     74     80    202    174     1  0.0000000  1.6024720  3
     80    202    174    177     1  180.0000771  0.4184000  2
     80    202    174    177     1  0.0000000  1.6024720  3
     83    231    203    206     1  180.0000771  0.4184000  2
     83    231    203    206     1  0.0000000  1.6024720  3
     87     88    100    112     1  0.0000000  0.6508444  3
     87     91    103    109     1  0.0000000  0.6508444  3
     87     94     97    106     1  0.0000000  0.6508444  3
     88     87     91    103     1  180.0000771  2.0083200  2
     88     87     91    103     1  0.0000000  1.2552000  3
     88     87     94     97     1  180.0000771  2.0083200  2
     88     87     94     97     1  0.0000000  1.2552000  3
     88    100    112    289     1  0.0000000  0.6508444  3
     91     87     88    100     1  180.0000771  2.0083200  2
     91     87     88    100     1  0.0000000  1.2552000  3
     91     87     94     97     1  180.0000771  2.0083200  2
     91     87     94     97     1  0.0000000  1.2552000  3
     91    103    109    260     1  0.0000000  0.6508444  3
     94     87     88    100     1  180.0000771  2.0083200  2
     94     87     88    100     1  0.0000000  1.2552000  3
     94     87     91    103     1  180.0000771  2.0083200  2
     94     87     91    103     1  0.0000000  1.2552000  3
     94     97    106    115     1  0.0000000  0.6508444  3
    100    112    289    261     1  180.0000771  0.4184000  2
    100    112    289    261     1  0.0000000  1.6024720  3
    103    109    260    232     1  180.0000771  0.4184000  2
    103    109    260    232     1  0.0000000  1.6024720  3
    109    260    232    235     1  180.0000771  0.4184000  2
    109    260    232    235     1  0.0000000  1.6024720  3
    112    289    261    264     1  180.0000771  0.4184000  2
    112    289    261    264     1  0.0000000  1.6024720  3
    116    117    129    141     1  0.0000000  0.6508444  3
    116    120    132    138     1  0.0000000  0.6508444  3
    116    123    126    135     1  0.0000000  0.6508444  3
    117    116    120    132     1  180.0000771  2.0083200  2
    117    116    120    132     1  0.0000000  1.2552000  3
    117    116    123    126     1  180.0000771  2.0083200  2
    117    116    123    126     1  0.0000000  1.2552000  3
    117    129    141    347     1  0.0000000  0.6508444  3
    120    116    117    129     1  180.0000771  2.0083200  2
    120    116    117    129     1  0.0000000  1.2552000  3
    120    116    123    126     1  180.0000771  2.0083200  2
    120    116    123    126     1  0.0000000  1.2552000  3
    120    132    138    318     1  0.0000000  0.6508444  3
    123    116    117    129     1  180.0000771  2.0083200  2
    123    116    117    129     1  0.0000000  1.2552000  3
    123    116    120    132     1  180.0000771  2.0083200  2
    123    116    120    132     1  0.0000000  1.2552000  3
    123    126    135    144     1  0.0000000  0.6508444  3
    129    141    347    319     1  180.0000771  0.4184000  2
    129    141    347    319     1  0.0000000  1.6024720  3
    132    138    318    290     1  180.0000771  0.4184000  2
    132    138    318    290     1  0.0000000  1.6024720  3
    138    318    290    293     1  180.0000771  0.4184000  2
    138    318    290    293     1  0.0000000  1.6024720  3
    141    347    319    322     1  180.0000771  0.4184000  2
    141    347    319    322     1  0.0000000  1.6024720  3
    145    146    158    170     1  0.0000000  0.6508444  3
    145    149    161    167     1  0.0000000  0.6508444  3
    145    152    155    164     1  0.0000000  0.6508444  3
    146    145    149    161     1  180.0000771  2.0083200  2
    146    145    149    161     1  0.0000000  1.2552000  3
    146    145    152    155     1  180.0000771  2.0083200  2
    146    145    152    155     1  0.0000000  1.2552000  3
    146    158    170    405     1  0.0000000  0.6508444  3
    149    145    146    158     1  180.0000771  2.0083200  2
    149    145    146    158     1  0.0000000  1.2552000  3
    149    145    152    155     1  180.0000771  2.0083200  2
    149    145    152    155     1  0.0000000  1.2552000  3
    149    161    167    376     1  0.0000000  0.6508444  3
    152    145    146    158     1  180.0000771  2.0083200  2
    152    145    146    158     1  0.0000000  1.2552000  3
    152    145    149    161     1  180.0000771  2.0083200  2
    152    145    149    161     1  0.0000000  1.2552000  3
    152    155    164    173     1  0.0000000  0.6508444  3
    158    170    405    377     1  180.0000771  0.4184000  2
    158    170    405    377     1  0.0000000  1.6024720  3
    161    167    376    348     1  180.0000771  0.4184000  2
    161    167    376    348     1  0.0000000  1.6024720  3
    167    376    348    351     1  180.0000771  0.4184000  2
    167    376    348    351     1  0.0000000  1.6024720  3
    170    405    377    380     1  180.0000771  0.4184000  2
    170    405    377    380     1  0.0000000  1.6024720  3
    174    177    180    183     1  0.0000000  0.6508444  3
    177    180    183    184     1  180.0000771  2.0083200  2
    177    180    183    184     1  0.0000000  1.2552000  3
    177    180    183    193     1  180.0000771  2.0083200  2
    177    180    183    193     1  0.0000000  1.2552000  3
    180    177    174    202     1  0.0000000  0.6508444  3
    180    183    184    187     1  180.0000771  2.0083200  2
    180    183    184    187     1  0.0000000  1.2552000  3
    180    183    193    196     1  180.0000771  2.0083200  2
    180    183    193    196     1  0.0000000  1.2552000  3
    183    184    187    190     1  0.0000000  0.6508444  3
    183    193    196    199     1  0.0000000  0.6508444  3
    184    183    193    196     1  180.0000771  2.0083200  2
    184    183    193    196     1  0.0000000  1.2552000  3
    184    187    190    191     1  180.0000771  0.0000000  2
    184    187    190    192     1  180.0000771  0.0000000  2
    187    184    183    193     1  180.0000771  2.0083200  2
    187    184    183    193     1  0.0000000  1.2552000  3
    193    196    199    200     1  180.0000771  0.0000000  2
    193    196    199    201     1  180.0000771  0.0000000  2
    203    206    209    212     1  0.0000000  0.6508444  3
    206    209    212    213     1  180.0000771  2.0083200  2
    206    209    212    213     1  0.0000000  1.2552000  3
    206    209    212    222     1  180.0000771  2.0083200  2
    206    209    212    222     1  0.0000000  1.2552000  3
    209    212    213    216     1  180.0000771  2.0083200  2
    209    212    213    216     1  0.0000000  1.2552000  3
    209    212    222    225     1  180.0000771  2.0083200  2
    209    212    222    225     1  0.0000000  1.2552000  3
    209    206    203    231     1  0.0000000  0.6508444  3
    212    213    216    219     1  0.0000000  0.6508444  3
    212    222    225    228     1  0.0000000  0.6508444  3
    213    216    219    220     1  180.0000771  0.0000000  2
    213    216    219    221     1  180.0000771  0.0000000  2
    213    212    222    225     1  180.0000771  2.0083200  2
    213    212    222    225     1  0.0000000  1.2552000  3
    216    213    212    222     1  180.0000771  2.0083200  2
    216    213    212    222     1  0.0000000  1.2552000  3
    222    225    228    229     1  180.0000771  0.0000000  2
    222    225    228    230     1  180.0000771  0.0000000  2
    232    235    238    241     1  0.0000000  0.6508444  3
    235    238    241    242     1  180.0000771  2.0083200  2
    235    238    241    242     1  0.0000000  1.2552000  3
    235    238    241    251     1  180.0000771  2.0083200  2
    235    238    241    251     1  0.0000000  1.2552000  3
    238    235    232    260     1  0.0000000  0.6508444  3
    238    241    242    245     1  180.0000771  2.0083200  2
    238    241    242    245     1  0.0000000  1.2552000  3
    238    241    251    254     1  180.0000771  2.0083200  2
    238    241    251    254     1  0.0000000  1.2552000  3
    241    242    245    248     1  0.0000000  0.6508444  3
    241    251    254    257     1  0.0000000  0.6508444  3
    242    241    251    254     1  180.0000771  2.0083200  2
    242    241    251    254     1  0.0000000  1.2552000  3
    242    245    248    249     1  180.0000771  0.0000000  2
    242    245    248    250     1  180.0000771  0.0000000  2
    245    242    241    251     1  180.0000771  2.0083200  2
    245    242    241    251     1  0.0000000  1.2552000  3
    251    254    257    258     1  180.0000771  0.0000000  2
    251    254    257    259     1  180.0000771  0.0000000  2
    261    264    267    270     1  0.0000000  0.6508444  3
    264    267    270    271     1  180.0000771  2.0083200  2
    264    267    270    271     1  0.0000000  1.2552000  3
    264    267    270    280     1  180.0000771  2.0083200  2
    264    267    270    280     1  0.0000000  1.2552000  3
    267    270    271    274     1  180.0000771  2.0083200  2
    267    270    271    274     1  0.0000000  1.2552000  3
    267    270    280    283     1  180.0000771  2.0083200  2
    267    270    280    283     1  0.0000000  1.2552000  3
    267    264    261    289     1  0.0000000  0.6508444  3
    270    271    274    277     1  0.0000000  0.6508444  3
    270    280    283    286     1  0.0000000  0.6508444  3
    271    274    277    278     1  180.0000771  0.0000000  2
    271    274    277    279     1  180.0000771  0.0000000  2
    271    270    280    283     1  180.0000771  2.0083200  2
    271    270    280    283     1  0.0000000  1.2552000  3
    274    271    270    280     1  180.0000771  2.0083200  2
    274    271    270    280     1  0.0000000  1.2552000  3
    280    283    286    287     1  180.0000771  0.0000000  2
    280    283    286    288     1  180.0000771  0.0000000  2
    290    293    296    299     1  0.0000000  0.6508444  3
    293    296    299    300     1  180.0000771  2.0083200  2
    293    296    299    300     1  0.0000000  1.2552000  3
    293    296    299    309     1  180.0000771  2.0083200  2
    293    296    299    309     1  0.0000000  1.2552000  3
    296    293    290    318     1  0.0000000  0.6508444  3
    296    299    300    303     1  180.0000771  2.0083200  2
    296    299    300    303     1  0.0000000  1.2552000  3
    296    299    309    312     1  180.0000771  2.0083200  2
    296    299    309    312     1  0.0000000  1.2552000  3
    299    300    303    306     1  0.0000000  0.6508444  3
    299    309    312    315     1  0.0000000  0.6508444  3
    300    299    309    312     1  180.0000771  2.0083200  2
    300    299    309    312     1  0.0000000  1.2552000  3
    300    303    306    307     1  180.0000771  0.0000000  2
    300    303    306    308     1  180.0000771  0.0000000  2
    303    300    299    309     1  180.0000771  2.0083200  2
    303    300    299    309     1  0.0000000  1.2552000  3
    309    312    315    316     1  180.0000771  0.0000000  2
    309    312    315    317     1  180.0000771  0.0000000  2
    319    322    325    328     1  0.0000000  0.6508444  3
    322    325    328    329     1  180.0000771  2.0083200  2
    322    325    328    329     1  0.0000000  1.2552000  3
    322    325    328    338     1  180.0000771  2.0083200  2
    322    325    328    338     1  0.0000000  1.2552000  3
    325    328    329    332     1  180.0000771  2.0083200  2
    325    328    329    332     1  0.0000000  1.2552000  3
    325    328    338    341     1  180.0000771  2.0083200  2
    325    328    338    341     1  0.0000000  1.2552000  3
    325    322    319    347     1  0.0000000  0.6508444  3
    328    329    332    335     1  0.0000000  0.6508444  3
    328    338    341    344     1  0.0000000  0.6508444  3
    329    332    335    336     1  180.0000771  0.0000000  2
    329    332    335    337     1  180.0000771  0.0000000  2
    329    328    338    341     1  180.0000771  2.0083200  2
    329    328    338    341     1  0.0000000  1.2552000  3
    332    329    328    338     1  180.0000771  2.0083200  2
    332    329    328    338     1  0.0000000  1.2552000  3
    338    341    344    345     1  180.0000771  0.0000000  2
    338    341    344    346     1  180.0000771  0.0000000  2
    348    351    354    357     1  0.0000000  0.6508444  3
    351    354    357    358     1  180.0000771  2.0083200  2
    351    354    357    358     1  0.0000000  1.2552000  3
    351    354    357    367     1  180.0000771  2.0083200  2
    351    354    357    367     1  0.0000000  1.2552000  3
    354    351    348    376     1  0.0000000  0.6508444  3
    354    357    358    361     1  180.0000771  2.0083200  2
    354    357    358    361     1  0.0000000  1.2552000  3
    354    357    367    370     1  180.0000771  2.0083200  2
    354    357    367    370     1  0.0000000  1.2552000  3
    357    358    361    364     1  0.0000000  0.6508444  3
    357    367    370    373     1  0.0000000  0.6508444  3
    358    357    367    370     1  180.0000771  2.0083200  2
    358    357    367    370     1  0.0000000  1.2552000  3
    358    361    364    365     1  180.0000771  0.0000000  2
    358    361    364    366     1  180.0000771  0.0000000  2
    361    358    357    367     1  180.0000771  2.0083200  2
    361    358    357    367     1  0.0000000  1.2552000  3
    367    370    373    374     1  180.0000771  0.0000000  2
    367    370    373    375     1  180.0000771  0.0000000  2
    377    380    383    386     1  0.0000000  0.6508444  3
    380    383    386    387     1  180.0000771  2.0083200  2
    380    383    386    387     1  0.0000000  1.2552000  3
    380    383    386    396     1  180.0000771  2.0083200  2
    380    383    386    396     1  0.0000000  1.2552000  3
    383    386    387    390     1  180.0000771  2.0083200  2
    383    386    387    390     1  0.0000000  1.2552000  3
    383    386    396    399     1  180.0000771  2.0083200  2
    383    386    396    399     1  0.0000000  1.2552000  3
    383    380    377    405     1  0.0000000  0.6508444  3
    386    387    390    393     1  0.0000000  0.6508444  3
    386    396    399    402     1  0.0000000  0.6508444  3
    387    390    393    394     1  180.0000771  0.0000000  2
    387    390    393    395     1  180.0000771  0.0000000  2
    387    386    396    399     1  180.0000771  2.0083200  2
    387    386    396    399     1  0.0000000  1.2552000  3
    390    387    386    396     1  180.0000771  2.0083200  2
    390    387    386    396     1  0.0000000  1.2552000  3
    396    399    402    403     1  180.0000771  0.0000000  2
    396    399    402    404     1  180.0000771  0.0000000  2
    187    191    190    192     4  180.0000771  4.6024000  2
    196    200    199    201     4  180.0000771  4.6024000  2
    216    220    219    221     4  180.0000771  4.6024000  2
    225    229    228    230     4  180.0000771  4.6024000  2
    245    249    248    250     4  180.0000771  4.6024000  2
    254    258    257    259     4  180.0000771  4.6024000  2
    274    278    277    279     4  180.0000771  4.6024000  2
    283    287    286    288     4  180.0000771  4.6024000  2
    303    307    306    308     4  180.0000771  4.6024000  2
    312    316    315    317     4  180.0000771  4.6024000  2
    332    336    335    337     4  180.0000771  4.6024000  2
    341    345    344    346     4  180.0000771  4.6024000  2
    361    365    364    366     4  180.0000771  4.6024000  2
    370    374    373    375     4  180.0000771  4.6024000  2
    390    394    393    395     4  180.0000771  4.6024000  2
    399    403    402    404     4  180.0000771  4.6024000  2
      1      2      8      9     1  0.0000000  1.0460000  1
      1      2      8      9     1  0.0000000  0.0000000  3
      1      2      8     10     1  0.0000000  1.0460000  1
      1      2      8     10     1  0.0000000  0.0000000  3
      1      5     11     12     1  0.0000000  1.0460000  1
      1      5     11     12     1  0.0000000  0.0000000  3
      1      5     11     13     1  0.0000000  1.0460000  1
      1      5     11     13     1  0.0000000  0.0000000  3
      2      1      5      6     1  0.0000000  1.6038667  3
      2      1      5      7     1  0.0000000  1.6038667  3
      2      8     14     15     1  0.0000000  0.6508444  3
      2      8     14     16     1  0.0000000  0.6508444  3
      5      1      2      3     1  0.0000000  1.6038667  3
      3      2      8     14     1  0.0000000  0.6508444  3
      3      2      8      9     1  0.0000000  0.6508444  3
      3      2      8     10     1  0.0000000  0.6508444  3
      5      1      2      4     1  0.0000000  1.6038667  3
      4      2      8     14     1  0.0000000  0.6508444  3
      4      2      8      9     1  0.0000000  0.6508444  3
      4      2      8     10     1  0.0000000  0.6508444  3
      5     11     17     18     1  0.0000000  0.6508444  3
      5     11     17     19     1  0.0000000  0.6508444  3
      6      5     11     17     1  0.0000000  0.6508444  3
      6      5     11     12     1  0.0000000  0.6508444  3
      6      5     11     13     1  0.0000000  0.6508444  3
      7      5     11     17     1  0.0000000  0.6508444  3
      7      5     11     12     1  0.0000000  0.6508444  3
      7      5     11     13     1  0.0000000  0.6508444  3
      9      8     14     20     1  0.0000000  0.6508444  3
      9      8     14     15     1  0.0000000  0.6508444  3
      9      8     14     16     1  0.0000000  0.6508444  3
     10      8     14     20     1  0.0000000  0.6508444  3
     10      8     14     15     1  0.0000000  0.6508444  3
     10      8     14     16     1  0.0000000  0.6508444  3
     12     11     17     21     1  0.0000000  0.6508444  3
     12     11     17     18     1  0.0000000  0.6508444  3
     12     11     17     19     1  0.0000000  0.6508444  3
     13     11     17     21     1  0.0000000  0.6508444  3
     13     11     17     18     1  0.0000000  0.6508444  3
     13     11     17     19     1  0.0000000  0.6508444  3
     14     20     28     29     1  0.0000000  1.2552000  3
     14     20     28     30     1  0.0000000  1.2552000  3
     14     20     31     32     1  0.0000000  1.2552000  3
     14     20     31     33     1  0.0000000  1.2552000  3
     15     14     20     28     1  0.0000000  1.2552000  3
     15     14     20     31     1  0.0000000  1.2552000  3
     16     14     20     28     1  0.0000000  1.2552000  3
     16     14     20     31     1  0.0000000  1.2552000  3
     17     21     22     23     1  0.0000000  1.2552000  3
     17     21     22     24     1  0.0000000  1.2552000  3
     17     21     25     26     1  0.0000000  1.2552000  3
     17     21     25     27     1  0.0000000  1.2552000  3
     18     17     21     22     1  0.0000000  1.2552000  3
     18     17     21     25     1  0.0000000  1.2552000  3
     19     17     21     22     1  0.0000000  1.2552000  3
     19     17     21     25     1  0.0000000  1.2552000  3
     20     28     40     41     1  0.0000000  0.6508444  3
     20     28     40     42     1  0.0000000  0.6508444  3
     20     31     43     44     1  0.0000000  0.6508444  3
     20     31     43     45     1  0.0000000  0.6508444  3
     21     22     34     35     1  0.0000000  0.6508444  3
     21     22     34     36     1  0.0000000  0.6508444  3
     21     25     37     38     1  0.0000000  0.6508444  3
     21     25     37     39     1  0.0000000  0.6508444  3
     22     21     25     26     1  0.0000000  1.2552000  3
     22     21     25     27     1  0.0000000  1.2552000  3
     22     34     55     56     1  0.0000000  0.6508444  3
     22     34     55     57     1  0.0000000  0.6508444  3
     23     22     21     25     1  0.0000000  1.2552000  3
     23     22     34     55     1  0.0000000  0.6508444  3
     23     22     34     35     1  0.0000000  0.6508444  3
     23     22     34     36     1  0.0000000  0.6508444  3
     24     22     21     25     1  0.0000000  1.2552000  3
     24     22     34     55     1  0.0000000  0.6508444  3
     24     22     34     35     1  0.0000000  0.6508444  3
     24     22     34     36     1  0.0000000  0.6508444  3
     25     37     52     53     1  0.0000000  0.6508444  3
     25     37     52     54     1  0.0000000  0.6508444  3
     26     25     37     52     1  0.0000000  0.6508444  3
     26     25     37     38     1  0.0000000  0.6508444  3
     26     25     37     39     1  0.0000000  0.6508444  3
     27     25     37     52     1  0.0000000  0.6508444  3
     27     25     37     38     1  0.0000000  0.6508444  3
     27     25     37     39     1  0.0000000  0.6508444  3
     28     20     31     32     1  0.0000000  1.2552000  3
     28     20     31     33     1  0.0000000  1.2552000  3
     28     40     49     50     1  0.0000000  0.6508444  3
     28     40     49     51     1  0.0000000  0.6508444  3
     29     28     20     31     1  0.0000000  1.2552000  3
     29     28     40     49     1  0.0000000  0.6508444  3
     29     28     40     41     1  0.0000000  0.6508444  3
     29     28     40     42     1  0.0000000  0.6508444  3
     30     28     20     31     1  0.0000000  1.2552000  3
     30     28     40     49     1  0.0000000  0.6508444  3
     30     28     40     41     1  0.0000000  0.6508444  3
     30     28     40     42     1  0.0000000  0.6508444  3
     31     43     46     47     1  0.0000000  0.6508444  3
     31     43     46     48     1  0.0000000  0.6508444  3
     32     31     43     46     1  0.0000000  0.6508444  3
     32     31     43     44     1  0.0000000  0.6508444  3
     32     31     43     45     1  0.0000000  0.6508444  3
     33     31     43     46     1  0.0000000  0.6508444  3
     33     31     43     44     1  0.0000000  0.6508444  3
     33     31     43     45     1  0.0000000  0.6508444  3
     35     34     55    173     1  0.0000000  1.0460000  1
     35     34     55    173     1  0.0000000  0.0000000  3
     35     34     55     56     1  0.0000000  0.6508444  3
     35     34     55     57     1  0.0000000  0.6508444  3
     36     34     55    173     1  0.0000000  1.0460000  1
     36     34     55    173     1  0.0000000  0.0000000  3
     36     34     55     56     1  0.0000000  0.6508444  3
     36     34     55     57     1  0.0000000  0.6508444  3
     38     37     52    144     1  0.0000000  1.0460000  1
     38     37     52    144     1  0.0000000  0.0000000  3
     38     37     52     53     1  0.0000000  0.6508444  3
     38     37     52     54     1  0.0000000  0.6508444  3
     39     37     52    144     1  0.0000000  1.0460000  1
     39     37     52    144     1  0.0000000  0.0000000  3
     39     37     52     53     1  0.0000000  0.6508444  3
     39     37     52     54     1  0.0000000  0.6508444  3
     41     40     49    115     1  0.0000000  1.0460000  1
     41     40     49    115     1  0.0000000  0.0000000  3
     41     40     49     50     1  0.0000000  0.6508444  3
     41     40     49     51     1  0.0000000  0.6508444  3
     42     40     49    115     1  0.0000000  1.0460000  1
     42     40     49    115     1  0.0000000  0.0000000  3
     42     40     49     50     1  0.0000000  0.6508444  3
     42     40     49     51     1  0.0000000  0.6508444  3
     44     43     46     86     1  0.0000000  1.0460000  1
     44     43     46     86     1  0.0000000  0.0000000  3
     44     43     46     47     1  0.0000000  0.6508444  3
     44     43     46     48     1  0.0000000  0.6508444  3
     45     43     46     86     1  0.0000000  1.0460000  1
     45     43     46     86     1  0.0000000  0.0000000  3
     45     43     46     47     1  0.0000000  0.6508444  3
     45     43     46     48     1  0.0000000  0.6508444  3
     46     86     77     78     1  0.0000000  1.6038667  3
     46     86     77     79     1  0.0000000  1.6038667  3
     47     46     86     77     1  0.0000000  1.6038667  3
     48     46     86     77     1  0.0000000  1.6038667  3
     49    115    106    107     1  0.0000000  1.6038667  3
     49    115    106    108     1  0.0000000  1.6038667  3
     50     49    115    106     1  0.0000000  1.6038667  3
     51     49    115    106     1  0.0000000  1.6038667  3
     52    144    135    136     1  0.0000000  1.6038667  3
     52    144    135    137     1  0.0000000  1.6038667  3
     53     52    144    135     1  0.0000000  1.6038667  3
     54     52    144    135     1  0.0000000  1.6038667  3
     55    173    164    165     1  0.0000000  1.6038667  3
     55    173    164    166     1  0.0000000  1.6038667  3
     56     55    173    164     1  0.0000000  1.6038667  3
     57     55    173    164     1  0.0000000  1.6038667  3
     58     59     71     72     1  0.0000000  0.6508444  3
     58     59     71     73     1  0.0000000  0.6508444  3
     58     62     74     75     1  0.0000000  0.6508444  3
     58     62     74     76     1  0.0000000  0.6508444  3
     58     65     68     69     1  0.0000000  0.6508444  3
     58     65     68     70     1  0.0000000  0.6508444  3
     59     58     62     63     1  0.0000000  1.2552000  3
     59     58     62     64     1  0.0000000  1.2552000  3
     59     58     65     66     1  0.0000000  1.2552000  3
     59     58     65     67     1  0.0000000  1.2552000  3
     59     71     83     84     1  0.0000000  0.6508444  3
     59     71     83     85     1  0.0000000  0.6508444  3
     60     59     58     62     1  0.0000000  1.2552000  3
     60     59     58     65     1  0.0000000  1.2552000  3
     60     59     71     83     1  0.0000000  0.6508444  3
     60     59     71     72     1  0.0000000  0.6508444  3
     60     59     71     73     1  0.0000000  0.6508444  3
     61     59     58     62     1  0.0000000  1.2552000  3
     61     59     58     65     1  0.0000000  1.2552000  3
     61     59     71     83     1  0.0000000  0.6508444  3
     61     59     71     72     1  0.0000000  0.6508444  3
     61     59     71     73     1  0.0000000  0.6508444  3
     62     58     65     66     1  0.0000000  1.2552000  3
     62     58     65     67     1  0.0000000  1.2552000  3
     62     74     80     81     1  0.0000000  0.6508444  3
     62     74     80     82     1  0.0000000  0.6508444  3
     63     62     58     65     1  0.0000000  1.2552000  3
     63     62     74     80     1  0.0000000  0.6508444  3
     63     62     74     75     1  0.0000000  0.6508444  3
     63     62     74     76     1  0.0000000  0.6508444  3
     64     62     58     65     1  0.0000000  1.2552000  3
     64     62     74     80     1  0.0000000  0.6508444  3
     64     62     74     75     1  0.0000000  0.6508444  3
     64     62     74     76     1  0.0000000  0.6508444  3
     65     68     77     78     1  0.0000000  0.6508444  3
     65     68     77     79     1  0.0000000  0.6508444  3
     66     65     68     77     1  0.0000000  0.6508444  3
     66     65     68     69     1  0.0000000  0.6508444  3
     66     65     68     70     1  0.0000000  0.6508444  3
     67     65     68     77     1  0.0000000  0.6508444  3
     67     65     68     69     1  0.0000000  0.6508444  3
     67     65     68     70     1  0.0000000  0.6508444  3
     69     68     77     86     1  0.0000000  1.0460000  1
     69     68     77     86     1  0.0000000  0.0000000  3
     69     68     77     78     1  0.0000000  0.6508444  3
     69     68     77     79     1  0.0000000  0.6508444  3
     70     68     77     86     1  0.0000000  1.0460000  1
     70     68     77     86     1  0.0000000  0.0000000  3
     70     68     77     78     1  0.0000000  0.6508444  3
     70     68     77     79     1  0.0000000  0.6508444  3
     72     71     83    231     1  0.0000000  1.0460000  1
     72     71     83    231     1  0.0000000  0.0000000  3
     72     71     83     84     1  0.0000000  0.6508444  3
     72     71     83     85     1  0.0000000  0.6508444  3
     73     71     83    231     1  0.0000000  1.0460000  1
     73     71     83    231     1  0.0000000  0.0000000  3
     73     71     83     84     1  0.0000000  0.6508444  3
     73     71     83     85     1  0.0000000  0.6508444  3
     75     74     80    202     1  0.0000000  1.0460000  1
     75     74     80    202     1  0.0000000  0.0000000  3
     75     74     80     81     1  0.0000000  0.6508444  3
     75     74     80     82     1  0.0000000  0.6508444  3
     76     74     80    202     1  0.0000000  1.0460000  1
     76     74     80    202     1  0.0000000  0.0000000  3
     76     74     80     81     1  0.0000000  0.6508444  3
     76     74     80     82     1  0.0000000  0.6508444  3
     80    202    174    175     1  0.0000000  1.6038667  3
     80    202    174    176     1  0.0000000  1.6038667  3
     81     80    202    174     1  0.0000000  1.6038667  3
     82     80    202    174     1  0.0000000  1.6038667  3
     83    231    203    204     1  0.0000000  1.6038667  3
     83    231    203    205     1  0.0000000  1.6038667  3
     84     83    231    203     1  0.0000000  1.6038667  3
     85     83    231    203     1  0.0000000  1.6038667  3
     87     88    100    101     1  0.0000000  0.6508444  3
     87     88    100    102     1  0.0000000  0.6508444  3
     87     91    103    104     1  0.0000000  0.6508444  3
     87     91    103    105     1  0.0000000  0.6508444  3
     87     94     97     98     1  0.0000000  0.6508444  3
     87     94     97     99     1  0.0000000  0.6508444  3
     88     87     91     92     1  0.0000000  1.2552000  3
     88     87     91     93     1  0.0000000  1.2552000  3
     88     87     94     95     1  0.0000000  1.2552000  3
     88     87     94     96     1  0.0000000  1.2552000  3
     88    100    112    113     1  0.0000000  0.6508444  3
     88    100    112    114     1  0.0000000  0.6508444  3
     89     88     87     91     1  0.0000000  1.2552000  3
     89     88     87     94     1  0.0000000  1.2552000  3
     89     88    100    112     1  0.0000000  0.6508444  3
     89     88    100    101     1  0.0000000  0.6508444  3
     89     88    100    102     1  0.0000000  0.6508444  3
     90     88     87     91     1  0.0000000  1.2552000  3
     90     88     87     94     1  0.0000000  1.2552000  3
     90     88    100    112     1  0.0000000  0.6508444  3
     90     88    100    101     1  0.0000000  0.6508444  3
     90     88    100    102     1  0.0000000  0.6508444  3
     91     87     94     95     1  0.0000000  1.2552000  3
     91     87     94     96     1  0.0000000  1.2552000  3
     91    103    109    110     1  0.0000000  0.6508444  3
     91    103    109    111     1  0.0000000  0.6508444  3
     92     91     87     94     1  0.0000000  1.2552000  3
     92     91    103    109     1  0.0000000  0.6508444  3
     92     91    103    104     1  0.0000000  0.6508444  3
     92     91    103    105     1  0.0000000  0.6508444  3
     93     91     87     94     1  0.0000000  1.2552000  3
     93     91    103    109     1  0.0000000  0.6508444  3
     93     91    103    104     1  0.0000000  0.6508444  3
     93     91    103    105     1  0.0000000  0.6508444  3
     94     97    106    107     1  0.0000000  0.6508444  3
     94     97    106    108     1  0.0000000  0.6508444  3
     95     94     97    106     1  0.0000000  0.6508444  3
     95     94     97     98     1  0.0000000  0.6508444  3
     95     94     97     99     1  0.0000000  0.6508444  3
     96     94     97    106     1  0.0000000  0.6508444  3
     96     94     97     98     1  0.0000000  0.6508444  3
     96     94     97     99     1  0.0000000  0.6508444  3
     98     97    106    115     1  0.0000000  1.0460000  1
     98     97    106    115     1  0.0000000  0.0000000  3
     98     97    106    107     1  0.0000000  0.6508444  3
     98     97    106    108     1  0.0000000  0.6508444  3
     99     97    106    115     1  0.0000000  1.0460000  1
     99     97    106    115     1  0.0000000  0.0000000  3
     99     97    106    107     1  0.0000000  0.6508444  3
     99     97    106    108     1  0.0000000  0.6508444  3
    101    100    112    289     1  0.0000000  1.0460000  1
    101    100    112    289     1  0.0000000  0.0000000  3
    101    100    112    113     1  0.0000000  0.6508444  3
    101    100    112    114     1  0.0000000  0.6508444  3
    102    100    112    289     1  0.0000000  1.0460000  1
    102    100    112    289     1  0.0000000  0.0000000  3
    102    100    112    113     1  0.0000000  0.6508444  3
    102    100    112    114     1  0.0000000  0.6508444  3
    104    103    109    260     1  0.0000000  1.0460000  1
    104    103    109    260     1  0.0000000  0.0000000  3
    104    103    109    110     1  0.0000000  0.6508444  3
    104    103    109    111     1  0.0000000  0.6508444  3
    105    103    109    260     1  0.0000000  1.0460000  1
    105    103    109    260     1  0.0000000  0.0000000  3
    105    103    109    110     1  0.0000000  0.6508444  3
    105    103    109    111     1  0.0000000  0.6508444  3
    109    260    232    233     1  0.0000000  1.6038667  3
    109    260    232    234     1  0.0000000  1.6038667  3
    110    109    260    232     1  0.0000000  1.6038667  3
    111    109    260    232     1  0.0000000  1.6038667  3
    112    289    261    262     1  0.0000000  1.6038667  3
    112    289    261    263     1  0.0000000  1.6038667  3
    113    112    289    261     1  0.0000000  1.6038667  3
    114    112    289    261     1  0.0000000  1.6038667  3
    116    117    129    130     1  0.0000000  0.6508444  3
    116    117    129    131     1  0.0000000  0.6508444  3
    116    120    132    133     1  0.0000000  0.6508444  3
    116    120    132    134     1  0.0000000  0.6508444  3
    116    123    126    127     1  0.0000000  0.6508444  3
    116    123    126    128     1  0.0000000  0.6508444  3
    117    116    120    121     1  0.0000000  1.2552000  3
    117    116    120    122     1  0.0000000  1.2552000  3
    117    116    123    124     1  0.0000000  1.2552000  3
    117    116    123    125     1  0.0000000  1.2552000  3
    117    129    141    142     1  0.0000000  0.6508444  3
    117    129    141    143     1  0.0000000  0.6508444  3
    118    117    116    120     1  0.0000000  1.2552000  3
    118    117    116    123     1  0.0000000  1.2552000  3
    118    117    129    141     1  0.0000000  0.6508444  3
    118    117    129    130     1  0.0000000  0.6508444  3
    118    117    129    131     1  0.0000000  0.6508444  3
    119    117    116    120     1  0.0000000  1.2552000  3
    119    117    116    123     1  0.0000000  1.2552000  3
    119    117    129    141     1  0.0000000  0.6508444  3
    119    117    129    130     1  0.0000000  0.6508444  3
    119    117    129    131     1  0.0000000  0.6508444  3
    120    116    123    124     1  0.0000000  1.2552000  3
    120    116    123    125     1  0.0000000  1.2552000  3
    120    132    138    139     1  0.0000000  0.6508444  3
    120    132    138    140     1  0.0000000  0.6508444  3
    121    120    116    123     1  0.0000000  1.2552000  3
    121    120    132    138     1  0.0000000  0.6508444  3
    121    120    132    133     1  0.0000000  0.6508444  3
    121    120    132    134     1  0.0000000  0.6508444  3
    122    120    116    123     1  0.0000000  1.2552000  3
    122    120    132    138     1  0.0000000  0.6508444  3
    122    120    132    133     1  0.0000000  0.6508444  3
    122    120    132    134     1  0.0000000  0.6508444  3
    123    126    135    136     1  0.0000000  0.6508444  3
    123    126    135    137     1  0.0000000  0.6508444  3
    124    123    126    135     1  0.0000000  0.6508444  3
    124    123    126    127     1  0.0000000  0.6508444  3
    124    123    126    128     1  0.0000000  0.6508444  3
    125    123    126    135     1  0.0000000  0.6508444  3
    125    123    126    127     1  0.0000000  0.6508444  3
    125    123    126    128     1  0.0000000  0.6508444  3
    127    126    135    144     1  0.0000000  1.0460000  1
    127    126    135    144     1  0.0000000  0.0000000  3
    127    126    135    136     1  0.0000000  0.6508444  3
    127    126    135    137     1  0.0000000  0.6508444  3
    128    126    135    144     1  0.0000000  1.0460000  1
    128    126    135    144     1  0.0000000  0.0000000  3
    128    126    135    136     1  0.0000000  0.6508444  3
    128    126    135    137     1  0.0000000  0.6508444  3
    130    129    141    347     1  0.0000000  1.0460000  1
    130    129    141    347     1  0.0000000  0.0000000  3
    130    129    141    142     1  0.0000000  0.6508444  3
    130    129    141    143     1  0.0000000  0.6508444  3
    131    129    141    347     1  0.0000000  1.0460000  1
    131    129    141    347     1  0.0000000  0.0000000  3
    131    129    141    142     1  0.0000000  0.6508444  3
    131    129    141    143     1  0.0000000  0.6508444  3
    133    132    138    318     1  0.0000000  1.0460000  1
    133    132    138    318     1  0.0000000  0.0000000  3
    133    132    138    139     1  0.0000000  0.6508444  3
    133    132    138    140     1  0.0000000  0.6508444  3
    134    132    138    318     1  0.0000000  1.0460000  1
    134    132    138    318     1  0.0000000  0.0000000  3
    134    132    138    139     1  0.0000000  0.6508444  3
    134    132    138    140     1  0.0000000  0.6508444  3
    138    318    290    291     1  0.0000000  1.6038667  3
    138    318    290    292     1  0.0000000  1.6038667  3
    139    138    318    290     1  0.0000000  1.6038667  3
    140    138    318    290     1  0.0000000  1.6038667  3
    141    347    319    320     1  0.0000000  1.6038667  3
    141    347    319    321     1  0.0000000  1.6038667  3
    142    141    347    319     1  0.0000000  1.6038667  3
    143    141    347    319     1  0.0000000  1.6038667  3
    145    146    158    159     1  0.0000000  0.6508444  3
    145    146    158    160     1  0.0000000  0.6508444  3
    145    149    161    162     1  0.0000000  0.6508444  3
    145    149    161    163     1  0.0000000  0.6508444  3
    145    152    155    156     1  0.0000000  0.6508444  3
    145    152    155    157     1  0.0000000  0.6508444  3
    146    145    149    150     1  0.0000000  1.2552000  3
    146    145    149    151     1  0.0000000  1.2552000  3
    146    145    152    153     1  0.0000000  1.2552000  3
    146    145    152    154     1  0.0000000  1.2552000  3
    146    158    170    171     1  0.0000000  0.6508444  3
    146    158    170    172     1  0.0000000  0.6508444  3
    147    146    145    149     1  0.0000000  1.2552000  3
    147    146    145    152     1  0.0000000  1.2552000  3
    147    146    158    170     1  0.0000000  0.6508444  3
    147    146    158    159     1  0.0000000  0.6508444  3
    147    146    158    160     1  0.0000000  0.6508444  3
    148    146    145    149     1  0.0000000  1.2552000  3
    148    146    145    152     1  0.0000000  1.2552000  3
    148    146    158    170     1  0.0000000  0.6508444  3
    148    146    158    159     1  0.0000000  0.6508444  3
    148    146    158    160     1  0.0000000  0.6508444  3
    149    145    152    153     1  0.0000000  1.2552000  3
    149    145    152    154     1  0.0000000  1.2552000  3
    149    161    167    168     1  0.0000000  0.6508444  3
    149    161    167    169     1  0.0000000  0.6508444  3
    150    149    145    152     1  0.0000000  1.2552000  3
    150    149    161    167     1  0.0000000  0.6508444  3
    150    149    161    162     1  0.0000000  0.6508444  3
    150    149    161    163     1  0.0000000  0.6508444  3
    151    149    145    152     1  0.0000000  1.2552000  3
    151    149    161    167     1  0.0000000  0.6508444  3
    151    149    161    162     1  0.0000000  0.6508444  3
    151    149    161    163     1  0.0000000  0.6508444  3
    152    155    164    165     1  0.0000000  0.6508444  3
    152    155    164    166     1  0.0000000  0.6508444  3
    153    152    155    164     1  0.0000000  0.6508444  3
    153    152    155    156     1  0.0000000  0.6508444  3
    153    152    155    157     1  0.0000000  0.6508444  3
    154    152    155    164     1  0.0000000  0.6508444  3
    154    152    155    156     1  0.0000000  0.6508444  3
    154    152    155    157     1  0.0000000  0.6508444  3
    156    155    164    173     1  0.0000000  1.0460000  1
    156    155    164    173     1  0.0000000  0.0000000  3
    156    155    164    165     1  0.0000000  0.6508444  3
    156    155    164    166     1  0.0000000  0.6508444  3
    157    155    164    173     1  0.0000000  1.0460000  1
    157    155    164    173     1  0.0000000  0.0000000  3
    157    155    164    165     1  0.0000000  0.6508444  3
    157    155    164    166     1  0.0000000  0.6508444  3
    159    158    170    405     1  0.0000000  1.0460000  1
    159    158    170    405     1  0.0000000  0.0000000  3
    159    158    170    171     1  0.0000000  0.6508444  3
    159    158    170    172     1  0.0000000  0.6508444  3
    160    158    170    405     1  0.0000000  1.0460000  1
    160    158    170    405     1  0.0000000  0.0000000  3
    160    158    170    171     1  0.0000000  0.6508444  3
    160    158    170    172     1  0.0000000  0.6508444  3
    162    161    167    376     1  0.0000000  1.0460000  1
    162    161    167    376     1  0.0000000  0.0000000  3
    162    161    167    168     1  0.0000000  0.6508444  3
    162    161    167    169     1  0.0000000  0.6508444  3
    163    161    167    376     1  0.0000000  1.0460000  1
    163    161    167    376     1  0.0000000  0.0000000  3
    163    161    167    168     1  0.0000000  0.6508444  3
    163    161    167    169     1  0.0000000  0.6508444  3
    167    376    348    349     1  0.0000000  1.6038667  3
    167    376    348    350     1  0.0000000  1.6038667  3
    168    167    376    348     1  0.0000000  1.6038667  3
    169    167    376    348     1  0.0000000  1.6038667  3
    170    405    377    378     1  0.0000000  1.6038667  3
    170    405    377    379     1  0.0000000  1.6038667  3
    171    170    405    377     1  0.0000000  1.6038667  3
    172    170    405    377     1  0.0000000  1.6038667  3
    174    177    180    181     1  0.0000000  0.6508444  3
    174    177    180    182     1  0.0000000  0.6508444  3
    175    174    177    180     1  0.0000000  0.6508444  3
    175    174    177    178     1  0.0000000  0.6508444  3
    175    174    177    179     1  0.0000000  0.6508444  3
    176    174    177    180     1  0.0000000  0.6508444  3
    176    174    177    178     1  0.0000000  0.6508444  3
    176    174    177    179     1  0.0000000  0.6508444  3
    178    177    174    202     1  0.0000000  1.0460000  1
    178    177    174    202     1  0.0000000  0.0000000  3
    178    177    180    183     1  0.0000000  0.6508444  3
    178    177    180    181     1  0.0000000  0.6508444  3
    178    177    180    182     1  0.0000000  0.6508444  3
    179    177    174    202     1  0.0000000  1.0460000  1
    179    177    174    202     1  0.0000000  0.0000000  3
    179    177    180    183     1  0.0000000  0.6508444  3
    179    177    180    181     1  0.0000000  0.6508444  3
    179    177    180    182     1  0.0000000  0.6508444  3
    180    183    184    185     1  0.0000000  1.2552000  3
    180    183    184    186     1  0.0000000  1.2552000  3
    180    183    193    194     1  0.0000000  1.2552000  3
    180    183    193    195     1  0.0000000  1.2552000  3
    181    180    183    184     1  0.0000000  1.2552000  3
    181    180    183    193     1  0.0000000  1.2552000  3
    182    180    183    184     1  0.0000000  1.2552000  3
    182    180    183    193     1  0.0000000  1.2552000  3
    183    184    187    188     1  0.0000000  0.6508444  3
    183    184    187    189     1  0.0000000  0.6508444  3
    183    193    196    197     1  0.0000000  0.6508444  3
    183    193    196    198     1  0.0000000  0.6508444  3
    184    183    193    194     1  0.0000000  1.2552000  3
    184    183    193    195     1  0.0000000  1.2552000  3
    185    184    183    193     1  0.0000000  1.2552000  3
    185    184    187    190     1  0.0000000  0.6508444  3
    185    184    187    188     1  0.0000000  0.6508444  3
    185    184    187    189     1  0.0000000  0.6508444  3
    186    184    183    193     1  0.0000000  1.2552000  3
    186    184    187    190     1  0.0000000  0.6508444  3
    186    184    187    188     1  0.0000000  0.6508444  3
    186    184    187    189     1  0.0000000  0.6508444  3
    188    187    190    191     1  0.0000000  3.3472000  1
    188    187    190    191     1  0.0000000  0.0000000  2
    188    187    190    191     1  180.0000771  0.3347200  3
    188    187    190    192     1  0.0000000  3.3472000  1
    188    187    190    192     1  0.0000000  0.0000000  2
    188    187    190    192     1  180.0000771  0.3347200  3
    189    187    190    191     1  0.0000000  3.3472000  1
    189    187    190    191     1  0.0000000  0.0000000  2
    189    187    190    191     1  180.0000771  0.3347200  3
    189    187    190    192     1  0.0000000  3.3472000  1
    189    187    190    192     1  0.0000000  0.0000000  2
    189    187    190    192     1  180.0000771  0.3347200  3
    194    193    196    199     1  0.0000000  0.6508444  3
    194    193    196    197     1  0.0000000  0.6508444  3
    194    193    196    198     1  0.0000000  0.6508444  3
    195    193    196    199     1  0.0000000  0.6508444  3
    195    193    196    197     1  0.0000000  0.6508444  3
    195    193    196    198     1  0.0000000  0.6508444  3
    197    196    199    200     1  0.0000000  3.3472000  1
    197    196    199    200     1  0.0000000  0.0000000  2
    197    196    199    200     1  180.0000771  0.3347200  3
    197    196    199    201     1  0.0000000  3.3472000  1
    197    196    199    201     1  0.0000000  0.0000000  2
    197    196    199    201     1  180.0000771  0.3347200  3
    198    196    199    200     1  0.0000000  3.3472000  1
    198    196    199    200     1  0.0000000  0.0000000  2
    198    196    199    200     1  180.0000771  0.3347200  3
    198    196    199    201     1  0.0000000  3.3472000  1
    198    196    199    201     1  0.0000000  0.0000000  2
    198    196    199    201     1  180.0000771  0.3347200  3
    203    206    209    210     1  0.0000000  0.6508444  3
    203    206    209    211     1  0.0000000  0.6508444  3
    204    203    206    209     1  0.0000000  0.6508444  3
    204    203    206    207     1  0.0000000  0.6508444  3
    204    203    206    208     1  0.0000000  0.6508444  3
    205    203    206    209     1  0.0000000  0.6508444  3
    205    203    206    207     1  0.0000000  0.6508444  3
    205    203    206    208     1  0.0000000  0.6508444  3
    207    206    209    212     1  0.0000000  0.6508444  3
    207    206    209    210     1  0.0000000  0.6508444  3
    207    206    209    211     1  0.0000000  0.6508444  3
    207    206    203    231     1  0.0000000  1.0460000  1
    207    206    203    231     1  0.0000000  0.0000000  3
    208    206    209    212     1  0.0000000  0.6508444  3
    208    206    209    210     1  0.0000000  0.6508444  3
    208    206    209    211     1  0.0000000  0.6508444  3
    208    206    203    231     1  0.0000000  1.0460000  1
    208    206    203    231     1  0.0000000  0.0000000  3
    209    212    213    214     1  0.0000000  1.2552000  3
    209    212    213    215     1  0.0000000  1.2552000  3
    209    212    222    223     1  0.0000000  1.2552000  3
    209    212    222    224     1  0.0000000  1.2552000  3
    210    209    212    213     1  0.0000000  1.2552000  3
    210    209    212    222     1  0.0000000  1.2552000  3
    211    209    212    213     1  0.0000000  1.2552000  3
    211    209    212    222     1  0.0000000  1.2552000  3
    212    213    216    217     1  0.0000000  0.6508444  3
    212    213    216    218     1  0.0000000  0.6508444  3
    212    222    225    226     1  0.0000000  0.6508444  3
    212    222    225    227     1  0.0000000  0.6508444  3
    213    212    222    223     1  0.0000000  1.2552000  3
    213    212    222    224     1  0.0000000  1.2552000  3
    214    213    216    219     1  0.0000000  0.6508444  3
    214    213    216    217     1  0.0000000  0.6508444  3
    214    213    216    218     1  0.0000000  0.6508444  3
    214    213    212    222     1  0.0000000  1.2552000  3
    215    213    216    219     1  0.0000000  0.6508444  3
    215    213    216    217     1  0.0000000  0.6508444  3
    215    213    216    218     1  0.0000000  0.6508444  3
    215    213    212    222     1  0.0000000  1.2552000  3
    217    216    219    220     1  0.0000000  3.3472000  1
    217    216    219    220     1  0.0000000  0.0000000  2
    217    216    219    220     1  180.0000771  0.3347200  3
    217    216    219    221     1  0.0000000  3.3472000  1
    217    216    219    221     1  0.0000000  0.0000000  2
    217    216    219    221     1  180.0000771  0.3347200  3
    218    216    219    220     1  0.0000000  3.3472000  1
    218    216    219    220     1  0.0000000  0.0000000  2
    218    216    219    220     1  180.0000771  0.3347200  3
    218    216    219    221     1  0.0000000  3.3472000  1
    218    216    219    221     1  0.0000000  0.0000000  2
    218    216    219    221     1  180.0000771  0.3347200  3
    223    222    225    228     1  0.0000000  0.6508444  3
    223    222    225    226     1  0.0000000  0.6508444  3
    223    222    225    227     1  0.0000000  0.6508444  3
    224    222    225    228     1  0.0000000  0.6508444  3
    224    222    225    226     1  0.0000000  0.6508444  3
    224    222    225    227     1  0.0000000  0.6508444  3
    226    225    228    229     1  0.0000000  3.3472000  1
    226    225    228    229     1  0.0000000  0.0000000  2
    226    225    228    229     1  180.0000771  0.3347200  3
    226    225    228    230     1  0.0000000  3.3472000  1
    226    225    228    230     1  0.0000000  0.0000000  2
    226    225    228    230     1  180.0000771  0.3347200  3
    227    225    228    229     1  0.0000000  3.3472000  1
    227    225    228    229     1  0.0000000  0.0000000  2
    227    225    228    229     1  180.0000771  0.3347200  3
    227    225    228    230     1  0.0000000  3.3472000  1
    227    225    228    230     1  0.0000000  0.0000000  2
    227    225    228    230     1  180.0000771  0.3347200  3
    232    235    238    239     1  0.0000000  0.6508444  3
    232    235    238    240     1  0.0000000  0.6508444  3
    233    232    235    238     1  0.0000000  0.6508444  3
    233    232    235    236     1  0.0000000  0.6508444  3
    233    232    235    237     1  0.0000000  0.6508444  3
    234    232    235    238     1  0.0000000  0.6508444  3
    234    232    235    236     1  0.0000000  0.6508444  3
    234    232    235    237     1  0.0000000  0.6508444  3
    236    235    232    260     1  0.0000000  1.0460000  1
    236    235    232    260     1  0.0000000  0.0000000  3
    236    235    238    241     1  0.0000000  0.6508444  3
    236    235    238    239     1  0.0000000  0.6508444  3
    236    235    238    240     1  0.0000000  0.6508444  3
    237    235    232    260     1  0.0000000  1.0460000  1
    237    235    232    260     1  0.0000000  0.0000000  3
    237    235    238    241     1  0.0000000  0.6508444  3
    237    235    238    239     1  0.0000000  0.6508444  3
    237    235    238    240     1  0.0000000  0.6508444  3
    238    241    242    243     1  0.0000000  1.2552000  3
    238    241    242    244     1  0.0000000  1.2552000  3
    238    241    251    252     1  0.0000000  1.2552000  3
    238    241    251    253     1  0.0000000  1.2552000  3
    239    238    241    242     1  0.0000000  1.2552000  3
    239    238    241    251     1  0.0000000  1.2552000  3
    240    238    241    242     1  0.0000000  1.2552000  3
    240    238    241    251     1  0.0000000  1.2552000  3
    241    242    245    246     1  0.0000000  0.6508444  3
    241    242    245    247     1  0.0000000  0.6508444  3
    241    251    254    255     1  0.0000000  0.6508444  3
    241    251    254    256     1  0.0000000  0.6508444  3
    242    241    251    252     1  0.0000000  1.2552000  3
    242    241    251    253     1  0.0000000  1.2552000  3
    243    242    241    251     1  0.0000000  1.2552000  3
    243    242    245    248     1  0.0000000  0.6508444  3
    243    242    245    246     1  0.0000000  0.6508444  3
    243    242    245    247     1  0.0000000  0.6508444  3
    244    242    241    251     1  0.0000000  1.2552000  3
    244    242    245    248     1  0.0000000  0.6508444  3
    244    242    245    246     1  0.0000000  0.6508444  3
    244    242    245    247     1  0.0000000  0.6508444  3
    246    245    248    249     1  0.0000000  3.3472000  1
    246    245    248    249     1  0.0000000  0.0000000  2
    246    245    248    249     1  180.0000771  0.3347200  3
    246    245    248    250     1  0.0000000  3.3472000  1
    246    245    248    250     1  0.0000000  0.0000000  2
    246    245    248    250     1  180.0000771  0.3347200  3
    247    245    248    249     1  0.0000000  3.3472000  1
    247    245    248    249     1  0.0000000  0.0000000  2
    247    245    248    249     1  180.0000771  0.3347200  3
    247    245    248    250     1  0.0000000  3.3472000  1
    247    245    248    250     1  0.0000000  0.0000000  2
    247    245    248    250     1  180.0000771  0.3347200  3
    252    251    254    257     1  0.0000000  0.6508444  3
    252    251    254    255     1  0.0000000  0.6508444  3
    252    251    254    256     1  0.0000000  0.6508444  3
    253    251    254    257     1  0.0000000  0.6508444  3
    253    251    254    255     1  0.0000000  0.6508444  3
    253    251    254    256     1  0.0000000  0.6508444  3
    255    254    257    258     1  0.0000000  3.3472000  1
    255    254    257    258     1  0.0000000  0.0000000  2
    255    254    257    258     1  180.0000771  0.3347200  3
    255    254    257    259     1  0.0000000  3.3472000  1
    255    254    257    259     1  0.0000000  0.0000000  2
    255    254    257    259     1  180.0000771  0.3347200  3
    256    254    257    258     1  0.0000000  3.3472000  1
    256    254    257    258     1  0.0000000  0.0000000  2
    256    254    257    258     1  180.0000771  0.3347200  3
    256    254    257    259     1  0.0000000  3.3472000  1
    256    254    257    259     1  0.0000000  0.0000000  2
    256    254    257    259     1  180.0000771  0.3347200  3
    261    264    267    268     1  0.0000000  0.6508444  3
    261    264    267    269     1  0.0000000  0.6508444  3
    262    261    264    267     1  0.0000000  0.6508444  3
    262    261    264    265     1  0.0000000  0.6508444  3
    262    261    264    266     1  0.0000000  0.6508444  3
    263    261    264    267     1  0.0000000  0.6508444  3
    263    261    264    265     1  0.0000000  0.6508444  3
    263    261    264    266     1  0.0000000  0.6508444  3
    265    264    267    270     1  0.0000000  0.6508444  3
    265    264    267    268     1  0.0000000  0.6508444  3
    265    264    267    269     1  0.0000000  0.6508444  3
    265    264    261    289     1  0.0000000  1.0460000  1
    265    264    261    289     1  0.0000000  0.0000000  3
    266    264    267    270     1  0.0000000  0.6508444  3
    266    264    267    268     1  0.0000000  0.6508444  3
    266    264    267    269     1  0.0000000  0.6508444  3
    266    264    261    289     1  0.0000000  1.0460000  1
    266    264    261    289     1  0.0000000  0.0000000  3
    267    270    271    272     1  0.0000000  1.2552000  3
    267    270    271    273     1  0.0000000  1.2552000  3
    267    270    280    281     1  0.0000000  1.2552000  3
    267    270    280    282     1  0.0000000  1.2552000  3
    268    267    270    271     1  0.0000000  1.2552000  3
    268    267    270    280     1  0.0000000  1.2552000  3
    269    267    270    271     1  0.0000000  1.2552000  3
    269    267    270    280     1  0.0000000  1.2552000  3
    270    271    274    275     1  0.0000000  0.6508444  3
    270    271    274    276     1  0.0000000  0.6508444  3
    270    280    283    284     1  0.0000000  0.6508444  3
    270    280    283    285     1  0.0000000  0.6508444  3
    271    270    280    281     1  0.0000000  1.2552000  3
    271    270    280    282     1  0.0000000  1.2552000  3
    272    271    274    277     1  0.0000000  0.6508444  3
    272    271    274    275     1  0.0000000  0.6508444  3
    272    271    274    276     1  0.0000000  0.6508444  3
    272    271    270    280     1  0.0000000  1.2552000  3
    273    271    274    277     1  0.0000000  0.6508444  3
    273    271    274    275     1  0.0000000  0.6508444  3
    273    271    274    276     1  0.0000000  0.6508444  3
    273    271    270    280     1  0.0000000  1.2552000  3
    275    274    277    278     1  0.0000000  3.3472000  1
    275    274    277    278     1  0.0000000  0.0000000  2
    275    274    277    278     1  180.0000771  0.3347200  3
    275    274    277    279     1  0.0000000  3.3472000  1
    275    274    277    279     1  0.0000000  0.0000000  2
    275    274    277    279     1  180.0000771  0.3347200  3
    276    274    277    278     1  0.0000000  3.3472000  1
    276    274    277    278     1  0.0000000  0.0000000  2
    276    274    277    278     1  180.0000771  0.3347200  3
    276    274    277    279     1  0.0000000  3.3472000  1
    276    274    277    279     1  0.0000000  0.0000000  2
    276    274    277    279     1  180.0000771  0.3347200  3
    281    280    283    286     1  0.0000000  0.6508444  3
    281    280    283    284     1  0.0000000  0.6508444  3
    281    280    283    285     1  0.0000000  0.6508444  3
    282    280    283    286     1  0.0000000  0.6508444  3
    282    280    283    284     1  0.0000000  0.6508444  3
    282    280    283    285     1  0.0000000  0.6508444  3
    284    283    286    287     1  0.0000000  3.3472000  1
    284    283    286    287     1  0.0000000  0.0000000  2
    284    283    286    287     1  180.0000771  0.3347200  3
    284    283    286    288     1  0.0000000  3.3472000  1
    284    283    286    288     1  0.0000000  0.0000000  2
    284    283    286    288     1  180.0000771  0.3347200  3
    285    283    286    287     1  0.0000000  3.3472000  1
    285    283    286    287     1  0.0000000  0.0000000  2
    285    283    286    287     1  180.0000771  0.3347200  3
    285    283    286    288     1  0.0000000  3.3472000  1
    285    283    286    288     1  0.0000000  0.0000000  2
    285    283    286    288     1  180.0000771  0.3347200  3
    290    293    296    297     1  0.0000000  0.6508444  3
    290    293    296    298     1  0.0000000  0.6508444  3
    291    290    293    296     1  0.0000000  0.6508444  3
    291    290    293    294     1  0.0000000  0.6508444  3
    291    290    293    295     1  0.0000000  0.6508444  3
    292    290    293    296     1  0.0000000  0.6508444  3
    292    290    293    294     1  0.0000000  0.6508444  3
    292    290    293    295     1  0.0000000  0.6508444  3
    294    293    290    318     1  0.0000000  1.0460000  1
    294    293    290    318     1  0.0000000  0.0000000  3
    294    293    296    299     1  0.0000000  0.6508444  3
    294    293    296    297     1  0.0000000  0.6508444  3
    294    293    296    298     1  0.0000000  0.6508444  3
    295    293    290    318     1  0.0000000  1.0460000  1
    295    293    290    318     1  0.0000000  0.0000000  3
    295    293    296    299     1  0.0000000  0.6508444  3
    295    293    296    297     1  0.0000000  0.6508444  3
    295    293    296    298     1  0.0000000  0.6508444  3
    296    299    300    301     1  0.0000000  1.2552000  3
    296    299    300    302     1  0.0000000  1.2552000  3
    296    299    309    310     1  0.0000000  1.2552000  3
    296    299    309    311     1  0.0000000  1.2552000  3
    297    296    299    300     1  0.0000000  1.2552000  3
    297    296    299    309     1  0.0000000  1.2552000  3
    298    296    299    300     1  0.0000000  1.2552000  3
    298    296    299    309     1  0.0000000  1.2552000  3
    299    300    303    304     1  0.0000000  0.6508444  3
    299    300    303    305     1  0.0000000  0.6508444  3
    299    309    312    313     1  0.0000000  0.6508444  3
    299    309    312    314     1  0.0000000  0.6508444  3
    300    299    309    310     1  0.0000000  1.2552000  3
    300    299    309    311     1  0.0000000  1.2552000  3
    301    300    299    309     1  0.0000000  1.2552000  3
    301    300    303    306     1  0.0000000  0.6508444  3
    301    300    303    304     1  0.0000000  0.6508444  3
    301    300    303    305     1  0.0000000  0.6508444  3
    302    300    299    309     1  0.0000000  1.2552000  3
    302    300    303    306     1  0.0000000  0.6508444  3
    302    300    303    304     1  0.0000000  0.6508444  3
    302    300    303    305     1  0.0000000  0.6508444  3
    304    303    306    307     1  0.0000000  3.3472000  1
    304    303    306    307     1  0.0000000  0.0000000  2
    304    303    306    307     1  180.0000771  0.3347200  3
    304    303    306    308     1  0.0000000  3.3472000  1
    304    303    306    308     1  0.0000000  0.0000000  2
    304    303    306    308     1  180.0000771  0.3347200  3
    305    303    306    307     1  0.0000000  3.3472000  1
    305    303    306    307     1  0.0000000  0.0000000  2
    305    303    306    307     1  180.0000771  0.3347200  3
    305    303    306    308     1  0.0000000  3.3472000  1
    305    303    306    308     1  0.0000000  0.0000000  2
    305    303    306    308     1  180.0000771  0.3347200  3
    310    309    312    315     1  0.0000000  0.6508444  3
    310    309    312    313     1  0.0000000  0.6508444  3
    310    309    312    314     1  0.0000000  0.6508444  3
    311    309    312    315     1  0.0000000  0.6508444  3
    311    309    312    313     1  0.0000000  0.6508444  3
    311    309    312    314     1  0.0000000  0.6508444  3
    313    312    315    316     1  0.0000000  3.3472000  1
    313    312    315    316     1  0.0000000  0.0000000  2
    313    312    315    316     1  180.0000771  0.3347200  3
    313    312    315    317     1  0.0000000  3.3472000  1
    313    312    315    317     1  0.0000000  0.0000000  2
    313    312    315    317     1  180.0000771  0.3347200  3
    314    312    315    316     1  0.0000000  3.3472000  1
    314    312    315    316     1  0.0000000  0.0000000  2
    314    312    315    316     1  180.0000771  0.3347200  3
    314    312    315    317     1  0.0000000  3.3472000  1
    314    312    315    317     1  0.0000000  0.0000000  2
    314    312    315    317     1  180.0000771  0.3347200  3
    319    322    325    326     1  0.0000000  0.6508444  3
    319    322    325    327     1  0.0000000  0.6508444  3
    320    319    322    325     1  0.0000000  0.6508444  3
    320    319    322    323     1  0.0000000  0.6508444  3
    320    319    322    324     1  0.0000000  0.6508444  3
    321    319    322    325     1  0.0000000  0.6508444  3
    321    319    322    323     1  0.0000000  0.6508444  3
    321    319    322    324     1  0.0000000  0.6508444  3
    323    322    325    328     1  0.0000000  0.6508444  3
    323    322    325    326     1  0.0000000  0.6508444  3
    323    322    325    327     1  0.0000000  0.6508444  3
    323    322    319    347     1  0.0000000  1.0460000  1
    323    322    319    347     1  0.0000000  0.0000000  3
    324    322    325    328     1  0.0000000  0.6508444  3
    324    322    325    326     1  0.0000000  0.6508444  3
    324    322    325    327     1  0.0000000  0.6508444  3
    324    322    319    347     1  0.0000000  1.0460000  1
    324    322    319    347     1  0.0000000  0.0000000  3
    325    328    329    330     1  0.0000000  1.2552000  3
    325    328    329    331     1  0.0000000  1.2552000  3
    325    328    338    339     1  0.0000000  1.2552000  3
    325    328    338    340     1  0.0000000  1.2552000  3
    326    325    328    329     1  0.0000000  1.2552000  3
    326    325    328    338     1  0.0000000  1.2552000  3
    327    325    328    329     1  0.0000000  1.2552000  3
    327    325    328    338     1  0.0000000  1.2552000  3
    328    329    332    333     1  0.0000000  0.6508444  3
    328    329    332    334     1  0.0000000  0.6508444  3
    328    338    341    342     1  0.0000000  0.6508444  3
    328    338    341    343     1  0.0000000  0.6508444  3
    329    328    338    339     1  0.0000000  1.2552000  3
    329    328    338    340     1  0.0000000  1.2552000  3
    330    329    332    335     1  0.0000000  0.6508444  3
    330    329    332    333     1  0.0000000  0.6508444  3
    330    329    332    334     1  0.0000000  0.6508444  3
    330    329    328    338     1  0.0000000  1.2552000  3
    331    329    332    335     1  0.0000000  0.6508444  3
    331    329    332    333     1  0.0000000  0.6508444  3
    331    329    332    334     1  0.0000000  0.6508444  3
    331    329    328    338     1  0.0000000  1.2552000  3
    333    332    335    336     1  0.0000000  3.3472000  1
    333    332    335    336     1  0.0000000  0.0000000  2
    333    332    335    336     1  180.0000771  0.3347200  3
    333    332    335    337     1  0.0000000  3.3472000  1
    333    332    335    337     1  0.0000000  0.0000000  2
    333    332    335    337     1  180.0000771  0.3347200  3
    334    332    335    336     1  0.0000000  3.3472000  1
    334    332    335    336     1  0.0000000  0.0000000  2
    334    332    335    336     1  180.0000771  0.3347200  3
    334    332    335    337     1  0.0000000  3.3472000  1
    334    332    335    337     1  0.0000000  0.0000000  2
    334    332    335    337     1  180.0000771  0.3347200  3
    339    338    341    344     1  0.0000000  0.6508444  3
    339    338    341    342     1  0.0000000  0.6508444  3
    339    338    341    343     1  0.0000000  0.6508444  3
    340    338    341    344     1  0.0000000  0.6508444  3
    340    338    341    342     1  0.0000000  0.6508444  3
    340    338    341    343     1  0.0000000  0.6508444  3
    342    341    344    345     1  0.0000000  3.3472000  1
    342    341    344    345     1  0.0000000  0.0000000  2
    342    341    344    345     1  180.0000771  0.3347200  3
    342    341    344    346     1  0.0000000  3.3472000  1
    342    341    344    346     1  0.0000000  0.0000000  2
    342    341    344    346     1  180.0000771  0.3347200  3
    343    341    344    345     1  0.0000000  3.3472000  1
    343    341    344    345     1  0.0000000  0.0000000  2
    343    341    344    345     1  180.0000771  0.3347200  3
    343    341    344    346     1  0.0000000  3.3472000  1
    343    341    344    346     1  0.0000000  0.0000000  2
    343    341    344    346     1  180.0000771  0.3347200  3
    348    351    354    355     1  0.0000000  0.6508444  3
    348    351    354    356     1  0.0000000  0.6508444  3
    349    348    351    354     1  0.0000000  0.6508444  3
    349    348    351    352     1  0.0000000  0.6508444  3
    349    348    351    353     1  0.0000000  0.6508444  3
    350    348    351    354     1  0.0000000  0.6508444  3
    350    348    351    352     1  0.0000000  0.6508444  3
    350    348    351    353     1  0.0000000  0.6508444  3
    352    351    348    376     1  0.0000000  1.0460000  1
    352    351    348    376     1  0.0000000  0.0000000  3
    352    351    354    357     1  0.0000000  0.6508444  3
    352    351    354    355     1  0.0000000  0.6508444  3
    352    351    354    356     1  0.0000000  0.6508444  3
    353    351    348    376     1  0.0000000  1.0460000  1
    353    351    348    376     1  0.0000000  0.0000000  3
    353    351    354    357     1  0.0000000  0.6508444  3
    353    351    354    355     1  0.0000000  0.6508444  3
    353    351    354    356     1  0.0000000  0.6508444  3
    354    357    358    359     1  0.0000000  1.2552000  3
    354    357    358    360     1  0.0000000  1.2552000  3
    354    357    367    368     1  0.0000000  1.2552000  3
    354    357    367    369     1  0.0000000  1.2552000  3
    355    354    357    358     1  0.0000000  1.2552000  3
    355    354    357    367     1  0.0000000  1.2552000  3
    356    354    357    358     1  0.0000000  1.2552000  3
    356    354    357    367     1  0.0000000  1.2552000  3
    357    358    361    362     1  0.0000000  0.6508444  3
    357    358    361    363     1  0.0000000  0.6508444  3
    357    367    370    371     1  0.0000000  0.6508444  3
    357    367    370    372     1  0.0000000  0.6508444  3
    358    357    367    368     1  0.0000000  1.2552000  3
    358    357    367    369     1  0.0000000  1.2552000  3
    359    358    357    367     1  0.0000000  1.2552000  3
    359    358    361    364     1  0.0000000  0.6508444  3
    359    358    361    362     1  0.0000000  0.6508444  3
    359    358    361    363     1  0.0000000  0.6508444  3
    360    358    357    367     1  0.0000000  1.2552000  3
    360    358    361    364     1  0.0000000  0.6508444  3
    360    358    361    362     1  0.0000000  0.6508444  3
    360    358    361    363     1  0.0000000  0.6508444  3
    362    361    364    365     1  0.0000000  3.3472000  1
    362    361    364    365     1  0.0000000  0.0000000  2
    362    361    364    365     1  180.0000771  0.3347200  3
    362    361    364    366     1  0.0000000  3.3472000  1
    362    361    364    366     1  0.0000000  0.0000000  2
    362    361    364    366     1  180.0000771  0.3347200  3
    363    361    364    365     1  0.0000000  3.3472000  1
    363    361    364    365     1  0.0000000  0.0000000  2
    363    361    364    365     1  180.0000771  0.3347200  3
    363    361    364    366     1  0.0000000  3.3472000  1
    363    361    364    366     1  0.0000000  0.0000000  2
    363    361    364    366     1  180.0000771  0.3347200  3
    368    367    370    373     1  0.0000000  0.6508444  3
    368    367    370    371     1  0.0000000  0.6508444  3
    368    367    370    372     1  0.0000000  0.6508444  3
    369    367    370    373     1  0.0000000  0.6508444  3
    369    367    370    371     1  0.0000000  0.6508444  3
    369    367    370    372     1  0.0000000  0.6508444  3
    371    370    373    374     1  0.0000000  3.3472000  1
    371    370    373    374     1  0.0000000  0.0000000  2
    371    370    373    374     1  180.0000771  0.3347200  3
    371    370    373    375     1  0.0000000  3.3472000  1
    371    370    373    375     1  0.0000000  0.0000000  2
    371    370    373    375     1  180.0000771  0.3347200  3
    372    370    373    374     1  0.0000000  3.3472000  1
    372    370    373    374     1  0.0000000  0.0000000  2
    372    370    373    374     1  180.0000771  0.3347200  3
    372    370    373    375     1  0.0000000  3.3472000  1
    372    370    373    375     1  0.0000000  0.0000000  2
    372    370    373    375     1  180.0000771  0.3347200  3
    377    380    383    384     1  0.0000000  0.6508444  3
    377    380    383    385     1  0.0000000  0.6508444  3
    378    377    380    383     1  0.0000000  0.6508444  3
    378    377    380    381     1  0.0000000  0.6508444  3
    378    377    380    382     1  0.0000000  0.6508444  3
    379    377    380    383     1  0.0000000  0.6508444  3
    379    377    380    381     1  0.0000000  0.6508444  3
    379    377    380    382     1  0.0000000  0.6508444  3
    381    380    383    386     1  0.0000000  0.6508444  3
    381    380    383    384     1  0.0000000  0.6508444  3
    381    380    383    385     1  0.0000000  0.6508444  3
    381    380    377    405     1  0.0000000  1.0460000  1
    381    380    377    405     1  0.0000000  0.0000000  3
    382    380    383    386     1  0.0000000  0.6508444  3
    382    380    383    384     1  0.0000000  0.6508444  3
    382    380    383    385     1  0.0000000  0.6508444  3
    382    380    377    405     1  0.0000000  1.0460000  1
    382    380    377    405     1  0.0000000  0.0000000  3
    383    386    387    388     1  0.0000000  1.2552000  3
    383    386    387    389     1  0.0000000  1.2552000  3
    383    386    396    397     1  0.0000000  1.2552000  3
    383    386    396    398     1  0.0000000  1.2552000  3
    384    383    386    387     1  0.0000000  1.2552000  3
    384    383    386    396     1  0.0000000  1.2552000  3
    385    383    386    387     1  0.0000000  1.2552000  3
    385    383    386    396     1  0.0000000  1.2552000  3
    386    387    390    391     1  0.0000000  0.6508444  3
    386    387    390    392     1  0.0000000  0.6508444  3
    386    396    399    400     1  0.0000000  0.6508444  3
    386    396    399    401     1  0.0000000  0.6508444  3
    387    386    396    397     1  0.0000000  1.2552000  3
    387    386    396    398     1  0.0000000  1.2552000  3
    388    387    390    393     1  0.0000000  0.6508444  3
    388    387    390    391     1  0.0000000  0.6508444  3
    388    387    390    392     1  0.0000000  0.6508444  3
    388    387    386    396     1  0.0000000  1.2552000  3
    389    387    390    393     1  0.0000000  0.6508444  3
    389    387    390    391     1  0.0000000  0.6508444  3
    389    387    390    392     1  0.0000000  0.6508444  3
    389    387    386    396     1  0.0000000  1.2552000  3
    391    390    393    394     1  0.0000000  3.3472000  1
    391    390    393    394     1  0.0000000  0.0000000  2
    391    390    393    394     1  180.0000771  0.3347200  3
    391    390    393    395     1  0.0000000  3.3472000  1
    391    390    393    395     1  0.0000000  0.0000000  2
    391    390    393    395     1  180.0000771  0.3347200  3
    392    390    393    394     1  0.0000000  3.3472000  1
    392    390    393    394     1  0.0000000  0.0000000  2
    392    390    393    394     1  180.0000771  0.3347200  3
    392    390    393    395     1  0.0000000  3.3472000  1
    392    390    393    395     1  0.0000000  0.0000000  2
    392    390    393    395     1  180.0000771  0.3347200  3
    397    396    399    402     1  0.0000000  0.6508444  3
    397    396    399    400     1  0.0000000  0.6508444  3
    397    396    399    401     1  0.0000000  0.6508444  3
    398    396    399    402     1  0.0000000  0.6508444  3
    398    396    399    400     1  0.0000000  0.6508444  3
    398    396    399    401     1  0.0000000  0.6508444  3
    400    399    402    403     1  0.0000000  3.3472000  1
    400    399    402    403     1  0.0000000  0.0000000  2
    400    399    402    403     1  180.0000771  0.3347200  3
    400    399    402    404     1  0.0000000  3.3472000  1
    400    399    402    404     1  0.0000000  0.0000000  2
    400    399    402    404     1  180.0000771  0.3347200  3
    401    399    402    403     1  0.0000000  3.3472000  1
    401    399    402    403     1  0.0000000  0.0000000  2
    401    399    402    403     1  180.0000771  0.3347200  3
    401    399    402    404     1  0.0000000  3.3472000  1
    401    399    402    404     1  0.0000000  0.0000000  2
    401    399    402    404     1  180.0000771  0.3347200  3

;[ system ]
;; Name
;Generic title
;
;[ molecules ]
;; Compound       #mols
;g2.5ocore_petim    1
