G2.5Ocore-PETIM in water
31238
    1aaa     O1    1   2.366   1.913   2.849 -0.5540 -0.0596  0.8894
    1aaa     C1    2   2.319   2.006   2.751 -0.2640  0.0837  0.3453
    1aaa     H1    3   2.218   2.043   2.774 -0.8635 -0.7518 -0.8241
    1aaa     H2    4   2.325   1.957   2.653  0.6152  2.0638 -0.6642
    1aaa     C2    5   2.272   1.802   2.867 -0.1546 -0.4810  0.0243
    1aaa     H3    6   2.268   1.737   2.778 -0.1022 -1.8199  0.9706
    1aaa     H4    7   2.170   1.835   2.888  0.3805  0.3239  1.5373
    1aaa     C3    8   2.416   2.125   2.752  0.0066 -0.6410  0.0676
    1aaa     H5    9   2.381   2.202   2.683  0.2138  0.5272  1.2274
    1aaa     H6   10   2.507   2.101   2.695 -0.0700  2.8696 -1.7367
    1aaa     C4   11   2.328   1.710   2.973  0.2397 -0.6011  0.2421
    1aaa     H7   12   2.431   1.673   2.964  0.5315  0.0111  0.9290
    1aaa     H8   13   2.253   1.632   2.993 -1.7120  1.2117  0.3747
    1aaa     C5   14   2.455   2.179   2.890  0.5757  0.4179 -0.5093
    1aaa     H9   15   2.361   2.195   2.945  0.8086  0.2267 -0.0553
    1aaa    H10   16   2.502   2.097   2.945 -1.5954  0.2373  1.2175
    1aaa     C6   17   2.315   1.788   3.105  0.1384  0.4438  0.4297
    1aaa    H11   18   2.211   1.818   3.125 -0.5700 -0.4497 -1.6713
    1aaa    H12   19   2.365   1.885   3.096  1.2296 -0.1696 -0.2583
    1aaa     N1   20   2.534   2.304   2.903 -0.1109 -0.1988 -0.8468
    1aaa     N2   21   2.354   1.717   3.225 -0.3508  0.2787 -0.4818
    1aaa     C7   22   2.482   1.634   3.224 -0.6966 -0.1377  0.2897
    1aaa    H13   23   2.498   1.588   3.323 -4.0888  0.2105  1.0987
    1aaa    H14   24   2.473   1.559   3.144 -1.8428  0.3034 -0.0084
    1aaa     C8   25   2.335   1.805   3.344  0.0431  0.3087 -0.0090
    1aaa    H15   26   2.393   1.897   3.334  0.8992 -0.2379 -0.1996
    1aaa    H16   27   2.228   1.830   3.349 -0.2279 -1.0138  2.7299
    1aaa     C9   28   2.603   2.326   3.035 -0.1082 -0.0252 -0.0084
    1aaa    H17   29   2.634   2.431   3.032 -0.6405  0.1150 -1.4996
    1aaa    H18   30   2.530   2.318   3.117 -0.0484 -2.2121 -0.1166
    1aaa    C10   31   2.473   2.421   2.837  0.1936  0.2590  0.4415
    1aaa    H19   32   2.546   2.503   2.845 -1.0391  1.3545  0.7622
    1aaa    H20   33   2.454   2.402   2.731  1.0549 -1.5250  0.5724
    1aaa    C11   34   2.605   1.711   3.169  0.2140 -0.5120 -0.2626
    1aaa    H21   35   2.597   1.741   3.063  0.1118 -0.9423 -0.3788
    1aaa    H22   36   2.596   1.810   3.216  2.5564 -0.4283  0.1153
    1aaa    C12   37   2.390   1.762   3.485  0.1839  0.0567  0.4411
    1aaa    H23   38   2.374   1.654   3.497 -2.6280  0.4863  1.3294
    1aaa    H24   39   2.500   1.768   3.483  0.0912  3.0506 -0.6751
    1aaa    C13   40   2.727   2.248   3.079 -0.0097  0.4661  0.0781
    1aaa    H25   41   2.718   2.144   3.046 -2.3427 -0.3597  2.8640
    1aaa    H26   42   2.817   2.286   3.029  0.6240  0.5270  1.2150
    1aaa    C14   43   2.363   2.480   2.926  0.4890 -0.0749 -0.0085
    1aaa    H27   44   2.282   2.406   2.921  0.4748 -0.1481  1.1229
    1aaa    H28   45   2.391   2.487   3.031 -0.3189  1.6825  0.1241
    1aaa    C15   46   2.297   2.615   2.880  0.0975  0.0503 -0.4719
    1aaa    H29   47   2.292   2.614   2.771  1.8673  0.4997 -0.5882
    1aaa    H30   48   2.195   2.617   2.920  0.3922 -2.6359  0.6025
    1aaa    C16   49   2.757   2.236   3.230  0.9276 -0.3489  0.1107
    1aaa    H31   50   2.675   2.187   3.283  1.1385 -1.1435 -0.2930
    1aaa    H32   51   2.848   2.178   3.248  2.1117  1.3214 -0.1736
    1aaa    C17   52   2.333   1.824   3.615  0.5372  0.3785  0.0945
    1aaa    H33   53   2.240   1.768   3.634 -0.1613  1.6786  0.6024
    1aaa    H34   54   2.406   1.795   3.691 -0.5231 -0.6470  0.7766
    1aaa    C18   55   2.752   1.668   3.213 -0.0449 -0.1080  0.2901
    1aaa    H35   56   2.783   1.700   3.313  0.4020 -0.2943  0.2102
    1aaa    H36   57   2.750   1.558   3.208  1.6538 -0.2305  1.6339
    2bbb     N1   58   2.755   2.793   3.096 -0.5034 -0.2307 -0.1088
    2bbb     C1   59   2.867   2.726   3.024  0.7578  0.3767 -0.0881
    2bbb     H1   60   2.953   2.794   3.018 -0.7583  2.3087 -0.8533
    2bbb     H2   61   2.825   2.710   2.924  0.9106 -0.9343  0.0456
    2bbb     C2   62   2.790   2.829   3.234 -0.9100 -0.2583  0.6948
    2bbb     H3   63   2.843   2.746   3.282  0.3721 -0.2344 -0.6230
    2bbb     H4   64   2.701   2.864   3.288 -1.4040 -0.8842  0.3082
    2bbb     C3   65   2.627   2.725   3.072 -0.2011 -0.6754  0.8892
    2bbb     H5   66   2.620   2.630   3.125 -1.5595 -0.6565  0.7883
    2bbb     H6   67   2.621   2.716   2.963 -1.2091  4.4121  0.2557
    2bbb     C4   68   2.509   2.819   3.106 -0.2982  0.4747  0.3931
    2bbb     H7   69   2.521   2.920   3.064 -0.0899 -0.3832 -1.7208
    2bbb     H8   70   2.514   2.841   3.213 -1.1219  0.2820  0.4767
    2bbb     C5   71   2.922   2.591   3.068 -0.3050 -0.0597  0.0642
    2bbb     H9   72   2.838   2.529   3.101 -0.3297  0.0719  0.2560
    2bbb    H10   73   2.987   2.603   3.156  1.2420 -1.2586 -0.8625
    2bbb     C6   74   2.887   2.950   3.237  1.1849  0.5030  0.3467
    2bbb    H11   75   2.959   2.948   3.154  0.9612  0.8968  0.1391
    2bbb    H12   76   2.942   2.952   3.332  0.1147 -1.3381  1.0567
    2bbb     C7   77   2.369   2.765   3.067  0.5100  0.2192 -0.0762
    2bbb    H13   78   2.304   2.846   3.103  2.8604  1.5545  1.4341
    2bbb    H14   79   2.358   2.671   3.123  0.7923  0.7240  0.8408
    2bbb     C8   80   2.799   3.076   3.234  0.9291  0.0364 -0.6095
    2bbb    H15   81   2.721   3.070   3.311  0.7740  1.1673 -0.6602
    2bbb    H16   82   2.751   3.074   3.135 -2.3305  0.1227  0.8575
    2bbb     C9   83   3.004   2.509   2.962  0.1261 -0.4315  0.0193
    2bbb    H17   84   2.940   2.509   2.873  0.0012 -0.4566  0.1094
    2bbb    H18   85   3.023   2.407   2.998  3.3742  0.1670  0.3466
    2bbb     O1   86   2.366   2.733   2.926  0.4305 -0.1488  0.0290
    3bbb     N1   87   2.748   2.661   3.684  1.0244 -0.3618 -0.8880
    3bbb     C1   88   2.609   2.713   3.704 -0.1712 -0.2580 -0.0736
    3bbb     H1   89   2.614   2.797   3.774 -1.4423  1.0939 -1.5204
    3bbb     H2   90   2.544   2.634   3.744  2.2458 -2.5191 -0.3250
    3bbb     C2   91   2.856   2.755   3.638  0.8434  0.4495  0.2360
    3bbb     H3   92   2.858   2.846   3.700  1.2207 -0.0174  0.9227
    3bbb     H4   93   2.842   2.776   3.532  0.7732 -0.4043  0.0667
    3bbb     C3   94   2.755   2.521   3.629  0.3300  0.2322  0.1404
    3bbb     H5   95   2.662   2.471   3.658  0.2690  0.7621  0.8841
    3bbb     H6   96   2.839   2.461   3.666  1.1655  0.9097 -0.5835
    3bbb     C4   97   2.762   2.516   3.476  0.3362 -0.1768  0.0778
    3bbb     H7   98   2.846   2.570   3.430  0.0550 -0.5115 -0.8579
    3bbb     H8   99   2.667   2.545   3.429  0.2614 -2.0056 -1.0029
    3bbb     C5  100   2.542   2.765   3.577 -0.2336 -0.2123  0.2486
    3bbb     H9  101   2.525   2.683   3.506  1.2193 -1.0379  0.8082
    3bbb    H10  102   2.612   2.833   3.526  0.3377 -0.8669  0.1437
    3bbb     C6  103   2.994   2.695   3.657 -0.7303  0.1985  0.3888
    3bbb    H11  104   3.009   2.606   3.596 -0.7100  0.8142 -0.5198
    3bbb    H12  105   3.001   2.676   3.765 -1.0556  1.7186  0.7037
    3bbb     C7  106   2.783   2.374   3.423  0.1232  0.0579 -0.0786
    3bbb    H13  107   2.711   2.312   3.478 -0.0226 -0.0086 -0.3451
    3bbb    H14  108   2.886   2.341   3.438  0.3578 -0.2705 -2.1724
    3bbb     C8  109   3.093   2.789   3.600 -0.7336 -0.4736 -0.2589
    3bbb    H15  110   3.190   2.760   3.642 -0.6847  1.1064  0.7872
    3bbb    H16  111   3.060   2.893   3.613 -0.3130 -0.2613 -0.8598
    3bbb     C9  112   2.406   2.833   3.596  0.0907  0.4196  0.2863
    3bbb    H17  113   2.427   2.914   3.667 -3.8939  2.1666 -0.3054
    3bbb    H18  114   2.345   2.753   3.639  0.8862 -0.3451  0.0350
    3bbb     O1  115   2.767   2.371   3.278 -0.2109  0.0978 -0.2250
    4bbb     N1  116   2.299   2.292   3.370 -0.4417 -0.6453 -0.1846
    4bbb     C1  117   2.355   2.433   3.390 -0.2317  0.3461 -0.1957
    4bbb     H1  118   2.438   2.438   3.319  1.2564  1.7534  1.5618
    4bbb     H2  119   2.398   2.449   3.489 -1.3871  1.3280  0.1787
    4bbb     C2  120   2.254   2.274   3.229 -0.5067  0.1692  0.6400
    4bbb     H3  121   2.336   2.247   3.162  0.0528  0.6041  1.1398
    4bbb     H4  122   2.200   2.359   3.185  0.7084  0.1550 -0.9463
    4bbb     C3  123   2.387   2.187   3.416 -0.3320 -0.0660  0.5144
    4bbb     H5  124   2.485   2.180   3.366 -0.4491 -2.0420  0.4716
    4bbb     H6  125   2.339   2.091   3.391  0.0535 -0.4995  1.4268
    4bbb     C4  126   2.411   2.188   3.562  0.2675 -0.3415 -0.4440
    4bbb     H7  127   2.321   2.226   3.611  0.2650  0.0919 -0.7780
    4bbb     H8  128   2.493   2.259   3.581 -0.0494 -0.2010  0.4417
    4bbb     C5  129   2.257   2.554   3.361  0.2573  0.0704  0.0733
    4bbb     H9  130   2.230   2.555   3.255  0.8015  0.4452 -0.0641
    4bbb    H10  131   2.324   2.640   3.368 -1.0511  1.4335 -2.6497
    4bbb     C6  132   2.162   2.153   3.209  0.3190 -0.3529 -0.0636
    4bbb    H11  133   2.086   2.174   3.285  1.1256 -1.3597  1.0746
    4bbb    H12  134   2.207   2.059   3.243  0.3032  0.2233  1.6164
    4bbb     C7  135   2.432   2.049   3.618 -0.7832 -0.0269  0.5581
    4bbb    H13  136   2.459   2.048   3.725  2.6050  0.7832 -0.1614
    4bbb    H14  137   2.516   2.008   3.560 -0.1245  1.0971  0.6823
    4bbb     C8  138   2.094   2.133   3.072 -0.4228 -0.6385  0.5083
    4bbb    H15  139   2.005   2.069   3.074  0.9385 -2.7165 -0.9220
    4bbb    H16  140   2.164   2.070   3.015 -0.3114 -0.8183  0.8413
    4bbb     C9  141   2.136   2.574   3.456  0.8409  0.1894 -0.2408
    4bbb    H17  142   2.128   2.680   3.480  1.0543  0.5232 -1.5579
    4bbb    H18  143   2.161   2.526   3.552  1.1323  2.5740  0.9483
    4bbb     O1  144   2.314   1.970   3.608 -0.3899  0.6645 -0.0850
    5bbb     N1  145   3.094   1.941   2.881 -1.1620  0.3809 -0.2607
    5bbb     C1  146   2.999   1.935   2.761  0.1564  0.3032 -0.6228
    5bbb     H1  147   2.898   1.900   2.783 -0.0939  0.4272 -1.5017
    5bbb     H2  148   3.028   1.851   2.696 -0.1075 -0.8477  0.6931
    5bbb     C2  149   3.237   1.928   2.849 -0.5758 -0.1082 -0.2767
    5bbb     H3  150   3.252   1.983   2.755  0.8365 -0.5160 -0.3103
    5bbb     H4  151   3.268   1.824   2.834  1.0031  0.5192 -1.6571
    5bbb     C3  152   3.043   1.865   2.994 -0.0293  0.4061 -0.1726
    5bbb     H5  153   2.942   1.907   3.001  0.1293  1.0246 -1.3191
    5bbb     H6  154   3.098   1.884   3.087  2.6951 -1.1160 -1.3523
    5bbb     C4  155   3.042   1.713   2.975  0.0247  0.2442  0.5522
    5bbb     H7  156   3.147   1.681   2.965  0.6826  2.4273 -0.1294
    5bbb     H8  157   2.981   1.685   2.888  1.4314 -2.0691  0.2238
    5bbb     C5  158   3.002   2.063   2.682  0.2894 -0.4348 -0.3600
    5bbb     H9  159   2.922   2.042   2.611  0.4983 -1.1864 -0.3747
    5bbb    H10  160   3.094   2.079   2.625  0.1026 -1.8614 -1.0834
    5bbb     C6  161   3.345   1.992   2.939  0.6143 -1.1332  0.5214
    5bbb    H11  162   3.439   1.994   2.883  0.3366  0.7498  0.0462
    5bbb    H12  163   3.354   1.926   3.026  0.9608 -0.8338  0.7110
    5bbb     C7  164   2.973   1.652   3.100  0.0896 -0.5449  0.4712
    5bbb    H13  165   3.030   1.670   3.192 -0.2763  1.3013  0.3839
    5bbb    H14  166   2.959   1.544   3.088 -2.0050 -0.3055  0.3941
    5bbb     C8  167   3.299   2.136   2.989  0.2029 -0.2294 -0.2438
    5bbb    H15  168   3.213   2.121   3.054  0.6367 -0.5214  0.2759
    5bbb    H16  169   3.278   2.201   2.904 -0.3760 -0.0576  0.0297
    5bbb     C9  170   2.974   2.190   2.773 -0.5293 -0.0489 -0.0576
    5bbb    H17  171   3.066   2.200   2.831  0.4945 -0.9919 -1.4442
    5bbb    H18  172   2.887   2.171   2.837  0.6834 -1.7032  1.1979
    5bbb     O1  173   2.840   1.719   3.114  0.3597  0.7203 -0.8695
    6ccc     C3  174   2.809   3.314   3.274 -0.9726 -0.7178 -0.3543
    6ccc     H5  175   2.749   3.323   3.183  2.7780  0.1589 -2.9814
    6ccc     H6  176   2.742   3.304   3.360 -0.3409 -0.1051  0.2237
    6ccc     C2  177   2.916   3.420   3.284  0.2324  1.0067 -0.6311
    6ccc     H3  178   2.978   3.381   3.366 -1.2978  0.4458  0.3061
    6ccc     H4  179   2.877   3.517   3.315 -2.2795  0.1937 -1.0165
    6ccc     C1  180   3.021   3.426   3.169  0.0692 -0.8913 -0.0920
    6ccc     H1  181   3.084   3.336   3.167  1.8643  0.3055 -0.5709
    6ccc     H2  182   3.095   3.505   3.191 -2.1499  0.9686  1.0549
    6ccc     N1  183   2.958   3.457   3.038  0.0880 -0.0332  0.8310
    6ccc     C4  184   3.047   3.407   2.935  0.2881  0.5161  0.3194
    6ccc     H7  185   3.075   3.305   2.964  0.4354  0.4188 -0.1508
    6ccc     H8  186   3.129   3.480   2.941 -0.7488  1.6500  1.2294
    6ccc     C5  187   2.977   3.411   2.796 -0.0028 -0.8906 -0.3054
    6ccc     H9  188   2.882   3.356   2.794  0.0636 -1.0236 -2.1776
    6ccc    H10  189   2.957   3.504   2.740 -0.2221 -1.5221 -1.3084
    6ccc     C6  190   3.069   3.341   2.696 -0.2887 -0.3033 -0.0458
    6ccc     O2  191   3.169   3.285   2.734  0.1585  0.2653  0.1263
    6ccc     O3  192   3.029   3.307   2.589  0.4161  0.2854 -0.6776
    6ccc     C7  193   2.911   3.597   3.018 -0.6921 -0.2055  0.0700
    6ccc    H11  194   2.918   3.646   3.116 -0.5815 -0.4851  0.2016
    6ccc    H12  195   2.973   3.648   2.943  1.9284 -1.3170  1.3601
    6ccc     C8  196   2.762   3.602   2.991  0.0244 -0.4773  1.3054
    6ccc    H13  197   2.751   3.550   2.895 -0.1126  1.2732  0.3374
    6ccc    H14  198   2.708   3.561   3.077 -1.1273  1.3816  1.5170
    6ccc     C9  199   2.723   3.747   2.981 -0.1099  0.0758  0.3848
    6ccc     O4  200   2.665   3.800   3.074 -0.6219  0.1467 -0.7506
    6ccc     O5  201   2.731   3.800   2.869  0.2784 -0.2018 -0.1624
    6ccc     O1  202   2.882   3.186   3.252 -0.5623  0.3298 -0.5627
    7ccc     C3  203   3.210   2.545   2.836 -0.0328 -0.2791  0.2440
    7ccc     H5  204   3.245   2.442   2.846 -0.4630 -0.4638 -0.0847
    7ccc     H6  205   3.151   2.551   2.743  0.7702  0.4450 -0.2356
    7ccc     C2  206   3.333   2.641   2.840 -0.3371 -0.0397  0.7811
    7ccc     H3  207   3.396   2.626   2.929  1.4564  0.9593 -0.2530
    7ccc     H4  208   3.294   2.743   2.855 -0.3687  0.0548  0.0837
    7ccc     C1  209   3.411   2.652   2.706 -0.0497 -0.3776 -0.3813
    7ccc     H1  210   3.344   2.679   2.624 -0.5909  2.4879  0.9081
    7ccc     H2  211   3.437   2.548   2.680  1.8269 -0.6284  2.0856
    7ccc     N1  212   3.525   2.750   2.700  0.2661 -0.5442  0.3709
    7ccc     C4  213   3.472   2.888   2.701 -0.3299 -0.0225 -0.3994
    7ccc     H7  214   3.459   2.928   2.802  1.9045  2.2733 -0.9111
    7ccc     H8  215   3.373   2.883   2.653 -1.1032  1.2888  0.9854
    7ccc     C5  216   3.558   2.988   2.629 -0.5550  0.3543 -0.7350
    7ccc     H9  217   3.652   2.998   2.684  0.7300  0.3359 -2.8127
    7ccc    H10  218   3.574   2.964   2.523  2.3167  1.1700 -0.5462
    7ccc     C6  219   3.493   3.119   2.635 -0.2210  0.0834  0.3131
    7ccc     O2  220   3.538   3.206   2.711  0.3927  0.7332  0.9775
    7ccc     O3  221   3.393   3.146   2.567 -0.0416  0.1883 -0.1246
    7ccc     C7  222   3.638   2.730   2.791  0.1419 -0.5273 -0.2570
    7ccc    H11  223   3.719   2.804   2.776  0.8509 -0.8927  1.4903
    7ccc    H12  224   3.607   2.747   2.895  1.3153 -1.2651  0.2306
    7ccc     C8  225   3.686   2.587   2.789  0.0046 -0.0183 -0.1451
    7ccc    H13  226   3.620   2.520   2.844  0.3718  0.5519  1.0331
    7ccc    H14  227   3.680   2.557   2.684  1.3734  1.7201 -0.7788
    7ccc     C9  228   3.821   2.558   2.846  0.2243 -0.2271  0.4184
    7ccc     O4  229   3.874   2.450   2.832  0.0180 -0.3924 -0.0014
    7ccc     O5  230   3.869   2.621   2.940  0.5997  0.2041  0.0931
    7ccc     O1  231   3.126   2.581   2.949 -0.2052 -0.7265 -0.3299
    8ccc     C3  232   3.208   2.832   3.401 -0.4118  0.0312 -0.3958
    8ccc     H5  233   3.181   2.937   3.388 -4.1029 -0.8647 -0.9872
    8ccc     H6  234   3.297   2.837   3.465 -0.5245  0.7062 -0.2885
    8ccc     C2  235   3.246   2.765   3.265  0.5651  0.4896  0.4124
    8ccc     H3  236   3.203   2.821   3.181 -0.2586 -1.0728 -0.2294
    8ccc     H4  237   3.193   2.671   3.250  2.3310 -0.5060  0.1718
    8ccc     C1  238   3.396   2.734   3.246  0.9117  0.4334  0.2613
    8ccc     H1  239   3.413   2.683   3.150 -1.1499  1.3990 -0.6909
    8ccc     H2  240   3.440   2.672   3.325 -0.9875 -0.4210  0.7020
    8ccc     N1  241   3.475   2.855   3.237  0.0006 -0.4452 -0.3780
    8ccc     C4  242   3.437   2.936   3.115 -0.5645 -0.3849  0.5220
    8ccc     H7  243   3.350   2.890   3.066 -0.2919 -1.2197  0.7934
    8ccc     H8  244   3.522   2.938   3.045 -0.0486 -1.3871  1.0868
    8ccc     C5  245   3.388   3.078   3.157  0.5414  0.0520 -0.0037
    8ccc     H9  246   3.301   3.061   3.221  1.0063 -1.6012  0.2449
    8ccc    H10  247   3.469   3.121   3.217  0.8004  0.6426 -0.7499
    8ccc     C6  248   3.366   3.168   3.036 -0.2169  0.9417  0.9261
    8ccc     O2  249   3.437   3.266   3.020 -0.2706  0.5180 -0.5098
    8ccc     O3  250   3.306   3.133   2.935  0.2127  0.2729  0.2417
    8ccc     C7  251   3.620   2.819   3.248  0.4796 -0.6389  0.1685
    8ccc    H11  252   3.624   2.747   3.331 -0.1126  1.5672  2.2272
    8ccc    H12  253   3.653   2.768   3.157  2.2244  0.1843  0.3090
    8ccc     C8  254   3.707   2.940   3.286  0.0695  0.1566 -0.3851
    8ccc    H13  255   3.713   3.012   3.204  3.0562 -0.6540 -1.0044
    8ccc    H14  256   3.666   2.985   3.377  0.1318 -0.1743 -0.1928
    8ccc     C9  257   3.835   2.885   3.329 -0.1629  0.7206  0.2183
    8ccc     O4  258   3.922   2.872   3.246  0.3694 -0.0258  0.4027
    8ccc     O5  259   3.862   2.874   3.445 -0.1818  0.0536 -0.8660
    8ccc     O1  260   3.105   2.757   3.459 -0.4394 -0.1485 -0.0621
    9ccc     C3  261   2.239   2.966   3.474 -0.7101 -0.0820 -0.3329
    9ccc     H5  262   2.151   2.901   3.475 -1.6668  1.0500 -2.4562
    9ccc     H6  263   2.237   3.023   3.568 -1.3191 -0.7435  0.0650
    9ccc     C2  264   2.227   3.059   3.354  0.0434  0.2687 -0.0846
    9ccc     H3  265   2.134   3.117   3.357 -1.2841 -1.8162  0.8590
    9ccc     H4  266   2.218   2.988   3.271  1.0450 -2.8755  2.3094
    9ccc     C1  267   2.347   3.148   3.338 -0.4597  0.4239 -0.2742
    9ccc     H1  268   2.436   3.086   3.324  0.9440  1.8584  1.7257
    9ccc     H2  269   2.363   3.195   3.435 -1.3039  0.1412  0.0145
    9ccc     N1  270   2.334   3.243   3.221 -0.9541  0.2308  0.6801
    9ccc     C4  271   2.426   3.351   3.245  0.1382  0.0240 -0.2658
    9ccc     H7  272   2.450   3.394   3.147 -2.5106  0.0739 -0.9480
    9ccc     H8  273   2.518   3.312   3.291 -0.1610  2.9477  3.3283
    9ccc     C5  274   2.374   3.471   3.330 -0.4306 -0.4918 -0.0353
    9ccc     H9  275   2.277   3.505   3.293 -0.3271 -2.3426 -2.2710
    9ccc    H10  276   2.359   3.435   3.433 -2.8599  1.6798  0.4698
    9ccc     C6  277   2.462   3.587   3.305 -0.2345 -0.0748  0.1951
    9ccc     O2  278   2.556   3.619   3.378  0.8067  0.0159 -0.1702
    9ccc     O3  279   2.429   3.659   3.217  0.7959  0.1055 -0.0674
    9ccc     C7  280   2.371   3.173   3.099 -0.5116  1.1445 -0.9357
    9ccc    H11  281   2.480   3.168   3.084 -0.7399 -0.4257 -2.4382
    9ccc    H12  282   2.333   3.071   3.093 -0.4728  0.9654  1.0862
    9ccc     C8  283   2.310   3.236   2.969  0.1654 -0.0141  0.5229
    9ccc    H13  284   2.203   3.251   2.991  0.0564 -1.7087  1.2528
    9ccc    H14  285   2.353   3.337   2.960  0.2407  0.0922  1.8933
    9ccc     C9  286   2.341   3.141   2.849 -0.0731  0.2732  0.0799
    9ccc     O4  287   2.251   3.080   2.788 -0.1967 -0.3917 -0.1645
    9ccc     O5  288   2.453   3.135   2.798  0.5969  0.2683  0.3218
    9ccc     O1  289   2.362   2.891   3.471  0.0294  0.0724  0.0719
   10ccc     C3  290   1.999   2.270   2.893  0.0771 -0.2815 -1.0043
   10ccc     H5  291   2.081   2.295   2.825  0.7224  2.6979  0.7035
   10ccc     H6  292   1.954   2.175   2.860 -2.5655  0.9259 -1.1111
   10ccc     C2  293   1.897   2.379   2.908  0.3641  1.3804  0.4114
   10ccc     H3  294   1.947   2.467   2.951  2.4281 -0.0540  1.1509
   10ccc     H4  295   1.819   2.342   2.975  1.6578 -1.8746  0.3367
   10ccc     C1  296   1.838   2.413   2.769  0.0480  0.2725  0.5909
   10ccc     H1  297   1.784   2.323   2.737  0.7904  0.1228 -0.2562
   10ccc     H2  298   1.919   2.429   2.697 -0.6753  0.4854 -0.2013
   10ccc     N1  299   1.749   2.531   2.768 -1.1161 -0.0455  0.4438
   10ccc     C4  300   1.606   2.496   2.756  0.0401 -0.2192 -0.1608
   10ccc     H7  301   1.594   2.410   2.689  0.7596 -0.5466  0.1289
   10ccc     H8  302   1.549   2.580   2.713 -1.4423 -0.5756  0.9987
   10ccc     C5  303   1.538   2.469   2.894 -0.0491 -0.8929  0.0851
   10ccc     H9  304   1.601   2.401   2.953  1.0210  0.2636  0.3236
   10ccc    H10  305   1.538   2.567   2.944  2.9493  0.3405 -2.0321
   10ccc     C6  306   1.397   2.431   2.879 -0.0488 -0.2566  0.5073
   10ccc     O2  307   1.367   2.323   2.927 -0.2549  0.3656  0.1042
   10ccc     O3  308   1.319   2.523   2.896 -0.1413 -0.1002  0.0708
   10ccc     C7  309   1.800   2.645   2.689 -0.7354  0.3578 -0.3083
   10ccc    H11  310   1.805   2.614   2.584  1.7678 -0.8535  0.0863
   10ccc    H12  311   1.738   2.735   2.693  2.1141  2.4398  0.6129
   10ccc     C8  312   1.939   2.689   2.741  0.8911 -0.3320 -0.2605
   10ccc    H13  313   1.938   2.714   2.847  2.4175 -1.7845  0.1437
   10ccc    H14  314   2.023   2.620   2.730  1.2736 -0.3593  2.2739
   10ccc     C9  315   1.980   2.816   2.682 -0.5263  0.2433 -0.1025
   10ccc     O4  316   2.095   2.822   2.649  0.2860 -0.3534 -0.2643
   10ccc     O5  317   1.934   2.926   2.706  0.5783  0.5490  0.1203
   10ccc     O1  318   2.064   2.265   3.019  0.2825  0.3462 -0.5061
   11ccc     C3  319   1.894   2.566   3.460 -0.3275 -0.2473  0.6541
   11ccc     H5  320   1.887   2.507   3.552 -0.5886 -0.7376  0.3206
   11ccc     H6  321   1.900   2.675   3.474  1.6131 -0.1696 -0.3558
   11ccc     C2  322   1.772   2.543   3.364  0.3828 -0.3399 -0.9734
   11ccc     H3  323   1.685   2.565   3.428  1.8910 -0.9235  1.4066
   11ccc     H4  324   1.779   2.435   3.353  0.8829 -0.2922 -1.1183
   11ccc     C1  325   1.789   2.618   3.231 -0.4163 -0.7870 -0.0771
   11ccc     H1  326   1.702   2.581   3.175 -0.0665 -0.5732 -0.7723
   11ccc     H2  327   1.877   2.590   3.171 -0.7392  0.3734 -1.1282
   11ccc     N1  328   1.780   2.763   3.234 -0.1456 -0.3966 -0.3553
   11ccc     C4  329   1.653   2.822   3.288 -0.4973 -0.0262 -0.6678
   11ccc     H7  330   1.622   2.765   3.376 -1.2478 -0.6949 -1.3419
   11ccc     H8  331   1.574   2.806   3.213 -1.7706 -0.2950  0.6915
   11ccc     C5  332   1.659   2.961   3.335  0.7682  0.1633  0.2225
   11ccc     H9  333   1.728   2.964   3.421  0.7744 -2.0503  0.3585
   11ccc    H10  334   1.697   3.024   3.254  0.8458  0.8464  0.7755
   11ccc     C6  335   1.522   3.010   3.368 -0.4330  0.4537 -0.2570
   11ccc     O2  336   1.503   3.017   3.485 -0.1053 -0.8527 -0.3064
   11ccc     O3  337   1.445   3.039   3.281 -0.3188 -0.0182 -0.1103
   11ccc     C7  338   1.826   2.823   3.113 -0.2995  0.0430 -0.8120
   11ccc    H11  339   1.799   2.766   3.023 -2.4221 -1.4045  0.6728
   11ccc    H12  340   1.798   2.929   3.103  1.1026  0.4142 -1.1034
   11ccc     C8  341   1.979   2.834   3.122 -0.1101  0.1312  0.9155
   11ccc    H13  342   2.021   2.873   3.215 -2.4120  1.3975  1.5018
   11ccc    H14  343   2.017   2.736   3.091 -2.0291 -0.3081 -0.2220
   11ccc     C9  344   2.016   2.928   3.015 -0.5634  0.2699  0.0706
   11ccc     O4  345   1.962   3.035   2.998  0.3705  0.0226  0.5651
   11ccc     O5  346   2.113   2.905   2.943 -0.5073  0.4292 -0.0202
   11ccc     O1  347   2.014   2.523   3.394  0.5562 -0.1972  0.8730
   12ccc     C3  348   3.431   2.327   3.055 -0.7233 -0.0069 -0.7087
   12ccc     H5  349   3.451   2.349   2.950  0.6051 -0.7848 -0.6516
   12ccc     H6  350   3.345   2.381   3.097 -0.2717 -0.4084  0.8212
   12ccc     C2  351   3.558   2.352   3.136 -0.5635  0.0326  0.2946
   12ccc     H3  352   3.595   2.449   3.100 -1.8001  0.6329  0.6205
   12ccc     H4  353   3.626   2.270   3.110  1.2644  1.5630  0.0339
   12ccc     C1  354   3.543   2.363   3.283  0.0876  0.2521 -0.0919
   12ccc     H1  355   3.484   2.275   3.312 -1.9942  0.6745 -2.6906
   12ccc     H2  356   3.481   2.451   3.305 -1.6690 -0.7524 -0.8580
   12ccc     N1  357   3.665   2.358   3.356  0.0738 -0.3580  0.1332
   12ccc     C4  358   3.758   2.467   3.331 -0.3587 -0.3698  0.0376
   12ccc     H7  359   3.731   2.554   3.393  0.9071  1.0077 -1.2673
   12ccc     H8  360   3.745   2.501   3.228  0.2328 -0.5737 -0.1081
   12ccc     C5  361   3.900   2.416   3.341  0.8347 -0.1247  0.2357
   12ccc     H9  362   3.931   2.365   3.433  0.1277 -1.8614 -0.4389
   12ccc    H10  363   3.898   2.337   3.265  1.0023 -1.7698  1.8665
   12ccc     C6  364   3.993   2.526   3.303 -0.0267  0.2965 -0.0650
   12ccc     O2  365   4.040   2.602   3.387  0.6250 -0.5454 -0.0452
   12ccc     O3  366   3.994   2.570   3.189 -0.0722 -0.0182 -0.1686
   12ccc     C7  367   3.644   2.345   3.500 -0.0179 -0.5037 -0.2419
   12ccc    H11  368   3.729   2.377   3.561  0.1055 -1.6655  0.2122
   12ccc    H12  369   3.561   2.406   3.539  0.7713 -0.5244  1.5365
   12ccc     C8  370   3.619   2.202   3.534  0.3457 -0.3346  0.6937
   12ccc    H13  371   3.561   2.196   3.627  0.4655  0.2567  0.8090
   12ccc    H14  372   3.574   2.145   3.452  1.0231  0.5142 -0.2850
   12ccc     C9  373   3.753   2.130   3.547  0.2618  0.1224  0.4741
   12ccc     O4  374   3.826   2.152   3.646 -0.0104  0.3177  0.7610
   12ccc     O5  375   3.780   2.045   3.460 -0.3738 -0.6241  0.1878
   12ccc     O1  376   3.407   2.183   3.059  0.1538  0.2786 -0.4048
   13ccc     C3  377   2.830   2.329   2.651 -0.2099  0.3814  0.0747
   13ccc     H5  378   2.790   2.249   2.587  0.6501  0.7569 -0.9644
   13ccc     H6  379   2.764   2.338   2.738 -1.4838 -1.4756 -0.6328
   13ccc     C2  380   2.840   2.450   2.558  0.2939 -0.2118  0.1104
   13ccc     H3  381   2.740   2.443   2.514 -0.6444  0.1543  2.0505
   13ccc     H4  382   2.901   2.447   2.467  0.5523 -0.0616  0.2777
   13ccc     C1  383   2.844   2.585   2.629  0.1707  0.7727 -0.2454
   13ccc     H1  384   2.949   2.609   2.648  0.2384  2.3835 -2.2781
   13ccc     H2  385   2.808   2.586   2.733 -1.9917 -1.4878 -0.8775
   13ccc     N1  386   2.786   2.693   2.557  0.2035  0.1353 -0.1990
   13ccc     C4  387   2.634   2.699   2.561 -0.1996  0.2194  0.2436
   13ccc     H7  388   2.607   2.670   2.663 -0.7023 -3.6561 -0.8101
   13ccc     H8  389   2.592   2.613   2.507  0.7016 -0.5279  0.6851
   13ccc     C5  390   2.568   2.822   2.505  0.3903  0.4653 -1.0892
   13ccc     H9  391   2.613   2.907   2.558  0.6128 -1.2602  1.6713
   13ccc    H10  392   2.584   2.839   2.398  0.4839 -0.2980 -1.1988
   13ccc     C6  393   2.427   2.799   2.537  0.0881  0.2136  0.3347
   13ccc     O2  394   2.371   2.870   2.621  0.0974  0.9551  0.6275
   13ccc     O3  395   2.359   2.728   2.465  0.6243  0.3154 -0.0205
   13ccc     C7  396   2.852   2.826   2.587  0.3971  0.5062  0.5933
   13ccc    H11  397   2.816   2.898   2.513 -0.8590 -0.6950  0.0004
   13ccc    H12  398   2.823   2.853   2.689 -0.5534  0.1221  0.4326
   13ccc     C8  399   3.009   2.820   2.569  0.7096  0.4609  0.7650
   13ccc    H13  400   3.054   2.772   2.656 -1.3764 -1.0906  1.0725
   13ccc    H14  401   3.040   2.782   2.471 -1.4169  0.3992  0.0554
   13ccc     C9  402   3.050   2.966   2.568 -0.6810 -0.0570 -0.0342
   13ccc     O4  403   3.127   3.007   2.651  0.3787  0.1228  0.0156
   13ccc     O5  404   3.016   3.036   2.475 -0.2588  0.3509  0.2249
   13ccc     O1  405   2.959   2.307   2.693 -0.6836 -0.2541 -0.3066
   14SOL     OW  406   2.693   5.825   3.677  0.1897 -0.7445  0.3057
   14SOL    HW1  407   2.715   5.865   3.760  0.2310 -0.0569 -0.0288
   14SOL    HW2  408   2.654   5.740   3.700  0.8983 -0.8887  0.9850
   15SOL     OW  409   6.558   0.825   0.221  0.0605  0.6474 -0.0161
   15SOL    HW1  410   6.629   0.854   0.163  0.6257 -1.6161 -0.5201
   15SOL    HW2  411   6.479   0.833   0.168  0.2966  0.5698 -0.3843
   16SOL     OW  412   5.054   1.315   3.362 -0.5047  0.0455  0.5214
   16SOL    HW1  413   4.970   1.283   3.329 -0.9962  0.8096  0.9936
   16SOL    HW2  414   5.032   1.358   3.445  0.2528  0.8604  0.3125
   17SOL     OW  415   1.115   1.676   1.763  0.3721 -0.3273  0.1304
   17SOL    HW1  416   1.191   1.678   1.821  0.1879  2.4121  0.4086
   17SOL    HW2  417   1.046   1.634   1.815  1.0938 -0.8659  0.6723
   18SOL     OW  418   0.651   6.790   6.388  0.3054 -0.2556 -0.6497
   18SOL    HW1  419   0.567   6.823   6.421  1.0077 -0.1072  1.0557
   18SOL    HW2  420   0.692   6.865   6.346  0.2258  0.0553 -0.1722
   19SOL     OW  421   2.388   2.670   0.105 -0.1969 -0.0049  0.5536
   19SOL    HW1  422   2.309   2.717   0.132 -0.7411 -0.4102 -0.3034
   19SOL    HW2  423   2.387   2.675   0.009  1.3233  0.8098  0.5391
   20SOL     OW  424   3.679   6.170   2.432  0.0207  0.1647  0.6325
   20SOL    HW1  425   3.650   6.231   2.500  0.0456  1.2943 -0.3389
   20SOL    HW2  426   3.772   6.188   2.422  0.7879 -2.2340  2.5070
   21SOL     OW  427   5.745   6.079   4.491 -0.7575 -0.1441 -0.0995
   21SOL    HW1  428   5.769   6.130   4.414 -0.7106 -1.2802 -0.8589
   21SOL    HW2  429   5.807   6.006   4.493 -0.2587  0.2952  1.4748
   22SOL     OW  430   1.179   3.422   1.874 -0.5458 -0.0693 -0.6944
   22SOL    HW1  431   1.106   3.484   1.867  0.2154  0.8987 -0.2496
   22SOL    HW2  432   1.178   3.394   1.966 -0.7234 -0.5388 -0.8330
   23SOL     OW  433   1.016   1.025   1.149 -0.1467 -0.1879  0.4131
   23SOL    HW1  434   0.968   1.088   1.203 -1.1878  0.5661 -1.3133
   23SOL    HW2  435   1.051   0.961   1.212 -1.9885  0.1781  1.8991
   24SOL     OW  436   3.643   6.567   2.770  0.0479  0.1112  0.2024
   24SOL    HW1  437   3.665   6.635   2.833  2.0240 -0.6548  0.4104
   24SOL    HW2  438   3.572   6.518   2.811  2.1729 -1.2059  2.5537
   25SOL     OW  439   4.970   2.499   5.822 -0.7044 -0.5401  0.3987
   25SOL    HW1  440   5.047   2.544   5.857 -1.7431  1.6680  0.0490
   25SOL    HW2  441   4.970   2.413   5.865  1.4111 -0.2383  1.0998
   26SOL     OW  442   3.106   2.258   1.489  0.4465 -0.1698 -0.1302
   26SOL    HW1  443   3.035   2.264   1.553  0.1589 -0.6372 -0.3976
   26SOL    HW2  444   3.083   2.322   1.421  0.5010 -0.0211 -0.0095
   27SOL     OW  445   3.412   1.010   6.013 -0.1994  0.0471  0.0002
   27SOL    HW1  446   3.350   1.016   6.085  0.3660 -3.2637  0.9306
   27SOL    HW2  447   3.367   0.955   5.948  0.7868 -0.3209 -0.3895
   28SOL     OW  448   0.604   0.820   0.460  0.2565  0.0260 -0.2068
   28SOL    HW1  449   0.647   0.901   0.489  0.8699 -0.7749  1.2085
   28SOL    HW2  450   0.675   0.756   0.455 -0.3129 -0.5683 -0.7973
   29SOL     OW  451   5.322   2.423   0.294  0.0761  0.2759 -0.4355
   29SOL    HW1  452   5.332   2.513   0.263  0.2179  0.4310  0.0562
   29SOL    HW2  453   5.403   2.404   0.340  0.3248 -0.3392 -1.1124
   30SOL     OW  454   3.167   1.468   1.126 -0.5556 -0.6048  0.0820
   30SOL    HW1  455   3.176   1.377   1.099  0.8703 -0.6053  0.4560
   30SOL    HW2  456   3.160   1.464   1.222  0.2345 -0.2879  0.1572
   31SOL     OW  457   2.006   3.555   1.758 -0.4869 -0.2502  0.2029
   31SOL    HW1  458   2.022   3.597   1.673 -0.3354  0.3883  0.5393
   31SOL    HW2  459   1.942   3.487   1.739 -1.4593  0.7472 -0.2057
   32SOL     OW  460   1.672   2.458   0.395 -0.6267  0.7772 -0.2633
   32SOL    HW1  461   1.756   2.499   0.415 -0.2033 -0.1728 -0.0017
   32SOL    HW2  462   1.652   2.486   0.305  0.2417  0.5823 -0.5253
   33SOL     OW  463   5.088   2.809   1.969 -0.3954 -0.0223  0.0585
   33SOL    HW1  464   5.058   2.878   2.029  2.0940  1.2321 -0.0360
   33SOL    HW2  465   5.041   2.731   1.998 -1.3411  1.1374  1.8671
   34SOL     OW  466   2.641   4.604   3.869  0.2546  0.0070 -0.0238
   34SOL    HW1  467   2.573   4.574   3.808 -0.4982  0.7476  0.4290
   34SOL    HW2  468   2.596   4.668   3.924  0.8191 -0.9003  1.5431
   35SOL     OW  469   2.480   5.731   0.654  0.1187  0.2619  0.2971
   35SOL    HW1  470   2.472   5.822   0.627 -1.1156  0.0731 -0.0352
   35SOL    HW2  471   2.478   5.681   0.572  0.6747 -0.0786  0.4822
   36SOL     OW  472   3.907   5.917   6.259 -0.4359 -0.6628 -0.1556
   36SOL    HW1  473   3.923   6.002   6.301 -0.9919 -0.0740 -1.0972
   36SOL    HW2  474   3.851   5.938   6.184 -0.3691 -1.8326 -0.5469
   37SOL     OW  475   2.380   5.736   6.331  0.0308  0.4704 -0.6629
   37SOL    HW1  476   2.382   5.827   6.299 -0.1926  0.8932  0.4701
   37SOL    HW2  477   2.287   5.714   6.335 -0.1557  1.3553  2.0995
   38SOL     OW  478   2.809   3.768   0.704 -0.2798 -0.2277  0.5372
   38SOL    HW1  479   2.845   3.701   0.646  1.3944  1.5710 -0.6474
   38SOL    HW2  480   2.870   3.772   0.778  0.2205  0.6665  0.0893
   39SOL     OW  481   0.916   2.916   5.017  0.3896 -0.1216  0.3975
   39SOL    HW1  482   0.895   2.936   5.108  0.7214  2.2843  0.0057
   39SOL    HW2  483   0.932   2.822   5.016 -2.0003 -0.6528  2.3459
   40SOL     OW  484   4.937   2.162   4.877 -0.1904 -0.3466 -0.3215
   40SOL    HW1  485   4.886   2.230   4.833  0.6908  1.6297  1.5179
   40SOL    HW2  486   5.016   2.207   4.906  0.8964 -2.4294  0.1504
   41SOL     OW  487   5.508   3.495   5.590 -0.6618 -0.0376 -0.4891
   41SOL    HW1  488   5.474   3.448   5.667 -0.4931  1.7719  0.7396
   41SOL    HW2  489   5.447   3.471   5.520 -2.5431  0.4570  0.8757
   42SOL     OW  490   4.273   6.374   0.345 -0.2632 -0.0400  0.3746
   42SOL    HW1  491   4.331   6.378   0.421  1.4648  0.0337 -0.8843
   42SOL    HW2  492   4.210   6.445   0.360  0.9719  0.9622  1.0130
   43SOL     OW  493   5.279   5.366   2.732 -0.0942 -0.1300 -0.0278
   43SOL    HW1  494   5.303   5.412   2.812  0.7910  1.4964 -1.1822
   43SOL    HW2  495   5.187   5.342   2.745 -0.0504  0.3713  1.3360
   44SOL     OW  496   1.670   5.952   4.469 -0.6251  0.3838  0.2233
   44SOL    HW1  497   1.727   5.876   4.478 -0.1812  0.5867 -0.7438
   44SOL    HW2  498   1.587   5.917   4.439 -0.7379  0.1829  0.7580
   45SOL     OW  499   5.194   0.092   0.973 -0.4836  0.0812  0.2641
   45SOL    HW1  500   5.138   0.022   0.939 -0.5963  0.4136 -0.2460
   45SOL    HW2  501   5.190   0.160   0.906  0.0699  0.3477  0.5003
   46SOL     OW  502   6.683   4.764   2.647  0.8605  0.1118 -0.6774
   46SOL    HW1  503   6.719   4.694   2.593 -1.4910 -1.4709 -0.3503
   46SOL    HW2  504   6.591   4.770   2.619  0.4686  1.6134  0.7926
   47SOL     OW  505   2.502   0.600   4.292  0.2246  0.1863 -0.3718
   47SOL    HW1  506   2.410   0.613   4.317  0.1076  2.6744 -1.8972
   47SOL    HW2  507   2.504   0.614   4.198  2.4847  2.3920 -0.0995
   48SOL     OW  508   2.600   6.303   4.273  0.2040  0.3666 -0.2211
   48SOL    HW1  509   2.675   6.360   4.283  0.1862  0.1288  1.8523
   48SOL    HW2  510   2.539   6.331   4.342  0.5192 -2.5317  1.4112
   49SOL     OW  511   1.062   3.903   1.580  0.3430  0.6024 -0.0053
   49SOL    HW1  512   1.079   3.932   1.491 -0.9888  0.5556 -0.2976
   49SOL    HW2  513   0.977   3.859   1.575  0.8187 -0.5045  1.0463
   50SOL     OW  514   0.136   1.353   1.974  0.1185  0.1603  0.0018
   50SOL    HW1  515   0.119   1.446   1.985 -1.5293 -0.1294  0.0878
   50SOL    HW2  516   0.229   1.343   1.996  0.5002  1.8695 -0.6869
   51SOL     OW  517   3.172   3.188   0.228  0.8322 -0.1760  0.1197
   51SOL    HW1  518   3.181   3.268   0.176 -0.1114  1.1621  1.9031
   51SOL    HW2  519   3.206   3.119   0.172  1.0760  1.3748 -1.7384
   52SOL     OW  520   3.098   0.655   1.343 -0.1848  0.2454 -0.1730
   52SOL    HW1  521   3.042   0.700   1.407  0.3640  1.6716 -0.6535
   52SOL    HW2  522   3.072   0.692   1.258 -0.7057 -1.4175 -0.7703
   53SOL     OW  523   2.516   2.371   1.764  0.4613  0.0130  0.5703
   53SOL    HW1  524   2.590   2.321   1.799  0.3498  0.1644  1.0344
   53SOL    HW2  525   2.451   2.305   1.742  1.2704 -0.2532 -1.2278
   54SOL     OW  526   2.747   4.092   6.643 -0.3135  0.0318 -0.4272
   54SOL    HW1  527   2.819   4.088   6.707 -1.1857 -0.8669  0.5406
   54SOL    HW2  528   2.676   4.042   6.683 -0.4630 -1.7264 -2.6617
   55SOL     OW  529   2.205   5.219   5.236  0.4122 -0.1796 -0.4052
   55SOL    HW1  530   2.249   5.293   5.279  0.4318 -0.9997  1.0262
   55SOL    HW2  531   2.156   5.260   5.164  0.6777  1.1901  0.1525
   56SOL     OW  532   2.898   2.887   4.637  0.1356 -0.2981  0.1415
   56SOL    HW1  533   2.852   2.910   4.557 -0.0377 -0.0897  0.3000
   56SOL    HW2  534   2.920   2.971   4.678  1.3903 -0.3796 -0.3426
   57SOL     OW  535   2.830   5.887   5.427 -0.3437  0.8830  0.6480
   57SOL    HW1  536   2.921   5.886   5.395 -0.9587  0.1912 -1.2133
   57SOL    HW2  537   2.838   5.869   5.521  1.4103 -0.0486  0.3713
   58SOL     OW  538   1.691   1.112   2.542 -0.2172  0.0505  0.3418
   58SOL    HW1  539   1.676   1.019   2.528  0.6170  0.0462 -0.6903
   58SOL    HW2  540   1.754   1.116   2.614 -1.4109 -0.0959  1.4420
   59SOL     OW  541   0.068   2.584   3.700  0.1477 -0.5461  0.0711
   59SOL    HW1  542   0.060   2.638   3.779  1.4290  0.7556 -0.6363
   59SOL    HW2  543  -0.022   2.560   3.679 -0.3865  0.5409  0.9495
   60SOL     OW  544   4.094   0.476   5.291 -0.1589  0.3788 -0.0184
   60SOL    HW1  545   4.099   0.563   5.329  0.1518  0.2123  0.3288
   60SOL    HW2  546   4.109   0.417   5.364 -0.0831  0.0402 -0.3029
   61SOL     OW  547   1.419   4.100   1.927 -0.0056 -0.0902  0.0787
   61SOL    HW1  548   1.515   4.100   1.922 -0.0341  1.9137 -2.8738
   61SOL    HW2  549   1.395   4.009   1.908  1.2687 -0.6694  1.0602
   62SOL     OW  550   2.339   1.534   1.134 -0.1027 -0.0737 -0.1671
   62SOL    HW1  551   2.243   1.532   1.142  0.0157 -0.2990  1.6238
   62SOL    HW2  552   2.359   1.625   1.110 -0.8151 -0.3720 -2.1067
   63SOL     OW  553   2.233   1.149   1.775  0.0372  0.2151 -0.4844
   63SOL    HW1  554   2.157   1.186   1.730  0.0944 -1.2674 -1.8856
   63SOL    HW2  555   2.214   1.056   1.783  2.0747 -0.3980 -1.7673
   64SOL     OW  556   5.480   0.878   1.108  0.1260 -0.0903  0.5741
   64SOL    HW1  557   5.412   0.917   1.162 -0.5555 -2.2735  1.3882
   64SOL    HW2  558   5.544   0.948   1.096 -1.5681  1.5925  0.9509
   65SOL     OW  559   6.161   3.106   0.202 -0.3192 -0.1973 -0.0139
   65SOL    HW1  560   6.084   3.057   0.231  0.7013 -0.5497  2.4058
   65SOL    HW2  561   6.161   3.183   0.259  0.8568  0.0240 -0.3038
   66SOL     OW  562   0.206   2.855   0.816  0.5510  0.0988 -0.5772
   66SOL    HW1  563   0.284   2.856   0.872  0.2671 -2.7861  0.0496
   66SOL    HW2  564   0.202   2.943   0.779  2.4926  1.2044  1.5469
   67SOL     OW  565   4.713   4.763   1.973  0.0412 -0.0962  0.0754
   67SOL    HW1  566   4.784   4.802   1.921  0.0607 -0.6052 -0.2910
   67SOL    HW2  567   4.634   4.780   1.922 -0.0104 -0.1345  0.1431
   68SOL     OW  568   1.351   2.978   4.720 -0.3799 -0.3179 -0.2486
   68SOL    HW1  569   1.283   3.025   4.673 -2.1331 -3.3908 -1.0281
   68SOL    HW2  570   1.309   2.949   4.801  0.2597 -1.5424 -0.3325
   69SOL     OW  571   5.196   1.481   4.276  0.1638  0.0036 -0.0085
   69SOL    HW1  572   5.284   1.518   4.270  0.9007 -1.8402 -1.9462
   69SOL    HW2  573   5.209   1.386   4.269 -1.8681 -0.4559  1.5219
   70SOL     OW  574   1.780   0.633   6.461 -0.5590 -0.2998  0.3693
   70SOL    HW1  575   1.847   0.575   6.426 -1.3729 -1.3972  0.5907
   70SOL    HW2  576   1.724   0.654   6.386  0.0342  0.6633  0.1715
   71SOL     OW  577   5.782   6.106   2.727 -0.5266  0.7573 -0.6221
   71SOL    HW1  578   5.810   6.022   2.690 -3.0827 -0.7618  0.6429
   71SOL    HW2  579   5.849   6.125   2.793 -0.7252 -1.1704  0.2233
   72SOL     OW  580   2.458   6.353   3.448 -0.3411  0.7921  0.2790
   72SOL    HW1  581   2.401   6.339   3.524  0.8150 -0.5780  0.9407
   72SOL    HW2  582   2.539   6.388   3.485  0.3385 -0.1508 -0.2751
   73SOL     OW  583   2.217   6.481   3.397  0.2360 -0.0881 -0.5437
   73SOL    HW1  584   2.302   6.440   3.417 -0.7758 -1.2957  1.6988
   73SOL    HW2  585   2.232   6.528   3.315  3.0046 -0.4418 -0.3558
   74SOL     OW  586   3.018   1.489   2.661 -0.0548 -0.1592 -0.3129
   74SOL    HW1  587   3.032   1.431   2.736 -0.4637 -0.5751 -0.5488
   74SOL    HW2  588   2.947   1.448   2.612  0.7125 -0.3183 -1.3473
   75SOL     OW  589   2.084   5.781   1.054 -0.6619  0.1141 -0.0081
   75SOL    HW1  590   2.152   5.844   1.028 -0.4997 -0.3006 -0.6137
   75SOL    HW2  591   2.002   5.830   1.046 -0.6401 -0.0575 -1.5552
   76SOL     OW  592   0.556   2.909   5.758 -0.1803 -0.4365 -0.0232
   76SOL    HW1  593   0.598   2.963   5.690  1.4120 -3.7504 -1.9622
   76SOL    HW2  594   0.594   2.939   5.840 -0.2012  2.0186 -0.8467
   77SOL     OW  595   2.443   1.821   5.873 -0.4502  0.4718  0.3221
   77SOL    HW1  596   2.362   1.787   5.910 -0.2715  0.2185  0.4834
   77SOL    HW2  597   2.497   1.743   5.858  0.2728  0.7350  1.4268
   78SOL     OW  598   4.639   0.059   5.777  0.1510  0.5168 -0.5239
   78SOL    HW1  599   4.669  -0.026   5.745 -0.7470  0.7722 -2.1231
   78SOL    HW2  600   4.614   0.107   5.699 -2.9131  0.8728  0.5257
   79SOL     OW  601   3.893   6.590   0.631 -0.2038 -0.2208  0.8407
   79SOL    HW1  602   3.874   6.516   0.689 -1.4263 -0.9586 -0.4363
   79SOL    HW2  603   3.819   6.593   0.571  1.2281  0.2059 -0.9864
   80SOL     OW  604   4.965   4.348   2.798 -0.1697 -0.6650  0.0377
   80SOL    HW1  605   4.919   4.280   2.748  0.4022 -0.5275 -0.6960
   80SOL    HW2  606   4.931   4.430   2.763  0.3191 -0.5677 -0.2137
   81SOL     OW  607   0.574   1.354   4.871 -0.3262  0.0381  0.2088
   81SOL    HW1  608   0.540   1.404   4.797 -0.5537  1.5113  1.2597
   81SOL    HW2  609   0.570   1.262   4.842 -1.3176  0.4938 -1.2188
   82SOL     OW  610   5.181   2.930   6.122 -0.4074 -0.1380  0.6179
   82SOL    HW1  611   5.103   2.982   6.136  0.0699  1.3631 -1.6836
   82SOL    HW2  612   5.152   2.839   6.132 -1.8723  0.4415  2.0497
   83SOL     OW  613   4.949   5.987   5.442 -0.3209 -0.7859 -0.2139
   83SOL    HW1  614   4.978   5.986   5.350 -0.2942 -2.3048 -0.2143
   83SOL    HW2  615   4.906   6.072   5.452 -0.9542 -0.8641 -1.8472
   84SOL     OW  616   3.106   3.347   3.824  0.6678  0.2377  0.4344
   84SOL    HW1  617   3.188   3.347   3.872  1.3436  0.5311 -0.6711
   84SOL    HW2  618   3.131   3.320   3.735 -0.0408  2.5515 -0.5408
   85SOL     OW  619   5.395   6.116   2.678 -0.1279  0.2224  0.4692
   85SOL    HW1  620   5.410   6.087   2.588 -2.6750 -0.3257  0.1540
   85SOL    HW2  621   5.462   6.070   2.729  0.3589 -0.6942 -0.9312
   86SOL     OW  622   3.271   3.687   3.053 -0.2728 -0.1027  0.0772
   86SOL    HW1  623   3.249   3.725   3.138 -0.6349 -0.8530  0.3309
   86SOL    HW2  624   3.337   3.621   3.073 -1.2502 -1.1479 -0.0392
   87SOL     OW  625   4.473   6.500   1.997  0.1415  0.2212 -0.4604
   87SOL    HW1  626   4.454   6.533   2.085  0.9781 -0.8337  0.1403
   87SOL    HW2  627   4.468   6.578   1.941 -2.8676  0.5413  0.0631
   88SOL     OW  628   6.419   6.137   0.073 -0.2828 -0.2599 -0.3530
   88SOL    HW1  629   6.403   6.138  -0.021  1.0090  0.0331 -0.5799
   88SOL    HW2  630   6.387   6.051   0.102 -0.6909 -0.3511 -1.0527
   89SOL     OW  631   1.216   2.420   1.967  0.4635  0.1323 -0.3879
   89SOL    HW1  632   1.294   2.381   1.928  0.1835  2.1050 -3.2496
   89SOL    HW2  633   1.144   2.363   1.938  0.5846 -0.2992  0.1504
   90SOL     OW  634   0.387   5.066   0.512  0.0636 -0.5220  0.6579
   90SOL    HW1  635   0.420   5.041   0.425  1.1212 -0.0164  0.8988
   90SOL    HW2  636   0.388   5.161   0.511 -1.5656 -0.4782  0.6369
   91SOL     OW  637   3.806   1.960   6.235  0.2779 -0.9930 -0.1916
   91SOL    HW1  638   3.754   2.022   6.286  1.2911 -0.2695 -0.0057
   91SOL    HW2  639   3.749   1.885   6.224 -0.7506 -0.2879  0.1368
   92SOL     OW  640   4.203   4.247   6.013 -0.2351  0.2177  0.2789
   92SOL    HW1  641   4.213   4.342   6.009  0.6103  0.1420  0.3960
   92SOL    HW2  642   4.278   4.217   6.065 -0.2472 -0.5535 -0.1293
   93SOL     OW  643   4.678   1.832   1.288  0.2487 -0.4352 -0.6874
   93SOL    HW1  644   4.719   1.882   1.358  2.8582 -1.3243 -1.4742
   93SOL    HW2  645   4.652   1.749   1.329 -1.2602  0.2960 -0.0903
   94SOL     OW  646   5.652   0.478   0.806  0.2883  0.0714  0.1073
   94SOL    HW1  647   5.705   0.411   0.849 -0.7060 -1.7444 -1.3638
   94SOL    HW2  648   5.615   0.528   0.879  0.4163 -1.4931  1.3092
   95SOL     OW  649   6.345   2.974   5.204  0.0283 -0.1228  0.4842
   95SOL    HW1  650   6.293   2.895   5.190  0.3907 -0.4224  0.7894
   95SOL    HW2  651   6.281   3.043   5.221 -0.3091 -0.2673 -0.1871
   96SOL     OW  652   2.770   2.338   6.249 -0.4780  0.0092 -0.5643
   96SOL    HW1  653   2.838   2.271   6.257 -0.5202 -0.1262 -1.2497
   96SOL    HW2  654   2.705   2.315   6.315  0.6989  0.8430  0.9786
   97SOL     OW  655   6.362   3.072   5.619  0.5587  0.4939 -0.0235
   97SOL    HW1  656   6.320   3.144   5.572 -1.8278 -1.5475 -1.3152
   97SOL    HW2  657   6.435   3.046   5.564  0.2004  0.6522 -0.5789
   98SOL     OW  658   5.510   6.655   5.572  0.0707 -0.1898  0.1011
   98SOL    HW1  659   5.536   6.570   5.608 -1.2361 -1.1175 -1.0162
   98SOL    HW2  660   5.523   6.646   5.478 -0.9594  0.5154 -0.1220
   99SOL     OW  661   6.407   4.562   1.797  0.4365 -0.2997 -0.8693
   99SOL    HW1  662   6.349   4.623   1.751  0.9448 -0.4533 -1.7227
   99SOL    HW2  663   6.495   4.589   1.773  0.6882 -0.8921 -0.6313
  100SOL     OW  664   6.604   3.486   0.439  0.0480 -0.2748 -0.8748
  100SOL    HW1  665   6.632   3.444   0.520  2.3804  1.7515 -0.5104
  100SOL    HW2  666   6.570   3.415   0.386  1.9303 -2.3216  0.4588
  101SOL     OW  667   2.366   4.995   3.607 -0.3352  0.0017  0.2728
  101SOL    HW1  668   2.426   5.066   3.628 -1.7350  1.0690  0.8843
  101SOL    HW2  669   2.332   5.017   3.520 -0.5887 -0.0249  0.3625
  102SOL     OW  670   1.701   4.278   6.271  0.2855  0.2000  0.4619
  102SOL    HW1  671   1.699   4.374   6.275  0.7814  0.1803  2.3922
  102SOL    HW2  672   1.629   4.250   6.327  0.3765 -0.5640  0.2076
  103SOL     OW  673   5.763   6.355   4.504 -0.6204 -0.2943 -0.1311
  103SOL    HW1  674   5.738   6.417   4.435 -0.2076  0.0342  0.0105
  103SOL    HW2  675   5.752   6.403   4.586 -0.3561 -0.4268 -0.0157
  104SOL     OW  676   0.393   5.301   4.132  0.0412  0.4633  0.0077
  104SOL    HW1  677   0.487   5.299   4.112 -0.2173  2.0281 -1.6104
  104SOL    HW2  678   0.352   5.267   4.052 -0.7386 -3.2628  1.7887
  105SOL     OW  679   1.573   2.365   1.376 -0.1737 -0.3104  0.3792
  105SOL    HW1  680   1.593   2.449   1.417  0.7668 -0.4024  0.1316
  105SOL    HW2  681   1.544   2.387   1.287 -0.6511 -0.2101  0.5564
  106SOL     OW  682   6.333   0.884   0.093  0.0600  0.0312  0.3130
  106SOL    HW1  683   6.306   0.804   0.047 -0.0592 -0.1439  0.6836
  106SOL    HW2  684   6.260   0.904   0.151  0.5376 -0.2023  1.0104
  107SOL     OW  685   4.995   0.957   2.201 -0.6618 -0.0101 -0.0156
  107SOL    HW1  686   4.906   0.931   2.226 -0.9623  0.9942  0.0206
  107SOL    HW2  687   4.993   0.964   2.106  0.0681 -2.3477 -0.2653
  108SOL     OW  688   0.295   0.907   6.321 -0.2979  0.0620  0.1517
  108SOL    HW1  689   0.273   0.900   6.414 -1.6148 -0.2864 -0.1646
  108SOL    HW2  690   0.272   0.821   6.285 -0.6243  0.4770 -0.6527
  109SOL     OW  691   5.880   6.416   2.992  0.3091 -0.1074 -0.9812
  109SOL    HW1  692   5.883   6.502   3.034  0.6265 -1.3311  1.7020
  109SOL    HW2  693   5.963   6.374   3.015 -0.5954 -1.8076 -0.6345
  110SOL     OW  694   4.643   4.569   2.633 -0.4877 -0.0484  0.1438
  110SOL    HW1  695   4.594   4.518   2.569 -0.9245 -0.4800  0.8194
  110SOL    HW2  696   4.657   4.510   2.706 -0.3721  0.5812  0.6410
  111SOL     OW  697   1.846   4.065   2.191  0.6261 -0.2482 -0.0187
  111SOL    HW1  698   1.765   4.035   2.150  0.7015  0.3634 -0.6245
  111SOL    HW2  699   1.916   4.033   2.134  0.9732 -2.4818  1.5104
  112SOL     OW  700   5.149   2.626   0.716  0.0991  0.2578  0.3147
  112SOL    HW1  701   5.127   2.697   0.776  0.0799  0.9515 -0.5006
  112SOL    HW2  702   5.243   2.610   0.732  0.8880  2.5192 -1.5533
  113SOL     OW  703   3.891   2.713   5.511 -0.1337  0.4069 -0.1141
  113SOL    HW1  704   3.795   2.710   5.504 -0.2014  1.9310 -0.1210
  113SOL    HW2  705   3.909   2.791   5.563  1.1829  2.0813 -2.8406
  114SOL     OW  706   5.717   6.576   2.090  0.6881 -0.6927  0.2459
  114SOL    HW1  707   5.727   6.549   1.999  1.2534  2.1396 -0.6315
  114SOL    HW2  708   5.624   6.562   2.109  0.4504 -0.8287 -0.9423
  115SOL     OW  709   3.654   3.832   0.311  0.2554  0.1625  0.0231
  115SOL    HW1  710   3.693   3.852   0.225 -0.0862 -0.3407 -0.2550
  115SOL    HW2  711   3.675   3.908   0.365 -0.0912  0.7914 -0.6968
  116SOL     OW  712   0.228   5.504   0.717  0.0795  0.2665 -0.5590
  116SOL    HW1  713   0.141   5.472   0.742 -0.1800  1.3272 -0.0686
  116SOL    HW2  714   0.239   5.473   0.627 -0.3261 -0.8328 -0.2533
  117SOL     OW  715   2.512   1.040   5.896  0.2167  0.2002 -0.3228
  117SOL    HW1  716   2.537   1.088   5.975  1.8471 -0.0837 -0.6272
  117SOL    HW2  717   2.526   0.948   5.919 -3.8981 -0.3933  0.6299
  118SOL     OW  718   4.321   4.852   4.551 -0.6308 -0.2956 -0.0967
  118SOL    HW1  719   4.227   4.842   4.537 -0.9440  2.0147 -0.0518
  118SOL    HW2  720   4.358   4.858   4.463 -0.6602 -0.2998 -0.1091
  119SOL     OW  721   1.857   2.215   4.840  0.2775  0.3190  0.3449
  119SOL    HW1  722   1.825   2.225   4.929 -0.0336  0.5752  0.2051
  119SOL    HW2  723   1.880   2.122   4.833  0.5279  0.3436  0.7634
  120SOL     OW  724   1.733   0.136   2.617  0.3148 -0.2404  1.0830
  120SOL    HW1  725   1.714   0.077   2.545  0.1969  0.7935  0.2382
  120SOL    HW2  726   1.681   0.103   2.690  1.1347 -1.8396  0.9913
  121SOL     OW  727   6.305   6.286   3.367  0.2593  0.0623 -0.2701
  121SOL    HW1  728   6.355   6.368   3.366 -0.8092  0.7254 -1.2053
  121SOL    HW2  729   6.322   6.246   3.282  1.7953 -1.3679  0.6487
  122SOL     OW  730   3.871   4.542   2.520 -0.3397 -0.4362  0.2370
  122SOL    HW1  731   3.796   4.601   2.526  2.0760  3.0203 -0.1124
  122SOL    HW2  732   3.937   4.581   2.578  1.6442 -2.5690 -0.4079
  123SOL     OW  733   1.132   5.493   3.509  0.1832  0.7259 -0.2008
  123SOL    HW1  734   1.064   5.441   3.553  0.5762  1.1282  0.9090
  123SOL    HW2  735   1.100   5.503   3.420 -0.1922 -0.9125 -0.2817
  124SOL     OW  736   4.885   2.785   4.121  0.1058  0.0426 -0.3844
  124SOL    HW1  737   4.958   2.781   4.059  0.0895  0.4340 -0.4298
  124SOL    HW2  738   4.891   2.873   4.160  0.2290 -0.2647  0.3049
  125SOL     OW  739   2.188   6.126   0.829 -0.0827  0.0787  0.4117
  125SOL    HW1  740   2.217   6.161   0.745  0.7041 -2.2619 -0.3976
  125SOL    HW2  741   2.270   6.100   0.873 -0.5665 -0.0327  1.2655
  126SOL     OW  742   1.272   4.969   6.009 -0.2073  0.0665 -0.0976
  126SOL    HW1  743   1.190   5.015   6.026  0.9544  1.4387  2.1397
  126SOL    HW2  744   1.253   4.878   6.032 -1.6422 -0.0853 -1.6377
  127SOL     OW  745   2.655   0.279   1.313  0.9669 -0.5581 -0.2208
  127SOL    HW1  746   2.740   0.286   1.269  0.9543  0.1043 -0.1519
  127SOL    HW2  747   2.657   0.194   1.357  1.9441 -0.1706  0.5079
  128SOL     OW  748   6.733   5.265   4.753  0.3564 -0.2960 -0.3815
  128SOL    HW1  749   6.824   5.277   4.779  0.0799 -0.4146  0.6937
  128SOL    HW2  750   6.730   5.291   4.661  1.7115 -1.4125 -0.7753
  129SOL     OW  751   6.591   0.170   1.957 -0.8015 -0.1052  0.6767
  129SOL    HW1  752   6.610   0.088   1.911 -0.9679 -0.6133  1.4881
  129SOL    HW2  753   6.543   0.222   1.894 -0.2882 -0.4530 -0.0076
  130SOL     OW  754   5.683   1.737   0.539  0.4851 -0.3696 -0.2483
  130SOL    HW1  755   5.752   1.803   0.529  0.6433 -0.5393 -0.2911
  130SOL    HW2  756   5.609   1.785   0.574 -0.0083  0.2054 -1.9851
  131SOL     OW  757   4.379   5.616   5.877  0.0975  0.4533  0.4624
  131SOL    HW1  758   4.391   5.523   5.858 -0.1424  0.1558  1.6744
  131SOL    HW2  759   4.407   5.625   5.968 -2.2955  1.0602  1.1883
  132SOL     OW  760   4.337   6.078   4.148  0.2021  0.2693  0.2161
  132SOL    HW1  761   4.370   6.075   4.058  2.0451 -1.3504  0.8868
  132SOL    HW2  762   4.353   6.169   4.175  1.8273  0.1946 -0.3514
  133SOL     OW  763   5.092   4.110   3.082 -0.0684 -0.4795  0.2810
  133SOL    HW1  764   5.167   4.083   3.029 -0.4715  1.1793 -1.2341
  133SOL    HW2  765   5.021   4.053   3.054 -0.2230  0.2401 -0.8799
  134SOL     OW  766   6.234   2.210   0.912 -0.0128  0.4344  0.1599
  134SOL    HW1  767   6.173   2.284   0.912 -1.5977 -0.7993 -0.6650
  134SOL    HW2  768   6.298   2.232   0.844 -0.5354  0.9917 -0.1665
  135SOL     OW  769   0.621   1.047   4.098  0.0594 -0.0842  0.7052
  135SOL    HW1  770   0.573   0.978   4.052  2.1421 -1.5751  0.6248
  135SOL    HW2  771   0.567   1.067   4.174 -0.3706 -2.2395  1.0436
  136SOL     OW  772   2.058   6.139   5.531  0.6501 -0.4264  0.1032
  136SOL    HW1  773   2.002   6.176   5.599 -0.4636  0.4749 -1.2516
  136SOL    HW2  774   2.137   6.112   5.578  0.2382  0.8457  1.6414
  137SOL     OW  775   2.080   5.297   3.350 -0.2306  0.0052  0.0211
  137SOL    HW1  776   2.120   5.281   3.436  0.1921  1.8217  0.2033
  137SOL    HW2  777   2.051   5.389   3.354 -0.3414  0.0711 -1.7184
  138SOL     OW  778   6.131   3.196   5.161  0.0463  0.1739 -0.5506
  138SOL    HW1  779   6.084   3.223   5.082  1.1200 -0.0665 -1.2869
  138SOL    HW2  780   6.162   3.278   5.200 -0.9660  0.3380 -0.0468
  139SOL     OW  781   3.429   1.430   1.523 -0.1533 -0.4133 -0.0607
  139SOL    HW1  782   3.452   1.484   1.599  0.5557  1.1505 -1.3259
  139SOL    HW2  783   3.409   1.344   1.560 -2.5425  0.9490  2.2215
  140SOL     OW  784   5.750   1.613   6.395 -0.5863 -0.1511 -0.2266
  140SOL    HW1  785   5.838   1.617   6.359 -0.0609 -0.4996  0.9805
  140SOL    HW2  786   5.717   1.703   6.388  1.2177  0.8535  2.5404
  141SOL     OW  787   4.453   6.211   2.803 -1.0339  0.2530  0.6559
  141SOL    HW1  788   4.514   6.224   2.875 -0.0237 -0.3531 -0.0775
  141SOL    HW2  789   4.402   6.292   2.800 -0.1460  0.8395  1.1485
  142SOL     OW  790   5.509   5.505   5.450  0.1425 -0.2537 -0.8723
  142SOL    HW1  791   5.564   5.436   5.414 -1.1426 -1.3617 -0.7914
  142SOL    HW2  792   5.441   5.459   5.499  0.7779  1.1232  1.4930
  143SOL     OW  793   1.712   3.271   3.941 -0.0020  0.0469  0.1549
  143SOL    HW1  794   1.803   3.265   3.969 -0.1504  0.4747  0.7483
  143SOL    HW2  795   1.665   3.214   4.002 -0.3544  1.1293  0.9132
  144SOL     OW  796   5.165   3.779   3.949  0.3460 -0.5832  0.4227
  144SOL    HW1  797   5.158   3.690   3.913 -1.5096 -0.4794  0.4317
  144SOL    HW2  798   5.183   3.765   4.042 -2.3780 -1.0654  0.9496
  145SOL     OW  799   6.336   0.745   2.703 -0.3642  0.1147 -0.6642
  145SOL    HW1  800   6.336   0.701   2.788 -2.4740 -1.4366 -1.4099
  145SOL    HW2  801   6.255   0.795   2.702 -0.3467  0.1381 -1.7656
  146SOL     OW  802   3.600   5.747   2.447  0.3030 -0.2550 -0.0406
  146SOL    HW1  803   3.686   5.761   2.488  0.6515 -1.0196 -0.4856
  146SOL    HW2  804   3.596   5.812   2.377  0.1164  0.4082  0.5798
  147SOL     OW  805   0.097   1.988   0.100 -0.3843 -0.6350  0.3707
  147SOL    HW1  806   0.075   1.928   0.171 -0.5291 -0.4419  0.4907
  147SOL    HW2  807   0.050   2.069   0.121  1.5709  0.2797  1.3982
  148SOL     OW  808   5.801   0.025   6.614  0.6121  0.3566 -0.0627
  148SOL    HW1  809   5.857  -0.031   6.668  1.5481  0.6044 -0.7576
  148SOL    HW2  810   5.796  -0.019   6.530 -1.7766 -0.6231  0.4873
  149SOL     OW  811   4.550   2.304   2.676 -0.4649  0.8820 -0.0394
  149SOL    HW1  812   4.605   2.305   2.597 -0.1587 -2.3533 -0.0094
  149SOL    HW2  813   4.466   2.340   2.648 -1.1093 -2.1320 -2.5981
  150SOL     OW  814   1.652   4.904   4.361 -0.1453  0.7730 -0.0729
  150SOL    HW1  815   1.711   4.871   4.294 -1.9722  0.2076 -1.4838
  150SOL    HW2  816   1.641   4.830   4.422 -0.4169  0.4121 -0.5487
  151SOL     OW  817   6.104   1.300   0.135  0.1169  0.1413 -0.1535
  151SOL    HW1  818   6.124   1.370   0.073  1.3091 -0.7559 -0.8278
  151SOL    HW2  819   6.189   1.265   0.160 -0.4441 -0.9337  0.3338
  152SOL     OW  820   2.615   2.029   0.408  0.5170  0.3757 -0.2871
  152SOL    HW1  821   2.588   1.991   0.492  0.4241  0.6063 -0.2132
  152SOL    HW2  822   2.688   1.973   0.379  1.0364  0.7307  0.3038
  153SOL     OW  823   6.384   5.722   2.307 -0.3703  0.3673  0.0239
  153SOL    HW1  824   6.363   5.794   2.247  0.2283  0.3934 -0.1581
  153SOL    HW2  825   6.477   5.733   2.326 -0.5371  0.3175  0.9036
  154SOL     OW  826   4.999   1.008   5.835 -0.1344 -0.0472  0.1605
  154SOL    HW1  827   4.926   1.070   5.831  1.4949  1.9374 -1.0333
  154SOL    HW2  828   5.049   1.035   5.912  0.3736 -0.1289 -0.1376
  155SOL     OW  829   6.251   2.759   3.897 -0.6890 -0.1690 -0.0121
  155SOL    HW1  830   6.219   2.839   3.940  0.4953  0.4499 -0.2355
  155SOL    HW2  831   6.174   2.702   3.892 -1.7171  1.1994 -0.4277
  156SOL     OW  832   5.041   4.534   5.066 -0.0520  0.0510  0.4960
  156SOL    HW1  833   5.087   4.602   5.115 -0.2857  0.6373 -0.0873
  156SOL    HW2  834   5.001   4.479   5.133 -0.8404  1.1607  0.9669
  157SOL     OW  835   3.328   0.600   2.757  0.3430  0.1135 -0.1210
  157SOL    HW1  836   3.333   0.674   2.697 -0.5074 -0.4991 -0.9947
  157SOL    HW2  837   3.402   0.544   2.733  0.6354  0.3861  0.1375
  158SOL     OW  838   2.425   5.055   5.166 -0.2657  0.2938 -0.1714
  158SOL    HW1  839   2.340   5.087   5.195 -0.4038  0.1869 -0.4533
  158SOL    HW2  840   2.423   4.961   5.184  0.6420  0.6159  1.8930
  159SOL     OW  841   2.826   1.218   3.587  0.0256 -0.4647  0.5960
  159SOL    HW1  842   2.821   1.251   3.497  1.1336  1.3158  1.1378
  159SOL    HW2  843   2.860   1.292   3.638 -0.5141 -1.4491  2.4801
  160SOL     OW  844   6.703   2.865   2.256 -0.2429 -0.7655  0.3517
  160SOL    HW1  845   6.684   2.917   2.334 -2.0721  0.5642 -0.9090
  160SOL    HW2  846   6.618   2.829   2.230  0.4394 -1.6773 -0.6996
  161SOL     OW  847   5.173   5.899   3.507 -0.4902 -0.2948  0.0968
  161SOL    HW1  848   5.266   5.909   3.529 -0.3913  0.9378 -0.7896
  161SOL    HW2  849   5.166   5.931   3.417 -2.0318  1.0199  0.6382
  162SOL     OW  850   4.576   2.641   3.127 -0.3994 -0.0044 -0.5260
  162SOL    HW1  851   4.552   2.566   3.073  1.6341 -1.5692  0.6172
  162SOL    HW2  852   4.658   2.673   3.090  0.0664  0.0468  0.5037
  163SOL     OW  853   3.044   1.549   5.444  0.1158  0.4282 -0.5214
  163SOL    HW1  854   3.067   1.469   5.396 -3.8923 -1.2120 -0.1383
  163SOL    HW2  855   2.975   1.589   5.391 -0.8765  1.3322  1.3844
  164SOL     OW  856   5.606   5.440   1.717  0.0080  0.0164 -0.4578
  164SOL    HW1  857   5.557   5.394   1.650 -0.7828  0.7190 -0.3760
  164SOL    HW2  858   5.649   5.371   1.768  0.2060 -0.5419 -1.3623
  165SOL     OW  859   2.063   4.545   4.974 -0.2191  0.0095  0.0082
  165SOL    HW1  860   2.143   4.598   4.975  2.2854 -3.4128  1.6026
  165SOL    HW2  861   2.079   4.477   5.039 -4.0207 -1.5745 -0.4654
  166SOL     OW  862   4.891   1.820   4.739  0.2019  0.2447  0.2918
  166SOL    HW1  863   4.857   1.851   4.823 -0.8684  2.0298 -0.7175
  166SOL    HW2  864   4.820   1.840   4.677  1.6256  0.5626 -1.2953
  167SOL     OW  865   5.071   3.084   2.777 -0.3172 -0.3033  0.2249
  167SOL    HW1  866   5.086   3.066   2.684 -1.7759 -1.2829  0.1379
  167SOL    HW2  867   5.135   3.031   2.823 -0.1351 -0.4614 -0.2066
  168SOL     OW  868   3.440   3.985   0.625  0.0179  0.1805 -0.3832
  168SOL    HW1  869   3.392   3.915   0.579 -2.0611 -0.5419  2.5830
  168SOL    HW2  870   3.495   3.938   0.688 -0.1033  1.1521  0.4724
  169SOL     OW  871   4.702   6.355   5.548  0.8516  0.1712  0.0355
  169SOL    HW1  872   4.695   6.294   5.475  0.3977 -0.0671  0.2720
  169SOL    HW2  873   4.792   6.347   5.578  1.3434  1.0206 -1.1388
  170SOL     OW  874   6.657   5.158   1.205 -0.0988 -0.0687 -0.1995
  170SOL    HW1  875   6.582   5.124   1.155 -1.0164 -0.6021  1.4370
  170SOL    HW2  876   6.621   5.231   1.254  0.2499 -0.7745  1.1501
  171SOL     OW  877   5.214   2.269   6.302 -0.0707 -0.2412  0.6597
  171SOL    HW1  878   5.184   2.235   6.387 -0.0601 -3.0448 -0.3495
  171SOL    HW2  879   5.272   2.201   6.268  0.7558  1.2856 -1.1693
  172SOL     OW  880   1.127   5.145   3.732 -0.0191 -0.0659  0.3485
  172SOL    HW1  881   1.192   5.079   3.709  2.3169  2.0641  0.3949
  172SOL    HW2  882   1.059   5.137   3.665  2.1581  0.0659 -2.0204
  173SOL     OW  883   5.112   2.706   1.467  0.9352  0.5124  0.1909
  173SOL    HW1  884   5.193   2.719   1.516  1.4567  1.5320 -0.8883
  173SOL    HW2  885   5.065   2.640   1.516  0.8528  2.3526  2.7711
  174SOL     OW  886   1.397   1.404   5.649 -0.0886  0.5404 -0.0597
  174SOL    HW1  887   1.308   1.432   5.628 -0.0633 -0.1616 -1.2269
  174SOL    HW2  888   1.443   1.485   5.672 -0.7520  1.0568 -0.5017
  175SOL     OW  889   3.189   6.669   4.153  0.3753  0.4418  0.6645
  175SOL    HW1  890   3.122   6.680   4.220  0.6527  2.5724  0.6783
  175SOL    HW2  891   3.140   6.649   4.073  0.0337 -1.9755  1.4068
  176SOL     OW  892   2.996   4.201   6.192 -0.6771  0.0018  0.0522
  176SOL    HW1  893   3.004   4.198   6.288  0.8333 -1.2618 -0.0749
  176SOL    HW2  894   2.964   4.289   6.174 -1.1742  0.2056  1.7334
  177SOL     OW  895   4.295   1.422   0.582  1.1325 -0.1010 -0.1833
  177SOL    HW1  896   4.203   1.410   0.604  1.1976 -1.1340 -0.4132
  177SOL    HW2  897   4.296   1.431   0.487  1.4888 -2.9211 -0.5196
  178SOL     OW  898   4.813   4.082   1.827  0.0702  0.4615 -0.0199
  178SOL    HW1  899   4.908   4.089   1.813  0.3342 -0.8080  0.9445
  178SOL    HW2  900   4.799   3.992   1.854 -1.6741  0.1160 -1.8497
  179SOL     OW  901   0.817   2.184   5.789  0.0838  0.1237 -0.0646
  179SOL    HW1  902   0.868   2.116   5.832  0.8176  1.2157  0.8153
  179SOL    HW2  903   0.881   2.240   5.746 -0.4650  0.6429 -0.2285
  180SOL     OW  904   6.178   4.195   3.421  0.4374 -0.0225 -0.4022
  180SOL    HW1  905   6.164   4.237   3.336 -0.7984  0.4842  0.0350
  180SOL    HW2  906   6.205   4.106   3.398  0.6898  0.2779 -1.3330
  181SOL     OW  907   5.108   2.759   5.733 -0.0061  0.0480  0.6006
  181SOL    HW1  908   5.047   2.769   5.806  1.5015  0.2879  1.8686
  181SOL    HW2  909   5.075   2.684   5.684 -0.4537 -0.7829  2.1320
  182SOL     OW  910   3.090   5.715   1.313 -0.6432 -0.0982 -0.1543
  182SOL    HW1  911   3.126   5.696   1.227 -2.3628  0.7673 -1.1098
  182SOL    HW2  912   2.997   5.733   1.298 -0.7364  1.3684  1.6822
  183SOL     OW  913   6.188   3.697   2.953  0.2579 -0.4221 -0.1320
  183SOL    HW1  914   6.273   3.682   2.911  0.7013 -1.7461  1.1264
  183SOL    HW2  915   6.161   3.610   2.982 -0.3645  0.3209  1.6432
  184SOL     OW  916   6.095   2.100   5.357  0.4117  0.0538  0.0684
  184SOL    HW1  917   6.089   2.060   5.271 -0.5744 -0.4926  0.3692
  184SOL    HW2  918   6.034   2.050   5.411  1.9581 -0.4652  1.4207
  185SOL     OW  919   2.326   3.630   6.647  0.6577 -0.0883  0.4378
  185SOL    HW1  920   2.315   3.705   6.706  1.4816  1.1297 -0.8786
  185SOL    HW2  921   2.357   3.559   6.703 -1.0490  0.2416  1.8890
  186SOL     OW  922   3.272   3.657   1.478 -0.2273 -0.2065  0.1903
  186SOL    HW1  923   3.217   3.735   1.490  0.8900  0.6023  0.2005
  186SOL    HW2  924   3.320   3.675   1.398  0.7164 -0.4709  0.6925
  187SOL     OW  925   1.461   1.534   0.456 -0.2956 -0.3434 -0.2082
  187SOL    HW1  926   1.461   1.458   0.399 -1.7842 -0.7159  0.2463
  187SOL    HW2  927   1.541   1.582   0.433  1.0084 -2.3507 -0.0425
  188SOL     OW  928   2.712   0.046   5.664 -0.0015 -0.7468  0.0746
  188SOL    HW1  929   2.748   0.009   5.583 -0.3486 -1.1850  0.1189
  188SOL    HW2  930   2.625   0.007   5.672  0.0015 -0.6495  0.6233
  189SOL     OW  931   0.797   0.072   3.057 -0.0140  0.0997 -0.1423
  189SOL    HW1  932   0.892   0.073   3.046  0.0034 -1.2033 -0.2889
  189SOL    HW2  933   0.784   0.051   3.150 -0.1816  2.5233  0.4445
  190SOL     OW  934   2.122   6.046   6.253  0.0163  0.0577  0.2435
  190SOL    HW1  935   2.188   6.062   6.185 -0.3735 -0.6138 -0.3059
  190SOL    HW2  936   2.071   5.973   6.220 -0.9334  0.4866  0.7229
  191SOL     OW  937   0.009   4.917   3.467 -0.1184  0.2259 -0.1036
  191SOL    HW1  938  -0.073   4.921   3.517  0.1926  3.4152  0.3625
  191SOL    HW2  939   0.077   4.942   3.529  0.8271  0.3583 -1.1570
  192SOL     OW  940   3.456   1.026   2.593  0.8396 -0.2567 -0.6132
  192SOL    HW1  941   3.376   1.074   2.612  0.2532 -0.7899 -1.6613
  192SOL    HW2  942   3.521   1.094   2.574  0.8857  0.2039  1.0627
  193SOL     OW  943   6.551   3.861   5.072  0.2900 -0.1326  0.1024
  193SOL    HW1  944   6.578   3.950   5.093 -2.1276  0.4786  0.9276
  193SOL    HW2  945   6.556   3.813   5.154  1.6957 -0.8311 -0.3617
  194SOL     OW  946   0.204   3.510   3.869  0.3251 -0.2044 -0.1016
  194SOL    HW1  947   0.204   3.415   3.860 -0.1720 -0.2303  0.1457
  194SOL    HW2  948   0.118   3.537   3.836  1.3036  0.3722 -2.2932
  195SOL     OW  949   2.954   4.660   4.546  0.8641  0.3040 -0.0444
  195SOL    HW1  950   3.010   4.624   4.478  0.3266 -0.3009 -0.1818
  195SOL    HW2  951   2.870   4.613   4.535  0.7200  0.3114  0.9202
  196SOL     OW  952   0.202   1.444   3.966 -0.0607  0.1823  0.0956
  196SOL    HW1  953   0.166   1.390   4.037  0.1970  2.4962  2.0885
  196SOL    HW2  954   0.149   1.523   3.967  1.6970  1.4207 -0.4797
  197SOL     OW  955   0.150   1.359   0.158 -0.3009  0.4060 -0.4990
  197SOL    HW1  956   0.099   1.282   0.183  2.3400 -1.4617 -0.4342
  197SOL    HW2  957   0.200   1.381   0.237  2.4593 -0.8416 -1.7689
  198SOL     OW  958   3.883   4.014   0.383  0.3620  0.0399 -0.4427
  198SOL    HW1  959   3.892   4.031   0.290  2.1603  1.3115 -0.0828
  198SOL    HW2  960   3.972   4.000   0.414 -0.2223 -0.6350  1.0643
  199SOL     OW  961   4.643   0.656   3.122 -0.0651  0.4999  0.4471
  199SOL    HW1  962   4.732   0.679   3.098 -0.8680  1.6456 -1.7027
  199SOL    HW2  963   4.646   0.561   3.135  0.9886  0.1038 -2.1334
  200SOL     OW  964   4.752   1.493   1.951  0.2139  0.3153 -0.0662
  200SOL    HW1  965   4.710   1.550   1.886  1.9718  1.0321 -0.6498
  200SOL    HW2  966   4.822   1.547   1.988  0.0298 -0.5024  1.5634
  201SOL     OW  967   0.878   3.781   3.000  0.3632  0.4724 -0.1043
  201SOL    HW1  968   0.840   3.857   3.046 -1.4386 -0.4255 -0.0420
  201SOL    HW2  969   0.819   3.766   2.927 -0.0622 -1.6429  0.6096
  202SOL     OW  970   2.287   3.163   0.033  0.1766 -0.2015 -0.1576
  202SOL    HW1  971   2.311   3.189   0.122  0.5889  1.1438 -0.6191
  202SOL    HW2  972   2.219   3.097   0.044  0.8868 -0.7602  1.1562
  203SOL     OW  973   0.247   2.866   0.324 -0.3217 -1.0089  0.3933
  203SOL    HW1  974   0.164   2.898   0.361 -1.2775 -1.9194 -0.8792
  203SOL    HW2  975   0.245   2.772   0.340  0.2418 -1.1018 -0.0819
  204SOL     OW  976   1.874   3.838   3.507  0.4611  0.4705 -0.2181
  204SOL    HW1  977   1.837   3.821   3.420 -2.1308  1.2607  0.6325
  204SOL    HW2  978   1.844   3.764   3.560  1.0248  0.5969  0.2868
  205SOL     OW  979   2.418   0.476   1.443 -0.0573 -0.1181 -0.3515
  205SOL    HW1  980   2.509   0.447   1.432 -0.2163 -1.1046  0.7810
  205SOL    HW2  981   2.376   0.405   1.491 -0.7324  1.5425  1.6372
  206SOL     OW  982   0.408   5.993   0.879 -0.2463 -0.7269 -0.0106
  206SOL    HW1  983   0.367   6.079   0.884  0.1917 -0.5659  1.4733
  206SOL    HW2  984   0.348   5.941   0.826 -1.3828  0.0391  0.4709
  207SOL     OW  985   1.553   1.952   6.608 -0.3193 -0.1909  0.0282
  207SOL    HW1  986   1.463   1.940   6.577 -0.8438  1.6665  0.6901
  207SOL    HW2  987   1.543   1.994   6.694  1.1852 -0.4878  0.3718
  208SOL     OW  988   4.778   1.186   5.898  0.3152 -0.0356  0.5647
  208SOL    HW1  989   4.778   1.229   5.984 -1.3738  1.1760  0.0323
  208SOL    HW2  990   4.686   1.187   5.872  0.6444 -1.4474 -0.7552
  209SOL     OW  991   4.964   2.540   3.330 -0.1232 -0.1187 -0.1954
  209SOL    HW1  992   4.964   2.444   3.333 -0.1996 -0.1148 -0.0553
  209SOL    HW2  993   4.939   2.566   3.419  1.3100  0.0345  0.1968
  210SOL     OW  994   4.854   6.253   2.505 -0.4749 -0.4843  0.0634
  210SOL    HW1  995   4.759   6.262   2.502 -0.5303 -0.9108  0.3423
  210SOL    HW2  996   4.887   6.329   2.458 -0.8793  0.9883  2.0590
  211SOL     OW  997   6.216   1.431   3.101 -0.2112 -0.4694 -0.1344
  211SOL    HW1  998   6.249   1.373   3.032  1.3488 -1.4155  1.3034
  211SOL    HW2  999   6.290   1.490   3.120 -1.0501  0.6074 -0.1206
  212SOL     OW 1000   5.173   1.583   5.173 -0.0702  0.2734 -0.4751
  212SOL    HW1 1001   5.091   1.630   5.187 -1.5363 -2.4833  1.0087
  212SOL    HW2 1002   5.237   1.629   5.227 -0.6869  2.2005 -1.2957
  213SOL     OW 1003   6.541   1.701   1.007 -0.0069 -0.1734 -0.8407
  213SOL    HW1 1004   6.498   1.619   1.030  1.4487 -0.7945 -0.1664
  213SOL    HW2 1005   6.481   1.769   1.037 -0.2582 -1.0063  0.6612
  214SOL     OW 1006   2.179   4.700   1.846 -0.4364 -0.1337  0.4816
  214SOL    HW1 1007   2.132   4.632   1.894 -0.9088  0.3808  0.7653
  214SOL    HW2 1008   2.218   4.655   1.771  0.1165 -0.9070  1.2214
  215SOL     OW 1009   0.611   5.815   6.470  0.0185  0.1191  0.6734
  215SOL    HW1 1010   0.548   5.830   6.399 -0.0350  0.8257  0.8622
  215SOL    HW2 1011   0.687   5.868   6.446  0.5689 -0.7505  0.4353
  216SOL     OW 1012   0.147   5.107   5.384  0.0742  0.3816  0.1208
  216SOL    HW1 1013   0.112   5.184   5.427  0.2580  1.7189 -1.9550
  216SOL    HW2 1014   0.221   5.140   5.333  0.6101 -1.3004 -0.2568
  217SOL     OW 1015   3.362   2.670   1.922  0.7209  0.2606  0.1776
  217SOL    HW1 1016   3.415   2.727   1.978 -0.2133 -0.6000  2.0083
  217SOL    HW2 1017   3.421   2.647   1.849  1.6260  2.2541  0.2101
  218SOL     OW 1018   3.554   1.257   2.270 -0.0752 -0.0737 -0.7667
  218SOL    HW1 1019   3.577   1.349   2.287  0.5920 -0.2855 -0.4663
  218SOL    HW2 1020   3.461   1.259   2.248 -0.6182  0.4220  1.3760
  219SOL     OW 1021   6.461   4.609   3.267  0.4176 -0.6018  0.0535
  219SOL    HW1 1022   6.467   4.660   3.187  0.2395 -2.0964 -0.9352
  219SOL    HW2 1023   6.391   4.546   3.251  0.9462 -1.4825  1.0429
  220SOL     OW 1024   1.804   2.733   6.147 -0.4289 -0.1437 -0.6485
  220SOL    HW1 1025   1.776   2.692   6.229 -1.1742 -0.9622 -1.3007
  220SOL    HW2 1026   1.738   2.801   6.131  0.6747  1.2234  0.3089
  221SOL     OW 1027   1.018   2.615   5.476 -0.0188  0.2575  0.0887
  221SOL    HW1 1028   0.982   2.526   5.470  0.1115  0.2809 -1.6020
  221SOL    HW2 1029   0.943   2.668   5.504  0.0655 -0.4375  1.7929
  222SOL     OW 1030   4.101   6.114   0.622 -0.0036 -0.1358 -0.1110
  222SOL    HW1 1031   4.013   6.076   0.624 -0.6144  1.1994 -0.2014
  222SOL    HW2 1032   4.160   6.040   0.632 -1.0501 -1.3649 -2.3550
  223SOL     OW 1033   4.098   4.379   2.968 -0.3922 -0.1151 -0.2540
  223SOL    HW1 1034   4.187   4.347   2.980  0.2101  1.2925 -0.7063
  223SOL    HW2 1035   4.043   4.301   2.968  0.8461 -1.0004  0.0155
  224SOL     OW 1036   4.713   1.522   2.561  0.1156 -0.0458 -0.2619
  224SOL    HW1 1037   4.808   1.508   2.561 -0.1461 -2.1702  0.1036
  224SOL    HW2 1038   4.697   1.577   2.485  1.6105  0.1292 -0.4864
  225SOL     OW 1039   0.282   5.315   0.223  0.1973  0.3206  0.1145
  225SOL    HW1 1040   0.340   5.382   0.187  1.0600 -0.0555  0.7701
  225SOL    HW2 1041   0.307   5.234   0.177 -0.6238  0.3662 -0.4462
  226SOL     OW 1042   5.963   6.653   6.183 -0.5038  0.3529  0.3910
  226SOL    HW1 1043   6.055   6.678   6.197  0.2127 -2.1194  0.4231
  226SOL    HW2 1044   5.944   6.681   6.094  0.7631 -0.4150 -0.1451
  227SOL     OW 1045   1.168   5.699   0.547 -0.1597  0.1392 -0.0475
  227SOL    HW1 1046   1.089   5.647   0.563  0.0878 -0.4572 -0.7529
  227SOL    HW2 1047   1.225   5.642   0.496  0.9583  0.3705  0.8911
  228SOL     OW 1048   4.018   4.259   6.318  0.7315 -0.2303  0.0609
  228SOL    HW1 1049   3.955   4.200   6.358  0.3644  0.6479  0.7942
  228SOL    HW2 1050   4.098   4.207   6.310  0.6082 -0.6316  1.2930
  229SOL     OW 1051   6.265   4.765   1.683  0.1024 -0.2845 -0.2775
  229SOL    HW1 1052   6.277   4.848   1.638  0.8783 -0.4960 -0.4737
  229SOL    HW2 1053   6.171   4.763   1.704 -0.1688  0.0879 -1.3473
  230SOL     OW 1054   5.966   1.174   3.302 -0.0864 -0.0243  0.3488
  230SOL    HW1 1055   5.954   1.253   3.353  1.7525  0.2939  0.3379
  230SOL    HW2 1056   6.031   1.197   3.235  0.1126 -1.3811  0.0289
  231SOL     OW 1057   4.188   0.083   5.620 -0.0732  0.0588  0.3668
  231SOL    HW1 1058   4.119   0.091   5.555  0.4450 -0.8457 -0.3079
  231SOL    HW2 1059   4.189  -0.010   5.643  2.3292 -0.4028 -1.2433
  232SOL     OW 1060   5.144   2.923   4.918  1.0744 -0.0034  0.0162
  232SOL    HW1 1061   5.181   2.967   4.842 -1.3686  1.7177 -0.2524
  232SOL    HW2 1062   5.079   2.984   4.953 -0.1824 -2.0904  1.5540
  233SOL     OW 1063   4.350   1.317   5.108 -0.0677 -0.2998 -0.4755
  233SOL    HW1 1064   4.363   1.406   5.076 -1.7544  0.3867  0.5995
  233SOL    HW2 1065   4.438   1.282   5.119  0.6135  0.2461 -3.4534
  234SOL     OW 1066   1.714   1.268   5.691 -1.2339 -0.3072 -0.4582
  234SOL    HW1 1067   1.670   1.206   5.749 -3.3725  1.5441  0.0365
  234SOL    HW2 1068   1.765   1.213   5.631 -1.0324 -2.3855  1.4936
  235SOL     OW 1069   3.382   3.144   3.486  0.1258  0.2268 -0.2686
  235SOL    HW1 1070   3.442   3.089   3.435  0.9192  1.1813 -0.3895
  235SOL    HW2 1071   3.426   3.228   3.493 -0.5398  0.4967  0.9434
  236SOL     OW 1072   6.449   4.738   0.408  0.0523 -0.1657  0.6656
  236SOL    HW1 1073   6.427   4.830   0.424 -0.3481  0.4310 -2.5138
  236SOL    HW2 1074   6.378   4.688   0.448  0.9936  0.7131  3.7111
  237SOL     OW 1075   2.288   0.108   0.506  0.4640 -0.2837  0.0305
  237SOL    HW1 1076   2.291   0.173   0.436  1.1021 -0.2169  0.1139
  237SOL    HW2 1077   2.298   0.024   0.461 -0.8174 -0.3745 -0.1262
  238SOL     OW 1078   6.433   2.772   2.565  0.5445  0.0725  0.1140
  238SOL    HW1 1079   6.515   2.793   2.608 -0.1397 -0.0462  1.5483
  238SOL    HW2 1080   6.405   2.689   2.605 -0.8939  0.7613  0.6071
  239SOL     OW 1081   6.462   1.093   0.006 -0.2072 -0.0857 -0.1069
  239SOL    HW1 1082   6.552   1.064  -0.007 -0.3897 -1.3524  1.1802
  239SOL    HW2 1083   6.416   1.016   0.040 -0.7420  1.5820  3.4250
  240SOL     OW 1084   0.306   5.661   3.153 -0.1593  0.0165  0.2527
  240SOL    HW1 1085   0.379   5.724   3.157 -1.0260  0.9982  1.2740
  240SOL    HW2 1086   0.333   5.589   3.210  0.3070  0.0350  0.0618
  241SOL     OW 1087   3.126   3.659   6.009  0.3179  0.2686 -0.1318
  241SOL    HW1 1088   3.059   3.591   6.011  0.2388  0.3182  2.9205
  241SOL    HW2 1089   3.206   3.615   6.037  0.3313  1.2952  1.6039
  242SOL     OW 1090   1.534   2.414   4.001  0.4141 -0.0451 -0.4326
  242SOL    HW1 1091   1.498   2.501   3.981 -0.0472 -0.5409 -1.8976
  242SOL    HW2 1092   1.610   2.432   4.056 -0.0417  1.2500 -0.1826
  243SOL     OW 1093   4.649   3.912   3.168 -0.2528  0.3702  0.3598
  243SOL    HW1 1094   4.628   3.822   3.147 -0.2960  0.4988 -0.1643
  243SOL    HW2 1095   4.740   3.910   3.198 -0.5061  0.0412  1.1487
  244SOL     OW 1096   6.302   2.493   1.501 -0.4911  0.2734  0.6718
  244SOL    HW1 1097   6.348   2.414   1.472  1.6194  1.1391  1.4591
  244SOL    HW2 1098   6.318   2.557   1.432 -1.7110  0.2154  0.3122
  245SOL     OW 1099   4.053   0.791   6.407  0.3505  0.1936 -0.6702
  245SOL    HW1 1100   4.065   0.876   6.449 -1.2142 -0.6139  1.6379
  245SOL    HW2 1101   4.142   0.763   6.384  1.7591 -0.1386  4.1027
  246SOL     OW 1102   4.575   5.023   5.880  0.1822 -0.0908  0.4031
  246SOL    HW1 1103   4.502   4.970   5.846 -1.4599  0.8249  2.3287
  246SOL    HW2 1104   4.599   5.080   5.807 -2.7713  1.3492  0.4521
  247SOL     OW 1105   2.580   2.010   5.112  0.6524  0.3884  0.7800
  247SOL    HW1 1106   2.570   2.093   5.066  0.4387 -1.1063 -2.1306
  247SOL    HW2 1107   2.670   1.983   5.094 -0.0678 -1.2239 -0.7087
  248SOL     OW 1108   4.810   5.705   4.501  0.0628 -0.1148 -0.5793
  248SOL    HW1 1109   4.734   5.762   4.488  0.1578  0.0005 -0.6388
  248SOL    HW2 1110   4.877   5.741   4.442  0.8136  1.0011  0.8806
  249SOL     OW 1111   5.599   4.822   4.458 -0.2456 -0.2266  0.4346
  249SOL    HW1 1112   5.654   4.874   4.400 -0.5499  0.4658  0.7575
  249SOL    HW2 1113   5.510   4.837   4.427 -0.4207  0.2603  1.1635
  250SOL     OW 1114   5.270   1.923   0.901 -0.0458  0.0088  0.1702
  250SOL    HW1 1115   5.243   1.973   0.978  1.1342  1.1182 -0.0930
  250SOL    HW2 1116   5.221   1.961   0.829  0.8834  0.8807 -0.0371
  251SOL     OW 1117   5.797   0.211   0.859  0.3243 -0.0382 -0.3751
  251SOL    HW1 1118   5.891   0.224   0.847  0.3611 -0.6810 -0.8495
  251SOL    HW2 1119   5.790   0.125   0.900 -0.1147 -0.6065 -1.6000
  252SOL     OW 1120   6.102   2.915   0.538 -0.0607 -0.1747 -0.6312
  252SOL    HW1 1121   6.124   2.924   0.631 -1.2627 -0.4007 -0.3017
  252SOL    HW2 1122   6.098   2.820   0.523  0.6837 -0.1438 -1.0611
  253SOL     OW 1123   6.036   5.528   6.781 -0.7762 -0.2571  0.2933
  253SOL    HW1 1124   5.954   5.562   6.746 -1.4442 -1.2181  0.8991
  253SOL    HW2 1125   6.022   5.434   6.788  0.9948 -0.6869 -1.2249
  254SOL     OW 1126   1.941   5.987   4.590  0.1916 -0.3111 -0.2290
  254SOL    HW1 1127   1.867   5.934   4.618  0.6089  0.1599  1.9055
  254SOL    HW2 1128   1.961   5.956   4.501 -2.6009 -0.3664 -0.9301
  255SOL     OW 1129   4.181   4.327   6.761 -0.0535 -0.4244 -0.1880
  255SOL    HW1 1130   4.207   4.351   6.850  1.2465  0.3566 -0.7490
  255SOL    HW2 1131   4.129   4.402   6.731 -0.2900 -0.5811 -0.1688
  256SOL     OW 1132   6.014   4.338   5.845 -0.6945 -0.3371  0.4871
  256SOL    HW1 1133   6.004   4.424   5.804 -0.5708 -0.3524  0.4271
  256SOL    HW2 1134   5.963   4.279   5.789 -3.0410  0.1422  1.9860
  257SOL     OW 1135   0.030   2.953   0.432 -0.4251 -0.2210  0.0086
  257SOL    HW1 1136  -0.010   2.932   0.516 -1.3968 -1.1239 -0.6527
  257SOL    HW2 1137  -0.045   2.968   0.373  0.2244  1.5645 -0.4364
  258SOL     OW 1138   1.678   5.255   4.459  0.5739 -0.2807  0.1585
  258SOL    HW1 1139   1.683   5.345   4.492  1.7202  0.3525 -1.5941
  258SOL    HW2 1140   1.588   5.228   4.476 -0.2319  1.7468 -0.5817
  259SOL     OW 1141   0.756   0.602   4.417  0.0090  0.6777  0.6938
  259SOL    HW1 1142   0.851   0.611   4.409  0.0978  1.1249  1.9140
  259SOL    HW2 1143   0.738   0.511   4.394  0.5842  0.8870 -0.6374
  260SOL     OW 1144   2.956   0.365   0.521  0.3499  0.6670 -0.1559
  260SOL    HW1 1145   2.948   0.352   0.615  0.1541 -0.6840 -0.3339
  260SOL    HW2 1146   2.870   0.343   0.486  0.7716 -0.1045 -0.7560
  261SOL     OW 1147   1.725   4.643   6.026 -0.1931 -0.1745  0.3791
  261SOL    HW1 1148   1.664   4.717   6.029 -0.8875 -0.7471  0.5223
  261SOL    HW2 1149   1.720   4.612   5.935  2.0849  1.5700 -0.4466
  262SOL     OW 1150   6.633   2.462   0.027 -0.0783  0.6879 -0.2866
  262SOL    HW1 1151   6.539   2.473   0.038 -0.3062 -1.1671 -0.1835
  262SOL    HW2 1152   6.648   2.468  -0.067 -0.3462  0.5810 -0.3346
  263SOL     OW 1153   1.731   2.008   3.625  0.4862  0.3649  0.1949
  263SOL    HW1 1154   1.789   1.937   3.596  2.2986  1.6932  0.4436
  263SOL    HW2 1155   1.748   2.079   3.564 -2.3030  0.2332 -0.8841
  264SOL     OW 1156   4.538   4.802   2.561 -0.2049  0.1611  0.3679
  264SOL    HW1 1157   4.616   4.844   2.523  0.0650  0.7868  1.5613
  264SOL    HW2 1158   4.567   4.714   2.584 -0.9678 -1.0892 -2.8266
  265SOL     OW 1159   4.958   5.541   0.201  0.0504 -0.2001  0.4248
  265SOL    HW1 1160   5.024   5.581   0.258  1.0990 -1.5827  0.2231
  265SOL    HW2 1161   4.917   5.615   0.157  0.1353  0.8133  1.9661
  266SOL     OW 1162   4.448   5.072   0.987  0.4332  0.3601  0.1590
  266SOL    HW1 1163   4.452   5.128   1.064  1.0169  1.9527 -0.9862
  266SOL    HW2 1164   4.537   5.073   0.952  0.4928 -1.4026  0.1460
  267SOL     OW 1165   3.619   0.952   4.602  0.4680 -0.0515 -0.4540
  267SOL    HW1 1166   3.604   1.012   4.529 -0.1900 -0.3490 -0.5757
  267SOL    HW2 1167   3.705   0.914   4.585  0.3778 -0.0186 -1.0069
  268SOL     OW 1168   2.428   3.547   5.116 -0.1670  0.5064 -0.7058
  268SOL    HW1 1169   2.373   3.609   5.163  1.7831  1.1496  0.8319
  268SOL    HW2 1170   2.489   3.601   5.067 -0.2458 -0.2139 -1.6495
  269SOL     OW 1171   6.532   4.077   3.644  0.1669 -0.3612  0.2105
  269SOL    HW1 1172   6.606   4.128   3.611 -1.6614  0.9541 -2.2064
  269SOL    HW2 1173   6.536   3.995   3.594  0.4992 -0.6834  0.7582
  270SOL     OW 1174   4.439   1.315   2.039 -0.3967 -0.3573  0.1593
  270SOL    HW1 1175   4.383   1.263   2.096  0.6890 -2.6345 -0.7215
  270SOL    HW2 1176   4.518   1.330   2.090 -1.0358  1.2931  0.7364
  271SOL     OW 1177   2.444   5.181   4.277  0.6614 -0.4985 -0.5455
  271SOL    HW1 1178   2.355   5.155   4.299  0.9188  0.0394  1.3365
  271SOL    HW2 1179   2.486   5.101   4.245 -0.1845 -1.0104 -0.3899
  272SOL     OW 1180   5.431   6.319   4.633  0.0055 -0.2320 -0.3979
  272SOL    HW1 1181   5.343   6.284   4.649 -0.9017  0.6184 -3.0303
  272SOL    HW2 1182   5.429   6.407   4.672  0.4234 -0.9486  1.3222
  273SOL     OW 1183   0.478   5.620   0.805  0.6305 -0.1421 -0.0023
  273SOL    HW1 1184   0.412   5.562   0.766  1.0367 -0.5537 -0.0793
  273SOL    HW2 1185   0.486   5.692   0.743  0.6089 -0.3376 -0.2330
  274SOL     OW 1186   3.469   5.038   3.826 -0.0156  0.0247  0.3724
  274SOL    HW1 1187   3.396   4.977   3.827  1.6481 -2.0840 -0.1818
  274SOL    HW2 1188   3.480   5.060   3.733  0.5203 -0.2703  0.3629
  275SOL     OW 1189   4.125   4.817   4.043 -0.3259  0.1337 -0.6637
  275SOL    HW1 1190   4.079   4.757   3.985  0.8559 -1.7325  0.2408
  275SOL    HW2 1191   4.143   4.766   4.122  1.4620  1.3854 -0.1945
  276SOL     OW 1192   2.502   6.617   5.784 -0.1797 -0.8391 -0.3017
  276SOL    HW1 1193   2.416   6.580   5.806 -1.1801  0.8506 -1.1432
  276SOL    HW2 1194   2.482   6.703   5.747  1.9768  0.4548  1.2816
  277SOL     OW 1195   3.203   1.018   2.081  0.0753 -0.4518 -0.1932
  277SOL    HW1 1196   3.181   0.929   2.054 -0.1169 -0.1006 -1.2413
  277SOL    HW2 1197   3.169   1.074   2.010  1.7174  0.3370 -0.4034
  278SOL     OW 1198   1.124   2.474   5.733 -0.3497  0.2375 -0.2746
  278SOL    HW1 1199   1.143   2.434   5.818  1.9471 -1.0029 -1.2922
  278SOL    HW2 1200   1.127   2.569   5.750 -0.5661  0.0179  1.1334
  279SOL     OW 1201   2.688   5.754   6.134 -0.4662 -0.1777 -0.0938
  279SOL    HW1 1202   2.653   5.843   6.146  0.2761  0.1178 -0.0406
  279SOL    HW2 1203   2.764   5.751   6.192  0.9880  0.0184 -1.9043
  280SOL     OW 1204   1.510   5.621   0.272 -0.2243 -0.3416  0.2217
  280SOL    HW1 1205   1.429   5.588   0.311 -0.5202 -2.3237 -1.8879
  280SOL    HW2 1206   1.570   5.547   0.274  1.2414  0.8196  0.8531
  281SOL     OW 1207   0.390   4.640   4.545  0.1418  0.5673 -0.7105
  281SOL    HW1 1208   0.310   4.601   4.509  2.0681 -2.5987 -2.0433
  281SOL    HW2 1209   0.409   4.588   4.623  1.1555  0.8771 -0.7382
  282SOL     OW 1210   1.221   2.207   0.465 -0.6675 -0.0059  0.1681
  282SOL    HW1 1211   1.239   2.274   0.531 -0.3909  0.5819 -0.5006
  282SOL    HW2 1212   1.267   2.129   0.497 -0.2662  0.3680  0.5046
  283SOL     OW 1213   6.103   4.479   0.646  0.2863  0.0486 -0.0858
  283SOL    HW1 1214   6.102   4.491   0.741  3.6481 -2.4276  0.4492
  283SOL    HW2 1215   6.031   4.417   0.630  0.5907 -0.6462  1.0830
  284SOL     OW 1216   2.899   5.376   6.209 -0.6987  0.5199 -0.3054
  284SOL    HW1 1217   2.837   5.317   6.251  1.3224 -1.9237 -0.5200
  284SOL    HW2 1218   2.860   5.396   6.124 -1.2080 -0.9537 -0.4332
  285SOL     OW 1219   5.565   1.096   5.421  0.2505 -0.3021  0.1051
  285SOL    HW1 1220   5.538   1.161   5.485 -2.9920  0.0934 -1.4484
  285SOL    HW2 1221   5.585   1.147   5.342  0.2076 -1.0003 -0.3686
  286SOL     OW 1222   2.999   3.569   3.554 -0.6001  0.1246  0.4972
  286SOL    HW1 1223   3.035   3.606   3.635 -0.0371  1.3993 -0.2957
  286SOL    HW2 1224   3.074   3.565   3.494 -0.9547 -1.0174  0.0953
  287SOL     OW 1225   3.118   3.674   1.909  0.8581  0.0772  0.2372
  287SOL    HW1 1226   3.036   3.724   1.913 -0.8883 -2.5667  0.6621
  287SOL    HW2 1227   3.130   3.656   1.816 -0.3926 -1.4098  0.3120
  288SOL     OW 1228   4.345   1.053   0.176 -0.4162 -0.6823 -0.0004
  288SOL    HW1 1229   4.316   0.967   0.144  0.8680 -1.3008  0.4490
  288SOL    HW2 1230   4.338   1.110   0.099  0.6531 -1.6738 -0.8669
  289SOL     OW 1231   2.566   3.874   3.812  0.2228  0.0354  0.5130
  289SOL    HW1 1232   2.495   3.824   3.772  1.5694 -1.2089 -0.4301
  289SOL    HW2 1233   2.552   3.863   3.906 -0.1354 -1.2614  0.3322
  290SOL     OW 1234   5.679   5.905   5.611  0.1679 -0.0623 -0.2277
  290SOL    HW1 1235   5.619   5.834   5.585 -0.7040  0.7164 -0.3792
  290SOL    HW2 1236   5.721   5.931   5.529 -1.3126  1.2214 -0.6321
  291SOL     OW 1237   2.035   1.289   1.552 -0.0289 -0.5379 -0.5682
  291SOL    HW1 1238   2.065   1.344   1.479  0.4788  2.3926  1.6854
  291SOL    HW2 1239   1.963   1.338   1.591 -0.1577 -1.9268  1.0393
  292SOL     OW 1240   2.516   0.283   1.079 -0.9426 -0.4818  0.6454
  292SOL    HW1 1241   2.551   0.213   1.023  0.5899 -0.4160  1.4634
  292SOL    HW2 1242   2.557   0.268   1.164  0.2963  2.0395  0.5643
  293SOL     OW 1243   2.051   3.785   2.123  0.2938  0.1325 -0.3465
  293SOL    HW1 1244   2.140   3.816   2.138  0.2677  0.1728 -0.2765
  293SOL    HW2 1245   2.055   3.691   2.139  0.3903  0.0856 -0.6311
  294SOL     OW 1246   1.348   2.719   6.647 -0.0843  0.0001  0.1042
  294SOL    HW1 1247   1.415   2.724   6.714  0.3340 -1.0422 -0.2094
  294SOL    HW2 1248   1.265   2.722   6.696  0.1688  1.3304  0.4846
  295SOL     OW 1249   6.183   3.892   6.214 -0.1846  0.0380 -0.1870
  295SOL    HW1 1250   6.201   3.908   6.121  0.5995 -1.6332 -0.3443
  295SOL    HW2 1251   6.161   3.979   6.248 -0.5074  0.6948 -1.9202
  296SOL     OW 1252   6.666   4.760   2.188 -0.6411 -0.0823 -0.1516
  296SOL    HW1 1253   6.739   4.806   2.231 -1.1480 -0.2169  0.8963
  296SOL    HW2 1254   6.709   4.695   2.132  0.0740 -0.9918  1.3729
  297SOL     OW 1255   0.343   3.271   2.863 -0.4349  0.4563  0.7052
  297SOL    HW1 1256   0.402   3.246   2.934 -1.2000 -1.1411  0.8082
  297SOL    HW2 1257   0.255   3.251   2.895 -0.7417 -1.1092 -0.9756
  298SOL     OW 1258   0.941   4.862   2.733 -0.1724  0.0050 -0.3450
  298SOL    HW1 1259   0.889   4.870   2.653  0.0345 -1.7259 -0.6801
  298SOL    HW2 1260   0.964   4.769   2.739  0.1560  0.1581  1.5248
  299SOL     OW 1261   6.097   3.133   2.217  0.6839  0.5734  0.2363
  299SOL    HW1 1262   6.072   3.191   2.146 -1.9914  0.3525  0.8904
  299SOL    HW2 1263   6.112   3.048   2.175 -3.0903 -0.1409  0.0355
  300SOL     OW 1264   4.805   5.715   3.515 -0.0968  0.1913 -0.1564
  300SOL    HW1 1265   4.753   5.750   3.442  0.4134  1.9382  0.2638
  300SOL    HW2 1266   4.892   5.702   3.478 -0.1167 -0.0008 -0.1358
  301SOL     OW 1267   3.645   6.783   0.844 -0.2736 -0.1385 -0.5902
  301SOL    HW1 1268   3.600   6.707   0.882 -2.4251  1.3912  0.0619
  301SOL    HW2 1269   3.732   6.749   0.821 -1.4815 -3.0991 -1.3706
  302SOL     OW 1270   1.363   3.410   1.671  0.7102  0.0665 -0.2944
  302SOL    HW1 1271   1.312   3.421   1.752 -0.2785  0.2361 -0.9303
  302SOL    HW2 1272   1.325   3.472   1.610 -0.2174 -1.7536 -1.6849
  303SOL     OW 1273   0.930   0.332   4.087  0.5237  0.1249 -0.5026
  303SOL    HW1 1274   0.881   0.250   4.098  2.0494 -1.1034 -2.2240
  303SOL    HW2 1275   0.865   0.393   4.053 -1.0968  0.2753  2.5032
  304SOL     OW 1276   2.653   1.053   2.509  0.1585  0.1632 -0.1456
  304SOL    HW1 1277   2.562   1.064   2.538 -0.1501  0.3300 -1.1450
  304SOL    HW2 1278   2.660   1.107   2.430  1.1575  0.2249 -0.0311
  305SOL     OW 1279   0.252   4.544   5.205 -0.2275 -0.3134  0.0558
  305SOL    HW1 1280   0.271   4.580   5.292  0.0413  3.4679 -1.4038
  305SOL    HW2 1281   0.157   4.529   5.205 -0.2967  0.0874  0.8567
  306SOL     OW 1282   2.026   4.229   2.868 -0.2718  0.0771  0.4819
  306SOL    HW1 1283   2.041   4.323   2.881  0.5001  0.0378 -0.0259
  306SOL    HW2 1284   2.079   4.187   2.935 -1.3320  0.0149  1.2953
  307SOL     OW 1285   1.992   2.459   3.810  0.3210 -0.0053 -0.4877
  307SOL    HW1 1286   1.986   2.364   3.801 -0.7058  0.1466 -1.8707
  307SOL    HW2 1287   2.045   2.473   3.888 -1.2950 -1.7256  1.0319
  308SOL     OW 1288   5.258   6.121   5.248 -0.0981  0.3941  0.5169
  308SOL    HW1 1289   5.204   6.058   5.200  1.6217 -0.6349 -0.1601
  308SOL    HW2 1290   5.289   6.182   5.181 -0.5529  1.0900  0.9305
  309SOL     OW 1291   0.570   1.078   2.066  0.3890 -0.0459  0.0882
  309SOL    HW1 1292   0.520   1.039   2.137  0.1205  1.7780  0.9508
  309SOL    HW2 1293   0.653   1.030   2.066 -0.5953 -1.8319 -0.1275
  310SOL     OW 1294   2.006   5.716   4.079  0.7748  0.3883 -0.4211
  310SOL    HW1 1295   1.924   5.764   4.090  0.1221 -0.9241  0.8220
  310SOL    HW2 1296   1.978   5.628   4.054  1.8725  0.2537 -1.2209
  311SOL     OW 1297   5.336   4.489   3.032 -0.0032  0.0537  0.4519
  311SOL    HW1 1298   5.315   4.582   3.042 -0.8724 -0.3025  2.7922
  311SOL    HW2 1299   5.359   4.461   3.121  0.9893 -1.8026 -0.3537
  312SOL     OW 1300   4.336   5.778   4.962  0.0501 -0.3155 -0.1184
  312SOL    HW1 1301   4.377   5.753   5.045 -0.0705  2.6981  0.9537
  312SOL    HW2 1302   4.408   5.814   4.910 -0.5126  1.3697  0.2318
  313SOL     OW 1303   1.286   5.820   1.045 -0.3573  0.5442  0.3272
  313SOL    HW1 1304   1.365   5.818   0.991  1.8541 -2.9678  3.2594
  313SOL    HW2 1305   1.227   5.759   1.003 -0.1567  0.6205 -0.0725
  314SOL     OW 1306   5.958   3.628   6.490  0.0798 -0.4353 -0.0979
  314SOL    HW1 1307   6.042   3.671   6.476  1.8292 -2.8726  2.0533
  314SOL    HW2 1308   5.963   3.547   6.440  0.4709 -2.1573  2.5233
  315SOL     OW 1309   2.434   6.310   6.113  0.4510  0.0379  0.1767
  315SOL    HW1 1310   2.495   6.244   6.078  0.5068  1.3704 -2.5034
  315SOL    HW2 1311   2.491   6.374   6.155  0.6448 -0.0277  0.0139
  316SOL     OW 1312   5.528   0.268   1.907  0.1998 -0.5531 -0.0598
  316SOL    HW1 1313   5.456   0.316   1.867  0.9616 -0.0440 -0.8679
  316SOL    HW2 1314   5.502   0.176   1.901 -1.3872 -0.2865  1.7232
  317SOL     OW 1315   1.543   0.651   2.196 -0.1400  0.3350 -0.2860
  317SOL    HW1 1316   1.454   0.637   2.164 -0.5012  2.4675 -0.3582
  317SOL    HW2 1317   1.538   0.732   2.248  1.4670 -0.2863  0.9303
  318SOL     OW 1318   3.188   4.903   5.356 -0.1509  0.2142  0.1919
  318SOL    HW1 1319   3.261   4.870   5.407  0.6773  0.7573 -0.6109
  318SOL    HW2 1320   3.226   4.969   5.298 -0.8273 -1.1667 -1.9391
  319SOL     OW 1321   6.517   5.831   5.745  0.1260  0.2388 -0.3951
  319SOL    HW1 1322   6.556   5.745   5.760 -2.2408 -0.9882 -0.6984
  319SOL    HW2 1323   6.493   5.862   5.833  1.5697  0.9381 -0.2213
  320SOL     OW 1324   2.951   5.050   5.451  0.0816 -0.2958  0.3891
  320SOL    HW1 1325   2.968   5.025   5.542  0.5232 -2.4693 -0.2286
  320SOL    HW2 1326   3.021   5.009   5.401 -0.8461 -0.1818 -1.0656
  321SOL     OW 1327   4.533   3.866   1.196 -0.6026  0.1143 -0.6182
  321SOL    HW1 1328   4.603   3.872   1.131  1.0903 -1.6159  0.9439
  321SOL    HW2 1329   4.542   3.946   1.248 -0.8217  0.6416 -1.3713
  322SOL     OW 1330   5.134   4.818   0.943  0.1015  0.0140 -0.3057
  322SOL    HW1 1331   5.213   4.782   0.984  0.5699 -0.2194 -1.3687
  322SOL    HW2 1332   5.165   4.855   0.860 -0.9993 -0.6419 -1.0322
  323SOL     OW 1333   0.877   5.149   5.101  0.0994 -0.2694 -0.2002
  323SOL    HW1 1334   0.918   5.096   5.169 -0.7175 -0.1635  0.3845
  323SOL    HW2 1335   0.803   5.096   5.070 -1.2532  0.8287  0.9859
  324SOL     OW 1336   1.717   3.227   2.158 -0.6213  0.1051  0.0925
  324SOL    HW1 1337   1.627   3.213   2.186 -1.0917 -1.3903 -1.9557
  324SOL    HW2 1338   1.714   3.223   2.062  1.5537  0.5270 -0.0597
  325SOL     OW 1339   5.818   3.332   2.660  0.2961  0.4920 -0.5178
  325SOL    HW1 1340   5.877   3.291   2.724 -0.0950  2.9172  1.5633
  325SOL    HW2 1341   5.872   3.345   2.582  2.2121  1.5299  0.9010
  326SOL     OW 1342   6.748   0.347   2.118 -0.7300  0.4158 -0.0815
  326SOL    HW1 1343   6.772   0.383   2.032 -0.4521  1.3745  0.3907
  326SOL    HW2 1344   6.674   0.289   2.100  1.4337 -2.1582 -1.5244
  327SOL     OW 1345   4.920   1.974   3.756  0.0853 -0.7295 -0.4672
  327SOL    HW1 1346   4.857   1.914   3.718  0.4941 -1.3440 -0.1921
  327SOL    HW2 1347   4.944   1.934   3.840  0.3268 -0.1593 -0.2547
  328SOL     OW 1348   6.176   0.609   3.828 -0.3386  0.0080  0.0045
  328SOL    HW1 1349   6.223   0.528   3.848  1.0464  0.7744 -0.0762
  328SOL    HW2 1350   6.196   0.626   3.736 -0.3583  0.6155  0.1122
  329SOL     OW 1351   1.693   4.960   5.445 -0.1309 -0.2923 -0.0191
  329SOL    HW1 1352   1.785   4.945   5.464 -0.2296 -2.0499 -0.7353
  329SOL    HW2 1353   1.658   4.873   5.426 -2.2561  0.1165  1.5608
  330SOL     OW 1354   0.494   2.292   4.818  0.0982  0.1431 -0.1227
  330SOL    HW1 1355   0.571   2.347   4.837  1.7553 -1.3112 -2.1715
  330SOL    HW2 1356   0.530   2.205   4.803 -2.1602 -0.9135  0.2450
  331SOL     OW 1357   0.465   4.164   6.549  0.1967 -0.1862  0.3099
  331SOL    HW1 1358   0.402   4.096   6.573  0.8000 -1.2173 -0.9311
  331SOL    HW2 1359   0.411   4.233   6.509 -0.2667 -0.6013  0.2047
  332SOL     OW 1360   3.836   5.616   6.292 -0.6100  0.1493 -0.2968
  332SOL    HW1 1361   3.760   5.579   6.338  0.9196 -0.7405  1.6534
  332SOL    HW2 1362   3.853   5.698   6.338  0.1688 -0.1235 -0.0818
  333SOL     OW 1363   3.659   6.562   1.640 -0.0152 -0.3533  0.7220
  333SOL    HW1 1364   3.725   6.509   1.596 -0.1282 -0.3659  0.5673
  333SOL    HW2 1365   3.687   6.565   1.731 -0.8742 -2.0213  1.0729
  334SOL     OW 1366   2.490   1.663   6.572 -0.4807 -0.1882  0.5726
  334SOL    HW1 1367   2.477   1.623   6.658  0.3884 -0.2533  0.6890
  334SOL    HW2 1368   2.582   1.647   6.552  0.3944  3.0566  1.3241
  335SOL     OW 1369   1.046   4.259   2.473 -0.6983 -0.4030 -0.1315
  335SOL    HW1 1370   1.017   4.295   2.557 -3.1224  1.2449 -1.5659
  335SOL    HW2 1371   1.132   4.299   2.458  0.9993 -2.5808  2.5462
  336SOL     OW 1372   1.136   3.459   2.635  0.3044  0.2295  0.5211
  336SOL    HW1 1373   1.102   3.513   2.706  1.5553  2.8270 -0.7221
  336SOL    HW2 1374   1.065   3.455   2.571  0.1377  0.2216  0.7054
  337SOL     OW 1375   1.112   4.395   3.060  0.5789 -0.9564  0.2392
  337SOL    HW1 1376   1.144   4.481   3.031  2.9162 -0.9226  2.5358
  337SOL    HW2 1377   1.019   4.409   3.077  0.5923  0.7163 -0.7724
  338SOL     OW 1378   6.364   2.932   4.925 -0.1078  0.0953 -0.1850
  338SOL    HW1 1379   6.407   2.848   4.939 -0.0808  0.1176 -0.1313
  338SOL    HW2 1380   6.348   2.965   5.014  0.3382  0.3801 -0.2082
  339SOL     OW 1381   1.462   6.483   4.856 -0.1438 -0.7019 -0.2930
  339SOL    HW1 1382   1.376   6.507   4.822  0.1186 -0.0736 -0.5179
  339SOL    HW2 1383   1.522   6.546   4.818  0.1843 -0.0656  1.2024
  340SOL     OW 1384   0.240   0.347   0.670  0.5962  0.1142 -0.0801
  340SOL    HW1 1385   0.188   0.270   0.646 -2.2852  1.6097  0.7998
  340SOL    HW2 1386   0.190   0.421   0.635  3.2321  1.6573 -0.8702
  341SOL     OW 1387   4.365   4.171   6.640  0.1093 -0.2283 -0.1336
  341SOL    HW1 1388   4.390   4.253   6.596  1.1254 -1.0543 -1.1494
  341SOL    HW2 1389   4.302   4.199   6.707  0.5579  1.4047 -0.3322
  342SOL     OW 1390   1.937   1.727   4.732 -0.1512 -0.2049  0.0669
  342SOL    HW1 1391   1.907   1.782   4.804 -1.4426  0.6830 -1.1194
  342SOL    HW2 1392   1.934   1.638   4.768  0.3364  0.3033  1.4579
  343SOL     OW 1393   1.931   3.232   5.879 -0.2002  0.0387 -0.2638
  343SOL    HW1 1394   1.862   3.165   5.878  1.1909 -1.4581 -1.2923
  343SOL    HW2 1395   1.978   3.219   5.797  1.4103  0.9116  0.4835
  344SOL     OW 1396   6.402   1.367   2.100 -0.0592  0.4245  0.1383
  344SOL    HW1 1397   6.329   1.382   2.161  0.2079  1.5829  0.1803
  344SOL    HW2 1398   6.470   1.327   2.155 -0.7458 -0.9552  0.0351
  345SOL     OW 1399   4.101   2.780   3.663 -0.3481 -0.4394  0.0286
  345SOL    HW1 1400   4.115   2.869   3.693  0.7354  0.4937 -2.8895
  345SOL    HW2 1401   4.170   2.729   3.706 -0.0342  0.4164  0.5629
  346SOL     OW 1402   2.584   5.550   2.326 -0.1301 -0.4388 -0.0099
  346SOL    HW1 1403   2.589   5.615   2.256 -0.3609 -0.6126 -0.1910
  346SOL    HW2 1404   2.626   5.592   2.401  1.0126 -0.6200 -0.5261
  347SOL     OW 1405   1.983   6.170   0.990 -0.0381 -0.9687  0.1743
  347SOL    HW1 1406   1.926   6.247   0.986 -1.5150 -2.0611 -0.8014
  347SOL    HW2 1407   2.039   6.178   0.913  1.2316  0.1317  1.1600
  348SOL     OW 1408   4.406   2.398   3.015  0.1259  0.1574  0.4778
  348SOL    HW1 1409   4.369   2.341   3.083 -0.4414 -1.2460 -0.9335
  348SOL    HW2 1410   4.367   2.365   2.934  2.8750 -0.0324 -0.8572
  349SOL     OW 1411   1.601   4.008   3.217 -0.5166 -0.0186 -0.1792
  349SOL    HW1 1412   1.569   3.930   3.172 -1.2264 -0.7498  1.5270
  349SOL    HW2 1413   1.687   3.983   3.250  0.4484  0.8455 -1.8883
  350SOL     OW 1414   6.096   5.679   4.904 -0.1311 -0.0789  0.7093
  350SOL    HW1 1415   6.007   5.649   4.924 -0.1563 -0.4850  0.0321
  350SOL    HW2 1416   6.085   5.770   4.877 -0.2059  0.1911  1.6488
  351SOL     OW 1417   1.570   2.997   4.971  0.3292 -0.7763 -0.0026
  351SOL    HW1 1418   1.579   3.092   4.982  1.9658 -1.0208  1.0799
  351SOL    HW2 1419   1.604   2.980   4.883 -0.7181 -0.2954 -0.5242
  352SOL     OW 1420   1.861   3.367   5.100  0.2353 -0.0477 -0.2074
  352SOL    HW1 1421   1.899   3.286   5.132 -1.7047 -0.6153  0.8491
  352SOL    HW2 1422   1.904   3.436   5.152  0.1314 -0.6258  0.6738
  353SOL     OW 1423   5.181   0.752   1.338 -0.0078 -0.0861 -0.2479
  353SOL    HW1 1424   5.144   0.808   1.406  0.4870  0.5512 -0.4909
  353SOL    HW2 1425   5.245   0.808   1.293 -0.6981 -0.3315 -1.5813
  354SOL     OW 1426   2.139   0.472   2.977  0.6552  0.5831  0.3994
  354SOL    HW1 1427   2.227   0.480   2.942  0.9413  1.2378  1.2287
  354SOL    HW2 1428   2.140   0.390   3.026  0.4565  0.0190 -0.5093
  355SOL     OW 1429   3.398   3.499   2.813 -0.6515 -0.4683  0.4212
  355SOL    HW1 1430   3.354   3.569   2.764 -2.0117 -1.7488 -0.2599
  355SOL    HW2 1431   3.408   3.535   2.901  0.1234  1.1689 -0.2799
  356SOL     OW 1432   2.203   5.287   2.837 -0.4270  0.5029  0.0489
  356SOL    HW1 1433   2.256   5.337   2.774  0.6430 -2.7534 -1.8952
  356SOL    HW2 1434   2.251   5.294   2.920 -0.0787  2.2521 -0.2722
  357SOL     OW 1435   4.693   5.149   1.828  0.0192  0.0638 -0.2685
  357SOL    HW1 1436   4.776   5.130   1.872 -0.5680  0.0000  0.8565
  357SOL    HW2 1437   4.645   5.205   1.890 -1.8415 -2.0203  0.3204
  358SOL     OW 1438   5.961   2.108   0.776  0.2839  0.0036  0.2275
  358SOL    HW1 1439   6.051   2.122   0.805  0.8078 -1.1993 -0.7495
  358SOL    HW2 1440   5.940   2.019   0.805 -0.7151  0.3922  0.7329
  359SOL     OW 1441   6.468   0.223   5.962  0.0259 -0.5478  0.2080
  359SOL    HW1 1442   6.408   0.159   5.999  0.5491 -0.4373  1.2714
  359SOL    HW2 1443   6.435   0.308   5.991  0.0417 -0.4139 -0.1589
  360SOL     OW 1444   0.278   1.416   3.490 -0.2493 -0.0565 -0.0266
  360SOL    HW1 1445   0.300   1.432   3.582 -1.5397 -0.0903  0.2957
  360SOL    HW2 1446   0.343   1.352   3.461  1.6904  1.6756  0.1601
  361SOL     OW 1447   4.867   6.790   6.132 -0.0647  0.4565  0.3106
  361SOL    HW1 1448   4.894   6.829   6.050 -1.0381  1.0125  0.2451
  361SOL    HW2 1449   4.944   6.799   6.189  0.9333 -0.7484 -0.7880
  362SOL     OW 1450   3.043   2.569   6.099  0.2746 -0.3480 -0.0517
  362SOL    HW1 1451   2.975   2.535   6.158  0.3037  0.1421  0.2667
  362SOL    HW2 1452   3.082   2.491   6.060  0.5643 -0.7070  0.9281
  363SOL     OW 1453   4.313   2.681   6.262 -0.0953 -0.8099 -0.1343
  363SOL    HW1 1454   4.266   2.759   6.291 -0.2344 -0.5658 -0.9735
  363SOL    HW2 1455   4.288   2.671   6.170  0.3644 -1.5209 -0.1934
  364SOL     OW 1456   4.488   3.049   2.562 -0.0612 -0.6451 -0.2973
  364SOL    HW1 1457   4.492   3.102   2.482 -0.4616  0.7068  0.5426
  364SOL    HW2 1458   4.432   2.975   2.540 -0.4760 -0.0896 -1.1546
  365SOL     OW 1459   1.664   1.711   1.089  0.5273  0.5143  0.8938
  365SOL    HW1 1460   1.627   1.701   1.002  0.2197 -2.4945  1.2481
  365SOL    HW2 1461   1.640   1.800   1.116 -1.5377  0.6456 -1.0742
  366SOL     OW 1462   1.620   2.611   1.472 -0.0817 -0.2301  0.2491
  366SOL    HW1 1463   1.540   2.657   1.443  0.0084 -0.3424 -0.1787
  366SOL    HW2 1464   1.645   2.657   1.553  0.7783  1.3932 -0.8777
  367SOL     OW 1465   5.724   5.118   4.756  0.2564  0.0006  0.3645
  367SOL    HW1 1466   5.628   5.117   4.749  0.0886  1.0139  2.1263
  367SOL    HW2 1467   5.750   5.029   4.731 -1.0149  0.0550 -1.3594
  368SOL     OW 1468   0.306   1.312   3.760  0.4775 -0.0223 -0.2474
  368SOL    HW1 1469   0.283   1.244   3.823 -0.4140  1.1295  0.7063
  368SOL    HW2 1470   0.278   1.394   3.801  1.4246  0.9248 -1.4132
  369SOL     OW 1471   3.125   6.323   2.410 -0.4343 -0.3466 -0.4801
  369SOL    HW1 1472   3.082   6.406   2.434  1.9543  0.8734 -0.1561
  369SOL    HW2 1473   3.089   6.259   2.471 -0.8729  0.8802  0.6052
  370SOL     OW 1474   0.404   2.638   6.323  0.2001 -0.8864  0.4243
  370SOL    HW1 1475   0.434   2.726   6.302 -1.3266 -0.3291  0.3844
  370SOL    HW2 1476   0.478   2.581   6.304  2.3082  0.6676  3.3070
  371SOL     OW 1477   2.236   5.748   3.341 -0.4682 -0.4092  0.3118
  371SOL    HW1 1478   2.218   5.841   3.348 -0.6695 -0.3962 -0.2646
  371SOL    HW2 1479   2.294   5.740   3.265 -1.2103 -0.8331 -0.2298
  372SOL     OW 1480   4.840   0.743   5.895  0.5161 -0.7507 -0.2250
  372SOL    HW1 1481   4.804   0.720   5.809  1.5999 -0.7757 -0.6769
  372SOL    HW2 1482   4.908   0.807   5.877  1.4376 -1.4955  0.5280
  373SOL     OW 1483   5.797   6.468   4.944  0.0992 -0.2056 -0.4232
  373SOL    HW1 1484   5.748   6.465   5.026  1.6561  0.9869  0.5938
  373SOL    HW2 1485   5.878   6.514   4.965  0.4615  0.3275 -2.6853
  374SOL     OW 1486   5.497   1.351   0.450  0.5766  0.0579 -0.0655
  374SOL    HW1 1487   5.517   1.286   0.383 -2.0743  0.8158 -1.7683
  374SOL    HW2 1488   5.435   1.307   0.508  0.1740  0.4954 -0.1618
  375SOL     OW 1489   4.586   2.404   2.271  0.0150 -0.4684  0.1534
  375SOL    HW1 1490   4.665   2.380   2.319  0.2677 -1.7197 -0.8326
  375SOL    HW2 1491   4.542   2.320   2.255 -0.5328  0.0137 -0.9547
  376SOL     OW 1492   5.872   4.311   2.307  0.2105 -0.2677  0.2282
  376SOL    HW1 1493   5.785   4.320   2.269 -0.2713 -1.1718  1.0813
  376SOL    HW2 1494   5.888   4.216   2.309  1.6520 -0.0932 -0.8528
  377SOL     OW 1495   4.337   4.259   3.008  0.2992 -0.0564 -0.2119
  377SOL    HW1 1496   4.326   4.164   3.018  0.2993 -0.2027 -1.4120
  377SOL    HW2 1497   4.412   4.280   3.064 -0.9228 -0.4120  1.6304
  378SOL     OW 1498   4.304   4.396   1.800 -1.0508 -0.0069  0.1728
  378SOL    HW1 1499   4.366   4.378   1.871  0.7183 -1.1675 -1.5525
  378SOL    HW2 1500   4.315   4.489   1.782 -0.4612 -0.0028  0.5135
  379SOL     OW 1501   3.096   0.751   0.332 -0.1986 -0.3779  0.0084
  379SOL    HW1 1502   3.155   0.685   0.368 -0.1751 -0.5132 -0.2828
  379SOL    HW2 1503   3.143   0.787   0.257 -0.5375 -0.5670 -0.2956
  380SOL     OW 1504   3.262   3.015   0.078 -0.2587  0.0671 -0.2823
  380SOL    HW1 1505   3.255   3.010  -0.017 -1.6276  4.6612 -0.6746
  380SOL    HW2 1506   3.354   3.034   0.095 -0.0005 -0.8288 -0.6549
  381SOL     OW 1507   2.086   6.738   1.177  0.1470 -0.8726  0.2186
  381SOL    HW1 1508   2.096   6.749   1.272  0.7402  0.4689  0.0187
  381SOL    HW2 1509   2.001   6.778   1.157  0.3762 -0.4516  0.0797
  382SOL     OW 1510   0.082   2.251   0.719 -1.2283  0.0368  0.4468
  382SOL    HW1 1511   0.177   2.241   0.725 -1.3052 -2.2392 -0.7130
  382SOL    HW2 1512   0.057   2.294   0.800  0.8320  1.1634  0.5574
  383SOL     OW 1513   1.833   2.619   1.944 -0.5312  0.9749 -0.1420
  383SOL    HW1 1514   1.885   2.579   2.014  0.6966  2.8243  0.0710
  383SOL    HW2 1515   1.783   2.687   1.988 -1.5617  0.6084 -0.7149
  384SOL     OW 1516   2.024   0.228   4.273 -0.1542  0.1229 -0.5390
  384SOL    HW1 1517   2.051   0.317   4.251 -0.2637  0.3810  0.3324
  384SOL    HW2 1518   1.928   0.233   4.278 -0.1766 -0.1008 -0.7187
  385SOL     OW 1519   5.669   6.758   0.908 -0.7089 -0.5543  0.0631
  385SOL    HW1 1520   5.589   6.801   0.936  0.2052 -0.8794  3.7331
  385SOL    HW2 1521   5.665   6.671   0.949  1.1740 -0.8115 -0.2056
  386SOL     OW 1522   6.717   2.448   6.569  0.1473  0.5098 -0.1701
  386SOL    HW1 1523   6.703   2.356   6.546  0.0935  0.1940  1.0443
  386SOL    HW2 1524   6.646   2.496   6.526 -0.3833 -0.1428 -0.0336
  387SOL     OW 1525   3.783   0.539   5.144 -0.5509 -0.7883  0.3868
  387SOL    HW1 1526   3.834   0.549   5.064 -1.3306  1.0751  0.0836
  387SOL    HW2 1527   3.771   0.444   5.153  1.5201 -1.1661 -0.4160
  388SOL     OW 1528   5.616   1.908   5.385  0.3538  0.2146 -0.3300
  388SOL    HW1 1529   5.664   1.839   5.432 -0.4557 -0.7270 -0.8383
  388SOL    HW2 1530   5.535   1.918   5.435 -0.4014 -0.6164 -1.3318
  389SOL     OW 1531   1.648   4.279   6.601 -0.2854  0.5737 -0.1853
  389SOL    HW1 1532   1.594   4.281   6.680 -2.4674 -0.2140 -1.5627
  389SOL    HW2 1533   1.688   4.366   6.597 -2.3771  1.6213  0.3274
  390SOL     OW 1534   1.158   4.762   5.005 -0.0925 -0.2612 -0.2540
  390SOL    HW1 1535   1.202   4.837   4.966  0.9776 -1.1129 -0.7548
  390SOL    HW2 1536   1.189   4.760   5.095  0.1790 -0.3139 -0.3463
  391SOL     OW 1537   4.857   2.600   1.164  0.0524 -0.1230 -0.6656
  391SOL    HW1 1538   4.774   2.592   1.212  0.4071  0.8821  0.1569
  391SOL    HW2 1539   4.831   2.595   1.072 -1.0926  1.1867 -0.4628
  392SOL     OW 1540   1.405   1.032   1.886  0.1527  0.1143  0.3517
  392SOL    HW1 1541   1.319   1.034   1.844 -0.4165 -0.8383  1.4413
  392SOL    HW2 1542   1.458   0.976   1.829 -0.0123  0.4795 -0.1718
  393SOL     OW 1543   3.872   5.763   3.117 -0.6219  0.5616 -0.0557
  393SOL    HW1 1544   3.967   5.767   3.129 -0.7135 -0.1700  1.0133
  393SOL    HW2 1545   3.852   5.670   3.106 -1.2337  0.6907 -0.0873
  394SOL     OW 1546   6.631   3.331   4.350  0.1649 -0.0337 -0.1256
  394SOL    HW1 1547   6.689   3.375   4.288 -0.2251 -0.5976 -0.9102
  394SOL    HW2 1548   6.566   3.397   4.373 -0.9570 -0.4062 -2.0012
  395SOL     OW 1549   4.292   4.325   5.407 -1.0170  0.4310  0.6026
  395SOL    HW1 1550   4.297   4.384   5.482 -1.6039  1.2463  0.0327
  395SOL    HW2 1551   4.216   4.356   5.358 -0.7215 -0.1628 -0.2539
  396SOL     OW 1552   0.186   1.372   2.411 -0.2346 -0.4271 -0.1930
  396SOL    HW1 1553   0.258   1.365   2.349  2.4702  0.7483  2.5757
  396SOL    HW2 1554   0.213   1.439   2.473 -3.8751  0.2832  0.9145
  397SOL     OW 1555   4.891   6.136   0.939 -0.2098 -0.1274 -0.3564
  397SOL    HW1 1556   4.932   6.209   0.893  2.2106 -1.1191  0.0750
  397SOL    HW2 1557   4.857   6.174   1.020  1.0550  0.5534 -0.1103
  398SOL     OW 1558   5.151   0.580   5.342 -0.1444  0.0304 -0.0037
  398SOL    HW1 1559   5.078   0.595   5.282 -0.2387 -0.7286 -0.0952
  398SOL    HW2 1560   5.162   0.485   5.342 -1.4823 -0.2291  2.7394
  399SOL     OW 1561   6.583   1.443   5.355 -0.1037  0.3848  0.6708
  399SOL    HW1 1562   6.584   1.531   5.392  0.4466  0.8146 -0.3369
  399SOL    HW2 1563   6.491   1.421   5.347 -0.2397  0.7638  1.1712
  400SOL     OW 1564   1.054   3.778   0.744  0.1713 -0.2663 -0.0286
  400SOL    HW1 1565   1.017   3.753   0.828  0.3070  2.0044  0.7822
  400SOL    HW2 1566   1.117   3.847   0.765 -0.5609  1.1268 -2.0358
  401SOL     OW 1567   6.466   1.968   0.191 -0.2511 -0.2305  0.3390
  401SOL    HW1 1568   6.370   1.978   0.193 -0.2674 -0.4426  0.7461
  401SOL    HW2 1569   6.483   1.896   0.251  0.1566 -0.2900  0.1527
  402SOL     OW 1570   3.178   2.663   4.694  0.1350 -0.1200 -0.0955
  402SOL    HW1 1571   3.085   2.648   4.710 -0.3108  0.0169 -2.2112
  402SOL    HW2 1572   3.187   2.758   4.687  0.8947  0.0380  2.3159
  403SOL     OW 1573   1.290   0.452   0.290 -0.2787  0.5238 -0.1870
  403SOL    HW1 1574   1.334   0.420   0.211  2.7361  0.9350  1.1650
  403SOL    HW2 1575   1.359   0.496   0.339 -1.5208 -1.2996  3.5607
  404SOL     OW 1576   1.199   6.538   4.108 -0.1877 -0.0006  0.3327
  404SOL    HW1 1577   1.254   6.504   4.179 -0.2749  0.7207  0.7573
  404SOL    HW2 1578   1.158   6.616   4.146  0.7476  1.1422 -0.9080
  405SOL     OW 1579   6.725   0.128   3.159 -0.0753 -0.4453 -0.5153
  405SOL    HW1 1580   6.680   0.135   3.074  0.8796 -0.5233 -1.0398
  405SOL    HW2 1581   6.814   0.102   3.136  0.5078  0.6380  0.4424
  406SOL     OW 1582   1.853   5.282   2.773  0.7773  0.1851  0.3101
  406SOL    HW1 1583   1.875   5.250   2.860 -0.8237 -0.9118  0.3460
  406SOL    HW2 1584   1.914   5.237   2.714  1.6460  0.6878  0.8105
  407SOL     OW 1585   2.124   5.920   5.371 -0.3710 -0.1840 -0.3816
  407SOL    HW1 1586   2.138   5.917   5.276  0.4309 -0.0745 -0.2750
  407SOL    HW2 1587   2.097   6.010   5.389  1.4719  0.3983 -0.2723
  408SOL     OW 1588   0.404   1.793   6.316  0.1491 -0.2458 -0.2709
  408SOL    HW1 1589   0.357   1.726   6.267 -1.3855 -1.1375  2.2410
  408SOL    HW2 1590   0.337   1.857   6.341  1.2521  1.2671 -0.9823
  409SOL     OW 1591   1.138   5.285   3.954  0.0070  0.3133 -0.7027
  409SOL    HW1 1592   1.129   5.255   3.864 -0.0409  0.8490 -0.8832
  409SOL    HW2 1593   1.168   5.376   3.946 -1.2285  0.7904 -0.2103
  410SOL     OW 1594   3.198   1.054   6.721  0.4288  0.4830 -0.5271
  410SOL    HW1 1595   3.219   0.970   6.680  0.3006  0.8822 -1.4103
  410SOL    HW2 1596   3.262   1.062   6.792 -0.4622 -1.0473  0.5275
  411SOL     OW 1597   6.791   0.515   0.565 -0.4318 -0.2434 -0.3166
  411SOL    HW1 1598   6.729   0.541   0.498 -0.2450  0.0564 -0.3728
  411SOL    HW2 1599   6.769   0.569   0.641 -0.2033 -0.0940 -0.3555
  412SOL     OW 1600   3.116   4.970   1.603 -0.3510  0.2520 -0.1689
  412SOL    HW1 1601   3.103   5.065   1.597 -2.9170  0.0207  0.4521
  412SOL    HW2 1602   3.164   4.957   1.685  0.2099  1.0040 -0.3660
  413SOL     OW 1603   1.639   3.065   0.216 -0.6769 -0.3016  0.1702
  413SOL    HW1 1604   1.595   3.129   0.272  0.6251 -0.7662  1.7952
  413SOL    HW2 1605   1.574   3.042   0.150 -1.6145  1.7048  0.3405
  414SOL     OW 1606   2.793   2.854   0.029 -0.5488  0.6233 -0.5846
  414SOL    HW1 1607   2.716   2.810  -0.008 -2.3173  2.8813  0.1741
  414SOL    HW2 1608   2.774   2.863   0.122  0.4526  1.5582 -0.4380
  415SOL     OW 1609   1.336   4.300   2.765 -0.5940  0.2940 -0.0984
  415SOL    HW1 1610   1.414   4.330   2.718  1.0215 -1.2143  1.4463
  415SOL    HW2 1611   1.271   4.369   2.752  1.8518  2.9031  0.7011
  416SOL     OW 1612   4.350   6.091   5.817 -0.4523  0.0782  0.2462
  416SOL    HW1 1613   4.303   6.032   5.876  1.1809 -0.5502  0.9716
  416SOL    HW2 1614   4.358   6.042   5.735  2.1493 -1.4225  1.2696
  417SOL     OW 1615   1.953   3.888   6.381  0.3031  0.2192 -0.4147
  417SOL    HW1 1616   1.858   3.890   6.384  0.2835 -0.9299  2.7083
  417SOL    HW2 1617   1.981   3.943   6.454  1.9078 -2.1075  0.8319
  418SOL     OW 1618   5.614   0.907   2.075 -0.1641  0.2894  0.0364
  418SOL    HW1 1619   5.559   0.912   2.153  0.4094  1.1456  0.4139
  418SOL    HW2 1620   5.639   0.998   2.058  0.6189 -0.0095 -0.4892
  419SOL     OW 1621   1.092   2.735   1.504 -0.2144  0.1069  0.0918
  419SOL    HW1 1622   1.080   2.689   1.421  0.0433 -0.8006  0.5413
  419SOL    HW2 1623   1.010   2.781   1.519 -0.5329 -0.3312 -0.3026
  420SOL     OW 1624   4.344   1.282   4.636 -0.1838 -0.0003 -0.2111
  420SOL    HW1 1625   4.394   1.347   4.586  1.5219 -0.2602  1.0799
  420SOL    HW2 1626   4.291   1.237   4.571  3.2680 -1.5640 -2.1660
  421SOL     OW 1627   6.562   4.862   1.925 -0.1357  0.2159  0.0966
  421SOL    HW1 1628   6.610   4.787   1.890 -1.3294 -0.5249 -0.0275
  421SOL    HW2 1629   6.577   4.858   2.019  0.7169  0.4880 -0.0244
  422SOL     OW 1630   3.013   4.667   1.096  0.1802  0.0152  0.2484
  422SOL    HW1 1631   3.091   4.712   1.066  0.1734  1.3082  2.0205
  422SOL    HW2 1632   3.014   4.677   1.191 -1.4059 -1.1744  0.4451
  423SOL     OW 1633   5.340   5.336   2.234 -0.5347  0.3554  0.1990
  423SOL    HW1 1634   5.293   5.256   2.209  2.7460 -1.8511  0.4631
  423SOL    HW2 1635   5.348   5.331   2.329  0.2154  0.6295  0.1598
  424SOL     OW 1636   4.840   6.468   2.338  0.0984 -0.3405  0.2026
  424SOL    HW1 1637   4.926   6.500   2.310 -0.2203  0.5140  0.1839
  424SOL    HW2 1638   4.793   6.450   2.257 -0.1911  0.4217  0.1973
  425SOL     OW 1639   1.198   3.792   5.892  0.3592 -0.2989 -0.1328
  425SOL    HW1 1640   1.222   3.884   5.883 -0.2922 -0.0809  0.3205
  425SOL    HW2 1641   1.177   3.781   5.985 -2.1639 -0.2422 -0.6161
  426SOL     OW 1642   0.657   2.485   0.149  0.2182  0.0423 -0.4370
  426SOL    HW1 1643   0.569   2.466   0.182  0.5162 -0.2142  0.2085
  426SOL    HW2 1644   0.657   2.581   0.138 -0.0468  0.0756 -0.1709
  427SOL     OW 1645   0.800   2.795   3.706 -0.5207 -0.4150 -0.3593
  427SOL    HW1 1646   0.716   2.775   3.665 -0.1137 -0.4230 -1.2091
  427SOL    HW2 1647   0.777   2.836   3.790 -1.3734 -0.0605 -0.7576
  428SOL     OW 1648   5.043   5.230   0.718  0.7508 -0.0981  0.2327
  428SOL    HW1 1649   5.119   5.221   0.776  0.4542 -0.7656  0.5278
  428SOL    HW2 1650   5.033   5.144   0.677  0.3754  0.0921 -0.0803
  429SOL     OW 1651   0.573   0.940   4.496  0.6003 -0.0133 -0.1046
  429SOL    HW1 1652   0.531   0.943   4.411  1.5164  0.5491 -0.5459
  429SOL    HW2 1653   0.667   0.946   4.478  0.7933  0.4952  0.9615
  430SOL     OW 1654   3.192   3.740   3.676  0.5133  0.3357 -0.3821
  430SOL    HW1 1655   3.220   3.826   3.706  2.2649 -0.2986 -0.0385
  430SOL    HW2 1656   3.258   3.714   3.611  0.7889 -1.2816  0.4851
  431SOL     OW 1657   6.007   2.715   0.997 -0.7830  0.2513 -0.2851
  431SOL    HW1 1658   5.941   2.735   1.064 -0.2851 -1.7305  0.8807
  431SOL    HW2 1659   5.996   2.622   0.980  0.6842  0.2245 -1.2307
  432SOL     OW 1660   0.472   6.066   2.557 -0.5872  0.0921 -0.3987
  432SOL    HW1 1661   0.485   6.098   2.646 -0.6418 -0.8393 -0.0445
  432SOL    HW2 1662   0.504   6.136   2.501  1.0033  0.0183  0.3795
  433SOL     OW 1663   5.740   3.436   5.170  0.4135  0.1758 -0.7218
  433SOL    HW1 1664   5.673   3.369   5.157 -1.7269  2.0179 -0.0735
  433SOL    HW2 1665   5.799   3.399   5.236 -0.6859 -1.0683 -0.3913
  434SOL     OW 1666   3.050   1.046   4.833 -0.7514 -0.0829 -0.1561
  434SOL    HW1 1667   3.122   1.007   4.783  0.5145  1.7654  0.1248
  434SOL    HW2 1668   2.981   1.060   4.768  0.3673  1.0613 -1.1545
  435SOL     OW 1669   6.400   4.533   6.735 -0.2132 -0.2905  0.1386
  435SOL    HW1 1670   6.411   4.525   6.829 -0.5613 -1.2800  0.1031
  435SOL    HW2 1671   6.305   4.535   6.722 -0.1784 -0.7913 -0.2305
  436SOL     OW 1672   6.056   1.998   0.006 -0.6092 -0.6732  0.6640
  436SOL    HW1 1673   6.079   1.913  -0.030  1.5287  0.1157  0.0667
  436SOL    HW2 1674   5.990   2.032  -0.054 -0.1318 -1.1250 -0.1317
  437SOL     OW 1675   2.937   3.287   4.133  0.0475 -0.2728  0.1792
  437SOL    HW1 1676   2.925   3.344   4.058  2.8063  1.0126  0.5986
  437SOL    HW2 1677   3.006   3.329   4.185  2.0526 -3.7869  0.6766
  438SOL     OW 1678   5.434   1.756   1.939 -0.7995 -0.2008  0.6486
  438SOL    HW1 1679   5.377   1.830   1.959 -1.5999 -0.3871 -0.8263
  438SOL    HW2 1680   5.375   1.681   1.935 -0.3577 -0.5191 -0.1768
  439SOL     OW 1681   3.124   4.555   2.422  0.7020 -0.3274  0.3157
  439SOL    HW1 1682   3.114   4.460   2.429  2.3230 -0.5339  0.2963
  439SOL    HW2 1683   3.180   4.578   2.496  0.3011  0.6295  0.3333
  440SOL     OW 1684   5.867   5.861   4.169  0.1805 -0.0005 -0.6624
  440SOL    HW1 1685   5.866   5.769   4.194 -1.4702 -0.3785 -1.9554
  440SOL    HW2 1686   5.776   5.890   4.180  0.0623  0.6717 -2.9561
  441SOL     OW 1687   6.197   5.465   6.131 -0.5273  0.0805 -0.7835
  441SOL    HW1 1688   6.195   5.485   6.224 -0.1065  0.8563 -0.9291
  441SOL    HW2 1689   6.220   5.548   6.089 -0.0770 -0.4026 -1.5263
  442SOL     OW 1690   1.319   0.057   6.744  0.0808  0.0695 -0.3201
  442SOL    HW1 1691   1.298   0.105   6.664 -0.9578 -0.7138 -0.5497
  442SOL    HW2 1692   1.234   0.026   6.776  0.4468  0.5922  1.2368
  443SOL     OW 1693   0.273   3.374   4.576  0.3136  0.0526  0.3803
  443SOL    HW1 1694   0.189   3.334   4.555  1.2807 -1.5383 -0.7056
  443SOL    HW2 1695   0.306   3.405   4.491  1.0806  0.1088  0.6921
  444SOL     OW 1696   5.375   0.772   6.008  0.4233 -0.2723  0.6224
  444SOL    HW1 1697   5.352   0.823   6.086  2.9693 -0.2134  1.4581
  444SOL    HW2 1698   5.471   0.770   6.009  0.4824 -2.6765 -0.9561
  445SOL     OW 1699   5.076   1.322   1.206  0.2940 -0.3823  0.2672
  445SOL    HW1 1700   5.125   1.267   1.144  0.1453 -2.3862  1.8380
  445SOL    HW2 1701   5.133   1.329   1.282 -0.3784  0.3082  0.7220
  446SOL     OW 1702   0.279   5.831   0.718 -0.1295 -0.4373 -0.0347
  446SOL    HW1 1703   0.288   5.735   0.722  1.2733 -0.3610 -0.6056
  446SOL    HW2 1704   0.252   5.848   0.628  0.3417 -0.2568 -0.1433
  447SOL     OW 1705   5.215   6.300   4.393  0.2208  0.3511 -0.0297
  447SOL    HW1 1706   5.177   6.260   4.315  1.0327 -0.1123 -0.1952
  447SOL    HW2 1707   5.263   6.376   4.361 -2.7161  2.6059  0.4408
  448SOL     OW 1708   1.034   4.777   1.099 -0.1035 -0.2503 -0.0976
  448SOL    HW1 1709   0.981   4.698   1.108  0.1245 -0.6622 -1.9710
  448SOL    HW2 1710   1.117   4.755   1.141  1.2573 -2.3829 -3.4502
  449SOL     OW 1711   4.373   1.839   4.523  0.4574  0.2626  0.5817
  449SOL    HW1 1712   4.376   1.879   4.610 -1.6760  1.2722  0.2583
  449SOL    HW2 1713   4.293   1.873   4.484  0.1988 -1.8937 -0.9614
  450SOL     OW 1714   2.911   0.462   1.758 -0.3663  0.1881 -0.1788
  450SOL    HW1 1715   2.907   0.425   1.670  1.2008  0.5694 -0.4417
  450SOL    HW2 1716   2.934   0.554   1.744  1.3147 -0.0634  0.6511
  451SOL     OW 1717   1.510   1.270   6.284 -0.5766 -0.0193 -0.5555
  451SOL    HW1 1718   1.541   1.230   6.202  0.6400 -0.9883  0.3209
  451SOL    HW2 1719   1.502   1.363   6.264  1.5450  0.0645 -1.2933
  452SOL     OW 1720   2.027   0.336   2.531  0.2448 -0.7329 -0.0421
  452SOL    HW1 1721   2.021   0.245   2.502  0.1009  0.0665 -2.9019
  452SOL    HW2 1722   2.120   0.359   2.520  0.1732 -0.3794  0.0733
  453SOL     OW 1723   0.442   0.353   6.407 -0.0303  0.4093 -0.7486
  453SOL    HW1 1724   0.390   0.305   6.471  1.3712 -0.9990 -0.6207
  453SOL    HW2 1725   0.380   0.377   6.338 -0.9503 -0.7786 -0.3611
  454SOL     OW 1726   0.059   6.114   5.861 -0.0135  0.0161 -0.0890
  454SOL    HW1 1727   0.144   6.135   5.900  0.2359 -1.2843  0.1106
  454SOL    HW2 1728   0.009   6.076   5.933 -0.1208 -0.8922 -0.6297
  455SOL     OW 1729   1.005   3.648   5.654 -0.0959 -0.2003  0.0010
  455SOL    HW1 1730   1.080   3.613   5.606  0.0596  0.5351 -0.3055
  455SOL    HW2 1731   1.032   3.647   5.746  0.9715  1.6839 -0.2627
  456SOL     OW 1732   1.601   1.973   1.170 -0.5303 -0.1854 -0.6455
  456SOL    HW1 1733   1.561   2.020   1.242  0.7450  0.9390 -0.6428
  456SOL    HW2 1734   1.622   2.040   1.105 -0.1412 -0.9556 -1.3477
  457SOL     OW 1735   2.884   3.283   4.450 -0.0287 -0.2837 -0.6398
  457SOL    HW1 1736   2.951   3.219   4.427  0.3967  0.2742 -0.9831
  457SOL    HW2 1737   2.816   3.272   4.384  0.1336 -0.2520 -0.8123
  458SOL     OW 1738   5.008   2.993   6.746  0.1907  0.1785 -0.1667
  458SOL    HW1 1739   4.927   2.970   6.791 -0.5733  1.6858 -0.7136
  458SOL    HW2 1740   5.075   2.986   6.813 -0.5157 -0.2572  0.5146
  459SOL     OW 1741   1.397   1.244   5.289  0.3087 -0.4053  0.4460
  459SOL    HW1 1742   1.311   1.280   5.312 -0.7102 -2.4180  0.0951
  459SOL    HW2 1743   1.459   1.290   5.345 -0.6806  2.6012 -0.7428
  460SOL     OW 1744   1.965   1.577   4.470 -0.3950 -0.4875 -0.3998
  460SOL    HW1 1745   1.942   1.608   4.557  0.5372  1.2451 -0.7321
  460SOL    HW2 1746   2.058   1.555   4.475 -0.5802 -1.3813 -0.6981
  461SOL     OW 1747   2.219   6.452   3.974 -0.2531 -0.0282 -0.2569
  461SOL    HW1 1748   2.151   6.491   3.920  0.0364 -0.4566 -0.9380
  461SOL    HW2 1749   2.202   6.358   3.972  2.2556 -0.5902 -3.2424
  462SOL     OW 1750   3.258   3.503   0.440 -0.2083  0.3720 -0.0709
  462SOL    HW1 1751   3.324   3.450   0.395 -0.2653  1.3836 -1.4286
  462SOL    HW2 1752   3.234   3.452   0.517  1.7850 -0.2436  0.1851
  463SOL     OW 1753   3.685   2.063   5.920  0.1205 -0.8500 -0.1620
  463SOL    HW1 1754   3.624   2.080   5.849  0.9773  0.0595 -0.6958
  463SOL    HW2 1755   3.761   2.024   5.878  0.2697 -1.1552  0.3784
  464SOL     OW 1756   4.984   5.438   5.242 -0.1074 -0.1894 -0.2719
  464SOL    HW1 1757   4.919   5.507   5.253  0.9014  0.6548  0.6266
  464SOL    HW2 1758   4.978   5.414   5.150 -1.6582 -0.1116 -0.2060
  465SOL     OW 1759   4.720   0.793   1.452  0.4689 -0.3110  0.4036
  465SOL    HW1 1760   4.656   0.749   1.395 -0.5550  0.4550  0.9409
  465SOL    HW2 1761   4.730   0.880   1.414  2.2441 -0.8468 -0.4609
  466SOL     OW 1762   0.890   5.334   2.475 -0.4908 -0.0315  0.1926
  466SOL    HW1 1763   0.846   5.399   2.531 -0.7300  0.8706 -1.0131
  466SOL    HW2 1764   0.941   5.281   2.537 -0.2365  1.3419  1.2171
  467SOL     OW 1765   6.517   4.245   5.930 -0.2431 -0.0018 -0.2023
  467SOL    HW1 1766   6.571   4.283   5.861  0.0092 -0.0771 -0.0470
  467SOL    HW2 1767   6.537   4.297   6.008  0.0343 -0.3937 -0.0119
  468SOL     OW 1768   3.755   1.821   0.621 -0.5010  0.7117  0.0822
  468SOL    HW1 1769   3.730   1.745   0.568 -0.4335  0.8501 -0.1546
  468SOL    HW2 1770   3.818   1.869   0.565 -1.2475  1.4328 -0.1600
  469SOL     OW 1771   4.211   0.415   4.556 -0.4477 -0.6419 -0.5137
  469SOL    HW1 1772   4.267   0.414   4.633  0.0786  1.9877 -0.7481
  469SOL    HW2 1773   4.179   0.325   4.547  1.1122 -1.4666  1.5321
  470SOL     OW 1774   4.985   4.213   5.599  0.1265 -0.2456  0.3305
  470SOL    HW1 1775   4.897   4.208   5.637  0.2599  0.7841  0.8245
  470SOL    HW2 1776   5.043   4.187   5.671  0.3393  1.0888  0.6687
  471SOL     OW 1777   4.894   6.541   5.179 -0.2437  0.9449  0.4738
  471SOL    HW1 1778   4.860   6.454   5.160  0.5826  1.1142 -2.1250
  471SOL    HW2 1779   4.986   6.526   5.203 -0.0035  1.0993 -0.3179
  472SOL     OW 1780   1.553   3.528   2.746  0.5632  0.4233 -0.2422
  472SOL    HW1 1781   1.519   3.440   2.730 -2.0275  1.3505 -0.2955
  472SOL    HW2 1782   1.476   3.580   2.767  2.2363  2.2392  2.0249
  473SOL     OW 1783   4.207   4.199   0.587 -0.2640 -0.1700  0.1370
  473SOL    HW1 1784   4.284   4.181   0.532  0.7176  3.8252 -0.1323
  473SOL    HW2 1785   4.167   4.113   0.602  1.9370 -1.9690 -3.0950
  474SOL     OW 1786   1.374   0.977   5.378 -0.1277  0.0433  0.3274
  474SOL    HW1 1787   1.456   0.934   5.402 -0.9557 -0.7368  1.9325
  474SOL    HW2 1788   1.401   1.059   5.337  1.4593 -0.8884 -0.5664
  475SOL     OW 1789   2.321   2.931   0.446  0.3425  0.2579 -0.1343
  475SOL    HW1 1790   2.379   2.961   0.515  0.1713  1.1943 -0.3808
  475SOL    HW2 1791   2.334   2.836   0.442  0.8719  0.2927  0.6956
  476SOL     OW 1792   5.333   3.461   0.622 -0.2730 -0.0482 -0.3058
  476SOL    HW1 1793   5.352   3.553   0.639  1.1401 -0.1689 -1.1108
  476SOL    HW2 1794   5.250   3.445   0.669  0.9421  0.8329  2.3603
  477SOL     OW 1795   5.169   0.277   4.590  0.0736 -0.2251 -0.7244
  477SOL    HW1 1796   5.148   0.217   4.661 -1.3607  0.0370 -0.9097
  477SOL    HW2 1797   5.116   0.247   4.517 -1.5220  1.8783 -0.5090
  478SOL     OW 1798   0.279   1.024   3.857  0.2567  0.0649  0.2780
  478SOL    HW1 1799   0.348   0.984   3.910  0.6557 -0.3274 -0.5224
  478SOL    HW2 1800   0.273   0.969   3.779  0.4484  1.2437 -0.6040
  479SOL     OW 1801   4.110   2.391   3.630 -0.6151  0.5676 -0.0942
  479SOL    HW1 1802   4.074   2.407   3.717 -0.2257 -1.6793  0.5521
  479SOL    HW2 1803   4.177   2.459   3.619 -0.4651  0.7217  1.4985
  480SOL     OW 1804   6.373   0.352   2.094 -0.0785  0.4710  0.2139
  480SOL    HW1 1805   6.295   0.337   2.041  1.3750  0.1292 -1.9440
  480SOL    HW2 1806   6.412   0.432   2.058  1.7504 -0.6032 -0.3130
  481SOL     OW 1807   1.702   0.183   5.324  0.2770  0.3123  0.2480
  481SOL    HW1 1808   1.717   0.171   5.230 -0.1298 -0.8656  0.3193
  481SOL    HW2 1809   1.719   0.097   5.362 -0.8387  0.4473  1.0912
  482SOL     OW 1810   0.836   3.265   0.727 -0.2139  0.4678  0.7102
  482SOL    HW1 1811   0.899   3.208   0.772  0.1786  0.5061  0.2229
  482SOL    HW2 1812   0.823   3.338   0.787 -1.4263 -0.5620  1.7546
  483SOL     OW 1813   6.529   4.275   6.465 -0.3896 -0.2324  0.1483
  483SOL    HW1 1814   6.575   4.236   6.540  1.4869  2.0360  0.3128
  483SOL    HW2 1815   6.557   4.223   6.390 -0.1156 -0.8891  0.6977
  484SOL     OW 1816   0.082   2.419   5.155 -0.2596 -0.6164  0.4427
  484SOL    HW1 1817   0.148   2.412   5.086 -1.0415  0.5224 -0.4469
  484SOL    HW2 1818   0.093   2.508   5.190 -1.3936 -0.3590  0.1917
  485SOL     OW 1819   4.417   1.234   2.512  0.0424  0.1495 -0.0346
  485SOL    HW1 1820   4.407   1.277   2.597  0.7343 -0.5139  0.3972
  485SOL    HW2 1821   4.339   1.259   2.463 -0.8204 -0.1640  1.1123
  486SOL     OW 1822   6.743   5.482   5.106  0.2751  0.1344  0.4879
  486SOL    HW1 1823   6.693   5.403   5.087 -2.3789  1.2601  2.1382
  486SOL    HW2 1824   6.778   5.468   5.194 -1.0209  1.0969  1.1903
  487SOL     OW 1825   5.575   6.178   5.897  0.3520 -0.3858 -0.4786
  487SOL    HW1 1826   5.538   6.206   5.981 -0.5134 -1.3423 -0.5237
  487SOL    HW2 1827   5.585   6.259   5.848 -0.6172  0.0343 -0.0250
  488SOL     OW 1828   5.582   2.593   3.580  0.7054  0.1713  0.4972
  488SOL    HW1 1829   5.490   2.565   3.584  0.6290  0.2895 -0.2191
  488SOL    HW2 1830   5.580   2.686   3.603  0.5772  0.2892  0.0313
  489SOL     OW 1831   3.964   5.179   1.731  0.7917  0.1803  0.3336
  489SOL    HW1 1832   3.914   5.247   1.776 -0.4310 -0.8773  0.6263
  489SOL    HW2 1833   3.974   5.211   1.642 -0.8094  0.2285  0.1477
  490SOL     OW 1834   2.530   0.848   2.932  0.2428  0.5187 -0.1451
  490SOL    HW1 1835   2.490   0.766   2.905  0.6607  0.5737 -0.9642
  490SOL    HW2 1836   2.614   0.822   2.971  0.0641  0.5133  0.2468
  491SOL     OW 1837   3.428   6.240   4.884  0.0226  0.8028  0.4300
  491SOL    HW1 1838   3.425   6.158   4.835 -0.2744  0.0712  1.6317
  491SOL    HW2 1839   3.521   6.259   4.893  0.2303 -0.8820  2.4786
  492SOL     OW 1840   1.105   5.929   5.091 -0.0557 -0.3572 -0.5117
  492SOL    HW1 1841   1.178   5.899   5.145 -0.9655  0.8778  1.5546
  492SOL    HW2 1842   1.086   5.856   5.033  1.9255 -1.2114 -0.1787
  493SOL     OW 1843   0.879   3.479   2.507 -0.0431  0.1182 -0.6324
  493SOL    HW1 1844   0.878   3.408   2.443  1.0869 -2.7543  2.2558
  493SOL    HW2 1845   0.787   3.492   2.530 -0.1852 -1.4008 -0.2451
  494SOL     OW 1846   4.755   3.625   3.464  0.2056  0.2675  0.6508
  494SOL    HW1 1847   4.818   3.673   3.519 -1.3565  0.8913  1.9908
  494SOL    HW2 1848   4.808   3.589   3.393  1.8914  1.7008  1.0938
  495SOL     OW 1849   0.096   4.308   5.541 -0.3391 -0.1238  1.0830
  495SOL    HW1 1850   0.165   4.332   5.478  0.4495  1.1332  2.3688
  495SOL    HW2 1851   0.142   4.261   5.610 -1.3155 -2.1593  0.4490
  496SOL     OW 1852   5.240   3.585   5.173 -0.1987  0.0603 -0.1203
  496SOL    HW1 1853   5.330   3.613   5.194 -0.6099  0.7726  0.7554
  496SOL    HW2 1854   5.215   3.641   5.099  0.2306 -0.4467 -0.6558
  497SOL     OW 1855   0.607   1.090   5.591  0.0800 -0.0697 -0.0953
  497SOL    HW1 1856   0.583   1.119   5.503 -0.2731 -2.1197 -0.7219
  497SOL    HW2 1857   0.523   1.065   5.631  0.4230 -0.7907  0.1847
  498SOL     OW 1858   5.353   6.514   1.397  0.0546 -0.6435  0.2765
  498SOL    HW1 1859   5.287   6.557   1.343  2.2660  1.1801 -1.1856
  498SOL    HW2 1860   5.346   6.421   1.373 -1.5455 -0.4240 -0.2664
  499SOL     OW 1861   5.508   0.270   6.569  0.1398  0.0508 -0.3968
  499SOL    HW1 1862   5.559   0.220   6.633  3.9350  2.4836 -1.2033
  499SOL    HW2 1863   5.499   0.356   6.609  2.2610  1.5037 -2.7786
  500SOL     OW 1864   2.669   5.777   2.828  0.4205 -0.0391  0.3223
  500SOL    HW1 1865   2.691   5.870   2.820 -0.4811  0.1550 -0.0302
  500SOL    HW2 1866   2.590   5.766   2.775  1.3197 -1.3200 -0.8305
  501SOL     OW 1867   0.959   2.135   0.399 -0.5387  0.1768 -0.7338
  501SOL    HW1 1868   1.049   2.149   0.428 -0.5401 -2.3811  0.8458
  501SOL    HW2 1869   0.967   2.105   0.309  0.0077  1.7540 -1.2388
  502SOL     OW 1870   6.271   1.249   4.080 -0.4816 -0.2688 -0.0366
  502SOL    HW1 1871   6.191   1.236   4.131  0.7325  1.7237  2.6248
  502SOL    HW2 1872   6.311   1.162   4.076 -1.5889 -0.8361  0.6730
  503SOL     OW 1873   6.069   0.944   6.572 -0.3375  0.4443 -0.2445
  503SOL    HW1 1874   6.062   0.987   6.658 -1.4207 -0.7246  0.2834
  503SOL    HW2 1875   6.161   0.950   6.550 -0.4401  3.1070 -0.2526
  504SOL     OW 1876   3.469   0.988   5.318  0.3759  0.2117 -0.1362
  504SOL    HW1 1877   3.453   0.961   5.408  1.2285 -1.8489 -0.5505
  504SOL    HW2 1878   3.564   0.997   5.311  0.3147  0.4140 -0.8116
  505SOL     OW 1879   4.005   0.816   1.340  0.0773 -0.3022  0.7399
  505SOL    HW1 1880   4.031   0.907   1.332  0.2842 -0.2507  1.8445
  505SOL    HW2 1881   3.955   0.812   1.421 -1.3437 -0.8650 -0.1187
  506SOL     OW 1882   4.634   4.757   6.007 -0.2410  0.0641  0.5197
  506SOL    HW1 1883   4.598   4.767   6.095  1.6794 -0.2928  1.3975
  506SOL    HW2 1884   4.723   4.724   6.021 -0.6504 -2.2925 -1.6177
  507SOL     OW 1885   1.506   3.921   0.135 -0.0771  0.5907  0.3383
  507SOL    HW1 1886   1.527   3.885   0.049 -0.1378  0.9017  0.1929
  507SOL    HW2 1887   1.465   4.005   0.117  0.3853  0.8962  0.6880
  508SOL     OW 1888   4.851   6.008   5.935 -0.0784  0.4889 -0.1808
  508SOL    HW1 1889   4.816   6.082   5.885  0.1704  0.5964 -0.1951
  508SOL    HW2 1890   4.779   5.982   5.993 -0.2874  0.5127 -0.4283
  509SOL     OW 1891   1.789   0.847   0.423  0.1476 -0.4446  0.0242
  509SOL    HW1 1892   1.768   0.754   0.424 -1.8558 -0.0479  0.7831
  509SOL    HW2 1893   1.782   0.873   0.332 -1.0953 -0.7007  0.0330
  510SOL     OW 1894   2.366   3.580   5.555  0.6474 -0.6569  0.4207
  510SOL    HW1 1895   2.378   3.646   5.624  0.0571  0.9382 -0.9488
  510SOL    HW2 1896   2.455   3.552   5.533  0.8757 -0.6925  1.3482
  511SOL     OW 1897   1.016   6.565   6.604  1.0470  0.2293  0.1131
  511SOL    HW1 1898   1.048   6.509   6.534 -2.0733 -1.4805 -0.1749
  511SOL    HW2 1899   0.993   6.504   6.674  0.3052  1.4651  0.9877
  512SOL     OW 1900   2.498   5.969   3.543 -0.5552  0.6104  0.2219
  512SOL    HW1 1901   2.519   5.954   3.451 -1.4288  1.6148 -0.1575
  512SOL    HW2 1902   2.571   5.929   3.591  0.2805  0.7140 -0.9218
  513SOL     OW 1903   4.365   2.171   4.448 -0.0093 -0.8050  0.6332
  513SOL    HW1 1904   4.426   2.129   4.508  3.0521 -2.8157 -3.3704
  513SOL    HW2 1905   4.421   2.213   4.382 -3.0235  0.7831 -1.1410
  514SOL     OW 1906   5.757   0.295   0.093 -0.1734 -0.5034 -0.4977
  514SOL    HW1 1907   5.823   0.278   0.026 -1.1037  0.3312 -1.6607
  514SOL    HW2 1908   5.677   0.256   0.058 -0.8265  0.5167 -0.1843
  515SOL     OW 1909   2.618   5.459   6.683  0.2208  0.2407  0.3794
  515SOL    HW1 1910   2.561   5.484   6.756 -0.3987  0.4730 -0.1756
  515SOL    HW2 1911   2.606   5.529   6.618  1.4512  0.5197  0.4120
  516SOL     OW 1912   2.798   1.048   3.993 -0.6997 -0.1859 -0.3564
  516SOL    HW1 1913   2.713   1.053   4.037 -1.1802  0.3356 -1.2957
  516SOL    HW2 1914   2.813   1.137   3.960  0.1951 -0.2844 -0.2382
  517SOL     OW 1915   5.643   5.855   2.477  0.4902  0.0305  0.0844
  517SOL    HW1 1916   5.738   5.867   2.472  0.7211 -0.7583  1.8171
  517SOL    HW2 1917   5.630   5.762   2.463 -0.2143  0.3872 -1.8265
  518SOL     OW 1918   0.942   4.758   4.819 -0.2168 -0.1458 -0.6416
  518SOL    HW1 1919   1.014   4.760   4.882  0.3992  0.6474 -1.3423
  518SOL    HW2 1920   0.957   4.677   4.769 -1.0594 -1.1031  0.5834
  519SOL     OW 1921   5.312   1.908   0.484  0.2024 -0.0718  0.0370
  519SOL    HW1 1922   5.354   1.881   0.566  0.1880 -0.2974 -0.0273
  519SOL    HW2 1923   5.218   1.901   0.502  0.1812  0.8728  0.3246
  520SOL     OW 1924   0.236   2.495   4.721 -0.0905 -0.2981  0.6698
  520SOL    HW1 1925   0.327   2.522   4.709 -0.2600  0.3293  0.7684
  520SOL    HW2 1926   0.239   2.399   4.722  0.4759 -0.2915 -0.0235
  521SOL     OW 1927   2.326   0.916   5.301 -0.3208 -0.1830  0.2454
  521SOL    HW1 1928   2.373   0.998   5.319  1.2516 -0.7775 -0.8987
  521SOL    HW2 1929   2.354   0.856   5.370 -1.6740  0.2872  1.2356
  522SOL     OW 1930   4.220   3.443   6.071  0.7483 -0.3212 -0.2176
  522SOL    HW1 1931   4.153   3.452   6.004  1.5386  2.1053 -0.7510
  522SOL    HW2 1932   4.228   3.529   6.110  2.6747 -0.8503  0.6997
  523SOL     OW 1933   4.571   3.928   2.822 -0.0545 -0.2225  0.3502
  523SOL    HW1 1934   4.522   3.922   2.904 -0.4331  1.4593  0.2834
  523SOL    HW2 1935   4.520   3.990   2.769  1.4361  0.5427 -0.2336
  524SOL     OW 1936   2.600   4.205   1.000  0.2403 -0.0752  0.2877
  524SOL    HW1 1937   2.532   4.152   0.959 -1.0127  1.2323  0.5837
  524SOL    HW2 1938   2.581   4.294   0.972  1.7291  0.3481  0.5490
  525SOL     OW 1939   0.944   3.594   0.588 -0.0140  0.4046  0.2895
  525SOL    HW1 1940   0.850   3.606   0.571  0.0731  1.1765  0.3134
  525SOL    HW2 1941   0.967   3.666   0.647  0.3722 -0.3974  1.1473
  526SOL     OW 1942   5.601   0.931   1.798 -0.0531 -0.4740 -0.0570
  526SOL    HW1 1943   5.691   0.897   1.799  0.5831  1.0719 -0.8084
  526SOL    HW2 1944   5.562   0.898   1.879  0.5799 -2.6840 -0.5987
  527SOL     OW 1945   5.609   2.170   6.583  0.4466  0.3503  0.7228
  527SOL    HW1 1946   5.574   2.240   6.528  1.7990  0.7588  0.3258
  527SOL    HW2 1947   5.589   2.198   6.672  0.5285  1.0098  0.5416
  528SOL     OW 1948   4.454   2.795   1.705 -0.3757  0.2137  0.2365
  528SOL    HW1 1949   4.527   2.771   1.648 -0.8675  0.4324 -0.4994
  528SOL    HW2 1950   4.480   2.879   1.744  0.0134  0.0028  0.4410
  529SOL     OW 1951   4.692   6.082   0.582  0.2384  0.6285  0.7193
  529SOL    HW1 1952   4.733   6.136   0.650  0.9440  2.2392 -0.8826
  529SOL    HW2 1953   4.762   6.024   0.553 -0.0046  0.0835  1.2025
  530SOL     OW 1954   5.440   1.537   2.548  0.1453  0.0114  0.4043
  530SOL    HW1 1955   5.381   1.469   2.578  1.5824 -0.5527  2.1442
  530SOL    HW2 1956   5.454   1.593   2.624  0.0365  1.5198 -0.6222
  531SOL     OW 1957   5.718   4.587   3.681 -0.7596  0.1081 -0.4042
  531SOL    HW1 1958   5.754   4.669   3.717 -0.1915 -0.8908  1.4183
  531SOL    HW2 1959   5.740   4.591   3.588 -0.2103  1.7526 -0.2483
  532SOL     OW 1960   0.014   4.470   6.208 -0.0218  0.1040 -0.1343
  532SOL    HW1 1961  -0.050   4.539   6.191 -1.3456 -0.9340  0.4932
  532SOL    HW2 1962   0.046   4.489   6.296 -1.0075 -0.5316  0.3775
  533SOL     OW 1963   1.241   5.785   4.126  0.0927  0.2081 -0.4573
  533SOL    HW1 1964   1.219   5.698   4.091 -0.7300  0.5314 -0.7767
  533SOL    HW2 1965   1.256   5.839   4.048 -0.0261  0.5044 -0.2770
  534SOL     OW 1966   0.746   3.899   5.435  0.2037  0.4433 -0.1616
  534SOL    HW1 1967   0.784   3.933   5.516 -0.4799  0.4372  0.1657
  534SOL    HW2 1968   0.706   3.975   5.392 -0.4701  0.2418  0.0933
  535SOL     OW 1969   2.357   1.635   2.529 -0.4140 -0.0652  0.4634
  535SOL    HW1 1970   2.277   1.665   2.487 -1.1037 -1.9377  0.3622
  535SOL    HW2 1971   2.416   1.711   2.525 -2.4373  1.6166  1.3240
  536SOL     OW 1972   1.143   2.317   0.217 -0.0399 -0.5771  0.1858
  536SOL    HW1 1973   1.079   2.380   0.251  2.7657  2.3817  0.5061
  536SOL    HW2 1974   1.174   2.269   0.294  1.3205  1.2517  0.8546
  537SOL     OW 1975   1.926   4.356   4.335  0.3845  0.0628  0.2131
  537SOL    HW1 1976   1.918   4.269   4.295 -2.3056 -0.0397  0.7797
  537SOL    HW2 1977   1.938   4.338   4.428  0.1290  0.2765  0.2888
  538SOL     OW 1978   1.646   0.381   5.759  0.0903 -0.3526 -0.2399
  538SOL    HW1 1979   1.708   0.310   5.774 -0.3806 -0.9452 -0.9909
  538SOL    HW2 1980   1.597   0.354   5.682 -0.5260  0.5030 -0.1676
  539SOL     OW 1981   3.418   1.681   3.092 -0.5639  0.5092  0.3613
  539SOL    HW1 1982   3.476   1.666   3.167 -1.3478  0.1738  0.9121
  539SOL    HW2 1983   3.386   1.771   3.104 -0.5956  0.4981  0.3593
  540SOL     OW 1984   3.430   5.453   2.865 -0.1151 -0.0988 -0.2053
  540SOL    HW1 1985   3.397   5.486   2.949 -0.5214  0.4452 -0.5728
  540SOL    HW2 1986   3.435   5.530   2.809 -2.3285 -0.8150 -1.4935
  541SOL     OW 1987   1.694   2.761   5.579 -0.0276 -0.0458 -0.6300
  541SOL    HW1 1988   1.767   2.702   5.600  0.9683  0.4711 -2.4197
  541SOL    HW2 1989   1.642   2.713   5.515 -0.4100  0.2135 -0.5171
  542SOL     OW 1990   6.256   1.184   2.900 -0.6322  0.9199 -0.1919
  542SOL    HW1 1991   6.217   1.110   2.853  0.4314  0.2609 -0.0722
  542SOL    HW2 1992   6.219   1.178   2.988  0.8872 -0.6681  0.3959
  543SOL     OW 1993   0.859   0.153   1.386 -0.4772  0.1643  0.3484
  543SOL    HW1 1994   0.903   0.173   1.304 -0.0370 -0.1882  0.4942
  543SOL    HW2 1995   0.782   0.102   1.360 -1.3730  1.6478  0.0109
  544SOL     OW 1996   4.699   4.385   1.560  0.4563  0.0213  0.1113
  544SOL    HW1 1997   4.716   4.414   1.471  2.9506 -0.5185  0.3414
  544SOL    HW2 1998   4.702   4.290   1.556 -0.2879 -0.0393  0.6437
  545SOL     OW 1999   4.232   3.120   0.879 -0.2381  0.0016  0.2938
  545SOL    HW1 2000   4.205   3.046   0.934 -1.5715 -1.4256 -2.1235
  545SOL    HW2 2001   4.320   3.141   0.910  0.1220 -2.4761  1.2222
  546SOL     OW 2002   3.606   6.242   1.614  0.1128  0.6361  0.1086
  546SOL    HW1 2003   3.686   6.278   1.575 -0.0181  1.1579  0.3077
  546SOL    HW2 2004   3.536   6.280   1.561 -0.0017  0.1429 -0.0943
  547SOL     OW 2005   5.102   0.127   4.801  0.8027 -0.5009 -0.3000
  547SOL    HW1 2006   5.134   0.145   4.889  0.7585 -1.2676 -0.1249
  547SOL    HW2 2007   5.024   0.073   4.814  0.4738 -0.1593 -0.7929
  548SOL     OW 2008   0.921   5.529   1.275  0.0346  0.7180  0.5444
  548SOL    HW1 2009   0.976   5.540   1.197  0.1687  2.0547  0.8011
  548SOL    HW2 2010   0.886   5.617   1.292  0.6739  0.6344  2.4830
  549SOL     OW 2011   5.098   5.484   4.281  0.4997 -0.2756  0.3359
  549SOL    HW1 2012   5.125   5.485   4.373  0.3787  0.3677  0.3671
  549SOL    HW2 2013   5.179   5.465   4.233  0.3178 -2.0465  0.6407
  550SOL     OW 2014   4.588   4.739   6.291  0.2389 -0.0244  0.4736
  550SOL    HW1 2015   4.683   4.728   6.283  0.3909  1.1267  0.4485
  550SOL    HW2 2016   4.577   4.831   6.315 -0.9182  0.0908 -0.4259
  551SOL     OW 2017   5.979   2.913   6.712 -0.6500 -0.1581 -0.1568
  551SOL    HW1 2018   5.974   2.923   6.617 -0.1031  1.1178 -0.0636
  551SOL    HW2 2019   6.058   2.961   6.737 -0.1218 -1.4764  0.8188
  552SOL     OW 2020   3.221   5.756   6.668 -0.3173  0.5022 -0.1184
  552SOL    HW1 2021   3.278   5.712   6.732 -1.6039 -2.9824 -1.1706
  552SOL    HW2 2022   3.282   5.800   6.608  1.0225  0.9189  1.4601
  553SOL     OW 2023   3.975   3.829   6.328 -0.3346 -0.1023  0.2785
  553SOL    HW1 2024   4.012   3.904   6.377 -3.0309  2.1092 -0.8278
  553SOL    HW2 2025   3.996   3.848   6.237 -0.5207 -1.0298  0.0401
  554SOL     OW 2026   1.725   6.202   4.542  0.1914  0.4475 -0.0174
  554SOL    HW1 2027   1.695   6.113   4.524 -1.9400  0.2024  3.8302
  554SOL    HW2 2028   1.804   6.191   4.595  1.0117  0.9422 -1.0981
  555SOL     OW 2029   2.248   0.699   1.482 -0.3003 -0.1227 -0.0907
  555SOL    HW1 2030   2.217   0.615   1.517 -0.1953  0.1112  0.5799
  555SOL    HW2 2031   2.315   0.675   1.417  0.8186 -0.5317  1.1724
  556SOL     OW 2032   5.171   2.490   5.043 -0.0514 -0.1322  0.1134
  556SOL    HW1 2033   5.135   2.556   4.983  0.9506  0.5764  0.2598
  556SOL    HW2 2034   5.182   2.412   4.989 -2.6038 -0.6830  0.2695
  557SOL     OW 2035   5.581   3.463   2.599  0.5822  0.2821 -0.0921
  557SOL    HW1 2036   5.527   3.499   2.668  1.6087  0.5308  0.5998
  557SOL    HW2 2037   5.655   3.423   2.644  1.5001  0.8315 -1.0605
  558SOL     OW 2038   6.298   5.568   0.989  0.2426  0.3579  0.6019
  558SOL    HW1 2039   6.308   5.643   1.048  0.0751 -1.1803  2.7160
  558SOL    HW2 2040   6.387   5.533   0.981  0.1510  0.1538  0.5019
  559SOL     OW 2041   6.559   3.917   6.479  0.0903  0.1983 -0.3412
  559SOL    HW1 2042   6.486   3.883   6.531  0.4634  0.2227  0.2102
  559SOL    HW2 2043   6.520   3.938   6.394 -0.7593  1.0736  0.2307
  560SOL     OW 2044   5.212   5.325   6.138  0.5897 -0.3822  0.2256
  560SOL    HW1 2045   5.282   5.366   6.190 -0.5228 -1.0088  2.3570
  560SOL    HW2 2046   5.152   5.397   6.119  1.7910  0.1778 -1.6937
  561SOL     OW 2047   3.123   5.207   6.029  0.4969 -0.1286 -0.5580
  561SOL    HW1 2048   3.069   5.268   5.979 -1.8406 -1.7823 -0.1872
  561SOL    HW2 2049   3.071   5.127   6.033  1.6378 -0.8300  2.5171
  562SOL     OW 2050   2.302   4.468   0.027  0.0156 -0.1345 -0.0595
  562SOL    HW1 2051   2.257   4.526  -0.034 -0.9437 -2.0947 -1.3210
  562SOL    HW2 2052   2.318   4.522   0.105  0.4595  2.1891 -1.6615
  563SOL     OW 2053   6.172   5.298   5.100  0.3384  0.1525 -0.7273
  563SOL    HW1 2054   6.077   5.292   5.111  0.2725 -0.5932 -1.6627
  563SOL    HW2 2055   6.194   5.385   5.133 -0.5333 -0.0104  0.3770
  564SOL     OW 2056   3.753   3.974   4.522 -0.6990 -0.1538  0.3506
  564SOL    HW1 2057   3.779   4.062   4.496 -1.7002 -0.1391 -0.7031
  564SOL    HW2 2058   3.756   3.974   4.617  0.3232  0.6877  0.3373
  565SOL     OW 2059   1.801   3.379   0.363 -0.0882 -0.1541 -0.1638
  565SOL    HW1 2060   1.880   3.330   0.386  0.8929  1.3015 -0.3286
  565SOL    HW2 2061   1.748   3.379   0.443  0.7287  0.0460  0.3861
  566SOL     OW 2062   1.964   0.671   3.039  0.0200 -0.1650  0.2255
  566SOL    HW1 2063   2.023   0.731   3.084 -0.2151 -0.0469  0.3824
  566SOL    HW2 2064   2.020   0.600   3.008  0.2081 -0.1766  0.5861
  567SOL     OW 2065   4.194   2.903   1.088 -0.0193  0.4173  0.0943
  567SOL    HW1 2066   4.181   2.960   1.164  1.0430  1.4539 -0.4572
  567SOL    HW2 2067   4.138   2.828   1.104  1.0214  0.0475  2.4790
  568SOL     OW 2068   1.157   3.976   5.068 -0.9836 -0.4327  0.2146
  568SOL    HW1 2069   1.099   4.034   5.018  0.1478  0.8236  0.3093
  568SOL    HW2 2070   1.111   3.960   5.150 -0.2135  2.5612  1.3477
  569SOL     OW 2071   0.032   2.838   2.883 -0.7022 -0.1483 -0.4677
  569SOL    HW1 2072   0.012   2.746   2.901 -2.0525  0.1389 -0.3817
  569SOL    HW2 2073  -0.025   2.860   2.810 -2.2386  1.2674  1.0692
  570SOL     OW 2074   3.768   2.675   3.633 -0.2190  0.1606  0.2413
  570SOL    HW1 2075   3.712   2.621   3.690 -0.6663 -1.0236 -1.2504
  570SOL    HW2 2076   3.725   2.761   3.632 -1.6835 -0.5464 -0.3499
  571SOL     OW 2077   3.183   2.704   6.305 -0.1508  0.7105 -0.0320
  571SOL    HW1 2078   3.156   2.652   6.229  3.9741 -0.8796 -0.7091
  571SOL    HW2 2079   3.154   2.653   6.381  0.3388 -0.5681 -0.6724
  572SOL     OW 2080   1.082   0.777   3.870 -0.6287 -0.0903  0.0009
  572SOL    HW1 2081   1.010   0.812   3.922 -1.1859 -0.4361 -0.5228
  572SOL    HW2 2082   1.150   0.756   3.934 -0.6930  0.9530  0.4222
  573SOL     OW 2083   0.692   1.728   0.294 -0.3226  0.5002  0.2282
  573SOL    HW1 2084   0.719   1.787   0.365 -3.6391  3.2973 -0.5966
  573SOL    HW2 2085   0.724   1.770   0.214 -0.0340 -0.5441 -0.2242
  574SOL     OW 2086   3.575   0.493   2.690 -0.3322 -0.2662  0.2537
  574SOL    HW1 2087   3.596   0.579   2.653 -3.1897  0.1131 -0.7661
  574SOL    HW2 2088   3.600   0.430   2.622 -1.5857  0.1033 -0.5966
  575SOL     OW 2089   4.387   1.997   3.688 -0.2128  0.4096 -0.3786
  575SOL    HW1 2090   4.454   1.957   3.742  0.3054 -0.5648 -1.6842
  575SOL    HW2 2091   4.389   2.090   3.712  2.9663  0.8160 -1.6860
  576SOL     OW 2092   6.582   2.643   4.550  0.0947  0.4441 -0.3639
  576SOL    HW1 2093   6.572   2.667   4.642  1.1626 -0.3289 -0.0214
  576SOL    HW2 2094   6.677   2.637   4.537 -0.0666 -0.4062 -1.2603
  577SOL     OW 2095   0.288   1.905   2.979  0.2482 -0.7125  0.2778
  577SOL    HW1 2096   0.333   1.833   3.022  0.7552  0.2453  1.3959
  577SOL    HW2 2097   0.219   1.930   3.040  0.8577  0.5434  0.4858
  578SOL     OW 2098   3.460   2.614   5.976  0.4938  0.1076  0.1212
  578SOL    HW1 2099   3.397   2.686   5.971  0.8034  0.4432  0.8498
  578SOL    HW2 2100   3.419   2.542   5.927 -0.0301  0.6212 -0.2072
  579SOL     OW 2101   0.405   1.994   6.604  0.2760 -0.5630  0.3443
  579SOL    HW1 2102   0.367   2.078   6.580 -0.1088 -1.3909 -2.2504
  579SOL    HW2 2103   0.344   1.929   6.569  3.2552 -1.9275 -2.8859
  580SOL     OW 2104   2.210   4.653   5.437  0.4432  0.5360  0.3497
  580SOL    HW1 2105   2.182   4.667   5.527  1.5048 -0.4183  0.8645
  580SOL    HW2 2106   2.304   4.674   5.438  0.0803  2.5019 -1.0218
  581SOL     OW 2107   2.322   4.995   3.002 -0.2011  0.0342  0.4403
  581SOL    HW1 2108   2.300   4.925   3.063  1.2160 -1.5984 -0.8019
  581SOL    HW2 2109   2.404   5.032   3.036  0.0487 -0.1912  0.0908
  582SOL     OW 2110   2.799   2.241   4.241 -0.4230 -0.2730  0.2138
  582SOL    HW1 2111   2.788   2.225   4.334  1.7118 -0.2297  0.5033
  582SOL    HW2 2112   2.864   2.311   4.235  0.6363 -1.3083 -1.3100
  583SOL     OW 2113   3.841   1.504   6.449 -0.4997  0.4671 -0.3183
  583SOL    HW1 2114   3.755   1.467   6.429 -0.4711  0.7858 -1.0689
  583SOL    HW2 2115   3.885   1.507   6.364  0.2798  0.2432  0.0687
  584SOL     OW 2116   0.261   3.384   3.395  0.2554 -0.4343 -0.2541
  584SOL    HW1 2117   0.274   3.361   3.304 -0.4945  0.5269 -0.6251
  584SOL    HW2 2118   0.347   3.412   3.426  0.2053  0.7779 -1.1401
  585SOL     OW 2119   5.174   1.936   3.551  0.3354 -0.2836 -0.1376
  585SOL    HW1 2120   5.249   1.877   3.559 -0.6781 -1.6745 -0.4224
  585SOL    HW2 2121   5.149   1.955   3.642  0.1482 -0.9850 -0.0402
  586SOL     OW 2122   5.694   3.349   6.417 -0.6205 -0.2256 -0.0143
  586SOL    HW1 2123   5.663   3.260   6.437 -0.3881 -0.0557  1.1530
  586SOL    HW2 2124   5.645   3.405   6.477 -0.0551  0.3387 -0.0766
  587SOL     OW 2125   0.538   6.105   5.372 -0.3800  0.8161  0.2185
  587SOL    HW1 2126   0.587   6.124   5.291 -1.9477  0.4901 -0.8602
  587SOL    HW2 2127   0.598   6.052   5.424  0.1984 -0.1610 -1.3471
  588SOL     OW 2128   1.650   3.733   5.927  0.4341  0.6991  0.1182
  588SOL    HW1 2129   1.673   3.800   5.863 -2.3344  1.1458 -0.5312
  588SOL    HW2 2130   1.619   3.659   5.876 -3.1803  1.5735  0.7752
  589SOL     OW 2131   6.006   0.501   2.124 -0.0589 -0.0852  0.0918
  589SOL    HW1 2132   5.938   0.433   2.129 -0.1953  0.1062  1.0068
  589SOL    HW2 2133   6.072   0.464   2.065  0.1817 -1.3114  1.0742
  590SOL     OW 2134   6.444   5.581   2.959  0.2573 -0.2493 -0.0358
  590SOL    HW1 2135   6.378   5.597   2.891  0.0402 -1.2705 -0.0878
  590SOL    HW2 2136   6.416   5.499   3.000  0.3577  0.3854  1.3280
  591SOL     OW 2137   5.131   3.618   1.170  0.1221 -0.9167 -0.2497
  591SOL    HW1 2138   5.198   3.595   1.106  1.0374 -0.6088  0.5586
  591SOL    HW2 2139   5.174   3.604   1.255 -0.4034  0.5036  0.2877
  592SOL     OW 2140   0.097   5.460   1.444 -0.4243  0.6119 -0.1933
  592SOL    HW1 2141   0.129   5.390   1.501  0.0736  1.7054  0.9147
  592SOL    HW2 2142   0.147   5.449   1.363  0.6450  0.5170  0.4602
  593SOL     OW 2143   5.692   5.152   2.046 -0.3908 -0.7768  0.3901
  593SOL    HW1 2144   5.729   5.176   1.961 -0.4064  0.6368  0.7669
  593SOL    HW2 2145   5.703   5.230   2.100 -2.0072 -1.0298  1.1438
  594SOL     OW 2146   4.545   0.972   5.003  0.2891 -0.0780  0.3622
  594SOL    HW1 2147   4.578   0.887   4.974  2.0417  1.3527 -2.2071
  594SOL    HW2 2148   4.494   1.004   4.928  1.2240  1.9060  0.5221
  595SOL     OW 2149   0.857   1.622   6.131 -0.3992 -0.3045 -0.7023
  595SOL    HW1 2150   0.932   1.645   6.186 -0.5833  1.5964 -1.1784
  595SOL    HW2 2151   0.878   1.660   6.045 -2.2786  1.1161 -0.5915
  596SOL     OW 2152   4.119   6.599   5.404 -0.2928 -0.0093 -0.1625
  596SOL    HW1 2153   4.188   6.565   5.346  0.1849 -0.6844  0.7700
  596SOL    HW2 2154   4.161   6.605   5.490 -0.6855  1.9897 -0.0681
  597SOL     OW 2155   1.696   1.042   1.305  0.1148  0.1283  0.2818
  597SOL    HW1 2156   1.635   1.102   1.263 -0.7372 -0.0443  1.2492
  597SOL    HW2 2157   1.782   1.070   1.274 -0.3808  0.9083 -0.4290
  598SOL     OW 2158   1.601   4.260   4.043  0.5678  0.5014 -0.6414
  598SOL    HW1 2159   1.584   4.230   3.953  2.2542  0.1542 -0.8824
  598SOL    HW2 2160   1.532   4.219   4.095  0.1480 -0.1047 -1.6408
  599SOL     OW 2161   0.480   6.007   1.160 -0.0102 -0.1794  0.1378
  599SOL    HW1 2162   0.467   5.996   1.066 -0.0107  1.0827 -0.0288
  599SOL    HW2 2163   0.421   6.078   1.184  0.1064 -0.3868  1.0682
  600SOL     OW 2164   5.205   6.145   2.189  0.4355 -0.2974  0.5690
  600SOL    HW1 2165   5.138   6.199   2.148  0.8956  0.4494  0.7919
  600SOL    HW2 2166   5.259   6.206   2.239  1.6656 -0.7793 -0.1017
  601SOL     OW 2167   4.731   0.756   3.711  0.1376 -0.0399 -0.1234
  601SOL    HW1 2168   4.826   0.747   3.705  0.3864 -0.4144  2.8779
  601SOL    HW2 2169   4.698   0.667   3.697  0.4650 -0.4306  1.4496
  602SOL     OW 2170   1.656   2.857   4.483 -0.0872 -0.2638  0.2077
  602SOL    HW1 2171   1.661   2.880   4.576 -3.6861  1.5997  0.1221
  602SOL    HW2 2172   1.705   2.926   4.439 -0.0448 -0.0297  0.6140
  603SOL     OW 2173   3.743   2.885   4.653 -0.3178 -0.2566 -0.9125
  603SOL    HW1 2174   3.716   2.860   4.741 -2.1179  0.6854 -1.1527
  603SOL    HW2 2175   3.789   2.968   4.665 -0.3885 -0.2289 -0.8272
  604SOL     OW 2176   6.013   5.662   0.999  0.3543 -0.3120 -0.2010
  604SOL    HW1 2177   6.023   5.682   0.907  0.0553 -1.4911 -0.5124
  604SOL    HW2 2178   6.092   5.612   1.022  1.0709  1.0894  0.5380
  605SOL     OW 2179   1.263   4.281   5.093 -0.2955  0.7932  0.7178
  605SOL    HW1 2180   1.244   4.224   5.019  1.3504 -0.5917  1.2893
  605SOL    HW2 2181   1.279   4.367   5.054  0.7354  0.0504 -0.5648
  606SOL     OW 2182   1.135   4.449   0.432 -0.2221  0.1810  0.6203
  606SOL    HW1 2183   1.071   4.479   0.497 -0.9417  1.0253 -0.4386
  606SOL    HW2 2184   1.131   4.353   0.437 -2.8966  0.1342 -0.6134
  607SOL     OW 2185   0.149   3.615   4.123 -0.2547 -0.4492  0.0254
  607SOL    HW1 2186   0.190   3.702   4.121  0.5270 -0.7920  0.4710
  607SOL    HW2 2187   0.161   3.580   4.035 -0.9445  0.0499 -0.2779
  608SOL     OW 2188   2.114   3.935   5.476 -0.3083 -0.4330  0.4501
  608SOL    HW1 2189   2.209   3.942   5.474 -0.3096 -0.2274  0.9734
  608SOL    HW2 2190   2.096   3.845   5.449 -0.0666  0.0744 -1.5280
  609SOL     OW 2191   6.247   6.670   0.476  0.2375 -0.4351  0.0891
  609SOL    HW1 2192   6.312   6.631   0.534 -0.8027 -2.4515  0.0218
  609SOL    HW2 2193   6.294   6.738   0.428  1.7854 -0.5519  1.3785
  610SOL     OW 2194   2.181   6.437   4.368 -0.1511 -0.2673  0.5441
  610SOL    HW1 2195   2.131   6.383   4.307  0.5472  0.1589 -0.4194
  610SOL    HW2 2196   2.148   6.526   4.355  0.4919 -0.0638  0.2686
  611SOL     OW 2197   4.571   4.864   5.595  0.1664 -0.3696  0.1429
  611SOL    HW1 2198   4.617   4.942   5.628  0.8881 -0.4508 -0.6144
  611SOL    HW2 2199   4.500   4.900   5.541 -1.8331 -0.2134  2.6889
  612SOL     OW 2200   5.903   2.572   5.283  0.6176 -0.1036 -0.1371
  612SOL    HW1 2201   5.842   2.631   5.239  1.5333  1.3632  0.4977
  612SOL    HW2 2202   5.847   2.507   5.325 -0.4201  0.3287 -0.7966
  613SOL     OW 2203   1.788   6.018   0.246 -0.2686  0.1269 -0.0004
  613SOL    HW1 2204   1.752   6.059   0.325 -1.5128  0.3172 -0.6250
  613SOL    HW2 2205   1.882   6.029   0.253 -0.3342 -0.2066  1.6371
  614SOL     OW 2206   3.115   0.972   6.078 -0.5052  0.2618  0.4452
  614SOL    HW1 2207   3.038   0.931   6.117  0.2680 -0.3885  1.3231
  614SOL    HW2 2208   3.166   0.900   6.042 -0.5801  0.7419 -0.6686
  615SOL     OW 2209   3.274   0.807   0.137  0.3827 -0.4091 -0.0843
  615SOL    HW1 2210   3.363   0.838   0.120 -0.1935  0.5982 -1.4366
  615SOL    HW2 2211   3.248   0.764   0.056 -0.0433 -1.5155  0.6293
  616SOL     OW 2212   5.005   2.482   1.553  0.0472 -0.9344 -0.5012
  616SOL    HW1 2213   5.049   2.420   1.610  1.0945 -2.0991 -2.4428
  616SOL    HW2 2214   4.912   2.474   1.575  0.5089 -0.3123  1.9200
  617SOL     OW 2215   1.827   5.725   5.047  0.1000  0.1313 -0.1136
  617SOL    HW1 2216   1.821   5.656   5.112  1.1295 -1.2968 -1.4579
  617SOL    HW2 2217   1.921   5.732   5.029 -0.2118 -0.1381 -2.0484
  618SOL     OW 2218   1.212   4.489   2.294  0.0860  0.3021 -0.5293
  618SOL    HW1 2219   1.257   4.418   2.250 -1.3460 -2.2666  1.8079
  618SOL    HW2 2220   1.253   4.494   2.380 -1.9100  0.0125  0.5152
  619SOL     OW 2221   3.697   1.003   3.677 -0.1554  0.3292 -0.3318
  619SOL    HW1 2222   3.724   0.919   3.641 -0.1849  0.2481 -0.1654
  619SOL    HW2 2223   3.773   1.060   3.665 -1.1414  1.1708 -3.2508
  620SOL     OW 2224   4.377   1.568   1.349 -0.0126 -0.3959 -0.0564
  620SOL    HW1 2225   4.321   1.594   1.422 -1.1006 -1.8202 -0.3199
  620SOL    HW2 2226   4.316   1.544   1.279  0.8837 -2.2481 -0.2763
  621SOL     OW 2227   1.331   6.025   4.496  0.5085 -0.7767  0.0255
  621SOL    HW1 2228   1.371   6.068   4.421 -0.5051  1.4604  0.6713
  621SOL    HW2 2229   1.274   5.958   4.458 -0.6551  0.8755 -1.3116
  622SOL     OW 2230   3.854   0.582   6.308  0.2818  0.0900  0.1589
  622SOL    HW1 2231   3.912   0.637   6.361  0.0339 -0.6559  1.2158
  622SOL    HW2 2232   3.910   0.512   6.276  0.4461  0.5738 -0.6431
  623SOL     OW 2233   1.653   6.661   5.911  0.0132  0.2130  0.1565
  623SOL    HW1 2234   1.622   6.572   5.926 -0.9957  0.6718  0.9025
  623SOL    HW2 2235   1.595   6.696   5.844  1.9549 -0.4643 -2.0298
  624SOL     OW 2236   4.892   6.634   3.153 -0.1737  0.5257  0.4601
  624SOL    HW1 2237   4.855   6.620   3.241  1.6244  0.6728  1.3005
  624SOL    HW2 2238   4.974   6.585   3.155 -1.3997 -1.9039 -2.1904
  625SOL     OW 2239   0.107   2.897   1.108  0.1258  0.0976  0.0680
  625SOL    HW1 2240   0.140   2.816   1.146 -1.8736 -0.8265  0.0063
  625SOL    HW2 2241   0.155   2.908   1.026  1.3200 -0.3140  0.7058
  626SOL     OW 2242   6.044   1.390   4.580  0.2274 -0.2700 -0.0926
  626SOL    HW1 2243   6.015   1.304   4.611  3.0162 -2.0147 -1.9691
  626SOL    HW2 2244   6.061   1.439   4.661  0.9923 -2.3810  1.1240
  627SOL     OW 2245   2.801   3.611   4.151 -0.0567 -0.5406  0.4566
  627SOL    HW1 2246   2.799   3.555   4.074 -0.0683 -1.7718  1.3104
  627SOL    HW2 2247   2.716   3.654   4.153 -0.0121 -0.4164 -0.2647
  628SOL     OW 2248   1.746   1.612   4.150  0.2215 -0.3808  0.5347
  628SOL    HW1 2249   1.739   1.624   4.055 -2.4108 -1.9642  0.4434
  628SOL    HW2 2250   1.798   1.532   4.160  0.3425 -0.3156  0.4446
  629SOL     OW 2251   1.765   3.086   4.374  0.0490  0.1835 -0.3445
  629SOL    HW1 2252   1.802   3.151   4.315 -1.7536  1.1328 -0.4891
  629SOL    HW2 2253   1.780   3.121   4.461 -0.7099  0.7004 -0.4130
  630SOL     OW 2254   1.539   5.730   1.548  0.3841  0.5132 -0.2179
  630SOL    HW1 2255   1.561   5.785   1.623 -1.4136  1.3434 -0.2425
  630SOL    HW2 2256   1.443   5.732   1.545  0.3644 -0.9789 -1.4567
  631SOL     OW 2257   5.339   1.916   3.836  0.1472 -0.0754  0.3378
  631SOL    HW1 2258   5.315   1.990   3.892 -0.2965 -0.0787  0.1568
  631SOL    HW2 2259   5.309   1.839   3.884  0.9888 -0.1695  0.7215
  632SOL     OW 2260   1.604   0.324   2.454  0.4777 -0.0455  0.0153
  632SOL    HW1 2261   1.630   0.300   2.543  0.1336  1.5903  0.5794
  632SOL    HW2 2262   1.514   0.356   2.463  0.4362  0.1337 -0.9246
  633SOL     OW 2263   2.997   3.399   4.758 -0.0776 -0.6854  0.1505
  633SOL    HW1 2264   2.972   3.487   4.730 -1.1613 -2.0661 -3.9187
  633SOL    HW2 2265   3.039   3.412   4.843 -0.3472  3.6812 -0.1511
  634SOL     OW 2266   6.319   5.381   5.446  0.4377  0.2744 -0.0820
  634SOL    HW1 2267   6.328   5.290   5.417  1.3269 -0.2531  1.7117
  634SOL    HW2 2268   6.358   5.433   5.375 -0.6096 -0.6488 -1.3979
  635SOL     OW 2269   4.894   3.494   1.836 -0.0998  0.3755 -0.0140
  635SOL    HW1 2270   4.921   3.474   1.926 -0.2453 -1.7601 -0.4019
  635SOL    HW2 2271   4.858   3.583   1.841 -1.1052 -0.0916  2.2518
  636SOL     OW 2272   0.577   5.784   1.314 -0.7576  0.2106  0.2213
  636SOL    HW1 2273   0.607   5.837   1.388 -0.3810 -0.1176  0.3060
  636SOL    HW2 2274   0.531   5.846   1.258 -0.6514  0.5539  0.5087
  637SOL     OW 2275   5.285   1.275   1.393 -0.0662  0.2087 -0.0731
  637SOL    HW1 2276   5.281   1.221   1.472 -1.8366  0.6334  0.1749
  637SOL    HW2 2277   5.378   1.284   1.375  0.4252  0.3335  2.1534
  638SOL     OW 2278   2.896   3.457   3.940  0.0062 -0.4375 -0.2216
  638SOL    HW1 2279   2.901   3.551   3.921  2.0186 -0.5604 -0.4521
  638SOL    HW2 2280   2.970   3.419   3.894 -0.6371 -2.1334  0.0743
  639SOL     OW 2281   1.412   0.863   3.435 -0.1623 -0.3839  0.2653
  639SOL    HW1 2282   1.417   0.873   3.340 -1.7042 -0.8631  0.1084
  639SOL    HW2 2283   1.476   0.795   3.455  1.0476  0.5676 -0.2541
  640SOL     OW 2284   5.200   6.162   3.676 -0.5770 -0.4045 -0.1522
  640SOL    HW1 2285   5.285   6.163   3.632 -0.1062  0.0414  0.7536
  640SOL    HW2 2286   5.136   6.159   3.604  0.1659  0.4628 -0.8707
  641SOL     OW 2287   5.892   6.206   1.652  0.3264 -0.7829 -0.0995
  641SOL    HW1 2288   5.900   6.110   1.649  0.4295 -0.9245  2.7362
  641SOL    HW2 2289   5.834   6.223   1.726  2.1504  1.4274  0.9398
  642SOL     OW 2290   4.215   5.478   1.803  0.5624 -0.0592 -0.4050
  642SOL    HW1 2291   4.303   5.515   1.801 -0.1410  2.0044  2.0040
  642SOL    HW2 2292   4.157   5.550   1.777 -0.5386 -1.0375 -0.7925
  643SOL     OW 2293   1.085   1.796   3.183  0.1363  0.0949 -0.5242
  643SOL    HW1 2294   1.155   1.853   3.216 -0.8096  0.6020  0.6970
  643SOL    HW2 2295   1.130   1.729   3.131  1.2908  1.8849 -1.9349
  644SOL     OW 2296   2.127   1.699   1.050 -0.2322  0.4078 -0.0395
  644SOL    HW1 2297   2.203   1.757   1.058 -0.0595  0.2985 -0.8607
  644SOL    HW2 2298   2.106   1.699   0.957 -1.7502  1.0774  0.2722
  645SOL     OW 2299   3.551   0.495   0.006  0.3242  0.2369 -0.1845
  645SOL    HW1 2300   3.641   0.528   0.006  0.6490 -0.6288 -0.5823
  645SOL    HW2 2301   3.505   0.553  -0.056  0.3720  1.2589  0.7059
  646SOL     OW 2302   2.103   6.195   3.987  0.1908 -0.4239  0.0150
  646SOL    HW1 2303   2.187   6.177   4.030 -0.6098 -0.7279  1.5206
  646SOL    HW2 2304   2.046   6.227   4.057 -0.8516  0.1644 -1.0545
  647SOL     OW 2305   0.737   1.859   6.253 -0.1506  0.4461 -0.0054
  647SOL    HW1 2306   0.768   1.783   6.205 -0.2395  0.5553 -0.2359
  647SOL    HW2 2307   0.776   1.934   6.209 -0.3680  0.5562 -0.0133
  648SOL     OW 2308   1.720   2.884   4.767 -0.4403  0.2596  0.4331
  648SOL    HW1 2309   1.720   2.790   4.784 -1.8365 -0.1579 -1.5730
  648SOL    HW2 2310   1.812   2.910   4.780 -0.0656 -1.3038  1.2305
  649SOL     OW 2311   4.011   1.628   3.225  0.7808 -0.0930  0.1644
  649SOL    HW1 2312   4.080   1.574   3.262  1.1990  1.4441  1.7616
  649SOL    HW2 2313   4.058   1.698   3.178  0.2925  0.1989  0.0984
  650SOL     OW 2314   3.536   4.398   1.161  0.0964 -0.0795 -0.4580
  650SOL    HW1 2315   3.506   4.412   1.251  1.3184 -1.0228  0.1387
  650SOL    HW2 2316   3.458   4.410   1.107 -1.2651 -1.9689  0.9512
  651SOL     OW 2317   5.341   2.013   4.798  0.0358  0.3496 -0.1689
  651SOL    HW1 2318   5.390   2.010   4.716  0.0740  0.1062 -0.1373
  651SOL    HW2 2319   5.249   2.011   4.771  0.0345  1.0163 -0.2383
  652SOL     OW 2320   2.830   3.143   2.305  0.1731 -0.2964 -0.4473
  652SOL    HW1 2321   2.749   3.125   2.257 -0.3854  1.3346 -0.1605
  652SOL    HW2 2322   2.876   3.059   2.305 -1.3657 -1.1846 -0.8821
  653SOL     OW 2323   3.376   3.211   1.447  0.0109 -0.0822 -0.0969
  653SOL    HW1 2324   3.431   3.266   1.391  0.1154  0.0700  0.1539
  653SOL    HW2 2325   3.326   3.274   1.499  0.3545 -0.2297  0.4115
  654SOL     OW 2326   5.366   0.090   3.781  0.7868 -0.3532 -0.1801
  654SOL    HW1 2327   5.359   0.005   3.823 -0.7122 -0.4931 -0.6378
  654SOL    HW2 2328   5.449   0.088   3.735  0.6825 -1.6467 -0.3402
  655SOL     OW 2329   4.877   2.134   2.576 -0.0093  0.4181 -0.0620
  655SOL    HW1 2330   4.846   2.048   2.606 -1.3151  0.8495 -0.1399
  655SOL    HW2 2331   4.945   2.157   2.639  1.5032 -1.3657 -0.9404
  656SOL     OW 2332   0.688   3.458   0.869 -0.6136 -0.2036 -0.7415
  656SOL    HW1 2333   0.621   3.443   0.803  0.4623  1.4084 -2.2737
  656SOL    HW2 2334   0.677   3.550   0.894  1.0857  0.1361 -1.1405
  657SOL     OW 2335   2.689   6.030   0.514  0.3695 -0.3468 -0.2598
  657SOL    HW1 2336   2.778   6.000   0.530  1.1144  0.6123 -2.2336
  657SOL    HW2 2337   2.661   5.981   0.437 -0.3964  0.1750 -0.3219
  658SOL     OW 2338   2.910   1.546   3.494 -0.1822 -0.4311 -0.1199
  658SOL    HW1 2339   2.838   1.595   3.533  1.5563  0.5893  1.9777
  658SOL    HW2 2340   2.958   1.510   3.568  2.4959  0.4357 -1.3078
  659SOL     OW 2341   1.036   1.644   1.376 -0.1392  0.0515 -0.0573
  659SOL    HW1 2342   1.118   1.616   1.335 -0.6953  0.2181 -1.3066
  659SOL    HW2 2343   1.043   1.739   1.381 -0.1602  0.0474  0.0780
  660SOL     OW 2344   5.305   3.365   2.129  0.1080 -0.3626  0.8986
  660SOL    HW1 2345   5.295   3.430   2.059  0.4532 -0.1788  1.0184
  660SOL    HW2 2346   5.244   3.393   2.197 -0.5374 -0.7771  0.5000
  661SOL     OW 2347   4.235   1.799   3.594  0.4878 -0.4990  0.3098
  661SOL    HW1 2348   4.283   1.736   3.647 -0.0173  0.0810  1.5012
  661SOL    HW2 2349   4.282   1.882   3.606 -0.2582 -0.1291  0.7348
  662SOL     OW 2350   1.487   0.097   4.340  0.0104  0.1237  0.7487
  662SOL    HW1 2351   1.513   0.015   4.299 -0.8549 -0.8123  1.9927
  662SOL    HW2 2352   1.543   0.104   4.417  1.8627  2.0358 -0.6455
  663SOL     OW 2353   4.650   1.892   4.625  0.0922  0.0860  0.4564
  663SOL    HW1 2354   4.622   1.872   4.536  2.7307 -0.1879 -0.3934
  663SOL    HW2 2355   4.666   1.986   4.625  1.3071 -0.1029  0.2246
  664SOL     OW 2356   4.957   2.002   1.655  0.7488  0.0993  0.4440
  664SOL    HW1 2357   4.995   2.090   1.656  0.5511  0.2499 -1.3016
  664SOL    HW2 2358   5.026   1.948   1.617 -0.0700  0.0268 -1.0033
  665SOL     OW 2359   5.686   5.596   3.948  0.0644  0.0353 -0.2214
  665SOL    HW1 2360   5.695   5.586   3.853 -0.4017 -0.5895 -0.2026
  665SOL    HW2 2361   5.625   5.528   3.974  0.4933 -0.0570  0.5891
  666SOL     OW 2362   3.787   3.677   6.156  0.0317  0.0626 -0.0932
  666SOL    HW1 2363   3.824   3.740   6.219 -0.2254  1.1877 -1.0290
  666SOL    HW2 2364   3.836   3.691   6.076 -0.1471 -0.8314 -0.3695
  667SOL     OW 2365   1.448   2.081   0.025 -0.1559 -0.2195 -0.2565
  667SOL    HW1 2366   1.356   2.095   0.001 -0.4799  0.7969  1.4199
  667SOL    HW2 2367   1.493   2.160  -0.006 -0.3214  0.4280  1.0673
  668SOL     OW 2368   4.419   4.104   0.411  0.6616  0.1520  0.1789
  668SOL    HW1 2369   4.490   4.066   0.463  1.0748 -0.4646 -0.7963
  668SOL    HW2 2370   4.462   4.172   0.359  0.3534  0.4188  0.2725
  669SOL     OW 2371   2.668   3.227   1.030 -0.4561 -0.2239 -0.0043
  669SOL    HW1 2372   2.622   3.207   1.112 -0.2903  0.5911  0.2991
  669SOL    HW2 2373   2.699   3.317   1.042  1.6353 -0.9105 -0.0037
  670SOL     OW 2374   0.758   4.977   4.591  0.5037 -0.0003  0.2748
  670SOL    HW1 2375   0.844   5.015   4.605  0.6672 -0.0844 -0.4449
  670SOL    HW2 2376   0.707   5.001   4.668 -0.4031  4.4195 -1.3945
  671SOL     OW 2377   0.415   3.474   6.602 -0.3570 -0.6114 -0.0766
  671SOL    HW1 2378   0.336   3.522   6.626  0.1236  1.0751 -1.5862
  671SOL    HW2 2379   0.462   3.462   6.685 -0.5601  1.5052  0.4027
  672SOL     OW 2380   2.693   2.981   6.465  0.2001  0.3498  0.0993
  672SOL    HW1 2381   2.726   3.013   6.380  0.8377 -4.4489 -1.7958
  672SOL    HW2 2382   2.768   2.935   6.503 -0.6912  0.6296  2.2998
  673SOL     OW 2383   3.352   5.887   5.827  0.1833 -0.1012  0.1683
  673SOL    HW1 2384   3.362   5.805   5.875 -0.2572 -0.5838 -0.5573
  673SOL    HW2 2385   3.413   5.947   5.871 -0.5267 -0.3893  1.6074
  674SOL     OW 2386   3.876   1.578   1.071 -0.3996  0.2627  0.0647
  674SOL    HW1 2387   3.844   1.487   1.067  1.7618 -0.7115  2.2737
  674SOL    HW2 2388   3.884   1.604   0.979 -1.2571 -1.7142 -0.6328
  675SOL     OW 2389   2.024   4.983   4.231 -0.7774 -0.6426  0.1544
  675SOL    HW1 2390   2.071   4.910   4.272 -0.4841  0.0323  1.0643
  675SOL    HW2 2391   1.947   4.943   4.192 -0.8326 -1.3858  0.9865
  676SOL     OW 2392   4.277   0.835   0.971 -0.1113 -0.3776  0.2330
  676SOL    HW1 2393   4.324   0.895   0.913 -1.1055 -0.8027 -1.0794
  676SOL    HW2 2394   4.271   0.754   0.921 -2.1727 -0.3455  0.3324
  677SOL     OW 2395   4.960   3.982   1.614 -0.4679 -0.0896  0.1996
  677SOL    HW1 2396   4.895   3.913   1.626 -1.2229  0.9048  2.2703
  677SOL    HW2 2397   5.036   3.953   1.665  0.2502 -0.6001 -1.1024
  678SOL     OW 2398   5.882   4.095   5.578 -0.5731  0.4684  0.0937
  678SOL    HW1 2399   5.875   4.026   5.513  1.1663  0.9588 -0.6837
  678SOL    HW2 2400   5.868   4.176   5.529 -1.0938  0.7599  0.7046
  679SOL     OW 2401   4.648   3.175   0.378 -0.8540 -0.7233 -0.1220
  679SOL    HW1 2402   4.604   3.210   0.300  0.8306  0.8079 -0.4521
  679SOL    HW2 2403   4.688   3.252   0.419 -0.4761 -1.7228  1.4729
  680SOL     OW 2404   2.284   4.896   5.935  0.4488  0.0284  0.6172
  680SOL    HW1 2405   2.232   4.969   5.971  0.5256  0.8030 -0.7646
  680SOL    HW2 2406   2.220   4.827   5.919  0.0525  0.4962  0.1579
  681SOL     OW 2407   1.678   0.405   4.848  0.4817 -0.1812  0.6487
  681SOL    HW1 2408   1.748   0.439   4.792 -0.3604 -0.1187 -0.3917
  681SOL    HW2 2409   1.722   0.341   4.905  1.3332 -0.3636 -0.1877
  682SOL     OW 2410   3.719   4.174   3.799 -0.3681  0.7903 -0.2596
  682SOL    HW1 2411   3.735   4.117   3.874  0.9189 -0.9524 -1.7683
  682SOL    HW2 2412   3.648   4.132   3.751 -0.5231  1.3620 -0.5458
  683SOL     OW 2413   4.520   2.903   0.124  0.0614  0.5111  0.4128
  683SOL    HW1 2414   4.448   2.922   0.064  0.2256  1.1634  0.4116
  683SOL    HW2 2415   4.544   2.813   0.105 -0.9018  0.2107  0.5740
  684SOL     OW 2416   1.647   1.695   6.120 -0.0037 -0.2757 -0.3945
  684SOL    HW1 2417   1.727   1.709   6.170  0.5203 -0.3680 -1.1851
  684SOL    HW2 2418   1.640   1.771   6.062  0.6064 -1.1893 -1.7405
  685SOL     OW 2419   4.893   6.464   6.224  0.1648 -0.2994  0.3864
  685SOL    HW1 2420   4.838   6.389   6.200 -0.7722  1.2883 -2.9935
  685SOL    HW2 2421   4.831   6.529   6.258  0.6717 -0.2392  1.2204
  686SOL     OW 2422   6.073   1.551   2.864  0.2851  0.2475 -0.3040
  686SOL    HW1 2423   6.101   1.523   2.951 -1.2117 -0.7212 -0.0997
  686SOL    HW2 2424   6.120   1.493   2.804  0.7544  0.4269 -0.1184
  687SOL     OW 2425   1.783   3.322   6.418 -0.3140 -0.1291 -0.3461
  687SOL    HW1 2426   1.718   3.271   6.369  0.1772  0.0971 -1.2403
  687SOL    HW2 2427   1.764   3.413   6.397  0.5187 -0.0752 -0.9169
  688SOL     OW 2428   1.867   0.832   2.159 -0.5387  0.3534 -0.1052
  688SOL    HW1 2429   1.829   0.824   2.246  0.2212  0.4828  0.2447
  688SOL    HW2 2430   1.802   0.883   2.109 -0.7259  0.7548  0.5357
  689SOL     OW 2431   2.059   1.181   0.913 -0.1013  0.2206 -0.1094
  689SOL    HW1 2432   2.103   1.172   0.998 -0.5216 -0.4714  0.0374
  689SOL    HW2 2433   2.014   1.265   0.918 -0.9777 -0.2907  0.7494
  690SOL     OW 2434   0.665   6.619   4.182  0.4467  0.4836  0.6166
  690SOL    HW1 2435   0.629   6.535   4.210 -1.1398  0.2789 -1.7080
  690SOL    HW2 2436   0.753   6.598   4.151  0.0495 -0.3505  0.0160
  691SOL     OW 2437   6.513   3.106   1.491  0.0942 -0.4227 -0.0415
  691SOL    HW1 2438   6.504   3.144   1.404 -1.9988  0.1299  0.3791
  691SOL    HW2 2439   6.601   3.131   1.519 -1.0843  4.2767  0.2400
  692SOL     OW 2440   1.693   2.419   1.798  0.5476 -0.2890  0.0516
  692SOL    HW1 2441   1.639   2.371   1.861  1.3033 -0.3541  0.6629
  692SOL    HW2 2442   1.722   2.497   1.846  1.5752 -0.6106 -0.0330
  693SOL     OW 2443   0.358   2.963   2.571 -0.3540 -0.1942 -0.1868
  693SOL    HW1 2444   0.409   2.954   2.651 -0.9804 -2.0724  0.0396
  693SOL    HW2 2445   0.417   2.935   2.501 -0.1756  0.3487 -0.2566
  694SOL     OW 2446   1.773   2.286   5.083 -0.4397  0.1257  0.1850
  694SOL    HW1 2447   1.776   2.263   5.176 -1.7591  1.3316  0.5622
  694SOL    HW2 2448   1.786   2.381   5.082 -0.7566  0.1635 -0.8323
  695SOL     OW 2449   0.635   1.751   4.586 -0.1536  0.5046 -0.2438
  695SOL    HW1 2450   0.675   1.807   4.519  1.4840  0.6935  0.8402
  695SOL    HW2 2451   0.707   1.699   4.620 -1.0417  0.0898  1.0670
  696SOL     OW 2452   4.470   2.905   0.388  0.0909 -0.0222  0.7727
  696SOL    HW1 2453   4.480   2.924   0.294 -0.9865  2.7929  1.1201
  696SOL    HW2 2454   4.555   2.923   0.426 -0.3219  2.2422  0.7461
  697SOL     OW 2455   0.042   6.420   0.864 -0.4368  0.6196 -0.3903
  697SOL    HW1 2456   0.022   6.482   0.794 -0.5591  1.5835  0.4839
  697SOL    HW2 2457   0.138   6.424   0.872 -0.5322  1.6478  0.4921
  698SOL     OW 2458   5.393   4.447   2.389  0.5456 -0.5489  0.8047
  698SOL    HW1 2459   5.462   4.511   2.369  0.7748 -1.3829 -1.3007
  698SOL    HW2 2460   5.311   4.492   2.365  0.5781 -0.4811  0.8195
  699SOL     OW 2461   1.790   3.379   3.720 -0.3013  0.0359  0.2765
  699SOL    HW1 2462   1.757   3.348   3.804 -0.7431 -1.0090 -0.2622
  699SOL    HW2 2463   1.745   3.325   3.655 -0.0520  0.8902 -0.6442
  700SOL     OW 2464   2.919   1.156   5.923  0.6349  0.5186  0.0475
  700SOL    HW1 2465   2.973   1.231   5.897  2.9315 -1.4429 -1.2283
  700SOL    HW2 2466   2.981   1.084   5.932 -1.8693 -2.4660 -3.5762
  701SOL     OW 2467   2.676   0.424   6.129 -0.1128  0.7425 -0.3470
  701SOL    HW1 2468   2.620   0.395   6.057  0.1446 -1.3405  0.2263
  701SOL    HW2 2469   2.618   0.423   6.205  0.0457  1.2214 -0.2201
  702SOL     OW 2470   4.986   1.619   4.350  0.2733 -0.5676 -0.9187
  702SOL    HW1 2471   5.063   1.565   4.332  0.9481  0.3781 -0.9626
  702SOL    HW2 2472   5.015   1.709   4.332 -0.6283 -0.1252 -0.2596
  703SOL     OW 2473   1.645   4.187   6.004 -0.5068 -0.2655  1.0204
  703SOL    HW1 2474   1.583   4.253   5.975  1.0932  0.7346 -0.3234
  703SOL    HW2 2475   1.669   4.213   6.093 -1.7747 -0.5213  1.4566
  704SOL     OW 2476   0.637   3.836   0.029 -0.0575  0.4079  0.0223
  704SOL    HW1 2477   0.598   3.758   0.070 -1.7493  2.1387  1.9125
  704SOL    HW2 2478   0.582   3.852  -0.048 -0.3270  0.3122  0.1936
  705SOL     OW 2479   1.839   2.230   4.256  0.3385 -0.3570  0.6480
  705SOL    HW1 2480   1.772   2.167   4.283  1.9025 -1.2971  2.6021
  705SOL    HW2 2481   1.894   2.241   4.333  1.3926  1.7758 -0.3327
  706SOL     OW 2482   4.841   0.876   2.994  0.0465 -0.0400 -0.4142
  706SOL    HW1 2483   4.928   0.858   3.031 -0.0467  2.0081  0.9413
  706SOL    HW2 2484   4.841   0.830   2.910  2.6665  0.4126 -0.7498
  707SOL     OW 2485   2.292   2.669   5.135  0.6707  0.2004 -0.4118
  707SOL    HW1 2486   2.275   2.588   5.183  0.2138  0.8547  0.5769
  707SOL    HW2 2487   2.379   2.695   5.163  1.4163 -0.6517 -1.8085
  708SOL     OW 2488   3.991   6.301   1.257 -0.0881 -0.3361  0.3778
  708SOL    HW1 2489   4.018   6.215   1.225 -0.6221 -0.5274  0.4337
  708SOL    HW2 2490   4.030   6.363   1.195 -0.1353 -0.6452  0.0361
  709SOL     OW 2491   3.568   4.357   1.783 -0.3574  0.6230 -0.6672
  709SOL    HW1 2492   3.643   4.370   1.724 -0.3698  0.2868 -0.7586
  709SOL    HW2 2493   3.570   4.264   1.804  0.8839  1.0808  1.5177
  710SOL     OW 2494   4.979   6.359   0.818 -0.1902 -0.1112  0.0886
  710SOL    HW1 2495   5.022   6.364   0.732  0.8326  0.7524  0.6243
  710SOL    HW2 2496   4.904   6.419   0.811  1.3139  1.9284  0.5418
  711SOL     OW 2497   5.847   2.491   6.728  0.1726 -0.2345  0.1602
  711SOL    HW1 2498   5.788   2.451   6.665  0.0444  1.7340 -1.0708
  711SOL    HW2 2499   5.791   2.518   6.801  0.1492 -1.5123  0.6400
  712SOL     OW 2500   5.151   5.737   6.715 -0.2819 -0.0655 -0.6355
  712SOL    HW1 2501   5.180   5.724   6.624 -0.6199 -0.2719 -0.7174
  712SOL    HW2 2502   5.090   5.665   6.731 -1.4986  0.8843 -0.7940
  713SOL     OW 2503   4.426   1.605   5.045  0.3806 -0.6512 -0.2671
  713SOL    HW1 2504   4.450   1.655   5.124 -0.4847  1.0653 -1.0379
  713SOL    HW2 2505   4.495   1.626   4.982  0.3046 -0.8696 -0.4219
  714SOL     OW 2506   6.230   5.300   1.210 -0.1646 -0.2285 -0.4182
  714SOL    HW1 2507   6.292   5.284   1.139 -0.7087  0.3273 -1.0247
  714SOL    HW2 2508   6.154   5.340   1.168 -0.4411  0.2404  0.4899
  715SOL     OW 2509   0.603   6.608   1.314  0.8133 -0.3301  0.1826
  715SOL    HW1 2510   0.639   6.639   1.398  3.0529  1.1768 -1.2376
  715SOL    HW2 2511   0.593   6.688   1.262  0.1182 -1.3217 -1.2598
  716SOL     OW 2512   3.495   4.175   4.813  0.3471 -0.2983 -0.1833
  716SOL    HW1 2513   3.439   4.157   4.888 -0.6667  1.2160 -0.5279
  716SOL    HW2 2514   3.542   4.094   4.798  1.4402 -0.3483  2.7897
  717SOL     OW 2515   1.191   6.448   5.215 -0.1132 -0.3245  0.6414
  717SOL    HW1 2516   1.237   6.431   5.297  0.2470  0.9769  0.7246
  717SOL    HW2 2517   1.147   6.365   5.195  0.1941 -0.8097  1.8776
  718SOL     OW 2518   4.238   1.384   1.176 -0.2164  0.0064 -0.4496
  718SOL    HW1 2519   4.231   1.443   1.101  1.4209  1.0130  0.1416
  718SOL    HW2 2520   4.277   1.304   1.139  0.8390  0.5946 -0.6604
  719SOL     OW 2521   0.896   0.600   1.222 -0.0155 -0.4856  0.7340
  719SOL    HW1 2522   0.933   0.651   1.150 -2.5643  0.9231  0.3262
  719SOL    HW2 2523   0.955   0.618   1.296  1.1134  0.2362 -0.3015
  720SOL     OW 2524   1.602   6.266   0.289  0.5360 -0.5811  0.0370
  720SOL    HW1 2525   1.610   6.207   0.364 -0.4861  0.0965  0.6955
  720SOL    HW2 2526   1.508   6.269   0.271  0.5410  1.0271  0.1673
  721SOL     OW 2527   0.251   3.751   5.953 -0.0161 -0.3301  0.1719
  721SOL    HW1 2528   0.186   3.766   6.022 -0.4946 -1.6410  0.0292
  721SOL    HW2 2529   0.232   3.819   5.888 -0.8969 -0.3385  0.3971
  722SOL     OW 2530   6.560   2.146   5.311 -0.2270 -0.0659  0.7497
  722SOL    HW1 2531   6.516   2.141   5.227  0.2878 -0.3431  0.4900
  722SOL    HW2 2532   6.518   2.220   5.356 -0.6400 -0.0430  0.3338
  723SOL     OW 2533   1.219   3.588   0.910 -0.3916  0.0632 -0.3769
  723SOL    HW1 2534   1.245   3.674   0.944  1.5309 -1.0123  1.0330
  723SOL    HW2 2535   1.203   3.604   0.817  0.5791  1.8349 -0.2955
  724SOL     OW 2536   6.673   2.626   0.467 -0.0612 -0.0746  0.1277
  724SOL    HW1 2537   6.649   2.674   0.387 -0.0676 -0.5510 -0.1610
  724SOL    HW2 2538   6.768   2.631   0.471 -0.0494 -0.1880 -0.0008
  725SOL     OW 2539   1.949   1.058   0.539  0.0281 -0.6005  0.2705
  725SOL    HW1 2540   1.899   0.989   0.496 -0.4144  0.0299 -0.2441
  725SOL    HW2 2541   2.033   1.017   0.560  0.8431 -0.5568 -2.5265
  726SOL     OW 2542   4.561   2.311   4.283  0.4765  0.1006 -0.2191
  726SOL    HW1 2543   4.531   2.358   4.205  1.8428  0.6413 -0.4371
  726SOL    HW2 2544   4.641   2.268   4.255  1.0984  0.4792  0.9416
  727SOL     OW 2545   0.850   2.585   4.705 -0.1645  0.0317  0.1258
  727SOL    HW1 2546   0.877   2.569   4.614 -0.0804 -1.3045  0.3591
  727SOL    HW2 2547   0.932   2.599   4.752  0.0050 -1.6955  0.4097
  728SOL     OW 2548   5.694   6.206   3.108  0.1212  0.1430 -0.2494
  728SOL    HW1 2549   5.755   6.276   3.085  0.2979 -0.1689 -0.7380
  728SOL    HW2 2550   5.608   6.248   3.107  0.1947  0.2779 -0.8520
  729SOL     OW 2551   2.473   0.064   6.391 -0.2529 -0.3067  0.2240
  729SOL    HW1 2552   2.524   0.120   6.451  0.1334 -0.0986 -0.2932
  729SOL    HW2 2553   2.406   0.025   6.447  0.3208 -0.3964  0.8731
  730SOL     OW 2554   1.994   1.308   5.955 -0.0985  0.2998  0.4162
  730SOL    HW1 2555   1.987   1.233   6.014 -0.5693 -0.8151 -0.9881
  730SOL    HW2 2556   1.964   1.383   6.006  0.0033 -0.5406  1.7299
  731SOL     OW 2557   0.269   4.200   4.746 -0.3773 -0.0680  0.7162
  731SOL    HW1 2558   0.280   4.253   4.825 -1.4965  0.2325  0.6950
  731SOL    HW2 2559   0.352   4.154   4.736  0.6370  1.6528  0.7546
  732SOL     OW 2560   6.718   6.565   6.775  0.9314  0.4229 -0.6387
  732SOL    HW1 2561   6.761   6.632   6.721 -0.2438  0.6808 -1.2885
  732SOL    HW2 2562   6.681   6.504   6.712  0.3547  0.2003 -0.0883
  733SOL     OW 2563   0.479   5.496   0.138 -0.1949  0.0144 -0.4453
  733SOL    HW1 2564   0.502   5.549   0.215  0.1229  1.1560 -1.3103
  733SOL    HW2 2565   0.405   5.542   0.098  0.0603 -0.2191 -1.1936
  734SOL     OW 2566   4.646   6.542   6.332  0.4643 -0.0060 -0.1116
  734SOL    HW1 2567   4.604   6.491   6.263 -0.8890  0.5710  0.2559
  734SOL    HW2 2568   4.593   6.526   6.410 -1.1387  3.2688 -0.3378
  735SOL     OW 2569   0.662   1.089   0.092 -0.0263 -0.0344  0.4002
  735SOL    HW1 2570   0.736   1.051   0.045 -0.3809 -0.8105  0.4525
  735SOL    HW2 2571   0.623   1.015   0.140 -0.8740  0.3426  0.3152
  736SOL     OW 2572   0.002   4.751   6.577 -0.2892  0.4822  0.6887
  736SOL    HW1 2573  -0.080   4.737   6.624 -1.2642 -0.5788 -1.1856
  736SOL    HW2 2574  -0.025   4.790   6.493  0.7823 -2.1859 -1.0290
  737SOL     OW 2575   4.886   2.391   0.265 -0.3152 -0.0127 -0.0857
  737SOL    HW1 2576   4.875   2.421   0.355 -3.6189 -4.5534  1.4122
  737SOL    HW2 2577   4.961   2.331   0.268 -1.3016 -1.2986  0.1612
  738SOL     OW 2578   1.194   0.328   5.915 -0.2814 -0.3761  0.1215
  738SOL    HW1 2579   1.101   0.336   5.932 -0.4039  0.0335 -0.6768
  738SOL    HW2 2580   1.207   0.235   5.895 -0.1271 -0.8857  2.3016
  739SOL     OW 2581   2.111   2.597   1.061  0.0092  0.3928 -0.3341
  739SOL    HW1 2582   2.070   2.653   0.994 -1.1828 -0.1949 -0.1312
  739SOL    HW2 2583   2.145   2.523   1.011 -0.8923 -0.0524 -0.3176
  740SOL     OW 2584   1.713   4.363   1.669 -0.2218  0.2348 -0.2918
  740SOL    HW1 2585   1.624   4.398   1.672  0.2022  1.3351  0.7286
  740SOL    HW2 2586   1.768   4.439   1.689  0.8398 -0.7534  0.6872
  741SOL     OW 2587   5.121   1.162   2.998  0.5475  0.3135  0.2670
  741SOL    HW1 2588   5.132   1.067   3.008  1.7431  0.2743 -1.1015
  741SOL    HW2 2589   5.069   1.172   2.919  0.7576  0.8027  0.1871
  742SOL     OW 2590   3.514   0.635   1.063 -0.1795 -0.1233 -0.3005
  742SOL    HW1 2591   3.603   0.655   1.092 -0.0956 -3.2643  2.1809
  742SOL    HW2 2592   3.525   0.576   0.989 -0.1237 -0.7951  0.2266
  743SOL     OW 2593   0.542   0.679   4.990 -0.0749  0.2353  0.5655
  743SOL    HW1 2594   0.525   0.773   4.984 -1.2069  0.0245  0.2562
  743SOL    HW2 2595   0.596   0.660   4.913  0.1166  0.6150  0.6014
  744SOL     OW 2596   3.708   4.587   2.952  0.0333  0.1310  0.1366
  744SOL    HW1 2597   3.798   4.590   2.920 -0.1341 -1.3641 -0.5677
  744SOL    HW2 2598   3.699   4.499   2.990 -0.7881  0.6791  1.2783
  745SOL     OW 2599   1.819   1.390   6.493  0.0040 -0.7169  0.4196
  745SOL    HW1 2600   1.780   1.404   6.406  0.7063 -0.9417  0.0581
  745SOL    HW2 2601   1.752   1.419   6.554  0.2055  1.3259 -0.2185
  746SOL     OW 2602   2.861   0.667   0.540 -0.1296  0.4044 -0.5059
  746SOL    HW1 2603   2.930   0.725   0.508 -0.3700  0.7953 -0.3243
  746SOL    HW2 2604   2.892   0.579   0.518 -0.6452  0.6781 -2.5434
  747SOL     OW 2605   1.081   4.922   3.119  0.3720 -0.0894  0.1859
  747SOL    HW1 2606   1.091   5.013   3.147 -0.2355  0.0500 -0.0440
  747SOL    HW2 2607   0.997   4.895   3.154 -0.2542 -0.0166 -1.1924
  748SOL     OW 2608   4.429   3.794   5.158  0.0466  0.0336 -0.1620
  748SOL    HW1 2609   4.395   3.722   5.105 -1.0816  0.8427 -0.5731
  748SOL    HW2 2610   4.475   3.751   5.230 -1.0317 -1.1004 -0.1265
  749SOL     OW 2611   4.692   0.305   5.585 -0.2095 -0.2222  0.0339
  749SOL    HW1 2612   4.677   0.389   5.541 -1.0639 -0.8783 -0.9803
  749SOL    HW2 2613   4.617   0.251   5.560  1.3927 -2.0122 -1.1461
  750SOL     OW 2614   2.044   4.240   1.808  0.7947  0.8060  0.3783
  750SOL    HW1 2615   2.019   4.331   1.825 -1.5568  0.8280 -2.4055
  750SOL    HW2 2616   2.135   4.245   1.778  0.5644  2.3021 -0.1304
  751SOL     OW 2617   1.457   2.912   6.433 -0.3221  0.6196 -0.3361
  751SOL    HW1 2618   1.514   2.970   6.484  0.0578  0.7446 -0.8857
  751SOL    HW2 2619   1.413   2.857   6.498  0.3833  0.5677  0.1106
  752SOL     OW 2620   1.311   0.414   6.165  0.1282  0.1748  0.4421
  752SOL    HW1 2621   1.399   0.377   6.159  0.3134  0.6371  0.2316
  752SOL    HW2 2622   1.278   0.411   6.075 -0.1758 -0.2410  0.5645
  753SOL     OW 2623   4.428   0.810   5.636  0.2969 -0.2635 -0.1555
  753SOL    HW1 2624   4.372   0.734   5.618 -2.0040  1.4965 -1.0747
  753SOL    HW2 2625   4.390   0.850   5.714  0.3400  0.8745 -0.6941
  754SOL     OW 2626   5.429   3.868   6.493  0.5848 -0.4407  0.0586
  754SOL    HW1 2627   5.381   3.785   6.487  1.2253 -0.8737  0.8160
  754SOL    HW2 2628   5.456   3.874   6.584  0.9188  0.4006 -0.0854
  755SOL     OW 2629   0.511   1.492   4.646 -0.4681  0.4735  0.4775
  755SOL    HW1 2630   0.601   1.522   4.637 -0.5776  1.0241  1.2029
  755SOL    HW2 2631   0.471   1.513   4.562 -0.0774  0.7405  0.3549
  756SOL     OW 2632   5.001   2.673   4.936  0.2628 -0.0479  0.7354
  756SOL    HW1 2633   4.920   2.673   4.885  0.2609 -1.5429  0.6955
  756SOL    HW2 2634   5.047   2.753   4.909  0.2119 -0.7403 -1.5203
  757SOL     OW 2635   1.880   5.516   6.219 -0.1746  0.1613  0.0689
  757SOL    HW1 2636   1.845   5.585   6.163 -2.1034 -1.6045 -1.0769
  757SOL    HW2 2637   1.933   5.462   6.161  0.3919  0.0324  0.6927
  758SOL     OW 2638   1.142   1.211   3.238 -0.4795 -0.2433 -0.4756
  758SOL    HW1 2639   1.204   1.283   3.246 -0.3898 -0.3078 -0.5774
  758SOL    HW2 2640   1.137   1.194   3.144 -0.2170 -0.6147 -0.4224
  759SOL     OW 2641   5.819   6.696   0.662  0.3894 -0.5815  0.3472
  759SOL    HW1 2642   5.747   6.676   0.602  1.3226  0.1238 -1.0404
  759SOL    HW2 2643   5.775   6.716   0.745 -0.8822 -2.3910  0.1887
  760SOL     OW 2644   0.907   5.321   1.761  0.2146 -0.7466 -0.3722
  760SOL    HW1 2645   0.868   5.396   1.718  0.7293  0.4861  1.2125
  760SOL    HW2 2646   0.935   5.354   1.847  0.0190 -2.8578  0.5630
  761SOL     OW 2647   0.786   4.181   1.406  0.3009 -0.4080  0.0752
  761SOL    HW1 2648   0.748   4.228   1.331  1.1688 -0.1584 -0.2174
  761SOL    HW2 2649   0.794   4.247   1.474 -3.1961 -1.1909  1.4993
  762SOL     OW 2650   2.957   5.275   4.095 -0.1151 -0.3348  0.0615
  762SOL    HW1 2651   2.874   5.251   4.055  0.2713  0.1741 -1.0841
  762SOL    HW2 2652   3.015   5.201   4.076  0.1997  0.1034 -0.7816
  763SOL     OW 2653   0.556   1.591   2.082 -0.2506 -0.1011  0.1762
  763SOL    HW1 2654   0.558   1.498   2.062 -0.4629 -0.5860  2.1797
  763SOL    HW2 2655   0.486   1.626   2.026 -0.6354 -1.2682 -0.1043
  764SOL     OW 2656   2.435   2.540   4.644 -0.1572  0.1072 -0.2622
  764SOL    HW1 2657   2.494   2.615   4.652 -0.0761 -0.0163  0.3472
  764SOL    HW2 2658   2.349   2.578   4.628 -0.4458  0.4249  1.7707
  765SOL     OW 2659   0.832   6.217   6.108 -0.3452  0.0225  0.7650
  765SOL    HW1 2660   0.879   6.232   6.190  1.8841 -1.9283 -0.0454
  765SOL    HW2 2661   0.796   6.129   6.117 -0.2889 -0.1143 -0.2547
  766SOL     OW 2662   4.507   0.790   6.309 -0.2089 -1.0619  0.2875
  766SOL    HW1 2663   4.423   0.748   6.326 -0.2432 -1.0583  0.1308
  766SOL    HW2 2664   4.545   0.740   6.237 -0.8401 -0.0286 -0.8044
  767SOL     OW 2665   3.278   1.919   4.945 -0.5456  0.0460 -0.5472
  767SOL    HW1 2666   3.350   1.979   4.925 -1.2279  1.4793  1.0177
  767SOL    HW2 2667   3.263   1.871   4.864 -0.6413  2.7457 -2.2558
  768SOL     OW 2668   3.397   5.657   0.080  0.1550 -0.5758 -0.1074
  768SOL    HW1 2669   3.438   5.638   0.164 -1.9696 -2.1969  0.6525
  768SOL    HW2 2670   3.387   5.752   0.079  1.1596 -0.4429  0.9779
  769SOL     OW 2671   1.839   4.944   2.729  0.7047  0.2236 -0.2797
  769SOL    HW1 2672   1.919   4.993   2.709 -1.0058  2.8298 -1.2183
  769SOL    HW2 2673   1.822   4.963   2.821  0.4136  0.8684 -0.4619
  770SOL     OW 2674   5.644   3.706   4.403 -0.4658 -0.4461  0.3812
  770SOL    HW1 2675   5.573   3.739   4.347 -0.8968 -0.0763  1.1268
  770SOL    HW2 2676   5.632   3.752   4.486  0.3852 -0.7162  0.6653
  771SOL     OW 2677   4.823   2.344   1.864  0.1746  0.5966  0.3153
  771SOL    HW1 2678   4.776   2.297   1.933 -0.4319 -0.2517 -0.6466
  771SOL    HW2 2679   4.758   2.357   1.795  1.5738 -1.6824 -1.5677
  772SOL     OW 2680   4.216   3.040   4.078  0.1527  0.4824  0.0310
  772SOL    HW1 2681   4.211   2.948   4.106  0.9013 -0.0448 -1.4662
  772SOL    HW2 2682   4.259   3.084   4.151 -0.4762 -0.2827  0.9004
  773SOL     OW 2683   3.729   4.309   3.020  0.5795  0.1630  0.0115
  773SOL    HW1 2684   3.787   4.237   2.995  0.0387 -0.3589  0.2430
  773SOL    HW2 2685   3.657   4.267   3.067  0.6136  0.9302  0.7697
  774SOL     OW 2686   3.196   2.882   5.599  0.1106 -0.5466 -0.4169
  774SOL    HW1 2687   3.143   2.956   5.629  0.5017 -0.7501  0.8412
  774SOL    HW2 2688   3.241   2.915   5.521 -0.8521  0.0506 -0.7298
  775SOL     OW 2689   2.707   5.138   6.234 -0.1290 -0.6606  0.6467
  775SOL    HW1 2690   2.620   5.148   6.274 -0.9261 -0.3240 -1.0617
  775SOL    HW2 2691   2.692   5.081   6.158  0.7847  0.7573 -0.6534
  776SOL     OW 2692   3.656   0.561   4.000 -0.4315  0.1183  0.2341
  776SOL    HW1 2693   3.569   0.601   3.997  0.1121  1.2723 -1.0028
  776SOL    HW2 2694   3.714   0.627   3.963  0.5996 -1.6193 -1.4016
  777SOL     OW 2695   6.172   6.354   2.295  0.2186 -0.0508 -0.1827
  777SOL    HW1 2696   6.191   6.319   2.208 -1.8921 -0.8169 -0.3847
  777SOL    HW2 2697   6.086   6.394   2.287  0.8159  1.6486  1.1012
  778SOL     OW 2698   5.132   5.204   4.056  0.4189  0.3257 -0.0088
  778SOL    HW1 2699   5.161   5.243   4.139 -2.1608 -0.5857  1.4356
  778SOL    HW2 2700   5.112   5.113   4.078  0.8282 -0.2815 -1.9714
  779SOL     OW 2701   3.213   4.218   0.113  0.2771 -0.1267 -0.3001
  779SOL    HW1 2702   3.167   4.205   0.196  2.6434 -0.3362  1.0528
  779SOL    HW2 2703   3.216   4.314   0.103 -0.4533 -0.1085 -0.4394
  780SOL     OW 2704   6.126   0.982   5.044  0.4461  0.4240 -0.1734
  780SOL    HW1 2705   6.094   0.929   5.117 -1.8870  0.0741 -1.3587
  780SOL    HW2 2706   6.183   0.923   4.994  0.3720  0.0154  0.2229
  781SOL     OW 2707   0.436   3.006   4.161 -0.2756  0.4238  0.4407
  781SOL    HW1 2708   0.451   3.084   4.108  0.8664 -0.6272 -0.8573
  781SOL    HW2 2709   0.506   3.008   4.227 -0.5212  0.7264  0.6929
  782SOL     OW 2710   1.782   1.916   3.915  0.2146  0.4296  0.8730
  782SOL    HW1 2711   1.870   1.888   3.890 -1.0079 -2.5304 -0.5588
  782SOL    HW2 2712   1.760   1.984   3.852  1.2005  0.6782  0.7749
  783SOL     OW 2713   5.194   2.978   5.407 -0.1249  0.3361 -0.0583
  783SOL    HW1 2714   5.245   3.001   5.329 -1.3562  0.4875 -0.8471
  783SOL    HW2 2715   5.153   2.894   5.385  1.7210 -1.0670  1.5347
  784SOL     OW 2716   0.146   5.635   3.491 -0.3637 -0.3042  0.2290
  784SOL    HW1 2717   0.220   5.579   3.465  1.1654  1.1317  1.2660
  784SOL    HW2 2718   0.115   5.597   3.574  1.2944  0.8589  1.4370
  785SOL     OW 2719   3.123   2.154   1.769  0.3979 -0.4251 -0.4694
  785SOL    HW1 2720   3.041   2.174   1.814  1.3198  2.5671  0.1415
  785SOL    HW2 2721   3.163   2.085   1.822 -0.7740 -0.4494  0.4258
  786SOL     OW 2722   2.606   1.347   5.739  0.0910  0.6105  0.0554
  786SOL    HW1 2723   2.700   1.359   5.727  0.0841 -0.2776 -1.1334
  786SOL    HW2 2724   2.594   1.340   5.834  1.0708  1.7629  0.2896
  787SOL     OW 2725   4.770   0.911   4.381  0.1751 -0.4862  0.1018
  787SOL    HW1 2726   4.720   0.953   4.451 -1.6429 -0.6609 -1.0208
  787SOL    HW2 2727   4.847   0.967   4.369 -1.2325  1.5181 -0.0859
  788SOL     OW 2728   0.746   1.903   4.397  0.6365 -0.0784  0.6121
  788SOL    HW1 2729   0.727   1.991   4.362 -2.6012 -0.3667  1.4146
  788SOL    HW2 2730   0.723   1.844   4.325 -0.9375 -0.4246  1.3837
  789SOL     OW 2731   4.150   3.179   6.610 -0.3931 -0.5191  0.0728
  789SOL    HW1 2732   4.112   3.168   6.523 -1.1872  2.0464  0.0157
  789SOL    HW2 2733   4.093   3.242   6.654  1.6351  0.5283  1.3670
  790SOL     OW 2734   5.395   3.710   0.713 -0.6953 -0.1908 -1.0153
  790SOL    HW1 2735   5.357   3.758   0.639 -2.3925 -0.2859 -0.2421
  790SOL    HW2 2736   5.406   3.777   0.781  1.7925  0.1075 -1.6229
  791SOL     OW 2737   4.909   4.855   2.655 -0.6084 -0.1189  0.2672
  791SOL    HW1 2738   4.868   4.894   2.578 -0.6867  1.4666  1.0471
  791SOL    HW2 2739   4.987   4.909   2.670 -0.6088 -0.3829  1.2999
  792SOL     OW 2740   5.613   2.326   1.044 -0.2823  0.2885 -0.1347
  792SOL    HW1 2741   5.606   2.380   0.965  2.5866  0.9667 -0.0551
  792SOL    HW2 2742   5.546   2.359   1.103 -0.4333  1.8759 -1.1520
  793SOL     OW 2743   2.422   2.678   6.628  0.2064  0.6146  0.0088
  793SOL    HW1 2744   2.406   2.586   6.606  1.7934 -0.0528  1.4253
  793SOL    HW2 2745   2.516   2.690   6.610  0.1482  1.7814  0.4365
  794SOL     OW 2746   5.450   1.471   2.982 -0.2035 -0.4286  0.3077
  794SOL    HW1 2747   5.416   1.400   3.036 -0.6646  0.4054  1.1325
  794SOL    HW2 2748   5.526   1.433   2.938 -0.9808 -1.7097  0.0111
  795SOL     OW 2749   1.023   2.260   5.605  0.2962 -0.5766 -0.1337
  795SOL    HW1 2750   1.074   2.193   5.651 -1.2517 -0.3422  2.0811
  795SOL    HW2 2751   1.041   2.341   5.653 -1.1530 -0.2559 -0.0940
  796SOL     OW 2752   2.231   1.455   3.449 -0.8370 -0.2034  0.3884
  796SOL    HW1 2753   2.199   1.450   3.359  0.5778  1.0221 -0.2263
  796SOL    HW2 2754   2.312   1.404   3.448  0.2152  1.4151  0.4393
  797SOL     OW 2755   4.756   3.846   0.318  0.2364  0.2250 -0.2185
  797SOL    HW1 2756   4.697   3.875   0.249 -0.5389  1.3235  0.8515
  797SOL    HW2 2757   4.757   3.918   0.381  0.4192 -0.9662  1.2190
  798SOL     OW 2758   5.194   3.348   1.361  0.1904 -0.4881  0.1837
  798SOL    HW1 2759   5.138   3.368   1.286  0.0311  1.3446  0.7352
  798SOL    HW2 2760   5.208   3.433   1.404  2.4359 -1.0829  0.7499
  799SOL     OW 2761   6.628   0.590   6.726 -0.0212 -0.2576 -0.2878
  799SOL    HW1 2762   6.634   0.610   6.633 -1.7829  2.8491  0.1215
  799SOL    HW2 2763   6.563   0.521   6.732 -0.9138  0.4549 -1.3240
  800SOL     OW 2764   2.161   4.418   0.455  0.1764  0.1859 -0.0908
  800SOL    HW1 2765   2.170   4.389   0.364 -0.5310  0.3985 -0.2378
  800SOL    HW2 2766   2.067   4.410   0.473  0.3346 -0.0453  0.6873
  801SOL     OW 2767   5.893   1.973   3.109  0.0478 -0.0685 -0.0338
  801SOL    HW1 2768   5.807   1.930   3.110 -0.3368  0.6807  1.1413
  801SOL    HW2 2769   5.954   1.903   3.085 -1.0508 -0.1901 -2.8481
  802SOL     OW 2770   1.760   1.098   6.560  0.1906 -0.5477 -0.6473
  802SOL    HW1 2771   1.676   1.083   6.517  0.7142 -1.5651 -1.3737
  802SOL    HW2 2772   1.813   1.141   6.492  0.7025 -1.2320 -0.6906
  803SOL     OW 2773   1.924   1.085   6.759 -0.5787 -0.3928 -0.0391
  803SOL    HW1 2774   2.000   1.123   6.715 -0.9875  0.2183 -0.2322
  803SOL    HW2 2775   1.858   1.075   6.690 -1.3456  0.9038  0.4581
  804SOL     OW 2776   0.948   0.656   6.247 -0.3451  0.2892 -0.3053
  804SOL    HW1 2777   0.927   0.722   6.313  2.5367 -0.1907  1.2485
  804SOL    HW2 2778   1.007   0.701   6.186  2.2581 -0.8887  1.1844
  805SOL     OW 2779   2.936   0.688   5.670  0.4039 -0.3200 -0.6171
  805SOL    HW1 2780   2.900   0.774   5.691 -0.6235 -1.1871  1.4695
  805SOL    HW2 2781   3.023   0.706   5.634  0.2642  1.5648 -0.1086
  806SOL     OW 2782   4.629   2.214   5.630 -1.2678 -0.2547 -0.2155
  806SOL    HW1 2783   4.686   2.275   5.583 -1.5338  1.3711  1.4672
  806SOL    HW2 2784   4.657   2.128   5.599  0.0432  0.6277 -1.6814
  807SOL     OW 2785   0.953   4.458   4.127  0.2285 -0.4725  0.1650
  807SOL    HW1 2786   0.958   4.549   4.156  0.9874 -0.6461  0.6132
  807SOL    HW2 2787   0.859   4.439   4.121  0.0391  0.6273 -0.8737
  808SOL     OW 2788   6.533   3.101   4.022  0.2544  0.1871 -0.6257
  808SOL    HW1 2789   6.485   3.072   3.944  0.4049 -0.4102 -0.4957
  808SOL    HW2 2790   6.522   3.030   4.085 -2.6709  1.9901  1.1519
  809SOL     OW 2791   3.254   2.087   5.906 -0.9292  0.1465 -0.3455
  809SOL    HW1 2792   3.348   2.093   5.888 -1.2523  0.3360 -2.1360
  809SOL    HW2 2793   3.246   2.010   5.962  0.3679  0.6221  0.5448
  810SOL     OW 2794   6.419   3.436   3.315 -0.1155 -0.1309 -0.0485
  810SOL    HW1 2795   6.446   3.409   3.227 -0.2308  0.3166 -0.2226
  810SOL    HW2 2796   6.329   3.406   3.322  0.0814 -0.6939  0.1426
  811SOL     OW 2797   6.410   2.485   1.790  0.1554  0.1963 -0.6809
  811SOL    HW1 2798   6.376   2.501   1.878  0.1357  1.7908 -0.9575
  811SOL    HW2 2799   6.335   2.451   1.741  0.6712 -2.8878  0.4176
  812SOL     OW 2800   4.248   4.491   0.490  0.4261  0.2133  0.3572
  812SOL    HW1 2801   4.252   4.410   0.541 -0.8072  0.7731  1.3815
  812SOL    HW2 2802   4.217   4.463   0.404  0.6778 -0.4846  0.4837
  813SOL     OW 2803   2.798   1.458   0.842 -0.2583 -0.0054  0.1051
  813SOL    HW1 2804   2.862   1.408   0.792 -0.1469  0.4738 -0.2455
  813SOL    HW2 2805   2.722   1.401   0.848 -0.3623  0.0236 -0.8340
  814SOL     OW 2806   2.818   2.457   5.415 -0.0319  0.2050  0.2682
  814SOL    HW1 2807   2.769   2.394   5.363  0.6612  0.8902 -1.2925
  814SOL    HW2 2808   2.752   2.511   5.456 -0.8289  2.7719 -3.8055
  815SOL     OW 2809   4.719   6.452   5.905  0.1185 -0.0034  0.2398
  815SOL    HW1 2810   4.733   6.425   5.996 -0.4450 -1.0147  0.0437
  815SOL    HW2 2811   4.795   6.418   5.858  0.5579  0.7720  0.3612
  816SOL     OW 2812   3.939   6.795   1.418  0.2634  0.3461 -0.3285
  816SOL    HW1 2813   3.985   6.769   1.498  0.7640 -0.9290 -1.0032
  816SOL    HW2 2814   4.009   6.823   1.358  0.1868 -1.2604 -1.2344
  817SOL     OW 2815   2.782   0.571   5.442 -0.0145  0.0572  0.1298
  817SOL    HW1 2816   2.871   0.577   5.477 -0.5485  0.6896  1.4477
  817SOL    HW2 2817   2.794   0.553   5.349  1.4865  0.1060  0.2872
  818SOL     OW 2818   3.822   0.150   4.899  0.1458 -0.2890  0.1443
  818SOL    HW1 2819   3.794   0.168   4.809 -0.4862  0.8036  0.5375
  818SOL    HW2 2820   3.890   0.215   4.916  0.5705 -0.7740  0.3163
  819SOL     OW 2821   1.352   6.144   1.723 -0.1759  0.0242  0.2919
  819SOL    HW1 2822   1.333   6.082   1.653 -0.9564  0.5382  0.0294
  819SOL    HW2 2823   1.268   6.188   1.739  0.8105  2.6409 -1.1298
  820SOL     OW 2824   1.755   5.130   0.186 -0.0082  0.3633 -0.5906
  820SOL    HW1 2825   1.782   5.054   0.134 -0.9354  0.2455 -0.9105
  820SOL    HW2 2826   1.701   5.182   0.127 -1.2193  0.1419  0.2896
  821SOL     OW 2827   2.080   5.112   2.391 -0.4634 -0.1598  0.4008
  821SOL    HW1 2828   2.134   5.190   2.377 -0.2698 -0.1776  0.9979
  821SOL    HW2 2829   2.018   5.111   2.318  0.7822 -0.5174 -0.6655
  822SOL     OW 2830   5.183   3.836   6.240  0.3815 -0.3938  0.1590
  822SOL    HW1 2831   5.166   3.742   6.244 -0.4886 -0.2738 -0.3370
  822SOL    HW2 2832   5.124   3.868   6.172  0.2896  0.5850  0.6752
  823SOL     OW 2833   0.898   4.475   0.807  0.1021 -0.8814  0.3170
  823SOL    HW1 2834   0.845   4.553   0.825  0.3764 -0.8552  1.0130
  823SOL    HW2 2835   0.883   4.457   0.714  0.0407  0.0038  0.1504
  824SOL     OW 2836   0.828   5.664   2.975 -0.0276  0.3998  0.1460
  824SOL    HW1 2837   0.765   5.622   3.033 -1.4146  0.2819 -1.4011
  824SOL    HW2 2838   0.852   5.597   2.911  1.7510  0.4197  0.7305
  825SOL     OW 2839   1.120   2.818   0.309  0.4895  0.5378  0.2208
  825SOL    HW1 2840   1.162   2.753   0.364  0.8495  0.7580  0.2093
  825SOL    HW2 2841   1.074   2.767   0.242  2.2549  0.3069 -0.8768
  826SOL     OW 2842   4.595   6.477   6.777 -0.0503 -0.1341  0.6208
  826SOL    HW1 2843   4.517   6.442   6.820 -0.3600 -0.3422 -0.0847
  826SOL    HW2 2844   4.665   6.467   6.841 -0.1945 -1.7752  0.5660
  827SOL     OW 2845   0.927   3.720   1.002 -0.9710  0.1624 -0.2531
  827SOL    HW1 2846   0.833   3.720   0.982 -1.2682 -1.4903  0.9411
  827SOL    HW2 2847   0.931   3.718   1.098  0.2308 -1.3108 -0.2950
  828SOL     OW 2848   5.361   5.208   5.345  0.0143  0.2208  0.7316
  828SOL    HW1 2849   5.375   5.133   5.402 -1.0074 -0.1741  0.4771
  828SOL    HW2 2850   5.288   5.256   5.384 -0.3427  0.2371  0.0550
  829SOL     OW 2851   5.883   1.029   0.457  0.1410 -0.7593 -0.5989
  829SOL    HW1 2852   5.863   0.938   0.436 -0.0380 -0.6129 -1.0598
  829SOL    HW2 2853   5.840   1.080   0.389  0.8289 -0.3606 -0.7489
  830SOL     OW 2854   5.701   2.181   4.027 -0.3227  0.2589  0.2879
  830SOL    HW1 2855   5.755   2.248   3.985 -1.1029  0.0863 -1.0456
  830SOL    HW2 2856   5.613   2.196   3.993 -0.9765  0.0442  1.8239
  831SOL     OW 2857   6.501   2.891   4.490 -0.1960  0.7093  0.3877
  831SOL    HW1 2858   6.559   2.937   4.428 -1.7518  0.6378 -1.2158
  831SOL    HW2 2859   6.537   2.802   4.494  0.2811  0.8795  0.0762
  832SOL     OW 2860   1.493   3.036   0.891  0.5421  0.0421  0.2695
  832SOL    HW1 2861   1.565   3.060   0.833 -1.7635  1.1766 -2.3793
  832SOL    HW2 2862   1.464   3.118   0.929  0.6666 -0.4149  1.3902
  833SOL     OW 2863   0.860   2.226   3.658  0.4012 -0.0398 -0.2060
  833SOL    HW1 2864   0.867   2.174   3.578 -0.2350 -0.1156 -0.2163
  833SOL    HW2 2865   0.918   2.300   3.643  0.6160 -0.2718 -0.5622
  834SOL     OW 2866   4.638   6.226   4.121  0.7767 -0.1168 -0.7817
  834SOL    HW1 2867   4.611   6.158   4.058  0.5497  0.2915 -1.1288
  834SOL    HW2 2868   4.558   6.276   4.138  1.3645  1.3868 -2.1687
  835SOL     OW 2869   6.650   1.936   4.530 -0.2705 -0.5665  0.0027
  835SOL    HW1 2870   6.682   1.909   4.616 -1.8807 -1.1963  0.4496
  835SOL    HW2 2871   6.586   2.004   4.549  0.9063  0.8211 -0.8689
  836SOL     OW 2872   2.319   0.045   4.729 -0.3021 -0.5417  0.0053
  836SOL    HW1 2873   2.275   0.077   4.650  0.1912  3.4577  1.1604
  836SOL    HW2 2874   2.252   0.045   4.796  0.3541  1.0626  0.7027
  837SOL     OW 2875   4.560   2.236   4.916 -1.0202  0.0261 -0.0307
  837SOL    HW1 2876   4.544   2.330   4.912 -2.0920 -0.1452 -0.0431
  837SOL    HW2 2877   4.508   2.206   4.991 -3.0172 -0.9885 -1.7383
  838SOL     OW 2878   6.723   0.160   2.463  0.0121 -0.2414 -0.1532
  838SOL    HW1 2879   6.785   0.233   2.460  0.6532 -0.7361  0.8137
  838SOL    HW2 2880   6.666   0.175   2.387 -0.8665  2.1182  0.8710
  839SOL     OW 2881   3.457   2.079   5.734  0.3010 -0.2616  0.1920
  839SOL    HW1 2882   3.498   2.108   5.652  2.2851  0.3628  1.3202
  839SOL    HW2 2883   3.384   2.024   5.707  1.2545 -0.5457 -1.9876
  840SOL     OW 2884   5.910   5.083   5.967  0.5033 -0.2934 -0.3881
  840SOL    HW1 2885   5.925   5.152   6.031  2.8834 -0.0811 -1.0798
  840SOL    HW2 2886   5.976   5.099   5.899  0.1294 -2.3684 -1.3048
  841SOL     OW 2887   1.064   2.937   3.409 -0.2916 -0.1572 -0.1115
  841SOL    HW1 2888   1.112   2.918   3.329  0.6991 -0.0533  0.4403
  841SOL    HW2 2889   1.127   2.921   3.479 -1.2898 -0.7344  0.6825
  842SOL     OW 2890   6.386   4.125   3.156 -0.4681  0.1913  0.2108
  842SOL    HW1 2891   6.411   4.048   3.105  1.0340  0.3070  0.7319
  842SOL    HW2 2892   6.469   4.169   3.176 -1.1145  0.7702  1.7903
  843SOL     OW 2893   2.371   6.130   1.516  0.2416  0.1510 -0.3044
  843SOL    HW1 2894   2.315   6.086   1.579  1.5881 -0.7775  0.2962
  843SOL    HW2 2895   2.447   6.158   1.567  0.4247  1.2244 -1.1235
  844SOL     OW 2896   5.105   2.321   6.642 -0.0362 -0.5357 -0.0718
  844SOL    HW1 2897   5.023   2.370   6.635  0.1773 -0.3047 -1.0872
  844SOL    HW2 2898   5.090   2.242   6.591 -0.2541 -1.3901  1.2692
  845SOL     OW 2899   6.467   3.888   3.046 -0.4964  0.1572 -0.2094
  845SOL    HW1 2900   6.443   3.817   3.106  0.9215  1.3455  1.8732
  845SOL    HW2 2901   6.488   3.843   2.964 -0.7969 -1.7180  0.6693
  846SOL     OW 2902   3.791   6.382   3.053 -0.0311  0.5655 -0.4880
  846SOL    HW1 2903   3.818   6.352   3.140 -1.5297 -0.8116 -0.4553
  846SOL    HW2 2904   3.750   6.467   3.069 -1.4648 -0.2472  0.3877
  847SOL     OW 2905   6.049   6.316   3.588 -0.3159 -0.1241 -0.1824
  847SOL    HW1 2906   5.998   6.388   3.552 -0.5647  0.2322  0.8582
  847SOL    HW2 2907   6.111   6.294   3.519  0.2278  1.5584 -0.2721
  848SOL     OW 2908   2.545   1.467   2.446  0.1527  0.2282 -0.1861
  848SOL    HW1 2909   2.557   1.413   2.524  1.4559 -2.0655 -1.8650
  848SOL    HW2 2910   2.451   1.488   2.446  0.0021 -0.2652  1.5995
  849SOL     OW 2911   6.758   5.622   1.978 -0.3132  0.6458 -0.1741
  849SOL    HW1 2912   6.847   5.615   2.012 -0.2888 -1.1280 -0.5161
  849SOL    HW2 2913   6.769   5.627   1.883 -0.5797 -0.0740 -0.2496
  850SOL     OW 2914   1.083   0.103   5.186  0.3925 -0.1099 -0.1779
  850SOL    HW1 2915   1.149   0.094   5.254  0.1428 -1.4540 -0.0981
  850SOL    HW2 2916   1.006   0.137   5.233  0.5449 -0.0115  0.0060
  851SOL     OW 2917   0.247   3.324   0.886 -0.1487  0.2281  0.4595
  851SOL    HW1 2918   0.219   3.308   0.976 -0.4286  2.3235  0.7939
  851SOL    HW2 2919   0.286   3.412   0.888 -0.1072  0.2941 -1.4470
  852SOL     OW 2920   0.433   0.057   3.179 -0.5010  0.7834  0.4788
  852SOL    HW1 2921   0.406   0.018   3.263  0.9714 -0.8394  0.2439
  852SOL    HW2 2922   0.433  -0.016   3.117 -1.2141  1.8881 -0.8882
  853SOL     OW 2923   5.089   0.061   3.026  0.1923 -0.1628  0.3435
  853SOL    HW1 2924   5.119  -0.029   3.014  1.7336  0.1253  1.6747
  853SOL    HW2 2925   4.997   0.060   3.000 -0.1330 -2.3750  1.3636
  854SOL     OW 2926   0.780   6.213   1.370 -0.3647  0.3162 -0.2323
  854SOL    HW1 2927   0.783   6.118   1.358  0.4200  0.2131  0.6483
  854SOL    HW2 2928   0.783   6.225   1.465 -2.1970  1.1897 -0.2488
  855SOL     OW 2929   2.480   1.143   5.325 -0.2187 -0.1397  0.2102
  855SOL    HW1 2930   2.542   1.162   5.255 -0.7129 -1.1021 -0.5049
  855SOL    HW2 2931   2.427   1.223   5.331 -0.9207 -0.4441 -1.3261
  856SOL     OW 2932   5.112   4.238   3.704 -0.2257  0.2255  0.0172
  856SOL    HW1 2933   5.029   4.193   3.689 -0.5231  0.8496 -0.2253
  856SOL    HW2 2934   5.132   4.219   3.796 -1.8997  2.0721  0.8563
  857SOL     OW 2935   4.633   6.144   5.361  0.7446 -0.2457 -0.0069
  857SOL    HW1 2936   4.559   6.107   5.313 -0.0189 -0.3829  1.2354
  857SOL    HW2 2937   4.628   6.104   5.448  1.9380  0.1896  0.2858
  858SOL     OW 2938   5.807   1.741   4.443 -0.1543 -0.3145 -0.1018
  858SOL    HW1 2939   5.813   1.712   4.351  1.1218  0.4308 -0.2810
  858SOL    HW2 2940   5.802   1.660   4.493 -1.9720 -0.7204 -0.8720
  859SOL     OW 2941   5.409   6.243   1.395  0.1169  0.0861 -0.9941
  859SOL    HW1 2942   5.431   6.150   1.399  0.9417  0.2234 -1.8981
  859SOL    HW2 2943   5.317   6.247   1.421  0.6693 -0.6940  1.3196
  860SOL     OW 2944   5.269   0.846   2.187 -0.0349  0.2688 -0.5253
  860SOL    HW1 2945   5.274   0.869   2.094  1.4676  0.5789 -0.3842
  860SOL    HW2 2946   5.193   0.895   2.219 -1.6388 -1.1514 -1.9232
  861SOL     OW 2947   0.380   1.257   4.444 -0.0639 -0.2656 -0.1309
  861SOL    HW1 2948   0.469   1.290   4.429 -0.4494  0.4366 -1.0455
  861SOL    HW2 2949   0.373   1.248   4.539  0.0971  2.3011  0.1892
  862SOL     OW 2950   3.612   2.206   6.653  0.3231  0.1555 -0.0185
  862SOL    HW1 2951   3.573   2.291   6.628 -1.4244 -0.4266  0.5429
  862SOL    HW2 2952   3.682   2.229   6.714  0.3183  1.2370 -0.3941
  863SOL     OW 2953   6.015   0.346   6.161 -0.7034 -0.0645 -0.0944
  863SOL    HW1 2954   5.943   0.370   6.103 -1.1555  0.4090  0.6463
  863SOL    HW2 2955   5.986   0.265   6.204  0.3356 -1.3574 -1.7397
  864SOL     OW 2956   4.706   6.690   3.834  0.4084 -0.0299  0.6215
  864SOL    HW1 2957   4.668   6.718   3.917 -0.5553  0.6873 -0.0270
  864SOL    HW2 2958   4.762   6.763   3.807 -1.4025  0.9960 -0.6351
  865SOL     OW 2959   2.935   0.227   1.261  0.4427 -0.1813  0.6258
  865SOL    HW1 2960   2.911   0.192   1.175 -0.3017 -3.8105  2.1442
  865SOL    HW2 2961   3.029   0.210   1.268  0.3092 -0.8343  0.8972
  866SOL     OW 2962   5.673   6.526   1.794  0.0667 -0.4827  0.5871
  866SOL    HW1 2963   5.607   6.478   1.743 -0.0260  0.5613 -0.3000
  866SOL    HW2 2964   5.749   6.530   1.736 -0.3584  1.5531  0.0992
  867SOL     OW 2965   4.890   3.085   1.094  0.0218  0.0764 -0.3816
  867SOL    HW1 2966   4.888   3.125   1.181 -0.3469  0.2641 -0.4717
  867SOL    HW2 2967   4.931   2.999   1.107 -2.1109 -0.8920  0.4205
  868SOL     OW 2968   1.342   0.343   4.299 -0.1743  0.6330 -0.2520
  868SOL    HW1 2969   1.391   0.263   4.318  0.4303  0.8627 -0.7890
  868SOL    HW2 2970   1.260   0.334   4.348 -0.1560 -0.3584 -0.3812
  869SOL     OW 2971   0.620   1.319   5.797 -0.4022  0.7025  0.7479
  869SOL    HW1 2972   0.647   1.231   5.771 -1.2090  0.5037  0.5299
  869SOL    HW2 2973   0.688   1.350   5.856  1.8734  1.4092 -2.0524
  870SOL     OW 2974   0.882   0.593   2.903 -0.0404  0.1079  0.4662
  870SOL    HW1 2975   0.952   0.546   2.858 -0.8150 -0.2202 -0.4345
  870SOL    HW2 2976   0.807   0.532   2.901 -0.6288  0.8170  0.5486
  871SOL     OW 2977   1.912   4.972   6.538 -0.3521 -0.1631  0.0449
  871SOL    HW1 2978   1.892   5.031   6.466  1.1139 -0.0032 -0.2611
  871SOL    HW2 2979   1.992   5.007   6.577 -1.9160  0.6679  2.7905
  872SOL     OW 2980   3.315   0.338   5.276  0.0390  0.0841 -0.0838
  872SOL    HW1 2981   3.373   0.337   5.353  0.5994  0.3922 -0.4922
  872SOL    HW2 2982   3.268   0.255   5.281  0.3144 -0.0497  0.4145
  873SOL     OW 2983   2.575   6.019   6.197  0.3889 -0.2664  0.0222
  873SOL    HW1 2984   2.586   6.060   6.112 -0.0911  1.6673  0.8440
  873SOL    HW2 2985   2.640   6.061   6.253 -1.1609  0.5636  1.2755
  874SOL     OW 2986   5.817   5.973   3.042 -0.3030  0.0184 -0.4091
  874SOL    HW1 2987   5.774   6.048   3.083 -0.9483 -0.0596 -0.9186
  874SOL    HW2 2988   5.853   5.923   3.115  0.8588  1.2366 -0.0986
  875SOL     OW 2989   6.793   0.281   6.686  0.0683  0.5596 -0.9846
  875SOL    HW1 2990   6.718   0.319   6.732  0.7782  0.1379  0.5907
  875SOL    HW2 2991   6.832   0.221   6.749  0.8960 -0.3214 -2.2823
  876SOL     OW 2992   0.802   6.594   3.032 -0.5432 -0.1687 -0.2604
  876SOL    HW1 2993   0.727   6.557   2.984 -0.1302 -0.8351 -0.3991
  876SOL    HW2 2994   0.843   6.654   2.970 -2.2613  1.9705  0.5420
  877SOL     OW 2995   3.654   4.745   4.251 -0.5087  0.0106 -0.1848
  877SOL    HW1 2996   3.649   4.721   4.158 -1.6467 -0.1920 -0.0863
  877SOL    HW2 2997   3.714   4.819   4.254  1.5571 -1.5620 -0.7570
  878SOL     OW 2998   6.055   1.563   5.866 -0.0384 -0.0239  0.1307
  878SOL    HW1 2999   5.975   1.545   5.914 -0.8870  1.3119 -0.7105
  878SOL    HW2 3000   6.058   1.497   5.797 -0.7283  0.2730 -0.1875
  879SOL     OW 3001   1.287   0.180   6.470 -0.3389 -0.1877 -0.4822
  879SOL    HW1 3002   1.283   0.091   6.435  0.0341 -0.3621 -0.0831
  879SOL    HW2 3003   1.368   0.216   6.435 -0.0651 -0.2946  0.0393
  880SOL     OW 3004   2.379   3.494   1.245 -0.3900  0.0452 -0.6365
  880SOL    HW1 3005   2.417   3.414   1.208  0.1028  0.4060 -0.9143
  880SOL    HW2 3006   2.289   3.470   1.266 -0.2620 -0.5665 -0.7773
  881SOL     OW 3007   4.200   0.281   6.273  0.0942 -0.1253 -0.0854
  881SOL    HW1 3008   4.136   0.212   6.255 -0.5525  0.1881  0.9464
  881SOL    HW2 3009   4.285   0.238   6.260 -0.3113 -0.6023 -1.2350
  882SOL     OW 3010   6.767   2.928   5.048  0.6719 -0.0048 -0.4264
  882SOL    HW1 3011   6.720   2.959   4.971  1.5140 -2.6592 -2.1581
  882SOL    HW2 3012   6.740   2.836   5.057  1.3949 -0.0568  1.8473
  883SOL     OW 3013   6.476   5.185   0.773 -0.4511 -0.5600  0.2542
  883SOL    HW1 3014   6.532   5.234   0.713  0.7602  0.1567  1.8871
  883SOL    HW2 3015   6.525   5.106   0.792  0.3645  0.3417  2.1533
  884SOL     OW 3016   2.727   3.184   6.013  0.3113  0.7252 -0.3362
  884SOL    HW1 3017   2.707   3.094   6.040  0.1326  0.8601  0.0008
  884SOL    HW2 3018   2.641   3.225   6.002  0.3905  0.7996 -0.6763
  885SOL     OW 3019   0.490   3.950   0.249  0.3678 -0.2801 -0.2968
  885SOL    HW1 3020   0.512   3.906   0.167  0.0012  1.4297 -1.3679
  885SOL    HW2 3021   0.397   3.973   0.240  0.8943  2.0552 -0.5079
  886SOL     OW 3022   0.371   2.977   3.280  0.1471  0.3987 -0.4686
  886SOL    HW1 3023   0.318   2.959   3.202  0.3554  0.2412 -0.5743
  886SOL    HW2 3024   0.426   2.900   3.290  1.7459  1.3523 -1.4958
  887SOL     OW 3025   4.844   4.207   4.003  0.5832  0.3445 -0.1019
  887SOL    HW1 3026   4.836   4.253   3.919  2.2215 -0.4857 -0.7760
  887SOL    HW2 3027   4.872   4.119   3.978 -2.3516 -1.0639  1.1386
  888SOL     OW 3028   0.119   5.795   6.016  0.2602 -0.2634  0.5386
  888SOL    HW1 3029   0.130   5.718   5.961 -2.5262  0.8705 -1.8607
  888SOL    HW2 3030   0.151   5.868   5.963 -3.9703  1.0792 -0.5592
  889SOL     OW 3031   2.609   5.641   5.737 -0.2054  0.1208  0.6169
  889SOL    HW1 3032   2.647   5.556   5.715  1.7936  0.5857  1.9669
  889SOL    HW2 3033   2.542   5.622   5.801 -1.2499 -0.5869 -0.6295
  890SOL     OW 3034   2.397   4.541   3.133  0.1852  0.3325 -0.0243
  890SOL    HW1 3035   2.423   4.564   3.044 -1.2352  0.4659 -0.4284
  890SOL    HW2 3036   2.463   4.478   3.162  1.7939  1.7759 -0.4165
  891SOL     OW 3037   2.005   5.826   6.143 -0.4562  0.0603  0.2264
  891SOL    HW1 3038   1.913   5.815   6.167 -0.7984  0.2592 -0.9748
  891SOL    HW2 3039   2.010   5.802   6.051  0.3587  1.7079 -0.2021
  892SOL     OW 3040   4.498   3.668   6.457 -0.7043  0.0728 -0.3117
  892SOL    HW1 3041   4.473   3.598   6.517  1.0877 -0.3887 -0.0340
  892SOL    HW2 3042   4.555   3.725   6.509 -1.2822  1.1651 -0.8328
  893SOL     OW 3043   5.608   6.287   5.346 -0.0494  0.7892  0.3169
  893SOL    HW1 3044   5.696   6.251   5.335 -0.2643 -0.0153  1.0589
  893SOL    HW2 3045   5.571   6.236   5.418 -1.5936  0.2432 -0.8218
  894SOL     OW 3046   6.324   6.176   4.254  0.6780  0.1202 -0.3715
  894SOL    HW1 3047   6.359   6.265   4.251  1.3109 -0.1022  0.2161
  894SOL    HW2 3048   6.341   6.142   4.166  1.6672  0.1247 -0.1905
  895SOL     OW 3049   3.381   5.748   4.613 -0.1360  0.3220  0.2896
  895SOL    HW1 3050   3.303   5.798   4.586 -0.5564 -0.3855  0.1401
  895SOL    HW2 3051   3.449   5.774   4.551 -0.0990  1.3332  0.7367
  896SOL     OW 3052   5.318   1.737   3.463 -0.2885 -0.5830  0.1105
  896SOL    HW1 3053   5.316   1.652   3.419 -0.8161  0.0454 -1.1281
  896SOL    HW2 3054   5.348   1.798   3.396 -3.7129  0.8747 -0.2962
  897SOL     OW 3055   1.628   6.738   1.178  0.0478 -0.3626  0.1034
  897SOL    HW1 3056   1.627   6.663   1.119 -0.7657 -1.2300  1.1878
  897SOL    HW2 3057   1.566   6.716   1.247 -0.4908  1.4745  0.2652
  898SOL     OW 3058   4.548   2.486   1.020  0.0459 -0.4603  0.1689
  898SOL    HW1 3059   4.522   2.578   1.009  1.0476 -0.2377 -0.4974
  898SOL    HW2 3060   4.468   2.437   1.007 -0.6474  0.3512  1.2040
  899SOL     OW 3061   0.591   0.138   2.372  0.2119  0.0516  0.2662
  899SOL    HW1 3062   0.671   0.088   2.356  1.3682  1.0251  2.5043
  899SOL    HW2 3063   0.590   0.205   2.304  0.8852 -0.4491 -0.2480
  900SOL     OW 3064   1.889   2.574   5.661  0.1395  0.2174 -0.1672
  900SOL    HW1 3065   1.882   2.575   5.757  2.4476 -2.5328  0.1525
  900SOL    HW2 3066   1.972   2.618   5.643  1.0429 -1.5794 -0.6228
  901SOL     OW 3067   4.586   2.190   1.952  0.1656  0.3480  0.3272
  901SOL    HW1 3068   4.537   2.227   1.878  1.0940  0.2919 -0.3279
  901SOL    HW2 3069   4.635   2.118   1.915  0.0455 -0.1889  1.1731
  902SOL     OW 3070   2.606   5.764   1.318 -0.1437 -0.3026  0.1820
  902SOL    HW1 3071   2.680   5.709   1.344  0.2208  0.1343  0.0955
  902SOL    HW2 3072   2.578   5.806   1.399  0.5617  0.5433  0.0100
  903SOL     OW 3073   0.976   1.004   2.042 -0.7278 -0.4816 -0.1044
  903SOL    HW1 3074   1.054   0.970   2.086 -1.6857 -2.0552  0.4724
  903SOL    HW2 3075   0.941   1.070   2.103 -0.2791 -0.3109 -0.0267
  904SOL     OW 3076   1.943   3.940   1.905 -0.3029 -0.2971  0.3449
  904SOL    HW1 3077   1.998   3.871   1.942  0.3132 -0.8957 -1.6079
  904SOL    HW2 3078   2.002   3.992   1.851 -0.1010  3.5047  3.6782
  905SOL     OW 3079   1.063   0.789   6.032  0.1788  0.5592  0.1108
  905SOL    HW1 3080   1.021   0.778   5.947 -0.9720  0.8370  0.6355
  905SOL    HW2 3081   1.126   0.859   6.019  0.3389  0.2898 -0.6249
  906SOL     OW 3082   5.966   4.969   0.143  0.1610 -0.2400 -0.2482
  906SOL    HW1 3083   5.927   4.892   0.184  0.2858 -1.1861 -1.8125
  906SOL    HW2 3084   6.040   4.992   0.198 -0.3831 -0.7181  0.6964
  907SOL     OW 3085   1.608   1.715   3.726  0.4318 -0.4208  0.4341
  907SOL    HW1 3086   1.521   1.712   3.766 -0.1215  0.0412 -0.6859
  907SOL    HW2 3087   1.655   1.782   3.776 -0.5784  0.8826 -0.2948
  908SOL     OW 3088   4.021   0.311   4.893  0.1560  0.3412  0.7464
  908SOL    HW1 3089   4.072   0.319   4.974  0.5477 -0.1986  0.5595
  908SOL    HW2 3090   4.083   0.333   4.824  0.1260 -0.2994  0.5182
  909SOL     OW 3091   3.084   1.456   1.991 -0.5542  0.0762 -0.0304
  909SOL    HW1 3092   3.008   1.481   1.938 -0.5564 -1.0739 -0.5903
  909SOL    HW2 3093   3.055   1.379   2.040 -0.0493  0.2119  0.4990
  910SOL     OW 3094   6.667   4.453   6.694 -0.0733  0.3721 -0.6643
  910SOL    HW1 3095   6.582   4.494   6.711  0.3071  0.7772  0.2684
  910SOL    HW2 3096   6.684   4.398   6.770 -0.1546 -0.8511 -1.4896
  911SOL     OW 3097   4.146   2.159   1.862  0.3186  0.0854  0.5686
  911SOL    HW1 3098   4.192   2.133   1.942  1.8872 -0.7863 -0.5866
  911SOL    HW2 3099   4.083   2.089   1.847  0.4842 -0.0840  0.6606
  912SOL     OW 3100   2.038   1.987   4.617 -0.2704 -0.2967  0.1553
  912SOL    HW1 3101   2.000   1.902   4.639 -1.9526  0.9077  2.4064
  912SOL    HW2 3102   2.091   2.010   4.694 -0.0806  0.7939 -0.2815
  913SOL     OW 3103   4.722   2.705   0.601  0.0636  0.0044 -0.4712
  913SOL    HW1 3104   4.720   2.775   0.535 -3.7093  0.4967 -0.0421
  913SOL    HW2 3105   4.637   2.662   0.593 -0.2841 -0.3931  3.5510
  914SOL     OW 3106   2.044   1.083   6.487  0.2939 -0.6215 -0.0224
  914SOL    HW1 3107   2.049   1.173   6.454 -1.6637 -0.4863 -0.0658
  914SOL    HW2 3108   2.134   1.052   6.487  0.8773  0.9788 -1.0430
  915SOL     OW 3109   4.760   0.329   6.236 -0.4816 -0.4569 -0.3908
  915SOL    HW1 3110   4.675   0.350   6.275 -0.2843 -0.1322 -0.1219
  915SOL    HW2 3111   4.739   0.289   6.152 -0.9207 -1.5339  0.2221
  916SOL     OW 3112   3.505   3.486   3.393  0.3748  0.0484 -0.1254
  916SOL    HW1 3113   3.575   3.548   3.372 -0.8247  0.8766 -1.9315
  916SOL    HW2 3114   3.539   3.436   3.467  1.1528  3.3113  1.9368
  917SOL     OW 3115   2.268   2.293   4.904  0.2204  0.1224  0.2511
  917SOL    HW1 3116   2.202   2.335   4.848  0.5322 -0.0864 -0.2854
  917SOL    HW2 3117   2.248   2.323   4.992 -0.5876  0.0621  0.0903
  918SOL     OW 3118   4.389   6.738   5.419  0.1564 -0.2208 -0.1077
  918SOL    HW1 3119   4.428   6.667   5.469 -1.4379 -1.9814 -1.2698
  918SOL    HW2 3120   4.295   6.721   5.419 -0.3773  2.2343  0.0611
  919SOL     OW 3121   5.405   6.539   3.482  0.7621 -0.5868 -0.5726
  919SOL    HW1 3122   5.323   6.517   3.527  0.3248  3.1314  0.8007
  919SOL    HW2 3123   5.474   6.520   3.545  0.4834  0.7668  0.1786
  920SOL     OW 3124   2.474   0.404   0.521  0.4317  0.5152 -0.0591
  920SOL    HW1 3125   2.384   0.425   0.494  0.1091 -0.2625  0.3796
  920SOL    HW2 3126   2.477   0.428   0.614  1.1384  1.9290 -0.4174
  921SOL     OW 3127   6.780   4.220   0.479  0.4668 -0.2525 -0.1753
  921SOL    HW1 3128   6.771   4.260   0.566  0.7198  1.9513 -1.1239
  921SOL    HW2 3129   6.874   4.206   0.468  0.7431  1.9439 -1.0955
  922SOL     OW 3130   5.261   1.303   3.178  0.2352 -0.2490 -0.5452
  922SOL    HW1 3131   5.209   1.276   3.254  0.1658  0.9147 -0.1508
  922SOL    HW2 3132   5.219   1.261   3.103 -0.1572 -0.7993 -0.0243
  923SOL     OW 3133   1.942   1.421   4.785  0.2518  0.1483  0.1019
  923SOL    HW1 3134   1.964   1.427   4.878  0.4452 -0.9039  0.1397
  923SOL    HW2 3135   1.847   1.408   4.784  0.4321 -1.4741  0.2656
  924SOL     OW 3136   2.651   1.202   0.774 -0.0193 -0.5732 -0.1464
  924SOL    HW1 3137   2.725   1.152   0.740  1.1045 -0.7898  2.3979
  924SOL    HW2 3138   2.607   1.141   0.834 -0.4714  0.4817  0.6271
  925SOL     OW 3139   2.201   1.398   0.777 -0.4751 -0.1540  0.2049
  925SOL    HW1 3140   2.134   1.344   0.735 -0.2196 -0.0515 -0.3410
  925SOL    HW2 3141   2.247   1.338   0.836  0.5597 -0.8351 -1.2394
  926SOL     OW 3142   0.864   1.458   2.585 -0.2113 -0.1502  0.4776
  926SOL    HW1 3143   0.841   1.474   2.493  1.3261 -1.4657 -0.1796
  926SOL    HW2 3144   0.781   1.435   2.626 -0.6937 -1.2964 -1.0166
  927SOL     OW 3145   5.134   0.618   2.152 -0.0198  0.7293 -0.3348
  927SOL    HW1 3146   5.192   0.694   2.160 -0.2624  0.7422  1.9160
  927SOL    HW2 3147   5.046   0.653   2.169  0.0255 -0.2386  2.2305
  928SOL     OW 3148   0.665   1.346   0.225  0.4635 -1.1949 -0.3448
  928SOL    HW1 3149   0.600   1.416   0.226  0.2969 -1.3156 -1.4876
  928SOL    HW2 3150   0.616   1.267   0.202  0.8863 -1.4242 -0.4709
  929SOL     OW 3151   6.090   4.336   5.214 -0.1194  0.2670  0.9353
  929SOL    HW1 3152   6.134   4.318   5.297  1.8909 -0.5740 -0.2246
  929SOL    HW2 3153   6.068   4.429   5.217 -1.3357 -0.0340  2.9201
  930SOL     OW 3154   1.759   5.074   2.319  0.0052  0.0545 -0.1077
  930SOL    HW1 3155   1.719   5.105   2.400  0.9740 -1.8890  1.1938
  930SOL    HW2 3156   1.813   5.146   2.289 -2.1342  1.6745 -0.3491
  931SOL     OW 3157   5.942   5.841   3.260  0.0111 -0.0226 -0.2895
  931SOL    HW1 3158   5.983   5.769   3.213 -2.3967 -1.7306  0.0606
  931SOL    HW2 3159   5.925   5.807   3.348 -2.8090  0.2319 -0.6418
  932SOL     OW 3160   0.122   5.437   6.009 -0.2645  0.2849  0.0578
  932SOL    HW1 3161   0.155   5.463   5.923  0.7763  0.2479  0.4310
  932SOL    HW2 3162   0.201   5.427   6.063 -0.9252  0.9506  1.1981
  933SOL     OW 3163   5.636   5.202   0.561 -0.0330 -0.2446 -0.2676
  933SOL    HW1 3164   5.688   5.134   0.604 -0.2443 -0.3773 -0.2170
  933SOL    HW2 3165   5.681   5.284   0.582 -0.2591 -0.2853  0.4092
  934SOL     OW 3166   3.180   5.375   0.250  0.5079  0.2949 -0.3209
  934SOL    HW1 3167   3.215   5.364   0.339  1.3940  2.2961 -0.3645
  934SOL    HW2 3168   3.107   5.313   0.245 -1.8977  2.4687  3.0989
  935SOL     OW 3169   5.031   1.949   2.019  0.5017 -0.1554 -0.3190
  935SOL    HW1 3170   5.125   1.947   2.035  0.7853  0.0328 -1.7638
  935SOL    HW2 3171   5.019   2.017   1.952 -0.5815 -0.6027 -0.6111
  936SOL     OW 3172   4.321   2.816   2.518 -0.2878 -0.2028 -0.6086
  936SOL    HW1 3173   4.360   2.730   2.504  1.8155  0.2137  1.9965
  936SOL    HW2 3174   4.227   2.799   2.522  0.0257 -2.2530 -0.9415
  937SOL     OW 3175   3.719   2.625   1.031 -0.0451  0.0029  0.2614
  937SOL    HW1 3176   3.646   2.603   0.973  0.6620  0.0107 -0.6402
  937SOL    HW2 3177   3.679   2.629   1.118 -1.0823 -0.1923 -0.1882
  938SOL     OW 3178   2.119   3.627   3.551 -0.8670  0.0866 -0.3497
  938SOL    HW1 3179   2.117   3.673   3.467  1.8522 -1.3009 -1.2926
  938SOL    HW2 3180   2.072   3.546   3.535  0.2384 -0.4919 -0.8116
  939SOL     OW 3181   5.546   4.439   1.015  0.5817  0.0275  0.8202
  939SOL    HW1 3182   5.466   4.396   0.984  0.1511  1.6850 -0.4903
  939SOL    HW2 3183   5.523   4.473   1.101 -0.3581  1.0005  0.2128
  940SOL     OW 3184   4.820   1.625   3.894 -0.2213 -0.2675  0.2841
  940SOL    HW1 3185   4.757   1.696   3.903  0.2192 -0.1952  4.0901
  940SOL    HW2 3186   4.774   1.548   3.925  0.8748 -0.6315  1.0553
  941SOL     OW 3187   1.129   0.482   0.028 -0.0684 -0.0310 -0.5912
  941SOL    HW1 3188   1.174   0.418   0.084  1.1847  0.0215 -1.5060
  941SOL    HW2 3189   1.091   0.429  -0.043  0.5365  0.1640 -1.0713
  942SOL     OW 3190   5.407   1.546   5.755 -0.3070 -0.6585 -0.1001
  942SOL    HW1 3191   5.370   1.481   5.696 -0.0886  0.8254 -1.9833
  942SOL    HW2 3192   5.353   1.624   5.742  0.3909  0.0211  0.9000
  943SOL     OW 3193   3.209   5.502   3.411 -0.3308  0.0625  0.0820
  943SOL    HW1 3194   3.172   5.549   3.336  0.0155  1.7104  0.8915
  943SOL    HW2 3195   3.176   5.413   3.402 -0.4497  0.2465 -1.9158
  944SOL     OW 3196   3.181   5.630   0.638 -0.6431 -0.5493  0.1734
  944SOL    HW1 3197   3.099   5.650   0.682 -0.9302 -0.3522 -0.4420
  944SOL    HW2 3198   3.211   5.714   0.605  0.4202 -0.4112  1.4135
  945SOL     OW 3199   3.897   1.714   0.832  0.1473  0.1990 -0.2740
  945SOL    HW1 3200   3.832   1.759   0.778 -1.1229  0.4640  1.3714
  945SOL    HW2 3201   3.967   1.778   0.844 -1.0452  1.3315  0.9724
  946SOL     OW 3202   4.170   5.107   2.339 -0.1438 -0.4062 -0.4526
  946SOL    HW1 3203   4.213   5.036   2.388 -0.4111 -0.4188 -0.2386
  946SOL    HW2 3204   4.078   5.081   2.335 -0.5917  0.7611  1.1380
  947SOL     OW 3205   4.188   5.106   4.687 -0.5792  0.9144  0.0691
  947SOL    HW1 3206   4.113   5.081   4.741  0.6418 -1.0384  0.9640
  947SOL    HW2 3207   4.205   5.030   4.632  0.5715  1.4336 -0.3305
  948SOL     OW 3208   0.133   5.019   2.850  0.0508 -0.4527 -0.2960
  948SOL    HW1 3209   0.102   4.932   2.875  1.2323 -0.6917  0.4242
  948SOL    HW2 3210   0.056   5.075   2.853 -0.4187 -1.1431  0.8381
  949SOL     OW 3211   2.805   3.340   2.121 -0.1719  0.4146 -0.3606
  949SOL    HW1 3212   2.818   3.431   2.150  1.6447  0.1055 -0.0931
  949SOL    HW2 3213   2.853   3.287   2.185  0.2367 -0.5997 -1.4630
  950SOL     OW 3214   1.558   3.027   3.998 -0.2512 -0.5525  0.5789
  950SOL    HW1 3215   1.466   3.050   3.984 -0.0225  0.2302  0.3217
  950SOL    HW2 3216   1.598   3.034   3.912  0.1092 -0.6249  0.7390
  951SOL     OW 3217   3.907   6.630   2.670  0.7681 -0.1385 -0.4230
  951SOL    HW1 3218   3.813   6.621   2.682  0.4936  2.1518 -0.4002
  951SOL    HW2 3219   3.923   6.604   2.580  0.0805 -0.3403 -0.4884
  952SOL     OW 3220   3.875   2.828   0.679 -0.1301  0.1499 -0.0747
  952SOL    HW1 3221   3.936   2.901   0.678 -1.4122  1.2555 -0.8469
  952SOL    HW2 3222   3.849   2.817   0.588 -3.2633  1.6674  0.5015
  953SOL     OW 3223   5.905   6.227   0.306 -0.2109 -0.2285  0.0127
  953SOL    HW1 3224   5.921   6.295   0.372  0.2144  1.3045 -1.6026
  953SOL    HW2 3225   5.811   6.230   0.290  0.0858  1.6303 -1.6898
  954SOL     OW 3226   4.362   1.785   0.843  0.3698  0.1236  0.0153
  954SOL    HW1 3227   4.387   1.723   0.775 -2.2404 -1.5398  0.4048
  954SOL    HW2 3228   4.419   1.765   0.917  0.7880 -0.5443 -0.4800
  955SOL     OW 3229   6.476   0.834   0.481  0.3944 -0.3511 -0.2955
  955SOL    HW1 3230   6.540   0.819   0.411  1.2996  0.4686  0.3238
  955SOL    HW2 3231   6.420   0.904   0.448  1.3077  0.5871  0.0810
  956SOL     OW 3232   4.602   1.051   0.333 -0.7389 -0.2469 -0.1565
  956SOL    HW1 3233   4.653   0.976   0.361 -0.4497  0.2715  0.7383
  956SOL    HW2 3234   4.545   1.071   0.407  0.1364  1.2256  0.1644
  957SOL     OW 3235   1.818   2.891   3.713  0.1955  0.5947  0.1806
  957SOL    HW1 3236   1.859   2.824   3.768 -1.9751 -0.6547  0.3804
  957SOL    HW2 3237   1.854   2.877   3.626  0.0319 -0.6218  0.2990
  958SOL     OW 3238   5.543   3.903   0.860  0.7658  0.5391 -0.1019
  958SOL    HW1 3239   5.529   3.975   0.798  0.6360 -0.2366 -0.9855
  958SOL    HW2 3240   5.631   3.918   0.894  0.3620  1.6943  0.5058
  959SOL     OW 3241   3.321   1.402   4.635 -0.1441  0.0353 -0.4693
  959SOL    HW1 3242   3.392   1.358   4.588 -1.0392 -0.8030 -1.0954
  959SOL    HW2 3243   3.364   1.448   4.707  1.1747  0.6149 -1.5767
  960SOL     OW 3244   3.635   2.870   1.349  0.2444 -0.7185 -0.4311
  960SOL    HW1 3245   3.701   2.914   1.403 -0.2174 -0.2772 -0.2189
  960SOL    HW2 3246   3.635   2.918   1.267  0.0098 -0.5646 -0.3400
  961SOL     OW 3247   6.739   4.730   4.194  0.3104 -0.5194 -0.3673
  961SOL    HW1 3248   6.727   4.810   4.143 -3.5066 -0.4933  0.3272
  961SOL    HW2 3249   6.834   4.727   4.210  0.9106  2.5822 -2.3422
  962SOL     OW 3250   4.762   4.625   4.187 -0.1247 -0.0213 -0.5333
  962SOL    HW1 3251   4.835   4.628   4.125  0.2433 -3.8068 -0.5213
  962SOL    HW2 3252   4.803   4.602   4.270 -1.1324 -0.2114 -0.0781
  963SOL     OW 3253   1.523   6.734   0.102  0.3340 -0.3696  0.5077
  963SOL    HW1 3254   1.463   6.792   0.054  0.2469  0.1121  1.1813
  963SOL    HW2 3255   1.586   6.705   0.036 -1.9395 -2.7677 -0.7869
  964SOL     OW 3256   5.929   4.864   0.973 -0.3444 -0.2254 -0.5272
  964SOL    HW1 3257   5.899   4.775   0.958 -0.4255 -0.5039  1.1419
  964SOL    HW2 3258   5.861   4.903   1.029 -0.0157  0.7023 -0.7484
  965SOL     OW 3259   5.207   2.339   2.241  0.1140  0.5232 -0.5405
  965SOL    HW1 3260   5.125   2.307   2.279  0.2936 -0.3442 -0.8455
  965SOL    HW2 3261   5.274   2.280   2.276  0.4438  0.4993 -1.1959
  966SOL     OW 3262   1.172   5.255   0.341  0.5012  0.3655 -0.2882
  966SOL    HW1 3263   1.083   5.265   0.375 -0.4954  0.5076 -2.7345
  966SOL    HW2 3264   1.210   5.185   0.394 -0.5113  1.2964  1.7891
  967SOL     OW 3265   5.761   0.438   2.979 -0.2194 -0.3975 -0.1358
  967SOL    HW1 3266   5.854   0.459   2.985 -0.0416 -1.1328 -0.3003
  967SOL    HW2 3267   5.747   0.370   3.045 -0.3914 -1.1471 -0.9305
  968SOL     OW 3268   1.085   4.036   0.089 -0.3498  0.1991  0.0413
  968SOL    HW1 3269   1.040   3.958   0.124  0.4731 -0.5317 -0.5001
  968SOL    HW2 3270   1.021   4.076   0.031 -0.7838 -0.0776  0.3195
  969SOL     OW 3271   1.524   0.179   0.450 -0.3256 -0.1643  0.2909
  969SOL    HW1 3272   1.433   0.186   0.423  0.4226  0.2423 -2.3429
  969SOL    HW2 3273   1.551   0.091   0.424  0.7950  0.7104 -1.7189
  970SOL     OW 3274   0.619   1.596   1.591 -0.1877 -0.2826  0.3711
  970SOL    HW1 3275   0.700   1.648   1.592  1.0177 -2.0642  1.1901
  970SOL    HW2 3276   0.608   1.571   1.499 -1.1714  1.9038 -0.1620
  971SOL     OW 3277   2.317   5.900   0.960 -0.3092 -0.2975  0.3204
  971SOL    HW1 3278   2.412   5.913   0.953 -0.4131  0.3300 -0.0795
  971SOL    HW2 3279   2.298   5.828   0.900  0.0718 -1.2857  1.3511
  972SOL     OW 3280   0.999   1.618   0.244 -0.7330 -0.6001 -0.4549
  972SOL    HW1 3281   1.068   1.674   0.208 -0.0738  0.0554  1.6952
  972SOL    HW2 3282   0.925   1.631   0.185 -0.1867  1.5623 -0.7425
  973SOL     OW 3283   4.294   3.662   3.935 -0.1233  0.1516 -0.8195
  973SOL    HW1 3284   4.357   3.590   3.938 -1.5942 -1.1805 -0.9954
  973SOL    HW2 3285   4.319   3.711   3.856  1.4312  0.3917 -0.2253
  974SOL     OW 3286   1.925   6.614   3.954  0.2658 -0.0733 -0.2781
  974SOL    HW1 3287   1.995   6.609   3.888  0.4046  0.1401 -0.1503
  974SOL    HW2 3288   1.844   6.620   3.902  0.4358  1.0106 -0.4525
  975SOL     OW 3289   4.671   1.448   4.714  0.7900  0.2323  0.0725
  975SOL    HW1 3290   4.597   1.442   4.654  1.6842  1.5989 -1.2383
  975SOL    HW2 3291   4.665   1.369   4.768 -1.0864 -0.1205 -0.5907
  976SOL     OW 3292   4.883   0.067   2.820 -0.1445 -0.2942  0.1577
  976SOL    HW1 3293   4.895   0.087   2.727  0.0740  0.4038  0.3259
  976SOL    HW2 3294   4.822  -0.006   2.821  1.8412 -2.0874 -0.6319
  977SOL     OW 3295   4.154   2.087   5.567 -0.1052 -0.3760  0.3144
  977SOL    HW1 3296   4.062   2.114   5.572 -0.4629 -1.2730 -1.0374
  977SOL    HW2 3297   4.202   2.166   5.592 -1.2296 -0.0788  1.7099
  978SOL     OW 3298   6.264   3.609   3.517  0.4223  0.6353 -1.0599
  978SOL    HW1 3299   6.245   3.552   3.443 -1.5099 -0.7515  0.3935
  978SOL    HW2 3300   6.281   3.549   3.590  0.2689  1.9243  0.0938
  979SOL     OW 3301   5.972   2.298   1.088 -0.2255  0.4508 -0.1032
  979SOL    HW1 3302   6.020   2.338   1.161  0.3392  0.4309 -0.4563
  979SOL    HW2 3303   6.006   2.343   1.011 -1.2289  0.8657 -0.3102
  980SOL     OW 3304   0.148   5.690   5.442 -0.1785 -0.3610 -1.1680
  980SOL    HW1 3305   0.242   5.706   5.433 -0.0212 -0.9938 -0.7870
  980SOL    HW2 3306   0.140   5.646   5.527 -1.0932  1.6758 -0.1475
  981SOL     OW 3307   5.702   0.948   6.741  0.0721 -0.5593  0.1053
  981SOL    HW1 3308   5.788   0.973   6.775 -0.9713  0.1890  2.3223
  981SOL    HW2 3309   5.662   1.029   6.712 -0.9736 -0.4555  1.7425
  982SOL     OW 3310   0.598   0.687   2.179  0.0932  0.0668 -0.2834
  982SOL    HW1 3311   0.602   0.612   2.121  1.8318  0.1335 -0.2969
  982SOL    HW2 3312   0.519   0.734   2.151  0.1811 -0.5794 -1.7340
  983SOL     OW 3313   6.727   0.234   5.896  0.2415 -0.0539  0.1591
  983SOL    HW1 3314   6.753   0.150   5.932  0.1748 -0.3338 -0.4396
  983SOL    HW2 3315   6.633   0.241   5.915  0.4729  0.4161  1.2402
  984SOL     OW 3316   1.076   2.757   2.273  0.0232 -0.4254 -0.0815
  984SOL    HW1 3317   1.097   2.787   2.362 -2.3912 -1.1399  0.7989
  984SOL    HW2 3318   0.980   2.749   2.272 -0.1121  0.3226 -3.0125
  985SOL     OW 3319   1.576   0.156   1.542 -0.0186 -0.0766 -0.1995
  985SOL    HW1 3320   1.615   0.114   1.619 -1.5351  1.0320  1.2339
  985SOL    HW2 3321   1.573   0.249   1.564 -1.8675  0.0782 -0.9572
  986SOL     OW 3322   2.065   2.217   1.635 -0.2423 -0.2809 -0.8830
  986SOL    HW1 3323   2.094   2.126   1.638  0.4436 -0.0693  2.0845
  986SOL    HW2 3324   2.140   2.265   1.600  0.5922 -0.5295  0.4938
  987SOL     OW 3325   3.035   0.699   6.443  0.5522 -0.2650  0.4047
  987SOL    HW1 3326   3.037   0.608   6.413  0.3659  0.3442 -1.6277
  987SOL    HW2 3327   3.121   0.734   6.420 -0.0631  0.5917 -0.7422
  988SOL     OW 3328   5.869   2.450   3.991 -0.2217 -0.3959 -0.2362
  988SOL    HW1 3329   5.805   2.491   4.049 -1.4233 -2.4330 -0.0345
  988SOL    HW2 3330   5.831   2.460   3.903  1.5243  2.5556 -0.7954
  989SOL     OW 3331   3.765   4.241   1.440  0.0592 -0.0095 -0.2170
  989SOL    HW1 3332   3.685   4.193   1.421  0.5869 -0.8128 -0.4575
  989SOL    HW2 3333   3.804   4.259   1.355  0.4770 -0.2259 -0.0772
  990SOL     OW 3334   4.991   2.201   2.341 -0.1955  0.4184  0.4435
  990SOL    HW1 3335   4.965   2.164   2.425  0.8088  0.1829  0.6755
  990SOL    HW2 3336   4.912   2.201   2.289 -0.0778 -3.3005 -0.0300
  991SOL     OW 3337   1.236   2.381   6.320  0.4999  0.1884 -0.4299
  991SOL    HW1 3338   1.204   2.292   6.334 -1.3625  0.6411 -1.4644
  991SOL    HW2 3339   1.159   2.436   6.332  1.2482  1.5136 -1.4254
  992SOL     OW 3340   1.201   3.115   5.550 -0.3194  0.6522  0.5764
  992SOL    HW1 3341   1.289   3.099   5.515 -0.6160  0.4241 -0.0865
  992SOL    HW2 3342   1.209   3.196   5.600 -0.0165  1.3533 -0.5600
  993SOL     OW 3343   2.644   2.821   1.982  0.5096 -0.6879  0.0875
  993SOL    HW1 3344   2.568   2.866   1.945  1.0288 -0.5064 -0.7962
  993SOL    HW2 3345   2.610   2.736   2.010 -0.4002  0.1007  1.4463
  994SOL     OW 3346   6.771   5.609   6.152 -0.3279 -0.5399 -0.2323
  994SOL    HW1 3347   6.814   5.694   6.140 -0.1506 -0.5992 -0.0325
  994SOL    HW2 3348   6.821   5.549   6.098  0.1577 -0.7077  0.3857
  995SOL     OW 3349   0.595   1.106   4.751  0.4615  0.0743  0.1446
  995SOL    HW1 3350   0.644   1.052   4.813 -0.1075 -0.6660 -0.0326
  995SOL    HW2 3351   0.606   1.061   4.667  1.0594  0.9547 -0.2580
  996SOL     OW 3352   6.776   1.926   2.087 -0.0102  0.3875 -0.0359
  996SOL    HW1 3353   6.792   2.014   2.121  0.0120  1.0476 -1.6764
  996SOL    HW2 3354   6.697   1.934   2.033  0.4024 -0.4222 -0.7978
  997SOL     OW 3355   3.861   2.968   6.066 -0.2971 -0.4522 -1.0225
  997SOL    HW1 3356   3.826   2.927   6.146  0.1420 -1.4571 -1.3307
  997SOL    HW2 3357   3.857   2.899   6.000 -0.7446  0.4052 -1.9027
  998SOL     OW 3358   0.198   5.440   0.459 -0.2044 -0.3210 -0.0499
  998SOL    HW1 3359   0.161   5.523   0.429  1.6009  0.1878 -1.0243
  998SOL    HW2 3360   0.223   5.395   0.378  2.3274 -0.1017  0.5282
  999SOL     OW 3361   0.910   1.644   5.625  0.1008 -0.4933  0.0145
  999SOL    HW1 3362   0.901   1.679   5.536  0.8958  1.1814  0.5383
  999SOL    HW2 3363   0.971   1.572   5.616 -0.9777 -1.3262 -1.0050
 1000SOL     OW 3364   0.196   0.220   5.040 -0.0963 -0.4002 -0.1976
 1000SOL    HW1 3365   0.284   0.259   5.036 -0.7276  1.0322 -0.8305
 1000SOL    HW2 3366   0.177   0.197   4.949 -0.7459  0.1642 -0.2089
 1001SOL     OW 3367   2.634   0.890   0.121  1.0211  0.0126  0.2077
 1001SOL    HW1 3368   2.689   0.836   0.064  0.4435 -0.7222  0.3262
 1001SOL    HW2 3369   2.606   0.831   0.190 -1.1904 -0.1034 -0.6984
 1002SOL     OW 3370   0.987   0.260   2.287  0.6176  0.3059  1.0775
 1002SOL    HW1 3371   1.031   0.180   2.261  0.5946  0.1712  1.4389
 1002SOL    HW2 3372   0.910   0.230   2.336  0.1947  0.5376  0.5691
 1003SOL     OW 3373   5.584   1.808   1.295 -0.1624  0.1084 -0.2833
 1003SOL    HW1 3374   5.521   1.866   1.251 -0.0392  1.8996  1.7156
 1003SOL    HW2 3375   5.670   1.841   1.267 -0.0611  1.7873  1.7492
 1004SOL     OW 3376   6.278   6.786   2.654 -0.2768  0.0930 -0.4182
 1004SOL    HW1 3377   6.244   6.730   2.585  1.3136 -0.3401 -0.8991
 1004SOL    HW2 3378   6.356   6.826   2.615 -1.2780  2.5867 -0.0681
 1005SOL     OW 3379   2.533   3.186   1.270  0.1885 -0.5134  0.3837
 1005SOL    HW1 3380   2.465   3.131   1.310  0.0687 -0.6442  0.0108
 1005SOL    HW2 3381   2.552   3.252   1.336 -0.7917 -0.0667  0.2471
 1006SOL     OW 3382   1.823   1.466   1.740 -0.7568  0.4877  0.4930
 1006SOL    HW1 3383   1.747   1.429   1.695 -1.0983  0.8394  0.7700
 1006SOL    HW2 3384   1.809   1.445   1.832 -1.3254  1.8941  0.7576
 1007SOL     OW 3385   4.327   2.864   2.846 -0.4165  0.4512 -0.5212
 1007SOL    HW1 3386   4.321   2.959   2.843  1.1772  0.8408  3.0074
 1007SOL    HW2 3387   4.420   2.845   2.831 -0.2910 -0.2829  0.9627
 1008SOL     OW 3388   6.444   5.959   5.969  0.1882  0.6282  0.5005
 1008SOL    HW1 3389   6.365   6.009   5.950  0.1382 -0.1371 -1.6515
 1008SOL    HW2 3390   6.515   6.023   5.964 -0.0911  0.9168  0.1815
 1009SOL     OW 3391   4.422   0.611   3.364  0.0818 -0.4009  0.7688
 1009SOL    HW1 3392   4.393   0.618   3.274  2.4401 -0.1804 -0.0476
 1009SOL    HW2 3393   4.371   0.676   3.412  0.4063  1.1361 -0.8751
 1010SOL     OW 3394   6.077   5.048   1.292  0.1905 -0.2666 -0.6203
 1010SOL    HW1 3395   6.110   5.112   1.355 -0.4128 -0.9791  0.4621
 1010SOL    HW2 3396   6.032   5.100   1.226 -0.8105  0.4189  0.5522
 1011SOL     OW 3397   1.640   5.148   2.669 -0.0783  0.4514  0.0039
 1011SOL    HW1 3398   1.703   5.079   2.689  0.4349  0.8950 -0.0603
 1011SOL    HW2 3399   1.627   5.194   2.753  0.8291  1.2875 -0.2901
 1012SOL     OW 3400   2.381   0.126   4.112 -0.1418  0.5492 -0.1013
 1012SOL    HW1 3401   2.452   0.122   4.049  0.0628  0.2752  0.1387
 1012SOL    HW2 3402   2.324   0.195   4.081 -0.0984  0.3418 -0.6430
 1013SOL     OW 3403   3.877   1.628   3.673 -0.3056  0.7141 -0.4408
 1013SOL    HW1 3404   3.931   1.592   3.603 -0.3045 -1.1430  0.4537
 1013SOL    HW2 3405   3.915   1.594   3.753 -1.7211  0.8570  0.3281
 1014SOL     OW 3406   3.053   3.519   1.407  0.4359 -0.4672  0.0243
 1014SOL    HW1 3407   3.143   3.544   1.427 -0.3547  0.7791  2.4823
 1014SOL    HW2 3408   3.044   3.431   1.444  0.2241  0.0835  1.3476
 1015SOL     OW 3409   1.047   1.392   0.680  0.1580  0.3053 -0.0280
 1015SOL    HW1 3410   0.978   1.366   0.619 -0.7105  1.2179  0.5210
 1015SOL    HW2 3411   1.101   1.314   0.689 -0.1014 -0.0648 -1.3991
 1016SOL     OW 3412   1.075   3.257   2.343 -0.1160 -0.0131  0.2270
 1016SOL    HW1 3413   1.079   3.220   2.431 -1.0464 -0.0690  0.2546
 1016SOL    HW2 3414   1.111   3.188   2.287  0.4102 -0.0058  0.5482
 1017SOL     OW 3415   6.448   2.277   2.844 -0.9667  0.1533  0.1721
 1017SOL    HW1 3416   6.362   2.301   2.809 -0.4673 -0.5518 -1.6578
 1017SOL    HW2 3417   6.503   2.355   2.829 -1.0191  0.2390  0.4132
 1018SOL     OW 3418   1.207   4.063   5.851  0.4104 -0.2414 -0.0926
 1018SOL    HW1 3419   1.228   4.130   5.786 -2.0523 -0.8346 -1.6322
 1018SOL    HW2 3420   1.184   4.112   5.930  0.9539  0.6092 -0.4513
 1019SOL     OW 3421   5.820   5.374   3.217  0.1128  0.7063  0.3985
 1019SOL    HW1 3422   5.818   5.439   3.147  0.9394  1.5750  1.1497
 1019SOL    HW2 3423   5.827   5.290   3.172  1.6322  1.3056 -0.5652
 1020SOL     OW 3424   3.387   2.917   0.731 -0.3571 -0.5289  0.4306
 1020SOL    HW1 3425   3.291   2.916   0.720 -0.2344  1.3501 -1.3585
 1020SOL    HW2 3426   3.417   2.844   0.677 -0.7151 -0.4630  0.1363
 1021SOL     OW 3427   6.012   1.626   0.095  0.3692 -0.1851  0.3687
 1021SOL    HW1 3428   6.097   1.609   0.054  0.7006  1.0530  0.4886
 1021SOL    HW2 3429   6.029   1.618   0.189  1.2466  3.2286  0.6610
 1022SOL     OW 3430   5.813   4.050   3.906 -0.3066  0.1672 -0.0106
 1022SOL    HW1 3431   5.806   3.955   3.891 -1.6356 -0.0103  1.4148
 1022SOL    HW2 3432   5.748   4.067   3.975  0.4711  1.9898  0.3072
 1023SOL     OW 3433   1.481   4.370   5.872  0.3227 -0.4462  0.0492
 1023SOL    HW1 3434   1.465   4.431   5.944  2.7831  2.1101 -1.3594
 1023SOL    HW2 3435   1.395   4.357   5.832 -0.4912  1.2042  1.1231
 1024SOL     OW 3436   0.707   4.796   1.830 -0.4122 -0.4217 -0.5158
 1024SOL    HW1 3437   0.781   4.738   1.812  0.2064  0.5044 -1.0054
 1024SOL    HW2 3438   0.646   4.741   1.880  1.3636 -0.6897  1.5068
 1025SOL     OW 3439   3.209   1.317   6.499  0.4161 -0.1682  0.3324
 1025SOL    HW1 3440   3.129   1.299   6.450  1.8547 -3.8305 -1.0373
 1025SOL    HW2 3441   3.192   1.284   6.587 -0.7302  2.5209  1.2066
 1026SOL     OW 3442   4.586   4.171   3.468  0.5156 -0.3979  0.2569
 1026SOL    HW1 3443   4.673   4.156   3.431  1.2574 -2.9925  2.6860
 1026SOL    HW2 3444   4.527   4.125   3.408  0.7416  1.3876 -1.4176
 1027SOL     OW 3445   1.213   4.021   4.600  0.0573  0.1507 -0.1514
 1027SOL    HW1 3446   1.301   3.991   4.578 -0.2230  0.4861 -1.8567
 1027SOL    HW2 3447   1.155   3.948   4.579 -0.4069  1.0845 -2.3990
 1028SOL     OW 3448   3.370   5.051   4.902  0.1232 -0.5413  0.1562
 1028SOL    HW1 3449   3.357   4.968   4.949  0.7309 -1.0019 -0.4612
 1028SOL    HW2 3450   3.461   5.075   4.922  0.0275 -0.1541  0.1275
 1029SOL     OW 3451   6.145   5.132   6.323 -0.4429 -0.2981  0.2707
 1029SOL    HW1 3452   6.173   5.065   6.260  0.7152  0.4921 -0.0993
 1029SOL    HW2 3453   6.058   5.159   6.292 -0.2472 -0.5190 -0.4985
 1030SOL     OW 3454   1.250   5.039   6.445  0.2339 -0.9690 -0.6229
 1030SOL    HW1 3455   1.210   4.980   6.509 -0.0656  0.5307  0.6222
 1030SOL    HW2 3456   1.218   5.007   6.360 -1.3934 -1.4901  0.1424
 1031SOL     OW 3457   1.342   4.642   3.452 -0.4435  0.0096  0.3031
 1031SOL    HW1 3458   1.309   4.580   3.387 -0.7864  0.0233  0.4611
 1031SOL    HW2 3459   1.326   4.728   3.413 -0.7932  0.0223  0.4703
 1032SOL     OW 3460   5.256   5.974   5.841 -0.3020  0.1045 -0.3029
 1032SOL    HW1 3461   5.339   5.943   5.877  0.5242  2.6616  0.2470
 1032SOL    HW2 3462   5.262   5.956   5.747 -0.2141 -1.9211  0.0608
 1033SOL     OW 3463   2.542   3.092   4.583 -0.0473  0.4406 -0.1849
 1033SOL    HW1 3464   2.601   3.040   4.527 -0.2719  2.0355 -2.0069
 1033SOL    HW2 3465   2.596   3.166   4.611  0.3720 -0.8006  2.6712
 1034SOL     OW 3466   6.391   1.052   3.661  0.0088  0.1720  0.4675
 1034SOL    HW1 3467   6.396   0.973   3.714 -0.5110 -0.2326 -0.0770
 1034SOL    HW2 3468   6.333   1.110   3.709 -0.5777 -0.2512  0.2815
 1035SOL     OW 3469   6.366   2.653   5.471 -0.0937 -0.2764 -0.3709
 1035SOL    HW1 3470   6.273   2.635   5.485  0.0061  0.2045  1.0832
 1035SOL    HW2 3471   6.368   2.705   5.391 -1.1690  0.4036  0.0146
 1036SOL     OW 3472   5.327   0.732   2.422 -0.4090 -0.1983 -0.0590
 1036SOL    HW1 3473   5.317   0.774   2.336 -1.7112 -0.5626 -0.0990
 1036SOL    HW2 3474   5.368   0.648   2.402  0.8882  0.4270 -0.1271
 1037SOL     OW 3475   0.182   0.840   5.838  0.0146  0.0168  0.3199
 1037SOL    HW1 3476   0.217   0.929   5.830 -0.2774  0.1457  0.4477
 1037SOL    HW2 3477   0.253   0.789   5.876 -0.5488  0.6883  2.3824
 1038SOL     OW 3478   1.527   2.357   6.447  0.1614 -0.6073 -0.2292
 1038SOL    HW1 3479   1.561   2.382   6.533  1.1067 -0.7138 -0.5650
 1038SOL    HW2 3480   1.434   2.379   6.451  0.4673  0.6344  0.3522
 1039SOL     OW 3481   2.577   3.018   2.221 -0.1115 -0.3755 -0.2043
 1039SOL    HW1 3482   2.587   2.924   2.204 -2.6928 -0.9558  0.9195
 1039SOL    HW2 3483   2.528   3.051   2.146  0.8890  0.1325 -0.6526
 1040SOL     OW 3484   3.916   5.399   2.634 -0.1692 -0.1198 -0.0926
 1040SOL    HW1 3485   3.894   5.312   2.666  0.3160 -0.2959 -0.2247
 1040SOL    HW2 3486   3.959   5.441   2.709 -1.1062  0.2914  0.2291
 1041SOL     OW 3487   6.582   2.467   2.205 -0.0487  0.1706  0.0617
 1041SOL    HW1 3488   6.657   2.428   2.159  1.1491  0.8543  1.3593
 1041SOL    HW2 3489   6.572   2.554   2.165 -2.0314 -0.9459 -2.0837
 1042SOL     OW 3490   6.458   0.178   6.387  0.5167  0.2041  0.0821
 1042SOL    HW1 3491   6.446   0.090   6.353  1.0683  0.3500 -0.4970
 1042SOL    HW2 3492   6.523   0.168   6.457  2.0700  0.4193 -1.2698
 1043SOL     OW 3493   0.082   6.302   0.548 -0.2330  0.1601 -0.3005
 1043SOL    HW1 3494  -0.012   6.301   0.565 -0.3465 -1.6285 -0.8870
 1043SOL    HW2 3495   0.090   6.332   0.458 -0.2316  0.3937 -0.2232
 1044SOL     OW 3496   6.533   0.625   1.891  0.4606 -0.2140  0.0360
 1044SOL    HW1 3497   6.598   0.657   1.828 -0.9998 -1.5784 -2.3069
 1044SOL    HW2 3498   6.487   0.703   1.920  2.1833  0.6127  0.6715
 1045SOL     OW 3499   2.333   6.787   1.069 -0.0221  0.0307 -0.2751
 1045SOL    HW1 3500   2.244   6.780   1.103  0.0229  2.6191  0.6043
 1045SOL    HW2 3501   2.322   6.817   0.978 -0.0587  0.2013 -0.2149
 1046SOL     OW 3502   2.759   0.666   5.028  0.9299 -0.1259 -0.0464
 1046SOL    HW1 3503   2.696   0.731   5.058  0.3354  0.1105 -1.7044
 1046SOL    HW2 3504   2.793   0.701   4.945  2.6828 -0.6192  0.4144
 1047SOL     OW 3505   2.315   6.667   0.344  0.8382  0.4564 -0.0672
 1047SOL    HW1 3506   2.374   6.688   0.272  1.1152  1.9017  0.5479
 1047SOL    HW2 3507   2.227   6.674   0.306  1.0128 -0.6509 -0.7157
 1048SOL     OW 3508   1.963   5.344   0.196 -0.1806 -0.3862  0.4234
 1048SOL    HW1 3509   1.900   5.274   0.212  1.6120 -2.1054  0.3195
 1048SOL    HW2 3510   1.934   5.383   0.113 -0.5280 -1.8659 -0.1959
 1049SOL     OW 3511   0.145   0.432   0.359 -0.2833  0.4721 -0.0866
 1049SOL    HW1 3512   0.102   0.450   0.442  0.1113  0.6994  0.0683
 1049SOL    HW2 3513   0.085   0.465   0.292 -0.8129 -0.1202  0.0829
 1050SOL     OW 3514   3.046   5.875   3.397 -0.0158  0.0207 -0.0879
 1050SOL    HW1 3515   2.968   5.879   3.451  0.2476  0.5876  0.2648
 1050SOL    HW2 3516   3.111   5.832   3.452 -0.1835 -0.7860 -0.5160
 1051SOL     OW 3517   3.598   4.966   5.099  0.1843 -0.2873 -0.2408
 1051SOL    HW1 3518   3.556   4.884   5.074  0.2469 -0.5268  0.4195
 1051SOL    HW2 3519   3.656   4.941   5.171 -0.0904  0.4071  0.2229
 1052SOL     OW 3520   3.632   2.203   1.705 -0.2767 -0.6428  0.1171
 1052SOL    HW1 3521   3.711   2.205   1.651 -0.7733  0.5652 -0.6279
 1052SOL    HW2 3522   3.663   2.199   1.795  0.7301  1.9653 -0.0379
 1053SOL     OW 3523   0.738   4.406   6.126 -0.0763 -0.1364 -0.1633
 1053SOL    HW1 3524   0.793   4.337   6.089  0.9232  0.9309 -0.7480
 1053SOL    HW2 3525   0.669   4.419   6.061 -0.1242 -0.4002 -0.1687
 1054SOL     OW 3526   2.756   5.531   0.167 -0.0840  0.1561  0.0552
 1054SOL    HW1 3527   2.661   5.547   0.164 -0.3426 -1.3262 -2.6225
 1054SOL    HW2 3528   2.790   5.581   0.092  0.6595 -2.2362 -1.3037
 1055SOL     OW 3529   3.439   4.891   0.833 -0.5200 -0.2453 -0.5436
 1055SOL    HW1 3530   3.495   4.959   0.872 -0.4644 -1.1187  0.9879
 1055SOL    HW2 3531   3.417   4.925   0.747  0.6644  1.0734 -0.3677
 1056SOL     OW 3532   4.932   0.433   2.716 -0.2555  0.2035  0.5620
 1056SOL    HW1 3533   4.992   0.415   2.788  0.1137 -0.1407  0.1750
 1056SOL    HW2 3534   4.989   0.452   2.641 -0.6259  1.6043  0.5952
 1057SOL     OW 3535   2.194   2.784   4.202  0.2583 -0.2246  0.1021
 1057SOL    HW1 3536   2.236   2.741   4.277  0.6084 -0.5109 -0.2513
 1057SOL    HW2 3537   2.110   2.814   4.235  1.2344  1.4659  1.1712
 1058SOL     OW 3538   0.148   2.182   4.166  0.0482 -0.2798  0.1865
 1058SOL    HW1 3539   0.150   2.221   4.078 -1.1211  1.3813  0.8429
 1058SOL    HW2 3540   0.229   2.213   4.207 -0.6243  1.1482  0.5255
 1059SOL     OW 3541   3.423   6.302   4.036 -0.1477 -0.3358 -0.0841
 1059SOL    HW1 3542   3.415   6.305   4.132 -0.1115 -1.0208 -0.0515
 1059SOL    HW2 3543   3.344   6.343   4.004 -0.4284 -0.6090  0.2447
 1060SOL     OW 3544   5.330   5.820   0.286  0.0147 -0.2906  0.6961
 1060SOL    HW1 3545   5.235   5.806   0.289  0.0689 -0.6207  0.8759
 1060SOL    HW2 3546   5.349   5.834   0.193  0.0264 -1.8745  0.4483
 1061SOL     OW 3547   2.752   1.034   5.005 -0.2316  0.2778  0.2252
 1061SOL    HW1 3548   2.707   1.006   4.925 -3.1451  0.2300  1.7238
 1061SOL    HW2 3549   2.704   1.112   5.033  1.4464  0.9629  1.3680
 1062SOL     OW 3550   5.986   3.546   4.613 -0.6229 -0.0368 -0.2632
 1062SOL    HW1 3551   5.988   3.626   4.562 -2.0847  0.7422  0.8159
 1062SOL    HW2 3552   5.927   3.565   4.685 -1.9039 -2.4320 -0.5647
 1063SOL     OW 3553   5.037   6.104   1.742 -0.2882  0.0042  0.3032
 1063SOL    HW1 3554   4.949   6.141   1.735 -0.3244 -0.0417  0.4948
 1063SOL    HW2 3555   5.089   6.173   1.782 -0.4951 -0.3526  1.2312
 1064SOL     OW 3556   0.470   1.054   3.229  0.0670 -0.0259  0.1565
 1064SOL    HW1 3557   0.446   1.092   3.313 -0.2622  0.4327 -0.1405
 1064SOL    HW2 3558   0.563   1.034   3.237  0.3095  1.0730  0.2363
 1065SOL     OW 3559   4.118   3.341   1.708 -0.0112  0.2105  0.4401
 1065SOL    HW1 3560   4.043   3.400   1.711 -0.0917  0.1329 -0.0144
 1065SOL    HW2 3561   4.131   3.315   1.799  1.6138  2.9248  1.1279
 1066SOL     OW 3562   2.292   2.477   0.879  0.1396 -0.2632  0.5069
 1066SOL    HW1 3563   2.378   2.518   0.889  0.3165  0.0294 -1.6474
 1066SOL    HW2 3564   2.235   2.548   0.848 -0.7559 -0.5822  1.3704
 1067SOL     OW 3565   3.237   5.149   3.108 -0.7167  0.3774 -0.6201
 1067SOL    HW1 3566   3.214   5.157   3.016 -0.5904 -0.2096 -0.7089
 1067SOL    HW2 3567   3.260   5.056   3.119 -1.2167  0.3310  0.1159
 1068SOL     OW 3568   2.835   1.358   3.338  0.0467  0.1043 -0.5100
 1068SOL    HW1 3569   2.745   1.362   3.306 -0.4437 -1.3872  0.5831
 1068SOL    HW2 3570   2.851   1.446   3.372 -1.0602  0.3407 -0.5389
 1069SOL     OW 3571   2.849   6.089   2.081 -0.2409  0.5115  0.8875
 1069SOL    HW1 3572   2.760   6.094   2.046 -0.5711  0.9120  1.7711
 1069SOL    HW2 3573   2.897   6.039   2.015 -1.4364 -0.9139  1.0431
 1070SOL     OW 3574   0.552   2.040   4.719 -0.2747 -0.2808 -0.2515
 1070SOL    HW1 3575   0.496   2.027   4.642 -0.7947 -1.1762  0.2626
 1070SOL    HW2 3576   0.608   1.962   4.722 -0.1392 -0.1720  0.1785
 1071SOL     OW 3577   2.761   2.189   4.511  0.0452 -0.3546 -0.1857
 1071SOL    HW1 3578   2.668   2.207   4.519 -0.4074 -2.4134 -0.3350
 1071SOL    HW2 3579   2.783   2.138   4.589  0.8855 -0.5157 -0.5106
 1072SOL     OW 3580   3.657   3.129   6.006  0.1987  0.0009  0.0319
 1072SOL    HW1 3581   3.737   3.084   6.034 -1.4138 -1.9351  1.9174
 1072SOL    HW2 3582   3.650   3.203   6.066 -0.2094 -0.7920  1.0139
 1073SOL     OW 3583   3.848   4.141   3.380 -0.4526  0.3428 -0.2530
 1073SOL    HW1 3584   3.933   4.161   3.421 -0.4927  0.7346 -0.3547
 1073SOL    HW2 3585   3.808   4.227   3.365 -1.0465  0.1458  0.1624
 1074SOL     OW 3586   4.781   0.363   4.264  0.8608  0.2940  0.0239
 1074SOL    HW1 3587   4.730   0.284   4.250  0.8604 -1.0023  5.2137
 1074SOL    HW2 3588   4.716   0.432   4.279  0.8503  0.7642 -1.9532
 1075SOL     OW 3589   1.959   4.684   4.639  0.2355 -0.2807 -0.1568
 1075SOL    HW1 3590   2.039   4.706   4.687  0.1939 -1.3138  0.4253
 1075SOL    HW2 3591   1.929   4.602   4.680 -0.4216 -0.5779 -1.2068
 1076SOL     OW 3592   3.267   4.147   4.418 -0.2237  0.0632  0.4019
 1076SOL    HW1 3593   3.244   4.165   4.327 -1.2047 -0.3385  0.5559
 1076SOL    HW2 3594   3.185   4.162   4.467  0.3158  0.3819  1.2329
 1077SOL     OW 3595   2.425   2.658   2.228  0.0858  0.1034 -0.0986
 1077SOL    HW1 3596   2.416   2.684   2.320  0.7398 -1.4836  0.4444
 1077SOL    HW2 3597   2.344   2.689   2.186 -0.5527  0.2061  1.1675
 1078SOL     OW 3598   0.989   1.322   4.457  0.5725  0.4993  0.2646
 1078SOL    HW1 3599   0.923   1.327   4.527 -0.0362 -1.1806 -0.1419
 1078SOL    HW2 3600   1.058   1.266   4.493  0.1481 -0.5718 -0.5191
 1079SOL     OW 3601   6.265   0.337   3.807  0.3245  0.0841  0.0297
 1079SOL    HW1 3602   6.185   0.286   3.795 -0.0207  0.9257 -1.6004
 1079SOL    HW2 3603   6.319   0.285   3.866 -0.4163 -1.6738 -0.7640
 1080SOL     OW 3604   1.589   4.223   3.737  0.0682 -0.0183  0.6297
 1080SOL    HW1 3605   1.646   4.153   3.705  1.4918  1.2260  0.3545
 1080SOL    HW2 3606   1.564   4.272   3.658 -0.2711  0.2554  0.9035
 1081SOL     OW 3607   0.461   2.180   3.679  0.2765 -0.0575 -0.3532
 1081SOL    HW1 3608   0.517   2.167   3.603  0.0720  1.4267 -0.7816
 1081SOL    HW2 3609   0.521   2.201   3.750  0.3550  0.2723 -0.5159
 1082SOL     OW 3610   6.010   4.812   1.399  0.0934  0.0562  0.0391
 1082SOL    HW1 3611   6.068   4.735   1.395  0.8743  0.6774 -1.6337
 1082SOL    HW2 3612   6.048   4.873   1.335 -2.0002  0.7836 -0.5770
 1083SOL     OW 3613   0.783   0.997   2.448 -0.3354  0.0755  0.2157
 1083SOL    HW1 3614   0.819   1.010   2.536  2.7074  0.4032 -0.9270
 1083SOL    HW2 3615   0.780   0.902   2.437  0.3044  0.0329  0.3379
 1084SOL     OW 3616   6.031   2.000   6.424  0.3211  0.2474  0.0165
 1084SOL    HW1 3617   5.977   2.044   6.490 -0.1735  0.3128 -0.4257
 1084SOL    HW2 3618   6.028   1.908   6.447  0.3284  0.2972  0.2153
 1085SOL     OW 3619   1.559   1.627   1.384  0.5273  0.6462  0.1926
 1085SOL    HW1 3620   1.638   1.680   1.373 -0.1342  1.2195 -2.7943
 1085SOL    HW2 3621   1.495   1.687   1.421  0.9920  0.6638  0.9858
 1086SOL     OW 3622   0.545   3.444   0.051  0.4749  0.5458  0.1296
 1086SOL    HW1 3623   0.556   3.378   0.120 -2.6354 -0.6726 -0.3791
 1086SOL    HW2 3624   0.502   3.518   0.095  3.2051  2.0357  0.5158
 1087SOL     OW 3625   4.897   6.299   6.530 -0.1230 -0.3304  0.2031
 1087SOL    HW1 3626   4.946   6.277   6.450  1.3377  0.5469  0.8330
 1087SOL    HW2 3627   4.864   6.214   6.561  0.5633 -0.8751 -0.5088
 1088SOL     OW 3628   0.245   4.678   5.802 -0.0947  0.5332  0.4808
 1088SOL    HW1 3629   0.337   4.693   5.824  0.6990 -1.0699 -1.4215
 1088SOL    HW2 3630   0.216   4.612   5.864  0.4758  0.0380  0.2391
 1089SOL     OW 3631   1.035   5.355   5.123 -0.1731 -0.3309  0.1354
 1089SOL    HW1 3632   0.977   5.422   5.160 -0.3932 -1.9332  3.0433
 1089SOL    HW2 3633   0.978   5.280   5.108  0.6957 -1.1293  0.7076
 1090SOL     OW 3634   3.854   0.581   1.036  0.3930  0.0911 -0.4207
 1090SOL    HW1 3635   3.919   0.527   0.991 -0.6676 -1.0392 -0.6497
 1090SOL    HW2 3636   3.858   0.551   1.127  2.5977  2.4315  0.3956
 1091SOL     OW 3637   0.054   6.481   5.754 -0.2830 -0.1619  0.2560
 1091SOL    HW1 3638   0.053   6.518   5.843 -2.2810 -0.4617  0.4109
 1091SOL    HW2 3639  -0.029   6.433   5.748  0.9588 -2.3203 -0.8954
 1092SOL     OW 3640   0.843   4.866   0.403  0.0416  0.2068 -0.1745
 1092SOL    HW1 3641   0.785   4.838   0.332  0.2043  0.5427 -0.4424
 1092SOL    HW2 3642   0.786   4.869   0.480 -0.7414  2.1576 -0.7444
 1093SOL     OW 3643   2.225   3.821   0.530 -0.0811  0.1869 -0.5269
 1093SOL    HW1 3644   2.134   3.807   0.504  0.2267 -5.0805  0.2912
 1093SOL    HW2 3645   2.276   3.793   0.454  0.9037  1.0459 -0.2059
 1094SOL     OW 3646   0.053   4.154   5.858 -0.4809  0.3578 -0.6082
 1094SOL    HW1 3647   0.141   4.150   5.894 -0.2251  1.7680 -1.0224
 1094SOL    HW2 3648   0.004   4.087   5.907  0.7879 -0.4018 -0.3450
 1095SOL     OW 3649   2.629   0.249   3.633  0.0263 -0.0202 -0.1312
 1095SOL    HW1 3650   2.549   0.224   3.587  1.0545 -2.2374 -0.8509
 1095SOL    HW2 3651   2.699   0.203   3.586  1.7569  1.8576  0.4627
 1096SOL     OW 3652   2.457   5.516   3.408  0.8271 -0.6100  0.5248
 1096SOL    HW1 3653   2.494   5.550   3.489  1.4311  0.9927 -0.3642
 1096SOL    HW2 3654   2.391   5.580   3.382  1.8936 -0.0926 -1.1331
 1097SOL     OW 3655   4.809   0.812   5.238 -0.3961  0.0527 -0.0963
 1097SOL    HW1 3656   4.850   0.727   5.220 -1.0666 -0.2210 -0.3558
 1097SOL    HW2 3657   4.749   0.796   5.310 -1.5516 -0.0124 -1.0566
 1098SOL     OW 3658   3.923   0.514   2.347  0.1930 -0.1641  0.0113
 1098SOL    HW1 3659   3.859   0.444   2.353 -1.3450  1.1492 -0.2013
 1098SOL    HW2 3660   3.889   0.572   2.279  1.8116  0.3934 -0.3681
 1099SOL     OW 3661   5.470   5.368   1.488  0.3025  0.2919 -0.1941
 1099SOL    HW1 3662   5.443   5.452   1.451  0.8595  0.9430  0.8334
 1099SOL    HW2 3663   5.505   5.319   1.413 -3.9972 -0.8545 -1.7412
 1100SOL     OW 3664   0.476   1.596   4.398 -0.3882  0.0974  0.5606
 1100SOL    HW1 3665   0.499   1.687   4.418 -0.8423  0.1654  0.7747
 1100SOL    HW2 3666   0.381   1.594   4.400 -0.3986 -0.2458 -0.0718
 1101SOL     OW 3667   5.934   6.498   4.106 -0.2589 -0.2746  0.6416
 1101SOL    HW1 3668   5.961   6.432   4.041 -1.5169 -0.5192  0.3411
 1101SOL    HW2 3669   5.918   6.577   4.054 -2.7981 -0.8898  0.3621
 1102SOL     OW 3670   1.456   4.727   6.382 -0.1693  0.1400  0.1790
 1102SOL    HW1 3671   1.367   4.714   6.415 -0.0987 -0.1036  0.2766
 1102SOL    HW2 3672   1.485   4.807   6.425  0.8707 -1.5110  2.8080
 1103SOL     OW 3673   5.116   0.698   3.337 -0.8948 -0.8695  0.0240
 1103SOL    HW1 3674   5.178   0.763   3.303 -2.5934  0.8762  0.0952
 1103SOL    HW2 3675   5.172   0.627   3.370  1.1352  1.1577  1.2267
 1104SOL     OW 3676   0.482   4.983   0.248  0.3322  0.4221  0.8717
 1104SOL    HW1 3677   0.517   5.022   0.168 -0.8226 -1.0396 -0.4108
 1104SOL    HW2 3678   0.545   4.915   0.272  0.5477  0.6882  1.0657
 1105SOL     OW 3679   2.350   4.312   4.353 -0.1193 -0.5002  0.2411
 1105SOL    HW1 3680   2.444   4.299   4.349 -0.2580 -1.8143  0.6158
 1105SOL    HW2 3681   2.314   4.224   4.366 -1.3717  0.0178  0.4818
 1106SOL     OW 3682   2.341   2.944   6.602  0.7380  0.3896  0.4702
 1106SOL    HW1 3683   2.355   2.849   6.600 -1.5183 -0.0150  1.5333
 1106SOL    HW2 3684   2.398   2.975   6.672 -0.4356 -0.5856  1.9074
 1107SOL     OW 3685   5.335   6.137   3.916 -0.0689  0.4744 -0.6046
 1107SOL    HW1 3686   5.371   6.225   3.914 -1.5964  1.2042  1.5904
 1107SOL    HW2 3687   5.264   6.138   3.851  0.2448  0.6920 -0.9452
 1108SOL     OW 3688   1.291   3.562   2.410  0.6063  0.4829 -0.3405
 1108SOL    HW1 3689   1.360   3.623   2.435 -0.1664  0.7349  1.2724
 1108SOL    HW2 3690   1.237   3.552   2.489 -1.2301  0.3353 -1.5474
 1109SOL     OW 3691   3.558   3.892   2.082  0.1140  0.2726  0.1431
 1109SOL    HW1 3692   3.466   3.866   2.070  0.2679 -0.6604  0.8919
 1109SOL    HW2 3693   3.588   3.840   2.156  1.6114 -0.3778 -0.8738
 1110SOL     OW 3694   0.840   2.633   2.791 -0.0980 -0.0249 -0.2876
 1110SOL    HW1 3695   0.785   2.599   2.862 -0.2044 -1.1041 -0.8710
 1110SOL    HW2 3696   0.786   2.625   2.713  0.6502 -0.4793 -0.7675
 1111SOL     OW 3697   3.498   6.337   5.160 -0.5879 -0.3156 -0.0029
 1111SOL    HW1 3698   3.411   6.348   5.198 -1.1206 -0.5657 -1.1121
 1111SOL    HW2 3699   3.484   6.280   5.084  0.1716  1.3380 -1.4573
 1112SOL     OW 3700   5.984   2.471   2.226  0.8093  0.4091  0.2706
 1112SOL    HW1 3701   5.976   2.488   2.320  2.7679 -0.2443  0.6184
 1112SOL    HW2 3702   5.989   2.376   2.219  2.8068  0.4890 -0.2122
 1113SOL     OW 3703   6.218   1.317   2.284 -0.6886  0.5121  0.5354
 1113SOL    HW1 3704   6.184   1.275   2.364 -1.8661 -0.3171 -0.3595
 1113SOL    HW2 3705   6.141   1.332   2.230  0.1122  0.8712 -0.5448
 1114SOL     OW 3706   0.693   4.004   2.442 -0.3037 -0.0217  0.4930
 1114SOL    HW1 3707   0.758   4.061   2.401 -0.9027  1.1145  1.0518
 1114SOL    HW2 3708   0.738   3.968   2.518 -0.1036  0.2035  0.4842
 1115SOL     OW 3709   0.567   6.587   5.237 -0.7381  0.6575 -0.0830
 1115SOL    HW1 3710   0.610   6.517   5.286 -0.0924  0.9312 -0.2448
 1115SOL    HW2 3711   0.495   6.544   5.191  0.1142 -0.0490 -0.7870
 1116SOL     OW 3712   4.577   1.405   0.504  0.2164  0.1746 -0.2647
 1116SOL    HW1 3713   4.505   1.391   0.442 -1.2218  1.4211  1.0200
 1116SOL    HW2 3714   4.614   1.490   0.479  0.4280  0.1125 -0.1653
 1117SOL     OW 3715   0.950   5.976   1.129 -0.1063 -0.0535 -0.4875
 1117SOL    HW1 3716   0.966   6.070   1.118 -1.4712  0.1394 -1.1559
 1117SOL    HW2 3717   0.959   5.940   1.040 -0.8131 -0.3251 -0.4606
 1118SOL     OW 3718   0.331   5.031   6.209 -0.2394 -0.3752  0.2474
 1118SOL    HW1 3719   0.379   5.043   6.291  1.9588 -1.0046 -0.8633
 1118SOL    HW2 3720   0.376   4.958   6.166 -2.9865 -1.8530 -0.3750
 1119SOL     OW 3721   4.069   2.739   2.518 -0.1295  0.2138  0.0438
 1119SOL    HW1 3722   3.974   2.750   2.516 -0.1884 -0.0546  1.0060
 1119SOL    HW2 3723   4.083   2.645   2.534  0.2705  0.4256  1.0599
 1120SOL     OW 3724   2.962   3.198   5.216 -0.0092 -0.1121  0.2204
 1120SOL    HW1 3725   2.964   3.270   5.280 -1.0382  1.4845 -1.4595
 1120SOL    HW2 3726   2.955   3.241   5.131 -2.5641 -2.2129 -0.7581
 1121SOL     OW 3727   1.236   0.993   2.526  0.5313  0.2395  0.2445
 1121SOL    HW1 3728   1.142   0.994   2.541  0.7258  2.7810  1.8001
 1121SOL    HW2 3729   1.272   0.944   2.600  0.5322  0.3434  0.3118
 1122SOL     OW 3730   0.555   5.584   2.341 -0.0283  0.4557  0.1503
 1122SOL    HW1 3731   0.499   5.653   2.306 -1.5427 -0.1532  1.2680
 1122SOL    HW2 3732   0.511   5.556   2.422  0.9667 -1.2475  0.1451
 1123SOL     OW 3733   3.163   4.584   2.691 -0.0296  0.1774  0.1940
 1123SOL    HW1 3734   3.172   4.673   2.726 -0.9898  0.3929 -0.0773
 1123SOL    HW2 3735   3.096   4.543   2.747  0.8906 -0.6124  0.7540
 1124SOL     OW 3736   5.049   1.728   0.180  0.5633 -0.2569 -0.0061
 1124SOL    HW1 3737   5.126   1.671   0.176 -0.1696 -1.2303 -0.7515
 1124SOL    HW2 3738   5.008   1.707   0.264  2.1650  1.7208  1.3376
 1125SOL     OW 3739   4.759   4.369   5.030  0.3329 -0.9486  0.0200
 1125SOL    HW1 3740   4.744   4.367   4.935  0.9247 -0.7363 -0.0854
 1125SOL    HW2 3741   4.723   4.454   5.058  0.0635 -1.0571  0.0019
 1126SOL     OW 3742   4.235   1.549   0.966 -0.9682 -0.5272  0.3639
 1126SOL    HW1 3743   4.167   1.516   0.907 -0.1305 -2.4288  0.3945
 1126SOL    HW2 3744   4.261   1.633   0.927 -1.6589 -0.8938 -0.9683
 1127SOL     OW 3745   0.390   6.619   0.194  0.2957 -0.2099  0.6270
 1127SOL    HW1 3746   0.340   6.588   0.119  2.0445 -1.5927 -0.0288
 1127SOL    HW2 3747   0.394   6.544   0.253 -0.3985  0.6221  1.7811
 1128SOL     OW 3748   6.067   4.214   2.620  0.2445  0.4708  0.1720
 1128SOL    HW1 3749   6.063   4.259   2.536 -0.6925 -1.3888 -0.8508
 1128SOL    HW2 3750   5.976   4.191   2.639  0.5998 -0.2752  1.0393
 1129SOL     OW 3751   2.282   5.767   6.014  0.5355 -0.7346 -0.3402
 1129SOL    HW1 3752   2.241   5.766   5.928  1.7136 -2.7876 -0.9586
 1129SOL    HW2 3753   2.343   5.694   6.012 -0.3754 -1.7446  2.7291
 1130SOL     OW 3754   2.788   0.075   0.586  0.3454  0.0029 -0.1293
 1130SOL    HW1 3755   2.753   0.138   0.523  1.9233  0.1230 -0.9179
 1130SOL    HW2 3756   2.809  -0.002   0.533  2.0302  0.2379  0.1454
 1131SOL     OW 3757   3.170   5.844   0.461 -0.5358 -0.5208  0.4712
 1131SOL    HW1 3758   3.215   5.910   0.409  0.2785 -1.6962 -0.3915
 1131SOL    HW2 3759   3.176   5.764   0.407 -0.1585 -1.6435  2.1111
 1132SOL     OW 3760   2.406   4.625   3.420  0.0986 -0.0154 -0.2341
 1132SOL    HW1 3761   2.360   4.590   3.344  1.4346 -0.1179 -1.0276
 1132SOL    HW2 3762   2.471   4.685   3.383  0.5650  0.1787  0.8571
 1133SOL     OW 3763   1.288   0.259   2.913  0.3086  0.0700 -0.4069
 1133SOL    HW1 3764   1.225   0.191   2.936  0.4590  0.2689  0.6286
 1133SOL    HW2 3765   1.335   0.277   2.994 -1.3263  3.1058 -0.0047
 1134SOL     OW 3766   1.134   4.495   4.832  0.5390 -0.0360 -0.8915
 1134SOL    HW1 3767   1.055   4.483   4.885 -0.0077 -1.5109 -1.9582
 1134SOL    HW2 3768   1.153   4.408   4.798  1.4224  0.6799 -2.3280
 1135SOL     OW 3769   6.632   5.572   6.744 -0.1505  0.0368  0.7529
 1135SOL    HW1 3770   6.718   5.543   6.773  0.5113  0.0367 -1.0547
 1135SOL    HW2 3771   6.609   5.513   6.673 -1.1162  0.7583  0.4382
 1136SOL     OW 3772   6.756   1.168   3.682  0.3667 -0.4855 -0.2285
 1136SOL    HW1 3773   6.817   1.158   3.755  0.4239 -1.1298 -0.3652
 1136SOL    HW2 3774   6.672   1.188   3.724  0.5990  0.1149 -0.0307
 1137SOL     OW 3775   1.338   1.262   3.026  0.1825 -0.1937 -0.1259
 1137SOL    HW1 3776   1.386   1.300   2.952  0.2211 -0.2288 -0.1184
 1137SOL    HW2 3777   1.398   1.268   3.100  1.3732 -2.9417 -0.7274
 1138SOL     OW 3778   5.605   1.586   1.803  0.5073  0.1125  0.0773
 1138SOL    HW1 3779   5.527   1.589   1.747  0.7022 -0.2744 -0.2206
 1138SOL    HW2 3780   5.582   1.638   1.880  0.3304  0.8805 -0.4861
 1139SOL     OW 3781   1.972   6.305   4.234  0.1024  0.6407  0.4324
 1139SOL    HW1 3782   1.913   6.230   4.230  0.7576  0.1732 -1.7812
 1139SOL    HW2 3783   1.915   6.379   4.256 -0.7439 -0.2980  1.4931
 1140SOL     OW 3784   2.244   6.750   6.508 -0.0300 -0.4256 -0.2257
 1140SOL    HW1 3785   2.191   6.830   6.503  1.0989  0.4199  0.8462
 1140SOL    HW2 3786   2.268   6.742   6.600  0.7104 -1.4580 -0.4848
 1141SOL     OW 3787   2.182   2.785   1.802  0.0617  0.3485  0.7774
 1141SOL    HW1 3788   2.245   2.847   1.767 -1.4639  2.8002  2.1101
 1141SOL    HW2 3789   2.203   2.702   1.758  1.9244  1.8594 -1.4236
 1142SOL     OW 3790   2.612   4.761   2.047  0.7218 -0.3223  0.0064
 1142SOL    HW1 3791   2.639   4.846   2.083  1.4731  0.0424 -1.3592
 1142SOL    HW2 3792   2.538   4.781   1.990  0.4042 -0.7013  0.2794
 1143SOL     OW 3793   1.780   4.239   3.088  0.2770  0.2361  0.3212
 1143SOL    HW1 3794   1.860   4.192   3.065  0.4509  0.9533 -0.5924
 1143SOL    HW2 3795   1.715   4.170   3.104  0.8898 -0.3350  0.3787
 1144SOL     OW 3796   4.707   1.303   6.132 -0.1877  0.1454  0.0326
 1144SOL    HW1 3797   4.783   1.324   6.187  0.4235 -0.5470 -0.5283
 1144SOL    HW2 3798   4.638   1.282   6.195 -0.2697  1.8600  0.5749
 1145SOL     OW 3799   5.880   5.895   4.852 -0.3760 -0.1394  0.4797
 1145SOL    HW1 3800   5.825   5.832   4.804 -0.1470 -0.2227  0.3255
 1145SOL    HW2 3801   5.944   5.924   4.788 -0.8356  0.6937  0.3891
 1146SOL     OW 3802   2.350   4.210   2.796 -0.2821  0.1865 -0.2087
 1146SOL    HW1 3803   2.330   4.168   2.712  1.2788  0.7643 -0.9029
 1146SOL    HW2 3804   2.338   4.303   2.780  0.1417  0.3102  0.1653
 1147SOL     OW 3805   2.859   1.067   2.068 -0.3218 -0.1350 -0.3344
 1147SOL    HW1 3806   2.795   1.124   2.026  1.5741  1.0723 -1.7457
 1147SOL    HW2 3807   2.849   0.982   2.024 -1.9417 -0.4186  0.5281
 1148SOL     OW 3808   1.251   3.009   6.253 -0.1019 -0.8806 -0.1262
 1148SOL    HW1 3809   1.315   3.031   6.320  0.9514 -0.6730 -1.1796
 1148SOL    HW2 3810   1.291   2.939   6.203 -1.0518 -1.3118 -0.3035
 1149SOL     OW 3811   3.092   3.032   1.435  0.5689 -0.0828  0.5759
 1149SOL    HW1 3812   3.052   3.027   1.349  1.2894  1.0385  0.1618
 1149SOL    HW2 3813   3.181   3.061   1.419  0.3091  1.5338  1.7815
 1150SOL     OW 3814   2.198   6.624   2.543 -0.2943 -0.6886  0.1792
 1150SOL    HW1 3815   2.247   6.673   2.477 -0.8140 -2.5873 -1.7316
 1150SOL    HW2 3816   2.106   6.636   2.519 -0.4525 -2.1416 -0.0558
 1151SOL     OW 3817   2.783   3.154   6.791 -0.4392  0.4835 -0.0094
 1151SOL    HW1 3818   2.797   3.133   6.883 -2.4117 -0.3392  0.1603
 1151SOL    HW2 3819   2.776   3.069   6.747 -2.0121  0.8003 -0.4461
 1152SOL     OW 3820   1.721   4.412   1.109  0.3311  0.4626  0.3100
 1152SOL    HW1 3821   1.805   4.429   1.150  0.3511  0.3661  0.3102
 1152SOL    HW2 3822   1.670   4.368   1.177  0.4239  0.1461  0.1765
 1153SOL     OW 3823   6.606   5.893   4.626 -0.0828  0.0291 -0.9929
 1153SOL    HW1 3824   6.555   5.897   4.545  0.5683 -0.3140 -1.4264
 1153SOL    HW2 3825   6.604   5.800   4.650 -3.1683  0.5049  1.2877
 1154SOL     OW 3826   4.886   0.112   0.729 -0.3349 -0.5651  0.0075
 1154SOL    HW1 3827   4.922   0.200   0.728 -1.4138 -0.1023  0.4283
 1154SOL    HW2 3828   4.826   0.111   0.803 -2.0752 -0.9188 -1.3294
 1155SOL     OW 3829   3.167   5.226   4.970  0.4174 -0.0888 -0.1298
 1155SOL    HW1 3830   3.204   5.278   4.899  1.0226 -0.4287 -0.0633
 1155SOL    HW2 3831   3.206   5.140   4.960 -1.7891 -1.0429 -1.2275
 1156SOL     OW 3832   5.656   3.540   3.836 -0.2111  0.4435  0.1133
 1156SOL    HW1 3833   5.705   3.621   3.850 -0.8064  0.8425 -0.0771
 1156SOL    HW2 3834   5.590   3.563   3.771 -1.2958  0.1785  1.0954
 1157SOL     OW 3835   1.496   3.315   1.015  0.1413  0.2553 -0.0750
 1157SOL    HW1 3836   1.421   3.328   0.958  0.8700  2.4326 -0.6267
 1157SOL    HW2 3837   1.461   3.325   1.104 -0.6988 -1.6334 -0.1279
 1158SOL     OW 3838   0.935   5.262   0.490 -0.6366  0.0384  0.0725
 1158SOL    HW1 3839   0.857   5.218   0.459 -0.6698  0.0687  0.1127
 1158SOL    HW2 3840   0.985   5.194   0.535 -1.3617  0.3365  1.3948
 1159SOL     OW 3841   5.473   0.539   1.548 -0.0973 -0.6039 -0.3250
 1159SOL    HW1 3842   5.476   0.478   1.621  0.2519 -0.3530 -0.1277
 1159SOL    HW2 3843   5.385   0.530   1.512 -0.4184 -0.3948  0.4091
 1160SOL     OW 3844   1.692   3.088   5.866 -0.3232 -0.7317 -0.7957
 1160SOL    HW1 3845   1.637   3.038   5.807  0.0998 -0.2390 -1.6311
 1160SOL    HW2 3846   1.631   3.127   5.929 -0.7016 -1.8439 -0.4573
 1161SOL     OW 3847   3.913   4.324   0.903  0.5387  0.4787 -0.1123
 1161SOL    HW1 3848   3.941   4.245   0.856 -0.3907 -0.3427  0.6546
 1161SOL    HW2 3849   3.958   4.396   0.858  2.0980 -0.5537 -0.2876
 1162SOL     OW 3850   5.220   3.934   3.541  0.4008 -0.5561 -0.4831
 1162SOL    HW1 3851   5.254   3.946   3.630 -0.5678 -2.1197  0.1282
 1162SOL    HW2 3852   5.126   3.952   3.549  0.7060  2.3349 -1.8621
 1163SOL     OW 3853   1.375   5.054   6.739  0.8289  0.1485  1.0762
 1163SOL    HW1 3854   1.469   5.044   6.726  0.6461 -1.2232  0.6883
 1163SOL    HW2 3855   1.343   5.089   6.655  0.8766 -0.2343  0.8965
 1164SOL     OW 3856   4.583   4.450   4.003  0.3124  0.7983 -0.1810
 1164SOL    HW1 3857   4.632   4.387   3.950 -1.0368 -1.1675  0.7829
 1164SOL    HW2 3858   4.646   4.482   4.067  0.8388 -0.2213 -0.1773
 1165SOL     OW 3859   0.391   3.675   2.174  0.5611  0.4790  0.0408
 1165SOL    HW1 3860   0.398   3.583   2.201 -0.0732  0.2108 -0.6856
 1165SOL    HW2 3861   0.481   3.707   2.177  1.0612 -0.6811 -1.4384
 1166SOL     OW 3862   5.566   2.822   2.537 -0.5661 -0.2004  0.2657
 1166SOL    HW1 3863   5.630   2.810   2.466 -0.0097  1.7978  0.3576
 1166SOL    HW2 3864   5.481   2.810   2.494 -0.2285  0.6434 -0.6984
 1167SOL     OW 3865   4.194   2.548   2.911  0.3031  0.0574 -0.4729
 1167SOL    HW1 3866   4.285   2.542   2.940  0.0509 -2.2427 -0.0162
 1167SOL    HW2 3867   4.199   2.588   2.824  1.7662 -0.3567 -0.6028
 1168SOL     OW 3868   4.797   1.458   6.573  0.0969 -0.7764  0.6626
 1168SOL    HW1 3869   4.811   1.529   6.511  2.3168 -0.7275  1.1505
 1168SOL    HW2 3870   4.802   1.379   6.520 -2.9910 -0.6537  0.0116
 1169SOL     OW 3871   6.387   6.183   6.195 -0.0604  0.9256 -0.1132
 1169SOL    HW1 3872   6.414   6.096   6.224  0.2629  1.7194  2.2144
 1169SOL    HW2 3873   6.407   6.185   6.102  3.1696 -0.3609  0.4238
 1170SOL     OW 3874   3.213   4.810   2.874 -0.1704  0.4241 -0.2484
 1170SOL    HW1 3875   3.296   4.857   2.865 -0.6183  1.9589  2.5887
 1170SOL    HW2 3876   3.155   4.871   2.918 -1.5980 -1.9290  1.3627
 1171SOL     OW 3877   3.591   5.689   1.062 -0.6311 -0.2193  0.2480
 1171SOL    HW1 3878   3.656   5.621   1.043 -0.1841  0.5278 -1.0524
 1171SOL    HW2 3879   3.512   5.659   1.016 -1.6607 -1.7227  2.7824
 1172SOL     OW 3880   3.553   6.648   2.065 -0.1314  0.6415  0.4767
 1172SOL    HW1 3881   3.491   6.674   1.996  0.5975  1.6789  0.1910
 1172SOL    HW2 3882   3.621   6.600   2.019 -0.3104  0.1879  0.6776
 1173SOL     OW 3883   4.268   1.704   1.593 -0.0198 -0.6008  0.0730
 1173SOL    HW1 3884   4.242   1.677   1.681  0.8312  1.4531  1.0248
 1173SOL    HW2 3885   4.352   1.748   1.605  0.1046 -0.2373 -1.7679
 1174SOL     OW 3886   2.604   3.589   1.128 -0.3571 -0.3878 -0.1647
 1174SOL    HW1 3887   2.669   3.629   1.185 -0.2013  0.0070 -0.6094
 1174SOL    HW2 3888   2.535   3.558   1.187  0.3423 -1.0215  0.3285
 1175SOL     OW 3889   0.170   2.901   3.125  0.0146  0.7052  0.5666
 1175SOL    HW1 3890   0.135   2.867   3.043 -2.6640  1.2423  1.3749
 1175SOL    HW2 3891   0.168   2.827   3.185  1.8278  0.3507  0.2487
 1176SOL     OW 3892   6.139   2.952   3.515  0.5444  0.6199  0.0034
 1176SOL    HW1 3893   6.058   2.907   3.492  0.7857  0.1567  0.0550
 1176SOL    HW2 3894   6.206   2.910   3.461  0.3265  3.0011 -2.3649
 1177SOL     OW 3895   0.548   1.187   6.403  0.1586  0.7311 -0.2000
 1177SOL    HW1 3896   0.586   1.106   6.370  0.6537  1.7596 -2.2905
 1177SOL    HW2 3897   0.502   1.161   6.483  1.2451 -1.3857 -0.1958
 1178SOL     OW 3898   4.921   1.540   4.893 -0.2933 -0.1906  0.2131
 1178SOL    HW1 3899   4.966   1.456   4.902  0.8187  0.4274  0.6081
 1178SOL    HW2 3900   4.835   1.525   4.931 -0.0580 -1.1139  0.4097
 1179SOL     OW 3901   1.021   0.499   4.878  0.1789  0.1004  0.1202
 1179SOL    HW1 3902   0.986   0.527   4.793 -0.2261  1.0898  0.5948
 1179SOL    HW2 3903   1.053   0.579   4.918 -1.0372 -0.0673  1.5455
 1180SOL     OW 3904   0.385   1.754   4.691 -0.7540  0.0508  0.1867
 1180SOL    HW1 3905   0.342   1.673   4.719 -1.6299  0.9140  1.4424
 1180SOL    HW2 3906   0.474   1.728   4.670 -1.0752 -1.2770  0.3585
 1181SOL     OW 3907   2.199   3.353   0.852  0.2551 -0.0703 -0.3826
 1181SOL    HW1 3908   2.138   3.366   0.925  0.1942 -0.8536 -0.2860
 1181SOL    HW2 3909   2.182   3.427   0.793 -1.0445 -0.4567 -0.5264
 1182SOL     OW 3910   4.659   2.778   2.481 -0.2089 -0.2291 -0.6957
 1182SOL    HW1 3911   4.607   2.859   2.489  1.2688  0.5994  1.9388
 1182SOL    HW2 3912   4.596   2.713   2.450 -2.0865  1.3603 -0.4996
 1183SOL     OW 3913   3.635   4.983   4.014  0.5289 -0.0479 -0.2314
 1183SOL    HW1 3914   3.719   4.969   3.969 -0.3914 -0.6427 -1.8413
 1183SOL    HW2 3915   3.573   5.000   3.943 -1.2427 -2.2485  0.6857
 1184SOL     OW 3916   2.521   1.324   6.010 -0.4625 -0.7351 -0.0569
 1184SOL    HW1 3917   2.540   1.417   6.022  0.3621 -0.7578 -1.0427
 1184SOL    HW2 3918   2.426   1.320   6.001 -0.5434 -0.0402  0.4217
 1185SOL     OW 3919   1.353   5.257   6.280  0.0686  0.0719 -0.4610
 1185SOL    HW1 3920   1.299   5.198   6.332 -2.9503 -0.2687 -3.6700
 1185SOL    HW2 3921   1.428   5.204   6.253  1.0207 -0.1145  2.2322
 1186SOL     OW 3922   4.693   6.494   4.857  0.3982  0.0341 -0.0446
 1186SOL    HW1 3923   4.634   6.435   4.810  0.8875  0.4391 -1.1928
 1186SOL    HW2 3924   4.702   6.570   4.800  1.1664  0.4534  0.6158
 1187SOL     OW 3925   6.255   4.252   0.269 -0.2239  0.1033 -0.1247
 1187SOL    HW1 3926   6.186   4.297   0.220  0.7621  1.0500 -0.6918
 1187SOL    HW2 3927   6.270   4.171   0.220  0.3659  0.7866 -1.1065
 1188SOL     OW 3928   5.447   2.129   2.683 -0.3505  0.1884  0.5672
 1188SOL    HW1 3929   5.445   2.206   2.739 -0.6343 -1.5667  3.1458
 1188SOL    HW2 3930   5.527   2.139   2.631  0.2035  1.6920  1.6453
 1189SOL     OW 3931   6.624   4.513   3.446  0.0463  0.1417 -0.2977
 1189SOL    HW1 3932   6.558   4.565   3.401 -1.3658  0.1333  1.6520
 1189SOL    HW2 3933   6.697   4.573   3.460  0.0858  0.4324 -1.5932
 1190SOL     OW 3934   1.020   4.306   5.675 -0.3009  0.2324  0.3043
 1190SOL    HW1 3935   0.950   4.364   5.642  0.2397  0.8177  0.1535
 1190SOL    HW2 3936   1.062   4.357   5.744 -0.0202 -0.1144  0.3909
 1191SOL     OW 3937   1.179   2.659   2.719  0.6813  0.2178  0.0889
 1191SOL    HW1 3938   1.236   2.614   2.781  0.8901  0.5124  0.1136
 1191SOL    HW2 3939   1.198   2.616   2.635 -0.3175 -0.8481  0.3807
 1192SOL     OW 3940   4.216   5.047   3.740 -0.0713 -0.7181 -0.2705
 1192SOL    HW1 3941   4.310   5.037   3.722  0.0708 -1.2670  0.7178
 1192SOL    HW2 3942   4.177   4.966   3.708 -0.0405 -0.9927  0.3751
 1193SOL     OW 3943   4.847   5.480   6.718  0.4687 -0.1649 -0.1110
 1193SOL    HW1 3944   4.870   5.406   6.662  0.5311 -1.0872  1.0672
 1193SOL    HW2 3945   4.917   5.482   6.784  0.0191  0.4210  0.3584
 1194SOL     OW 3946   1.369   5.631   5.752 -0.1558  0.2339 -0.1217
 1194SOL    HW1 3947   1.428   5.699   5.719  0.9387  0.2214  1.6221
 1194SOL    HW2 3948   1.405   5.549   5.718  1.2482  0.1727  1.3649
 1195SOL     OW 3949   2.685   6.425   3.582  0.1898  0.3185  0.1013
 1195SOL    HW1 3950   2.741   6.350   3.601  2.2105  1.3325 -1.3751
 1195SOL    HW2 3951   2.646   6.449   3.666  0.5224 -1.5600  0.8330
 1196SOL     OW 3952   1.462   3.122   2.352 -0.0039 -0.2464  0.1923
 1196SOL    HW1 3953   1.507   3.146   2.433  1.3332 -0.3698 -0.4824
 1196SOL    HW2 3954   1.456   3.027   2.356  1.8518 -0.4536 -0.7017
 1197SOL     OW 3955   5.207   3.431   0.211  0.2509  0.4824  0.2199
 1197SOL    HW1 3956   5.164   3.350   0.185  3.5864 -1.5672  0.5598
 1197SOL    HW2 3957   5.182   3.443   0.303  0.2911 -0.5627  0.3759
 1198SOL     OW 3958   0.760   6.483   4.577 -0.0540  0.0091  0.3609
 1198SOL    HW1 3959   0.808   6.562   4.603  0.3946 -0.2172  0.2106
 1198SOL    HW2 3960   0.827   6.416   4.564 -0.5048 -0.7233  1.6069
 1199SOL     OW 3961   6.640   3.436   4.710  0.4909 -1.0469  0.3032
 1199SOL    HW1 3962   6.714   3.490   4.681  0.4184 -0.8617  0.4611
 1199SOL    HW2 3963   6.585   3.496   4.761 -1.3951 -0.3275 -2.3428
 1200SOL     OW 3964   4.171   3.367   2.774  0.0541 -0.1144 -0.3376
 1200SOL    HW1 3965   4.185   3.313   2.697  0.8135  1.6219 -1.4648
 1200SOL    HW2 3966   4.084   3.404   2.761  0.3008  0.4066 -0.5048
 1201SOL     OW 3967   5.005   0.065   5.895  0.3919  0.5158 -0.4142
 1201SOL    HW1 3968   4.952   0.110   5.830  2.2991  0.9406 -1.7594
 1201SOL    HW2 3969   5.029  -0.018   5.854  0.6856  0.2954  0.1887
 1202SOL     OW 3970   5.679   1.832   2.106 -0.2144  0.1217 -0.1093
 1202SOL    HW1 3971   5.595   1.841   2.061 -0.7883  4.1217  1.3909
 1202SOL    HW2 3972   5.741   1.877   2.048  0.4750 -0.8760 -0.1621
 1203SOL     OW 3973   3.990   0.907   4.397 -0.3453 -0.0418  0.5812
 1203SOL    HW1 3974   3.998   0.965   4.322 -2.4003 -0.4060  0.0301
 1203SOL    HW2 3975   4.025   0.823   4.367  1.4287  0.5040  0.9744
 1204SOL     OW 3976   2.022   4.524   4.132 -0.0210 -0.7217  0.2378
 1204SOL    HW1 3977   2.004   4.465   4.205  0.0958 -0.6322  0.3413
 1204SOL    HW2 3978   1.946   4.517   4.075  0.2579 -1.4312 -0.0611
 1205SOL     OW 3979   6.312   0.696   2.974 -0.0561  0.2311  0.4925
 1205SOL    HW1 3980   6.397   0.735   2.995 -0.9397  2.1576  0.6764
 1205SOL    HW2 3981   6.287   0.648   3.053  0.3978  0.4994  0.8004
 1206SOL     OW 3982   5.339   3.178   1.895 -0.5850  0.5071 -0.2862
 1206SOL    HW1 3983   5.316   3.222   1.813 -0.6168  0.8810 -0.0784
 1206SOL    HW2 3984   5.290   3.226   1.962 -1.2300 -0.3302 -0.1459
 1207SOL     OW 3985   3.938   0.605   0.608 -0.3355  0.2437  0.1332
 1207SOL    HW1 3986   3.872   0.563   0.662  3.3097 -3.2526  2.4474
 1207SOL    HW2 3987   3.958   0.541   0.539  0.4961  1.3391 -0.6895
 1208SOL     OW 3988   2.762   0.982   3.399  0.1767 -0.4272 -0.2547
 1208SOL    HW1 3989   2.824   0.910   3.390  0.0586 -0.5725  0.0675
 1208SOL    HW2 3990   2.704   0.954   3.470 -0.7775 -0.6729 -1.1098
 1209SOL     OW 3991   0.572   6.698   3.514 -0.5446  0.0117 -0.3995
 1209SOL    HW1 3992   0.582   6.737   3.600 -0.7658  0.3719 -0.5368
 1209SOL    HW2 3993   0.628   6.620   3.516 -0.6620 -0.0568  0.1125
 1210SOL     OW 3994   6.199   5.856   1.631 -0.4962  0.6338  0.3307
 1210SOL    HW1 3995   6.253   5.847   1.710  2.7017  0.4822 -1.6775
 1210SOL    HW2 3996   6.187   5.951   1.620  2.3378  0.9508 -0.8835
 1211SOL     OW 3997   6.326   3.144   4.778  0.4916 -0.1309  0.0388
 1211SOL    HW1 3998   6.341   3.077   4.845  0.1676 -1.2155 -0.9532
 1211SOL    HW2 3999   6.413   3.163   4.743  0.4478 -0.9287 -0.5173
 1212SOL     OW 4000   6.770   5.339   4.471 -0.0383  0.4133  0.7050
 1212SOL    HW1 4001   6.789   5.424   4.432 -1.9260 -0.3148 -2.0790
 1212SOL    HW2 4002   6.838   5.281   4.436 -0.1017  0.3036  0.7649
 1213SOL     OW 4003   6.706   4.948   6.415  0.0341 -0.7278 -0.6060
 1213SOL    HW1 4004   6.741   5.002   6.344 -0.0275  1.3191  0.8263
 1213SOL    HW2 4005   6.611   4.948   6.400  0.0645 -0.6923 -0.8011
 1214SOL     OW 4006   5.553   0.060   6.018  0.2211 -0.7586  0.0730
 1214SOL    HW1 4007   5.504   0.129   6.062  0.9231 -0.2169  0.0309
 1214SOL    HW2 4008   5.488   0.013   5.967 -0.3105 -0.2857  0.3019
 1215SOL     OW 4009   3.161   4.037   6.706 -0.7737 -0.3857 -0.4266
 1215SOL    HW1 4010   3.204   4.106   6.756  1.9576 -3.2424  1.5821
 1215SOL    HW2 4011   3.183   4.055   6.615 -0.5129  1.5558 -0.0118
 1216SOL     OW 4012   4.087   0.116   2.312 -0.6198 -0.0520  0.0884
 1216SOL    HW1 4013   4.134   0.041   2.350  1.1811  0.3299 -1.3020
 1216SOL    HW2 4014   4.040   0.080   2.237  0.7747  0.2929 -0.9781
 1217SOL     OW 4015   3.083   6.129   0.562 -0.0438  0.1591 -0.5531
 1217SOL    HW1 4016   3.099   6.199   0.625 -3.7176 -0.5831  1.5210
 1217SOL    HW2 4017   3.111   6.049   0.607 -0.6631 -0.1821 -0.7638
 1218SOL     OW 4018   2.492   4.940   6.119 -0.1559  0.3085 -0.0910
 1218SOL    HW1 4019   2.438   4.910   6.045 -1.2305  1.1627  0.3052
 1218SOL    HW2 4020   2.518   4.860   6.164  0.4040 -0.2223 -1.3021
 1219SOL     OW 4021   0.452   6.255   6.757 -0.8970  0.2179 -0.2858
 1219SOL    HW1 4022   0.525   6.203   6.791 -1.2281 -0.1464 -0.1157
 1219SOL    HW2 4023   0.399   6.191   6.709 -0.8419  0.5783 -0.8302
 1220SOL     OW 4024   4.207   5.235   1.975 -0.2942  0.2888  0.4869
 1220SOL    HW1 4025   4.214   5.306   1.911  0.0861  0.0665  0.2818
 1220SOL    HW2 4026   4.125   5.253   2.021 -0.4626  0.5690  0.0832
 1221SOL     OW 4027   0.491   1.367   1.062  0.0992 -0.3107 -0.4066
 1221SOL    HW1 4028   0.566   1.308   1.068  0.1979 -0.2459 -0.9289
 1221SOL    HW2 4029   0.435   1.327   0.995  0.4478  0.4918 -1.1953
 1222SOL     OW 4030   5.102   3.081   2.105 -0.3475 -0.4227 -0.3437
 1222SOL    HW1 4031   5.124   3.172   2.122  0.1028 -0.4415 -0.7854
 1222SOL    HW2 4032   5.034   3.060   2.168  1.1340 -0.4688  1.3309
 1223SOL     OW 4033   2.038   5.584   3.352 -0.2616 -0.1057  0.2902
 1223SOL    HW1 4034   1.964   5.638   3.380 -0.0276 -0.3257  1.3920
 1223SOL    HW2 4035   2.115   5.637   3.375  0.0107 -1.3070  2.4097
 1224SOL     OW 4036   4.521   3.712   3.378  0.2458  0.1222  0.2993
 1224SOL    HW1 4037   4.610   3.678   3.390  0.5086  0.1650 -1.2801
 1224SOL    HW2 4038   4.505   3.766   3.455  0.9272 -1.2463  1.4516
 1225SOL     OW 4039   2.154   5.149   0.310 -0.4047  0.0865 -1.2654
 1225SOL    HW1 4040   2.149   5.065   0.264 -1.0715 -1.1402  0.9441
 1225SOL    HW2 4041   2.070   5.192   0.292 -1.7154 -1.4856  0.7246
 1226SOL     OW 4042   3.031   2.737   0.576  0.1346  0.0643  0.0852
 1226SOL    HW1 4043   3.095   2.669   0.597 -0.4676 -0.2141  1.1097
 1226SOL    HW2 4044   2.995   2.712   0.491  0.4947 -0.4462  0.0786
 1227SOL     OW 4045   0.221   1.387   6.405 -0.1706  0.4044 -0.1278
 1227SOL    HW1 4046   0.295   1.356   6.354 -0.5461  0.5223 -0.7684
 1227SOL    HW2 4047   0.201   1.473   6.368 -0.6413  0.3616  0.0168
 1228SOL     OW 4048   5.166   5.406   5.458 -0.0883 -0.1439  0.2635
 1228SOL    HW1 4049   5.201   5.494   5.442  0.9799 -0.8994 -1.9873
 1228SOL    HW2 4050   5.092   5.398   5.398  0.4897 -1.1140 -0.3576
 1229SOL     OW 4051   2.991   1.856   5.743 -0.0016 -0.2530 -0.0079
 1229SOL    HW1 4052   3.063   1.795   5.726 -0.1686 -0.3498 -0.3858
 1229SOL    HW2 4053   3.012   1.934   5.692  0.0130 -0.1454  0.1626
 1230SOL     OW 4054   3.030   5.985   3.725  0.1388  0.0168  0.6260
 1230SOL    HW1 4055   3.064   5.901   3.695  0.5990  0.1735  0.6956
 1230SOL    HW2 4056   3.023   5.975   3.820 -0.4626 -0.1754  0.5625
 1231SOL     OW 4057   0.991   2.631   4.431  0.0651 -0.0751  0.7595
 1231SOL    HW1 4058   1.047   2.674   4.496  0.4356  0.2551  0.2261
 1231SOL    HW2 4059   1.052   2.582   4.375 -0.0554  1.0627 -0.4213
 1232SOL     OW 4060   5.494   4.376   0.442 -0.4595 -0.6371  0.4298
 1232SOL    HW1 4061   5.455   4.429   0.512  0.2384  1.1775 -0.4680
 1232SOL    HW2 4062   5.581   4.353   0.475 -0.4217 -0.4262  0.4826
 1233SOL     OW 4063   2.142   1.316   0.397 -0.3155 -0.2054  1.0583
 1233SOL    HW1 4064   2.062   1.294   0.443 -1.5995 -0.4729 -1.1775
 1233SOL    HW2 4065   2.210   1.265   0.441 -1.6302 -1.2533  1.9433
 1234SOL     OW 4066   6.256   2.198   2.385  0.6495  0.0176 -0.0266
 1234SOL    HW1 4067   6.331   2.147   2.355  1.6575 -0.8769  3.5185
 1234SOL    HW2 4068   6.241   2.168   2.474 -3.4308  0.8267 -0.2545
 1235SOL     OW 4069   5.086   1.926   2.879 -0.2104  0.2397  0.7557
 1235SOL    HW1 4070   5.095   2.013   2.841 -0.3313 -0.5477 -1.2010
 1235SOL    HW2 4071   5.148   1.872   2.830 -1.2535 -1.0923  0.8338
 1236SOL     OW 4072   0.075   3.146   4.773 -0.3607 -0.5742  0.0169
 1236SOL    HW1 4073   0.086   3.157   4.679  1.5462  1.4325  0.3889
 1236SOL    HW2 4074  -0.005   3.094   4.783 -0.6884 -0.6857 -2.6730
 1237SOL     OW 4075   2.571   4.436   6.669 -0.3191  0.6120 -0.7141
 1237SOL    HW1 4076   2.528   4.393   6.743 -0.8573  0.2840 -1.2075
 1237SOL    HW2 4077   2.532   4.524   6.667 -0.7567  0.4119 -0.9855
 1238SOL     OW 4078   0.383   1.960   4.509 -0.4251  0.3838  0.1531
 1238SOL    HW1 4079   0.295   1.944   4.476 -0.5096  0.6480  0.2422
 1238SOL    HW2 4080   0.390   1.906   4.588 -0.0305 -0.6682 -0.5820
 1239SOL     OW 4081   3.794   2.510   5.032  0.7160  0.1295 -0.4246
 1239SOL    HW1 4082   3.756   2.577   5.089  0.6059  1.3938 -1.9026
 1239SOL    HW2 4083   3.888   2.515   5.048  0.6178 -0.1326  0.2593
 1240SOL     OW 4084   1.783   1.880   0.695  0.7057  0.2508 -0.4773
 1240SOL    HW1 4085   1.798   1.969   0.727 -1.9889  0.7470 -0.3458
 1240SOL    HW2 4086   1.768   1.890   0.601 -1.9184  0.3496 -0.1163
 1241SOL     OW 4087   3.824   0.621   2.108 -0.1413 -0.0497  0.1433
 1241SOL    HW1 4088   3.741   0.639   2.151  1.1208  2.8354  1.6526
 1241SOL    HW2 4089   3.816   0.661   2.022 -0.0547  1.0674  0.6314
 1242SOL     OW 4090   6.375   5.411   4.178  0.2725  0.2780 -0.0429
 1242SOL    HW1 4091   6.426   5.350   4.230  1.1199 -0.1262 -1.2956
 1242SOL    HW2 4092   6.291   5.418   4.224  0.8935 -0.2385  1.2175
 1243SOL     OW 4093   5.210   5.056   6.314 -0.0515 -0.1236 -0.2766
 1243SOL    HW1 4094   5.290   5.107   6.296 -0.8934  0.7958 -1.6356
 1243SOL    HW2 4095   5.242   4.971   6.342  1.4110  0.5787  0.2922
 1244SOL     OW 4096   4.120   3.888   0.019 -0.0541  0.1081 -0.5946
 1244SOL    HW1 4097   4.214   3.890  -0.002  0.1016  1.4234  0.1247
 1244SOL    HW2 4098   4.117   3.894   0.114 -0.8550 -1.4849 -0.4820
 1245SOL     OW 4099   2.279   0.390   4.680 -0.2207  0.1767  0.1361
 1245SOL    HW1 4100   2.329   0.467   4.657  0.0310 -0.4522 -1.5765
 1245SOL    HW2 4101   2.344   0.321   4.693 -0.5226 -0.1395  0.0088
 1246SOL     OW 4102   2.809   2.547   4.466 -0.0896  0.2461  0.6283
 1246SOL    HW1 4103   2.842   2.464   4.502  2.0321  0.5821 -0.3739
 1246SOL    HW2 4104   2.887   2.601   4.455 -1.4150  2.4161  1.2272
 1247SOL     OW 4105   1.394   4.584   6.721 -0.1285  0.2427  0.3616
 1247SOL    HW1 4106   1.374   4.674   6.744 -0.3096  0.7514 -1.6122
 1247SOL    HW2 4107   1.310   4.547   6.692 -0.2086 -0.8062  1.8295
 1248SOL     OW 4108   6.525   2.866   3.318  0.5553 -0.0875  0.2713
 1248SOL    HW1 4109   6.563   2.781   3.295 -1.1137 -0.3236 -2.0036
 1248SOL    HW2 4110   6.599   2.927   3.312  1.0964 -0.8430 -1.9525
 1249SOL     OW 4111   3.772   0.244   1.106  0.3296  0.0058  0.0630
 1249SOL    HW1 4112   3.702   0.250   1.171 -0.2051 -0.2169 -0.4827
 1249SOL    HW2 4113   3.849   0.280   1.150 -0.2818  0.8636  0.4504
 1250SOL     OW 4114   2.532   5.153   0.272 -0.3331  0.4904 -0.0110
 1250SOL    HW1 4115   2.511   5.229   0.326  1.3474 -0.7022  2.5406
 1250SOL    HW2 4116   2.627   5.153   0.266 -0.3659 -0.7298 -1.0390
 1251SOL     OW 4117   0.293   5.199   3.892  0.5585 -0.7429  0.2368
 1251SOL    HW1 4118   0.214   5.145   3.898  0.1946 -0.1635  0.8080
 1251SOL    HW2 4119   0.283   5.248   3.811 -0.1020 -0.0313  0.7293
 1252SOL     OW 4120   6.088   4.333   6.100  0.3100 -0.0642  0.8022
 1252SOL    HW1 4121   6.067   4.327   6.007 -0.5386 -1.2022  1.0437
 1252SOL    HW2 4122   6.131   4.418   6.110  2.6697 -0.8991 -1.0662
 1253SOL     OW 4123   0.032   2.964   5.858  0.9159  0.4353  0.3595
 1253SOL    HW1 4124   0.110   2.913   5.881  1.8336  1.8697  0.5429
 1253SOL    HW2 4125  -0.029   2.899   5.822  1.4563 -1.0282  1.9456
 1254SOL     OW 4126   1.095   0.455   2.806  0.2014  0.0976  0.5438
 1254SOL    HW1 4127   1.146   0.518   2.755  0.2886 -0.9416 -0.7274
 1254SOL    HW2 4128   1.161   0.403   2.851  0.1479  0.5559  1.1618
 1255SOL     OW 4129   3.243   3.606   4.392 -0.0466 -0.2259  0.2216
 1255SOL    HW1 4130   3.254   3.664   4.468 -1.7496 -0.2654  0.5451
 1255SOL    HW2 4131   3.148   3.602   4.379  0.1532 -1.2644 -1.1119
 1256SOL     OW 4132   5.070   4.913   4.209  0.4890 -0.2816  0.2356
 1256SOL    HW1 4133   5.084   4.909   4.303 -1.5594 -0.0303  0.5896
 1256SOL    HW2 4134   5.139   4.856   4.172  1.9631  0.4355  1.7632
 1257SOL     OW 4135   5.380   0.606   2.753 -0.3221  0.1255 -0.3568
 1257SOL    HW1 4136   5.440   0.587   2.681 -0.7034 -1.9644 -0.1751
 1257SOL    HW2 4137   5.412   0.552   2.826  0.7121  2.9753  1.4830
 1258SOL     OW 4138   3.317   2.723   1.431  0.1960  0.6239 -0.0418
 1258SOL    HW1 4139   3.348   2.804   1.470  0.9050  0.3124  0.0576
 1258SOL    HW2 4140   3.339   2.731   1.338 -0.4354  0.8661 -0.1790
 1259SOL     OW 4141   2.606   6.011   1.780  0.5015 -0.1673 -0.7619
 1259SOL    HW1 4142   2.526   5.993   1.830  0.2133  1.8940 -0.4064
 1259SOL    HW2 4143   2.630   6.100   1.805  3.1115 -0.8455 -0.6418
 1260SOL     OW 4144   4.601   3.050   1.207  0.7361  0.0677 -0.0359
 1260SOL    HW1 4145   4.671   3.103   1.244  0.1139  1.2000 -0.4541
 1260SOL    HW2 4146   4.530   3.057   1.270  0.7952 -0.6410  0.1209
 1261SOL     OW 4147   3.331   0.642   3.207  0.4738 -0.2747 -0.1366
 1261SOL    HW1 4148   3.322   0.566   3.150  0.7401  0.7870 -1.6462
 1261SOL    HW2 4149   3.394   0.699   3.163 -0.4972  1.2984  0.4002
 1262SOL     OW 4150   1.235   3.329   5.726 -0.9831  0.4731 -0.5214
 1262SOL    HW1 4151   1.288   3.408   5.739  0.6097 -0.5179 -0.6676
 1262SOL    HW2 4152   1.186   3.319   5.807 -0.9048  1.3827 -0.3459
 1263SOL     OW 4153   2.078   0.121   3.305  0.2021 -0.2614  0.1267
 1263SOL    HW1 4154   2.051   0.033   3.280  1.0886 -0.5124  0.0228
 1263SOL    HW2 4155   2.113   0.160   3.225 -1.0448  0.5442 -0.0630
 1264SOL     OW 4156   0.498   2.209   5.932  0.0179  0.1248 -0.4274
 1264SOL    HW1 4157   0.464   2.134   5.884 -1.1794  0.8638 -0.7822
 1264SOL    HW2 4158   0.422   2.247   5.975  0.8033  0.4399  0.7397
 1265SOL     OW 4159   4.165   5.158   3.474 -0.1924  0.3015  0.3741
 1265SOL    HW1 4160   4.079   5.124   3.448  1.0000 -2.3777 -0.4011
 1265SOL    HW2 4161   4.185   5.113   3.556  0.2371  1.3934  0.8900
 1266SOL     OW 4162   5.228   5.891   4.901  0.0369 -0.6017 -0.3176
 1266SOL    HW1 4163   5.319   5.877   4.929  0.3814 -0.3274 -1.2769
 1266SOL    HW2 4164   5.193   5.803   4.888 -0.0493 -0.7265  0.6974
 1267SOL     OW 4165   3.720   2.313   6.035 -0.0262  0.6963 -0.1522
 1267SOL    HW1 4166   3.674   2.234   6.007  1.6183  0.1227 -1.4702
 1267SOL    HW2 4167   3.812   2.296   6.012  0.3953  2.9342 -0.3756
 1268SOL     OW 4168   2.792   1.367   4.903 -0.1453  0.3962  0.4797
 1268SOL    HW1 4169   2.869   1.358   4.847 -1.4463 -2.0014 -1.0920
 1268SOL    HW2 4170   2.718   1.354   4.844 -1.7151  0.8848  2.2543
 1269SOL     OW 4171   0.724   0.718   5.365  0.0088  0.9320 -0.0084
 1269SOL    HW1 4172   0.806   0.672   5.347  0.1975  1.3788 -0.2872
 1269SOL    HW2 4173   0.657   0.649   5.361  0.3229  0.6348 -0.1758
 1270SOL     OW 4174   4.910   5.067   0.301  0.1693 -0.1322 -0.3165
 1270SOL    HW1 4175   4.869   5.147   0.269 -0.6596 -0.3471  0.1997
 1270SOL    HW2 4176   4.994   5.096   0.336 -1.0249  0.8959  1.8975
 1271SOL     OW 4177   6.095   6.657   3.621 -0.1198 -0.4380  0.1594
 1271SOL    HW1 4178   6.168   6.609   3.661  0.8414 -0.1646 -1.2176
 1271SOL    HW2 4179   6.135   6.705   3.549 -1.7360 -0.5915 -0.8749
 1272SOL     OW 4180   5.230   3.638   2.590 -0.3507 -0.3177 -0.3935
 1272SOL    HW1 4181   5.281   3.603   2.664 -2.1984  0.7339  1.5112
 1272SOL    HW2 4182   5.199   3.560   2.543 -1.0236 -1.1545  1.3386
 1273SOL     OW 4183   3.557   2.783   1.621 -0.7330  0.2784 -0.8146
 1273SOL    HW1 4184   3.475   2.831   1.611 -0.9988 -0.4511 -2.6511
 1273SOL    HW2 4185   3.603   2.797   1.538  2.4040  3.0568  1.1225
 1274SOL     OW 4186   1.815   6.664   3.540 -0.0979 -0.7514  0.3831
 1274SOL    HW1 4187   1.854   6.654   3.453 -0.1301  0.2657  0.2316
 1274SOL    HW2 4188   1.862   6.738   3.579 -1.2309 -0.1046  0.5658
 1275SOL     OW 4189   1.839   2.748   1.411  0.8451  0.6805  0.2932
 1275SOL    HW1 4190   1.774   2.680   1.429  0.0943  1.9297  2.8774
 1275SOL    HW2 4191   1.922   2.710   1.438  1.0445 -0.4206 -1.6894
 1276SOL     OW 4192   0.427   4.282   1.311 -0.2701  0.4754  0.2658
 1276SOL    HW1 4193   0.491   4.228   1.264 -2.4815 -0.6226 -1.6766
 1276SOL    HW2 4194   0.410   4.356   1.252 -0.5705  0.9155  0.8932
 1277SOL     OW 4195   5.879   0.868   2.932 -0.7045 -0.6119 -0.2303
 1277SOL    HW1 4196   5.875   0.902   3.021  2.1543 -1.0807  0.1659
 1277SOL    HW2 4197   5.790   0.877   2.899 -1.1510  2.8069  1.4624
 1278SOL     OW 4198   0.448   4.712   4.072 -0.1442 -0.3001  0.5024
 1278SOL    HW1 4199   0.447   4.791   4.127 -0.8647  0.6157 -0.7661
 1278SOL    HW2 4200   0.372   4.662   4.101 -0.3449  0.0281  0.5535
 1279SOL     OW 4201   2.069   3.324   0.367  0.6379  0.2949  0.2239
 1279SOL    HW1 4202   2.082   3.347   0.274  1.7319 -1.0077  0.0100
 1279SOL    HW2 4203   2.153   3.285   0.393 -0.8822 -3.1488  0.5799
 1280SOL     OW 4204   4.210   4.753   6.166  0.0169  0.7275 -0.5394
 1280SOL    HW1 4205   4.241   4.843   6.167 -1.4319  1.2823  1.8878
 1280SOL    HW2 4206   4.121   4.757   6.200 -0.1321 -1.6002 -0.4574
 1281SOL     OW 4207   0.517   5.589   5.302  0.1959 -0.2815  0.0613
 1281SOL    HW1 4208   0.455   5.532   5.347 -0.6914 -0.0724 -0.8583
 1281SOL    HW2 4209   0.473   5.674   5.299 -0.1085 -0.4784 -1.8651
 1282SOL     OW 4210   5.115   2.652   6.501  0.2135 -0.3231 -0.2267
 1282SOL    HW1 4211   5.152   2.740   6.503  1.2069 -0.7176 -0.4520
 1282SOL    HW2 4212   5.029   2.660   6.543  2.4636 -0.2072  5.2456
 1283SOL     OW 4213   4.075   5.175   3.057 -0.7725 -0.0597  0.6001
 1283SOL    HW1 4214   3.981   5.194   3.053 -0.9946 -1.2219 -0.4820
 1283SOL    HW2 4215   4.080   5.081   3.072  0.2615  0.2299  2.3057
 1284SOL     OW 4216   2.475   6.409   3.104  0.5069  0.3894  0.0195
 1284SOL    HW1 4217   2.527   6.350   3.050 -0.6233 -1.1532  0.5168
 1284SOL    HW2 4218   2.417   6.350   3.154 -1.0105  1.9552  0.1919
 1285SOL     OW 4219   1.687   0.609   5.523 -0.5435  0.3546  0.6359
 1285SOL    HW1 4220   1.722   0.627   5.610  1.3399  0.6872 -0.1517
 1285SOL    HW2 4221   1.749   0.649   5.463 -0.8913 -1.3109 -0.9194
 1286SOL     OW 4222   5.566   5.188   3.506  0.0304  0.2240  0.4052
 1286SOL    HW1 4223   5.624   5.263   3.495  0.4314 -0.1265  0.0604
 1286SOL    HW2 4224   5.616   5.127   3.561 -0.2900  0.2092  0.6817
 1287SOL     OW 4225   6.592   6.196   2.157  0.0237  0.3580 -0.3184
 1287SOL    HW1 4226   6.539   6.246   2.096  0.2230  2.0398  0.8250
 1287SOL    HW2 4227   6.659   6.154   2.102 -0.1174  1.4008 -1.3191
 1288SOL     OW 4228   5.585   3.533   6.583 -0.0333 -0.0748  0.6767
 1288SOL    HW1 4229   5.521   3.594   6.545  0.7177  0.5725  0.4376
 1288SOL    HW2 4230   5.599   3.566   6.671  0.7160  0.3800  0.3954
 1289SOL     OW 4231   2.667   0.498   3.779 -0.3721  0.3674  0.6246
 1289SOL    HW1 4232   2.718   0.454   3.846 -0.4733 -0.2893  0.2748
 1289SOL    HW2 4233   2.636   0.428   3.721 -1.0680  0.8235  0.4237
 1290SOL     OW 4234   1.393   2.444   6.103  0.0096 -0.5560  0.4330
 1290SOL    HW1 4235   1.403   2.538   6.117  1.2447 -0.7632  1.0822
 1290SOL    HW2 4236   1.363   2.410   6.187 -1.3155 -0.6512 -0.0502
 1291SOL     OW 4237   3.084   3.957   0.588  0.0617 -0.0465  0.1999
 1291SOL    HW1 4238   3.078   3.918   0.501 -0.4352  0.9539 -0.2344
 1291SOL    HW2 4239   3.143   3.900   0.636 -1.4941 -1.9727 -0.0480
 1292SOL     OW 4240   1.796   4.147   4.803 -0.3681  0.0067  0.4794
 1292SOL    HW1 4241   1.740   4.199   4.745  0.5673 -0.0868 -0.5506
 1292SOL    HW2 4242   1.788   4.058   4.769  1.1322  0.1438 -0.3226
 1293SOL     OW 4243   2.082   1.323   6.365 -0.1266  0.0164 -0.5715
 1293SOL    HW1 4244   2.173   1.315   6.338  0.0178 -0.4808  0.0216
 1293SOL    HW2 4245   2.075   1.411   6.402  0.4141 -0.3472  0.4319
 1294SOL     OW 4246   4.073   1.636   1.256  0.3384  1.0180  0.5313
 1294SOL    HW1 4247   4.002   1.594   1.207 -0.3551  1.3015  1.2564
 1294SOL    HW2 4248   4.143   1.649   1.192  0.8969 -1.9060  0.4100
 1295SOL     OW 4249   3.881   1.384   4.175  0.5125  0.0543 -0.5089
 1295SOL    HW1 4250   3.887   1.430   4.092 -1.2844  2.3076  0.4922
 1295SOL    HW2 4251   3.799   1.415   4.213  1.9023  0.1383  2.7043
 1296SOL     OW 4252   2.901   3.172   4.912 -0.7031 -0.0939  0.3906
 1296SOL    HW1 4253   2.820   3.204   4.872 -0.7278  1.6212  1.6460
 1296SOL    HW2 4254   2.953   3.251   4.925  1.0622 -1.1316 -0.0961
 1297SOL     OW 4255   4.588   5.823   4.392  0.1672 -0.1577  0.1485
 1297SOL    HW1 4256   4.608   5.874   4.313  0.2556  0.3406  0.4922
 1297SOL    HW2 4257   4.496   5.799   4.382  0.4972 -1.1980 -0.7213
 1298SOL     OW 4258   0.448   0.067   2.635  0.1538  0.1668  0.4538
 1298SOL    HW1 4259   0.512   0.054   2.705  0.4894  1.3574  0.3874
 1298SOL    HW2 4260   0.365   0.080   2.682  0.0300 -0.8723  0.5539
 1299SOL     OW 4261   0.663   1.140   1.070 -0.4765  0.4264  0.1854
 1299SOL    HW1 4262   0.636   1.066   1.124  0.3215  0.4568  0.6407
 1299SOL    HW2 4263   0.736   1.180   1.118  0.8292 -0.0410 -1.2939
 1300SOL     OW 4264   3.276   3.591   3.944  0.2182  0.0178  0.1467
 1300SOL    HW1 4265   3.270   3.675   3.988  3.0839 -0.1138  1.0055
 1300SOL    HW2 4266   3.288   3.612   3.851 -0.5677  0.4762  0.1435
 1301SOL     OW 4267   0.625   2.381   1.531 -0.1070 -0.1061 -0.2729
 1301SOL    HW1 4268   0.646   2.326   1.455  0.9542 -0.3722  0.1877
 1301SOL    HW2 4269   0.710   2.398   1.573 -0.7473 -0.8457  1.4455
 1302SOL     OW 4270   6.327   0.108   0.305 -0.0357 -0.1943  0.8180
 1302SOL    HW1 4271   6.392   0.130   0.372 -0.4054  0.5577  0.9393
 1302SOL    HW2 4272   6.260   0.175   0.315 -0.5196 -0.5983  0.2702
 1303SOL     OW 4273   2.511   3.165   2.451  0.3337  0.3712  0.2337
 1303SOL    HW1 4274   2.548   3.107   2.385  1.2278  0.7463  0.3964
 1303SOL    HW2 4275   2.519   3.253   2.412  1.0521  0.6149  0.9184
 1304SOL     OW 4276   6.692   6.681   1.878  0.0690  0.4147  0.7249
 1304SOL    HW1 4277   6.724   6.648   1.794  1.3107  2.0758  0.5037
 1304SOL    HW2 4278   6.685   6.603   1.933 -0.0287 -0.5948 -0.6785
 1305SOL     OW 4279   6.388   1.618   1.721 -0.2044  0.3889  0.5394
 1305SOL    HW1 4280   6.347   1.629   1.807 -0.1269 -0.9232  0.7555
 1305SOL    HW2 4281   6.482   1.624   1.738 -0.1942  0.2800  0.5244
 1306SOL     OW 4282   4.537   2.504   6.535 -0.0707 -0.5536  0.1347
 1306SOL    HW1 4283   4.588   2.500   6.454 -0.2080 -0.5581  0.0474
 1306SOL    HW2 4284   4.526   2.412   6.560 -0.8810 -0.6064 -0.3855
 1307SOL     OW 4285   5.831   3.658   4.808  0.0447 -0.5295 -0.3169
 1307SOL    HW1 4286   5.743   3.667   4.773  0.5552  2.1487 -1.1867
 1307SOL    HW2 4287   5.821   3.670   4.903 -0.4760  0.7528 -0.5071
 1308SOL     OW 4288   4.113   2.152   0.749 -0.4055 -0.0270  0.1212
 1308SOL    HW1 4289   4.087   2.202   0.826 -1.1679 -0.4734  0.1647
 1308SOL    HW2 4290   4.086   2.063   0.768 -0.5848 -0.1440 -0.6540
 1309SOL     OW 4291   6.727   3.316   0.636 -0.2174 -0.0220  0.4189
 1309SOL    HW1 4292   6.762   3.323   0.725 -2.4104 -0.2231  1.3699
 1309SOL    HW2 4293   6.798   3.278   0.585  0.8664 -0.5817  2.2418
 1310SOL     OW 4294   1.715   5.770   2.053 -0.3714  0.0376  0.5272
 1310SOL    HW1 4295   1.661   5.848   2.064  0.3246  0.6123 -0.0319
 1310SOL    HW2 4296   1.804   5.804   2.043  0.1161 -0.8893  1.4987
 1311SOL     OW 4297   2.219   0.254   1.040 -0.1385  0.1931  0.3289
 1311SOL    HW1 4298   2.294   0.300   1.002 -0.1733 -0.9604 -1.2132
 1311SOL    HW2 4299   2.144   0.283   0.988 -0.1475 -1.5921 -0.7368
 1312SOL     OW 4300   0.259   0.598   3.784 -0.5808  0.1109  0.4737
 1312SOL    HW1 4301   0.322   0.536   3.820  1.7712  1.9256 -0.3383
 1312SOL    HW2 4302   0.235   0.562   3.699 -2.6624 -1.8249  1.7380
 1313SOL     OW 4303   1.092   3.507   2.244 -0.3793 -0.0377 -0.5839
 1313SOL    HW1 4304   1.086   3.417   2.278  0.8485 -0.5140 -1.5383
 1313SOL    HW2 4305   1.159   3.548   2.298 -1.8611  0.7786  0.7377
 1314SOL     OW 4306   2.387   4.867   0.395  0.4035  0.3159  0.1445
 1314SOL    HW1 4307   2.347   4.954   0.395 -1.2428 -0.3978 -0.9545
 1314SOL    HW2 4308   2.389   4.841   0.487  1.3787  1.6866  0.5457
 1315SOL     OW 4309   5.511   2.229   3.556  0.4229 -0.0598 -0.4180
 1315SOL    HW1 4310   5.548   2.147   3.524  0.1457  0.0162 -0.9430
 1315SOL    HW2 4311   5.564   2.297   3.515  0.6653  0.0294  0.0312
 1316SOL     OW 4312   2.738   4.375   3.257  0.4732 -0.3173 -0.7087
 1316SOL    HW1 4313   2.753   4.432   3.182  0.3450  0.3552 -0.2341
 1316SOL    HW2 4314   2.812   4.391   3.315 -1.1593  1.9307  0.9672
 1317SOL     OW 4315   1.977   4.248   4.980 -0.0837 -0.4102  0.1891
 1317SOL    HW1 4316   1.928   4.210   4.907  0.4820 -1.2538  0.2371
 1317SOL    HW2 4317   2.060   4.275   4.942 -0.6766  1.3071  0.0412
 1318SOL     OW 4318   0.077   6.243   2.870 -0.4529 -0.9331  0.6425
 1318SOL    HW1 4319   0.012   6.314   2.872  1.0792  0.5529  0.4407
 1318SOL    HW2 4320   0.028   6.167   2.840 -2.0405  0.1974  0.1928
 1319SOL     OW 4321   0.887   6.556   4.054 -0.2271 -0.2235 -0.6280
 1319SOL    HW1 4322   0.963   6.564   3.996  2.0938  0.6483  2.2465
 1319SOL    HW2 4323   0.902   6.475   4.103 -2.5848 -1.4173 -1.6980
 1320SOL     OW 4324   6.460   1.925   6.082  0.0487  0.6051  0.4654
 1320SOL    HW1 4325   6.524   1.856   6.064  1.1836  1.0089  2.5565
 1320SOL    HW2 4326   6.382   1.879   6.110  0.5602  0.1413  1.1530
 1321SOL     OW 4327   3.085   1.205   3.903  0.1962  0.0538 -0.3146
 1321SOL    HW1 4328   3.114   1.184   3.992  0.8365 -0.8478 -0.7260
 1321SOL    HW2 4329   3.026   1.279   3.914  1.9092  1.3441  0.6585
 1322SOL     OW 4330   1.000   6.069   2.343  0.0300 -0.2482 -0.0897
 1322SOL    HW1 4331   1.078   6.104   2.386  0.4395 -0.7369 -0.4228
 1322SOL    HW2 4332   0.935   6.063   2.414 -0.1445  1.3881 -0.0766
 1323SOL     OW 4333   2.566   6.562   2.819 -0.3969  0.2040  0.3080
 1323SOL    HW1 4334   2.568   6.499   2.891  0.4332 -0.0933  0.0359
 1323SOL    HW2 4335   2.474   6.564   2.791 -0.3452 -1.2675 -0.0229
 1324SOL     OW 4336   1.969   2.082   6.369  0.3338  0.1232  0.4380
 1324SOL    HW1 4337   2.014   2.163   6.342 -2.1048  1.3136 -0.3406
 1324SOL    HW2 4338   1.878   2.108   6.378 -0.3610 -2.3669  1.1707
 1325SOL     OW 4339   0.338   3.680   2.481 -0.3317 -0.0753  0.2235
 1325SOL    HW1 4340   0.420   3.633   2.495  0.3488  1.5048  1.8912
 1325SOL    HW2 4341   0.334   3.692   2.386  2.8094  2.1128  0.1987
 1326SOL     OW 4342   1.470   1.354   3.917 -0.1196 -0.3644  0.2204
 1326SOL    HW1 4343   1.534   1.301   3.869  0.5738 -0.8185  1.5931
 1326SOL    HW2 4344   1.392   1.299   3.921  0.8367 -1.6792  2.2907
 1327SOL     OW 4345   5.430   5.257   0.391 -0.4370 -0.2019  0.3175
 1327SOL    HW1 4346   5.472   5.267   0.306 -0.5011 -2.1026  0.0349
 1327SOL    HW2 4347   5.503   5.243   0.452 -0.5136 -2.5961 -0.0389
 1328SOL     OW 4348   2.212   2.371   5.165  0.0078 -0.1573 -0.4738
 1328SOL    HW1 4349   2.127   2.341   5.197  0.6239 -1.3602  0.1390
 1328SOL    HW2 4350   2.273   2.303   5.194  0.9611 -0.0721 -2.1762
 1329SOL     OW 4351   4.143   0.366   3.101 -0.3274 -0.4424 -0.1707
 1329SOL    HW1 4352   4.100   0.353   3.185 -1.7355  0.7287 -0.6699
 1329SOL    HW2 4353   4.183   0.453   3.107 -2.2084  0.5729 -1.3817
 1330SOL     OW 4354   3.595   5.741   3.891  0.2844  0.2362  0.4182
 1330SOL    HW1 4355   3.607   5.794   3.812 -0.9743 -1.5711 -1.0787
 1330SOL    HW2 4356   3.513   5.772   3.929  0.3571  0.4079  0.4355
 1331SOL     OW 4357   4.990   2.700   5.459 -0.3093 -0.3895 -0.7375
 1331SOL    HW1 4358   5.044   2.637   5.506  0.6127  0.0886 -1.1339
 1331SOL    HW2 4359   4.932   2.736   5.526 -0.6549 -1.4440 -0.4554
 1332SOL     OW 4360   0.625   2.203   1.212 -0.1552 -0.1858 -0.7479
 1332SOL    HW1 4361   0.649   2.296   1.208  0.3866 -0.2744  0.2106
 1332SOL    HW2 4362   0.576   2.188   1.131 -2.5585  1.5890  0.2329
 1333SOL     OW 4363   5.523   1.501   0.883  0.3169  0.2088  0.3708
 1333SOL    HW1 4364   5.550   1.427   0.937  1.1020  0.9836  1.0779
 1333SOL    HW2 4365   5.473   1.557   0.942 -1.4175 -0.3629 -0.4938
 1334SOL     OW 4366   5.348   2.650   0.174  0.1521 -0.0615  0.2747
 1334SOL    HW1 4367   5.299   2.732   0.182 -1.2615 -0.9799  1.2621
 1334SOL    HW2 4368   5.319   2.613   0.091  1.7348  0.9926 -0.8121
 1335SOL     OW 4369   4.372   1.109   0.468 -0.0285  0.5265 -0.4871
 1335SOL    HW1 4370   4.384   1.120   0.374  0.5003 -1.5397 -0.7061
 1335SOL    HW2 4371   4.277   1.101   0.479 -0.0381 -0.0787 -0.9693
 1336SOL     OW 4372   5.176   0.251   4.064  0.6245 -0.2465  0.1622
 1336SOL    HW1 4373   5.162   0.331   4.013  0.1645 -0.1895  0.3748
 1336SOL    HW2 4374   5.107   0.192   4.035 -0.0563  0.0204  1.1900
 1337SOL     OW 4375   2.724   2.757   1.002  0.4943 -0.5975  0.2058
 1337SOL    HW1 4376   2.804   2.725   1.043  1.2048 -0.3934 -0.9992
 1337SOL    HW2 4377   2.748   2.842   0.964 -0.3226 -0.4744 -0.0564
 1338SOL     OW 4378   0.743   4.060   4.021 -0.1220  0.2236 -0.1374
 1338SOL    HW1 4379   0.812   4.072   4.086  0.8848 -0.5767 -1.0121
 1338SOL    HW2 4380   0.688   3.990   4.055 -1.3744  1.7857  1.2268
 1339SOL     OW 4381   3.319   4.800   3.793  0.3478  0.0528  0.4887
 1339SOL    HW1 4382   3.371   4.747   3.732  0.3563  0.2623  0.3139
 1339SOL    HW2 4383   3.351   4.774   3.879  0.3440 -0.2361  0.4044
 1340SOL     OW 4384   2.591   4.717   4.468  0.5810 -0.1637  0.3242
 1340SOL    HW1 4385   2.560   4.807   4.460  0.8251 -0.2330 -2.0450
 1340SOL    HW2 4386   2.600   4.703   4.563 -0.8657  1.7864  0.8071
 1341SOL     OW 4387   4.037   2.852   1.404 -0.2210 -0.4065  0.0590
 1341SOL    HW1 4388   4.012   2.773   1.451 -0.6747  0.5376  1.4660
 1341SOL    HW2 4389   3.963   2.912   1.416  0.0815  0.2140 -1.0386
 1342SOL     OW 4390   1.281   0.062   5.385  0.3492 -0.1707  0.2057
 1342SOL    HW1 4391   1.357   0.006   5.370  0.7453  0.9205 -2.3932
 1342SOL    HW2 4392   1.313   0.151   5.369 -0.6670  0.6975  2.5563
 1343SOL     OW 4393   6.039   1.708   6.419  0.8022  0.2095 -0.0669
 1343SOL    HW1 4394   6.069   1.623   6.387 -2.3007 -1.0484  0.0093
 1343SOL    HW2 4395   6.098   1.728   6.492  2.5203 -1.1306 -1.0208
 1344SOL     OW 4396   1.594   2.749   0.652  0.1882  0.5566  0.5653
 1344SOL    HW1 4397   1.587   2.845   0.655  0.1590  0.6332 -1.1050
 1344SOL    HW2 4398   1.685   2.733   0.626 -0.4381  0.2309 -1.5927
 1345SOL     OW 4399   0.476   0.253   6.136 -0.4580  0.8491 -0.0362
 1345SOL    HW1 4400   0.405   0.318   6.137  0.2148  1.6149  1.3276
 1345SOL    HW2 4401   0.500   0.243   6.228  2.0993  1.6530 -0.5316
 1346SOL     OW 4402   0.440   5.207   2.431  0.1352 -0.1535  0.5005
 1346SOL    HW1 4403   0.485   5.149   2.493  2.1610  1.1421  0.3503
 1346SOL    HW2 4404   0.430   5.155   2.352  0.4935 -0.7947  0.8709
 1347SOL     OW 4405   4.889   1.622   3.554  0.4942 -0.1536 -0.3295
 1347SOL    HW1 4406   4.854   1.538   3.582 -2.2631  1.6400  2.1757
 1347SOL    HW2 4407   4.964   1.638   3.612  0.5131 -0.4927 -0.2617
 1348SOL     OW 4408   3.801   2.846   2.465  0.4368 -0.0809 -0.2467
 1348SOL    HW1 4409   3.806   2.925   2.519  0.0117 -0.7940  0.8805
 1348SOL    HW2 4410   3.828   2.874   2.378 -2.5966  2.0289 -0.6645
 1349SOL     OW 4411   6.281   2.469   4.038 -0.2602  0.8150  0.7073
 1349SOL    HW1 4412   6.208   2.497   3.983 -2.4323 -0.9100  2.4777
 1349SOL    HW2 4413   6.302   2.381   4.008  1.2441  1.3338  0.1390
 1350SOL     OW 4414   2.770   6.525   1.416  0.2300 -0.4834  0.1182
 1350SOL    HW1 4415   2.679   6.517   1.442  0.5067 -1.3020  0.8661
 1350SOL    HW2 4416   2.768   6.583   1.339 -0.9487 -0.8087 -0.1119
 1351SOL     OW 4417   3.238   3.382   0.034  0.2037 -0.8321 -0.2706
 1351SOL    HW1 4418   3.328   3.364   0.060  0.0619  0.1400  1.0312
 1351SOL    HW2 4419   3.245   3.457  -0.025  0.2648 -0.8256 -0.2556
 1352SOL     OW 4420   5.494   3.940   1.864 -0.0027  0.1474 -0.0606
 1352SOL    HW1 4421   5.549   3.885   1.809  0.6933  0.3801  0.3870
 1352SOL    HW2 4422   5.552   3.968   1.935 -0.5597  0.8197  0.1378
 1353SOL     OW 4423   6.784   3.224   1.522  0.1634 -0.2518  0.1711
 1353SOL    HW1 4424   6.783   3.314   1.492  1.2661 -0.5314 -0.7559
 1353SOL    HW2 4425   6.828   3.227   1.607 -0.1401  0.1213  0.3159
 1354SOL     OW 4426   1.342   5.612   0.036  0.2215  0.3822 -0.1922
 1354SOL    HW1 4427   1.430   5.573   0.034 -0.3699 -1.3921  2.7213
 1354SOL    HW2 4428   1.346   5.676   0.106 -0.7251  0.5524 -0.2870
 1355SOL     OW 4429   4.669   4.953   0.489 -0.0094  0.5083  0.1094
 1355SOL    HW1 4430   4.656   4.873   0.438 -1.1380  2.1804 -2.4397
 1355SOL    HW2 4431   4.745   4.995   0.449 -0.6238  1.6284  0.0565
 1356SOL     OW 4432   0.514   0.286   3.531 -0.0141  0.3080  0.8588
 1356SOL    HW1 4433   0.468   0.275   3.448  2.0269  1.7770 -0.5882
 1356SOL    HW2 4434   0.446   0.311   3.594 -1.7926 -2.0003 -0.0234
 1357SOL     OW 4435   3.711   5.658   6.680  0.5325  0.2364  0.0012
 1357SOL    HW1 4436   3.729   5.607   6.759 -0.4248  1.0423  0.7624
 1357SOL    HW2 4437   3.674   5.594   6.619  0.9769 -0.3299  0.3088
 1358SOL     OW 4438   4.472   4.460   1.329 -0.0334  0.1297  0.1674
 1358SOL    HW1 4439   4.460   4.554   1.338 -0.3333  0.0548  0.5925
 1358SOL    HW2 4440   4.415   4.422   1.395 -1.2663 -0.4172 -1.1493
 1359SOL     OW 4441   2.494   4.888   5.748 -0.0540  0.2150 -0.2039
 1359SOL    HW1 4442   2.498   4.973   5.704 -2.2982 -1.3902 -4.0866
 1359SOL    HW2 4443   2.411   4.889   5.795  0.4957  0.5678  0.7714
 1360SOL     OW 4444   6.753   3.248   4.052 -0.4769 -0.0429 -0.2041
 1360SOL    HW1 4445   6.720   3.335   4.073 -1.4703 -0.3823 -0.3086
 1360SOL    HW2 4446   6.675   3.192   4.054 -0.6853 -0.2314 -4.3059
 1361SOL     OW 4447   6.251   0.534   0.520 -0.4113  0.0801 -0.1078
 1361SOL    HW1 4448   6.232   0.441   0.511  1.2136 -0.2661 -0.1837
 1361SOL    HW2 4449   6.302   0.557   0.442 -1.0691  1.1212 -0.2547
 1362SOL     OW 4450   1.488   5.476   4.379  0.2306  0.0219  0.2720
 1362SOL    HW1 4451   1.442   5.473   4.463 -2.1807  3.0212 -0.7540
 1362SOL    HW2 4452   1.455   5.400   4.330  1.0849 -1.3106  1.6908
 1363SOL     OW 4453   2.472   0.786   2.492 -0.3578  0.4370 -0.6544
 1363SOL    HW1 4454   2.492   0.825   2.577  1.1843  1.8597 -1.6159
 1363SOL    HW2 4455   2.549   0.803   2.439 -0.9149 -1.2606 -2.0789
 1364SOL     OW 4456   0.305   4.526   2.102 -0.6979 -0.0502 -0.3275
 1364SOL    HW1 4457   0.394   4.544   2.134 -0.3601  0.5376 -1.5307
 1364SOL    HW2 4458   0.285   4.439   2.135 -0.1469  0.2821  0.9556
 1365SOL     OW 4459   4.275   1.752   2.106  0.0014 -0.0602 -0.4318
 1365SOL    HW1 4460   4.222   1.789   2.036  0.4793 -2.2606 -2.0682
 1365SOL    HW2 4461   4.232   1.669   2.128  1.4783 -0.8191 -0.2217
 1366SOL     OW 4462   3.757   2.854   6.285  0.4676 -1.0651  0.4214
 1366SOL    HW1 4463   3.754   2.765   6.250 -2.6764 -0.2130 -2.0348
 1366SOL    HW2 4464   3.690   2.855   6.353 -0.4258 -0.3418 -0.4370
 1367SOL     OW 4465   2.979   0.428   6.401 -0.2606 -0.0597 -0.1632
 1367SOL    HW1 4466   2.901   0.389   6.442 -0.3024  0.9796  0.7881
 1367SOL    HW2 4467   2.983   0.388   6.314 -2.1347  0.2187 -0.4142
 1368SOL     OW 4468   1.695   3.370   5.982 -0.3005  0.3406 -0.6871
 1368SOL    HW1 4469   1.672   3.446   5.930  0.1013  0.7784 -0.2286
 1368SOL    HW2 4470   1.784   3.348   5.956 -0.9849 -1.0243 -2.0610
 1369SOL     OW 4471   4.631   2.609   3.697 -0.3485  0.2502 -0.2071
 1369SOL    HW1 4472   4.590   2.605   3.611 -0.6889  1.3931 -0.1156
 1369SOL    HW2 4473   4.725   2.607   3.680 -0.4221 -0.6596 -0.5285
 1370SOL     OW 4474   4.026   6.116   3.488  0.2649  0.1823  0.3584
 1370SOL    HW1 4475   3.992   6.081   3.406 -0.4499  1.1318  0.2439
 1370SOL    HW2 4476   3.949   6.131   3.542  0.5869  1.2840  0.5273
 1371SOL     OW 4477   2.234   3.702   5.941 -0.0379  0.2138  0.1336
 1371SOL    HW1 4478   2.316   3.740   5.907  0.5918 -1.0722  0.1552
 1371SOL    HW2 4479   2.166   3.739   5.885  0.1938  3.3097  1.6872
 1372SOL     OW 4480   5.035   3.888   6.024 -0.2960 -0.1663  0.0262
 1372SOL    HW1 4481   4.940   3.892   6.024 -0.3138 -0.0796 -1.1209
 1372SOL    HW2 4482   5.057   3.864   5.933  0.8259  1.3196 -0.1269
 1373SOL     OW 4483   2.780   0.592   3.054 -0.4319  1.0473 -0.4111
 1373SOL    HW1 4484   2.794   0.643   2.975  1.2125  0.9298 -0.2303
 1373SOL    HW2 4485   2.862   0.545   3.068 -0.9727  0.4234  0.9032
 1374SOL     OW 4486   2.802   0.861   6.515 -0.2415 -0.4480  0.0833
 1374SOL    HW1 4487   2.832   0.781   6.472 -1.5279 -0.8715 -0.0763
 1374SOL    HW2 4488   2.824   0.931   6.454  0.1294 -0.7688 -0.1548
 1375SOL     OW 4489   3.346   3.844   4.026  0.7425  0.2468 -0.0149
 1375SOL    HW1 4490   3.440   3.846   4.044  0.6263 -1.3774  0.9774
 1375SOL    HW2 4491   3.306   3.888   4.101  0.6017 -1.0863  0.7116
 1376SOL     OW 4492   6.599   0.442   2.958  0.3390 -0.0982  0.1145
 1376SOL    HW1 4493   6.569   0.413   2.872  0.0008  1.3283 -0.2681
 1376SOL    HW2 4494   6.692   0.462   2.945  0.3288 -0.0433  0.1281
 1377SOL     OW 4495   6.161   6.360   1.018 -0.1965  0.5113 -0.6913
 1377SOL    HW1 4496   6.105   6.429   1.055  1.5680  1.8402 -0.3068
 1377SOL    HW2 4497   6.218   6.407   0.957  1.6047 -0.4311  0.1915
 1378SOL     OW 4498   6.215   3.035   6.761 -0.2173 -0.1555  0.1125
 1378SOL    HW1 4499   6.201   3.115   6.710  1.4960 -0.6112 -1.1482
 1378SOL    HW2 4500   6.212   3.065   6.852 -2.0739  0.8937 -0.2275
 1379SOL     OW 4501   2.230   0.147   2.730 -0.5224 -0.1229  0.6012
 1379SOL    HW1 4502   2.314   0.127   2.689 -0.7608 -0.3533  0.2137
 1379SOL    HW2 4503   2.168   0.146   2.657 -0.9868 -0.7096  0.9973
 1380SOL     OW 4504   3.750   4.672   3.790 -0.0001  0.5021  0.6967
 1380SOL    HW1 4505   3.710   4.655   3.705  1.3272 -2.1045  0.4940
 1380SOL    HW2 4506   3.708   4.610   3.850  1.8249 -0.4965  1.0249
 1381SOL     OW 4507   6.168   5.763   4.473  0.2179  0.1007 -0.0134
 1381SOL    HW1 4508   6.082   5.722   4.473  0.2345  0.0677  0.8264
 1381SOL    HW2 4509   6.225   5.702   4.519  0.2487  1.0414  1.2470
 1382SOL     OW 4510   4.067   0.405   2.127 -0.1862 -0.2960 -0.4366
 1382SOL    HW1 4511   4.081   0.414   2.221  0.8668 -0.2128 -0.5920
 1382SOL    HW2 4512   3.985   0.451   2.110  0.2573  0.7653  0.2457
 1383SOL     OW 4513   1.397   0.781   5.737  0.1009  0.9842  0.2310
 1383SOL    HW1 4514   1.351   0.698   5.728 -0.2925  1.1231  0.9391
 1383SOL    HW2 4515   1.328   0.846   5.745  0.3732  1.5589 -1.6332
 1384SOL     OW 4516   6.001   3.416   2.483  0.3657  0.2654  0.2422
 1384SOL    HW1 4517   6.046   3.389   2.402 -0.3124  0.9299 -0.3763
 1384SOL    HW2 4518   5.979   3.508   2.468 -1.9994 -0.2776  0.1309
 1385SOL     OW 4519   5.439   2.659   2.133 -0.4268 -0.7612 -0.2408
 1385SOL    HW1 4520   5.497   2.705   2.194 -0.3792 -0.6833 -0.3438
 1385SOL    HW2 4521   5.438   2.569   2.164 -1.6369 -0.4122  0.8035
 1386SOL     OW 4522   6.425   2.279   0.677  0.2971  0.1942 -0.0557
 1386SOL    HW1 4523   6.372   2.357   0.693  0.0832 -0.1889  1.1498
 1386SOL    HW2 4524   6.507   2.314   0.642 -0.4262  0.8361 -1.2074
 1387SOL     OW 4525   3.057   0.886   5.423  0.4387 -0.1326  0.0511
 1387SOL    HW1 4526   2.981   0.912   5.371  1.8169  0.9410 -1.4947
 1387SOL    HW2 4527   3.121   0.856   5.359  1.3348 -1.0313  1.3288
 1388SOL     OW 4528   2.312   6.356   4.861 -0.4873  0.4095  0.5286
 1388SOL    HW1 4529   2.252   6.426   4.835  0.4850  1.3166  0.6538
 1388SOL    HW2 4530   2.399   6.396   4.856  0.0983 -0.8135  0.5492
 1389SOL     OW 4531   4.162   1.662   6.423 -0.3168  0.7782  0.1446
 1389SOL    HW1 4532   4.136   1.602   6.353  1.9657  1.4438 -1.3582
 1389SOL    HW2 4533   4.095   1.731   6.421 -1.1865 -0.0454 -0.2456
 1390SOL     OW 4534   4.220   0.163   1.671  0.4310 -0.3647  0.4196
 1390SOL    HW1 4535   4.142   0.110   1.656 -0.9960  2.0428 -1.4739
 1390SOL    HW2 4536   4.293   0.107   1.646 -1.0953 -0.9161 -3.5690
 1391SOL     OW 4537   4.812   3.670   6.574 -0.3185 -0.6433 -0.2988
 1391SOL    HW1 4538   4.873   3.606   6.609  0.9925 -0.0916 -1.4564
 1391SOL    HW2 4539   4.779   3.630   6.493 -1.3426 -0.8352  0.1931
 1392SOL     OW 4540   3.217   4.669   2.187 -0.0262  0.9512  0.4035
 1392SOL    HW1 4541   3.199   4.636   2.275 -0.2374  0.7202  0.2772
 1392SOL    HW2 4542   3.166   4.750   2.181 -2.0835 -0.2959 -0.3636
 1393SOL     OW 4543   4.702   0.851   2.190  0.2372 -0.1214 -0.2101
 1393SOL    HW1 4544   4.676   0.886   2.105 -1.0460 -0.6150 -0.0495
 1393SOL    HW2 4545   4.638   0.888   2.251 -0.1850 -1.4840  0.1991
 1394SOL     OW 4546   5.773   1.680   5.459  0.0200  0.8465 -0.4466
 1394SOL    HW1 4547   5.773   1.599   5.409  0.8174  0.9155 -0.5828
 1394SOL    HW2 4548   5.744   1.655   5.546  1.3277  0.1905 -0.1705
 1395SOL     OW 4549   5.317   6.655   1.659  0.3641  0.2908  0.2035
 1395SOL    HW1 4550   5.404   6.620   1.643  0.1706  0.6859 -2.0367
 1395SOL    HW2 4551   5.261   6.612   1.595 -0.4060  2.5105 -0.7361
 1396SOL     OW 4552   1.858   5.750   0.046 -0.2566  0.0430  0.0360
 1396SOL    HW1 4553   1.888   5.789   0.128 -0.6170 -0.4723  0.4209
 1396SOL    HW2 4554   1.785   5.806   0.018 -0.2961  0.0756  0.2038
 1397SOL     OW 4555   0.551   2.358   5.702  0.5922  0.1346  0.1890
 1397SOL    HW1 4556   0.530   2.307   5.779  1.4212 -2.0878 -0.9797
 1397SOL    HW2 4557   0.646   2.368   5.705  0.5079  1.1252  0.0782
 1398SOL     OW 4558   1.409   5.372   4.870 -0.1891  0.1370 -0.0581
 1398SOL    HW1 4559   1.318   5.384   4.898 -0.4106  0.1066 -0.7345
 1398SOL    HW2 4560   1.435   5.288   4.906 -0.4918  0.0639 -0.0112
 1399SOL     OW 4561   4.689   0.138   3.996  0.1456  0.0829  0.4170
 1399SOL    HW1 4562   4.642   0.189   3.930 -0.7986 -1.7754 -0.4035
 1399SOL    HW2 4563   4.627   0.132   4.069  0.7694  1.1926  1.0693
 1400SOL     OW 4564   2.729   6.108   5.335  0.4232  0.0620  0.5637
 1400SOL    HW1 4565   2.775   6.031   5.370  0.2912 -0.4498 -0.3524
 1400SOL    HW2 4566   2.676   6.073   5.263 -1.9002  0.5285  1.9514
 1401SOL     OW 4567   2.145   4.904   0.132  0.0691  0.5930 -0.2408
 1401SOL    HW1 4568   2.118   4.856   0.053  0.3366  1.7964 -1.0789
 1401SOL    HW2 4569   2.157   4.835   0.198 -3.2036 -0.2227 -0.2921
 1402SOL     OW 4570   5.962   3.653   5.691  0.4003 -0.9302  0.3880
 1402SOL    HW1 4571   5.880   3.604   5.695 -0.0880 -0.3203 -1.1786
 1402SOL    HW2 4572   6.016   3.604   5.629  0.3232 -0.1186 -0.3494
 1403SOL     OW 4573   2.908   0.501   5.194  0.2695  0.1232  0.0036
 1403SOL    HW1 4574   2.853   0.555   5.137 -0.9005 -1.6376 -0.6157
 1403SOL    HW2 4575   2.987   0.486   5.143 -0.6439 -1.1907 -1.1033
 1404SOL     OW 4576   1.919   2.179   3.837 -0.5514 -0.2594  0.3415
 1404SOL    HW1 4577   1.951   2.100   3.794  2.0581  1.1240 -0.4819
 1404SOL    HW2 4578   1.947   2.169   3.929  3.9065  1.4264 -0.5500
 1405SOL     OW 4579   5.133   6.441   5.266 -0.0465  0.2020 -0.9133
 1405SOL    HW1 4580   5.190   6.393   5.206  0.2226  1.0198 -1.3255
 1405SOL    HW2 4581   5.182   6.445   5.348 -0.4355 -0.9594 -0.6006
 1406SOL     OW 4582   4.492   1.423   5.717 -0.4284  0.0858  0.1142
 1406SOL    HW1 4583   4.485   1.502   5.662 -2.7286  0.2077  0.5000
 1406SOL    HW2 4584   4.542   1.452   5.793 -0.3039  0.8794 -0.2504
 1407SOL     OW 4585   6.304   5.151   4.065 -0.4690  0.0077  0.0138
 1407SOL    HW1 4586   6.244   5.192   4.128 -1.3573  0.3966 -1.0346
 1407SOL    HW2 4587   6.364   5.221   4.041  0.3320 -0.3419  0.9561
 1408SOL     OW 4588   2.101   6.327   5.316  0.2228 -0.2764 -0.4007
 1408SOL    HW1 4589   2.017   6.307   5.275 -0.1859  1.6154 -0.6002
 1408SOL    HW2 4590   2.099   6.282   5.400  0.1897 -2.5110 -1.5460
 1409SOL     OW 4591   3.510   1.819   2.048  0.0541 -0.6682  0.2898
 1409SOL    HW1 4592   3.485   1.905   2.014 -0.1510 -0.0062  1.9708
 1409SOL    HW2 4593   3.427   1.774   2.063  0.0987 -0.6781  0.5197
 1410SOL     OW 4594   3.839   0.919   6.244  0.1295  0.5784  0.3757
 1410SOL    HW1 4595   3.868   1.010   6.248  0.0628  0.5595  1.5169
 1410SOL    HW2 4596   3.911   0.869   6.283 -0.1378  0.2103  0.4073
 1411SOL     OW 4597   1.905   1.886   5.599 -0.1637 -0.3322  0.3264
 1411SOL    HW1 4598   1.846   1.907   5.526  2.4333  1.1836 -1.5405
 1411SOL    HW2 4599   1.960   1.815   5.566  1.4209  0.7484  0.5243
 1412SOL     OW 4600   1.661   5.515   2.961  0.2581  0.5636  0.2364
 1412SOL    HW1 4601   1.581   5.488   2.917  0.2250  0.5592  0.2990
 1412SOL    HW2 4602   1.715   5.436   2.962  0.8526  0.9324 -1.0881
 1413SOL     OW 4603   5.458   3.289   4.873 -0.2573  0.3005 -0.0135
 1413SOL    HW1 4604   5.514   3.352   4.828  0.9244 -0.9527 -0.3961
 1413SOL    HW2 4605   5.403   3.252   4.804  1.1487 -1.2000 -0.4021
 1414SOL     OW 4606   1.144   6.227   0.761 -0.4873  0.3802 -0.4882
 1414SOL    HW1 4607   1.137   6.322   0.774 -0.0319  0.6447 -1.9946
 1414SOL    HW2 4608   1.173   6.193   0.846 -1.4349  1.4835  0.3002
 1415SOL     OW 4609   2.233   4.893   2.407  0.0457 -0.0696 -0.0734
 1415SOL    HW1 4610   2.235   4.842   2.326  0.5836 -1.2281  0.6344
 1415SOL    HW2 4611   2.179   4.969   2.387 -0.2511 -0.5969 -1.3592
 1416SOL     OW 4612   5.652   3.475   3.475 -0.0429 -0.0874  0.6552
 1416SOL    HW1 4613   5.567   3.440   3.447 -0.3983  1.3587 -0.1894
 1416SOL    HW2 4614   5.715   3.435   3.415 -0.4525  0.7632 -0.3631
 1417SOL     OW 4615   2.059   3.146   5.615  0.2545  0.3838  0.2063
 1417SOL    HW1 4616   1.999   3.072   5.605  1.2052 -0.6616  1.8058
 1417SOL    HW2 4617   2.078   3.173   5.525  1.5686 -2.7277 -0.5693
 1418SOL     OW 4618   3.516   2.021   6.171 -0.2994 -0.0204 -0.2298
 1418SOL    HW1 4619   3.559   2.065   6.244  0.8668 -0.1807 -0.7882
 1418SOL    HW2 4620   3.578   2.030   6.098 -1.9444  1.2068 -1.5520
 1419SOL     OW 4621   4.641   5.548   3.142  0.0429 -0.0486  0.1326
 1419SOL    HW1 4622   4.596   5.504   3.215 -2.9271  1.2901 -0.7134
 1419SOL    HW2 4623   4.649   5.639   3.171 -1.4645  0.5736 -1.2237
 1420SOL     OW 4624   2.908   4.852   2.394  0.3107 -0.9442 -0.1990
 1420SOL    HW1 4625   2.939   4.904   2.468 -2.3343  0.4328  0.0443
 1420SOL    HW2 4626   2.943   4.897   2.317  1.0922 -0.9856  0.1241
 1421SOL     OW 4627   6.234   1.662   1.919 -0.2015  0.0798 -0.4261
 1421SOL    HW1 4628   6.234   1.617   2.003 -0.9850  0.6524 -0.1037
 1421SOL    HW2 4629   6.142   1.664   1.893  0.1342 -0.9431 -1.7753
 1422SOL     OW 4630   1.089   3.859   3.680 -0.3255 -0.3733 -0.3845
 1422SOL    HW1 4631   1.066   3.874   3.771  3.4807  0.1588  0.6602
 1422SOL    HW2 4632   1.124   3.943   3.650  3.2996 -1.7392 -0.5384
 1423SOL     OW 4633   6.069   0.082   2.973  0.1238 -0.2344  0.0774
 1423SOL    HW1 4634   6.008   0.053   3.041 -0.4976 -1.8678 -1.1144
 1423SOL    HW2 4635   6.114   0.157   3.012 -0.6311 -0.7423  2.0532
 1424SOL     OW 4636   3.865   6.378   3.326 -0.3825 -0.2718 -0.2293
 1424SOL    HW1 4637   3.776   6.397   3.355 -0.3203 -0.8473  0.3809
 1424SOL    HW2 4638   3.915   6.456   3.350 -0.3974 -0.5986  0.9697
 1425SOL     OW 4639   4.017   3.113   2.520 -0.3567 -0.3712  0.6997
 1425SOL    HW1 4640   4.094   3.163   2.547 -1.6913 -0.0568  4.4792
 1425SOL    HW2 4641   3.964   3.176   2.472 -0.0885  0.6460  1.6909
 1426SOL     OW 4642   6.425   0.582   4.389 -0.1702  0.2208  0.3084
 1426SOL    HW1 4643   6.359   0.554   4.452  0.9819  0.0929  1.5026
 1426SOL    HW2 4644   6.376   0.601   4.310 -1.5122 -0.8239  0.8567
 1427SOL     OW 4645   2.374   3.692   2.117  0.5039  0.1782 -0.0461
 1427SOL    HW1 4646   2.352   3.782   2.139 -0.1872 -0.3572  1.6268
 1427SOL    HW2 4647   2.338   3.679   2.029  1.1789  1.6975 -0.5783
 1428SOL     OW 4648   3.275   3.425   6.247 -0.1588  0.2194 -0.3596
 1428SOL    HW1 4649   3.327   3.364   6.299  0.5411  0.3785 -0.8644
 1428SOL    HW2 4650   3.272   3.505   6.299  1.1095  0.6053 -0.8527
 1429SOL     OW 4651   4.948   0.635   4.464 -0.2148  0.0036  0.4777
 1429SOL    HW1 4652   4.953   0.605   4.373 -0.0963 -0.1640  0.5402
 1429SOL    HW2 4653   4.900   0.718   4.459 -2.2819 -1.1154  0.5065
 1430SOL     OW 4654   6.287   2.780   6.745 -0.1294  0.0393 -0.1348
 1430SOL    HW1 4655   6.210   2.733   6.776  0.0085  0.2243  0.5062
 1430SOL    HW2 4656   6.265   2.872   6.755  0.4172  0.0968  0.7040
 1431SOL     OW 4657   1.381   0.465   4.065  0.2556 -0.0856  0.9836
 1431SOL    HW1 4658   1.372   0.422   4.150 -0.0130 -0.9957  0.5042
 1431SOL    HW2 4659   1.301   0.441   4.017  0.9748 -0.6213  0.0247
 1432SOL     OW 4660   1.523   5.255   0.302 -0.0935  0.4678 -0.0414
 1432SOL    HW1 4661   1.465   5.182   0.325 -0.3708  1.3414  2.3165
 1432SOL    HW2 4662   1.608   5.215   0.287 -0.9170 -0.6704 -2.1696
 1433SOL     OW 4663   0.673   3.745   0.914  0.2688 -0.1889  0.5200
 1433SOL    HW1 4664   0.625   3.813   0.960 -1.2123 -0.8962  0.0982
 1433SOL    HW2 4665   0.630   3.739   0.828  1.6989 -0.2502 -0.2332
 1434SOL     OW 4666   1.373   5.394   4.606  0.1286 -0.4534  0.2863
 1434SOL    HW1 4667   1.377   5.300   4.589  1.7675 -0.3016 -0.3890
 1434SOL    HW2 4668   1.388   5.403   4.700  1.2672 -0.8329  0.1589
 1435SOL     OW 4669   2.021   0.437   0.974  0.1304 -0.9903 -0.4951
 1435SOL    HW1 4670   1.965   0.514   0.986 -1.3365 -1.5171 -3.3265
 1435SOL    HW2 4671   2.110   0.472   0.978 -0.4937  0.7764 -1.0993
 1436SOL     OW 4672   2.965   5.951   1.881 -0.3785 -0.1003 -0.3054
 1436SOL    HW1 4673   3.003   5.884   1.825 -0.3228  1.1967 -1.8937
 1436SOL    HW2 4674   2.953   6.027   1.824  0.2686  1.5143  1.5791
 1437SOL     OW 4675   2.251   0.908   2.086  0.1106 -0.1952  0.4749
 1437SOL    HW1 4676   2.327   0.936   2.138 -0.0622  0.2192  0.5123
 1437SOL    HW2 4677   2.217   0.832   2.133  1.5131 -1.4630 -0.4885
 1438SOL     OW 4678   3.289   1.710   4.317  0.2756  0.4483  0.0251
 1438SOL    HW1 4679   3.283   1.695   4.223 -0.1671 -0.1997  0.1492
 1438SOL    HW2 4680   3.267   1.626   4.357 -1.5917  1.2176  0.7446
 1439SOL     OW 4681   5.851   1.092   5.123  0.5645 -0.3415 -0.4810
 1439SOL    HW1 4682   5.940   1.065   5.101  0.2766 -0.5292 -1.5039
 1439SOL    HW2 4683   5.816   1.021   5.176  1.0424 -0.2394 -0.0242
 1440SOL     OW 4684   0.210   0.969   2.674 -0.5923  1.1269 -0.3110
 1440SOL    HW1 4685   0.136   0.970   2.613 -1.4724  1.6190  0.7359
 1440SOL    HW2 4686   0.243   0.879   2.671 -1.4328  0.8258 -0.5564
 1441SOL     OW 4687   0.755   0.871   1.886  0.1982  0.7091 -0.1973
 1441SOL    HW1 4688   0.829   0.930   1.893  0.3153  0.6547 -0.8836
 1441SOL    HW2 4689   0.781   0.793   1.934  0.2022  1.0512  0.3673
 1442SOL     OW 4690   6.531   5.244   5.142 -0.5914  0.2545  0.3081
 1442SOL    HW1 4691   6.568   5.175   5.196 -2.4535 -1.5304 -0.5878
 1442SOL    HW2 4692   6.449   5.208   5.108 -0.2992  1.8528 -2.4271
 1443SOL     OW 4693   3.447   4.672   0.570 -0.3079  0.4719 -0.2268
 1443SOL    HW1 4694   3.359   4.644   0.596 -0.7256  0.3621 -1.7078
 1443SOL    HW2 4695   3.443   4.767   0.575 -0.5974  0.4793 -0.5660
 1444SOL     OW 4696   2.650   5.228   4.483 -0.4166  0.1844  0.3214
 1444SOL    HW1 4697   2.631   5.205   4.392 -0.8116 -0.6560  0.6096
 1444SOL    HW2 4698   2.623   5.151   4.534 -0.6494  0.8307  1.1991
 1445SOL     OW 4699   4.024   2.731   3.956 -0.3172 -0.4205  0.6354
 1445SOL    HW1 4700   4.099   2.769   4.001  0.5760 -2.6395  1.1664
 1445SOL    HW2 4701   3.972   2.691   4.025 -0.0335 -2.0401 -0.0435
 1446SOL     OW 4702   2.656   0.144   3.268 -0.4480 -0.6744  0.2802
 1446SOL    HW1 4703   2.692   0.075   3.323 -1.6815 -1.1699  0.4899
 1446SOL    HW2 4704   2.561   0.136   3.277 -0.6254  0.9424  0.1758
 1447SOL     OW 4705   2.861   0.717   3.758 -0.4564 -0.2369  0.5467
 1447SOL    HW1 4706   2.854   0.752   3.669 -1.3423  0.6498  0.9552
 1447SOL    HW2 4707   2.789   0.654   3.765 -0.9419  0.3483  0.9189
 1448SOL     OW 4708   1.275   0.027   4.028  0.1230  0.0318 -0.0144
 1448SOL    HW1 4709   1.190   0.005   4.066 -0.5991  0.4480 -1.3371
 1448SOL    HW2 4710   1.293   0.116   4.059  1.7922 -1.2149  3.1362
 1449SOL     OW 4711   0.939   6.068   2.713 -0.6690  0.3682  0.1819
 1449SOL    HW1 4712   0.950   6.162   2.702 -1.3316  0.3970 -0.3290
 1449SOL    HW2 4713   0.871   6.044   2.649  0.6772 -0.7324 -0.9056
 1450SOL     OW 4714   6.240   2.386   5.010  0.2569 -0.6127 -0.1870
 1450SOL    HW1 4715   6.230   2.480   4.996  1.5005 -0.3888  0.3777
 1450SOL    HW2 4716   6.200   2.370   5.096  1.5628 -0.2926  0.5043
 1451SOL     OW 4717   0.806   4.155   6.002  0.7121 -0.1573  0.0771
 1451SOL    HW1 4718   0.825   4.061   6.003  0.3714 -0.2345  1.4452
 1451SOL    HW2 4719   0.729   4.164   5.947  1.7566 -0.4394 -1.5113
 1452SOL     OW 4720   6.515   3.305   1.925 -0.3477 -0.1978 -0.1102
 1452SOL    HW1 4721   6.497   3.394   1.955  1.4998  0.1671  0.0027
 1452SOL    HW2 4722   6.432   3.276   1.888 -0.9304  1.6697 -0.3896
 1453SOL     OW 4723   2.949   1.278   1.299  0.1203 -0.2464  0.0407
 1453SOL    HW1 4724   3.018   1.249   1.238 -1.1783 -1.1132 -1.0644
 1453SOL    HW2 4725   2.891   1.202   1.306 -0.8203  0.5364  0.8276
 1454SOL     OW 4726   6.181   2.183   6.060 -0.3058  0.0067  0.2822
 1454SOL    HW1 4727   6.123   2.234   6.116 -1.3253 -0.6288 -0.1626
 1454SOL    HW2 4728   6.155   2.092   6.075  0.8693 -0.3271  0.3857
 1455SOL     OW 4729   1.059   2.338   1.287 -0.1765  0.2367 -0.2173
 1455SOL    HW1 4730   1.146   2.378   1.282 -0.0017  0.2085  1.6113
 1455SOL    HW2 4731   1.045   2.300   1.201  1.7980 -0.1012 -0.4513
 1456SOL     OW 4732   6.035   0.499   2.993 -0.0876 -0.2433 -0.8029
 1456SOL    HW1 4733   6.087   0.577   2.972 -0.6632  0.3484 -0.1134
 1456SOL    HW2 4734   6.085   0.454   3.060 -0.5634  0.4668  0.0537
 1457SOL     OW 4735   5.508   5.013   5.123  0.7407 -0.3013 -0.4858
 1457SOL    HW1 4736   5.593   5.008   5.078  0.3367 -0.6445 -1.2420
 1457SOL    HW2 4737   5.528   5.048   5.209  1.7864 -1.3053 -0.2977
 1458SOL     OW 4738   5.018   6.128   3.082 -0.0592  0.6099  0.3014
 1458SOL    HW1 4739   5.050   6.204   3.034 -1.6994  0.7405 -0.6800
 1458SOL    HW2 4740   4.962   6.081   3.019 -0.1235 -0.6978  1.2777
 1459SOL     OW 4741   4.121   5.474   0.177 -0.1210  0.4129  0.0847
 1459SOL    HW1 4742   4.170   5.398   0.144 -1.2252 -0.0486 -0.5658
 1459SOL    HW2 4743   4.167   5.550   0.141  0.1261 -0.0090 -0.5139
 1460SOL     OW 4744   1.659   5.514   4.855 -0.0373 -0.3108  0.5943
 1460SOL    HW1 4745   1.576   5.467   4.866 -0.2596 -0.3407 -0.9037
 1460SOL    HW2 4746   1.672   5.560   4.937 -1.5646 -0.2943  0.8579
 1461SOL     OW 4747   2.608   6.069   4.598 -0.2339 -0.2634  0.6477
 1461SOL    HW1 4748   2.635   6.023   4.677 -0.4121 -0.2110  0.7396
 1461SOL    HW2 4749   2.525   6.110   4.621 -0.6413 -0.8347  0.2077
 1462SOL     OW 4750   5.685   2.422   5.408 -0.0713  0.0802  0.6508
 1462SOL    HW1 4751   5.616   2.421   5.342  0.0173 -0.9334  0.5626
 1462SOL    HW2 4752   5.679   2.337   5.451  0.2157  0.5264  1.6024
 1463SOL     OW 4753   6.292   1.508   2.604  0.3017  0.0338  0.0638
 1463SOL    HW1 4754   6.352   1.461   2.662  2.2573  0.1991 -1.7309
 1463SOL    HW2 4755   6.246   1.440   2.556 -1.9847 -0.1442  2.2651
 1464SOL     OW 4756   6.668   6.495   1.622 -0.2408 -0.4032  0.1592
 1464SOL    HW1 4757   6.627   6.556   1.561 -1.4201  0.0692  1.3710
 1464SOL    HW2 4758   6.616   6.416   1.616  1.6334 -1.6060 -1.8442
 1465SOL     OW 4759   5.834   0.927   3.280  0.5702 -0.4089 -0.2038
 1465SOL    HW1 4760   5.880   1.010   3.276 -0.2209  0.0092 -4.0099
 1465SOL    HW2 4761   5.742   0.950   3.272  0.1861 -1.6093  0.4689
 1466SOL     OW 4762   5.509   4.121   3.405 -0.0976  0.0311  0.2912
 1466SOL    HW1 4763   5.419   4.094   3.423 -0.2864  1.3868  1.6547
 1466SOL    HW2 4764   5.518   4.115   3.310 -1.2205 -1.3023  0.2462
 1467SOL     OW 4765   6.350   5.126   6.002 -0.0283 -0.1478 -0.2781
 1467SOL    HW1 4766   6.402   5.129   6.083  2.2908  1.2910 -1.7018
 1467SOL    HW2 4767   6.348   5.217   5.972 -1.8962 -0.4681 -1.2349
 1468SOL     OW 4768   5.723   6.605   4.679  0.9277 -0.2778 -0.1458
 1468SOL    HW1 4769   5.783   6.646   4.740 -2.3301  2.4243  1.5813
 1468SOL    HW2 4770   5.724   6.661   4.601  0.2877  0.0921  0.1060
 1469SOL     OW 4771   2.138   1.765   5.496 -0.2212  0.3996  0.1078
 1469SOL    HW1 4772   2.186   1.823   5.555 -0.2465  0.5023  0.0273
 1469SOL    HW2 4773   2.142   1.808   5.411 -0.5453  0.4594  0.1227
 1470SOL     OW 4774   0.198   0.277   5.966  0.2480  0.0501 -0.0615
 1470SOL    HW1 4775   0.149   0.207   5.922 -0.7292  0.9358 -0.4204
 1470SOL    HW2 4776   0.235   0.329   5.894  1.7183 -0.5769  0.2025
 1471SOL     OW 4777   1.370   0.825   6.332  0.2718  0.3008 -0.8398
 1471SOL    HW1 4778   1.339   0.753   6.387 -0.1141  0.9518 -0.1973
 1471SOL    HW2 4779   1.426   0.782   6.266 -0.4845 -0.6604 -0.8750
 1472SOL     OW 4780   3.915   4.684   4.633 -0.5795  0.1261  0.5732
 1472SOL    HW1 4781   3.912   4.656   4.724 -0.5317  0.5164  0.6977
 1472SOL    HW2 4782   3.877   4.772   4.634  0.9775  0.8311  0.4916
 1473SOL     OW 4783   5.003   3.334   2.804  0.0366 -1.1582  0.7234
 1473SOL    HW1 4784   5.086   3.376   2.779 -1.2877 -0.0618 -2.2893
 1473SOL    HW2 4785   5.025   3.241   2.809  1.4494 -0.9066 -0.1308
 1474SOL     OW 4786   5.571   1.334   4.579  0.2166  0.2104  0.7907
 1474SOL    HW1 4787   5.580   1.254   4.632  1.0710  0.1342  0.5413
 1474SOL    HW2 4788   5.487   1.371   4.606  0.8318  0.4393  2.5713
 1475SOL     OW 4789   2.259   4.028   3.380 -0.0594 -0.0405  0.2125
 1475SOL    HW1 4790   2.218   4.096   3.326 -1.0908 -0.5286  0.3634
 1475SOL    HW2 4791   2.206   4.026   3.460  1.4359  0.6477  1.2590
 1476SOL     OW 4792   5.003   2.810   1.187 -0.1205 -0.4165  0.3708
 1476SOL    HW1 4793   5.066   2.783   1.254  0.5450 -0.4426 -0.2565
 1476SOL    HW2 4794   4.939   2.738   1.184 -0.9191  0.1925  1.9107
 1477SOL     OW 4795   5.078   5.939   5.148  0.2409 -0.0636  0.4149
 1477SOL    HW1 4796   5.122   5.901   5.072 -0.0369  0.7278 -0.1550
 1477SOL    HW2 4797   4.989   5.906   5.143  0.2793 -0.1803  0.5128
 1478SOL     OW 4798   5.769   0.221   5.954 -0.6360  0.0777  0.1638
 1478SOL    HW1 4799   5.830   0.170   5.901 -0.6450 -0.9790  1.1229
 1478SOL    HW2 4800   5.691   0.166   5.959 -1.6240  1.3105 -0.8571
 1479SOL     OW 4801   6.751   1.699   5.132  0.4333  0.3789  0.4690
 1479SOL    HW1 4802   6.655   1.699   5.125  0.4014 -0.3753  0.7461
 1479SOL    HW2 4803   6.770   1.619   5.181  1.2502  0.1306 -0.2334
 1480SOL     OW 4804   1.958   1.452   5.610  0.1171 -0.1561  0.0333
 1480SOL    HW1 4805   1.903   1.520   5.649 -0.4141  0.7856 -2.1928
 1480SOL    HW2 4806   1.896   1.398   5.559  0.5499 -2.2677  1.5905
 1481SOL     OW 4807   5.115   5.670   0.404 -0.1843  0.1698  0.5475
 1481SOL    HW1 4808   5.121   5.750   0.456  0.3661  0.7324 -0.3505
 1481SOL    HW2 4809   5.169   5.607   0.451 -0.3616  0.4158  1.0929
 1482SOL     OW 4810   5.079   3.321   1.063 -0.7061  0.1254  0.2893
 1482SOL    HW1 4811   5.028   3.240   1.065 -1.2844  0.4891  1.2784
 1482SOL    HW2 4812   5.013   3.390   1.075 -0.1826  0.7260 -0.2226
 1483SOL     OW 4813   1.631   4.721   5.173  0.2697  0.4494  0.3054
 1483SOL    HW1 4814   1.701   4.713   5.108  1.7943  0.9091  1.8200
 1483SOL    HW2 4815   1.644   4.646   5.232  0.4940  1.4109  1.5193
 1484SOL     OW 4816   1.311   5.487   0.381 -0.6328  0.0068  0.2028
 1484SOL    HW1 4817   1.291   5.410   0.327 -0.7138 -0.8789  1.4572
 1484SOL    HW2 4818   1.305   5.456   0.471  1.7573  0.8578  0.7320
 1485SOL     OW 4819   1.502   4.478   4.627  0.0604 -0.0936 -0.4275
 1485SOL    HW1 4820   1.507   4.450   4.718 -1.6954 -0.9783 -0.5777
 1485SOL    HW2 4821   1.417   4.521   4.618 -0.2659 -0.9652 -1.8893
 1486SOL     OW 4822   6.254   5.684   2.709  0.2618  0.4889 -0.2835
 1486SOL    HW1 4823   6.294   5.768   2.686 -0.8905  1.0069 -0.4513
 1486SOL    HW2 4824   6.261   5.631   2.630  0.9138  0.4547 -0.2051
 1487SOL     OW 4825   3.572   1.490   1.275 -0.7535 -0.5888 -0.3310
 1487SOL    HW1 4826   3.580   1.581   1.245  3.0644 -0.6892 -0.2071
 1487SOL    HW2 4827   3.541   1.496   1.365 -0.5960  0.5999 -0.3459
 1488SOL     OW 4828   2.810   4.256   6.431 -0.1781 -0.1128  0.7965
 1488SOL    HW1 4829   2.779   4.247   6.521 -0.2381  0.4508  0.8362
 1488SOL    HW2 4830   2.796   4.170   6.392  0.6680 -0.6309  1.5778
 1489SOL     OW 4831   6.762   1.079   6.515 -0.4009 -0.4931  0.2706
 1489SOL    HW1 4832   6.846   1.119   6.495  0.0448 -1.4247  0.2287
 1489SOL    HW2 4833   6.722   1.137   6.580  0.4022 -0.2058  0.5116
 1490SOL     OW 4834   0.354   4.717   0.004  0.0557  0.2588 -0.7086
 1490SOL    HW1 4835   0.372   4.692  -0.087 -0.3120  0.6021 -0.8775
 1490SOL    HW2 4836   0.282   4.779  -0.002  0.2260  0.5108 -0.2026
 1491SOL     OW 4837   3.363   2.955   1.547 -0.2554 -0.5099  0.1425
 1491SOL    HW1 4838   3.380   3.040   1.506  0.1814 -0.7414 -0.1579
 1491SOL    HW2 4839   3.293   2.973   1.610 -1.3540 -0.2587 -1.0895
 1492SOL     OW 4840   3.247   1.448   2.537  0.1059  0.1760 -0.4887
 1492SOL    HW1 4841   3.236   1.457   2.442 -1.6912 -0.9961 -0.4423
 1492SOL    HW2 4842   3.174   1.497   2.574 -1.2602 -2.1783  0.1309
 1493SOL     OW 4843   4.073   4.690   1.084 -0.2766 -0.3713  0.4334
 1493SOL    HW1 4844   4.158   4.726   1.058 -0.0331 -0.7556  0.6910
 1493SOL    HW2 4845   4.010   4.759   1.061  0.3681  1.1625  2.8129
 1494SOL     OW 4846   1.358   1.428   4.706  0.3416  0.0182  0.0005
 1494SOL    HW1 4847   1.407   1.482   4.768  1.2024 -2.3420  1.5281
 1494SOL    HW2 4848   1.408   1.433   4.624  0.5715  1.2340  0.2034
 1495SOL     OW 4849   5.396   3.235   6.332 -0.5703 -0.1553  0.1053
 1495SOL    HW1 4850   5.310   3.230   6.292 -0.2956 -0.4421 -0.4631
 1495SOL    HW2 4851   5.428   3.323   6.310 -0.1470 -0.5498 -0.8873
 1496SOL     OW 4852   0.863   5.433   3.724  0.1843 -0.7968 -0.0295
 1496SOL    HW1 4853   0.864   5.337   3.725  0.0930 -0.8038 -0.4666
 1496SOL    HW2 4854   0.817   5.456   3.643  1.8460 -0.3830 -0.9068
 1497SOL     OW 4855   1.348   0.851   1.064  0.1900 -0.0761 -0.0934
 1497SOL    HW1 4856   1.290   0.878   1.135 -0.0142  0.7778 -0.5696
 1497SOL    HW2 4857   1.333   0.757   1.054 -1.2698  0.1706 -0.3571
 1498SOL     OW 4858   3.903   5.213   0.830  0.3340 -0.2829 -0.1577
 1498SOL    HW1 4859   3.897   5.280   0.762  0.0148  0.4402  0.5622
 1498SOL    HW2 4860   3.996   5.190   0.833  0.4246  0.0218 -0.5114
 1499SOL     OW 4861   2.067   1.355   4.062 -0.0444 -0.0920  0.5493
 1499SOL    HW1 4862   2.137   1.390   4.116 -0.1847  2.3628 -0.7289
 1499SOL    HW2 4863   1.999   1.329   4.125  0.2078  1.7034  1.6280
 1500SOL     OW 4864   1.715   0.837   5.934 -0.2134  0.0700 -0.2424
 1500SOL    HW1 4865   1.804   0.864   5.957  0.1771 -1.0386 -0.3999
 1500SOL    HW2 4866   1.674   0.917   5.901  1.2606  0.2667 -1.7555
 1501SOL     OW 4867   3.070   4.938   4.316 -0.2767  0.2435  0.2883
 1501SOL    HW1 4868   3.048   4.867   4.256 -1.7495  0.2141  0.8325
 1501SOL    HW2 4869   3.018   4.920   4.394  0.8596  0.8198  1.2205
 1502SOL     OW 4870   4.099   4.116   2.357 -0.2979 -0.0074 -0.4616
 1502SOL    HW1 4871   4.156   4.042   2.337  0.6516  0.9798 -1.5900
 1502SOL    HW2 4872   4.147   4.164   2.425 -0.7368 -0.2370  0.0095
 1503SOL     OW 4873   3.276   4.858   2.489 -0.0382 -0.7144  0.3374
 1503SOL    HW1 4874   3.210   4.877   2.556 -0.1774 -1.2413  0.3552
 1503SOL    HW2 4875   3.227   4.861   2.406  0.3068  0.8260  0.1529
 1504SOL     OW 4876   2.436   0.437   6.272 -0.1391  0.3728 -0.1885
 1504SOL    HW1 4877   2.398   0.358   6.235  0.4684  0.1144 -0.2845
 1504SOL    HW2 4878   2.365   0.479   6.320 -0.1344 -0.9150  0.9931
 1505SOL     OW 4879   1.426   3.850   5.387 -0.1015  0.0573 -0.0201
 1505SOL    HW1 4880   1.346   3.801   5.404 -0.5411  0.9006  0.3806
 1505SOL    HW2 4881   1.486   3.785   5.351 -1.3539 -0.3376 -1.5026
 1506SOL     OW 4882   6.535   2.553   2.990 -0.0153  0.1331  0.1869
 1506SOL    HW1 4883   6.553   2.562   3.083  1.4747 -0.6844  0.0160
 1506SOL    HW2 4884   6.442   2.531   2.985 -0.4240  1.4317  1.3724
 1507SOL     OW 4885   6.161   3.478   1.301 -0.4240 -0.0091  0.2265
 1507SOL    HW1 4886   6.255   3.492   1.315 -0.2918 -1.6121  1.2671
 1507SOL    HW2 4887   6.144   3.514   1.214  1.3300 -0.3866 -0.3258
 1508SOL     OW 4888   2.772   1.232   2.348 -0.3375 -0.3932  0.3262
 1508SOL    HW1 4889   2.767   1.283   2.267 -0.9507 -0.5914  0.2359
 1508SOL    HW2 4890   2.839   1.165   2.330 -0.3324 -0.3163  0.0542
 1509SOL     OW 4891   0.377   2.168   2.389 -0.4265  0.2689  0.4411
 1509SOL    HW1 4892   0.448   2.225   2.416 -0.2178 -0.1694  0.8261
 1509SOL    HW2 4893   0.305   2.228   2.366 -0.2921  0.6729  1.0658
 1510SOL     OW 4894   2.230   3.876   5.017  0.0489 -0.0379  0.1979
 1510SOL    HW1 4895   2.296   3.942   4.998 -1.0860  1.2698  0.6287
 1510SOL    HW2 4896   2.244   3.808   4.951  0.5301  1.1694 -0.9884
 1511SOL     OW 4897   3.285   6.050   6.517  0.2020  0.3894  0.8961
 1511SOL    HW1 4898   3.208   6.056   6.460  0.7749 -0.5941 -0.0344
 1511SOL    HW2 4899   3.347   5.997   6.467  1.0713  0.2390  2.0939
 1512SOL     OW 4900   0.816   5.976   0.481  0.4364 -0.0011  0.1127
 1512SOL    HW1 4901   0.900   5.978   0.435 -0.2246 -0.2422 -1.1411
 1512SOL    HW2 4902   0.835   6.018   0.565  1.9710 -0.6711  0.1483
 1513SOL     OW 4903   4.215   6.017   6.687  0.1831 -0.0563  0.1233
 1513SOL    HW1 4904   4.133   5.978   6.658 -0.4190  0.3883  1.1736
 1513SOL    HW2 4905   4.203   6.111   6.672 -0.4359  0.2869  2.3502
 1514SOL     OW 4906   1.117   5.165   3.289  0.4402 -0.1203  0.3257
 1514SOL    HW1 4907   1.110   5.116   3.371  0.8042  0.3784  0.6574
 1514SOL    HW2 4908   1.029   5.201   3.275  0.5197  0.2557  0.7866
 1515SOL     OW 4909   6.059   5.038   4.878 -0.1979 -0.3454 -0.8767
 1515SOL    HW1 4910   6.111   4.962   4.849 -0.4373 -0.7072 -0.3668
 1515SOL    HW2 4911   6.035   5.017   4.968 -0.2108  0.3715 -0.7102
 1516SOL     OW 4912   2.749   1.720   3.633 -0.0073 -0.0038  0.4674
 1516SOL    HW1 4913   2.703   1.760   3.706 -0.0527  0.5531  0.1389
 1516SOL    HW2 4914   2.764   1.792   3.572  1.9229 -0.0093  0.8721
 1517SOL     OW 4915   5.944   6.224   5.049 -0.0159 -0.3359 -0.1269
 1517SOL    HW1 4916   6.028   6.189   5.020  0.3506  0.5613 -0.1692
 1517SOL    HW2 4917   5.936   6.308   5.003 -1.2265 -0.7015 -0.6230
 1518SOL     OW 4918   6.097   1.771   2.203  0.2122 -0.5768 -0.4297
 1518SOL    HW1 4919   6.074   1.763   2.111  0.7370  1.0975 -0.7582
 1518SOL    HW2 4920   6.193   1.768   2.204  0.2875  0.8890 -0.1622
 1519SOL     OW 4921   2.147   0.599   1.940 -0.0781 -0.1831  1.0152
 1519SOL    HW1 4922   2.136   0.523   1.998 -2.1072 -1.9357 -1.4460
 1519SOL    HW2 4923   2.059   0.620   1.911  0.8401  0.4440 -1.5789
 1520SOL     OW 4924   1.362   2.614   6.389 -0.1859 -0.1266  0.6338
 1520SOL    HW1 4925   1.334   2.653   6.472 -3.3999  0.4240 -0.5754
 1520SOL    HW2 4926   1.310   2.533   6.382 -0.2128 -0.0025 -0.9516
 1521SOL     OW 4927   5.605   5.876   4.277 -0.3148  0.1829  0.0748
 1521SOL    HW1 4928   5.594   5.929   4.356  0.9804  1.6472 -0.6867
 1521SOL    HW2 4929   5.543   5.913   4.215  0.8544  1.1022 -0.5807
 1522SOL     OW 4930   4.449   6.036   5.181 -0.0438  0.4146  0.6256
 1522SOL    HW1 4931   4.405   5.952   5.168  0.3887  0.2833 -0.0255
 1522SOL    HW2 4932   4.497   6.051   5.100  1.3040  0.4551  1.4123
 1523SOL     OW 4933   6.759   6.327   4.045  0.3867 -0.0910 -0.4414
 1523SOL    HW1 4934   6.782   6.356   3.957 -0.5074  1.4355 -0.2151
 1523SOL    HW2 4935   6.843   6.322   4.091  0.6339  2.1231 -0.5547
 1524SOL     OW 4936   3.182   1.105   4.163  0.4905  0.1773 -0.7037
 1524SOL    HW1 4937   3.248   1.097   4.232 -0.5076 -0.9255  0.1565
 1524SOL    HW2 4938   3.116   1.039   4.185 -2.7713  3.4877  0.5163
 1525SOL     OW 4939   4.882   2.323   4.212 -0.2939 -0.3687 -0.1399
 1525SOL    HW1 4940   4.975   2.343   4.206 -0.2567 -0.6622 -0.6030
 1525SOL    HW2 4941   4.846   2.391   4.269 -0.0123  0.4918 -0.9649
 1526SOL     OW 4942   2.171   0.440   2.145 -0.1699  0.1763 -0.1329
 1526SOL    HW1 4943   2.256   0.398   2.160  0.3592  0.8041 -1.2757
 1526SOL    HW2 4944   2.172   0.517   2.203 -0.1138 -0.0080  0.1137
 1527SOL     OW 4945   4.532   3.957   6.567  0.6741  0.5244 -0.8008
 1527SOL    HW1 4946   4.478   4.027   6.603  1.4461  0.5015  0.4637
 1527SOL    HW2 4947   4.565   3.991   6.484  0.7424  1.5206 -0.3736
 1528SOL     OW 4948   4.069   2.513   5.052 -0.0733 -0.1159 -0.0268
 1528SOL    HW1 4949   4.053   2.418   5.052 -0.1636 -0.1088  0.9910
 1528SOL    HW2 4950   4.149   2.524   5.000 -0.9550 -0.5750 -1.5576
 1529SOL     OW 4951   0.959   0.756   5.779  0.3881  0.2967 -0.5919
 1529SOL    HW1 4952   0.871   0.789   5.759 -0.2063  0.4069  1.8494
 1529SOL    HW2 4953   0.971   0.681   5.720 -1.1294  0.5815 -1.3102
 1530SOL     OW 4954   2.164   0.835   3.140  0.2808  0.0906  0.5366
 1530SOL    HW1 4955   2.220   0.886   3.083 -1.4186  1.1118 -0.3132
 1530SOL    HW2 4956   2.187   0.863   3.228  0.8162  0.7974  0.1796
 1531SOL     OW 4957   2.556   6.662   1.582 -0.4195 -0.7690  0.3026
 1531SOL    HW1 4958   2.482   6.677   1.523 -0.4140 -0.4503  0.3725
 1531SOL    HW2 4959   2.532   6.708   1.663  0.1214 -0.1297  0.1171
 1532SOL     OW 4960   5.327   4.028   4.379 -0.7153  0.2728 -0.7133
 1532SOL    HW1 4961   5.353   4.092   4.445 -0.9237  2.3765 -2.5487
 1532SOL    HW2 4962   5.336   3.943   4.423 -0.8940  1.5473  1.9897
 1533SOL     OW 4963   2.273   2.258   4.403  0.5236 -0.1499  0.4080
 1533SOL    HW1 4964   2.188   2.250   4.447  0.2856 -0.4650 -0.1027
 1533SOL    HW2 4965   2.256   2.318   4.330  1.1540  1.1974  1.3316
 1534SOL     OW 4966   2.491   6.207   0.175 -0.0575 -0.1914  0.2882
 1534SOL    HW1 4967   2.491   6.278   0.239 -1.7353  0.2926 -0.1779
 1534SOL    HW2 4968   2.400   6.204   0.144  0.7996 -0.0473 -2.4519
 1535SOL     OW 4969   0.041   3.014   2.072 -0.0452 -0.1431 -0.2847
 1535SOL    HW1 4970  -0.007   2.973   2.001 -0.5927 -0.3304  0.1878
 1535SOL    HW2 4971  -0.011   2.996   2.151  0.3656  0.3564  0.1142
 1536SOL     OW 4972   6.560   2.965   0.575 -0.1160 -0.3724 -0.0539
 1536SOL    HW1 4973   6.532   2.874   0.585 -1.0793  0.0524  1.3706
 1536SOL    HW2 4974   6.479   3.012   0.557  0.5098  0.0940 -1.9670
 1537SOL     OW 4975   6.698   4.242   4.357  0.3193  0.0099  0.5581
 1537SOL    HW1 4976   6.641   4.265   4.283  0.6756 -0.8350 -0.0058
 1537SOL    HW2 4977   6.666   4.295   4.430 -2.3084 -1.6064  0.7143
 1538SOL     OW 4978   2.746   0.531   2.523 -0.1534 -0.3591 -0.5364
 1538SOL    HW1 4979   2.709   0.611   2.486 -0.1651  0.8100  1.8310
 1538SOL    HW2 4980   2.670   0.477   2.544 -0.1855 -0.6217 -1.2887
 1539SOL     OW 4981   5.166   3.932   5.789 -0.1870 -0.1292  0.0446
 1539SOL    HW1 4982   5.150   4.012   5.839  0.2516 -0.0000 -0.0205
 1539SOL    HW2 4983   5.091   3.927   5.729 -0.9675 -0.5455  1.0335
 1540SOL     OW 4984   6.490   5.802   5.038 -0.2179  0.0965  0.3693
 1540SOL    HW1 4985   6.508   5.786   5.130  1.4388  2.9273  0.6265
 1540SOL    HW2 4986   6.405   5.847   5.037 -1.3383 -1.8709  0.2256
 1541SOL     OW 4987   2.696   4.131   3.072  0.8742 -0.2416 -0.2219
 1541SOL    HW1 4988   2.788   4.116   3.093  0.3941 -1.8589  0.9231
 1541SOL    HW2 4989   2.680   4.221   3.101  1.9622 -0.1227  0.0761
 1542SOL     OW 4990   1.069   0.020   0.473 -0.7534 -0.2479  0.1554
 1542SOL    HW1 4991   0.987   0.016   0.423  1.2406 -4.1634 -3.5216
 1542SOL    HW2 4992   1.123   0.083   0.425 -0.2512 -0.8735 -0.1242
 1543SOL     OW 4993   2.220   0.671   4.294  0.6075  0.8790 -0.4162
 1543SOL    HW1 4994   2.189   0.685   4.205  0.4591  2.2935 -0.1675
 1543SOL    HW2 4995   2.202   0.579   4.312 -2.3703  1.3380 -0.6876
 1544SOL     OW 4996   2.737   6.463   6.268 -0.3810 -0.4870 -0.1822
 1544SOL    HW1 4997   2.781   6.544   6.242 -1.1121  0.8832  2.5337
 1544SOL    HW2 4998   2.650   6.490   6.295 -1.6997 -2.6592 -1.9594
 1545SOL     OW 4999   1.485   1.973   5.687 -0.4476 -0.0245  0.4906
 1545SOL    HW1 5000   1.455   1.977   5.597 -0.0201 -2.8758  0.1542
 1545SOL    HW2 5001   1.549   2.044   5.694 -0.3314  0.1059 -1.4936
 1546SOL     OW 5002   2.999   2.514   3.987  0.3187 -0.0723 -0.8110
 1546SOL    HW1 5003   2.964   2.426   4.003  0.7215 -0.5324 -2.3105
 1546SOL    HW2 5004   3.091   2.500   3.966  0.1439  0.5914 -2.1092
 1547SOL     OW 5005   0.230   1.169   2.916  0.5672 -0.6596  0.0478
 1547SOL    HW1 5006   0.272   1.250   2.886  1.7551 -0.9807  0.7930
 1547SOL    HW2 5007   0.153   1.160   2.860  0.5736  0.8336 -0.2456
 1548SOL     OW 5008   3.158   5.534   5.770  0.2792  0.0046 -0.4791
 1548SOL    HW1 5009   3.101   5.552   5.844  1.5543  2.3230  0.0551
 1548SOL    HW2 5010   3.159   5.615   5.720  1.6743 -0.5624 -1.4519
 1549SOL     OW 5011   1.471   2.696   1.269  0.5924  0.1135 -0.1345
 1549SOL    HW1 5012   1.450   2.775   1.219  0.5531  2.1446  2.8628
 1549SOL    HW2 5013   1.556   2.669   1.235  1.1435  2.1130 -0.5134
 1550SOL     OW 5014   6.338   5.703   6.605 -0.2863  0.3244  0.4099
 1550SOL    HW1 5015   6.382   5.673   6.684 -0.3533 -1.3071 -0.1308
 1550SOL    HW2 5016   6.395   5.675   6.533 -2.2101 -2.0814 -0.3279
 1551SOL     OW 5017   4.900   4.496   1.756  0.3867  0.7625  0.0329
 1551SOL    HW1 5018   4.812   4.477   1.725  0.8509  0.2952 -1.0468
 1551SOL    HW2 5019   4.895   4.489   1.851 -0.4166 -0.6607 -0.1046
 1552SOL     OW 5020   2.491   5.233   2.289 -0.5918 -0.2780 -0.8696
 1552SOL    HW1 5021   2.554   5.297   2.322 -1.1899  0.4997 -1.2371
 1552SOL    HW2 5022   2.424   5.284   2.244 -0.3743 -1.2385 -2.3746
 1553SOL     OW 5023   4.941   5.118   1.935 -0.6134 -0.0675 -0.0223
 1553SOL    HW1 5024   5.015   5.159   1.889 -0.9709  0.0711 -0.4869
 1553SOL    HW2 5025   4.942   5.156   2.022 -0.2543  0.0839 -0.0925
 1554SOL     OW 5026   4.603   3.672   4.703 -0.4454  0.5435  0.4494
 1554SOL    HW1 5027   4.510   3.681   4.726 -0.5252  2.0473 -0.2975
 1554SOL    HW2 5028   4.606   3.685   4.608  0.5217  0.4146  0.4485
 1555SOL     OW 5029   1.734   3.919   4.988  0.6282 -0.8048  0.1124
 1555SOL    HW1 5030   1.666   3.961   4.935  0.9056  0.4016  0.6768
 1555SOL    HW2 5031   1.780   3.991   5.030  4.6487 -1.2295 -2.9664
 1556SOL     OW 5032   6.279   0.195   5.667 -0.7155  0.5034 -0.3679
 1556SOL    HW1 5033   6.286   0.185   5.572  0.7798 -1.4842 -0.1338
 1556SOL    HW2 5034   6.324   0.277   5.686  1.7247 -0.5572 -1.1769
 1557SOL     OW 5035   2.628   1.609   2.699  0.5842 -0.5911  0.2916
 1557SOL    HW1 5036   2.635   1.546   2.628  0.7719 -0.8844  0.5707
 1557SOL    HW2 5037   2.656   1.562   2.777  0.4583 -0.2476  0.5505
 1558SOL     OW 5038   4.235   6.197   3.691  0.4716 -0.6721 -0.0235
 1558SOL    HW1 5039   4.159   6.224   3.743  0.7095  2.7624 -1.2072
 1558SOL    HW2 5040   4.198   6.173   3.606  0.6528  2.2356 -1.0301
 1559SOL     OW 5041   0.220   2.104   6.104 -0.0369 -0.3784 -0.3230
 1559SOL    HW1 5042   0.305   2.068   6.131 -0.1516 -0.2554  0.2157
 1559SOL    HW2 5043   0.204   2.176   6.165  0.1892  0.6020 -1.3865
 1560SOL     OW 5044   6.099   1.477   6.303 -0.2847 -0.2722 -0.2886
 1560SOL    HW1 5045   6.185   1.441   6.282 -0.7838 -1.4874 -0.3054
 1560SOL    HW2 5046   6.042   1.448   6.232 -0.7857  0.2358 -0.1051
 1561SOL     OW 5047   6.205   3.457   2.693  0.0194 -0.4446  0.2618
 1561SOL    HW1 5048   6.152   3.451   2.772  0.2738 -0.7888  0.4119
 1561SOL    HW2 5049   6.142   3.461   2.621 -0.2114 -1.5152  0.3881
 1562SOL     OW 5050   2.874   6.673   3.109 -0.4955  0.4824 -0.3883
 1562SOL    HW1 5051   2.792   6.637   3.142 -0.6647  1.4422  0.2583
 1562SOL    HW2 5052   2.853   6.762   3.083 -0.2285 -0.0258 -2.5678
 1563SOL     OW 5053   0.396   0.479   5.077  0.2304  0.5155  0.0144
 1563SOL    HW1 5054   0.470   0.532   5.047  0.6055 -0.6393 -1.2528
 1563SOL    HW2 5055   0.432   0.390   5.085 -0.6356  0.2309  0.9850
 1564SOL     OW 5056   2.535   6.275   6.524 -0.4419  0.2551  0.5715
 1564SOL    HW1 5057   2.553   6.240   6.437  0.0794 -0.3167  0.9013
 1564SOL    HW2 5058   2.440   6.282   6.528 -0.5000 -0.2637  0.1687
 1565SOL     OW 5059   0.733   3.554   4.911  0.1700 -0.2760  0.3302
 1565SOL    HW1 5060   0.773   3.474   4.944 -0.4069  0.1389  2.1590
 1565SOL    HW2 5061   0.658   3.568   4.968 -0.1417  1.2085 -0.3952
 1566SOL     OW 5062   6.624   4.141   5.160 -0.6521 -0.3179 -0.3366
 1566SOL    HW1 5063   6.576   4.224   5.155  1.4190  1.0224  0.5760
 1566SOL    HW2 5064   6.614   4.113   5.251  0.0203 -0.1918 -0.2221
 1567SOL     OW 5065   4.258   5.336   6.580 -0.0216  0.1507 -0.0215
 1567SOL    HW1 5066   4.242   5.336   6.486  0.6491 -1.4824 -0.1691
 1567SOL    HW2 5067   4.350   5.359   6.589  0.3799 -1.4378  0.1047
 1568SOL     OW 5068   5.123   0.967   6.465  1.3072  0.2068 -0.3294
 1568SOL    HW1 5069   5.056   0.898   6.470  0.7681  0.6041 -1.6044
 1568SOL    HW2 5070   5.204   0.920   6.447  0.7514 -0.0600 -2.3674
 1569SOL     OW 5071   0.998   4.608   4.487  0.3076  0.1597 -0.1039
 1569SOL    HW1 5072   0.940   4.682   4.472 -0.0382 -0.2388 -0.7872
 1569SOL    HW2 5073   0.939   4.536   4.508  0.6922  0.2916  1.5183
 1570SOL     OW 5074   2.788   2.102   0.649  0.1650  0.5672 -0.0661
 1570SOL    HW1 5075   2.693   2.100   0.642  0.1470  0.5801  0.1990
 1570SOL    HW2 5076   2.807   2.064   0.735  0.3275  1.9875  0.5504
 1571SOL     OW 5077   0.873   0.145   2.502 -0.0020 -0.3614 -0.2992
 1571SOL    HW1 5078   0.897   0.138   2.594  1.1135 -0.6667 -0.5968
 1571SOL    HW2 5079   0.869   0.054   2.471 -1.3747 -0.3224 -0.3297
 1572SOL     OW 5080   4.963   0.974   1.926  0.1168  0.0713 -0.5614
 1572SOL    HW1 5081   4.878   0.931   1.918 -0.0419  0.0498  1.0156
 1572SOL    HW2 5082   4.953   1.054   1.875  0.0104 -1.1044 -2.4933
 1573SOL     OW 5083   2.895   3.260   1.483 -0.0602  0.5766 -0.2145
 1573SOL    HW1 5084   2.807   3.225   1.466 -0.0042  0.0410  0.5737
 1573SOL    HW2 5085   2.951   3.216   1.420 -0.2880  0.6208 -0.4513
 1574SOL     OW 5086   2.162   5.233   4.556  0.0147 -0.3654 -0.4044
 1574SOL    HW1 5087   2.087   5.281   4.591  0.3072 -0.0448 -0.2004
 1574SOL    HW2 5088   2.189   5.175   4.628  1.7678  1.6160  0.6712
 1575SOL     OW 5089   0.643   3.319   5.587  0.2855  0.2441 -0.3769
 1575SOL    HW1 5090   0.721   3.339   5.637  0.4894 -0.8514 -0.2319
 1575SOL    HW2 5091   0.657   3.362   5.502  0.1164  1.7626  0.3305
 1576SOL     OW 5092   6.445   1.958   4.261  0.2883 -0.4771  0.4607
 1576SOL    HW1 5093   6.437   1.963   4.166  0.1125 -1.6706  0.4012
 1576SOL    HW2 5094   6.536   1.933   4.276  0.1948 -0.7411  0.5876
 1577SOL     OW 5095   4.678   6.686   5.329 -0.0442 -0.3498 -0.3812
 1577SOL    HW1 5096   4.766   6.650   5.321  0.1176 -0.4539  1.4300
 1577SOL    HW2 5097   4.628   6.646   5.257  1.2251 -0.7583 -1.0526
 1578SOL     OW 5098   3.883   5.518   0.078  0.3102  0.3274 -0.0109
 1578SOL    HW1 5099   3.912   5.504  -0.013 -0.3675 -0.6725 -0.0805
 1578SOL    HW2 5100   3.961   5.499   0.131  0.5636  0.3995 -0.3491
 1579SOL     OW 5101   0.749   4.738   5.508 -0.6389 -0.4075 -0.6470
 1579SOL    HW1 5102   0.708   4.762   5.425 -2.2349 -0.4238  0.0958
 1579SOL    HW2 5103   0.756   4.821   5.557 -1.9423 -0.7287  0.1276
 1580SOL     OW 5104   4.613   0.710   5.455  0.2367  0.5359 -0.3544
 1580SOL    HW1 5105   4.556   0.781   5.484 -0.0640  0.8313 -1.5939
 1580SOL    HW2 5106   4.560   0.631   5.464 -0.5567  0.8503 -1.8606
 1581SOL     OW 5107   0.075   4.627   4.725 -0.3481  0.5656 -0.1504
 1581SOL    HW1 5108   0.003   4.676   4.763 -1.3151 -0.0202 -1.1574
 1581SOL    HW2 5109   0.039   4.540   4.709  1.0640 -0.2295  0.7714
 1582SOL     OW 5110   2.997   6.158   2.570  0.2678  0.0117 -0.2512
 1582SOL    HW1 5111   2.996   6.087   2.635  0.2533 -0.4904 -0.7876
 1582SOL    HW2 5112   2.937   6.128   2.502 -0.5522  1.0197 -0.0040
 1583SOL     OW 5113   4.685   6.525   0.645 -0.4194  0.0703 -0.1350
 1583SOL    HW1 5114   4.774   6.560   0.648 -0.9695  1.4768  1.1226
 1583SOL    HW2 5115   4.640   6.579   0.579 -0.2424 -0.9332 -1.0993
 1584SOL     OW 5116   3.242   5.564   4.232 -0.4608 -0.5058  0.0492
 1584SOL    HW1 5117   3.273   5.535   4.146 -1.1513 -1.3739  0.0776
 1584SOL    HW2 5118   3.152   5.531   4.237 -0.6262  0.0402  0.8749
 1585SOL     OW 5119   5.140   4.519   4.049 -0.3482  0.5774 -0.0321
 1585SOL    HW1 5120   5.218   4.467   4.028 -0.7676  0.6303 -1.8512
 1585SOL    HW2 5121   5.174   4.598   4.091  0.5223  0.2678 -0.1426
 1586SOL     OW 5122   6.395   6.775   1.152  0.5764  0.2864  0.6647
 1586SOL    HW1 5123   6.357   6.855   1.188 -0.1238 -0.0447  0.6684
 1586SOL    HW2 5124   6.355   6.765   1.066 -0.9692 -1.1797  1.4998
 1587SOL     OW 5125   2.839   5.182   0.788 -0.3750 -0.2452 -0.5189
 1587SOL    HW1 5126   2.747   5.198   0.809 -0.5182 -1.2578 -0.3245
 1587SOL    HW2 5127   2.888   5.217   0.863 -0.5606  0.6263 -0.7870
 1588SOL     OW 5128   4.924   3.913   2.957 -1.0372 -0.2247  0.3272
 1588SOL    HW1 5129   4.860   3.846   2.931 -0.0311 -1.7332  1.5124
 1588SOL    HW2 5130   4.982   3.921   2.882 -1.2228 -0.6163  0.1391
 1589SOL     OW 5131   5.690   2.989   1.049 -0.1590 -0.5907 -0.1440
 1589SOL    HW1 5132   5.746   3.037   0.990 -0.5754  1.9338  1.3725
 1589SOL    HW2 5133   5.750   2.937   1.103  0.7023  1.2369  0.7329
 1590SOL     OW 5134   0.152   2.525   6.690 -0.1905  0.6349 -0.1072
 1590SOL    HW1 5135   0.129   2.613   6.719  0.6965  1.0490 -0.6047
 1590SOL    HW2 5136   0.082   2.500   6.630 -0.2044  1.1967 -0.3267
 1591SOL     OW 5137   4.648   3.674   6.226 -0.2972  0.2331 -0.0295
 1591SOL    HW1 5138   4.578   3.686   6.290 -0.0067  0.7041  0.1958
 1591SOL    HW2 5139   4.658   3.579   6.220  0.1280  0.1942  1.1087
 1592SOL     OW 5140   2.264   2.438   0.349  0.5324  0.6580 -0.1081
 1592SOL    HW1 5141   2.248   2.477   0.263  1.5485 -0.3969 -0.8031
 1592SOL    HW2 5142   2.271   2.344   0.333 -0.9144  0.2514  1.3914
 1593SOL     OW 5143   3.086   4.609   1.629 -0.0954 -0.0459  0.3434
 1593SOL    HW1 5144   3.175   4.575   1.637  0.3762  1.0870  0.0792
 1593SOL    HW2 5145   3.033   4.550   1.682  0.8490 -0.6136  0.6738
 1594SOL     OW 5146   0.839   4.484   5.592  0.8037  0.3422 -0.7862
 1594SOL    HW1 5147   0.834   4.579   5.578  0.4144  0.7111  1.5253
 1594SOL    HW2 5148   0.756   4.450   5.557 -0.4343  1.2902  1.0826
 1595SOL     OW 5149   6.568   4.760   1.667 -0.2093  0.6406  0.9747
 1595SOL    HW1 5150   6.533   4.824   1.729 -2.6741 -0.1122  0.4811
 1595SOL    HW2 5151   6.495   4.740   1.610  1.4779 -0.0708 -1.0538
 1596SOL     OW 5152   2.777   3.853   4.401 -0.1783  0.1635  0.0833
 1596SOL    HW1 5153   2.799   3.767   4.437  1.9888 -0.1073 -1.6504
 1596SOL    HW2 5154   2.722   3.834   4.325  1.6299  0.1146 -1.2764
 1597SOL     OW 5155   6.027   6.188   5.584 -0.3651  0.2778 -0.0904
 1597SOL    HW1 5156   5.973   6.121   5.626  0.5637  0.6120  1.7119
 1597SOL    HW2 5157   5.990   6.196   5.495 -2.4860 -0.3573  0.6663
 1598SOL     OW 5158   3.532   2.527   0.184  0.0966  0.1638 -0.7693
 1598SOL    HW1 5159   3.610   2.579   0.167 -0.8894  1.5110 -1.3213
 1598SOL    HW2 5160   3.460   2.590   0.181 -0.8895 -0.7896  1.1131
 1599SOL     OW 5161   4.645   5.716   4.907  0.2733  0.5045 -0.1526
 1599SOL    HW1 5162   4.713   5.783   4.902  0.8018 -0.0091  0.0180
 1599SOL    HW2 5163   4.610   5.711   4.819  0.2467  0.9850 -0.1733
 1600SOL     OW 5164   2.726   6.664   0.381  0.3493  0.5506  0.2290
 1600SOL    HW1 5165   2.764   6.577   0.371 -0.0508  0.4533 -0.5300
 1600SOL    HW2 5166   2.776   6.719   0.321  0.4996  0.8133  0.5937
 1601SOL     OW 5167   3.153   0.974   1.349  0.3642  0.3386 -0.1299
 1601SOL    HW1 5168   3.201   1.057   1.347  1.1049 -0.0514  0.6188
 1601SOL    HW2 5169   3.215   0.910   1.315 -0.0510  0.0279 -0.2964
 1602SOL     OW 5170   1.997   3.623   6.314  0.1153 -0.1275  0.1316
 1602SOL    HW1 5171   2.014   3.696   6.374  1.0351 -2.1618  2.5372
 1602SOL    HW2 5172   1.902   3.621   6.304 -0.1175 -0.0861  2.0798
 1603SOL     OW 5173   2.623   1.447   6.323  0.4136 -0.3257 -0.1297
 1603SOL    HW1 5174   2.679   1.396   6.382  0.9243 -0.2285 -0.5288
 1603SOL    HW2 5175   2.561   1.491   6.381  0.6969 -0.5026  0.3101
 1604SOL     OW 5176   5.678   5.598   0.142  0.0127  0.3096  0.2142
 1604SOL    HW1 5177   5.731   5.640   0.210 -0.1727  0.4309  0.2861
 1604SOL    HW2 5178   5.679   5.660   0.069  2.6136 -1.0542 -1.0473
 1605SOL     OW 5179   4.611   2.829   1.031  0.2872 -0.6652  0.2547
 1605SOL    HW1 5180   4.641   2.904   1.083  2.9217 -0.6850 -1.0887
 1605SOL    HW2 5181   4.553   2.781   1.091  1.6533  0.3246  2.5172
 1606SOL     OW 5182   5.764   1.635   4.833  0.3780  0.3450 -0.0829
 1606SOL    HW1 5183   5.853   1.642   4.867  0.9785 -0.6116 -1.3625
 1606SOL    HW2 5184   5.775   1.602   4.744 -1.2850 -0.1635 -0.1334
 1607SOL     OW 5185   3.321   4.160   0.782  0.3495 -0.0546  0.2163
 1607SOL    HW1 5186   3.398   4.202   0.819 -0.4072  1.3669  0.2719
 1607SOL    HW2 5187   3.354   4.111   0.706  1.0491  2.4102 -1.1890
 1608SOL     OW 5188   1.430   3.097   5.960 -0.5886  0.2103 -0.5339
 1608SOL    HW1 5189   1.421   3.183   6.003  2.4611  1.6952 -2.5050
 1608SOL    HW2 5190   1.345   3.082   5.919 -1.0727  2.5976 -0.5929
 1609SOL     OW 5191   0.076   3.469   5.510 -0.6018  0.1698  0.2298
 1609SOL    HW1 5192   0.145   3.485   5.575 -1.2352 -0.3732  1.0618
 1609SOL    HW2 5193   0.052   3.556   5.479 -0.9106  0.5255  1.3982
 1610SOL     OW 5194   4.730   2.942   0.481 -0.1200 -0.1477  0.1540
 1610SOL    HW1 5195   4.786   2.972   0.553  1.9914 -0.6184 -1.2000
 1610SOL    HW2 5196   4.702   3.023   0.438  1.3142  0.0705 -0.4194
 1611SOL     OW 5197   3.941   4.081   4.146 -0.6117  0.2386  0.3047
 1611SOL    HW1 5198   3.920   4.126   4.228  0.4222  1.0540  0.1460
 1611SOL    HW2 5199   4.032   4.106   4.128 -0.5189 -0.6885 -0.6017
 1612SOL     OW 5200   5.717   3.418   5.886  0.4476 -0.3441 -0.1024
 1612SOL    HW1 5201   5.790   3.367   5.850  0.1954  0.1156 -1.2827
 1612SOL    HW2 5202   5.640   3.387   5.839 -0.0841 -0.5378  0.8559
 1613SOL     OW 5203   2.458   0.862   6.344  0.4130 -0.3938  0.1699
 1613SOL    HW1 5204   2.521   0.813   6.291 -0.5774 -1.1227 -0.3693
 1613SOL    HW2 5205   2.389   0.887   6.283 -0.8364 -1.4001  1.1118
 1614SOL     OW 5206   2.787   5.273   0.230 -0.3541 -0.2860 -0.4253
 1614SOL    HW1 5207   2.831   5.294   0.312  0.9072 -1.1154 -0.8727
 1614SOL    HW2 5208   2.777   5.357   0.186  0.2832 -0.0167 -0.0709
 1615SOL     OW 5209   4.444   3.580   4.249 -0.0845  0.1625  0.5495
 1615SOL    HW1 5210   4.513   3.607   4.309 -0.7733  1.2866  0.8779
 1615SOL    HW2 5211   4.484   3.584   4.162 -0.0214  1.9046  0.6235
 1616SOL     OW 5212   2.394   2.906   1.372 -0.3635  0.4952  0.0003
 1616SOL    HW1 5213   2.450   2.841   1.329 -0.0777  1.5243 -1.2773
 1616SOL    HW2 5214   2.355   2.954   1.299 -1.0814  1.3124  0.9132
 1617SOL     OW 5215   1.316   0.675   0.001 -0.2090 -0.1226 -0.2441
 1617SOL    HW1 5216   1.241   0.615   0.006 -1.9208  1.4119 -3.9185
 1617SOL    HW2 5217   1.381   0.628  -0.051  0.2994 -0.4223  0.6459
 1618SOL     OW 5218   5.351   3.127   1.073 -0.1868 -0.3850  0.1344
 1618SOL    HW1 5219   5.293   3.202   1.062 -0.0896 -0.3735 -0.3261
 1618SOL    HW2 5220   5.380   3.132   1.164 -0.9673 -0.4374  0.3918
 1619SOL     OW 5221   6.668   0.920   4.302 -0.1658 -0.4598 -0.3049
 1619SOL    HW1 5222   6.661   0.932   4.207 -1.1436  0.7697 -0.1001
 1619SOL    HW2 5223   6.623   0.996   4.339  1.6552 -0.0083  1.1554
 1620SOL     OW 5224   3.957   1.044   3.031 -0.1472  0.4567  0.0777
 1620SOL    HW1 5225   3.980   1.079   2.945  3.0863  0.7482  0.9160
 1620SOL    HW2 5226   4.004   1.101   3.093  0.0087 -1.4764  1.8435
 1621SOL     OW 5227   0.327   4.802   3.498  0.0477  0.0863  0.1432
 1621SOL    HW1 5228   0.273   4.848   3.562 -1.0257 -0.5847 -0.2475
 1621SOL    HW2 5229   0.380   4.742   3.550 -0.2972  0.0549  0.4658
 1622SOL     OW 5230   0.996   2.652   0.134 -0.0464  0.0833  0.2880
 1622SOL    HW1 5231   0.928   2.716   0.112  0.2963 -0.2527 -1.9764
 1622SOL    HW2 5232   0.947   2.573   0.158 -0.4433  0.3399  0.3472
 1623SOL     OW 5233   2.219   2.276   6.710  0.5657  0.2480  0.4752
 1623SOL    HW1 5234   2.143   2.326   6.680  0.0383 -0.1964  1.0338
 1623SOL    HW2 5235   2.186   2.187   6.721  1.3144 -0.0799  0.1824
 1624SOL     OW 5236   5.288   5.571   4.923 -0.0734 -0.2208  0.5157
 1624SOL    HW1 5237   5.268   5.509   4.994  0.3731  2.1094  2.8193
 1624SOL    HW2 5238   5.383   5.575   4.922 -0.0368  2.3617  2.3880
 1625SOL     OW 5239   3.853   4.975   3.837 -0.2818  0.0017 -0.3466
 1625SOL    HW1 5240   3.888   4.895   3.798 -1.0285 -0.6353  0.2597
 1625SOL    HW2 5241   3.840   5.035   3.763  1.7042  0.1308 -0.6366
 1626SOL     OW 5242   0.687   2.474   4.886  0.4035  0.2309  0.8956
 1626SOL    HW1 5243   0.748   2.505   4.818  0.1939  1.3916  1.2114
 1626SOL    HW2 5244   0.652   2.554   4.924 -1.1641 -0.4231  0.8780
 1627SOL     OW 5245   3.989   3.605   2.618 -0.1072 -0.3916 -0.4613
 1627SOL    HW1 5246   3.949   3.678   2.665 -1.0937 -0.7057 -0.7684
 1627SOL    HW2 5247   3.968   3.528   2.672 -0.0984 -0.5848 -0.7312
 1628SOL     OW 5248   3.961   6.531   6.542  0.4414  0.1578 -0.4772
 1628SOL    HW1 5249   3.884   6.476   6.556  0.9275 -1.2221 -2.6778
 1628SOL    HW2 5250   3.939   6.614   6.583 -0.7993 -1.2696  1.9965
 1629SOL     OW 5251   6.439   3.991   1.763 -0.3309  0.3920  0.0497
 1629SOL    HW1 5252   6.471   3.964   1.678 -0.8393 -1.2772  0.3521
 1629SOL    HW2 5253   6.344   3.985   1.756 -0.3776 -2.5417  1.4962
 1630SOL     OW 5254   4.240   3.699   6.127  0.1062 -0.1213  0.0491
 1630SOL    HW1 5255   4.277   3.726   6.211  1.9132 -0.7081 -0.5071
 1630SOL    HW2 5256   4.235   3.780   6.076  1.0695 -0.0866 -0.0081
 1631SOL     OW 5257   0.283   6.336   3.063  0.8094 -0.8542  0.0174
 1631SOL    HW1 5258   0.251   6.293   2.983 -0.8454 -1.1345  0.7849
 1631SOL    HW2 5259   0.337   6.270   3.106 -1.6170 -2.2494  1.1306
 1632SOL     OW 5260   5.831   0.737   2.515 -0.0100  0.2587 -0.2804
 1632SOL    HW1 5261   5.779   0.683   2.456 -0.8247  1.6878 -0.9148
 1632SOL    HW2 5262   5.884   0.674   2.565 -0.0170 -1.0344 -1.8304
 1633SOL     OW 5263   1.403   4.279   0.994  0.1251  0.4672  0.4529
 1633SOL    HW1 5264   1.433   4.326   0.916 -3.1892 -0.1992 -1.3961
 1633SOL    HW2 5265   1.385   4.348   1.058 -0.8150  1.4411 -0.8083
 1634SOL     OW 5266   0.590   1.719   6.569  0.0855  0.0891  0.1535
 1634SOL    HW1 5267   0.577   1.718   6.474 -0.6314 -1.0510  0.2445
 1634SOL    HW2 5268   0.618   1.630   6.591 -0.5323  0.1036  1.0989
 1635SOL     OW 5269   5.685   4.146   2.025 -0.1989  0.0078  0.8231
 1635SOL    HW1 5270   5.641   4.118   2.106 -0.1239  0.3772  0.9960
 1635SOL    HW2 5271   5.778   4.128   2.041 -0.3950 -2.0375 -0.0641
 1636SOL     OW 5272   5.442   5.449   1.997 -0.0168 -0.0288  0.7450
 1636SOL    HW1 5273   5.439   5.417   2.088 -0.5480  0.5674  0.9425
 1636SOL    HW2 5274   5.351   5.445   1.968  0.1414 -0.1271  0.2615
 1637SOL     OW 5275   4.176   2.497   3.889 -0.2859  0.7794  0.1148
 1637SOL    HW1 5276   4.265   2.528   3.909 -0.4045  0.6465  0.8908
 1637SOL    HW2 5277   4.120   2.574   3.906 -0.5198  0.3314  1.5044
 1638SOL     OW 5278   4.879   6.117   1.429 -0.0546  0.1338 -0.0400
 1638SOL    HW1 5279   4.789   6.125   1.460  0.1941  0.5439  0.5860
 1638SOL    HW2 5280   4.890   6.022   1.416 -0.3895  0.0182  0.4507
 1639SOL     OW 5281   2.529   5.176   3.700 -0.2049  0.0628  0.1762
 1639SOL    HW1 5282   2.519   5.212   3.787  1.1022 -0.7489  0.6953
 1639SOL    HW2 5283   2.623   5.182   3.682 -0.3415 -0.5446 -0.8309
 1640SOL     OW 5284   0.803   5.672   6.151 -0.2131  0.0885 -0.5073
 1640SOL    HW1 5285   0.813   5.651   6.244  1.5597 -1.1550 -0.9270
 1640SOL    HW2 5286   0.881   5.724   6.130  0.3289 -1.1334 -1.6628
 1641SOL     OW 5287   2.101   5.001   5.355  0.1354  0.5156  0.4114
 1641SOL    HW1 5288   2.138   5.082   5.321 -1.3513  1.0497  0.0102
 1641SOL    HW2 5289   2.137   4.932   5.298 -0.2127  1.1117 -0.5445
 1642SOL     OW 5290   5.543   5.566   6.683 -0.3749 -1.0117 -0.0916
 1642SOL    HW1 5291   5.464   5.580   6.735  0.7591 -1.4693  1.8601
 1642SOL    HW2 5292   5.537   5.475   6.654 -1.1495 -0.6700 -1.0447
 1643SOL     OW 5293   0.915   5.534   6.679  0.3235 -0.1952 -0.3383
 1643SOL    HW1 5294   0.967   5.505   6.754  0.6450 -2.7033 -1.4286
 1643SOL    HW2 5295   0.911   5.629   6.688  1.9495 -0.2504  1.8080
 1644SOL     OW 5296   5.236   0.894   0.261 -0.5689  0.0365  0.1947
 1644SOL    HW1 5297   5.234   0.914   0.168 -3.1526  3.0246  0.6816
 1644SOL    HW2 5298   5.262   0.977   0.303  0.7320 -1.2732  2.1436
 1645SOL     OW 5299   4.568   4.994   6.401  0.4995 -0.0588  0.0831
 1645SOL    HW1 5300   4.650   5.042   6.414 -0.0497  0.3803  2.2893
 1645SOL    HW2 5301   4.528   5.036   6.324  1.7274  0.5906 -0.2169
 1646SOL     OW 5302   2.268   6.275   5.880 -0.8218 -0.4657 -0.3283
 1646SOL    HW1 5303   2.191   6.248   5.930 -0.1138 -1.1418  0.4491
 1646SOL    HW2 5304   2.340   6.270   5.943 -0.3761  1.7267 -0.6024
 1647SOL     OW 5305   6.157   1.153   5.477  0.4537 -0.7393 -0.1547
 1647SOL    HW1 5306   6.213   1.117   5.546  0.4071 -0.5932 -0.0428
 1647SOL    HW2 5307   6.089   1.087   5.464  0.3840 -0.7034  0.0326
 1648SOL     OW 5308   2.792   4.860   3.437 -0.2310 -0.3409 -0.4775
 1648SOL    HW1 5309   2.796   4.952   3.464 -0.6641 -0.2335 -0.7665
 1648SOL    HW2 5310   2.701   4.847   3.411 -1.0408 -1.6747  2.5437
 1649SOL     OW 5311   3.449   2.276   2.216  0.8096 -0.5203 -1.3650
 1649SOL    HW1 5312   3.388   2.338   2.175  1.1913  0.2927 -0.7343
 1649SOL    HW2 5313   3.427   2.191   2.177 -1.6917 -0.5300 -0.1143
 1650SOL     OW 5314   2.536   4.674   1.498  0.4292  1.0233  0.2491
 1650SOL    HW1 5315   2.631   4.667   1.507  0.3150 -1.0710  0.3704
 1650SOL    HW2 5316   2.523   4.737   1.427  1.9404  0.5577 -0.4840
 1651SOL     OW 5317   5.410   2.981   4.426 -0.1289 -0.4876 -0.5742
 1651SOL    HW1 5318   5.400   3.075   4.414  0.1534 -0.1934  1.2226
 1651SOL    HW2 5319   5.502   2.963   4.406 -0.2727 -0.4586 -1.2836
 1652SOL     OW 5320   3.062   4.449   3.348 -0.2577 -0.4648 -0.3396
 1652SOL    HW1 5321   3.087   4.517   3.285 -0.5864 -0.1457 -0.1249
 1652SOL    HW2 5322   3.004   4.493   3.410  0.1425 -0.7552  0.2497
 1653SOL     OW 5323   0.157   1.614   6.274  0.5779 -0.2626  0.7603
 1653SOL    HW1 5324   0.130   1.683   6.335  1.1085 -0.6092  1.3979
 1653SOL    HW2 5325   0.190   1.662   6.198 -1.1093  0.1668  0.2686
 1654SOL     OW 5326   5.830   3.363   0.175 -0.0967  0.1664 -0.6016
 1654SOL    HW1 5327   5.806   3.437   0.230  1.9570 -0.3472  1.1402
 1654SOL    HW2 5328   5.788   3.288   0.217 -0.2242  0.0265 -0.9735
 1655SOL     OW 5329   6.057   2.848   6.391  0.1265 -0.9079 -0.2256
 1655SOL    HW1 5330   5.987   2.907   6.418  2.0605  0.6958  1.6222
 1655SOL    HW2 5331   6.080   2.876   6.302  0.9822  1.2145  0.6035
 1656SOL     OW 5332   6.657   2.304   5.000 -0.2530  0.1453 -0.4916
 1656SOL    HW1 5333   6.684   2.290   4.909  0.1352 -0.2897 -0.3103
 1656SOL    HW2 5334   6.732   2.346   5.042 -0.4597  0.4154 -0.3910
 1657SOL     OW 5335   5.765   2.399   6.284  0.0601  0.4363  0.2742
 1657SOL    HW1 5336   5.776   2.470   6.347  0.2847  0.5646  0.0916
 1657SOL    HW2 5337   5.777   2.441   6.199 -2.2193  0.6782  0.0124
 1658SOL     OW 5338   5.691   2.360   2.129  0.6195 -0.0744  0.3224
 1658SOL    HW1 5339   5.715   2.417   2.056  0.1092  0.4202  0.5357
 1658SOL    HW2 5340   5.753   2.286   2.123  2.8272  1.5733  1.4138
 1659SOL     OW 5341   2.684   0.239   5.474 -0.6239 -0.2994  0.7946
 1659SOL    HW1 5342   2.691   0.180   5.550 -1.8221 -0.7224  0.5979
 1659SOL    HW2 5343   2.613   0.298   5.496 -0.2005  0.3314  0.4827
 1660SOL     OW 5344   2.322   3.172   0.333 -0.1471  0.2531 -0.0303
 1660SOL    HW1 5345   2.414   3.187   0.352 -0.5187  1.8264  0.6954
 1660SOL    HW2 5346   2.304   3.084   0.365  0.9870  0.1168  0.2519
 1661SOL     OW 5347   5.442   0.487   1.181 -0.0887 -0.1860 -0.2060
 1661SOL    HW1 5348   5.420   0.523   1.095  0.1270 -0.9490 -0.5895
 1661SOL    HW2 5349   5.361   0.495   1.232 -0.3573 -0.1578 -0.6310
 1662SOL     OW 5350   6.254   1.204   6.034 -0.1215  0.1100 -0.0799
 1662SOL    HW1 5351   6.283   1.274   6.093  0.2616 -0.4789  0.4325
 1662SOL    HW2 5352   6.321   1.202   5.965 -1.1065  1.5028 -1.1445
 1663SOL     OW 5353   1.970   5.897   1.928 -0.4791  0.1694 -0.3519
 1663SOL    HW1 5354   2.059   5.925   1.907 -1.0023  1.6362 -0.7448
 1663SOL    HW2 5355   1.975   5.801   1.931  1.2862  0.2466  0.5134
 1664SOL     OW 5356   5.598   3.921   4.024  0.7300  0.4352 -0.0280
 1664SOL    HW1 5357   5.608   3.847   4.083 -2.5187 -0.9112 -0.9441
 1664SOL    HW2 5358   5.549   3.987   4.074 -2.0333 -0.7107 -1.0398
 1665SOL     OW 5359   3.147   5.621   5.204  0.1119  0.0429 -0.1157
 1665SOL    HW1 5360   3.180   5.542   5.162  1.8690  0.7419 -0.1229
 1665SOL    HW2 5361   3.184   5.620   5.292  1.0500  1.3689 -0.4607
 1666SOL     OW 5362   0.185   0.219   2.092  0.2511 -0.3309  0.4609
 1666SOL    HW1 5363   0.095   0.248   2.107 -0.9128 -1.5462 -3.1915
 1666SOL    HW2 5364   0.228   0.293   2.052  0.1217 -0.5523 -0.0909
 1667SOL     OW 5365   4.518   5.690   0.714  0.0236  1.0546 -0.4856
 1667SOL    HW1 5366   4.588   5.642   0.670 -1.5181 -0.1280 -1.7372
 1667SOL    HW2 5367   4.495   5.635   0.789 -2.3326 -0.7771 -2.3954
 1668SOL     OW 5368   0.367   4.209   2.700  0.1052 -0.8792  0.4779
 1668SOL    HW1 5369   0.427   4.217   2.626 -0.2976 -0.3300  0.1982
 1668SOL    HW2 5370   0.341   4.300   2.719 -0.7802 -1.1244  0.4688
 1669SOL     OW 5371   3.568   3.051   4.219  0.6537 -0.5715  0.0383
 1669SOL    HW1 5372   3.578   3.018   4.130 -2.1226 -0.5746 -0.3435
 1669SOL    HW2 5373   3.536   2.975   4.269 -3.0408  0.6514 -0.2262
 1670SOL     OW 5374   4.499   0.318   4.194 -0.1289 -0.1510  0.4950
 1670SOL    HW1 5375   4.513   0.380   4.265 -1.8610  0.1128  0.6407
 1670SOL    HW2 5376   4.464   0.240   4.236  0.4547 -0.6318  0.1104
 1671SOL     OW 5377   5.050   4.818   6.126 -1.0664  0.3060 -0.2772
 1671SOL    HW1 5378   5.143   4.839   6.130 -1.0582  0.3334 -0.5952
 1671SOL    HW2 5379   5.008   4.899   6.097 -1.1389  0.1682 -0.5688
 1672SOL     OW 5380   4.922   6.192   3.552  0.1808 -0.4577  0.5916
 1672SOL    HW1 5381   4.865   6.251   3.502  0.4830 -1.4308 -1.0026
 1672SOL    HW2 5382   4.874   6.173   3.632 -0.7086  0.5245  0.3072
 1673SOL     OW 5383   1.978   0.083   2.514 -0.6265  0.4873 -0.0698
 1673SOL    HW1 5384   1.899   0.120   2.555 -0.9998  0.0177 -0.3550
 1673SOL    HW2 5385   1.944   0.023   2.448 -0.0369  1.0334 -0.8908
 1674SOL     OW 5386   1.691   3.639   1.947  0.0052 -0.3265  0.3624
 1674SOL    HW1 5387   1.741   3.697   2.004 -0.9051 -0.0195  0.8781
 1674SOL    HW2 5388   1.628   3.596   2.006 -0.2463 -0.7938 -0.2380
 1675SOL     OW 5389   1.355   5.341   3.470  0.2995  0.5440 -0.1220
 1675SOL    HW1 5390   1.279   5.399   3.480  1.6147  2.1084  1.4668
 1675SOL    HW2 5391   1.403   5.377   3.395 -0.6858 -0.7336 -1.4385
 1676SOL     OW 5392   1.384   6.018   6.624 -0.2660  0.1017 -0.6617
 1676SOL    HW1 5393   1.338   5.988   6.702  2.7071 -1.5010  0.6738
 1676SOL    HW2 5394   1.383   6.113   6.630 -1.1191  0.0268  0.7094
 1677SOL     OW 5395   0.710   2.635   4.214  0.0142 -0.1546 -0.7481
 1677SOL    HW1 5396   0.793   2.681   4.225 -1.1730  2.2688 -1.0964
 1677SOL    HW2 5397   0.667   2.681   4.142 -1.3041 -1.8730 -1.1207
 1678SOL     OW 5398   3.966   1.213   4.586  0.4168 -0.3480 -0.3637
 1678SOL    HW1 5399   4.011   1.156   4.649  2.1996  0.9464 -0.4035
 1678SOL    HW2 5400   3.876   1.217   4.619  0.8469 -1.2003  1.0333
 1679SOL     OW 5401   3.909   6.092   3.196 -0.2742  0.2129 -0.0535
 1679SOL    HW1 5402   3.951   6.147   3.130 -0.1266 -0.1276 -0.2467
 1679SOL    HW2 5403   3.879   6.154   3.263  0.2632  0.4900 -0.0579
 1680SOL     OW 5404   4.475   3.505   4.992  0.3700  0.3416  0.3098
 1680SOL    HW1 5405   4.561   3.462   4.991  0.0545 -0.2935  0.1881
 1680SOL    HW2 5406   4.466   3.542   4.905  0.7051  0.7921  0.4597
 1681SOL     OW 5407   3.642   5.801   5.902 -0.8557  0.0974 -0.1267
 1681SOL    HW1 5408   3.599   5.716   5.912 -1.4284  0.3434 -0.4396
 1681SOL    HW2 5409   3.736   5.781   5.904 -0.9739 -0.4492  0.5723
 1682SOL     OW 5410   4.307   4.895   0.380 -0.0400 -0.4642  0.1352
 1682SOL    HW1 5411   4.266   4.829   0.437 -0.4461  0.2552  0.6940
 1682SOL    HW2 5412   4.391   4.856   0.355  0.0277 -0.9127  1.0210
 1683SOL     OW 5413   4.725   1.083   0.883 -0.5626  0.4661 -0.4238
 1683SOL    HW1 5414   4.726   1.165   0.835  2.0798  0.4035 -0.6398
 1683SOL    HW2 5415   4.815   1.052   0.879 -0.5676 -0.4507  3.0425
 1684SOL     OW 5416   2.682   1.356   2.103 -0.5649 -0.1654  0.0913
 1684SOL    HW1 5417   2.655   1.292   2.037  1.6935 -0.2062 -0.8835
 1684SOL    HW2 5418   2.669   1.441   2.061 -0.4576 -0.1255  0.1386
 1685SOL     OW 5419   5.747   5.331   2.691 -0.2875  0.4312 -0.3459
 1685SOL    HW1 5420   5.665   5.330   2.741  1.1571  2.8326  2.3590
 1685SOL    HW2 5421   5.761   5.423   2.669  1.8094  0.1340 -0.4874
 1686SOL     OW 5422   5.200   5.659   5.355 -0.6319 -0.5058 -0.0623
 1686SOL    HW1 5423   5.254   5.612   5.292 -0.3045 -1.2736  0.7669
 1686SOL    HW2 5424   5.117   5.674   5.310  0.1094  0.3178 -1.2041
 1687SOL     OW 5425   5.562   3.229   4.555 -0.0818 -0.0173 -0.0382
 1687SOL    HW1 5426   5.574   3.286   4.479  1.0450  0.2183  0.2972
 1687SOL    HW2 5427   5.645   3.235   4.602 -0.4152 -0.9400  0.6822
 1688SOL     OW 5428   2.583   0.123   4.814  0.0978  0.4527 -0.0886
 1688SOL    HW1 5429   2.491   0.098   4.818 -0.1619  1.4419  0.4826
 1688SOL    HW2 5430   2.594   0.165   4.729  0.1610 -0.1507 -0.3846
 1689SOL     OW 5431   3.671   5.812   3.354 -0.1088  0.3708 -0.2816
 1689SOL    HW1 5432   3.740   5.759   3.395 -1.9469 -0.3266  2.1513
 1689SOL    HW2 5433   3.596   5.752   3.347 -0.8466  1.4086 -1.7551
 1690SOL     OW 5434   1.372   2.145   6.091  0.3564 -0.0852  0.0325
 1690SOL    HW1 5435   1.449   2.093   6.112 -0.5718 -1.2924  0.6064
 1690SOL    HW2 5436   1.392   2.233   6.122  1.6494 -0.2854 -0.2129
 1691SOL     OW 5437   2.438   2.963   4.815 -0.4201 -0.2192  0.0313
 1691SOL    HW1 5438   2.482   3.015   4.748 -0.7400 -1.0130 -0.8112
 1691SOL    HW2 5439   2.374   3.023   4.854  0.2762  0.4582  0.1470
 1692SOL     OW 5440   0.495   0.956   1.795 -0.4402  0.2458 -0.0458
 1692SOL    HW1 5441   0.571   0.934   1.849 -0.3839 -0.3105 -0.3399
 1692SOL    HW2 5442   0.434   0.999   1.854  0.4463  1.4680  0.0179
 1693SOL     OW 5443   0.074   3.324   6.464 -0.2526  0.0173  0.0431
 1693SOL    HW1 5444   0.051   3.232   6.478  1.3301 -0.8186 -2.1988
 1693SOL    HW2 5445   0.162   3.321   6.425 -0.2463  2.4725 -0.3029
 1694SOL     OW 5446   2.557   6.095   3.887 -0.1896  0.5003 -0.1828
 1694SOL    HW1 5447   2.632   6.036   3.893  0.2106  1.0609  0.5434
 1694SOL    HW2 5448   2.500   6.056   3.821  1.7375  1.1544 -2.3495
 1695SOL     OW 5449   5.458   5.890   2.160  0.0872  0.5407 -0.1892
 1695SOL    HW1 5450   5.420   5.946   2.227  1.7044 -2.1384  3.2573
 1695SOL    HW2 5451   5.395   5.818   2.149  1.1076 -0.5343  0.7067
 1696SOL     OW 5452   0.162   2.619   6.224  0.2647  0.2093 -0.1028
 1696SOL    HW1 5453   0.245   2.633   6.270  0.5161  1.5397 -0.9367
 1696SOL    HW2 5454   0.123   2.706   6.216 -2.7354 -0.6066  2.9386
 1697SOL     OW 5455   6.376   1.642   5.975 -0.0585 -0.2321 -0.3594
 1697SOL    HW1 5456   6.305   1.579   5.978 -1.1247  0.9315 -0.1513
 1697SOL    HW2 5457   6.417   1.629   5.890 -0.7614 -0.6791 -0.6329
 1698SOL     OW 5458   3.148   3.914   1.475 -0.0951 -0.0486  0.1693
 1698SOL    HW1 5459   3.110   3.979   1.534  0.2711 -0.5730  0.9971
 1698SOL    HW2 5460   3.129   3.947   1.387 -0.8220  0.6394  0.5781
 1699SOL     OW 5461   4.945   2.036   4.046  1.0587 -0.5307  0.3616
 1699SOL    HW1 5462   4.876   2.095   4.017  0.5733 -1.4730 -0.4681
 1699SOL    HW2 5463   5.026   2.075   4.013  0.7806 -0.1638  0.1011
 1700SOL     OW 5464   3.513   0.526   0.290 -0.2918 -0.3006  0.0997
 1700SOL    HW1 5465   3.598   0.569   0.302  0.0161 -0.4070 -1.4313
 1700SOL    HW2 5466   3.518   0.488   0.202 -0.6877 -3.1573  1.1928
 1701SOL     OW 5467   3.696   1.912   2.340 -0.2199 -0.0336 -0.3159
 1701SOL    HW1 5468   3.661   1.991   2.297  1.2961  1.3796  0.9381
 1701SOL    HW2 5469   3.745   1.867   2.271 -0.1107  0.7460 -0.7603
 1702SOL     OW 5470   2.739   5.064   4.812  0.6564  0.3165  0.1615
 1702SOL    HW1 5471   2.809   5.066   4.746 -0.2885 -1.1843 -0.9540
 1702SOL    HW2 5472   2.734   4.973   4.839 -0.4695  0.5052  0.6599
 1703SOL     OW 5473   1.279   0.319   4.853 -0.4717 -0.3001 -0.2369
 1703SOL    HW1 5474   1.195   0.280   4.876 -1.2149  0.7827 -1.0844
 1703SOL    HW2 5475   1.270   0.412   4.874  1.3447 -0.5030  1.9491
 1704SOL     OW 5476   4.044   4.885   3.434  0.2614 -0.1190  0.1381
 1704SOL    HW1 5477   4.039   4.838   3.517 -1.2257 -1.5714 -0.7126
 1704SOL    HW2 5478   4.130   4.861   3.398 -0.6481 -2.7717 -0.5241
 1705SOL     OW 5479   0.270   2.838   2.222 -0.2238  0.7173 -0.0924
 1705SOL    HW1 5480   0.286   2.829   2.128 -1.7429  0.7499 -0.3734
 1705SOL    HW2 5481   0.180   2.870   2.229 -0.5826 -0.4606  1.3965
 1706SOL     OW 5482   1.255   4.316   1.644  0.1118  0.2006 -0.5539
 1706SOL    HW1 5483   1.328   4.373   1.671  0.4907 -0.2507 -0.6186
 1706SOL    HW2 5484   1.264   4.309   1.549  1.0160 -1.2350 -0.3897
 1707SOL     OW 5485   4.499   0.167   2.992 -0.5805  0.0891 -0.7853
 1707SOL    HW1 5486   4.530   0.114   3.065 -1.7168  2.8745  1.9396
 1707SOL    HW2 5487   4.580   0.195   2.948  0.1583 -1.2414 -0.3397
 1708SOL     OW 5488   2.839   6.449   4.343 -0.4878  0.4843  0.3848
 1708SOL    HW1 5489   2.820   6.512   4.413 -0.6563 -0.2486  1.0163
 1708SOL    HW2 5490   2.843   6.502   4.264 -0.1272  1.3562  0.9725
 1709SOL     OW 5491   2.081   5.442   2.280  0.0312  0.1349  0.0272
 1709SOL    HW1 5492   2.114   5.468   2.366 -1.1948  0.5554  0.3917
 1709SOL    HW2 5493   2.013   5.506   2.260 -0.5044 -0.6448 -0.7243
 1710SOL     OW 5494   1.607   3.427   3.198  0.0202  0.3231  0.3464
 1710SOL    HW1 5495   1.672   3.452   3.132 -1.4634 -0.3879 -1.4831
 1710SOL    HW2 5496   1.592   3.508   3.248 -0.5972  1.6411 -1.8231
 1711SOL     OW 5497   4.247   4.599   3.248  0.1478 -0.1014  0.2539
 1711SOL    HW1 5498   4.243   4.694   3.263 -1.1714 -0.0782 -0.0633
 1711SOL    HW2 5499   4.337   4.575   3.270  0.2231  1.0487  1.3666
 1712SOL     OW 5500   4.068   1.465   0.324 -0.6554 -0.0832 -0.0329
 1712SOL    HW1 5501   4.053   1.416   0.243  0.6993  2.6678 -2.1190
 1712SOL    HW2 5502   4.163   1.472   0.331 -0.7586 -0.1730  1.7527
 1713SOL     OW 5503   1.851   2.224   6.742  0.0960  0.1185  0.6917
 1713SOL    HW1 5504   1.879   2.265   6.660  0.7113  0.6761  1.1670
 1713SOL    HW2 5505   1.930   2.181   6.775  0.0394  0.5357  1.3704
 1714SOL     OW 5506   2.560   5.193   3.406  0.3082 -0.2897 -0.2651
 1714SOL    HW1 5507   2.478   5.143   3.398  0.6314 -1.0527  0.9835
 1714SOL    HW2 5508   2.533   5.284   3.407 -0.4832 -0.5180 -0.3894
 1715SOL     OW 5509   5.634   1.109   4.173  0.1190  0.6162 -0.1417
 1715SOL    HW1 5510   5.692   1.137   4.244  1.8216  0.8737 -1.5491
 1715SOL    HW2 5511   5.654   1.016   4.163  2.4981  1.2514 -2.4432
 1716SOL     OW 5512   6.731   5.820   5.252 -0.6498 -0.3859 -0.0854
 1716SOL    HW1 5513   6.661   5.849   5.310 -2.0128  0.2091 -1.9121
 1716SOL    HW2 5514   6.759   5.736   5.287  0.4218  1.0823  2.8921
 1717SOL     OW 5515   4.614   5.924   2.404  0.4023  0.2773 -0.4041
 1717SOL    HW1 5516   4.588   5.998   2.460  0.7739 -0.2892  0.5463
 1717SOL    HW2 5517   4.581   5.847   2.450  0.1667 -0.1694 -1.2993
 1718SOL     OW 5518   4.133   1.492   2.554 -0.2975 -0.2180 -0.2006
 1718SOL    HW1 5519   4.165   1.444   2.477  1.9795  0.1172  0.4709
 1718SOL    HW2 5520   4.078   1.429   2.600 -1.6288 -0.4663 -2.0126
 1719SOL     OW 5521   6.731   2.134   2.652 -0.5032  0.0063 -0.2257
 1719SOL    HW1 5522   6.701   2.219   2.621 -0.6796 -0.3456 -1.0466
 1719SOL    HW2 5523   6.728   2.078   2.575  2.9544  0.0976 -0.5740
 1720SOL     OW 5524   6.576   4.928   6.144  0.5818 -0.2726  0.2436
 1720SOL    HW1 5525   6.669   4.945   6.126  0.2912 -0.0015 -1.1454
 1720SOL    HW2 5526   6.557   4.980   6.222  1.1398  1.2677 -0.5872
 1721SOL     OW 5527   1.745   5.833   1.367 -0.3869  0.0255  0.5573
 1721SOL    HW1 5528   1.793   5.842   1.449  3.0997 -1.8415 -0.9952
 1721SOL    HW2 5529   1.680   5.765   1.384  0.5759 -0.6491  1.7244
 1722SOL     OW 5530   6.550   0.196   2.254 -0.1804  0.7547  0.1792
 1722SOL    HW1 5531   6.512   0.257   2.191 -1.3236 -0.5628 -0.4666
 1722SOL    HW2 5532   6.549   0.111   2.209 -0.6939 -0.1653  1.8132
 1723SOL     OW 5533   1.502   1.508   2.617 -0.3263 -0.2240  0.0267
 1723SOL    HW1 5534   1.423   1.457   2.601 -1.2882  1.3023 -0.3344
 1723SOL    HW2 5535   1.515   1.559   2.537 -0.4379  1.3791  0.9666
 1724SOL     OW 5536   6.742   1.273   2.475  0.0008 -0.0993 -0.5712
 1724SOL    HW1 5537   6.823   1.307   2.438  0.0274 -0.8983 -1.2783
 1724SOL    HW2 5538   6.711   1.343   2.532  1.7197 -0.1878  0.5347
 1725SOL     OW 5539   5.704   5.596   3.684  0.5971  0.1699  0.1594
 1725SOL    HW1 5540   5.749   5.542   3.620 -0.4111 -2.0004  1.1742
 1725SOL    HW2 5541   5.624   5.624   3.640  1.2341  1.0911 -0.4496
 1726SOL     OW 5542   3.567   4.034   0.881  0.4049 -0.1187 -0.4175
 1726SOL    HW1 5543   3.638   3.973   0.900  0.5778  0.3188  0.3871
 1726SOL    HW2 5544   3.609   4.104   0.830  0.2891 -0.4678 -0.9983
 1727SOL     OW 5545   3.288   3.529   4.871  0.2107 -0.2782 -0.6541
 1727SOL    HW1 5546   3.321   3.446   4.837  1.7807  0.5669 -1.3448
 1727SOL    HW2 5547   3.268   3.581   4.793  0.3195  0.3755 -0.2561
 1728SOL     OW 5548   1.969   2.448   0.349 -0.5655  0.0291 -0.2855
 1728SOL    HW1 5549   2.052   2.449   0.301  0.4149  0.3551  1.3422
 1728SOL    HW2 5550   1.923   2.525   0.317  0.6835  1.0560  0.3043
 1729SOL     OW 5551   5.491   0.004   4.083  0.3178  0.0442 -0.0914
 1729SOL    HW1 5552   5.456  -0.046   4.009  1.6844  0.4630 -1.0758
 1729SOL    HW2 5553   5.495  -0.059   4.154 -2.9391  0.1229  0.3176
 1730SOL     OW 5554   2.331   2.902   6.002  0.0387 -0.5971 -0.2439
 1730SOL    HW1 5555   2.293   2.990   6.004  0.3923 -0.3527  3.7830
 1730SOL    HW2 5556   2.256   2.843   6.013  0.0906 -0.5876  0.1747
 1731SOL     OW 5557   3.808   3.732   4.400 -0.1635 -0.2090 -0.0664
 1731SOL    HW1 5558   3.782   3.809   4.452 -1.3457 -0.7216  0.1303
 1731SOL    HW2 5559   3.864   3.768   4.331  0.4128  0.6491  0.8158
 1732SOL     OW 5560   0.197   3.929   4.869 -0.2955 -0.4925  0.0086
 1732SOL    HW1 5561   0.202   4.014   4.825  0.6334 -1.3219 -1.5912
 1732SOL    HW2 5562   0.127   3.883   4.825  1.0400 -1.5608 -1.0878
 1733SOL     OW 5563   5.861   0.680   4.696 -0.2255  0.1646  0.6779
 1733SOL    HW1 5564   5.834   0.601   4.743  0.9667  0.3662  1.7550
 1733SOL    HW2 5565   5.923   0.649   4.630 -2.4305 -0.2110 -1.3385
 1734SOL     OW 5566   2.137   5.640   6.792 -0.1138 -0.1724  0.4509
 1734SOL    HW1 5567   2.176   5.688   6.720  1.4251 -0.1882  1.2336
 1734SOL    HW2 5568   2.062   5.594   6.753  0.0834  0.6078 -0.8939
 1735SOL     OW 5569   0.326   6.073   2.186 -0.8004  0.1374 -0.2700
 1735SOL    HW1 5570   0.369   6.122   2.116 -0.7454  0.3810 -0.0692
 1735SOL    HW2 5571   0.351   6.119   2.266 -0.4795 -0.4195 -0.0457
 1736SOL     OW 5572   2.060   4.022   3.540 -0.3154  0.4097 -0.0737
 1736SOL    HW1 5573   1.995   4.090   3.522 -1.2223 -0.9241 -2.2098
 1736SOL    HW2 5574   2.012   3.940   3.530  1.0480 -0.5853  1.1943
 1737SOL     OW 5575   4.140   1.829   0.050 -0.7022  0.4192 -0.3403
 1737SOL    HW1 5576   4.188   1.787  -0.022 -0.5522 -0.1907  0.1089
 1737SOL    HW2 5577   4.130   1.760   0.116  0.4005  1.3521  0.8427
 1738SOL     OW 5578   0.834   3.007   5.275  0.2773  0.1341 -0.4478
 1738SOL    HW1 5579   0.828   2.995   5.370 -0.6545  1.4383 -0.3114
 1738SOL    HW2 5580   0.743   3.010   5.245  0.5241  1.5798 -1.1149
 1739SOL     OW 5581   2.270   3.448   2.202  0.6726 -0.3470 -0.7537
 1739SOL    HW1 5582   2.296   3.539   2.188 -2.0488  0.8561  1.1182
 1739SOL    HW2 5583   2.182   3.443   2.164 -0.2801 -1.4025  1.4492
 1740SOL     OW 5584   5.581   3.808   3.754 -0.0540 -0.6593 -0.0789
 1740SOL    HW1 5585   5.622   3.824   3.839  2.1441 -0.1239 -1.1636
 1740SOL    HW2 5586   5.490   3.837   3.765  0.1807 -0.6054  2.0663
 1741SOL     OW 5587   4.487   1.293   6.328  0.4332 -0.0228  0.0277
 1741SOL    HW1 5588   4.470   1.226   6.393 -0.7378 -0.4772 -0.7158
 1741SOL    HW2 5589   4.487   1.375   6.377  0.7152 -0.4528  0.7583
 1742SOL     OW 5590   3.464   0.912   1.519  0.3457 -0.4523  0.3822
 1742SOL    HW1 5591   3.496   0.879   1.603  1.7968 -1.8754 -0.6806
 1742SOL    HW2 5592   3.444   0.834   1.468 -0.6792  0.3923 -0.5618
 1743SOL     OW 5593   4.826   2.346   4.697 -0.1838 -0.4118  0.1638
 1743SOL    HW1 5594   4.910   2.364   4.654  0.4167 -0.1336  1.4017
 1743SOL    HW2 5595   4.778   2.429   4.692 -0.3150 -0.5224 -0.3993
 1744SOL     OW 5596   5.195   4.067   0.981 -0.4138 -0.1481  0.0844
 1744SOL    HW1 5597   5.246   4.003   0.931 -1.9095 -1.5388  0.2538
 1744SOL    HW2 5598   5.123   4.016   1.018 -1.3526  1.5537  0.6909
 1745SOL     OW 5599   4.878   1.091   0.030  0.3501  0.5612 -0.2318
 1745SOL    HW1 5600   4.891   1.174   0.077  0.7903 -0.0150  0.6968
 1745SOL    HW2 5601   4.906   1.109  -0.059  1.3463  1.1558  0.1893
 1746SOL     OW 5602   4.645   3.757   4.374 -0.1196 -0.2039 -0.2141
 1746SOL    HW1 5603   4.721   3.812   4.392 -0.6057  0.8608 -1.2503
 1746SOL    HW2 5604   4.570   3.814   4.388 -0.5961 -0.0504 -2.8426
 1747SOL     OW 5605   3.838   2.720   4.189  0.7317  0.8319 -0.6276
 1747SOL    HW1 5606   3.816   2.628   4.171  1.9089  0.4347 -0.0643
 1747SOL    HW2 5607   3.765   2.751   4.243  0.7266 -0.0040 -0.1323
 1748SOL     OW 5608   0.160   4.477   0.867  0.5491  0.0838  0.4506
 1748SOL    HW1 5609   0.073   4.443   0.887  0.0319  0.6855 -0.7038
 1748SOL    HW2 5610   0.218   4.402   0.879  0.1368  0.0682  2.8625
 1749SOL     OW 5611   0.908   1.100   1.710  0.0522 -0.4188  0.3737
 1749SOL    HW1 5612   0.898   1.187   1.750  0.3375 -0.2778  0.1496
 1749SOL    HW2 5613   0.820   1.075   1.682  0.2624  0.7747 -1.5540
 1750SOL     OW 5614   5.106   1.513   2.245  0.7252 -0.0826 -0.1149
 1750SOL    HW1 5615   5.159   1.433   2.250  2.3740  0.5260 -4.1222
 1750SOL    HW2 5616   5.167   1.584   2.266  0.0030  0.3416  0.6266
 1751SOL     OW 5617   5.460   2.958   0.897  0.0927 -0.3413  0.1217
 1751SOL    HW1 5618   5.398   3.011   0.946  0.9441  0.8055 -0.0120
 1751SOL    HW2 5619   5.533   2.944   0.958  0.2515 -0.6475 -0.1346
 1752SOL     OW 5620   5.151   5.422   3.079 -0.1358  0.0775  0.4030
 1752SOL    HW1 5621   5.194   5.374   3.149  0.5318  1.4732  0.9984
 1752SOL    HW2 5622   5.063   5.440   3.113  0.4749  1.5428  1.3240
 1753SOL     OW 5623   5.447   5.152   4.338 -0.1186 -0.0610 -0.1715
 1753SOL    HW1 5624   5.505   5.224   4.364  1.6538 -1.5879  0.2717
 1753SOL    HW2 5625   5.388   5.141   4.412  1.1284 -0.5781  0.7708
 1754SOL     OW 5626   3.902   1.669   4.743  0.1967 -0.0066 -0.5332
 1754SOL    HW1 5627   3.963   1.608   4.701  1.2870  1.0863 -0.5870
 1754SOL    HW2 5628   3.955   1.747   4.762 -1.0136  0.6919  0.0882
 1755SOL     OW 5629   3.751   5.502   1.624  0.1202 -1.1533  0.0058
 1755SOL    HW1 5630   3.716   5.431   1.570  1.0527 -3.3751  2.1638
 1755SOL    HW2 5631   3.782   5.459   1.704  2.1164  1.4946  0.7949
 1756SOL     OW 5632   5.202   1.586   1.111  0.5477 -0.2383  0.9058
 1756SOL    HW1 5633   5.222   1.493   1.101  0.6376 -0.2226  0.9412
 1756SOL    HW2 5634   5.109   1.593   1.089 -0.6887 -1.0287  4.9259
 1757SOL     OW 5635   2.738   3.711   6.165  0.1936  0.1643 -0.3774
 1757SOL    HW1 5636   2.674   3.670   6.224  0.4587 -0.1325 -0.2933
 1757SOL    HW2 5637   2.778   3.780   6.218  0.1718  0.1370 -0.3244
 1758SOL     OW 5638   4.445   0.780   5.993 -0.1832  0.1351  0.6419
 1758SOL    HW1 5639   4.482   0.783   5.904 -0.7627 -0.7465  0.3510
 1758SOL    HW2 5640   4.511   0.735   6.045  0.3439  1.0231  0.7723
 1759SOL     OW 5641   3.061   6.571   4.604  0.2731 -0.1662  0.5690
 1759SOL    HW1 5642   3.009   6.558   4.683 -0.7842 -0.3559 -0.1359
 1759SOL    HW2 5643   3.092   6.484   4.580  1.0053 -0.0438  1.0294
 1760SOL     OW 5644   0.205   0.762   0.889  0.7332  0.1078 -0.0893
 1760SOL    HW1 5645   0.260   0.823   0.940  0.1224  1.3172 -0.8206
 1760SOL    HW2 5646   0.240   0.675   0.910 -0.4536  0.3559  3.6465
 1761SOL     OW 5647   3.451   6.398   4.640 -0.0187 -0.0730 -0.0029
 1761SOL    HW1 5648   3.500   6.463   4.589  0.3912  1.2457  1.9824
 1761SOL    HW2 5649   3.366   6.439   4.656 -0.2776 -0.6366  0.0902
 1762SOL     OW 5650   0.679   3.740   2.320  0.5476 -0.3829 -0.0978
 1762SOL    HW1 5651   0.695   3.788   2.401  3.7792 -0.5872 -0.4687
 1762SOL    HW2 5652   0.738   3.781   2.256  0.4969 -2.3086 -1.4689
 1763SOL     OW 5653   3.357   3.914   1.065 -0.2950  0.1750 -0.0060
 1763SOL    HW1 5654   3.288   3.977   1.045 -0.4282  0.0924  0.1889
 1763SOL    HW2 5655   3.415   3.916   0.989 -1.6993 -1.3868 -1.1985
 1764SOL     OW 5656   6.192   0.352   2.368 -0.7511 -0.2522  0.1493
 1764SOL    HW1 5657   6.173   0.432   2.319  0.0662  0.1750  0.4982
 1764SOL    HW2 5658   6.124   0.348   2.435  0.2314  1.2004  1.3242
 1765SOL     OW 5659   2.687   5.626   2.578  0.0516  0.3119  0.2123
 1765SOL    HW1 5660   2.740   5.705   2.593  0.0809  0.1475  1.0561
 1765SOL    HW2 5661   2.611   5.637   2.636 -0.4059  0.1464 -0.3499
 1766SOL     OW 5662   1.800   2.225   1.647  0.4166 -0.1551 -0.3499
 1766SOL    HW1 5663   1.768   2.296   1.702 -0.7034 -1.6783  1.0578
 1766SOL    HW2 5664   1.895   2.227   1.658  0.3978  1.0688 -0.3102
 1767SOL     OW 5665   4.875   5.892   6.640  0.2726  0.0208  0.3774
 1767SOL    HW1 5666   4.956   5.940   6.660 -0.9982  3.0477 -1.1102
 1767SOL    HW2 5667   4.898   5.836   6.566  1.0267  0.8831 -0.0632
 1768SOL     OW 5668   0.151   6.283   1.629  0.0616 -0.1592 -0.6272
 1768SOL    HW1 5669   0.091   6.352   1.601  0.9410  0.6143 -0.6838
 1768SOL    HW2 5670   0.111   6.202   1.598 -0.0910  0.4827 -2.2196
 1769SOL     OW 5671   0.069   3.620   2.535  0.4227 -0.3101  0.3052
 1769SOL    HW1 5672   0.043   3.679   2.464  0.0714 -1.7885 -0.8478
 1769SOL    HW2 5673   0.163   3.633   2.543  0.7185 -1.0630 -1.3956
 1770SOL     OW 5674   4.454   5.183   4.316  0.4374 -0.2477  0.0721
 1770SOL    HW1 5675   4.488   5.255   4.262 -0.6068  2.0094  2.1841
 1770SOL    HW2 5676   4.524   5.167   4.380 -0.4262  1.0251  1.4114
 1771SOL     OW 5677   6.767   3.621   4.519 -0.6397  0.0333  0.3266
 1771SOL    HW1 5678   6.842   3.589   4.470  0.7047  2.4053  0.6934
 1771SOL    HW2 5679   6.697   3.629   4.455  0.6133  1.5326 -0.9460
 1772SOL     OW 5680   3.520   2.544   1.736 -0.2252 -0.1462 -0.1771
 1772SOL    HW1 5681   3.605   2.524   1.777 -0.6752 -0.9857  0.3650
 1772SOL    HW2 5682   3.536   2.625   1.687  0.1740  1.2977  2.1830
 1773SOL     OW 5683   3.814   4.921   0.747  0.7879 -0.2462 -0.0334
 1773SOL    HW1 5684   3.836   4.845   0.801 -0.2055 -0.9575 -0.5871
 1773SOL    HW2 5685   3.898   4.964   0.729  1.1484  0.0566  2.1035
 1774SOL     OW 5686   6.492   0.747   5.084 -0.4391 -0.2101  0.0377
 1774SOL    HW1 5687   6.584   0.729   5.070 -0.5259 -2.2862  1.7478
 1774SOL    HW2 5688   6.485   0.769   5.177 -1.8930 -1.9570  0.3923
 1775SOL     OW 5689   1.440   1.869   0.228  1.2088 -0.0546  0.7840
 1775SOL    HW1 5690   1.507   1.808   0.197  1.6728  0.5024  0.6685
 1775SOL    HW2 5691   1.456   1.949   0.179 -1.0270 -0.5889 -1.0212
 1776SOL     OW 5692   6.254   3.096   2.843  0.1925  0.2048  0.3889
 1776SOL    HW1 5693   6.304   3.124   2.767 -0.0071 -1.1364 -0.2675
 1776SOL    HW2 5694   6.319   3.082   2.911  0.5291  0.0705  0.0401
 1777SOL     OW 5695   5.736   6.698   2.659 -0.0648  0.4433  0.0848
 1777SOL    HW1 5696   5.736   6.707   2.755  1.7303  2.1871 -0.0109
 1777SOL    HW2 5697   5.649   6.726   2.632 -0.3571  0.6303  1.1739
 1778SOL     OW 5698   4.412   0.709   2.002  0.1274  0.6197  0.7108
 1778SOL    HW1 5699   4.495   0.689   1.959 -0.3497  2.3649 -1.1941
 1778SOL    HW2 5700   4.361   0.628   1.993  0.8623  0.2166 -0.0258
 1779SOL     OW 5701   1.939   4.712   6.197 -0.2607  0.5940  0.1914
 1779SOL    HW1 5702   1.981   4.626   6.203 -0.8491  0.3919  1.7248
 1779SOL    HW2 5703   1.869   4.699   6.133  0.3961  0.2636 -0.4830
 1780SOL     OW 5704   2.051   3.808   4.712 -0.3182  0.9399  0.3893
 1780SOL    HW1 5705   2.116   3.762   4.765 -0.3531 -0.6469 -0.8427
 1780SOL    HW2 5706   1.967   3.771   4.739 -0.5302  1.5696  0.6087
 1781SOL     OW 5707   5.477   3.097   0.051  0.9407 -0.1840  0.1247
 1781SOL    HW1 5708   5.559   3.118   0.006  0.0714  1.6656 -0.6623
 1781SOL    HW2 5709   5.433   3.181   0.063 -1.3315 -1.2181 -0.4081
 1782SOL     OW 5710   6.091   1.371   5.641  0.0906  0.3062 -0.4097
 1782SOL    HW1 5711   6.107   1.289   5.594  1.2105 -0.0407  0.5554
 1782SOL    HW2 5712   6.174   1.418   5.637  0.3142  0.1514  1.4090
 1783SOL     OW 5713   5.944   2.297   2.938  0.5708  0.4632  0.0097
 1783SOL    HW1 5714   5.860   2.291   2.983 -0.5551 -0.8055 -2.0602
 1783SOL    HW2 5715   5.993   2.219   2.966 -0.4317 -0.7416 -1.4116
 1784SOL     OW 5716   0.063   2.644   4.544 -0.4269  0.3510 -0.7019
 1784SOL    HW1 5717   0.121   2.614   4.614 -2.6821 -1.5644  0.5037
 1784SOL    HW2 5718   0.066   2.739   4.549  0.6718  0.2663  0.9746
 1785SOL     OW 5719   4.774   5.330   3.058  0.2296 -0.4003 -0.2353
 1785SOL    HW1 5720   4.853   5.316   3.111 -0.7211 -1.2081  1.0338
 1785SOL    HW2 5721   4.746   5.419   3.081 -0.6978 -1.0708  1.4150
 1786SOL     OW 5722   3.235   5.371   2.663 -0.1468  0.1406 -0.0046
 1786SOL    HW1 5723   3.165   5.422   2.703 -0.3833  0.4318 -0.7720
 1786SOL    HW2 5724   3.316   5.411   2.696 -0.3357  0.2771  0.2975
 1787SOL     OW 5725   2.530   6.274   2.670 -0.0542 -0.2714  0.6888
 1787SOL    HW1 5726   2.475   6.308   2.599  0.9631 -0.7067 -0.3448
 1787SOL    HW2 5727   2.614   6.318   2.658  0.2064 -0.5405  1.4846
 1788SOL     OW 5728   5.396   1.087   2.806  0.1288 -0.5271  1.1978
 1788SOL    HW1 5729   5.333   1.016   2.823  0.4972 -0.7101  1.8389
 1788SOL    HW2 5730   5.420   1.118   2.894  0.8450 -0.3853  0.9554
 1789SOL     OW 5731   1.462   2.665   3.875  0.4911  0.7379 -0.3246
 1789SOL    HW1 5732   1.522   2.698   3.942  1.2501 -0.6281 -0.2823
 1789SOL    HW2 5733   1.487   2.711   3.795  0.3760  1.4935  0.0602
 1790SOL     OW 5734   0.863   4.980   0.043 -0.2308 -0.4637  1.0423
 1790SOL    HW1 5735   0.916   4.927  -0.017  0.4404  0.6082  0.6600
 1790SOL    HW2 5736   0.920   5.053   0.067 -0.9523 -0.1831  1.9697
 1791SOL     OW 5737   1.475   4.907   4.621  0.4546  0.3149  0.2007
 1791SOL    HW1 5738   1.545   4.853   4.585  0.7743  0.4637  0.5916
 1791SOL    HW2 5739   1.447   4.861   4.700 -0.3688 -0.1044 -0.3289
 1792SOL     OW 5740   5.724   4.266   5.774  0.4208 -0.8341 -1.0250
 1792SOL    HW1 5741   5.708   4.191   5.831  0.7365 -0.8016 -0.8892
 1792SOL    HW2 5742   5.698   4.342   5.827  3.1599 -0.5856  0.0946
 1793SOL     OW 5743   0.889   3.758   1.268  0.2379 -0.0680  0.9351
 1793SOL    HW1 5744   0.857   3.775   1.357  1.2702  1.4118  1.0576
 1793SOL    HW2 5745   0.939   3.836   1.245 -1.2963  0.3100 -1.5783
 1794SOL     OW 5746   4.592   4.308   3.153 -0.1139 -0.0371 -0.1061
 1794SOL    HW1 5747   4.667   4.355   3.190  0.5771 -1.1670 -0.0373
 1794SOL    HW2 5748   4.629   4.255   3.082 -1.1922  0.9762 -1.4957
 1795SOL     OW 5749   4.189   0.664   4.465  0.8145  0.1508 -0.4613
 1795SOL    HW1 5750   4.184   0.577   4.503 -0.6522  0.0995 -0.7076
 1795SOL    HW2 5751   4.185   0.649   4.371  1.2011  0.4585 -0.5308
 1796SOL     OW 5752   2.718   2.000   5.412  0.2878 -0.1185 -0.2809
 1796SOL    HW1 5753   2.745   2.008   5.321 -2.0620  1.6020 -0.9133
 1796SOL    HW2 5754   2.684   1.911   5.420  0.7723 -0.3734 -0.9976
 1797SOL     OW 5755   5.286   5.327   3.431 -0.2431 -0.7199 -0.2633
 1797SOL    HW1 5756   5.361   5.267   3.433 -0.2035 -0.6582  0.2370
 1797SOL    HW2 5757   5.216   5.279   3.477 -0.1909 -0.3597  0.1983
 1798SOL     OW 5758   0.948   5.068   1.157  0.5923 -0.0096 -0.3991
 1798SOL    HW1 5759   0.899   4.992   1.126 -0.6517  0.8381 -0.5409
 1798SOL    HW2 5760   0.947   5.060   1.253  1.2439 -0.6388 -0.4357
 1799SOL     OW 5761   4.988   0.352   3.519  0.0646  0.3721 -0.1054
 1799SOL    HW1 5762   5.077   0.372   3.488  0.0118  3.2291  1.3255
 1799SOL    HW2 5763   5.001   0.307   3.602  0.2395  1.6699  0.6000
 1800SOL     OW 5764   6.050   6.688   5.674  0.1553  0.4477  0.4386
 1800SOL    HW1 5765   6.143   6.665   5.669  0.0270  0.0465 -0.3197
 1800SOL    HW2 5766   6.049   6.783   5.683  0.6323  0.6872 -1.5437
 1801SOL     OW 5767   2.308   2.613   5.450 -0.2376  0.1403 -0.0096
 1801SOL    HW1 5768   2.358   2.683   5.408  0.0709 -0.0994 -0.0416
 1801SOL    HW2 5769   2.373   2.545   5.469 -0.2999  0.4025  1.1928
 1802SOL     OW 5770   0.633   6.214   3.023  0.3210  0.1011 -0.2649
 1802SOL    HW1 5771   0.659   6.125   3.000 -0.6099 -0.1374 -0.4578
 1802SOL    HW2 5772   0.628   6.213   3.119  1.1158  0.1861 -0.2203
 1803SOL     OW 5773   5.506   6.668   4.339  0.2923  0.2634 -0.1464
 1803SOL    HW1 5774   5.597   6.676   4.370  1.0362 -2.1005 -1.4640
 1803SOL    HW2 5775   5.460   6.739   4.384  2.7011  1.3561  0.8365
 1804SOL     OW 5776   0.226   4.907   0.716 -0.2812  0.2674 -0.1245
 1804SOL    HW1 5777   0.277   4.926   0.637 -0.7796  0.9825 -0.2893
 1804SOL    HW2 5778   0.208   4.813   0.712  2.6891 -0.4688  0.9475
 1805SOL     OW 5779   4.780   5.801   0.362 -0.6700  0.1911 -0.7077
 1805SOL    HW1 5780   4.688   5.813   0.340 -0.4690  0.4756 -1.4451
 1805SOL    HW2 5781   4.822   5.777   0.279 -0.1497 -0.3559 -0.2987
 1806SOL     OW 5782   0.932   4.678   5.148 -0.1468 -0.1653 -0.2767
 1806SOL    HW1 5783   0.949   4.622   5.072  1.4278  1.7174 -1.4070
 1806SOL    HW2 5784   0.999   4.746   5.144  0.8023 -0.6270  3.5505
 1807SOL     OW 5785   2.139   6.702   5.119  0.6603 -0.2777  0.0390
 1807SOL    HW1 5786   2.070   6.644   5.151  0.6904 -0.3344  0.0013
 1807SOL    HW2 5787   2.134   6.695   5.023  1.0151 -0.6306  0.0463
 1808SOL     OW 5788   6.682   4.597   3.030 -0.0672 -0.3439 -0.0351
 1808SOL    HW1 5789   6.700   4.512   2.989 -0.3543 -0.3606 -0.1235
 1808SOL    HW2 5790   6.599   4.626   2.992  0.5725  0.5018 -0.8718
 1809SOL     OW 5791   2.591   3.338   5.013  0.1930 -0.4123 -0.5026
 1809SOL    HW1 5792   2.585   3.353   4.918  0.0509  0.8365 -0.3098
 1809SOL    HW2 5793   2.504   3.359   5.046  0.8899  1.6290  0.2041
 1810SOL     OW 5794   5.999   4.063   4.252 -0.0662 -0.2200  0.3384
 1810SOL    HW1 5795   6.091   4.083   4.271 -0.2290  0.2043  0.7008
 1810SOL    HW2 5796   5.959   4.148   4.233 -0.1972 -0.4961 -0.6721
 1811SOL     OW 5797   0.577   3.323   5.055  0.4625 -0.2898  0.4147
 1811SOL    HW1 5798   0.542   3.256   4.996  0.0940 -0.6842  1.0674
 1811SOL    HW2 5799   0.655   3.283   5.094  0.3944 -0.2407  0.6046
 1812SOL     OW 5800   2.151   5.077   6.693 -0.0577  0.0737  0.0706
 1812SOL    HW1 5801   2.218   5.118   6.748 -0.6604 -0.5588  1.3265
 1812SOL    HW2 5802   2.074   5.075   6.748 -1.8391  2.7405 -2.0329
 1813SOL     OW 5803   5.556   0.017   1.562 -0.3217  0.1407 -0.3135
 1813SOL    HW1 5804   5.572  -0.047   1.492 -0.5554 -2.5394  1.9372
 1813SOL    HW2 5805   5.488   0.074   1.526 -2.0321 -2.4737 -1.5447
 1814SOL     OW 5806   3.237   1.222   3.662 -0.1929  0.4198  0.3705
 1814SOL    HW1 5807   3.166   1.211   3.725 -0.2049  1.0753  0.4815
 1814SOL    HW2 5808   3.260   1.315   3.667  0.4525  0.2847  0.1000
 1815SOL     OW 5809   1.971   4.626   3.038 -0.3490  0.1629 -0.1455
 1815SOL    HW1 5810   2.015   4.710   3.052 -0.2758 -0.1104  1.4685
 1815SOL    HW2 5811   1.886   4.650   3.001  0.6346  0.7676 -2.1256
 1816SOL     OW 5812   5.230   1.124   0.385 -0.5380  0.3257 -0.5041
 1816SOL    HW1 5813   5.227   1.180   0.463  1.8417  0.0748 -0.1636
 1816SOL    HW2 5814   5.204   1.183   0.313  0.9436  1.6372 -0.0171
 1817SOL     OW 5815   0.662   3.114   6.153  0.2351  0.1144 -0.4426
 1817SOL    HW1 5816   0.698   3.186   6.205 -0.6687 -0.2890  0.8145
 1817SOL    HW2 5817   0.731   3.049   6.151  0.8414  0.7698 -1.0733
 1818SOL     OW 5818   6.027   0.421   5.772 -0.1867  0.0252 -0.0998
 1818SOL    HW1 5819   6.073   0.482   5.715 -0.9160  1.2780  0.5967
 1818SOL    HW2 5820   5.946   0.467   5.796 -0.7277 -1.1939  0.5041
 1819SOL     OW 5821   5.816   0.096   3.839 -0.3362 -0.2003 -0.1223
 1819SOL    HW1 5822   5.826   0.175   3.786  0.5991 -0.2048  0.0388
 1819SOL    HW2 5823   5.763   0.038   3.785 -1.4785  0.7061 -0.0396
 1820SOL     OW 5824   0.232   4.585   4.186  0.7537  0.5105  0.3539
 1820SOL    HW1 5825   0.235   4.584   4.281  0.2333 -1.4417  0.3780
 1820SOL    HW2 5826   0.249   4.495   4.160  1.1725  1.0617 -1.4237
 1821SOL     OW 5827   5.276   0.845   2.803  0.0403 -0.0013 -0.4387
 1821SOL    HW1 5828   5.324   0.762   2.804 -0.4357 -0.2756  0.5643
 1821SOL    HW2 5829   5.240   0.851   2.714  0.2480 -0.7643 -0.5781
 1822SOL     OW 5830   6.381   4.973   2.761  0.0156 -0.5264  0.6079
 1822SOL    HW1 5831   6.322   5.018   2.700  1.7201  2.4518  0.9664
 1822SOL    HW2 5832   6.417   4.901   2.709 -0.8695  0.0753 -0.9285
 1823SOL     OW 5833   2.448   4.674   1.037  0.0796  0.4302  0.3444
 1823SOL    HW1 5834   2.470   4.594   0.990 -0.3846  0.2193  0.4881
 1823SOL    HW2 5835   2.360   4.660   1.070  0.2681  0.7192  0.9857
 1824SOL     OW 5836   5.407   4.613   1.843  0.2087  0.0834  0.3967
 1824SOL    HW1 5837   5.316   4.588   1.830  0.6851 -1.4762 -0.2680
 1824SOL    HW2 5838   5.454   4.529   1.852  1.5483  0.8451  0.8850
 1825SOL     OW 5839   6.499   4.469   0.749  0.2352 -0.2075 -0.0272
 1825SOL    HW1 5840   6.512   4.454   0.656 -0.4116 -1.1407  0.0194
 1825SOL    HW2 5841   6.456   4.390   0.781 -1.1422  0.8006  0.7255
 1826SOL     OW 5842   4.781   3.217   4.320 -0.1318  0.0795 -0.0561
 1826SOL    HW1 5843   4.774   3.309   4.292 -1.4895  0.1599  0.4517
 1826SOL    HW2 5844   4.699   3.178   4.292 -0.7064 -0.3201  2.0026
 1827SOL     OW 5845   3.630   4.346   6.070  0.1481 -0.1338 -0.0509
 1827SOL    HW1 5846   3.570   4.412   6.035  0.4161  0.1372 -0.0038
 1827SOL    HW2 5847   3.717   4.382   6.053  0.2966  0.8033  2.3784
 1828SOL     OW 5848   5.030   6.520   4.494 -0.0363  0.5610  0.4000
 1828SOL    HW1 5849   5.095   6.486   4.433  2.6629  0.0964  3.2584
 1828SOL    HW2 5850   5.054   6.613   4.504  1.5182  0.0033  2.7833
 1829SOL     OW 5851   2.454   6.445   3.753  0.3044  0.1738 -0.1006
 1829SOL    HW1 5852   2.413   6.359   3.747  4.1993 -1.8759  0.1449
 1829SOL    HW2 5853   2.449   6.467   3.847  0.1330 -0.2022 -0.0206
 1830SOL     OW 5854   4.474   2.160   0.954  0.2872  0.3881 -0.0027
 1830SOL    HW1 5855   4.560   2.118   0.953  0.9321  1.6630 -0.4932
 1830SOL    HW2 5856   4.444   2.155   0.863 -0.7468 -1.1522  0.3857
 1831SOL     OW 5857   4.955   1.744   5.220 -0.0732  0.4760 -0.0925
 1831SOL    HW1 5858   4.923   1.826   5.257  0.5758  0.2654  0.9951
 1831SOL    HW2 5859   4.879   1.704   5.179 -0.9121  0.5993  1.2923
 1832SOL     OW 5860   2.976   3.533   4.366 -0.0441 -0.0237  0.5235
 1832SOL    HW1 5861   2.928   3.568   4.291  0.6712 -0.5152 -0.1786
 1832SOL    HW2 5862   2.933   3.449   4.384 -0.5459  0.3276  1.0052
 1833SOL     OW 5863   0.177   1.957   3.292  0.3813 -0.4371  0.1619
 1833SOL    HW1 5864   0.155   1.995   3.377  1.1639  0.9626 -0.2425
 1833SOL    HW2 5865   0.122   2.003   3.229 -0.4519 -1.7114 -0.0875
 1834SOL     OW 5866   6.617   5.763   4.036  0.1102  0.2776  0.9726
 1834SOL    HW1 5867   6.538   5.796   3.992 -0.6833 -1.8014  0.7397
 1834SOL    HW2 5868   6.688   5.785   3.976 -0.6931 -0.5938 -0.3512
 1835SOL     OW 5869   3.281   1.143   0.767  0.1170 -0.2846  0.4149
 1835SOL    HW1 5870   3.264   1.232   0.737  0.1321 -0.7880 -1.2135
 1835SOL    HW2 5871   3.219   1.089   0.718  0.8519 -1.2721  0.5262
 1836SOL     OW 5872   4.414   5.055   2.576 -0.0330  0.5667  0.7336
 1836SOL    HW1 5873   4.346   5.074   2.641  0.5731  0.7856  1.3107
 1836SOL    HW2 5874   4.452   4.972   2.605  1.0522  1.2653  1.3481
 1837SOL     OW 5875   0.537   1.703   2.930 -0.2285  0.1553 -0.2534
 1837SOL    HW1 5876   0.540   1.751   2.847  0.4139 -0.2406 -0.4643
 1837SOL    HW2 5877   0.622   1.659   2.936 -0.0237  0.6541  0.8996
 1838SOL     OW 5878   6.684   1.943   3.431  0.2939 -0.0622 -0.4316
 1838SOL    HW1 5879   6.600   1.913   3.465  0.4542 -0.8403 -0.6915
 1838SOL    HW2 5880   6.747   1.921   3.499  0.4519 -0.6013 -0.7397
 1839SOL     OW 5881   6.567   0.221   5.045  0.2824 -0.0168  0.1836
 1839SOL    HW1 5882   6.565   0.316   5.032  0.5440 -0.0912 -0.4230
 1839SOL    HW2 5883   6.586   0.210   5.138 -2.4060  0.5537  0.9071
 1840SOL     OW 5884   1.857   0.127   4.826  0.0431  0.4533  0.0195
 1840SOL    HW1 5885   1.775   0.134   4.776  0.1999 -1.6889 -0.6732
 1840SOL    HW2 5886   1.919   0.183   4.780 -0.9404  1.9333  0.4235
 1841SOL     OW 5887   3.678   3.140   4.905  0.0935 -0.4492  0.1632
 1841SOL    HW1 5888   3.666   3.231   4.934  0.5342 -0.1424 -0.5843
 1841SOL    HW2 5889   3.752   3.108   4.957  0.6137 -0.0373 -0.3111
 1842SOL     OW 5890   4.588   2.616   3.428 -0.6531  0.1011  0.1047
 1842SOL    HW1 5891   4.623   2.531   3.454  0.9032  0.9148  0.7925
 1842SOL    HW2 5892   4.584   2.612   3.332  1.5942  0.0359 -0.0295
 1843SOL     OW 5893   5.339   6.078   1.092 -0.1865  0.7370 -0.5284
 1843SOL    HW1 5894   5.413   6.077   1.031 -0.9740 -0.4764 -1.5358
 1843SOL    HW2 5895   5.308   6.168   1.091  1.4295  1.3282  0.1268
 1844SOL     OW 5896   1.864   6.686   1.431  0.3208  0.3185  0.3378
 1844SOL    HW1 5897   1.779   6.666   1.471  0.1805  0.9538  0.3816
 1844SOL    HW2 5898   1.849   6.768   1.384  0.4092 -0.5816 -1.3051
 1845SOL     OW 5899   6.296   0.318   4.966  0.1462 -0.1086 -0.2839
 1845SOL    HW1 5900   6.387   0.287   4.975  0.9241  1.3086 -2.3764
 1845SOL    HW2 5901   6.288   0.389   5.030 -0.2979 -1.7431  1.5572
 1846SOL     OW 5902   0.060   1.665   4.636  0.3197 -0.2025 -0.5049
 1846SOL    HW1 5903  -0.022   1.625   4.607  0.9543 -1.3303 -0.8080
 1846SOL    HW2 5904   0.046   1.685   4.728 -0.4770  0.1274 -0.6882
 1847SOL     OW 5905   5.291   6.290   5.793 -0.2173 -0.0300 -0.3359
 1847SOL    HW1 5906   5.288   6.348   5.869 -1.6486  2.5810 -2.2480
 1847SOL    HW2 5907   5.219   6.229   5.806 -2.3801  2.2635 -0.8844
 1848SOL     OW 5908   2.268   4.043   2.538 -0.3653 -0.1858 -0.1365
 1848SOL    HW1 5909   2.259   3.949   2.552 -0.2348 -0.1573  0.1457
 1848SOL    HW2 5910   2.182   4.071   2.508 -0.3495 -0.4268 -0.4125
 1849SOL     OW 5911   6.090   3.792   4.705 -1.1246  0.5285 -0.1593
 1849SOL    HW1 5912   6.053   3.707   4.732 -0.0551  0.3096  0.6824
 1849SOL    HW2 5913   6.042   3.815   4.625 -2.7862  0.0667  0.6548
 1850SOL     OW 5914   1.898   4.329   5.228 -0.0261  0.0873 -0.2294
 1850SOL    HW1 5915   1.984   4.361   5.252 -0.7072  1.8796 -0.0282
 1850SOL    HW2 5916   1.910   4.291   5.141  1.1095 -0.4464  0.1398
 1851SOL     OW 5917   0.362   3.049   6.481 -0.2729  0.0097  0.2253
 1851SOL    HW1 5918   0.379   2.981   6.546 -0.5913 -0.5429 -0.2587
 1851SOL    HW2 5919   0.410   3.021   6.404 -1.1377 -0.1407 -0.2664
 1852SOL     OW 5920   1.278   6.148   0.533 -0.7690 -0.2673 -0.4803
 1852SOL    HW1 5921   1.202   6.131   0.589 -1.2592  0.4798 -0.9063
 1852SOL    HW2 5922   1.326   6.065   0.532 -1.4692 -0.6877 -0.0489
 1853SOL     OW 5923   2.143   6.560   0.742 -0.0190 -0.8015  0.2811
 1853SOL    HW1 5924   2.141   6.534   0.834  0.3561 -2.1103 -0.0606
 1853SOL    HW2 5925   2.224   6.610   0.733 -1.0994  1.2291  1.1030
 1854SOL     OW 5926   1.755   4.990   2.983  0.2057  0.3731  0.3663
 1854SOL    HW1 5927   1.682   4.944   3.025  1.0151 -0.6695  0.6536
 1854SOL    HW2 5928   1.833   4.952   3.022  0.9220  2.3233  0.9719
 1855SOL     OW 5929   5.781   1.520   4.599 -0.0057 -0.0706  0.6820
 1855SOL    HW1 5930   5.864   1.480   4.623  0.4726 -0.2195 -1.1050
 1855SOL    HW2 5931   5.723   1.446   4.582  0.0727  0.0067  0.0555
 1856SOL     OW 5932   3.426   3.665   1.821  0.1000 -0.3578  0.0982
 1856SOL    HW1 5933   3.393   3.726   1.887 -0.8640 -1.4054  0.6280
 1856SOL    HW2 5934   3.413   3.579   1.860 -0.8636 -1.0361 -1.6042
 1857SOL     OW 5935   2.101   0.910   2.812 -0.6055  0.3395 -0.4840
 1857SOL    HW1 5936   2.124   0.940   2.724 -1.0589  1.3451 -0.2695
 1857SOL    HW2 5937   2.111   0.987   2.868 -1.6584  0.0742  0.1059
 1858SOL     OW 5938   4.099   1.832   0.418  0.1096 -0.4744 -0.8504
 1858SOL    HW1 5939   4.069   1.913   0.458 -0.0269 -0.6010 -0.6979
 1858SOL    HW2 5940   4.022   1.775   0.418  0.5442 -1.0783  0.2400
 1859SOL     OW 5941   0.892   1.297   1.140 -0.1701  0.0635  0.8308
 1859SOL    HW1 5942   0.941   1.301   1.222  0.2454  1.8134  0.5311
 1859SOL    HW2 5943   0.883   1.388   1.112  0.2426 -0.5054 -1.3936
 1860SOL     OW 5944   1.763   3.639   3.713 -0.0150 -0.9650 -0.7021
 1860SOL    HW1 5945   1.773   3.544   3.721  0.6841 -0.8530 -0.2510
 1860SOL    HW2 5946   1.669   3.651   3.696 -0.6664 -1.5704  2.0087
 1861SOL     OW 5947   0.182   3.967   6.367  0.3174 -0.7239  0.1240
 1861SOL    HW1 5948   0.272   3.986   6.391  0.9850 -2.7573 -0.5475
 1861SOL    HW2 5949   0.140   3.941   6.449  0.9339 -1.7576  0.1321
 1862SOL     OW 5950   1.415   6.263   5.022 -0.6802  0.4588 -0.0093
 1862SOL    HW1 5951   1.321   6.250   5.008 -0.7797  0.6739  0.4271
 1862SOL    HW2 5952   1.440   6.329   4.957 -0.7368  0.0788 -0.4203
 1863SOL     OW 5953   4.213   0.168   5.871 -0.4781 -0.3447  0.2955
 1863SOL    HW1 5954   4.210   0.129   5.784  0.5466 -0.4497  0.2959
 1863SOL    HW2 5955   4.283   0.234   5.866 -2.5174  1.9347  0.1275
 1864SOL     OW 5956   6.730   1.773   4.324 -0.1238 -0.6404 -0.3001
 1864SOL    HW1 5957   6.696   1.831   4.392 -0.4168 -1.2952  0.1209
 1864SOL    HW2 5958   6.679   1.693   4.333 -0.8037 -0.4325 -1.8831
 1865SOL     OW 5959   2.944   5.860   0.233 -0.1155  0.0580  0.3360
 1865SOL    HW1 5960   2.882   5.812   0.288 -1.7043  1.5930 -0.0524
 1865SOL    HW2 5961   3.024   5.807   0.237 -1.0813 -1.4102  1.7307
 1866SOL     OW 5962   6.444   3.660   0.648  0.0423  0.8195  0.0663
 1866SOL    HW1 5963   6.389   3.738   0.643  0.6619  1.3156  0.9055
 1866SOL    HW2 5964   6.520   3.687   0.699 -0.0038 -0.4795  0.8703
 1867SOL     OW 5965   2.022   2.115   0.466 -0.1142 -0.2882 -0.1808
 1867SOL    HW1 5966   1.949   2.141   0.410 -0.0341 -0.8474 -0.5524
 1867SOL    HW2 5967   2.070   2.051   0.414  0.6195  0.0395  0.0746
 1868SOL     OW 5968   6.195   2.890   4.146  0.2654 -0.5017  0.8828
 1868SOL    HW1 5969   6.258   2.940   4.199 -0.5139 -0.2958  1.6446
 1868SOL    HW2 5970   6.206   2.800   4.175 -0.6261 -0.3001  1.9155
 1869SOL     OW 5971   2.891   4.098   4.806 -0.0734  0.3405  0.5920
 1869SOL    HW1 5972   2.810   4.140   4.835  0.3183  0.6254  1.2826
 1869SOL    HW2 5973   2.917   4.146   4.727 -0.5236  0.3041  0.4210
 1870SOL     OW 5974   4.402   6.533   2.508  0.1381  0.3103 -0.6717
 1870SOL    HW1 5975   4.496   6.548   2.511  0.4940 -1.4959 -1.8109
 1870SOL    HW2 5976   4.391   6.440   2.528 -1.7722  1.2066  3.6548
 1871SOL     OW 5977   5.315   3.455   3.055  0.2379 -0.4272  0.0683
 1871SOL    HW1 5978   5.235   3.442   3.107 -0.0468 -0.2787 -0.3256
 1871SOL    HW2 5979   5.352   3.536   3.091 -0.8382  0.6029 -1.0337
 1872SOL     OW 5980   0.622   0.916   1.248  0.1746 -0.1721  0.1668
 1872SOL    HW1 5981   0.574   0.921   1.331  0.6912  0.4925  0.4289
 1872SOL    HW2 5982   0.615   0.824   1.222  0.9068 -0.6163  1.4746
 1873SOL     OW 5983   1.063   1.295   1.359  0.3270  0.3258 -0.2061
 1873SOL    HW1 5984   1.021   1.217   1.396  0.8120 -0.4341 -1.1978
 1873SOL    HW2 5985   1.155   1.285   1.381  0.9450 -1.0390 -2.9647
 1874SOL     OW 5986   5.728   4.518   5.584 -0.6428 -0.2960 -0.4265
 1874SOL    HW1 5987   5.675   4.465   5.644  1.4205 -0.9062  0.9767
 1874SOL    HW2 5988   5.809   4.535   5.633  1.6243 -1.6655 -3.3465
 1875SOL     OW 5989   5.359   2.765   4.771  0.0582 -0.1266 -0.0473
 1875SOL    HW1 5990   5.284   2.809   4.731 -1.4072 -0.5621  2.0352
 1875SOL    HW2 5991   5.371   2.809   4.855  1.0475 -1.1652  0.3836
 1876SOL     OW 5992   1.976   0.727   4.516  0.5333 -0.1621  0.2006
 1876SOL    HW1 5993   2.031   0.686   4.449 -0.9834 -2.3356  0.1724
 1876SOL    HW2 5994   1.978   0.665   4.590  0.2596  1.0230  1.2367
 1877SOL     OW 5995   1.215   5.254   2.064 -0.3376 -0.5181  0.6392
 1877SOL    HW1 5996   1.166   5.336   2.053  4.2178  2.5142 -0.0163
 1877SOL    HW2 5997   1.282   5.275   2.129  1.3628 -3.6001  0.0850
 1878SOL     OW 5998   1.900   1.423   0.901 -0.1927 -0.4895 -0.2915
 1878SOL    HW1 5999   1.834   1.418   0.832 -2.3184 -0.9268  1.6354
 1878SOL    HW2 6000   1.951   1.501   0.880 -0.0507 -1.1900 -2.8770
 1879SOL     OW 6001   0.735   2.112   0.737  0.3713  0.3698  0.4150
 1879SOL    HW1 6002   0.684   2.041   0.775 -0.9224  1.7311  1.3525
 1879SOL    HW2 6003   0.779   2.072   0.662 -0.1269 -1.4492  1.0354
 1880SOL     OW 6004   1.813   0.586   0.080 -0.5726  0.2677 -0.2866
 1880SOL    HW1 6005   1.892   0.531   0.075 -1.3957 -0.9046 -0.8129
 1880SOL    HW2 6006   1.831   0.646   0.153  0.6332 -0.2513 -0.1246
 1881SOL     OW 6007   3.786   3.672   1.437  0.5597 -0.2606  0.5523
 1881SOL    HW1 6008   3.853   3.649   1.372  0.2377 -0.2453  0.2100
 1881SOL    HW2 6009   3.751   3.588   1.466 -0.6633 -0.2277 -0.7476
 1882SOL     OW 6010   5.543   6.775   1.856 -0.7909 -0.0858  0.8049
 1882SOL    HW1 6011   5.504   6.788   1.770 -1.0599  0.4990  1.0030
 1882SOL    HW2 6012   5.598   6.698   1.847  0.0034  0.5809 -0.1683
 1883SOL     OW 6013   0.942   4.157   4.983  0.3093  0.0509 -0.4167
 1883SOL    HW1 6014   0.999   4.187   4.912 -0.1159  1.0386 -0.3554
 1883SOL    HW2 6015   0.890   4.234   5.006 -0.7588 -0.7153 -0.1840
 1884SOL     OW 6016   2.346   1.899   5.604 -0.1580 -0.1715 -0.2085
 1884SOL    HW1 6017   2.429   1.873   5.564 -0.3463 -0.8130 -0.1943
 1884SOL    HW2 6018   2.362   1.893   5.698  0.2825  1.3301 -0.1557
 1885SOL     OW 6019   5.430   1.872   3.247 -0.1546  0.4037 -0.5664
 1885SOL    HW1 6020   5.396   1.855   3.159 -0.0496 -1.2189 -0.3195
 1885SOL    HW2 6021   5.386   1.952   3.275 -3.0028 -0.9894 -0.6928
 1886SOL     OW 6022   3.313   3.696   5.153  0.0346  0.0503 -0.1721
 1886SOL    HW1 6023   3.363   3.771   5.123 -3.0501  1.8547 -1.2759
 1886SOL    HW2 6024   3.345   3.622   5.101  2.3358  0.7890  0.1098
 1887SOL     OW 6025   1.031   6.558   5.623 -0.2051  0.7631  0.0825
 1887SOL    HW1 6026   0.986   6.581   5.704 -0.4193 -1.6760  0.7396
 1887SOL    HW2 6027   0.983   6.481   5.590 -0.4683  1.9830 -2.6668
 1888SOL     OW 6028   3.766   5.718   0.672  0.4079 -0.2194 -0.3010
 1888SOL    HW1 6029   3.840   5.694   0.616 -1.1132 -2.4259 -1.5409
 1888SOL    HW2 6030   3.794   5.694   0.760  1.1853 -1.0357 -0.7535
 1889SOL     OW 6031   4.696   2.495   1.658 -0.2381  0.3825  0.1468
 1889SOL    HW1 6032   4.607   2.507   1.627 -0.4622  0.8140  0.9349
 1889SOL    HW2 6033   4.719   2.578   1.700  0.0861 -0.1298  1.0269
 1890SOL     OW 6034   0.862   4.736   5.976 -0.3434 -0.1716 -0.2595
 1890SOL    HW1 6035   0.902   4.786   5.905 -0.2154 -0.0588 -0.1071
 1890SOL    HW2 6036   0.918   4.658   5.985 -0.3881 -0.2102 -0.3153
 1891SOL     OW 6037   6.744   3.898   2.669  0.3324  0.0260 -0.2919
 1891SOL    HW1 6038   6.809   3.951   2.623  0.0239 -1.1103 -2.1320
 1891SOL    HW2 6039   6.782   3.810   2.671  1.6339  0.4162  4.2158
 1892SOL     OW 6040   1.683   1.420   3.259 -0.2635 -0.1710  1.1377
 1892SOL    HW1 6041   1.736   1.357   3.309  0.9862  0.9643  1.3058
 1892SOL    HW2 6042   1.698   1.504   3.303 -0.9283  0.4575  0.1985
 1893SOL     OW 6043   3.071   4.845   0.514 -0.3481 -1.0602  0.5346
 1893SOL    HW1 6044   3.116   4.762   0.528  0.4266 -0.7871 -0.2707
 1893SOL    HW2 6045   3.034   4.838   0.426 -0.7214 -0.7516  0.6645
 1894SOL     OW 6046   1.930   5.967   2.899  0.1900 -0.2928  0.0979
 1894SOL    HW1 6047   1.920   5.877   2.929 -0.5400  0.4092  2.1377
 1894SOL    HW2 6048   2.023   5.978   2.884  0.4633 -1.0241  1.1493
 1895SOL     OW 6049   3.120   4.083   0.954  0.1640  0.2144 -0.0770
 1895SOL    HW1 6050   3.192   4.105   0.895  0.4445  0.0424  0.1979
 1895SOL    HW2 6051   3.048   4.059   0.896  0.3130  0.4401 -0.3544
 1896SOL     OW 6052   1.404   5.005   3.018  0.1490  0.0544 -0.0249
 1896SOL    HW1 6053   1.415   4.926   2.966 -0.3884 -0.9309  1.3038
 1896SOL    HW2 6054   1.459   4.992   3.095  0.7270  1.3665 -0.1767
 1897SOL     OW 6055   2.513   5.925   5.654  0.2694 -0.7464 -0.1400
 1897SOL    HW1 6056   2.480   5.896   5.569 -1.5917 -0.2927  0.3956
 1897SOL    HW2 6057   2.542   5.844   5.696  0.7568 -1.0365 -1.0046
 1898SOL     OW 6058   1.810   2.207   3.451  0.0198 -0.3575 -0.1466
 1898SOL    HW1 6059   1.894   2.247   3.474 -0.0649 -0.9162  1.1804
 1898SOL    HW2 6060   1.807   2.212   3.355 -0.0280  2.8600 -0.0789
 1899SOL     OW 6061   4.332   1.327   6.068 -0.4918 -0.0665  0.3585
 1899SOL    HW1 6062   4.366   1.415   6.087  0.7367 -0.4495  0.0455
 1899SOL    HW2 6063   4.355   1.276   6.146 -0.6412 -0.2500  0.2813
 1900SOL     OW 6064   6.679   4.714   1.276 -0.1781  0.1100  0.2671
 1900SOL    HW1 6065   6.653   4.769   1.202  1.3892  0.0550 -0.3793
 1900SOL    HW2 6066   6.758   4.756   1.310  0.4589 -1.1595  0.4231
 1901SOL     OW 6067   5.660   3.216   6.147 -0.5781 -0.0107  0.0256
 1901SOL    HW1 6068   5.652   3.239   6.239 -0.9925 -0.8493  0.2045
 1901SOL    HW2 6069   5.655   3.299   6.101 -0.3308  0.4178  0.7592
 1902SOL     OW 6070   0.878   0.209   5.351 -0.3497 -0.1171  0.1682
 1902SOL    HW1 6071   0.900   0.129   5.399  0.0155  0.3909  0.8740
 1902SOL    HW2 6072   0.784   0.220   5.363 -0.2135  0.1802  1.0722
 1903SOL     OW 6073   0.145   0.915   4.221 -0.5575  0.2832 -0.1547
 1903SOL    HW1 6074   0.066   0.905   4.274 -1.1861  0.4126 -1.0278
 1903SOL    HW2 6075   0.115   0.899   4.131  0.8865 -2.0521 -0.2966
 1904SOL     OW 6076   0.434   5.869   6.708  0.0282 -0.4395 -0.0265
 1904SOL    HW1 6077   0.499   5.922   6.753  0.1967 -1.6383  1.2198
 1904SOL    HW2 6078   0.484   5.820   6.643 -0.0871  0.6917 -0.9894
 1905SOL     OW 6079   1.290   3.629   0.621  0.0901 -0.3148  0.4293
 1905SOL    HW1 6080   1.223   3.689   0.588  1.7354  0.5063 -1.6589
 1905SOL    HW2 6081   1.339   3.603   0.543  2.7505 -0.1696  1.9324
 1906SOL     OW 6082   6.618   6.749   0.264  0.0152  0.6652 -0.1519
 1906SOL    HW1 6083   6.565   6.737   0.185  1.6032  0.8658 -1.3092
 1906SOL    HW2 6084   6.657   6.835   0.254 -0.2443  0.9646  1.1969
 1907SOL     OW 6085   1.823   1.663   2.030  0.3375  0.2353 -0.4880
 1907SOL    HW1 6086   1.759   1.733   2.039 -0.1225 -0.2625  0.1505
 1907SOL    HW2 6087   1.775   1.591   1.989  0.3736 -0.2773  0.3517
 1908SOL     OW 6088   0.082   2.048   5.857 -0.0086 -0.1718  0.0230
 1908SOL    HW1 6089   0.157   2.035   5.799 -0.3050  0.2144 -0.4533
 1908SOL    HW2 6090   0.120   2.078   5.940  0.4040 -0.5911 -0.0098
 1909SOL     OW 6091   6.370   4.744   3.588  0.4805  0.2342 -0.4709
 1909SOL    HW1 6092   6.353   4.651   3.574  1.5455 -0.0352 -0.0904
 1909SOL    HW2 6093   6.383   4.780   3.500  1.2763 -0.2332 -0.5537
 1910SOL     OW 6094   3.989   5.017   0.358  0.8701 -0.1623 -0.4327
 1910SOL    HW1 6095   3.991   5.113   0.364  1.3596 -0.1520 -0.7693
 1910SOL    HW2 6096   4.058   4.995   0.296  0.1750 -0.6842 -1.0394
 1911SOL     OW 6097   4.983   0.045   3.322  0.4516  0.4244  0.1251
 1911SOL    HW1 6098   5.017  -0.026   3.268 -1.6548 -1.0036  0.5616
 1911SOL    HW2 6099   5.048   0.115   3.313  2.3193 -1.3180 -0.7717
 1912SOL     OW 6100   2.146   3.637   0.780 -0.0792 -0.2293 -0.1474
 1912SOL    HW1 6101   2.161   3.707   0.716  0.3239 -0.6515 -0.5217
 1912SOL    HW2 6102   2.199   3.662   0.856  0.9059 -0.6459 -0.6731
 1913SOL     OW 6103   3.508   1.009   3.309 -0.2003 -0.3876 -0.0554
 1913SOL    HW1 6104   3.579   1.070   3.289 -0.2586  0.2034  1.3680
 1913SOL    HW2 6105   3.510   0.945   3.238  0.1210  1.0350 -1.3864
 1914SOL     OW 6106   0.494   6.217   6.170 -0.3891  0.1329 -0.3849
 1914SOL    HW1 6107   0.542   6.134   6.168  1.4653  1.1403 -0.0569
 1914SOL    HW2 6108   0.560   6.282   6.195 -1.6324  1.8225 -1.3038
 1915SOL     OW 6109   4.327   4.031   5.395 -0.1775  0.0049  0.0473
 1915SOL    HW1 6110   4.402   3.998   5.345 -1.1879 -0.8293 -0.9887
 1915SOL    HW2 6111   4.333   4.126   5.387  0.3413 -0.0775 -0.6759
 1916SOL     OW 6112   3.875   3.612   0.030  0.0557  0.1495  0.4496
 1916SOL    HW1 6113   3.787   3.576   0.019  0.5637 -1.4344  1.1299
 1916SOL    HW2 6114   3.862   3.702   0.057 -1.3415  0.1200 -0.0775
 1917SOL     OW 6115   3.497   3.418   3.884 -0.0439  0.4471 -0.4069
 1917SOL    HW1 6116   3.582   3.447   3.919 -0.5965  1.1398  0.4054
 1917SOL    HW2 6117   3.435   3.483   3.917 -0.7948  0.3372 -1.5692
 1918SOL     OW 6118   6.619   0.502   0.938  0.2020 -0.2930 -0.9106
 1918SOL    HW1 6119   6.682   0.573   0.947 -0.7150  0.4313  0.1306
 1918SOL    HW2 6120   6.670   0.422   0.948  0.6573  0.2748  2.9951
 1919SOL     OW 6121   5.032   1.708   6.460  0.0998  0.7591 -0.1298
 1919SOL    HW1 6122   5.109   1.696   6.404  0.0431 -1.5549  0.1706
 1919SOL    HW2 6123   5.067   1.746   6.541  1.2897 -1.7438  0.6324
 1920SOL     OW 6124   2.205   1.942   0.324 -0.3110  0.3095 -0.1067
 1920SOL    HW1 6125   2.234   1.854   0.350  2.0185  1.1090  0.2613
 1920SOL    HW2 6126   2.144   1.927   0.251 -1.2171 -1.6467  0.9689
 1921SOL     OW 6127   6.521   4.717   6.600  0.3831  0.7477  0.3159
 1921SOL    HW1 6128   6.462   4.790   6.578  0.3862  0.3144 -1.2485
 1921SOL    HW2 6129   6.464   4.653   6.643 -0.2282  0.5226 -0.7864
 1922SOL     OW 6130   1.435   5.249   1.828 -0.0855 -0.1999 -0.0639
 1922SOL    HW1 6131   1.413   5.177   1.887  1.6755 -0.3389  0.4896
 1922SOL    HW2 6132   1.511   5.290   1.868 -0.3050  1.2147 -1.0154
 1923SOL     OW 6133   4.779   2.749   6.302  0.6813  0.1273 -0.4298
 1923SOL    HW1 6134   4.728   2.700   6.238  0.9720 -1.7727  0.7059
 1923SOL    HW2 6135   4.779   2.693   6.380 -0.4059  2.6913  1.5768
 1924SOL     OW 6136   5.756   5.585   2.690  0.0001 -0.1772 -0.3035
 1924SOL    HW1 6137   5.831   5.642   2.674  0.3836 -0.5619  0.1073
 1924SOL    HW2 6138   5.687   5.621   2.634  0.0407  1.0650  0.3998
 1925SOL     OW 6139   6.510   3.516   0.077 -0.4359 -0.0253 -0.8067
 1925SOL    HW1 6140   6.521   3.422   0.069  0.6509  0.1798 -1.9422
 1925SOL    HW2 6141   6.416   3.528   0.094 -0.2487 -1.4026  1.5147
 1926SOL     OW 6142   5.223   2.285   4.873 -0.2458  0.0197 -0.0828
 1926SOL    HW1 6143   5.260   2.356   4.820  0.6953  0.9616  1.7463
 1926SOL    HW2 6144   5.291   2.218   4.874 -0.0486  0.2200  0.3226
 1927SOL     OW 6145   2.425   0.622   2.810  0.1453  0.3108 -0.4829
 1927SOL    HW1 6146   2.476   0.567   2.751  0.8978 -0.4153  0.7934
 1927SOL    HW2 6147   2.348   0.647   2.759 -0.3242 -2.0761 -1.0898
 1928SOL     OW 6148   0.224   4.293   1.838  0.5747  0.9388  0.0605
 1928SOL    HW1 6149   0.223   4.290   1.933 -1.3703  1.6272  0.1038
 1928SOL    HW2 6150   0.170   4.368   1.815  1.2702  0.9845 -1.6000
 1929SOL     OW 6151   4.887   0.987   3.480 -0.0799 -0.6377  0.5784
 1929SOL    HW1 6152   4.940   0.963   3.556  1.9237  0.7926 -0.3056
 1929SOL    HW2 6153   4.896   0.914   3.420 -1.6529 -1.7665  1.6222
 1930SOL     OW 6154   3.551   5.933   1.636 -0.2552 -0.3771  0.2877
 1930SOL    HW1 6155   3.561   5.933   1.541  2.2292  2.2248  0.4220
 1930SOL    HW2 6156   3.601   5.857   1.666 -1.1345 -1.2679 -0.4414
 1931SOL     OW 6157   4.306   3.882   1.029 -0.7112 -0.0420  0.2306
 1931SOL    HW1 6158   4.271   3.793   1.036 -0.7099 -0.2413 -1.6098
 1931SOL    HW2 6159   4.387   3.880   1.080 -2.3314 -0.1027  2.9921
 1932SOL     OW 6160   0.569   4.572   2.476 -0.2730 -0.3311  0.0048
 1932SOL    HW1 6161   0.482   4.604   2.498  0.3637  0.3635  1.6723
 1932SOL    HW2 6162   0.601   4.532   2.557  0.3927 -1.9321 -1.0004
 1933SOL     OW 6163   4.731   6.286   6.118  0.1706  0.0258  0.1568
 1933SOL    HW1 6164   4.725   6.238   6.036 -0.6205 -0.3154  0.4034
 1933SOL    HW2 6165   4.718   6.219   6.186 -0.9781  0.5763  0.5048
 1934SOL     OW 6166   0.346   1.560   1.644 -0.0498 -0.0433 -0.5905
 1934SOL    HW1 6167   0.317   1.638   1.691  0.6380  0.0175 -0.2711
 1934SOL    HW2 6168   0.433   1.582   1.611 -0.6801  0.0850 -2.2722
 1935SOL     OW 6169   6.066   4.127   2.299 -0.1234  0.3098  0.2221
 1935SOL    HW1 6170   6.036   4.160   2.215  0.4661  1.3460  0.3945
 1935SOL    HW2 6171   6.085   4.034   2.284  1.0081  0.7213 -1.0913
 1936SOL     OW 6172   0.374   5.178   5.231  0.0107  0.2545 -0.3120
 1936SOL    HW1 6173   0.329   5.242   5.175 -1.2687 -1.2637 -1.0902
 1936SOL    HW2 6174   0.404   5.110   5.172  1.7316  0.2843  0.4592
 1937SOL     OW 6175   6.370   0.567   0.991 -0.2845 -0.2297 -0.0712
 1937SOL    HW1 6176   6.463   0.553   0.973 -0.0589  1.0105  0.0764
 1937SOL    HW2 6177   6.336   0.608   0.912 -0.6276 -0.3275  0.0261
 1938SOL     OW 6178   3.884   4.950   6.055  0.4262  0.2350  0.8045
 1938SOL    HW1 6179   3.917   5.040   6.062 -0.9884  0.6658  2.5888
 1938SOL    HW2 6180   3.790   4.957   6.072 -0.1531 -1.3228 -1.2831
 1939SOL     OW 6181   0.956   0.239   1.629 -0.0800  0.7737 -0.0108
 1939SOL    HW1 6182   0.876   0.280   1.662 -0.7972  1.1595 -2.0400
 1939SOL    HW2 6183   0.929   0.198   1.547  1.3358 -1.0794  0.3858
 1940SOL     OW 6184   5.945   1.815   3.465  0.3093  0.4375 -0.2519
 1940SOL    HW1 6185   6.024   1.862   3.494  0.7040 -0.0016 -0.6078
 1940SOL    HW2 6186   5.910   1.868   3.394 -2.9250  3.7925  3.3199
 1941SOL     OW 6187   3.893   1.882   6.706  0.0553  0.2216 -0.1512
 1941SOL    HW1 6188   3.935   1.946   6.764 -2.2132 -0.1965  2.1276
 1941SOL    HW2 6189   3.897   1.799   6.754 -1.1420 -0.3216 -0.9304
 1942SOL     OW 6190   4.101   1.502   6.203  0.6656  0.6737 -0.0620
 1942SOL    HW1 6191   4.175   1.531   6.150  1.2525 -0.3326  0.1647
 1942SOL    HW2 6192   4.039   1.465   6.140 -0.3428  2.8405 -0.4126
 1943SOL     OW 6193   6.170   3.405   5.543 -0.0060  0.1269  0.0085
 1943SOL    HW1 6194   6.223   3.340   5.497  0.4953  0.6440 -0.1569
 1943SOL    HW2 6195   6.223   3.485   5.540 -1.5559  1.1542 -1.7259
 1944SOL     OW 6196   5.195   0.727   4.556  0.1742 -0.6992  0.8080
 1944SOL    HW1 6197   5.110   0.716   4.514  0.8822 -0.1829 -0.8666
 1944SOL    HW2 6198   5.223   0.639   4.578 -0.7875 -0.8720  1.3989
 1945SOL     OW 6199   1.946   4.725   2.096 -0.9280 -0.6237 -0.1837
 1945SOL    HW1 6200   1.921   4.707   2.186  0.3918 -1.4409  0.0524
 1945SOL    HW2 6201   1.982   4.642   2.064  0.2906  0.1239 -0.8536
 1946SOL     OW 6202   1.931   1.638   3.004  0.1532  0.2277 -0.4310
 1946SOL    HW1 6203   1.897   1.722   2.974 -0.5733  0.7594  1.6829
 1946SOL    HW2 6204   1.858   1.577   2.992  0.0575  0.3139 -0.2924
 1947SOL     OW 6205   4.684   0.687   6.101  0.5553 -0.7249  0.0136
 1947SOL    HW1 6206   4.733   0.720   6.027  2.8171  0.2294  1.8085
 1947SOL    HW2 6207   4.750   0.646   6.158 -1.3404 -3.2260  0.6180
 1948SOL     OW 6208   5.236   5.725   2.029  0.1389  0.6491  0.2430
 1948SOL    HW1 6209   5.292   5.695   1.957  0.0628  0.7078  0.1598
 1948SOL    HW2 6210   5.155   5.751   1.987 -1.1402 -2.3073  0.6211
 1949SOL     OW 6211   2.195   6.374   6.245  0.2132  0.1629  0.5075
 1949SOL    HW1 6212   2.151   6.307   6.192  0.6378  0.0809  0.2514
 1949SOL    HW2 6213   2.286   6.372   6.215  0.1196  1.2224  0.1389
 1950SOL     OW 6214   5.019   2.271   1.111  0.3902 -0.0770  0.1671
 1950SOL    HW1 6215   4.933   2.281   1.069  1.8649  2.6641 -2.5807
 1950SOL    HW2 6216   5.020   2.338   1.180  0.3018 -0.1933  0.2828
 1951SOL     OW 6217   3.058   3.765   5.279 -0.1556 -0.0762  0.6268
 1951SOL    HW1 6218   3.069   3.859   5.294 -0.3044 -0.1056  0.9494
 1951SOL    HW2 6219   3.133   3.739   5.226 -0.2060  0.2581  0.3950
 1952SOL     OW 6220   1.695   2.471   2.390 -0.5531 -0.0929  0.0067
 1952SOL    HW1 6221   1.675   2.564   2.379 -1.6243 -0.4913 -1.8379
 1952SOL    HW2 6222   1.620   2.436   2.438  0.9492  0.3570  2.9172
 1953SOL     OW 6223   3.414   5.877   1.131 -0.1314  0.4052 -0.4247
 1953SOL    HW1 6224   3.461   5.794   1.132  1.1396  1.0613  2.1787
 1953SOL    HW2 6225   3.464   5.932   1.070  0.0684 -0.1554 -0.7785
 1954SOL     OW 6226   1.759   0.583   4.326 -0.2055  0.4304  0.0965
 1954SOL    HW1 6227   1.688   0.537   4.370 -0.3239  0.7719  0.2652
 1954SOL    HW2 6228   1.750   0.674   4.354 -0.2379  0.6421 -0.5805
 1955SOL     OW 6229   6.076   0.738   0.540  0.1346  0.2487 -0.4168
 1955SOL    HW1 6230   5.991   0.694   0.550 -0.2239  0.0879 -3.1842
 1955SOL    HW2 6231   6.139   0.666   0.532  0.2504  0.3285 -0.2215
 1956SOL     OW 6232   0.872   2.180   6.521 -0.7172 -0.2895  0.7187
 1956SOL    HW1 6233   0.779   2.170   6.501 -0.5778  1.8967 -1.4626
 1956SOL    HW2 6234   0.874   2.225   6.606 -1.6010 -0.7791  1.0130
 1957SOL     OW 6235   1.280   4.195   0.401 -0.4995  0.2378  0.1275
 1957SOL    HW1 6236   1.340   4.268   0.411  0.8645 -0.9451  1.0232
 1957SOL    HW2 6237   1.309   4.131   0.466 -1.8511 -0.9623 -0.3901
 1958SOL     OW 6238   1.616   3.592   1.079  0.0402 -0.0109  0.6358
 1958SOL    HW1 6239   1.560   3.527   1.038  0.4725 -0.8627  1.3755
 1958SOL    HW2 6240   1.694   3.596   1.023 -0.2588  0.3481  0.2385
 1959SOL     OW 6241   4.992   1.197   6.586  0.3232  0.0586 -0.0379
 1959SOL    HW1 6242   5.025   1.114   6.551  0.0474  0.1664 -0.5817
 1959SOL    HW2 6243   5.070   1.250   6.601  0.4390  0.1625 -0.9175
 1960SOL     OW 6244   3.791   0.873   3.166  0.2352  0.4926  0.8049
 1960SOL    HW1 6245   3.834   0.942   3.115  1.3146 -1.7814 -1.6071
 1960SOL    HW2 6246   3.713   0.850   3.115  0.0373 -0.2373  1.4175
 1961SOL     OW 6247   3.450   1.741   6.736  0.6526 -0.1215 -0.1618
 1961SOL    HW1 6248   3.457   1.797   6.814 -0.6527  1.3251 -1.0146
 1961SOL    HW2 6249   3.528   1.761   6.685  1.1099 -0.4684  0.3916
 1962SOL     OW 6250   4.198   1.544   2.857  0.5655 -0.4732 -0.0246
 1962SOL    HW1 6251   4.198   1.576   2.767 -0.6300 -1.3349 -0.3629
 1962SOL    HW2 6252   4.283   1.570   2.892  1.3214 -0.6803 -1.6114
 1963SOL     OW 6253   4.170   3.512   3.284  0.4466 -0.5662  0.2437
 1963SOL    HW1 6254   4.178   3.423   3.317 -0.5974 -1.4424 -1.7149
 1963SOL    HW2 6255   4.171   3.503   3.189  0.3511  1.5272 -0.0061
 1964SOL     OW 6256   3.686   0.100   6.151  0.8636 -0.1190  0.0996
 1964SOL    HW1 6257   3.713   0.107   6.059  3.1421 -0.7854  0.6520
 1964SOL    HW2 6258   3.659   0.189   6.175  2.4032  0.5733 -0.6058
 1965SOL     OW 6259   4.192   5.038   0.172  0.2668  0.6378  0.2237
 1965SOL    HW1 6260   4.236   5.118   0.142 -1.1932  0.9645 -1.1500
 1965SOL    HW2 6261   4.247   5.007   0.244  2.5300  1.2151 -1.1543
 1966SOL     OW 6262   1.702   3.940   1.640  0.1287  0.3913  0.8843
 1966SOL    HW1 6263   1.676   3.945   1.732 -1.4699  1.5486  0.4207
 1966SOL    HW2 6264   1.757   4.017   1.627  0.4941  0.1347  0.9085
 1967SOL     OW 6265   6.155   5.925   3.662 -0.4922  0.2017 -0.1717
 1967SOL    HW1 6266   6.188   5.905   3.575 -0.8755  0.8934 -0.4772
 1967SOL    HW2 6267   6.068   5.885   3.664 -0.0585 -0.7561  0.2848
 1968SOL     OW 6268   6.419   4.555   2.920 -0.1464  0.1823  0.2565
 1968SOL    HW1 6269   6.343   4.520   2.967 -0.7225  0.1495 -0.6679
 1968SOL    HW2 6270   6.382   4.598   2.844  0.7191  0.9148  0.2350
 1969SOL     OW 6271   4.738   0.390   4.766  0.3758  0.2768  0.7497
 1969SOL    HW1 6272   4.659   0.443   4.768 -0.6263 -1.1285  0.1629
 1969SOL    HW2 6273   4.719   0.321   4.703  1.0974 -1.6037  2.4891
 1970SOL     OW 6274   5.709   3.483   4.104 -0.3024  0.4004 -0.2454
 1970SOL    HW1 6275   5.789   3.527   4.130 -0.0536  0.2263 -0.7051
 1970SOL    HW2 6276   5.698   3.507   4.012 -0.0876 -0.6127 -0.5389
 1971SOL     OW 6277   3.943   3.480   3.640  0.4571 -0.6671 -0.2697
 1971SOL    HW1 6278   4.026   3.525   3.631  0.2095 -0.1957 -0.1945
 1971SOL    HW2 6279   3.888   3.539   3.691  0.2406 -1.1961  0.1241
 1972SOL     OW 6280   0.133   6.420   1.322  0.0047 -0.4026 -0.4112
 1972SOL    HW1 6281   0.087   6.479   1.262 -0.2562  0.4389  0.5885
 1972SOL    HW2 6282   0.076   6.343   1.328 -0.4735 -0.0579 -0.4590
 1973SOL     OW 6283   2.216   0.965   3.385 -0.2327  0.3079  0.3714
 1973SOL    HW1 6284   2.133   1.000   3.417 -1.0686 -1.2257 -0.0326
 1973SOL    HW2 6285   2.245   0.905   3.454 -0.5977 -0.8388 -0.4429
 1974SOL     OW 6286   0.668   1.379   0.674 -0.1811 -0.2321 -0.2988
 1974SOL    HW1 6287   0.698   1.317   0.740  1.1858  1.7138  1.0432
 1974SOL    HW2 6288   0.728   1.368   0.601 -0.7920 -1.3827 -0.6503
 1975SOL     OW 6289   4.764   2.388   2.520  0.1040 -0.2011 -0.0167
 1975SOL    HW1 6290   4.845   2.439   2.529  1.1034 -1.2628 -2.1366
 1975SOL    HW2 6291   4.787   2.302   2.555 -0.3694 -0.2838  0.0937
 1976SOL     OW 6292   4.894   2.636   3.595 -0.1133 -0.6782  0.6972
 1976SOL    HW1 6293   4.952   2.702   3.633  0.0180  0.0431 -0.6900
 1976SOL    HW2 6294   4.900   2.561   3.654  0.8045  0.0571  1.5579
 1977SOL     OW 6295   1.436   1.355   3.259  0.5373 -0.1681 -0.3200
 1977SOL    HW1 6296   1.530   1.370   3.253  0.6653 -0.4309  0.9299
 1977SOL    HW2 6297   1.400   1.440   3.284  0.4622 -0.1279 -0.5598
 1978SOL     OW 6298   2.691   2.648   0.728 -0.7749 -0.1735  0.0282
 1978SOL    HW1 6299   2.617   2.622   0.783  0.0699 -1.5311  0.5615
 1978SOL    HW2 6300   2.769   2.625   0.780  0.0907 -2.4280 -2.1095
 1979SOL     OW 6301   3.961   6.145   6.362  0.1403  0.1820  0.1262
 1979SOL    HW1 6302   3.872   6.180   6.365  0.3977  1.1903 -1.8818
 1979SOL    HW2 6303   4.015   6.216   6.397  0.2204 -0.2117  0.8164
 1980SOL     OW 6304   3.605   0.515   4.299 -0.0950  0.2436  0.2477
 1980SOL    HW1 6305   3.524   0.491   4.254  0.0134 -0.8733  0.6226
 1980SOL    HW2 6306   3.589   0.494   4.391  1.1078 -1.3902  0.1261
 1981SOL     OW 6307   5.038   5.349   1.060  0.0933 -0.0538 -0.1777
 1981SOL    HW1 6308   5.069   5.413   0.995 -0.3998 -1.2675 -1.6875
 1981SOL    HW2 6309   5.118   5.310   1.094  0.3492 -0.3356 -1.0632
 1982SOL     OW 6310   4.771   3.139   0.846 -0.1075  0.1937  0.2248
 1982SOL    HW1 6311   4.769   3.235   0.840  0.2003  0.1523 -0.7946
 1982SOL    HW2 6312   4.807   3.121   0.933 -1.1472  0.9949  0.8384
 1983SOL     OW 6313   4.658   1.549   1.681 -0.2543  0.1738  0.1742
 1983SOL    HW1 6314   4.577   1.501   1.695 -0.0565  0.2237  1.6519
 1983SOL    HW2 6315   4.694   1.513   1.600 -1.1802 -0.6383  0.1104
 1984SOL     OW 6316   0.843   6.770   0.332 -0.1830 -0.0994  0.2881
 1984SOL    HW1 6317   0.786   6.846   0.318  0.8711  0.4742 -1.1574
 1984SOL    HW2 6318   0.784   6.700   0.357 -1.2528  1.0684  1.1941
 1985SOL     OW 6319   3.544   1.553   5.076 -0.0545 -0.1261  0.9546
 1985SOL    HW1 6320   3.635   1.553   5.045 -0.1194  1.0590  0.7423
 1985SOL    HW2 6321   3.547   1.603   5.158 -0.5540  0.1145  0.8277
 1986SOL     OW 6322   3.164   2.294   3.679  0.0607 -0.2321 -0.0152
 1986SOL    HW1 6323   3.238   2.295   3.740 -1.1319  2.4862  1.5778
 1986SOL    HW2 6324   3.186   2.362   3.615  0.2792 -1.5392 -1.3763
 1987SOL     OW 6325   3.371   3.394   5.196 -0.1142 -0.2040 -0.0810
 1987SOL    HW1 6326   3.412   3.342   5.265  0.9356  0.1388 -0.4149
 1987SOL    HW2 6327   3.318   3.459   5.243 -1.6211 -1.6771  0.3307
 1988SOL     OW 6328   2.978   0.998   0.979  0.2753 -0.1830  0.0945
 1988SOL    HW1 6329   2.899   0.945   0.986 -0.2889  0.4733 -1.0450
 1988SOL    HW2 6330   3.008   0.983   0.890  1.8261 -0.9210  0.6999
 1989SOL     OW 6331   1.907   6.074   0.595 -0.1307  0.1251  0.0085
 1989SOL    HW1 6332   1.978   6.068   0.659 -0.7735 -1.6219  0.6152
 1989SOL    HW2 6333   1.840   6.015   0.628 -0.6824 -0.4714 -2.0380
 1990SOL     OW 6334   2.108   4.352   2.412  0.4045 -0.4108 -0.5231
 1990SOL    HW1 6335   2.200   4.331   2.429  0.5180  0.4894  0.0281
 1990SOL    HW2 6336   2.111   4.420   2.344  0.1495 -0.2975 -0.4209
 1991SOL     OW 6337   5.102   1.458   0.366 -0.0957 -0.1887 -0.7329
 1991SOL    HW1 6338   5.179   1.514   0.357  0.5195 -0.7271  0.8920
 1991SOL    HW2 6339   5.121   1.402   0.441 -2.2384 -0.0586 -0.0252
 1992SOL     OW 6340   1.261   0.153   0.302 -0.1830 -0.4124 -0.0977
 1992SOL    HW1 6341   1.254   0.098   0.224  0.6886 -0.4965 -0.1313
 1992SOL    HW2 6342   1.248   0.242   0.270  0.0314 -0.4586 -0.3246
 1993SOL     OW 6343   6.303   6.361   0.264  0.0918  0.5679 -0.4840
 1993SOL    HW1 6344   6.364   6.389   0.197  0.7767 -2.0611 -1.0741
 1993SOL    HW2 6345   6.358   6.327   0.335 -0.6556 -0.4335 -0.3664
 1994SOL     OW 6346   6.219   2.910   2.394 -0.3478  0.2858  0.0392
 1994SOL    HW1 6347   6.167   2.855   2.335 -1.4148  1.9827 -0.6649
 1994SOL    HW2 6348   6.305   2.869   2.394 -1.1407 -1.5216 -0.2630
 1995SOL     OW 6349   6.541   0.149   2.973  0.3322  0.4034 -0.1565
 1995SOL    HW1 6350   6.490   0.079   2.933  1.8215 -0.6274 -0.3364
 1995SOL    HW2 6351   6.490   0.228   2.955 -1.1125 -0.5434 -0.4373
 1996SOL     OW 6352   3.161   4.143   2.024 -0.0716  0.6639 -0.7128
 1996SOL    HW1 6353   3.087   4.157   1.965 -1.2592  2.9610  1.1261
 1996SOL    HW2 6354   3.220   4.216   2.007  2.4070 -1.6642 -2.8410
 1997SOL     OW 6355   2.966   3.088   3.912 -0.1072  0.1628 -0.0728
 1997SOL    HW1 6356   3.002   3.159   3.859 -2.7441  0.6600 -1.3240
 1997SOL    HW2 6357   2.951   3.128   3.998  0.7680  0.3840 -0.0142
 1998SOL     OW 6358   4.879   3.496   0.754 -0.2024  0.1846  0.1101
 1998SOL    HW1 6359   4.861   3.509   0.661  0.0300 -0.4965 -0.0381
 1998SOL    HW2 6360   4.793   3.487   0.794 -0.2787 -1.2308 -0.3104
 1999SOL     OW 6361   4.870   3.134   1.383 -0.0908 -0.0279 -0.7915
 1999SOL    HW1 6362   4.877   3.199   1.453 -2.5816  0.2495 -0.6926
 1999SOL    HW2 6363   4.912   3.056   1.419  0.9790  0.8708 -0.0389
 2000SOL     OW 6364   3.168   5.203   2.868  1.0330  0.4236 -0.0673
 2000SOL    HW1 6365   3.085   5.167   2.838  0.8782  0.1920  0.6328
 2000SOL    HW2 6366   3.197   5.258   2.795 -0.7790  2.2409  0.5170
 2001SOL     OW 6367   1.534   0.470   4.462 -0.3912  0.0337  0.5050
 2001SOL    HW1 6368   1.544   0.396   4.521  0.0525 -0.0121  0.3780
 2001SOL    HW2 6369   1.446   0.459   4.425 -0.5915 -0.0467  1.0005
 2002SOL     OW 6370   2.304   0.867   0.919 -0.5805 -0.0154 -0.4557
 2002SOL    HW1 6371   2.337   0.799   0.860  2.1684  0.9882 -0.1941
 2002SOL    HW2 6372   2.265   0.818   0.992 -0.9126 -1.2604 -1.4197
 2003SOL     OW 6373   1.177   0.874   1.319 -0.4736 -0.8723  0.2337
 2003SOL    HW1 6374   1.209   0.962   1.335 -1.8015 -0.0939 -1.1650
 2003SOL    HW2 6375   1.218   0.821   1.388  1.8861  0.4382 -0.0457
 2004SOL     OW 6376   5.340   5.005   0.143 -0.4987  0.3543  0.2093
 2004SOL    HW1 6377   5.365   5.038   0.057 -0.1840  1.5444  0.7442
 2004SOL    HW2 6378   5.398   4.930   0.158  0.4164  1.0002 -0.0176
 2005SOL     OW 6379   1.156   4.234   4.781 -0.6401  0.2738 -0.0518
 2005SOL    HW1 6380   1.220   4.166   4.760  1.7427  2.2170  0.3848
 2005SOL    HW2 6381   1.090   4.227   4.712  0.0277 -1.8276 -0.5545
 2006SOL     OW 6382   4.560   0.935   4.166 -0.0583 -0.1972  0.3086
 2006SOL    HW1 6383   4.546   1.021   4.127  0.0451 -0.2256  0.2084
 2006SOL    HW2 6384   4.631   0.948   4.228  0.6141 -0.4103 -0.3937
 2007SOL     OW 6385   5.786   3.004   3.753 -0.2739  0.2225  0.4769
 2007SOL    HW1 6386   5.791   3.097   3.775  1.5170  0.3220 -0.2203
 2007SOL    HW2 6387   5.805   2.960   3.836 -0.9914  0.4732  0.7797
 2008SOL     OW 6388   4.308   1.306   3.237  0.4566  0.2803 -0.5968
 2008SOL    HW1 6389   4.333   1.335   3.325  0.5242  0.9556 -0.8271
 2008SOL    HW2 6390   4.384   1.259   3.204  0.4417  0.0508 -0.3008
 2009SOL     OW 6391   0.850   5.725   5.806 -0.5719  0.3750  0.1337
 2009SOL    HW1 6392   0.903   5.678   5.870  1.0111  0.3171 -1.1434
 2009SOL    HW2 6393   0.840   5.812   5.843 -0.5673  0.0468  0.9295
 2010SOL     OW 6394   2.125   0.254   0.766 -0.5543  0.8582 -0.7851
 2010SOL    HW1 6395   2.070   0.323   0.804  2.1741  3.3995 -1.1364
 2010SOL    HW2 6396   2.139   0.282   0.675  2.6446  1.3008 -0.2585
 2011SOL     OW 6397   5.199   0.123   0.557  0.0745  0.0349  0.5527
 2011SOL    HW1 6398   5.257   0.056   0.592 -1.3841 -0.8739  1.3101
 2011SOL    HW2 6399   5.146   0.151   0.632  1.4118  2.9048  0.5416
 2012SOL     OW 6400   0.060   3.870   6.586  0.4018 -0.2304 -0.0778
 2012SOL    HW1 6401  -0.019   3.823   6.559  0.1599  0.7501 -1.1730
 2012SOL    HW2 6402   0.107   3.807   6.641 -0.5176 -1.2855 -0.4414
 2013SOL     OW 6403   1.737   0.333   0.489  0.1559 -0.7412  0.4022
 2013SOL    HW1 6404   1.665   0.271   0.474 -0.7058 -0.2130  2.1073
 2013SOL    HW2 6405   1.811   0.296   0.439 -0.9800 -1.8745 -0.5073
 2014SOL     OW 6406   4.664   3.275   5.628  0.3725  0.2071  1.0170
 2014SOL    HW1 6407   4.645   3.190   5.668  0.9255  0.4325  1.7888
 2014SOL    HW2 6408   4.629   3.339   5.690 -2.1292  0.5690 -0.6245
 2015SOL     OW 6409   2.128   0.107   0.120 -0.1154  0.0075  0.0860
 2015SOL    HW1 6410   2.059   0.174   0.122  1.7843  2.1168  2.2034
 2015SOL    HW2 6411   2.096   0.038   0.178 -1.3630 -0.1143 -0.7210
 2016SOL     OW 6412   5.900   4.190   1.682  0.6185 -0.1608  0.2722
 2016SOL    HW1 6413   5.944   4.261   1.730 -0.1634  0.1907  0.4950
 2016SOL    HW2 6414   5.944   4.187   1.598 -0.5145  1.8690 -0.4735
 2017SOL     OW 6415   6.019   1.452   3.284  0.2055  0.2316 -0.0444
 2017SOL    HW1 6416   6.083   1.428   3.217 -0.5596 -2.1490 -0.0074
 2017SOL    HW2 6417   5.943   1.482   3.234 -0.1277 -0.9213 -0.2537
 2018SOL     OW 6418   3.090   6.254   1.863 -0.3946  0.7540 -0.0613
 2018SOL    HW1 6419   3.087   6.222   1.773 -0.4087  2.5711 -0.7522
 2018SOL    HW2 6420   3.166   6.311   1.866  1.1423 -1.2478  1.8393
 2019SOL     OW 6421   0.813   1.925   1.808 -0.3827  0.4407  0.0140
 2019SOL    HW1 6422   0.883   1.985   1.782 -1.1291  1.3647  0.0990
 2019SOL    HW2 6423   0.734   1.979   1.809 -0.8675 -0.2438  1.3035
 2020SOL     OW 6424   3.062   6.343   4.448 -0.2569  0.1114 -0.3710
 2020SOL    HW1 6425   2.982   6.379   4.410 -0.9468 -2.8198 -1.9811
 2020SOL    HW2 6426   3.032   6.285   4.518  0.4853 -0.4998 -0.5416
 2021SOL     OW 6427   6.265   3.659   5.546  0.0146  0.2002 -0.1195
 2021SOL    HW1 6428   6.346   3.663   5.596  0.8797  1.0291 -1.5068
 2021SOL    HW2 6429   6.235   3.750   5.542 -0.4914  0.0269 -0.3705
 2022SOL     OW 6430   2.231   4.303   3.620 -0.1730  0.1003  0.1737
 2022SOL    HW1 6431   2.218   4.283   3.528 -0.2839 -0.5254  0.3202
 2022SOL    HW2 6432   2.253   4.219   3.660  3.2298  0.8583  0.1538
 2023SOL     OW 6433   2.568   3.321   0.458  0.3264  0.1103  0.4990
 2023SOL    HW1 6434   2.662   3.338   0.470  0.4032  1.6975 -1.7419
 2023SOL    HW2 6435   2.524   3.385   0.514  0.6333  1.6867 -0.9854
 2024SOL     OW 6436   0.737   0.121   4.870 -0.2958  0.6936 -0.0309
 2024SOL    HW1 6437   0.790   0.055   4.915 -1.2920  0.7126  1.2272
 2024SOL    HW2 6438   0.677   0.153   4.937  0.0187  2.7545 -0.6533
 2025SOL     OW 6439   3.810   3.956   1.870  0.2310 -0.5340 -0.1521
 2025SOL    HW1 6440   3.880   3.918   1.818  0.0184 -2.5050  0.9072
 2025SOL    HW2 6441   3.731   3.911   1.840 -0.2157 -0.0983  0.3464
 2026SOL     OW 6442   2.465   2.336   5.426 -0.0565 -0.1756 -0.5436
 2026SOL    HW1 6443   2.456   2.247   5.392 -1.8486 -0.5670  0.8274
 2026SOL    HW2 6444   2.488   2.388   5.349 -2.6008 -1.2504 -2.1874
 2027SOL     OW 6445   2.705   0.285   0.439  0.1875  0.0889  0.0128
 2027SOL    HW1 6446   2.627   0.322   0.481 -1.2785 -2.0384 -0.6565
 2027SOL    HW2 6447   2.694   0.307   0.346 -1.0017 -2.3217 -0.4887
 2028SOL     OW 6448   2.580   3.347   4.271  0.1440  0.1631  0.0695
 2028SOL    HW1 6449   2.583   3.432   4.314  0.8824 -0.2966  0.9679
 2028SOL    HW2 6450   2.493   3.342   4.233 -1.0846  0.0318  2.7032
 2029SOL     OW 6451   4.741   0.173   2.288  0.6980  0.0334  0.1275
 2029SOL    HW1 6452   4.769   0.233   2.358  1.3547  0.2230 -0.2860
 2029SOL    HW2 6453   4.682   0.111   2.332 -0.7174  1.4911  0.3982
 2030SOL     OW 6454   3.928   3.102   1.840  0.2167  0.1663 -0.7316
 2030SOL    HW1 6455   3.991   3.089   1.911  0.5940 -0.2186 -1.1291
 2030SOL    HW2 6456   3.897   3.014   1.819  0.7836  0.1761 -1.6484
 2031SOL     OW 6457   1.045   3.075   1.961  0.4420 -0.6106 -0.7611
 2031SOL    HW1 6458   1.073   3.087   2.052 -2.7509  2.0485  0.0888
 2031SOL    HW2 6459   0.985   3.000   1.965  0.6600 -0.7875 -0.7832
 2032SOL     OW 6460   1.451   2.324   5.029  0.1949  0.0930  0.2647
 2032SOL    HW1 6461   1.535   2.280   5.041  0.6588  1.4837  2.9160
 2032SOL    HW2 6462   1.411   2.280   4.954  3.2243 -0.6687 -1.0241
 2033SOL     OW 6463   2.816   0.450   4.653 -0.2296 -0.2306 -0.6144
 2033SOL    HW1 6464   2.853   0.469   4.567  2.4869  1.1737  0.7220
 2033SOL    HW2 6465   2.811   0.534   4.697  0.4352 -1.1072  1.2820
 2034SOL     OW 6466   4.256   5.514   6.362 -0.1326 -0.0545  0.0162
 2034SOL    HW1 6467   4.327   5.466   6.319  0.2480 -0.4644  1.0575
 2034SOL    HW2 6468   4.208   5.556   6.290  1.3839  0.5461 -0.6958
 2035SOL     OW 6469   3.359   0.034   6.252 -0.1057  0.0317 -0.0464
 2035SOL    HW1 6470   3.350  -0.052   6.294  2.2884 -0.3568 -0.1820
 2035SOL    HW2 6471   3.323   0.096   6.315 -2.1905 -1.0748 -0.0911
 2036SOL     OW 6472   6.047   1.028   2.086  0.1637 -0.5293 -0.3957
 2036SOL    HW1 6473   5.981   0.960   2.077 -1.4205  0.8134  0.5247
 2036SOL    HW2 6474   6.108   0.993   2.151  0.6413 -1.9487 -1.5516
 2037SOL     OW 6475   1.508   5.753   4.324 -0.3299 -0.0414  0.8701
 2037SOL    HW1 6476   1.471   5.683   4.377  0.2666 -0.0057  1.3474
 2037SOL    HW2 6477   1.448   5.761   4.249 -0.1773 -1.3337  0.5885
 2038SOL     OW 6478   2.914   5.142   2.765 -0.5951 -0.0140  0.0576
 2038SOL    HW1 6479   2.831   5.107   2.797 -0.4610 -1.3514 -0.9532
 2038SOL    HW2 6480   2.890   5.200   2.693 -0.6468 -0.7236 -0.5056
 2039SOL     OW 6481   1.865   3.579   0.883 -0.2407 -0.3437 -0.1673
 2039SOL    HW1 6482   1.922   3.513   0.924  0.4251  0.6462  0.5381
 2039SOL    HW2 6483   1.925   3.642   0.845 -0.8650  0.3339 -0.0428
 2040SOL     OW 6484   3.121   4.795   0.028 -0.4990 -0.3151  0.2285
 2040SOL    HW1 6485   3.183   4.856   0.068 -0.4518 -0.4728  0.3962
 2040SOL    HW2 6486   3.151   4.787  -0.063 -0.9364  0.4696  0.0081
 2041SOL     OW 6487   0.127   2.161   6.631 -0.3682  0.3834 -0.0860
 2041SOL    HW1 6488   0.191   2.211   6.580 -2.7565  2.4624 -1.2684
 2041SOL    HW2 6489   0.125   2.205   6.716  0.7066 -0.5595  0.4540
 2042SOL     OW 6490   2.004   1.111   3.519 -0.1533 -0.2074 -0.6704
 2042SOL    HW1 6491   2.078   1.130   3.577  0.3356 -0.0340 -1.3458
 2042SOL    HW2 6492   1.941   1.181   3.537 -0.0291 -0.1824 -0.3161
 2043SOL     OW 6493   2.389   5.647   5.533 -0.2512  0.0025 -0.1633
 2043SOL    HW1 6494   2.358   5.593   5.460  1.1988 -0.1189 -0.7120
 2043SOL    HW2 6495   2.483   5.630   5.537 -0.0250  1.3412  0.6333
 2044SOL     OW 6496   5.817   2.062   1.995 -0.6821  0.0461  0.1848
 2044SOL    HW1 6497   5.912   2.068   2.002 -0.7248  0.3330  0.5779
 2044SOL    HW2 6498   5.797   2.095   1.908 -0.3955 -0.3194 -0.0207
 2045SOL     OW 6499   2.157   1.399   3.805 -0.3544 -0.1707  0.0810
 2045SOL    HW1 6500   2.079   1.360   3.844 -0.4683  1.4867  1.6367
 2045SOL    HW2 6501   2.225   1.390   3.872 -0.2184  1.6347  0.2501
 2046SOL     OW 6502   5.403   2.730   1.059  0.3621  0.1201 -0.3370
 2046SOL    HW1 6503   5.421   2.781   1.137  1.2294  2.0538 -1.7252
 2046SOL    HW2 6504   5.323   2.769   1.022  0.2616 -0.4166 -0.7027
 2047SOL     OW 6505   6.389   2.716   1.322 -0.3215 -0.3184  0.0933
 2047SOL    HW1 6506   6.442   2.678   1.252  0.3746 -0.8800  0.8935
 2047SOL    HW2 6507   6.325   2.771   1.277  0.7973  0.2066 -0.9177
 2048SOL     OW 6508   2.317   6.505   5.508 -0.2093 -0.6354  0.1878
 2048SOL    HW1 6509   2.245   6.538   5.454 -1.4631 -0.8411  1.6751
 2048SOL    HW2 6510   2.289   6.520   5.598  0.3818 -3.2081  0.8862
 2049SOL     OW 6511   5.222   2.951   2.970 -0.5036 -0.0253 -0.5876
 2049SOL    HW1 6512   5.147   2.966   3.027 -0.8734  1.3807 -1.4091
 2049SOL    HW2 6513   5.288   3.014   3.000  0.4462 -1.3279  0.2119
 2050SOL     OW 6514   1.951   0.718   1.730 -0.0828 -0.0004  0.0627
 2050SOL    HW1 6515   1.967   0.787   1.665  3.3775  2.8925  3.5073
 2050SOL    HW2 6516   1.878   0.752   1.782  0.3856  0.1592  0.6212
 2051SOL     OW 6517   2.999   4.490   6.216 -0.2388 -0.4234 -0.4289
 2051SOL    HW1 6518   2.927   4.542   6.250 -1.8897  0.7831 -4.9802
 2051SOL    HW2 6519   3.041   4.453   6.293 -4.1966  0.7763  2.6348
 2052SOL     OW 6520   4.813   5.598   2.506 -0.2732  0.2281 -0.2187
 2052SOL    HW1 6521   4.883   5.534   2.494 -1.3698 -0.7915 -1.5323
 2052SOL    HW2 6522   4.738   5.547   2.538 -1.0491  0.9084 -0.8919
 2053SOL     OW 6523   3.376   2.010   3.684  0.1274  0.4066  0.1846
 2053SOL    HW1 6524   3.372   1.943   3.616 -0.4448 -0.5716  1.1536
 2053SOL    HW2 6525   3.324   2.083   3.649  0.5585  0.2576 -0.7816
 2054SOL     OW 6526   4.701   3.058   5.926  0.2819  0.5077  0.2422
 2054SOL    HW1 6527   4.687   3.045   5.832  0.5176 -0.7242  0.3611
 2054SOL    HW2 6528   4.668   2.978   5.966  2.6740 -0.1859  0.9761
 2055SOL     OW 6529   2.977   1.469   0.241  0.6039  0.0055 -0.5581
 2055SOL    HW1 6530   2.888   1.455   0.274  0.6564  0.7177 -0.0887
 2055SOL    HW2 6531   2.994   1.394   0.186 -0.2325 -0.2255 -0.5166
 2056SOL     OW 6532   2.923   1.571   1.064 -0.2004 -0.3788 -0.3948
 2056SOL    HW1 6533   2.886   1.543   0.980  0.1972 -0.3391 -0.5819
 2056SOL    HW2 6534   2.988   1.504   1.084  0.1707 -0.0305 -0.4391
 2057SOL     OW 6535   6.489   0.606   4.785  0.2366  0.3620 -0.2363
 2057SOL    HW1 6536   6.562   0.588   4.726  0.0103 -1.8997  0.1119
 2057SOL    HW2 6537   6.520   0.576   4.871  0.3371  3.0515  0.7974
 2058SOL     OW 6538   4.357   6.521   1.536 -0.2397  0.0607  0.6008
 2058SOL    HW1 6539   4.271   6.478   1.541 -0.3599  0.3495  1.0683
 2058SOL    HW2 6540   4.371   6.556   1.624  0.3061  0.1197  0.4917
 2059SOL     OW 6541   1.285   2.915   1.423 -0.5340 -0.7327 -0.0618
 2059SOL    HW1 6542   1.329   2.888   1.343 -1.0190 -1.3148 -0.1346
 2059SOL    HW2 6543   1.221   2.846   1.441 -1.6331  0.2281 -0.1173
 2060SOL     OW 6544   3.738   3.632   3.868  0.0365  0.1856  0.5752
 2060SOL    HW1 6545   3.727   3.622   3.962  0.8752  1.4283  0.8279
 2060SOL    HW2 6546   3.794   3.710   3.858  1.2162 -0.7832 -0.8861
 2061SOL     OW 6547   6.304   1.886   2.988  0.2160 -0.2399  0.0583
 2061SOL    HW1 6548   6.379   1.946   2.984 -1.0008  1.2742 -1.9154
 2061SOL    HW2 6549   6.313   1.831   2.910 -1.6716  1.2902 -1.3558
 2062SOL     OW 6550   2.360   0.233   5.003 -0.1434 -0.2804 -0.1529
 2062SOL    HW1 6551   2.283   0.244   5.057  0.2685  2.0037  0.0793
 2062SOL    HW2 6552   2.422   0.185   5.058 -0.8578 -0.7897  0.2100
 2063SOL     OW 6553   0.994   1.119   4.885  0.0486  0.6468  0.2153
 2063SOL    HW1 6554   1.077   1.093   4.926  0.7625  1.4768 -0.6584
 2063SOL    HW2 6555   0.928   1.062   4.926  1.3244 -1.5257 -0.5666
 2064SOL     OW 6556   3.466   4.273   4.561 -0.1741 -0.6180  0.2529
 2064SOL    HW1 6557   3.455   4.259   4.655 -0.6431 -1.8326  0.0305
 2064SOL    HW2 6558   3.399   4.219   4.521  1.7311 -2.2492 -0.8913
 2065SOL     OW 6559   6.685   3.052   5.470  0.6626 -0.0347 -0.3392
 2065SOL    HW1 6560   6.645   3.110   5.405  0.3169  0.2828  0.1547
 2065SOL    HW2 6561   6.746   2.999   5.419 -1.0971 -1.2556 -1.3175
 2066SOL     OW 6562   3.795   1.509   3.066  0.4449  0.1038 -0.6237
 2066SOL    HW1 6563   3.872   1.512   3.122  0.3542 -0.9256 -0.4327
 2066SOL    HW2 6564   3.729   1.561   3.112  0.3903 -0.6838  0.1955
 2067SOL     OW 6565   3.231   0.775   3.621  0.2849 -0.1048  0.0152
 2067SOL    HW1 6566   3.279   0.841   3.570 -2.6014  2.3212  0.1601
 2067SOL    HW2 6567   3.165   0.825   3.668 -1.2741 -3.0332  1.1809
 2068SOL     OW 6568   6.183   0.960   5.906 -0.1847 -0.5314 -0.4897
 2068SOL    HW1 6569   6.260   0.960   5.963 -0.5570  1.2559  0.0698
 2068SOL    HW2 6570   6.109   0.953   5.966 -0.5760  1.2578 -0.7248
 2069SOL     OW 6571   1.275   3.013   4.010 -0.2810 -0.2459 -0.3223
 2069SOL    HW1 6572   1.227   3.092   3.987 -0.5876 -0.0249  0.9613
 2069SOL    HW2 6573   1.216   2.941   3.986 -0.0366 -0.0933 -1.4089
 2070SOL     OW 6574   5.891   6.763   3.188  0.1391  0.3530 -0.3452
 2070SOL    HW1 6575   5.862   6.813   3.265  0.8044  2.0766 -1.1674
 2070SOL    HW2 6576   5.934   6.686   3.225  2.3582  2.1751  1.1644
 2071SOL     OW 6577   0.214   4.143   1.386 -0.1752 -0.9641  0.2942
 2071SOL    HW1 6578   0.294   4.189   1.359 -0.1467 -0.0538  1.8619
 2071SOL    HW2 6579   0.225   4.128   1.480 -0.6270 -3.3478  0.0473
 2072SOL     OW 6580   3.788   1.581   4.978 -0.1880  0.3551  0.6793
 2072SOL    HW1 6581   3.833   1.609   4.898 -0.4367 -1.3839 -0.1138
 2072SOL    HW2 6582   3.837   1.504   5.007 -0.8062  0.2824  1.5681
 2073SOL     OW 6583   1.267   2.860   3.592 -0.5518 -0.2495 -0.3732
 2073SOL    HW1 6584   1.318   2.936   3.565 -0.2789 -0.6423 -0.9734
 2073SOL    HW2 6585   1.332   2.795   3.619 -0.7812 -0.3001  0.0728
 2074SOL     OW 6586   2.522   3.381   2.299  0.1444 -0.1426  0.3278
 2074SOL    HW1 6587   2.432   3.384   2.268  0.3822 -0.4201 -0.3999
 2074SOL    HW2 6588   2.575   3.395   2.221  0.7597 -1.2506  0.5314
 2075SOL     OW 6589   1.838   0.997   1.741  0.5007  0.3442 -0.3326
 2075SOL    HW1 6590   1.921   1.013   1.786  2.8404 -0.4216 -3.9134
 2075SOL    HW2 6591   1.798   1.083   1.732  1.5608  0.9308  0.3254
 2076SOL     OW 6592   4.947   1.036   1.085  0.0792 -0.1579 -0.0529
 2076SOL    HW1 6593   4.857   1.067   1.092  0.0288 -0.3000 -0.0638
 2076SOL    HW2 6594   4.954   0.968   1.152 -0.1304 -0.8800 -0.7440
 2077SOL     OW 6595   2.807   1.118   6.345  0.0580  0.6954 -0.1381
 2077SOL    HW1 6596   2.761   1.146   6.266  0.1141  0.9125 -0.0947
 2077SOL    HW2 6597   2.778   1.180   6.413 -1.2053 -0.4090  0.3914
 2078SOL     OW 6598   6.159   3.689   1.494  0.0747 -0.0570 -0.2216
 2078SOL    HW1 6599   6.147   3.621   1.428 -1.0048 -1.2283  1.1318
 2078SOL    HW2 6600   6.070   3.716   1.517  0.4564  0.9082  0.1753
 2079SOL     OW 6601   6.324   1.425   4.286 -0.4647 -0.1181 -0.8679
 2079SOL    HW1 6602   6.328   1.356   4.352  0.3083  0.3700 -0.3817
 2079SOL    HW2 6603   6.292   1.382   4.207 -1.5652 -0.6784 -0.1411
 2080SOL     OW 6604   0.750   0.208   6.230  0.8288  0.0417  0.2034
 2080SOL    HW1 6605   0.706   0.227   6.147  0.3211  1.1640  0.7197
 2080SOL    HW2 6606   0.840   0.237   6.216  0.4427  1.4396  0.4466
 2081SOL     OW 6607   1.897   5.704   2.981  0.4464 -0.2610  0.3120
 2081SOL    HW1 6608   1.953   5.636   3.018  0.1718 -0.6143  0.0801
 2081SOL    HW2 6609   1.808   5.673   2.995  0.3218 -1.6833 -2.9225
 2082SOL     OW 6610   5.018   5.717   3.970 -0.3984  0.5898  0.3055
 2082SOL    HW1 6611   4.974   5.759   4.044  1.3906  2.2538  0.5277
 2082SOL    HW2 6612   5.058   5.790   3.923  1.4582 -0.7551 -0.2837
 2083SOL     OW 6613   3.924   0.536   2.818  0.2334  0.3974  0.4183
 2083SOL    HW1 6614   3.995   0.543   2.754 -1.0812  0.9908 -1.0273
 2083SOL    HW2 6615   3.953   0.589   2.892  2.2806 -1.1984  0.8663
 2084SOL     OW 6616   2.949   6.698   3.364 -0.6592  0.3129  0.4185
 2084SOL    HW1 6617   2.947   6.714   3.269  0.9137  1.9975  0.6040
 2084SOL    HW2 6618   2.939   6.603   3.372 -0.9639  0.1390 -1.4183
 2085SOL     OW 6619   1.582   5.624   3.684 -0.3482 -0.2140 -0.3585
 2085SOL    HW1 6620   1.615   5.568   3.614 -0.5521 -0.2034 -0.4613
 2085SOL    HW2 6621   1.488   5.631   3.668 -0.3122  0.2136 -0.3849
 2086SOL     OW 6622   2.470   6.666   4.571 -0.0771  0.1438 -0.1226
 2086SOL    HW1 6623   2.437   6.741   4.622  1.4413  0.1651  0.8715
 2086SOL    HW2 6624   2.439   6.682   4.482 -1.4205  0.9440  0.4626
 2087SOL     OW 6625   5.832   5.416   5.242 -0.5525 -0.3359  0.1804
 2087SOL    HW1 6626   5.753   5.364   5.253 -0.3731 -0.0215  4.9852
 2087SOL    HW2 6627   5.896   5.377   5.302  1.3702  2.1575 -0.0543
 2088SOL     OW 6628   6.577   1.557   4.381 -0.3257  0.9565 -0.3370
 2088SOL    HW1 6629   6.490   1.526   4.356 -1.1400  3.6732 -1.1390
 2088SOL    HW2 6630   6.595   1.512   4.464 -2.4432  0.2581 -0.1893
 2089SOL     OW 6631   0.247   1.060   1.067 -0.0632  0.3491  0.3364
 2089SOL    HW1 6632   0.288   1.127   1.011  0.5529 -0.4593 -0.2041
 2089SOL    HW2 6633   0.153   1.070   1.051  0.1506 -1.2565 -2.5753
 2090SOL     OW 6634   4.377   1.928   0.449 -0.1103 -0.0338 -0.5130
 2090SOL    HW1 6635   4.286   1.899   0.454 -0.1917  0.3301  0.4686
 2090SOL    HW2 6636   4.377   1.997   0.383 -1.0552  1.6348  1.1317
 2091SOL     OW 6637   6.796   3.836   1.797 -0.2719  0.4437  0.5886
 2091SOL    HW1 6638   6.759   3.829   1.709  0.1540 -2.5138  0.5336
 2091SOL    HW2 6639   6.891   3.827   1.784 -0.3001 -1.6581  1.3677
 2092SOL     OW 6640   3.076   5.981   5.883 -0.0570 -0.6493  0.0612
 2092SOL    HW1 6641   3.168   5.956   5.882 -0.0356 -0.5637 -0.1805
 2092SOL    HW2 6642   3.077   6.074   5.906 -0.0997 -0.7116  0.3227
 2093SOL     OW 6643   5.769   4.669   1.354  0.0480  0.0635 -0.1552
 2093SOL    HW1 6644   5.854   4.711   1.365  0.5723 -1.3180  1.5099
 2093SOL    HW2 6645   5.749   4.632   1.440 -1.8037 -0.4497 -0.7584
 2094SOL     OW 6646   2.494   0.380   3.982  0.1663  0.0845 -0.3854
 2094SOL    HW1 6647   2.440   0.363   3.905  1.5162  0.1467 -1.3842
 2094SOL    HW2 6648   2.535   0.465   3.965 -1.4732  1.3766  1.5942
 2095SOL     OW 6649   1.881   1.030   4.129 -0.3970  0.4784 -0.0585
 2095SOL    HW1 6650   1.969   1.040   4.166 -0.5165 -0.0153  0.3818
 2095SOL    HW2 6651   1.839   1.115   4.143  0.3364  1.0547 -1.1946
 2096SOL     OW 6652   1.637   5.084   0.922 -0.2582 -0.3690  0.6909
 2096SOL    HW1 6653   1.724   5.047   0.937  0.7747  0.7277 -2.0759
 2096SOL    HW2 6654   1.642   5.172   0.960  0.7653  0.6434 -1.6435
 2097SOL     OW 6655   4.114   4.008   2.724  0.2658  0.1175  0.6259
 2097SOL    HW1 6656   4.049   4.067   2.764 -1.7586 -0.4640 -1.5540
 2097SOL    HW2 6657   4.128   3.940   2.789 -0.8837  0.5830  1.4020
 2098SOL     OW 6658   1.646   4.539   0.580  0.4043 -0.4061 -0.2817
 2098SOL    HW1 6659   1.649   4.632   0.557  1.3826 -0.7935 -1.8626
 2098SOL    HW2 6660   1.658   4.538   0.675 -0.0321  1.0970 -0.1855
 2099SOL     OW 6661   6.559   5.498   3.987 -0.4337  0.2860  0.0766
 2099SOL    HW1 6662   6.501   5.475   4.059 -0.4315  2.1046  0.7049
 2099SOL    HW2 6663   6.575   5.591   3.998 -0.2671  0.5746 -2.1654
 2100SOL     OW 6664   6.180   5.469   6.513  0.2534  0.1407  0.4566
 2100SOL    HW1 6665   6.188   5.537   6.580 -0.0205 -0.5023  1.1552
 2100SOL    HW2 6666   6.254   5.411   6.530  0.8138  0.5521 -0.4934
 2101SOL     OW 6667   5.061   3.335   3.637 -0.0835 -0.6400 -0.5011
 2101SOL    HW1 6668   5.116   3.258   3.624  0.4061 -0.2958 -0.4619
 2101SOL    HW2 6669   5.015   3.346   3.553  0.5847 -0.3936 -0.8406
 2102SOL     OW 6670   3.035   4.410   0.765  0.4186  0.0775  0.1109
 2102SOL    HW1 6671   2.948   4.395   0.802 -0.1545  0.0627 -1.1957
 2102SOL    HW2 6672   3.072   4.322   0.755 -0.3547 -0.1013 -1.4754
 2103SOL     OW 6673   1.201   3.240   4.611 -0.1648 -0.1095 -0.2444
 2103SOL    HW1 6674   1.168   3.297   4.542 -0.9541 -0.3636 -0.0941
 2103SOL    HW2 6675   1.167   3.279   4.692 -0.8814 -0.8852 -0.1563
 2104SOL     OW 6676   3.726   3.494   2.997  0.6261 -0.1009  0.0737
 2104SOL    HW1 6677   3.794   3.491   3.064  1.4079  0.8328 -0.6430
 2104SOL    HW2 6678   3.647   3.465   3.042  1.0306  0.8995  1.5155
 2105SOL     OW 6679   1.166   2.696   6.044  0.3430  0.1763 -0.2031
 2105SOL    HW1 6680   1.249   2.743   6.058  0.3095  0.2177 -0.1455
 2105SOL    HW2 6681   1.151   2.650   6.126  0.1841  0.3609 -0.1273
 2106SOL     OW 6682   1.654   2.182   5.343  0.1788  0.1376  0.0275
 2106SOL    HW1 6683   1.562   2.162   5.361  1.0528 -3.3433  1.5260
 2106SOL    HW2 6684   1.677   2.249   5.407 -0.1563 -2.6830  3.3934
 2107SOL     OW 6685   5.322   3.906   2.374 -0.0088 -0.2194  0.4120
 2107SOL    HW1 6686   5.275   3.831   2.339  0.5128  0.1334 -1.1088
 2107SOL    HW2 6687   5.264   3.981   2.357  0.3508 -0.0135  0.0699
 2108SOL     OW 6688   5.216   1.434   5.589 -0.3572  0.1668 -0.7993
 2108SOL    HW1 6689   5.165   1.417   5.510 -0.9783 -0.1493 -0.3409
 2108SOL    HW2 6690   5.163   1.496   5.640 -0.6227 -0.6764 -0.0106
 2109SOL     OW 6691   3.675   5.499   3.644  0.2104 -0.3737 -0.1235
 2109SOL    HW1 6692   3.588   5.509   3.606  0.1168  1.4249  0.4452
 2109SOL    HW2 6693   3.731   5.555   3.591  0.4303  0.7365  1.2195
 2110SOL     OW 6694   4.485   3.171   2.287 -0.3955 -0.1901  0.1359
 2110SOL    HW1 6695   4.530   3.253   2.308 -0.3633 -0.0853 -0.3199
 2110SOL    HW2 6696   4.544   3.127   2.225 -0.9677  0.0038 -0.5639
 2111SOL     OW 6697   1.791   6.220   3.490  0.1530 -0.4475  0.4906
 2111SOL    HW1 6698   1.801   6.298   3.544  1.5020  0.9373 -1.6245
 2111SOL    HW2 6699   1.871   6.216   3.438 -1.9741 -0.2407 -3.1299
 2112SOL     OW 6700   2.854   5.347   6.546  0.1575  0.3608  0.2943
 2112SOL    HW1 6701   2.790   5.317   6.611 -1.1246  1.2917 -0.4801
 2112SOL    HW2 6702   2.908   5.411   6.592  0.3625 -0.2329  0.8876
 2113SOL     OW 6703   1.104   4.223   1.156 -0.5667 -0.3112 -0.2640
 2113SOL    HW1 6704   1.030   4.283   1.155 -0.9135 -0.7381 -0.4091
 2113SOL    HW2 6705   1.143   4.232   1.069 -1.3775 -1.2239 -0.7347
 2114SOL     OW 6706   0.686   5.894   2.915 -0.0206  0.3072 -0.4203
 2114SOL    HW1 6707   0.751   5.830   2.945 -1.2924  0.0853  2.1513
 2114SOL    HW2 6708   0.721   5.927   2.832  3.1761 -0.0468  0.6495
 2115SOL     OW 6709   0.781   6.388   0.756 -0.1345  0.4732 -0.1059
 2115SOL    HW1 6710   0.738   6.410   0.838 -0.0723 -2.4387  0.8343
 2115SOL    HW2 6711   0.854   6.450   0.749 -0.4932  1.1529  1.7135
 2116SOL     OW 6712   5.778   0.205   4.478  0.3775 -0.8156 -0.3740
 2116SOL    HW1 6713   5.705   0.264   4.461 -0.9200 -1.3342  2.6944
 2116SOL    HW2 6714   5.843   0.259   4.522  0.3179 -1.0983  0.0659
 2117SOL     OW 6715   4.261   6.522   6.534  0.4751 -0.1016 -0.1948
 2117SOL    HW1 6716   4.168   6.542   6.543  0.2670 -0.9338 -0.4698
 2117SOL    HW2 6717   4.297   6.596   6.485 -0.2404 -0.2769 -1.0049
 2118SOL     OW 6718   4.219   1.401   1.861  0.3158 -0.6722 -0.0091
 2118SOL    HW1 6719   4.303   1.393   1.906  0.5956 -1.2122 -0.6100
 2118SOL    HW2 6720   4.233   1.360   1.776 -0.0427  0.8502 -0.8200
 2119SOL     OW 6721   1.687   2.497   6.294 -0.5531 -0.4684 -0.2489
 2119SOL    HW1 6722   1.662   2.573   6.346  2.6006 -1.0471  2.4929
 2119SOL    HW2 6723   1.634   2.425   6.328  1.7977 -0.9466  2.8474
 2120SOL     OW 6724   2.383   4.806   0.679  0.0524 -0.1132 -0.2243
 2120SOL    HW1 6725   2.433   4.887   0.688 -2.3550  1.6660 -1.6072
 2120SOL    HW2 6726   2.449   4.737   0.679  2.3028  1.9141  0.0293
 2121SOL     OW 6727   6.612   2.150   5.684 -0.5378  0.4330 -0.7824
 2121SOL    HW1 6728   6.622   2.147   5.589  0.5311  0.2317 -0.6706
 2121SOL    HW2 6729   6.690   2.107   5.718 -1.9177 -1.4852  0.1674
 2122SOL     OW 6730   1.798   4.578   0.274 -0.0907 -0.4340 -0.6855
 2122SOL    HW1 6731   1.842   4.567   0.358  0.3405 -1.6749 -1.0576
 2122SOL    HW2 6732   1.827   4.664   0.242 -1.1063  0.5653  0.8991
 2123SOL     OW 6733   2.787   5.544   1.375 -0.4018  0.3186  0.4584
 2123SOL    HW1 6734   2.823   5.475   1.431 -0.4821  0.5279  0.7686
 2123SOL    HW2 6735   2.809   5.516   1.286 -0.6707 -0.2415  0.5650
 2124SOL     OW 6736   5.297   2.659   3.217  0.4752  0.4659 -0.6486
 2124SOL    HW1 6737   5.244   2.734   3.191  0.1048  0.4299 -0.0055
 2124SOL    HW2 6738   5.379   2.670   3.168  0.2778  1.0777 -0.8523
 2125SOL     OW 6739   4.376   2.257   3.793  0.2144  0.1075 -0.0863
 2125SOL    HW1 6740   4.308   2.322   3.806 -1.5674 -2.0577  2.2500
 2125SOL    HW2 6741   4.458   2.303   3.813 -0.6999  2.1768 -0.8290
 2126SOL     OW 6742   6.473   4.413   4.207  0.1918  0.3902 -0.0038
 2126SOL    HW1 6743   6.418   4.403   4.285 -1.1536 -0.9382 -1.0587
 2126SOL    HW2 6744   6.420   4.467   4.148  1.6150  2.2481  0.3272
 2127SOL     OW 6745   2.655   0.714   6.226 -0.5314 -0.0267  0.2503
 2127SOL    HW1 6746   2.673   0.717   6.132  0.1993 -0.5698  0.3666
 2127SOL    HW2 6747   2.603   0.634   6.238  0.5518 -0.7031  0.4948
 2128SOL     OW 6748   2.699   4.999   2.904  0.1145  0.1661  0.4399
 2128SOL    HW1 6749   2.620   4.962   2.864  0.2864 -1.0602  1.2071
 2128SOL    HW2 6750   2.669   5.036   2.987  0.4523 -1.0277  1.1214
 2129SOL     OW 6751   1.709   6.409   5.063  0.6381 -0.1108  0.1663
 2129SOL    HW1 6752   1.628   6.450   5.093  0.1527  0.6750 -1.9868
 2129SOL    HW2 6753   1.701   6.410   4.967  3.6103  0.8522 -0.1560
 2130SOL     OW 6754   5.653   2.474   0.112 -0.1107  0.3971 -0.0566
 2130SOL    HW1 6755   5.592   2.547   0.115 -0.0231  0.4473  1.6026
 2130SOL    HW2 6756   5.602   2.400   0.078 -0.8727  0.6425  0.5331
 2131SOL     OW 6757   4.942   1.927   6.046  0.1372 -0.2382  0.1776
 2131SOL    HW1 6758   5.019   1.952   5.995 -0.0391  0.7285  0.3627
 2131SOL    HW2 6759   4.869   1.938   5.985  0.1814 -1.5731 -0.1295
 2132SOL     OW 6760   1.364   0.999   6.645  0.6195  0.3885 -0.3919
 2132SOL    HW1 6761   1.332   0.924   6.597 -2.9465  1.9067 -0.6501
 2132SOL    HW2 6762   1.399   1.058   6.578 -0.3096  0.6514 -0.6498
 2133SOL     OW 6763   4.585   6.205   5.868 -0.4247  0.0103  0.0110
 2133SOL    HW1 6764   4.571   6.295   5.840 -0.6447 -0.5334 -1.7400
 2133SOL    HW2 6765   4.498   6.165   5.867 -0.0987 -0.7245 -1.1606
 2134SOL     OW 6766   4.304   4.912   2.906  0.4777 -0.3713  0.4966
 2134SOL    HW1 6767   4.374   4.847   2.917  0.5168 -0.4157  0.0227
 2134SOL    HW2 6768   4.233   4.862   2.865  0.7067  0.0090 -0.3743
 2135SOL     OW 6769   4.613   6.168   6.390 -0.0365 -0.2895  0.0289
 2135SOL    HW1 6770   4.581   6.243   6.440  2.4796 -0.0178  1.3863
 2135SOL    HW2 6771   4.553   6.162   6.316 -0.8010  2.5687  0.2812
 2136SOL     OW 6772   1.042   5.580   5.958 -0.0450 -0.1123  0.6131
 2136SOL    HW1 6773   1.130   5.579   5.995 -0.8328 -0.4749  2.5495
 2136SOL    HW2 6774   1.042   5.508   5.895  1.1597  0.1786  0.2435
 2137SOL     OW 6775   6.095   3.840   4.978  0.0308  0.1164  0.0013
 2137SOL    HW1 6776   6.124   3.830   4.888  0.8620  0.2966  0.2415
 2137SOL    HW2 6777   6.035   3.766   4.993  0.9026 -0.6685 -0.2959
 2138SOL     OW 6778   5.507   1.084   0.348 -0.5828 -0.3025 -0.3427
 2138SOL    HW1 6779   5.421   1.046   0.367 -0.5927  0.0542  0.3320
 2138SOL    HW2 6780   5.569   1.024   0.389 -0.5376 -0.2094 -0.2766
 2139SOL     OW 6781   3.820   6.162   1.001 -0.5666 -0.6866  0.0911
 2139SOL    HW1 6782   3.835   6.067   0.998  0.2465 -0.5647  0.1251
 2139SOL    HW2 6783   3.889   6.196   1.057 -1.6358 -0.2069  1.1673
 2140SOL     OW 6784   6.142   3.401   0.350  0.3347 -0.4958  0.0124
 2140SOL    HW1 6785   6.183   3.476   0.393  0.3505 -1.4982  1.8528
 2140SOL    HW2 6786   6.101   3.352   0.421  0.6011 -2.3994 -1.0797
 2141SOL     OW 6787   3.243   5.986   3.240  0.0691 -0.2060 -0.2683
 2141SOL    HW1 6788   3.254   5.970   3.147  0.5853 -0.1087 -0.2270
 2141SOL    HW2 6789   3.155   5.955   3.260 -0.2562  0.2828 -0.9032
 2142SOL     OW 6790   2.579   1.527   4.407  0.5488 -0.3018  0.2597
 2142SOL    HW1 6791   2.512   1.595   4.402  0.9627  0.0461 -1.5842
 2142SOL    HW2 6792   2.645   1.563   4.466  0.7735  0.9491 -0.7014
 2143SOL     OW 6793   0.454   0.476   1.026 -0.0561  0.4911  0.0763
 2143SOL    HW1 6794   0.385   0.466   1.092 -1.3194  1.7392 -1.0100
 2143SOL    HW2 6795   0.512   0.544   1.062  0.9789 -0.9442  1.2447
 2144SOL     OW 6796   4.484   2.973   3.087 -0.4686  0.0701 -0.2106
 2144SOL    HW1 6797   4.486   2.934   3.175  0.1710  0.9791  0.1983
 2144SOL    HW2 6798   4.469   2.899   3.028 -0.1436 -0.6616  0.6037
 2145SOL     OW 6799   2.493   2.091   5.944 -0.9661  0.0963 -0.2590
 2145SOL    HW1 6800   2.496   1.998   5.921 -0.9056 -0.0251  0.2231
 2145SOL    HW2 6801   2.402   2.116   5.927 -1.5354 -0.5831  1.5691
 2146SOL     OW 6802   0.300   0.213   1.276 -0.0419  0.2558 -0.1547
 2146SOL    HW1 6803   0.323   0.225   1.369 -0.2534  0.7328 -0.1636
 2146SOL    HW2 6804   0.295   0.301   1.241  1.2948  0.0503 -0.9348
 2147SOL     OW 6805   0.620   2.438   3.499 -0.2389 -0.3078  0.3237
 2147SOL    HW1 6806   0.699   2.491   3.514 -0.5097  0.0279  0.5746
 2147SOL    HW2 6807   0.570   2.446   3.580  0.1230 -1.6742  0.7000
 2148SOL     OW 6808   2.467   5.094   4.910 -0.4321  0.1130  0.4224
 2148SOL    HW1 6809   2.476   5.075   5.004 -0.5995  2.5576  0.9760
 2148SOL    HW2 6810   2.528   5.166   4.894 -0.7975  0.0883 -1.2464
 2149SOL     OW 6811   5.177   4.556   5.662  0.8088  0.1126  0.5089
 2149SOL    HW1 6812   5.144   4.521   5.579  1.7255 -0.6171  0.4372
 2149SOL    HW2 6813   5.234   4.487   5.696 -0.4648 -0.0967  2.3429
 2150SOL     OW 6814   3.521   1.762   5.709  0.4745 -0.2383 -0.2588
 2150SOL    HW1 6815   3.488   1.683   5.751 -0.0188 -0.2700 -0.6901
 2150SOL    HW2 6816   3.444   1.802   5.669  0.9008 -0.1604 -1.0389
 2151SOL     OW 6817   2.665   0.826   1.315  0.2419 -0.4180  0.1832
 2151SOL    HW1 6818   2.630   0.755   1.260 -0.6394  0.5204 -0.5198
 2151SOL    HW2 6819   2.607   0.901   1.296  0.7828  0.3169  1.3568
 2152SOL     OW 6820   6.593   1.043   4.797 -0.2164 -0.1591  0.1020
 2152SOL    HW1 6821   6.540   0.986   4.741 -0.2046 -1.1047  1.0238
 2152SOL    HW2 6822   6.681   1.007   4.791  0.3395  1.3200 -1.3085
 2153SOL     OW 6823   2.481   3.760   5.755  0.0658  0.0192  0.3950
 2153SOL    HW1 6824   2.555   3.782   5.811 -0.4125 -0.2738  1.1525
 2153SOL    HW2 6825   2.470   3.837   5.699  0.3784  0.4206  0.8740
 2154SOL     OW 6826   0.893   0.680   2.100 -0.6516  0.6021 -0.1785
 2154SOL    HW1 6827   0.820   0.694   2.160 -1.5828  0.5368 -1.2570
 2154SOL    HW2 6828   0.892   0.586   2.082  2.4276 -0.2864  3.1010
 2155SOL     OW 6829   4.090   4.985   0.652  0.1299 -0.1555  0.4908
 2155SOL    HW1 6830   4.132   4.900   0.648 -0.5583 -0.4690 -0.2854
 2155SOL    HW2 6831   4.089   5.017   0.562 -0.3930  0.2900  0.6456
 2156SOL     OW 6832   3.073   2.379   4.576 -0.2592  0.0790  0.4350
 2156SOL    HW1 6833   3.163   2.361   4.604 -0.5975  0.5829  1.9441
 2156SOL    HW2 6834   3.077   2.465   4.535  0.2180 -0.6040 -1.0209
 2157SOL     OW 6835   6.213   2.184   4.212 -0.0330  0.0578 -0.0163
 2157SOL    HW1 6836   6.181   2.151   4.296 -0.0116  0.3134  0.0937
 2157SOL    HW2 6837   6.247   2.107   4.168  2.6563  0.3289  1.4083
 2158SOL     OW 6838   4.286   2.243   2.814  0.5250  0.0706 -0.0646
 2158SOL    HW1 6839   4.214   2.240   2.877  0.0613 -0.8877 -0.6102
 2158SOL    HW2 6840   4.243   2.233   2.729  0.8775  3.5477 -0.7812
 2159SOL     OW 6841   1.247   6.359   1.492  0.1542  0.3593 -0.1915
 2159SOL    HW1 6842   1.187   6.361   1.566  0.0579  1.0584 -0.2825
 2159SOL    HW2 6843   1.250   6.267   1.466 -0.3607  0.2195  0.2291
 2160SOL     OW 6844   2.784   6.138   1.219 -0.2438 -0.3865  0.3732
 2160SOL    HW1 6845   2.696   6.166   1.197 -0.0103  0.2235  0.1806
 2160SOL    HW2 6846   2.841   6.189   1.161  0.1838 -1.6143 -0.3209
 2161SOL     OW 6847   4.268   2.322   5.655  0.1583  0.6127  0.6337
 2161SOL    HW1 6848   4.193   2.355   5.707  0.1000  1.2273  0.1744
 2161SOL    HW2 6849   4.343   2.333   5.713 -0.0825  0.1175  1.0506
 2162SOL     OW 6850   6.441   5.324   6.616 -0.0616 -0.4486  0.0888
 2162SOL    HW1 6851   6.382   5.250   6.602 -0.2397 -0.2384 -0.3256
 2162SOL    HW2 6852   6.430   5.348   6.708 -0.8877 -0.1964 -0.0657
 2163SOL     OW 6853   2.572   6.017   0.960  0.0817 -0.2163  0.2902
 2163SOL    HW1 6854   2.663   6.012   0.931  0.3417 -0.9221  1.2070
 2163SOL    HW2 6855   2.560   6.109   0.984  0.4540 -0.0556 -0.1113
 2164SOL     OW 6856   1.210   3.500   6.007 -0.0796  0.5923 -0.3487
 2164SOL    HW1 6857   1.133   3.519   6.060 -0.9977 -1.2739 -0.9208
 2164SOL    HW2 6858   1.201   3.557   5.930 -2.6670 -1.7879 -1.9580
 2165SOL     OW 6859   5.495   1.422   5.377 -0.1777  0.0501 -0.5527
 2165SOL    HW1 6860   5.429   1.492   5.374  0.0041  0.2928  0.7343
 2165SOL    HW2 6861   5.503   1.393   5.286 -1.3755  0.6568 -0.8662
 2166SOL     OW 6862   2.993   5.788   4.779 -0.1810 -1.0542  0.2165
 2166SOL    HW1 6863   3.027   5.805   4.867  0.1140 -1.4125  0.1749
 2166SOL    HW2 6864   2.973   5.694   4.779  0.0225 -1.0994 -0.1656
 2167SOL     OW 6865   2.187   4.845   5.142 -0.1942 -0.0097  0.5748
 2167SOL    HW1 6866   2.129   4.771   5.163  0.7497 -1.6557 -2.1043
 2167SOL    HW2 6867   2.275   4.810   5.152  0.2805  0.8645 -0.4375
 2168SOL     OW 6868   0.293   1.164   6.053 -0.3648  0.1015 -0.0966
 2168SOL    HW1 6869   0.348   1.231   6.094  0.2812  0.8244 -2.0323
 2168SOL    HW2 6870   0.344   1.083   6.062  1.0310  0.7251 -1.6818
 2169SOL     OW 6871   0.439   3.667   0.148 -0.0363  0.3112 -0.4407
 2169SOL    HW1 6872   0.367   3.681   0.087 -0.1850 -0.8511 -0.5391
 2169SOL    HW2 6873   0.397   3.661   0.234  0.1986  2.2573 -0.1411
 2170SOL     OW 6874   0.437   2.437   0.299  0.7212 -0.8155 -0.2436
 2170SOL    HW1 6875   0.411   2.449   0.390 -0.5787  1.3484 -0.8022
 2170SOL    HW2 6876   0.393   2.357   0.272  1.6926 -1.8780  1.1744
 2171SOL     OW 6877   2.156   5.771   1.638  0.6045  0.1627  0.5105
 2171SOL    HW1 6878   2.172   5.680   1.664  0.0641  0.2626  1.2037
 2171SOL    HW2 6879   2.217   5.785   1.565  0.7275 -0.7390  0.4173
 2172SOL     OW 6880   2.851   6.063   3.010 -0.6847 -0.2061  0.6285
 2172SOL    HW1 6881   2.890   5.981   3.040  1.8399  0.5019 -0.4322
 2172SOL    HW2 6882   2.918   6.129   3.027 -2.5658  1.6479  1.2535
 2173SOL     OW 6883   0.932   1.911   2.925  0.1222  0.1714  0.1597
 2173SOL    HW1 6884   0.975   1.832   2.957 -0.7379 -1.1086 -1.6708
 2173SOL    HW2 6885   0.858   1.879   2.873 -0.2680  2.1922 -0.6365
 2174SOL     OW 6886   1.517   4.824   1.998 -0.7476 -0.0822  0.1562
 2174SOL    HW1 6887   1.496   4.836   2.090 -0.7048  1.1768  0.0174
 2174SOL    HW2 6888   1.474   4.742   1.974  0.3312 -1.1382  1.6092
 2175SOL     OW 6889   0.216   3.573   2.917  0.0946 -0.1756 -0.1289
 2175SOL    HW1 6890   0.161   3.583   2.994  1.8872  1.3068  1.0408
 2175SOL    HW2 6891   0.155   3.547   2.847 -1.4433 -2.5463  1.9321
 2176SOL     OW 6892   1.144   1.640   4.485  0.1733 -0.0731  0.0949
 2176SOL    HW1 6893   1.081   1.616   4.416 -0.4376 -0.0985  0.6580
 2176SOL    HW2 6894   1.107   1.603   4.565  0.5925  0.4446  0.5307
 2177SOL     OW 6895   6.079   3.595   1.070  0.1465  0.2117  0.0957
 2177SOL    HW1 6896   6.022   3.532   1.027 -0.1526 -0.4167  1.3730
 2177SOL    HW2 6897   6.020   3.658   1.111  0.4425  1.6374 -1.5555
 2178SOL     OW 6898   6.625   1.388   6.726 -0.0167 -0.1619  0.0535
 2178SOL    HW1 6899   6.717   1.371   6.705  1.0018  2.5295  1.7756
 2178SOL    HW2 6900   6.592   1.438   6.651  0.4939  0.4201  0.2063
 2179SOL     OW 6901   6.546   4.721   4.845  0.4017 -0.1291 -0.2069
 2179SOL    HW1 6902   6.484   4.664   4.800 -0.2574  0.8047 -0.5008
 2179SOL    HW2 6903   6.523   4.712   4.938  0.4574 -0.5101 -0.2270
 2180SOL     OW 6904   1.924   4.218   3.476  0.1188  0.0195  0.0406
 2180SOL    HW1 6905   2.009   4.260   3.461 -0.5572  0.9323 -1.5708
 2180SOL    HW2 6906   1.864   4.264   3.416 -2.0769  1.1278  2.8434
 2181SOL     OW 6907   4.398   0.761   3.740 -0.0882  0.1343  0.0136
 2181SOL    HW1 6908   4.355   0.730   3.820 -2.8865  2.5174 -0.4244
 2181SOL    HW2 6909   4.446   0.840   3.767  0.0367  0.2108 -0.4139
 2182SOL     OW 6910   5.280   1.531   1.947  0.6218  0.6896  0.0272
 2182SOL    HW1 6911   5.265   1.444   1.983  0.4948  0.6618 -0.0925
 2182SOL    HW2 6912   5.251   1.525   1.856  3.7886 -0.1396 -1.0554
 2183SOL     OW 6913   1.914   4.197   0.002  0.0703  0.5159  0.4901
 2183SOL    HW1 6914   1.844   4.240   0.050 -0.5842  0.2801 -0.2495
 2183SOL    HW2 6915   1.897   4.103   0.013  0.0987  0.4584  0.0696
 2184SOL     OW 6916   4.298   0.468   1.121 -0.0969  0.5502 -0.1845
 2184SOL    HW1 6917   4.388   0.476   1.091 -0.1331  2.4161  0.1140
 2184SOL    HW2 6918   4.280   0.550   1.166 -1.8795  0.1163 -0.0341
 2185SOL     OW 6919   4.474   3.473   2.117  0.1320 -0.2235 -0.1192
 2185SOL    HW1 6920   4.515   3.559   2.106 -0.0957 -0.0856  0.0997
 2185SOL    HW2 6921   4.534   3.425   2.175 -0.3584  0.2160  0.7570
 2186SOL     OW 6922   6.328   1.843   0.401 -0.3428 -0.2226 -0.4533
 2186SOL    HW1 6923   6.246   1.874   0.363 -0.0896  1.9505  0.6014
 2186SOL    HW2 6924   6.366   1.921   0.443  1.1151 -1.6813  1.0992
 2187SOL     OW 6925   2.793   3.629   4.576  0.1675 -0.0444  0.1412
 2187SOL    HW1 6926   2.887   3.647   4.575  0.0602  0.5413  0.5479
 2187SOL    HW2 6927   2.764   3.651   4.664 -0.6495  1.3704 -0.4476
 2188SOL     OW 6928   4.668   3.375   2.286  0.1764 -0.5490  0.1509
 2188SOL    HW1 6929   4.721   3.428   2.345 -0.3119 -0.4065  0.4597
 2188SOL    HW2 6930   4.728   3.353   2.214  0.8758 -1.0183  0.8593
 2189SOL     OW 6931   3.195   6.703   2.334 -0.4438  0.8688  0.3321
 2189SOL    HW1 6932   3.137   6.641   2.290  0.4527 -0.1775  0.5930
 2189SOL    HW2 6933   3.205   6.774   2.271  0.6797 -0.5201 -1.1217
 2190SOL     OW 6934   3.419   1.866   0.584  0.3974  0.1284  0.3865
 2190SOL    HW1 6935   3.380   1.915   0.511 -0.6692  0.0261  0.8677
 2190SOL    HW2 6936   3.386   1.777   0.572  1.9405 -0.3959 -0.2132
 2191SOL     OW 6937   2.342   2.869   0.895 -0.5287 -0.5766 -0.1315
 2191SOL    HW1 6938   2.375   2.798   0.950 -3.5685 -1.7316  0.3913
 2191SOL    HW2 6939   2.302   2.930   0.957 -0.3511  0.1927 -0.7724
 2192SOL     OW 6940   6.486   2.704   0.624 -0.5978 -0.1256 -0.3140
 2192SOL    HW1 6941   6.519   2.668   0.706 -0.3906  1.0280  0.1309
 2192SOL    HW2 6942   6.532   2.656   0.556 -0.0241 -0.4028  0.2585
 2193SOL     OW 6943   1.168   5.948   6.781 -0.2733 -0.3768  0.4602
 2193SOL    HW1 6944   1.105   6.017   6.761  1.9909  1.0575 -2.5102
 2193SOL    HW2 6945   1.197   5.967   6.870 -2.7649 -0.1414  1.3008
 2194SOL     OW 6946   5.862   2.190   0.382  0.1277  0.2217  1.0155
 2194SOL    HW1 6947   5.908   2.221   0.304  2.8547  1.0084  2.7732
 2194SOL    HW2 6948   5.770   2.211   0.366  0.8286  2.0839 -1.1757
 2195SOL     OW 6949   4.620   5.584   1.329  0.1286  0.4632  0.1632
 2195SOL    HW1 6950   4.596   5.521   1.398 -1.0604 -0.1178 -0.7334
 2195SOL    HW2 6951   4.709   5.558   1.304 -0.1567 -0.5693  0.1448
 2196SOL     OW 6952   6.486   5.916   6.260  0.2634 -0.5653  0.1175
 2196SOL    HW1 6953   6.505   5.906   6.167 -0.3739 -0.5885 -0.0133
 2196SOL    HW2 6954   6.572   5.928   6.301  0.4521  1.0020 -0.6703
 2197SOL     OW 6955   0.655   0.114   1.781 -0.2531 -0.4525 -0.6829
 2197SOL    HW1 6956   0.677   0.043   1.841 -0.7358 -0.4852 -0.5368
 2197SOL    HW2 6957   0.617   0.070   1.705 -0.4618 -0.3617 -0.6333
 2198SOL     OW 6958   3.102   0.348   4.685 -0.4311 -0.1378  0.0718
 2198SOL    HW1 6959   3.014   0.312   4.674  0.0484 -1.2076 -0.4519
 2198SOL    HW2 6960   3.132   0.313   4.769 -0.7973  0.8925  0.6490
 2199SOL     OW 6961   5.390   4.548   3.687  0.0539 -0.1107  0.0731
 2199SOL    HW1 6962   5.389   4.453   3.696  2.8347 -0.0452  2.8191
 2199SOL    HW2 6963   5.475   4.568   3.648 -0.6138  1.2734 -0.7741
 2200SOL     OW 6964   2.091   2.046   6.026  0.1602 -0.2582  0.1108
 2200SOL    HW1 6965   2.156   2.083   5.967  0.2217  1.8719  1.3857
 2200SOL    HW2 6966   2.119   1.956   6.040  1.6305 -0.0069 -1.0230
 2201SOL     OW 6967   0.747   4.811   2.510  0.4780 -0.0798 -0.0252
 2201SOL    HW1 6968   0.718   4.720   2.518  0.0622  0.1985  2.3222
 2201SOL    HW2 6969   0.672   4.857   2.473  0.8284 -0.7158 -1.6194
 2202SOL     OW 6970   2.161   2.656   4.883  0.4329 -0.2710  0.1569
 2202SOL    HW1 6971   2.218   2.677   4.809 -0.4415 -1.0377 -0.7720
 2202SOL    HW2 6972   2.219   2.651   4.958  1.1801  1.9134 -0.1881
 2203SOL     OW 6973   3.358   3.906   4.310  0.1837 -0.2021  0.1146
 2203SOL    HW1 6974   3.334   3.857   4.388 -1.3593  1.2138  0.5821
 2203SOL    HW2 6975   3.314   3.990   4.320  1.2725  0.6098 -1.5224
 2204SOL     OW 6976   6.486   4.545   6.377 -0.1065 -0.2241  0.2411
 2204SOL    HW1 6977   6.484   4.455   6.409 -1.5153 -0.3257 -0.0469
 2204SOL    HW2 6978   6.477   4.599   6.456 -0.2531 -0.3684  0.3220
 2205SOL     OW 6979   2.360   0.243   6.798 -0.2858  0.2860  0.1352
 2205SOL    HW1 6980   2.397   0.303   6.863 -0.3481  0.7759 -0.2740
 2205SOL    HW2 6981   2.323   0.171   6.850 -1.0493  1.0670  0.6975
 2206SOL     OW 6982   6.152   1.051   1.486 -0.2449 -0.0341 -0.1096
 2206SOL    HW1 6983   6.176   1.142   1.498 -1.4923  0.2693  0.2759
 2206SOL    HW2 6984   6.127   1.044   1.394 -1.1393  0.2756  0.1002
 2207SOL     OW 6985   3.774   1.794   2.063 -0.0842  0.2875 -0.6518
 2207SOL    HW1 6986   3.783   1.700   2.046 -2.1447 -0.2077  0.6119
 2207SOL    HW2 6987   3.680   1.811   2.052  0.0167  1.8655  0.6739
 2208SOL     OW 6988   2.649   2.223   2.387  0.3188 -0.1778  0.0792
 2208SOL    HW1 6989   2.562   2.261   2.400 -1.2430 -1.2689 -4.7987
 2208SOL    HW2 6990   2.649   2.143   2.439 -0.4428  1.1749  2.2789
 2209SOL     OW 6991   2.272   6.286   6.562 -0.6016  0.0118  0.7340
 2209SOL    HW1 6992   2.242   6.366   6.517 -0.9431 -0.2010  0.5825
 2209SOL    HW2 6993   2.229   6.289   6.648 -1.2942 -0.4421  0.4070
 2210SOL     OW 6994   1.524   0.511   5.145  0.0800  0.2565 -0.0480
 2210SOL    HW1 6995   1.617   0.532   5.149 -0.3361  2.3324 -0.3092
 2210SOL    HW2 6996   1.498   0.533   5.056 -0.7274 -0.0943  0.0844
 2211SOL     OW 6997   0.870   4.610   2.684 -0.1098 -0.4404 -0.1232
 2211SOL    HW1 6998   0.792   4.558   2.704 -0.0445 -0.9520 -1.0899
 2211SOL    HW2 6999   0.887   4.592   2.591  1.1215 -0.2847  0.0526
 2212SOL     OW 7000   4.605   1.052   2.409  0.0205 -0.3097  0.1295
 2212SOL    HW1 7001   4.571   0.969   2.441  1.8415 -1.0758  0.1632
 2212SOL    HW2 7002   4.548   1.118   2.449 -0.1335 -1.4202  1.8510
 2213SOL     OW 7003   0.707   4.813   0.197 -0.2486  0.4875 -0.3712
 2213SOL    HW1 7004   0.746   4.850   0.118 -0.1249  0.2360 -0.4294
 2213SOL    HW2 7005   0.709   4.719   0.182  2.3745  0.2056  1.0850
 2214SOL     OW 7006   4.567   5.921   3.740 -0.3274 -0.2642 -0.6860
 2214SOL    HW1 7007   4.533   5.853   3.798  0.2736  1.7785  2.2953
 2214SOL    HW2 7008   4.662   5.913   3.746 -0.2307  1.0686  0.1266
 2215SOL     OW 7009   3.440   3.677   0.810 -0.3175 -0.2909  0.1816
 2215SOL    HW1 7010   3.476   3.659   0.897  0.9210 -0.7562 -0.4054
 2215SOL    HW2 7011   3.346   3.657   0.819 -0.1860 -0.4798  1.3614
 2216SOL     OW 7012   2.171   2.221   6.215  0.3983  0.2276 -0.5064
 2216SOL    HW1 7013   2.150   2.144   6.161  0.5960 -0.5492  0.4835
 2216SOL    HW2 7014   2.262   2.242   6.193  0.3977  0.0750 -0.6567
 2217SOL     OW 7015   5.246   6.727   6.783  0.0378 -0.0607  0.6358
 2217SOL    HW1 7016   5.270   6.806   6.734  1.1750 -0.7189  0.1128
 2217SOL    HW2 7017   5.265   6.749   6.874 -0.5213  0.5820  0.6091
 2218SOL     OW 7018   1.275   1.952   1.125  0.3219 -0.0804 -0.0726
 2218SOL    HW1 7019   1.218   1.904   1.065  3.0508 -2.3256 -1.0522
 2218SOL    HW2 7020   1.364   1.933   1.095  1.6895  2.5427  1.8972
 2219SOL     OW 7021   5.900   1.966   3.962 -0.3622 -0.4988 -0.5418
 2219SOL    HW1 7022   5.930   2.056   3.975 -1.7721 -0.2163  1.0361
 2219SOL    HW2 7023   5.809   1.974   3.934 -1.0984 -1.4189  1.3904
 2220SOL     OW 7024   5.533   5.998   1.876 -0.0712 -0.4352 -0.1262
 2220SOL    HW1 7025   5.499   5.909   1.877 -2.0882  0.0611 -3.7596
 2220SOL    HW2 7026   5.462   6.052   1.911  0.2798 -0.0765  0.0477
 2221SOL     OW 7027   3.490   0.179   5.135 -1.1693  0.1865 -0.1062
 2221SOL    HW1 7028   3.573   0.195   5.179 -1.8344  1.4484  0.7591
 2221SOL    HW2 7029   3.429   0.241   5.175 -2.5038 -0.6188 -0.8101
 2222SOL     OW 7030   2.515   0.457   4.937  0.1716  0.0109 -0.0827
 2222SOL    HW1 7031   2.450   0.387   4.946  0.8329 -0.7765 -1.1660
 2222SOL    HW2 7032   2.599   0.413   4.949  0.5366  0.8953  0.6528
 2223SOL     OW 7033   2.919   3.889   3.606 -0.3456 -0.1413  0.8592
 2223SOL    HW1 7034   2.906   3.887   3.701  1.4273  0.1593  1.1458
 2223SOL    HW2 7035   2.940   3.981   3.587  2.5845 -0.7239  0.7380
 2224SOL     OW 7036   6.164   2.532   3.334 -0.1844 -0.2491 -0.0178
 2224SOL    HW1 7037   6.174   2.506   3.243 -0.0869  2.0019 -0.6956
 2224SOL    HW2 7038   6.217   2.469   3.383 -0.2155 -1.4697 -1.4884
 2225SOL     OW 7039   2.024   1.228   2.903  0.3417 -0.3119 -0.0298
 2225SOL    HW1 7040   2.040   1.322   2.909 -1.0513 -0.1518  2.3022
 2225SOL    HW2 7041   2.051   1.194   2.988 -0.8938 -1.7099 -0.1678
 2226SOL     OW 7042   4.524   0.206   2.024  0.0754  0.0928 -0.0333
 2226SOL    HW1 7043   4.489   0.165   2.103  1.4767  1.5093  1.4185
 2226SOL    HW2 7044   4.600   0.151   2.001  0.8093  0.7364  0.7766
 2227SOL     OW 7045   6.220   4.579   6.062 -0.3151 -0.3677 -0.0965
 2227SOL    HW1 7046   6.296   4.617   6.016 -1.6126  1.2760 -0.9857
 2227SOL    HW2 7047   6.231   4.608   6.152  0.5340 -0.8380 -0.0328
 2228SOL     OW 7048   3.393   4.415   6.381 -0.7568  0.3784 -0.2362
 2228SOL    HW1 7049   3.378   4.492   6.327 -1.6865 -0.0787 -0.6643
 2228SOL    HW2 7050   3.315   4.361   6.368  0.0707 -0.8505 -0.3136
 2229SOL     OW 7051   0.821   2.976   1.665  0.4932  0.3712 -0.2171
 2229SOL    HW1 7052   0.809   2.882   1.656 -0.6010  0.2536  1.9878
 2229SOL    HW2 7053   0.916   2.989   1.667  0.7049 -1.0768  2.6314
 2230SOL     OW 7054   0.254   6.730   4.417 -0.4348 -0.3265  0.1579
 2230SOL    HW1 7055   0.338   6.699   4.450 -0.1423 -0.0228 -0.2906
 2230SOL    HW2 7056   0.205   6.650   4.397 -0.0498 -0.5016 -0.0881
 2231SOL     OW 7057   3.312   6.323   4.341  0.1703  0.1751 -0.8478
 2231SOL    HW1 7058   3.349   6.241   4.371  0.1375 -0.6784 -3.0089
 2231SOL    HW2 7059   3.226   6.327   4.384  0.3475 -0.6761 -0.3881
 2232SOL     OW 7060   2.238   1.478   2.223 -0.1774  0.4178  0.0903
 2232SOL    HW1 7061   2.235   1.441   2.311  0.6878 -1.3307 -0.5749
 2232SOL    HW2 7062   2.235   1.402   2.165  0.4738  1.4596 -1.3629
 2233SOL     OW 7063   0.590   1.669   2.560  0.0011  0.2379  0.7520
 2233SOL    HW1 7064   0.622   1.617   2.485  0.1312 -0.5498  1.3349
 2233SOL    HW2 7065   0.644   1.748   2.559 -0.2729  0.4218 -0.2257
 2234SOL     OW 7066   2.449   4.041   0.493 -0.2218  0.5369  0.1243
 2234SOL    HW1 7067   2.369   3.992   0.510 -0.6825  1.6130  1.3109
 2234SOL    HW2 7068   2.492   3.995   0.422 -2.9781  1.1619 -2.1168
 2235SOL     OW 7069   2.789   4.242   4.512  0.7439  0.0313 -0.2746
 2235SOL    HW1 7070   2.844   4.163   4.509  1.5759  0.6220 -0.7609
 2235SOL    HW2 7071   2.839   4.303   4.567 -0.6694 -0.3370  1.5372
 2236SOL     OW 7072   0.397   3.874   6.631 -0.0776  0.1009 -0.1620
 2236SOL    HW1 7073   0.438   3.812   6.571 -1.5678 -0.1788 -0.9552
 2236SOL    HW2 7074   0.335   3.821   6.681 -2.2328  1.0448 -1.6480
 2237SOL     OW 7075   0.686   6.318   5.714  0.1730 -0.8860  0.3113
 2237SOL    HW1 7076   0.606   6.283   5.675 -0.4801  1.5909 -0.7236
 2237SOL    HW2 7077   0.664   6.333   5.806 -0.1598 -1.2414  0.2943
 2238SOL     OW 7078   0.706   6.350   6.440 -0.3094  0.2699  0.1913
 2238SOL    HW1 7079   0.646   6.378   6.509 -0.5257 -0.5909  0.3574
 2238SOL    HW2 7080   0.700   6.419   6.374  0.3720  1.4386  1.3007
 2239SOL     OW 7081   3.016   5.422   1.920  0.0632 -0.0466  0.2912
 2239SOL    HW1 7082   2.979   5.495   1.870  3.0496 -0.1846 -2.4249
 2239SOL    HW2 7083   3.109   5.442   1.925  0.5805 -2.4767  1.6867
 2240SOL     OW 7084   2.650   6.434   0.077  0.3388  0.2518 -0.5350
 2240SOL    HW1 7085   2.607   6.353   0.104 -0.0928  0.3348 -0.9573
 2240SOL    HW2 7086   2.744   6.417   0.088  0.2696 -0.4435 -0.9975
 2241SOL     OW 7087   3.870   2.212   2.731 -0.4852 -0.2510  0.3114
 2241SOL    HW1 7088   3.944   2.215   2.670  0.4325  1.0008  1.4360
 2241SOL    HW2 7089   3.868   2.299   2.771 -1.1165 -0.9992  2.0003
 2242SOL     OW 7090   5.841   1.128   1.263  0.1532  0.5482 -0.0301
 2242SOL    HW1 7091   5.820   1.132   1.356  1.8533  0.4282  0.4007
 2242SOL    HW2 7092   5.771   1.177   1.220 -2.0745 -1.5407  1.0181
 2243SOL     OW 7093   4.010   4.619   3.848 -0.2276 -0.3255 -0.1338
 2243SOL    HW1 7094   3.916   4.634   3.842 -0.2790 -0.6102 -0.0431
 2243SOL    HW2 7095   4.026   4.544   3.790  0.3048  1.2030 -2.0906
 2244SOL     OW 7096   4.782   3.520   4.294 -0.4025 -0.0709  0.3380
 2244SOL    HW1 7097   4.822   3.501   4.378  1.3367  0.8611 -0.2339
 2244SOL    HW2 7098   4.743   3.607   4.305 -2.3928 -0.9731  0.8933
 2245SOL     OW 7099   6.558   6.109   4.819  0.6034  0.2443  0.2916
 2245SOL    HW1 7100   6.596   6.074   4.899 -0.3188 -1.6156 -0.0357
 2245SOL    HW2 7101   6.569   6.040   4.754 -1.9197  0.1853 -0.1960
 2246SOL     OW 7102   6.662   0.600   3.703  0.1666 -0.3388 -0.7184
 2246SOL    HW1 7103   6.592   0.535   3.700  0.6778 -0.9389  0.0119
 2246SOL    HW2 7104   6.640   0.663   3.634 -0.8144 -0.7957 -0.8338
 2247SOL     OW 7105   4.788   2.136   1.286  0.2345  0.2380  0.0697
 2247SOL    HW1 7106   4.734   2.212   1.307  0.5099  0.7806 -1.0632
 2247SOL    HW2 7107   4.871   2.174   1.257 -0.1982 -0.3911 -2.1659
 2248SOL     OW 7108   3.210   5.779   2.248  0.2261 -0.4994 -0.8638
 2248SOL    HW1 7109   3.284   5.723   2.272  1.2561  0.2491 -2.1582
 2248SOL    HW2 7110   3.147   5.719   2.208 -0.2383 -1.2689  0.9185
 2249SOL     OW 7111   5.874   4.921   5.695  0.3720  0.3241 -0.0869
 2249SOL    HW1 7112   5.926   4.929   5.775  1.8183  0.8868 -1.0281
 2249SOL    HW2 7113   5.935   4.883   5.631 -1.2694 -1.8336 -0.4757
 2250SOL     OW 7114   2.535   3.460   0.204  0.2803 -0.1520  0.3207
 2250SOL    HW1 7115   2.622   3.428   0.178  0.0047 -0.5287 -0.1486
 2250SOL    HW2 7116   2.517   3.415   0.286  0.8219  0.4572  0.7911
 2251SOL     OW 7117   2.029   2.718   3.713 -0.5175 -0.0059  0.2394
 2251SOL    HW1 7118   2.099   2.732   3.776 -1.0265  1.5150  0.5115
 2251SOL    HW2 7119   2.039   2.627   3.684  1.6829  0.2465  0.0941
 2252SOL     OW 7120   2.558   1.319   4.769 -0.2348  0.1541  0.0820
 2252SOL    HW1 7121   2.473   1.363   4.762 -0.0433  0.3508 -1.2879
 2252SOL    HW2 7122   2.573   1.283   4.682  1.6617  1.1858 -0.0492
 2253SOL     OW 7123   1.398   1.111   0.510 -0.3098 -0.7279 -0.1767
 2253SOL    HW1 7124   1.434   1.083   0.426  0.7061 -0.9246  0.3159
 2253SOL    HW2 7125   1.470   1.102   0.572 -0.3298  1.6507  0.2918
 2254SOL     OW 7126   5.698   3.026   0.714 -0.0553  0.0087 -0.1949
 2254SOL    HW1 7127   5.633   3.096   0.703 -0.8395 -0.7620 -0.6130
 2254SOL    HW2 7128   5.774   3.070   0.751 -1.0489  0.8392  0.9809
 2255SOL     OW 7129   3.653   1.507   4.263  0.0485 -0.3536  0.3777
 2255SOL    HW1 7130   3.633   1.599   4.242  0.8530 -0.3497 -0.4470
 2255SOL    HW2 7131   3.577   1.459   4.232  1.2466 -0.3744 -3.0270
 2256SOL     OW 7132   5.968   0.619   4.052 -0.7065 -0.1838 -0.3960
 2256SOL    HW1 7133   6.055   0.615   4.014 -0.3755  0.8613  0.2222
 2256SOL    HW2 7134   5.911   0.645   3.979 -0.5367 -1.0199 -0.8364
 2257SOL     OW 7135   3.753   5.830   5.084 -0.5815  0.1554 -0.0446
 2257SOL    HW1 7136   3.834   5.780   5.089 -2.0840 -2.4027  1.0925
 2257SOL    HW2 7137   3.741   5.866   5.172 -0.6083  0.7000 -0.2626
 2258SOL     OW 7138   0.207   0.514   4.405 -0.1372 -0.5044  0.1279
 2258SOL    HW1 7139   0.242   0.491   4.491  1.7174 -2.0904 -0.9615
 2258SOL    HW2 7140   0.256   0.592   4.379 -1.1647  0.3724  0.7379
 2259SOL     OW 7141   4.714   0.686   1.100 -0.2540  0.0945 -0.3654
 2259SOL    HW1 7142   4.809   0.700   1.100  0.1988 -2.5123 -0.6758
 2259SOL    HW2 7143   4.684   0.722   1.017  0.3555  1.3587 -0.0632
 2260SOL     OW 7144   5.870   2.541   2.476  0.6548 -0.4295 -0.1691
 2260SOL    HW1 7145   5.883   2.636   2.478  0.5784 -0.3614 -1.6691
 2260SOL    HW2 7146   5.901   2.511   2.561  1.0120  0.8956  0.1995
 2261SOL     OW 7147   6.566   3.150   5.239 -0.2247 -0.5368 -0.1352
 2261SOL    HW1 7148   6.493   3.097   5.208 -0.4461 -0.6683  0.5865
 2261SOL    HW2 7149   6.609   3.180   5.159 -1.8033  0.5866 -0.6231
 2262SOL     OW 7150   5.927   4.615   5.708  0.4857 -0.2819 -0.0685
 2262SOL    HW1 7151   5.962   4.645   5.792 -0.2695  1.4574 -0.3197
 2262SOL    HW2 7152   5.979   4.662   5.642 -0.7908  0.6097 -0.4826
 2263SOL     OW 7153   2.684   5.992   3.242 -0.2301  0.7307  0.2911
 2263SOL    HW1 7154   2.751   6.043   3.288  1.6696 -0.7090 -0.6776
 2263SOL    HW2 7155   2.719   5.984   3.153 -2.4960  1.2097 -0.7029
 2264SOL     OW 7156   2.178   2.703   6.274  0.5290 -0.9597  0.7080
 2264SOL    HW1 7157   2.245   2.636   6.263  0.4249 -1.0677  0.7288
 2264SOL    HW2 7158   2.142   2.716   6.186  1.2641 -0.1781  0.5063
 2265SOL     OW 7159   2.563   0.402   0.823  0.1554 -0.1562  0.0282
 2265SOL    HW1 7160   2.498   0.416   0.892 -1.2906  0.6522 -1.4214
 2265SOL    HW2 7161   2.602   0.317   0.843  0.3692  0.3979  2.2608
 2266SOL     OW 7162   3.096   3.848   6.265 -0.9473 -0.2348 -0.3404
 2266SOL    HW1 7163   3.178   3.803   6.244 -1.1717 -1.5414  1.3641
 2266SOL    HW2 7164   3.045   3.844   6.184  0.2394 -0.3190 -1.1147
 2267SOL     OW 7165   1.626   1.690   0.126 -0.2593 -0.2666 -0.2397
 2267SOL    HW1 7166   1.693   1.626   0.148  1.1403 -0.1105 -3.5120
 2267SOL    HW2 7167   1.629   1.697   0.031 -3.7050  1.1388 -0.3991
 2268SOL     OW 7168   6.462   4.671   2.351  0.1048 -0.2505  0.0037
 2268SOL    HW1 7169   6.522   4.684   2.278 -0.8868 -1.4703 -1.0749
 2268SOL    HW2 7170   6.414   4.753   2.359  0.7002  0.1271 -0.2504
 2269SOL     OW 7171   0.436   2.930   2.896  0.7301 -0.3903 -0.4564
 2269SOL    HW1 7172   0.455   3.023   2.891  1.9387 -0.5341  0.8408
 2269SOL    HW2 7173   0.499   2.896   2.960 -0.6962 -1.8161  0.2632
 2270SOL     OW 7174   2.556   5.018   0.759  0.1885 -0.8554  0.4427
 2270SOL    HW1 7175   2.546   5.089   0.822  0.3126  1.3959 -1.8941
 2270SOL    HW2 7176   2.621   4.960   0.798  0.0313  0.2423  2.4813
 2271SOL     OW 7177   4.263   6.757   2.448 -0.0280  0.4968  0.2984
 2271SOL    HW1 7178   4.310   6.679   2.476 -0.3560 -0.0674 -0.6708
 2271SOL    HW2 7179   4.247   6.806   2.529 -0.2689 -0.6892  0.9928
 2272SOL     OW 7180   3.597   5.631   0.291 -0.1836 -0.1947 -0.5913
 2272SOL    HW1 7181   3.660   5.701   0.301  0.0857 -0.4729 -0.3406
 2272SOL    HW2 7182   3.612   5.573   0.365 -0.9691 -0.0818 -0.3263
 2273SOL     OW 7183   5.197   4.730   3.859  0.1436 -0.0934 -0.8889
 2273SOL    HW1 7184   5.121   4.736   3.917  0.5926 -1.5258 -0.1109
 2273SOL    HW2 7185   5.271   4.756   3.914  0.1942  1.8233 -1.7870
 2274SOL     OW 7186   5.756   4.212   6.369 -0.2134 -0.3318 -0.0999
 2274SOL    HW1 7187   5.825   4.155   6.403  2.3915  1.9858 -1.0356
 2274SOL    HW2 7188   5.736   4.178   6.282  2.8950  1.1339 -1.5807
 2275SOL     OW 7189   2.520   4.753   5.508 -0.0582 -0.2637 -0.6871
 2275SOL    HW1 7190   2.604   4.788   5.478 -1.5716  1.0713 -3.7950
 2275SOL    HW2 7191   2.497   4.807   5.584  0.9616  0.7111 -1.0479
 2276SOL     OW 7192   5.440   0.290   4.119  0.0531 -0.1132  0.0579
 2276SOL    HW1 7193   5.346   0.299   4.106  0.1039  1.3549  0.5069
 2276SOL    HW2 7194   5.461   0.202   4.086 -1.6420 -0.9256  1.0478
 2277SOL     OW 7195   5.124   0.326   2.897  0.0174 -0.1405  0.2366
 2277SOL    HW1 7196   5.098   0.355   2.984  1.3759 -0.2110  0.6977
 2277SOL    HW2 7197   5.104   0.232   2.895  2.0320 -0.6548  1.3451
 2278SOL     OW 7198   5.265   5.478   0.497  0.3109  0.7268  0.8341
 2278SOL    HW1 7199   5.348   5.516   0.466  0.8854 -0.5983  0.6580
 2278SOL    HW2 7200   5.279   5.383   0.492 -1.6034  0.4378 -0.2544
 2279SOL     OW 7201   5.651   6.058   3.370  0.4730  0.0728  0.0007
 2279SOL    HW1 7202   5.607   6.064   3.285  1.1044  1.2862 -0.2739
 2279SOL    HW2 7203   5.741   6.085   3.351  0.6252  0.3391  1.0565
 2280SOL     OW 7204   2.861   1.681   5.239  0.0508  0.4894  0.2169
 2280SOL    HW1 7205   2.776   1.686   5.197 -0.6321  1.6103  1.6279
 2280SOL    HW2 7206   2.922   1.715   5.173 -0.5048 -0.6988 -0.9466
 2281SOL     OW 7207   1.970   0.772   0.717 -0.1467  0.5069 -0.5160
 2281SOL    HW1 7208   2.007   0.752   0.803 -1.6718 -0.8624 -0.1361
 2281SOL    HW2 7209   1.905   0.840   0.734  0.8841  1.6557 -0.9307
 2282SOL     OW 7210   1.868   2.758   0.564 -0.1747 -0.4945  0.3338
 2282SOL    HW1 7211   1.812   2.788   0.493  0.0817 -1.2771 -0.2037
 2282SOL    HW2 7212   1.951   2.803   0.550 -0.1972 -0.4729  0.2693
 2283SOL     OW 7213   0.547   5.510   1.770 -0.0910  0.1366 -0.4139
 2283SOL    HW1 7214   0.521   5.433   1.820  3.1947 -1.1086 -0.3823
 2283SOL    HW2 7215   0.549   5.481   1.679 -0.8127  0.8158 -0.6620
 2284SOL     OW 7216   6.679   2.265   4.725 -0.2493 -0.1468  0.5660
 2284SOL    HW1 7217   6.698   2.304   4.640  0.1722 -0.0430  0.7061
 2284SOL    HW2 7218   6.586   2.240   4.720 -0.3982  0.4499  0.3109
 2285SOL     OW 7219   6.735   0.006   3.715 -0.1876  0.3946 -0.1517
 2285SOL    HW1 7220   6.695   0.086   3.682 -0.3743  0.8318  1.0968
 2285SOL    HW2 7221   6.763   0.027   3.804 -0.1606 -0.9005  0.1727
 2286SOL     OW 7222   4.192   5.332   3.273 -0.6663 -0.3822 -0.0750
 2286SOL    HW1 7223   4.210   5.264   3.338  1.3312  0.7386  0.6039
 2286SOL    HW2 7224   4.170   5.283   3.193  0.7642 -1.8428  0.3770
 2287SOL     OW 7225   3.538   1.033   0.364 -0.2600 -0.2783 -0.2300
 2287SOL    HW1 7226   3.514   0.941   0.373 -1.4342 -0.0662 -0.9711
 2287SOL    HW2 7227   3.596   1.035   0.289 -1.1800 -0.2788 -0.9611
 2288SOL     OW 7228   2.013   2.410   6.611 -0.1346  0.2994  0.6354
 2288SOL    HW1 7229   1.961   2.390   6.533 -2.7934  0.3096  2.2668
 2288SOL    HW2 7230   2.040   2.501   6.599 -0.1855  0.1946 -0.4065
 2289SOL     OW 7231   0.951   2.317   0.715  0.0906 -0.0546 -0.3831
 2289SOL    HW1 7232   0.962   2.383   0.783 -0.3206 -0.2265 -0.1462
 2289SOL    HW2 7233   1.039   2.281   0.702  0.5585  1.3753 -1.3851
 2290SOL     OW 7234   4.817   1.368   1.282  0.0621  0.4801  0.1836
 2290SOL    HW1 7235   4.900   1.409   1.306  2.1440 -3.8544  1.5252
 2290SOL    HW2 7236   4.814   1.374   1.186  0.8630  2.3984  0.2329
 2291SOL     OW 7237   0.568   2.336   2.478 -0.2557  0.4469 -0.7291
 2291SOL    HW1 7238   0.662   2.324   2.465 -0.0802  0.2547  0.6366
 2291SOL    HW2 7239   0.553   2.311   2.569 -1.7843 -0.3842 -1.1811
 2292SOL     OW 7240   4.025   2.934   2.036  1.0062  0.3643  0.0900
 2292SOL    HW1 7241   4.039   2.843   2.010 -1.4590 -0.5021  1.4734
 2292SOL    HW2 7242   4.091   2.950   2.103 -0.1711 -1.3744  1.7779
 2293SOL     OW 7243   0.809   1.563   4.655  1.3800  0.2492  0.0157
 2293SOL    HW1 7244   0.880   1.600   4.707  0.4343  0.6544  1.0595
 2293SOL    HW2 7245   0.811   1.469   4.675  0.8655  0.4359  1.0101
 2294SOL     OW 7246   4.956   1.656   2.022  0.2068 -0.3724 -0.2824
 2294SOL    HW1 7247   5.008   1.621   2.094 -1.3082  0.4254  1.2809
 2294SOL    HW2 7248   4.952   1.750   2.038 -1.2222 -0.3384 -0.6649
 2295SOL     OW 7249   1.998   3.262   2.783 -0.1677  0.1754 -0.1732
 2295SOL    HW1 7250   2.075   3.314   2.760 -1.6047  2.0496 -1.1104
 2295SOL    HW2 7251   1.927   3.327   2.790 -1.8084 -1.5405 -0.0430
 2296SOL     OW 7252   4.482   1.896   2.210 -0.0817  0.0764  0.0438
 2296SOL    HW1 7253   4.422   1.832   2.171 -0.7283  0.5731  0.2014
 2296SOL    HW2 7254   4.536   1.844   2.270  0.9482 -0.7066 -1.4992
 2297SOL     OW 7255   5.744   5.988   6.220  0.7721  0.2277  0.3345
 2297SOL    HW1 7256   5.719   6.080   6.217  0.8962  0.2356 -0.6192
 2297SOL    HW2 7257   5.836   5.989   6.248  0.6247  0.3582  0.8282
 2298SOL     OW 7258   5.337   4.807   2.754 -0.5501 -0.5165 -0.8078
 2298SOL    HW1 7259   5.415   4.804   2.698  0.4269 -1.1661  0.5483
 2298SOL    HW2 7260   5.288   4.728   2.732 -0.8443 -0.1126 -1.6551
 2299SOL     OW 7261   4.713   5.811   3.273 -0.1893  0.0592  0.0010
 2299SOL    HW1 7262   4.652   5.841   3.205  2.1960  1.6760 -1.5645
 2299SOL    HW2 7263   4.779   5.880   3.278  1.0680 -1.1961  2.2682
 2300SOL     OW 7264   3.345   1.212   0.394 -0.2143  0.4141 -0.3551
 2300SOL    HW1 7265   3.389   1.296   0.386  1.5784 -0.5109 -0.6481
 2300SOL    HW2 7266   3.414   1.150   0.417 -1.0997 -1.3576 -2.1422
 2301SOL     OW 7267   2.112   3.650   4.237 -0.0795 -0.4212  0.0882
 2301SOL    HW1 7268   2.053   3.620   4.168 -0.2219 -0.2525  0.1336
 2301SOL    HW2 7269   2.054   3.673   4.310 -0.0796  0.9775 -0.3129
 2302SOL     OW 7270   1.741   0.694   5.149  0.0883  0.3623 -0.3958
 2302SOL    HW1 7271   1.810   0.692   5.216  0.8904  0.6153 -1.1926
 2302SOL    HW2 7272   1.787   0.713   5.068 -0.8300 -0.2630 -1.0829
 2303SOL     OW 7273   0.019   0.444   1.851 -0.0617  0.3164  0.0403
 2303SOL    HW1 7274  -0.028   0.512   1.802  0.8051  0.6290 -0.3831
 2303SOL    HW2 7275   0.047   0.382   1.784  0.7617  0.5199  0.1879
 2304SOL     OW 7276   4.242   2.283   2.358  0.4571  0.5001  0.3086
 2304SOL    HW1 7277   4.290   2.218   2.306  0.6141  2.1215 -1.6744
 2304SOL    HW2 7278   4.173   2.314   2.299 -0.5270  1.0812  1.7351
 2305SOL     OW 7279   5.648   5.803   1.247 -0.2779 -0.1062 -0.2558
 2305SOL    HW1 7280   5.669   5.801   1.153  0.7993  0.4802 -0.0523
 2305SOL    HW2 7281   5.730   5.778   1.290  0.1539  2.4528  0.6021
 2306SOL     OW 7282   4.275   4.666   4.247  0.0952  0.1401 -0.5306
 2306SOL    HW1 7283   4.308   4.756   4.235  3.6956 -1.0047 -0.2646
 2306SOL    HW2 7284   4.222   4.670   4.326  4.5551  1.2148  2.8098
 2307SOL     OW 7285   1.318   1.961   3.213 -0.3667 -0.3309 -0.1464
 2307SOL    HW1 7286   1.275   2.039   3.247  0.8417  0.5354 -0.5132
 2307SOL    HW2 7287   1.327   1.978   3.119 -2.1018 -1.9208 -0.6538
 2308SOL     OW 7288   1.577   0.518   0.956 -0.4566 -0.1423 -0.1185
 2308SOL    HW1 7289   1.552   0.479   1.040  1.1760  1.1561  1.0250
 2308SOL    HW2 7290   1.590   0.610   0.975 -0.6035  0.2994 -1.9525
 2309SOL     OW 7291   2.679   3.285   5.445  0.1912  0.7647 -0.3745
 2309SOL    HW1 7292   2.608   3.282   5.381  0.0312 -1.3237 -0.1676
 2309SOL    HW2 7293   2.636   3.315   5.526 -0.3760 -0.0542 -0.3612
 2310SOL     OW 7294   4.453   4.190   6.101 -0.0463 -0.4964 -0.5128
 2310SOL    HW1 7295   4.477   4.277   6.071  0.4579 -0.3764  0.2034
 2310SOL    HW2 7296   4.497   4.130   6.040 -0.1986 -0.2581 -0.8591
 2311SOL     OW 7297   1.479   3.163   4.374 -0.0889 -0.0091  0.3583
 2311SOL    HW1 7298   1.446   3.215   4.448 -2.7911 -0.7233 -0.2386
 2311SOL    HW2 7299   1.563   3.127   4.406  0.5883  2.5270  1.7164
 2312SOL     OW 7300   4.831   4.382   6.183  0.2853  0.3045 -0.0823
 2312SOL    HW1 7301   4.816   4.293   6.215 -0.3245 -0.1262 -1.4789
 2312SOL    HW2 7302   4.765   4.435   6.228  0.6170  0.0484  0.7160
 2313SOL     OW 7303   4.618   4.088   0.600 -0.2395  0.2850 -0.3099
 2313SOL    HW1 7304   4.573   4.095   0.685 -0.0891 -1.1199 -0.0822
 2313SOL    HW2 7305   4.688   4.152   0.605 -1.8513  2.1590 -0.4633
 2314SOL     OW 7306   0.366   4.739   0.472  0.1716  0.1193 -0.0568
 2314SOL    HW1 7307   0.355   4.674   0.402  0.2075  1.1563 -1.0415
 2314SOL    HW2 7308   0.304   4.711   0.540 -0.2786 -0.5733 -0.7339
 2315SOL     OW 7309   0.834   3.176   6.774  0.4454  0.2124  0.5147
 2315SOL    HW1 7310   0.800   3.145   6.858 -1.6231 -0.3647 -0.4727
 2315SOL    HW2 7311   0.780   3.253   6.753 -1.0791 -1.3070 -1.5637
 2316SOL     OW 7312   2.318   5.421   2.165  0.1596  0.1536  0.5853
 2316SOL    HW1 7313   2.317   5.504   2.116 -0.7887 -1.7348 -2.9311
 2316SOL    HW2 7314   2.241   5.426   2.221 -0.2603  1.4068 -0.0498
 2317SOL     OW 7315   2.706   1.941   6.785 -0.3380 -0.3670 -0.1808
 2317SOL    HW1 7316   2.689   1.914   6.695  0.9593 -0.7196 -0.3335
 2317SOL    HW2 7317   2.757   1.870   6.822 -1.4541 -0.5483  1.0618
 2318SOL     OW 7318   2.525   3.775   0.077 -0.6083 -0.1013  0.3210
 2318SOL    HW1 7319   2.507   3.777   0.171 -3.9136  0.8820 -0.1983
 2318SOL    HW2 7320   2.547   3.865   0.055  0.0839 -0.3153  0.1391
 2319SOL     OW 7321   5.364   2.033   6.163  0.5671 -0.1743  0.0042
 2319SOL    HW1 7322   5.326   2.040   6.076  1.7593 -1.9238 -0.7248
 2319SOL    HW2 7323   5.450   2.074   6.156 -0.0542  1.3540  0.9017
 2320SOL     OW 7324   2.492   6.547   6.326  0.1185  0.1454 -0.3775
 2320SOL    HW1 7325   2.443   6.622   6.294 -0.4444  0.3608  0.9314
 2320SOL    HW2 7326   2.509   6.567   6.418  2.0689 -0.2441 -0.6153
 2321SOL     OW 7327   5.737   0.043   2.077  0.4690  0.3842 -0.3150
 2321SOL    HW1 7328   5.701   0.056   1.989 -0.9665 -1.1271  0.0066
 2321SOL    HW2 7329   5.756  -0.051   2.082 -0.2985  0.2775  1.2588
 2322SOL     OW 7330   6.629   2.629   3.249 -0.3740  0.0574 -0.0063
 2322SOL    HW1 7331   6.720   2.654   3.234 -0.8220  2.4874  0.8060
 2322SOL    HW2 7332   6.633   2.536   3.273  2.0505  0.4148  1.3436
 2323SOL     OW 7333   6.649   1.334   4.166  0.3106  0.3524  0.4067
 2323SOL    HW1 7334   6.741   1.311   4.175  0.1707 -0.5015 -0.2849
 2323SOL    HW2 7335   6.648   1.430   4.166  1.1098  0.3700  1.2115
 2324SOL     OW 7336   0.699   2.747   2.080  0.0700 -0.0390 -0.6433
 2324SOL    HW1 7337   0.707   2.710   1.992  0.4978  1.2681 -1.1741
 2324SOL    HW2 7338   0.711   2.841   2.067 -0.8203  0.2795  0.6856
 2325SOL     OW 7339   0.892   5.239   3.142  0.4370 -0.4197 -0.1705
 2325SOL    HW1 7340   0.834   5.169   3.172  1.2927 -0.5858  1.1822
 2325SOL    HW2 7341   0.873   5.247   3.049 -0.6929 -1.4786 -0.0589
 2326SOL     OW 7342   3.769   0.822   1.026 -0.0658  0.0380 -0.1932
 2326SOL    HW1 7343   3.820   0.741   1.034  1.8897  1.2252 -0.0381
 2326SOL    HW2 7344   3.827   0.883   0.982 -0.1968  2.3846  2.6222
 2327SOL     OW 7345   5.944   5.540   1.693  0.1693  0.0650  0.7009
 2327SOL    HW1 7346   6.020   5.582   1.654  0.2424  0.0999  0.8789
 2327SOL    HW2 7347   5.872   5.600   1.675 -0.2250 -0.9087 -1.2476
 2328SOL     OW 7348   4.254   5.840   1.614 -0.1771  0.8495  0.0628
 2328SOL    HW1 7349   4.210   5.796   1.541 -0.5029  0.8212  0.2744
 2328SOL    HW2 7350   4.332   5.787   1.630 -1.0657 -0.2362  0.9578
 2329SOL     OW 7351   5.991   2.561   3.017 -0.6687 -0.9657 -0.2983
 2329SOL    HW1 7352   5.919   2.601   2.968  0.2401  0.9920 -0.1372
 2329SOL    HW2 7353   5.950   2.526   3.096 -1.4235  0.3958 -0.0587
 2330SOL     OW 7354   6.465   4.020   5.810  0.2562 -0.1600  0.4155
 2330SOL    HW1 7355   6.500   4.093   5.862 -1.1496  1.7834 -1.2218
 2330SOL    HW2 7356   6.375   4.009   5.841 -1.2289  2.2012 -2.5334
 2331SOL     OW 7357   6.652   3.256   4.997 -0.0555 -0.1239  0.2020
 2331SOL    HW1 7358   6.628   3.279   4.907 -0.9105  1.3905  0.7719
 2331SOL    HW2 7359   6.738   3.216   4.990  1.0236  2.1925 -1.0900
 2332SOL     OW 7360   3.385   0.482   4.797  0.0698 -0.2495 -0.0906
 2332SOL    HW1 7361   3.365   0.553   4.858  1.0604  1.5933 -1.7863
 2332SOL    HW2 7362   3.479   0.464   4.811 -0.4585 -2.3275  1.3296
 2333SOL     OW 7363   4.488   3.144   6.290  0.3892  0.1676  0.0331
 2333SOL    HW1 7364   4.451   3.097   6.365  1.2690 -1.6494 -0.6092
 2333SOL    HW2 7365   4.582   3.130   6.298  0.5849  0.8972 -0.8287
 2334SOL     OW 7366   2.713   4.670   0.031 -0.3214 -0.2348  0.1144
 2334SOL    HW1 7367   2.710   4.579   0.060 -0.4492  0.3915  2.2470
 2334SOL    HW2 7368   2.756   4.667  -0.054 -0.7046 -2.3204 -0.0464
 2335SOL     OW 7369   1.938   6.536   2.033 -0.1552  0.2654 -0.4092
 2335SOL    HW1 7370   1.946   6.508   1.942 -0.9573  0.0845 -0.4300
 2335SOL    HW2 7371   1.847   6.518   2.056  0.2206 -0.3782  0.6569
 2336SOL     OW 7372   2.277   3.990   3.964 -0.4207  0.3019  0.0992
 2336SOL    HW1 7373   2.353   3.982   4.021 -1.1292  0.6590  1.1202
 2336SOL    HW2 7374   2.204   3.958   4.016 -1.2354  1.4961 -0.2588
 2337SOL     OW 7375   2.423   4.094   5.932 -0.0280 -0.2321 -0.0421
 2337SOL    HW1 7376   2.348   4.037   5.920 -1.4929  1.3597  1.0986
 2337SOL    HW2 7377   2.445   4.087   6.025  0.5481  0.1434 -0.1411
 2338SOL     OW 7378   2.953   6.253   5.198  0.5711 -0.0751  0.1986
 2338SOL    HW1 7379   2.859   6.249   5.178  0.6418 -0.1501 -0.1255
 2338SOL    HW2 7380   2.987   6.321   5.139  0.9652 -1.0055 -0.6701
 2339SOL     OW 7381   6.478   5.797   5.331  0.0180 -0.7130 -0.2571
 2339SOL    HW1 7382   6.486   5.702   5.330 -1.0505 -0.9008  2.1959
 2339SOL    HW2 7383   6.395   5.814   5.376 -0.1016  1.3974 -1.1427
 2340SOL     OW 7384   5.382   4.365   3.983  0.2838  0.6222  0.1279
 2340SOL    HW1 7385   5.434   4.355   3.903 -0.2111 -0.3598 -0.0947
 2340SOL    HW2 7386   5.393   4.281   4.029 -0.5747  0.6431  0.3916
 2341SOL     OW 7387   0.294   2.568   4.338 -0.2652  0.7633 -0.0670
 2341SOL    HW1 7388   0.238   2.497   4.370  0.8442 -0.3946 -0.6122
 2341SOL    HW2 7389   0.233   2.636   4.312 -1.3097  1.6859  4.0713
 2342SOL     OW 7390   5.666   3.006   2.934  0.7072 -0.5920  0.3007
 2342SOL    HW1 7391   5.636   3.025   2.845 -0.1915  2.3678  1.1386
 2342SOL    HW2 7392   5.761   2.993   2.925  0.9354  1.5328 -0.8937
 2343SOL     OW 7393   6.118   2.892   1.537  0.1660 -0.3247 -0.2700
 2343SOL    HW1 7394   6.035   2.939   1.522  0.4877 -0.0628 -1.3054
 2343SOL    HW2 7395   6.172   2.955   1.585  0.8081  0.6489 -2.1558
 2344SOL     OW 7396   1.819   0.625   3.987  0.6794  0.3856 -0.1467
 2344SOL    HW1 7397   1.820   0.573   3.907  1.1472 -1.1718  0.8232
 2344SOL    HW2 7398   1.786   0.711   3.960  0.3232 -0.2656 -1.8912
 2345SOL     OW 7399   5.676   2.456   1.844  0.1682  0.7743  0.5799
 2345SOL    HW1 7400   5.662   2.433   1.752 -0.0291 -1.0509  1.0140
 2345SOL    HW2 7401   5.614   2.527   1.861 -1.5783 -0.5182 -0.0876
 2346SOL     OW 7402   2.475   6.009   0.670  0.8016  0.0078  0.4638
 2346SOL    HW1 7403   2.555   6.035   0.624  1.1582 -1.0991  0.4434
 2346SOL    HW2 7404   2.501   5.998   0.761  0.6984 -0.4597  0.4396
 2347SOL     OW 7405   1.805   6.191   2.742  0.4731 -0.7833 -0.0428
 2347SOL    HW1 7406   1.765   6.277   2.731  0.1681 -0.6411  1.8681
 2347SOL    HW2 7407   1.733   6.129   2.729  0.0568 -0.6126  1.3059
 2348SOL     OW 7408   0.460   3.266   4.039  0.2593  0.6144  0.3707
 2348SOL    HW1 7409   0.479   3.360   4.036  0.0145  0.6384 -0.8205
 2348SOL    HW2 7410   0.505   3.231   3.962 -0.5236 -0.0831  0.2303
 2349SOL     OW 7411   0.246   3.276   4.952 -0.3054  0.4091  0.1659
 2349SOL    HW1 7412   0.191   3.222   4.895 -1.5913  0.0085  1.7230
 2349SOL    HW2 7413   0.284   3.215   5.014 -0.0410  1.0173  0.6167
 2350SOL     OW 7414   3.227   1.755   6.568  0.0132  0.2737  0.3502
 2350SOL    HW1 7415   3.255   1.701   6.494  1.4285  0.8279  0.4556
 2350SOL    HW2 7416   3.285   1.730   6.640 -0.6167  0.5384  0.9709
 2351SOL     OW 7417   5.110   4.403   5.442 -0.1280  0.1513  0.2870
 2351SOL    HW1 7418   5.062   4.336   5.491  1.0976 -0.0563  1.2730
 2351SOL    HW2 7419   5.197   4.365   5.429  0.0475  0.8592 -0.6697
 2352SOL     OW 7420   5.653   4.762   5.852  0.2502 -0.3013 -0.0610
 2352SOL    HW1 7421   5.682   4.776   5.943 -0.9216  2.0527  0.0221
 2352SOL    HW2 7422   5.726   4.795   5.799 -0.0805  0.7079  0.0854
 2353SOL     OW 7423   2.658   4.632   4.732 -0.2947 -0.2237 -0.0133
 2353SOL    HW1 7424   2.707   4.560   4.772 -1.3385 -0.7901  0.3034
 2353SOL    HW2 7425   2.623   4.681   4.807 -0.5856 -0.0987 -0.2300
 2354SOL     OW 7426   0.065   0.303   4.298  0.8050  0.0238  0.2733
 2354SOL    HW1 7427  -0.022   0.328   4.328 -0.1188 -0.1193 -2.0735
 2354SOL    HW2 7428   0.123   0.372   4.331 -0.3049  0.4971  1.2681
 2355SOL     OW 7429   3.634   0.117   4.170 -0.1887 -0.3609  0.3199
 2355SOL    HW1 7430   3.546   0.096   4.137 -0.0421  0.6341 -0.7928
 2355SOL    HW2 7431   3.620   0.143   4.261 -1.6832  3.3761 -0.7834
 2356SOL     OW 7432   2.941   3.533   6.523  0.2746 -0.1181 -0.5658
 2356SOL    HW1 7433   2.974   3.617   6.554 -2.3517  1.0894 -0.8026
 2356SOL    HW2 7434   2.954   3.474   6.597  0.3435  1.0042  0.3468
 2357SOL     OW 7435   1.955   4.047   1.365 -0.4037  0.1991 -0.3627
 2357SOL    HW1 7436   1.939   4.114   1.432 -1.6926 -0.2067 -0.2408
 2357SOL    HW2 7437   1.868   4.015   1.342 -0.0223  0.5068 -2.4279
 2358SOL     OW 7438   3.148   0.386   5.548  0.3001  0.5602  0.3906
 2358SOL    HW1 7439   3.075   0.379   5.609  0.3151  0.5960  0.4134
 2358SOL    HW2 7440   3.119   0.341   5.469  0.5153 -0.0262  0.6408
 2359SOL     OW 7441   2.558   0.573   6.779  0.0216  0.0958 -0.2240
 2359SOL    HW1 7442   2.505   0.587   6.701 -1.3565  1.7223  0.9348
 2359SOL    HW2 7443   2.622   0.644   6.778 -0.2715  0.3740  0.3292
 2360SOL     OW 7444   1.043   1.167   6.193  0.0158  0.4457 -0.2601
 2360SOL    HW1 7445   1.003   1.100   6.138 -1.1884  1.3322 -0.5067
 2360SOL    HW2 7446   0.969   1.217   6.227  0.7263 -0.0478  2.1703
 2361SOL     OW 7447   3.570   6.152   2.087 -0.0112  0.6844 -0.0610
 2361SOL    HW1 7448   3.581   6.059   2.107 -0.5345  0.6442  0.0431
 2361SOL    HW2 7449   3.554   6.193   2.172  0.9497  0.9813 -0.0141
 2362SOL     OW 7450   4.635   4.359   4.778 -0.0032  0.0240 -0.3887
 2362SOL    HW1 7451   4.626   4.273   4.738 -0.9243  0.0750 -0.3122
 2362SOL    HW2 7452   4.561   4.410   4.744 -1.3870 -0.1988  2.0252
 2363SOL     OW 7453   4.056   4.744   2.224  0.4978 -0.4771  0.0325
 2363SOL    HW1 7454   3.994   4.814   2.243  0.8626 -0.1838  0.1339
 2363SOL    HW2 7455   4.115   4.743   2.299  1.2561 -0.0647 -0.5524
 2364SOL     OW 7456   5.320   5.419   4.113  0.0798  0.1689  0.0557
 2364SOL    HW1 7457   5.286   5.471   4.040 -1.7617 -0.2321  0.5813
 2364SOL    HW2 7458   5.406   5.391   4.083  1.0907  3.2969 -0.3536
 2365SOL     OW 7459   2.142   6.600   3.707 -0.0530  0.1561 -0.5490
 2365SOL    HW1 7460   2.132   6.522   3.653 -1.1666 -0.9358  1.1788
 2365SOL    HW2 7461   2.236   6.616   3.709  0.2528 -1.5646 -0.3443
 2366SOL     OW 7462   3.442   6.114   4.474 -0.2343  0.0807  0.3282
 2366SOL    HW1 7463   3.475   6.140   4.560  2.5356 -0.3411 -0.5105
 2366SOL    HW2 7464   3.455   6.019   4.471 -0.8021  0.0160 -0.3619
 2367SOL     OW 7465   6.114   6.737   0.184  0.0324 -0.0486 -0.0787
 2367SOL    HW1 7466   6.160   6.820   0.177 -0.4029  0.1829 -0.2379
 2367SOL    HW2 7467   6.139   6.703   0.270  0.5885  0.0130 -0.2122
 2368SOL     OW 7468   2.970   2.854   4.907 -0.1108  0.1152  0.6539
 2368SOL    HW1 7469   2.952   2.947   4.914  1.5672  0.5570 -0.4305
 2368SOL    HW2 7470   2.940   2.830   4.820  0.1438 -0.1851  0.6457
 2369SOL     OW 7471   1.576   5.158   1.218 -0.4898  0.0772 -0.1654
 2369SOL    HW1 7472   1.552   5.157   1.126  0.6318 -0.9592 -0.4785
 2369SOL    HW2 7473   1.606   5.069   1.236  0.1368  0.4907  0.9666
 2370SOL     OW 7474   0.549   5.274   5.408 -0.0426 -0.1275  0.1549
 2370SOL    HW1 7475   0.489   5.233   5.346 -1.8005 -0.4477  1.9450
 2370SOL    HW2 7476   0.493   5.332   5.459  1.7018  1.5833  0.2120
 2371SOL     OW 7477   1.549   5.231   2.970 -0.0417  0.1608  0.1320
 2371SOL    HW1 7478   1.491   5.157   2.985  0.0633 -0.0510 -0.4623
 2371SOL    HW2 7479   1.504   5.285   2.905  0.0156  0.4617  0.3415
 2372SOL     OW 7480   4.174   1.977   4.380 -0.2047  0.1138  0.1497
 2372SOL    HW1 7481   4.088   2.008   4.352 -0.7081 -1.3138  0.0116
 2372SOL    HW2 7482   4.227   2.056   4.390 -1.2438  0.9468 -0.7405
 2373SOL     OW 7483   1.711   5.381   5.867  0.3087  0.1730 -0.6307
 2373SOL    HW1 7484   1.620   5.391   5.894  0.0768 -3.5787  0.5031
 2373SOL    HW2 7485   1.715   5.426   5.782 -2.3291  1.1913 -0.3315
 2374SOL     OW 7486   3.456   0.156   2.656  0.2021  0.6659 -0.2143
 2374SOL    HW1 7487   3.550   0.164   2.640  0.4848 -1.7623 -0.1662
 2374SOL    HW2 7488   3.440   0.207   2.735  1.6127  0.5904  0.1464
 2375SOL     OW 7489   3.064   0.044   6.054  0.6695 -0.2258  1.1451
 2375SOL    HW1 7490   3.152   0.038   6.017 -0.3997 -0.1245 -1.6041
 2375SOL    HW2 7491   3.036   0.134   6.035 -0.5044 -0.6507  0.7677
 2376SOL     OW 7492   3.601   2.168   2.827 -0.7522 -0.3989  0.1558
 2376SOL    HW1 7493   3.540   2.160   2.900 -1.5039 -1.4702 -0.5657
 2376SOL    HW2 7494   3.547   2.201   2.755 -0.3209 -0.6485 -0.2832
 2377SOL     OW 7495   4.740   4.837   5.250 -0.5591  0.0316 -0.1688
 2377SOL    HW1 7496   4.663   4.786   5.277  0.1812 -0.1268  1.8423
 2377SOL    HW2 7497   4.815   4.782   5.275  0.2392  1.4342  0.6979
 2378SOL     OW 7498   3.749   0.788   3.452 -0.6255  0.2152  0.1578
 2378SOL    HW1 7499   3.658   0.757   3.442  0.4036 -2.6398 -1.6412
 2378SOL    HW2 7500   3.765   0.841   3.374 -0.6359  0.4530  0.3159
 2379SOL     OW 7501   0.468   3.234   3.292 -0.0793  0.1812  0.4639
 2379SOL    HW1 7502   0.405   3.163   3.304  0.7692 -0.8333 -0.8175
 2379SOL    HW2 7503   0.546   3.205   3.338  0.6177 -0.2126 -0.9317
 2380SOL     OW 7504   3.231   3.573   2.130  0.0953 -0.2706 -0.4078
 2380SOL    HW1 7505   3.195   3.486   2.146 -1.6350  0.5980  0.7419
 2380SOL    HW2 7506   3.193   3.599   2.046  0.3613 -0.5018 -0.6002
 2381SOL     OW 7507   3.752   5.878   5.360  0.2513  0.1782  0.2382
 2381SOL    HW1 7508   3.832   5.890   5.411 -0.1561  0.3226  0.8554
 2381SOL    HW2 7509   3.706   5.961   5.367  0.1460  0.1699 -0.2993
 2382SOL     OW 7510   2.436   6.311   2.284  0.0355  0.1822 -0.3275
 2382SOL    HW1 7511   2.393   6.355   2.357  0.6007 -0.9634  0.7335
 2382SOL    HW2 7512   2.395   6.348   2.206  0.4770  2.5910  0.4819
 2383SOL     OW 7513   1.468   5.409   2.772 -0.2416  0.4506 -0.0383
 2383SOL    HW1 7514   1.476   5.474   2.703 -0.8235  0.8168  0.2346
 2383SOL    HW2 7515   1.400   5.349   2.742 -0.8976  0.9336  0.4658
 2384SOL     OW 7516   3.777   3.439   5.276 -0.5345  0.2424  0.3410
 2384SOL    HW1 7517   3.760   3.476   5.362  0.2584  1.3072  0.0575
 2384SOL    HW2 7518   3.750   3.506   5.214 -1.5434 -0.6999 -0.2734
 2385SOL     OW 7519   1.045   4.288   6.078  0.3260 -0.7121 -0.7655
 2385SOL    HW1 7520   0.971   4.238   6.043 -0.6315 -0.1204  0.3642
 2385SOL    HW2 7521   1.095   4.224   6.128  0.8303 -1.2070 -1.8533
 2386SOL     OW 7522   2.455   5.062   6.355  0.6947 -0.5726 -0.3643
 2386SOL    HW1 7523   2.457   5.011   6.274  1.6440 -3.4914  1.3448
 2386SOL    HW2 7524   2.363   5.079   6.371  0.2128 -2.7977 -0.4657
 2387SOL     OW 7525   2.292   2.199   0.915 -0.3878 -0.1372  0.1390
 2387SOL    HW1 7526   2.224   2.149   0.870  0.2145 -0.0137 -0.9211
 2387SOL    HW2 7527   2.290   2.286   0.874 -1.0711  0.5774  1.6059
 2388SOL     OW 7528   1.774   2.197   0.307 -0.1297 -0.4016  0.2884
 2388SOL    HW1 7529   1.766   2.213   0.213  1.4111  1.4613  0.4097
 2388SOL    HW2 7530   1.746   2.279   0.348  0.7306 -0.6187  1.3747
 2389SOL     OW 7531   0.055   0.474   5.136  0.2201 -0.4743 -0.1168
 2389SOL    HW1 7532   0.103   0.391   5.142  1.0500  0.0004  0.0440
 2389SOL    HW2 7533   0.113   0.537   5.178 -1.4487 -0.2460  1.9957
 2390SOL     OW 7534   5.228   6.551   4.928  0.3465  0.0522  0.6121
 2390SOL    HW1 7535   5.148   6.561   4.876  0.1669 -0.1956  0.8346
 2390SOL    HW2 7536   5.299   6.569   4.867  0.1085  0.6479  0.5046
 2391SOL     OW 7537   5.861   1.339   5.502  0.6842 -0.6070 -0.1817
 2391SOL    HW1 7538   5.918   1.404   5.542 -1.7727  0.2460  2.2218
 2391SOL    HW2 7539   5.863   1.360   5.409  1.8714  1.3214  0.2236
 2392SOL     OW 7540   1.676   0.733   3.436  0.4774 -0.0942  0.2862
 2392SOL    HW1 7541   1.758   0.705   3.396 -0.5577 -0.5006 -1.7198
 2392SOL    HW2 7542   1.616   0.660   3.419 -0.8412  1.0726 -0.2222
 2393SOL     OW 7543   6.060   0.803   2.735 -0.4205  0.5895 -0.1487
 2393SOL    HW1 7544   6.016   0.832   2.815 -0.9347 -0.7684  0.0883
 2393SOL    HW2 7545   6.023   0.716   2.718  0.3720  0.4726 -1.3397
 2394SOL     OW 7546   0.830   5.044   1.583  0.9445 -0.4145  0.1624
 2394SOL    HW1 7547   0.775   5.064   1.659 -0.0997 -0.1981 -0.6198
 2394SOL    HW2 7548   0.910   5.093   1.598  1.2374 -1.2606  1.6685
 2395SOL     OW 7549   1.259   4.596   4.619  0.7271  0.2300 -0.1263
 2395SOL    HW1 7550   1.250   4.583   4.713  1.7785 -0.0636 -0.0586
 2395SOL    HW2 7551   1.176   4.566   4.583  0.7846 -0.8685  0.5977
 2396SOL     OW 7552   4.657   3.267   4.566 -0.4784 -0.5136  0.1389
 2396SOL    HW1 7553   4.718   3.253   4.494  1.5296  3.4932  0.7903
 2396SOL    HW2 7554   4.712   3.284   4.642 -2.3576  1.5465  1.1655
 2397SOL     OW 7555   4.252   2.473   6.420 -0.1569 -0.0419 -0.4833
 2397SOL    HW1 7556   4.314   2.479   6.493  0.6199 -0.5692 -1.0875
 2397SOL    HW2 7557   4.266   2.553   6.370  1.8865 -1.2776 -2.0317
 2398SOL     OW 7558   1.281   5.385   0.621 -0.0047 -0.1454 -0.1245
 2398SOL    HW1 7559   1.204   5.385   0.679 -1.0152 -1.5872 -1.3726
 2398SOL    HW2 7560   1.344   5.328   0.665 -0.2185 -0.1280  0.2109
 2399SOL     OW 7561   2.169   2.699   2.068 -0.3343  0.8011 -0.4456
 2399SOL    HW1 7562   2.186   2.607   2.046 -1.2305  0.0966  1.5267
 2399SOL    HW2 7563   2.153   2.741   1.984 -1.0306 -1.1030 -1.3273
 2400SOL     OW 7564   1.886   2.844   5.826  0.4124 -0.5393 -0.0810
 2400SOL    HW1 7565   1.896   2.879   5.737  2.7314  1.2785  0.7773
 2400SOL    HW2 7566   1.811   2.891   5.862 -0.0926 -0.7538 -0.8466
 2401SOL     OW 7567   2.441   5.675   2.724 -0.4139  0.4364  0.1713
 2401SOL    HW1 7568   2.392   5.642   2.649  0.6364  0.4278 -0.5258
 2401SOL    HW2 7569   2.382   5.662   2.798 -0.7745 -1.2259 -0.3651
 2402SOL     OW 7570   0.139   1.387   4.244  0.1488  0.1710  0.3093
 2402SOL    HW1 7571   0.137   1.476   4.281 -1.2215 -0.7630  2.7111
 2402SOL    HW2 7572   0.194   1.337   4.305  0.8066 -0.7057 -0.9437
 2403SOL     OW 7573   2.147   1.583   6.473 -0.0353  0.0557  0.1965
 2403SOL    HW1 7574   2.148   1.679   6.466 -0.6732  0.0368 -0.1587
 2403SOL    HW2 7575   2.160   1.566   6.566 -2.3603  0.5517  0.6683
 2404SOL     OW 7576   6.001   1.303   2.099  0.6389  0.1551  0.0537
 2404SOL    HW1 7577   5.914   1.344   2.095  0.2607 -0.6392  0.0470
 2404SOL    HW2 7578   5.984   1.212   2.121  1.5551  0.2717  1.3864
 2405SOL     OW 7579   5.806   1.285   6.398  1.2639  0.6572  0.8955
 2405SOL    HW1 7580   5.820   1.325   6.312  0.7756  2.8104  1.7461
 2405SOL    HW2 7581   5.892   1.288   6.439  1.5822 -0.7338  0.3667
 2406SOL     OW 7582   0.578   5.258   0.765 -0.0709 -0.2153 -0.0744
 2406SOL    HW1 7583   0.561   5.290   0.676 -0.4386  0.1884  0.1353
 2406SOL    HW2 7584   0.665   5.292   0.786 -0.2416  0.2131 -0.0501
 2407SOL     OW 7585   2.353   1.221   0.130 -0.2505  0.0144 -0.0802
 2407SOL    HW1 7586   2.295   1.229   0.055  0.4808  2.3661 -0.4489
 2407SOL    HW2 7587   2.302   1.254   0.204 -0.2764 -0.4370  0.1106
 2408SOL     OW 7588   0.512   3.712   5.251  0.0562  0.0792 -0.5344
 2408SOL    HW1 7589   0.483   3.654   5.180 -1.6414 -0.7065  0.7161
 2408SOL    HW2 7590   0.577   3.661   5.299 -0.2802 -0.1859 -0.3563
 2409SOL     OW 7591   0.360   4.557   6.292  0.0594  0.3540 -0.0102
 2409SOL    HW1 7592   0.344   4.642   6.251  0.1521  0.6639  0.5870
 2409SOL    HW2 7593   0.387   4.501   6.220 -1.0080  0.5466 -0.5913
 2410SOL     OW 7594   2.193   4.732   4.014 -0.1278 -0.2737  0.2031
 2410SOL    HW1 7595   2.276   4.734   4.061  0.3948 -1.5655 -0.6358
 2410SOL    HW2 7596   2.146   4.658   4.052  0.1731 -1.1365 -1.0700
 2411SOL     OW 7597   5.413   2.779   5.039 -0.5407 -0.4746 -0.9532
 2411SOL    HW1 7598   5.362   2.853   5.073 -0.2547 -0.5434 -0.3747
 2411SOL    HW2 7599   5.405   2.712   5.107 -0.1655 -0.6980 -1.1324
 2412SOL     OW 7600   4.648   1.547   3.241  0.1383 -0.2664  0.1066
 2412SOL    HW1 7601   4.618   1.635   3.263 -0.5831 -0.5334  0.2147
 2412SOL    HW2 7602   4.728   1.560   3.190 -0.5785  0.4811 -0.8481
 2413SOL     OW 7603   5.072   4.846   6.764 -0.4279  0.6316  0.2922
 2413SOL    HW1 7604   4.980   4.866   6.744 -1.0163 -1.8886  0.1833
 2413SOL    HW2 7605   5.073   4.830   6.858 -0.8105 -2.2501 -0.0921
 2414SOL     OW 7606   1.952   2.533   5.273  0.3034  0.3188 -0.6905
 2414SOL    HW1 7607   1.948   2.626   5.294 -2.1738  0.4912 -1.5714
 2414SOL    HW2 7608   1.945   2.530   5.177  0.0975 -0.7770 -0.6519
 2415SOL     OW 7609   3.867   4.216   4.409  0.6342  0.0592 -0.2689
 2415SOL    HW1 7610   3.958   4.194   4.428  0.4205  1.1262  2.4025
 2415SOL    HW2 7611   3.860   4.310   4.428 -0.6421  0.4119 -2.1798
 2416SOL     OW 7612   4.253   0.781   3.486 -0.0803 -0.2385 -0.0360
 2416SOL    HW1 7613   4.309   0.803   3.560 -1.0209  0.3218  0.5250
 2416SOL    HW2 7614   4.164   0.794   3.518 -0.5454  3.2970 -2.1737
 2417SOL     OW 7615   2.771   5.811   3.420  0.3224  0.4512 -0.3218
 2417SOL    HW1 7616   2.718   5.814   3.500 -1.0883 -2.2638 -1.0171
 2417SOL    HW2 7617   2.710   5.833   3.350  0.6220 -0.5716 -0.9303
 2418SOL     OW 7618   5.117   5.986   4.564  0.5127  0.2104  0.3818
 2418SOL    HW1 7619   5.155   5.941   4.639  1.9172 -1.0361 -1.0050
 2418SOL    HW2 7620   5.172   5.960   4.490 -1.6916  0.2105 -1.3496
 2419SOL     OW 7621   0.468   3.566   2.819 -0.7566  0.2828 -0.3283
 2419SOL    HW1 7622   0.465   3.470   2.823 -0.8119  0.2716 -0.6097
 2419SOL    HW2 7623   0.381   3.594   2.847 -0.3243  0.2988  1.0466
 2420SOL     OW 7624   0.441   2.063   3.286 -0.5119 -0.3294 -0.1813
 2420SOL    HW1 7625   0.356   2.019   3.295 -0.9985  0.8278  1.2947
 2420SOL    HW2 7626   0.421   2.146   3.243  0.3717 -1.3321 -2.7413
 2421SOL     OW 7627   4.479   1.021   2.941 -0.0037 -0.0710  0.2422
 2421SOL    HW1 7628   4.453   0.955   3.005  0.0826 -0.0776  0.2707
 2421SOL    HW2 7629   4.562   1.055   2.974  0.9642 -1.3240 -0.7935
 2422SOL     OW 7630   1.188   6.572   4.933  0.3726  0.7923 -0.3199
 2422SOL    HW1 7631   1.191   6.519   5.013 -0.8124  0.3427 -0.5629
 2422SOL    HW2 7632   1.104   6.617   4.937 -0.7623 -0.9171 -2.3391
 2423SOL     OW 7633   3.882   5.095   3.326 -0.0007  0.0533  0.4234
 2423SOL    HW1 7634   3.937   5.016   3.323 -0.9209 -0.6471  1.3192
 2423SOL    HW2 7635   3.844   5.101   3.238  0.2024 -0.4157  0.3003
 2424SOL     OW 7636   6.083   2.010   1.884 -0.2540 -0.3630 -0.4152
 2424SOL    HW1 7637   6.167   1.968   1.904  0.0659 -0.8136 -2.5583
 2424SOL    HW2 7638   6.099   2.103   1.901 -0.0494 -0.6850  1.3919
 2425SOL     OW 7639   0.527   5.464   4.517  0.3524  0.4743  0.0757
 2425SOL    HW1 7640   0.590   5.394   4.502  0.4295  0.3307  1.0173
 2425SOL    HW2 7641   0.565   5.516   4.587 -0.5164  0.4491  0.5794
 2426SOL     OW 7642   6.345   6.543   3.687  0.2892  0.2296 -0.2115
 2426SOL    HW1 7643   6.366   6.461   3.731  2.0869  1.2874  1.0730
 2426SOL    HW2 7644   6.406   6.547   3.613 -1.9895 -1.0325 -2.3047
 2427SOL     OW 7645   3.824   5.683   2.786 -0.1243  0.0191  0.2598
 2427SOL    HW1 7646   3.807   5.762   2.734 -0.9332 -0.7555 -0.7027
 2427SOL    HW2 7647   3.854   5.716   2.870  1.8830  1.3179 -0.8706
 2428SOL     OW 7648   2.260   0.805   1.194 -0.3620 -0.4310  0.3068
 2428SOL    HW1 7649   2.197   0.871   1.164 -0.1935 -0.7229 -0.7446
 2428SOL    HW2 7650   2.206   0.736   1.233 -0.6179 -0.1785  0.3981
 2429SOL     OW 7651   1.957   0.485   5.185  0.3607  0.0853 -0.1170
 2429SOL    HW1 7652   1.965   0.538   5.106  0.6623  0.6975  0.3104
 2429SOL    HW2 7653   1.979   0.396   5.157 -0.0600  0.1963 -0.8278
 2430SOL     OW 7654   3.383   2.841   5.829 -0.1788 -0.6338 -0.2513
 2430SOL    HW1 7655   3.472   2.827   5.796 -0.6681 -1.1337 -1.4062
 2430SOL    HW2 7656   3.330   2.857   5.751 -1.0430  0.0344  0.4530
 2431SOL     OW 7657   0.296   0.034   3.432  0.1068 -0.2095 -0.3235
 2431SOL    HW1 7658   0.376   0.002   3.473  0.9492  3.2128  1.0251
 2431SOL    HW2 7659   0.226  -0.008   3.482  1.0240 -1.7262 -0.2321
 2432SOL     OW 7660   5.601   3.991   1.179  0.9977 -0.5463  0.1474
 2432SOL    HW1 7661   5.605   3.900   1.209 -1.3376 -1.8809 -3.0343
 2432SOL    HW2 7662   5.689   4.009   1.145  1.0363 -2.2814 -0.7670
 2433SOL     OW 7663   0.555   0.826   0.196 -0.1870  0.5092  0.0714
 2433SOL    HW1 7664   0.580   0.818   0.288 -1.3052  1.3103  0.4662
 2433SOL    HW2 7665   0.466   0.789   0.193 -0.4521  1.1915 -0.5330
 2434SOL     OW 7666   1.579   0.865   1.770 -0.2440 -0.6427  0.8582
 2434SOL    HW1 7667   1.652   0.927   1.772 -2.0524  1.6215  3.2029
 2434SOL    HW2 7668   1.614   0.786   1.811  1.4411 -0.3792  0.0271
 2435SOL     OW 7669   1.910   2.790   1.759  0.2048 -0.2266 -0.7422
 2435SOL    HW1 7670   1.891   2.728   1.829 -0.0151  0.2657 -0.3635
 2435SOL    HW2 7671   2.004   2.781   1.744 -0.0924 -1.9320 -1.9270
 2436SOL     OW 7672   3.136   3.879   2.921 -0.0502  0.0795 -0.4394
 2436SOL    HW1 7673   3.204   3.913   2.863  1.1063  1.0311  1.3789
 2436SOL    HW2 7674   3.173   3.800   2.958 -0.7409 -0.4680 -0.8872
 2437SOL     OW 7675   1.997   6.771   0.649  0.1575 -0.1564 -0.8888
 2437SOL    HW1 7676   2.020   6.687   0.688 -1.4411 -0.2003  0.0287
 2437SOL    HW2 7677   2.077   6.824   0.658  0.0771 -0.3489  1.9820
 2438SOL     OW 7678   5.294   0.188   5.509  0.1665 -0.0299  0.0858
 2438SOL    HW1 7679   5.296   0.154   5.599  0.0639  0.8789  0.4394
 2438SOL    HW2 7680   5.310   0.111   5.454 -2.1721 -1.0826  0.7415
 2439SOL     OW 7681   4.314   4.407   4.973 -0.7373  0.3810  0.6895
 2439SOL    HW1 7682   4.383   4.377   5.033 -0.5659  1.2814  0.9640
 2439SOL    HW2 7683   4.269   4.327   4.947  2.3861 -0.7323 -2.0239
 2440SOL     OW 7684   5.667   0.505   6.669 -0.0815 -0.0722  0.5527
 2440SOL    HW1 7685   5.668   0.516   6.574 -1.9288  0.2120  0.5264
 2440SOL    HW2 7686   5.759   0.512   6.695  0.6208 -1.3522 -1.3297
 2441SOL     OW 7687   3.597   3.032   3.940  0.0362 -0.8213 -0.3890
 2441SOL    HW1 7688   3.554   3.101   3.890  0.2867 -0.6814 -0.4154
 2441SOL    HW2 7689   3.551   2.952   3.914  2.1557 -1.2688 -3.3719
 2442SOL     OW 7690   4.945   6.152   4.780 -0.1845  0.1208 -0.0302
 2442SOL    HW1 7691   4.901   6.229   4.817 -1.7727  0.3750 -2.2562
 2442SOL    HW2 7692   5.028   6.186   4.746  0.6245  0.1554  1.8551
 2443SOL     OW 7693   3.535   4.076   1.830  0.0719 -0.6532  0.1041
 2443SOL    HW1 7694   3.558   3.998   1.881 -0.8457 -0.1548  1.3160
 2443SOL    HW2 7695   3.466   4.047   1.771 -0.9211 -0.5749  1.1922
 2444SOL     OW 7696   5.951   3.814   0.295 -0.3492  0.0626  0.1249
 2444SOL    HW1 7697   6.025   3.874   0.286 -0.7449  0.4591 -0.5990
 2444SOL    HW2 7698   5.954   3.785   0.386  1.2438 -0.6446 -0.1315
 2445SOL     OW 7699   6.330   1.326   6.637  0.1535 -0.0550 -0.4118
 2445SOL    HW1 7700   6.376   1.326   6.553  0.5166  2.1547 -0.2558
 2445SOL    HW2 7701   6.374   1.258   6.688  3.4520  2.0175 -0.2275
 2446SOL     OW 7702   2.733   4.514   6.387 -0.1304 -0.0649  0.2424
 2446SOL    HW1 7703   2.755   4.423   6.408  1.7657 -0.0920 -1.5447
 2446SOL    HW2 7704   2.776   4.565   6.456 -0.8421 -0.4925  1.0142
 2447SOL     OW 7705   5.972   6.260   4.704 -0.1625  0.0390 -0.3134
 2447SOL    HW1 7706   5.987   6.353   4.683  0.7365  0.5958  2.3729
 2447SOL    HW2 7707   5.878   6.254   4.718 -0.1010  0.8381  0.5684
 2448SOL     OW 7708   1.969   2.175   5.606  0.7310 -0.3003  0.6599
 2448SOL    HW1 7709   2.061   2.183   5.633  0.9596 -0.9934  0.1201
 2448SOL    HW2 7710   1.945   2.086   5.629 -0.0918  0.1420  1.5999
 2449SOL     OW 7711   5.697   5.713   6.299  0.3948 -0.0684 -0.1010
 2449SOL    HW1 7712   5.631   5.727   6.367  0.3831  0.3618 -0.1970
 2449SOL    HW2 7713   5.743   5.797   6.293  1.0193 -0.3891  0.0393
 2450SOL     OW 7714   0.148   5.457   1.787  0.3768 -0.0967 -0.1899
 2450SOL    HW1 7715   0.087   5.403   1.837 -1.0806 -0.5575 -2.3222
 2450SOL    HW2 7716   0.190   5.397   1.726 -0.8237  0.9725 -2.1792
 2451SOL     OW 7717   4.125   3.543   4.688 -0.2251 -0.1868  0.2507
 2451SOL    HW1 7718   4.030   3.539   4.684 -0.2124  0.1732 -0.7844
 2451SOL    HW2 7719   4.151   3.580   4.604  0.8116  0.1098  0.6821
 2452SOL     OW 7720   3.040   2.749   5.877 -0.1140  0.3237 -0.6147
 2452SOL    HW1 7721   3.048   2.700   5.959  0.3543 -0.2270 -0.9753
 2452SOL    HW2 7722   2.970   2.811   5.893 -3.1309 -2.6426 -1.2136
 2453SOL     OW 7723   4.323   0.657   6.458  0.5208  0.1543 -0.4570
 2453SOL    HW1 7724   4.320   0.588   6.525  3.5341 -1.3647 -1.6806
 2453SOL    HW2 7725   4.337   0.738   6.507 -0.2404 -0.4901  0.8822
 2454SOL     OW 7726   1.777   1.694   5.366 -0.3129  0.1862  0.1770
 2454SOL    HW1 7727   1.773   1.789   5.362  1.5350  0.4300  2.1823
 2454SOL    HW2 7728   1.686   1.667   5.381 -0.9372  1.5618 -0.8927
 2455SOL     OW 7729   5.221   0.879   0.745 -0.6154 -0.1233  0.1219
 2455SOL    HW1 7730   5.253   0.841   0.663 -0.7592  0.1916 -0.0845
 2455SOL    HW2 7731   5.128   0.894   0.729 -1.0093 -1.5225  0.8977
 2456SOL     OW 7732   5.310   0.549   6.106 -0.2201 -0.1971 -0.4271
 2456SOL    HW1 7733   5.229   0.523   6.063  0.7748 -1.4142 -1.6676
 2456SOL    HW2 7734   5.322   0.641   6.080 -2.5761  0.9534  2.0853
 2457SOL     OW 7735   1.290   4.624   0.242 -0.1237  0.0240  0.6733
 2457SOL    HW1 7736   1.363   4.592   0.190  1.4960  0.4315  2.5889
 2457SOL    HW2 7737   1.268   4.551   0.300  0.3867  0.7001  1.7449
 2458SOL     OW 7738   1.012   2.950   5.631  0.4324  0.0174  0.0567
 2458SOL    HW1 7739   1.029   2.864   5.668 -0.7257 -1.1055 -1.8638
 2458SOL    HW2 7740   1.079   2.961   5.563  0.3041  0.4429 -0.0065
 2459SOL     OW 7741   4.334   0.823   4.153  0.3068  0.3012 -0.0352
 2459SOL    HW1 7742   4.314   0.849   4.243  0.5475 -1.2924  0.5292
 2459SOL    HW2 7743   4.421   0.858   4.136  0.7238 -0.3173  0.7758
 2460SOL     OW 7744   5.831   5.810   0.294  0.0192 -0.0258  0.1021
 2460SOL    HW1 7745   5.891   5.875   0.259  0.3481 -0.2240  0.2902
 2460SOL    HW2 7746   5.885   5.757   0.354 -0.2837 -0.3565  0.0879
 2461SOL     OW 7747   3.773   0.320   5.916 -0.2532 -0.0046 -0.5627
 2461SOL    HW1 7748   3.856   0.274   5.917  0.5485  1.3758 -0.5283
 2461SOL    HW2 7749   3.721   0.276   5.849  0.5588 -0.7685 -0.7068
 2462SOL     OW 7750   2.317   3.659   0.999  0.0023  0.0585 -0.4297
 2462SOL    HW1 7751   2.394   3.688   0.951 -1.8205  0.3888 -3.4364
 2462SOL    HW2 7752   2.351   3.605   1.070  2.9462 -0.7312 -2.2927
 2463SOL     OW 7753   4.384   4.453   4.710  0.2339  0.2835 -0.1798
 2463SOL    HW1 7754   4.324   4.388   4.675 -0.6887  0.2722  1.3807
 2463SOL    HW2 7755   4.380   4.443   4.805  2.5245  0.4448  0.0073
 2464SOL     OW 7756   2.003   0.789   6.547  0.5095 -0.5123  0.7003
 2464SOL    HW1 7757   1.913   0.758   6.531  0.8680 -1.0312 -0.4138
 2464SOL    HW2 7758   1.999   0.882   6.527  0.4059 -0.7053 -0.2686
 2465SOL     OW 7759   1.094   0.919   0.581  0.8178 -0.4923 -0.2163
 2465SOL    HW1 7760   1.077   0.928   0.675 -0.3503  1.4724 -0.5765
 2465SOL    HW2 7761   1.145   0.997   0.558  0.6977 -0.7202 -1.3129
 2466SOL     OW 7762   5.429   0.510   5.419 -0.1354  0.2359  0.0066
 2466SOL    HW1 7763   5.383   0.460   5.487  1.0662 -0.5791  0.2490
 2466SOL    HW2 7764   5.399   0.600   5.431 -1.0755 -0.1464  0.6472
 2467SOL     OW 7765   6.203   0.378   1.089 -0.6177  0.7199  0.3123
 2467SOL    HW1 7766   6.115   0.414   1.076 -0.6140 -0.1639 -3.5584
 2467SOL    HW2 7767   6.261   0.447   1.058 -0.2027 -0.0170 -0.5880
 2468SOL     OW 7768   4.332   6.768   2.945  0.3628  0.2389  0.0344
 2468SOL    HW1 7769   4.395   6.840   2.951  1.1286 -0.2823 -1.4153
 2468SOL    HW2 7770   4.258   6.798   2.998  0.5979  2.1552 -0.6233
 2469SOL     OW 7771   3.739   6.705   4.651 -0.7001 -0.0968 -0.1306
 2469SOL    HW1 7772   3.821   6.698   4.602 -0.6421  2.2910 -0.4989
 2469SOL    HW2 7773   3.676   6.654   4.599  0.0999 -0.3080 -0.9260
 2470SOL     OW 7774   1.588   0.855   0.684 -0.2251  0.3547 -0.7078
 2470SOL    HW1 7775   1.535   0.795   0.633 -0.9193  0.1915  0.1698
 2470SOL    HW2 7776   1.664   0.803   0.712 -1.4656 -0.5761  1.1639
 2471SOL     OW 7777   0.827   4.724   6.553 -0.0170  0.1720  0.0698
 2471SOL    HW1 7778   0.806   4.649   6.497 -0.8828  0.1502  0.4075
 2471SOL    HW2 7779   0.755   4.728   6.615 -0.2048  1.5515 -0.2151
 2472SOL     OW 7780   0.012   5.560   4.351  0.3160  0.1621  0.2111
 2472SOL    HW1 7781  -0.074   5.596   4.330 -0.7885 -3.0416 -1.4820
 2472SOL    HW2 7782   0.070   5.590   4.281 -0.2928 -0.3225 -0.5146
 2473SOL     OW 7783   5.388   4.185   4.599  0.4429 -0.4890 -0.1443
 2473SOL    HW1 7784   5.350   4.125   4.663  0.9641 -0.9768 -0.2738
 2473SOL    HW2 7785   5.417   4.260   4.650 -0.8568 -0.0185 -0.0732
 2474SOL     OW 7786   6.430   4.286   1.826 -0.5198 -0.3771 -0.9055
 2474SOL    HW1 7787   6.435   4.228   1.749 -0.1488 -0.2741 -0.9590
 2474SOL    HW2 7788   6.392   4.367   1.792 -0.2536 -0.2931 -1.0044
 2475SOL     OW 7789   1.698   5.457   3.326  0.4444 -0.3550 -0.3530
 2475SOL    HW1 7790   1.694   5.440   3.420 -2.4921 -2.4628 -0.7165
 2475SOL    HW2 7791   1.735   5.544   3.319 -0.0488  0.2294  2.8205
 2476SOL     OW 7792   3.618   0.209   0.535  0.2522 -0.9462  0.1908
 2476SOL    HW1 7793   3.687   0.252   0.486 -0.1286  1.9243  1.9655
 2476SOL    HW2 7794   3.653   0.122   0.557  3.1391  0.2635  0.6825
 2477SOL     OW 7795   4.562   3.502   3.984 -0.0771  0.0764 -0.0022
 2477SOL    HW1 7796   4.564   3.407   3.968 -0.2718  0.2260 -1.0207
 2477SOL    HW2 7797   4.603   3.540   3.906  1.3198  0.7739  1.0436
 2478SOL     OW 7798   0.946   6.001   3.259 -0.4186 -0.4643  0.3086
 2478SOL    HW1 7799   0.899   5.922   3.231  0.6537 -0.8109 -0.5890
 2478SOL    HW2 7800   0.968   6.046   3.177  0.7297 -0.2710  0.7093
 2479SOL     OW 7801   5.491   4.052   5.866 -0.1780  0.1656  0.3213
 2479SOL    HW1 7802   5.547   3.974   5.867  1.5604  1.3673  1.6137
 2479SOL    HW2 7803   5.437   4.044   5.944  1.1802  1.0002  1.4018
 2480SOL     OW 7804   2.864   1.455   6.722  0.1036  0.1513 -0.2875
 2480SOL    HW1 7805   2.808   1.419   6.791 -0.6188 -1.0119 -1.4241
 2480SOL    HW2 7806   2.951   1.418   6.741 -0.2735 -0.8625 -0.4782
 2481SOL     OW 7807   6.762   6.428   4.499 -0.5277  0.4860  0.2182
 2481SOL    HW1 7808   6.798   6.461   4.417 -1.7769  2.6079  0.4370
 2481SOL    HW2 7809   6.817   6.354   4.522 -0.7029 -0.7820 -2.9890
 2482SOL     OW 7810   4.361   4.276   4.000  0.8450  0.0347 -0.6780
 2482SOL    HW1 7811   4.404   4.361   4.006 -0.1887  0.4846  0.6517
 2482SOL    HW2 7812   4.417   4.217   4.050 -1.0874  1.0967  3.1207
 2483SOL     OW 7813   5.102   0.235   3.758  0.7062 -0.4981  0.4106
 2483SOL    HW1 7814   5.063   0.179   3.825  2.2735 -1.8052  0.3007
 2483SOL    HW2 7815   5.192   0.202   3.749  1.0948  0.8447 -1.0111
 2484SOL     OW 7816   0.446   1.521   5.694 -0.0578  0.1177  0.0901
 2484SOL    HW1 7817   0.519   1.480   5.740 -0.0784 -0.0833 -0.0557
 2484SOL    HW2 7818   0.470   1.518   5.602  0.1027  0.7587  0.1063
 2485SOL     OW 7819   2.096   3.437   4.680 -0.3720 -0.3267 -0.1641
 2485SOL    HW1 7820   2.108   3.522   4.722  0.8356 -1.0590  1.0526
 2485SOL    HW2 7821   2.034   3.391   4.737 -1.8265  0.0697 -1.3708
 2486SOL     OW 7822   5.312   6.499   1.083 -0.4607  0.2666 -0.1405
 2486SOL    HW1 7823   5.274   6.574   1.130  0.4477  0.2667  0.6360
 2486SOL    HW2 7824   5.244   6.432   1.087 -0.2999  0.1578  1.5065
 2487SOL     OW 7825   5.655   2.995   4.335  0.0599 -0.0228  0.2973
 2487SOL    HW1 7826   5.711   2.922   4.308  0.0346 -0.0593  0.3461
 2487SOL    HW2 7827   5.712   3.072   4.326  0.0674 -0.0408  0.1871
 2488SOL     OW 7828   2.210   4.254   6.109 -0.0227 -0.6050  0.2624
 2488SOL    HW1 7829   2.279   4.280   6.049 -0.0236 -1.6552 -0.2231
 2488SOL    HW2 7830   2.159   4.189   6.060 -2.5858  1.5541 -0.1491
 2489SOL     OW 7831   4.138   6.121   1.596 -0.0448  0.5543  0.2794
 2489SOL    HW1 7832   4.061   6.084   1.639 -0.2467 -0.8218 -1.1759
 2489SOL    HW2 7833   4.201   6.048   1.593 -0.2021  0.4592 -2.0711
 2490SOL     OW 7834   0.102   6.534   3.887  0.1637 -0.2985  0.3511
 2490SOL    HW1 7835   0.166   6.552   3.956  1.5210  2.5329 -1.4659
 2490SOL    HW2 7836   0.031   6.596   3.904  0.1568 -0.1097 -0.3472
 2491SOL     OW 7837   0.944   0.311   0.422  0.0964 -0.0279 -0.2202
 2491SOL    HW1 7838   0.995   0.386   0.392 -0.8861  0.7096 -0.1143
 2491SOL    HW2 7839   0.991   0.278   0.499 -1.3804  2.8853  2.1743
 2492SOL     OW 7840   2.919   1.349   4.546  0.1096  0.0121 -0.8669
 2492SOL    HW1 7841   2.866   1.428   4.560 -0.1244 -0.1206 -0.9888
 2492SOL    HW2 7842   2.995   1.379   4.497  0.7725  0.4230  0.3765
 2493SOL     OW 7843   0.559   1.570   6.177  0.4905  0.4560  1.0483
 2493SOL    HW1 7844   0.545   1.659   6.144 -0.0832 -0.1112 -0.3133
 2493SOL    HW2 7845   0.643   1.544   6.141  0.1975  0.0930  0.6208
 2494SOL     OW 7846   0.492   1.953   0.499 -0.3146  0.0964  0.1767
 2494SOL    HW1 7847   0.507   1.882   0.562 -0.6875 -0.9128 -0.8474
 2494SOL    HW2 7848   0.580   1.976   0.468 -0.2561 -0.5226 -0.1271
 2495SOL     OW 7849   1.393   6.333   3.657  0.2873 -0.0889  0.3906
 2495SOL    HW1 7850   1.462   6.267   3.664 -1.0102 -1.7826 -1.4072
 2495SOL    HW2 7851   1.383   6.347   3.563 -0.0472  2.1185  0.7128
 2496SOL     OW 7852   4.709   1.475   5.062 -0.4296 -0.0069  0.5640
 2496SOL    HW1 7853   4.725   1.381   5.071 -0.1045  0.0930  1.0779
 2496SOL    HW2 7854   4.674   1.501   5.148  1.2243  0.6877  1.0659
 2497SOL     OW 7855   6.358   1.048   0.359  0.3552 -0.4843 -0.1341
 2497SOL    HW1 7856   6.398   1.135   0.350 -0.7598  0.1992  1.0064
 2497SOL    HW2 7857   6.287   1.062   0.423 -1.8303 -1.5591 -2.1820
 2498SOL     OW 7858   1.909   1.211   1.219  0.5875 -0.0018 -0.0804
 2498SOL    HW1 7859   1.948   1.289   1.257  1.1959 -0.1507 -0.3795
 2498SOL    HW2 7860   1.848   1.243   1.153 -1.6113  0.3184  1.9804
 2499SOL     OW 7861   2.971   0.420   2.475  0.4536 -0.2323 -0.1733
 2499SOL    HW1 7862   2.894   0.471   2.501  1.1667  1.3132 -0.9861
 2499SOL    HW2 7863   2.936   0.352   2.417 -0.2712  0.7037 -0.8600
 2500SOL     OW 7864   2.810   1.667   5.821  0.2452 -0.0182  0.4460
 2500SOL    HW1 7865   2.852   1.601   5.766  1.6994 -0.0291  1.4960
 2500SOL    HW2 7866   2.847   1.750   5.792 -1.0020  0.2765 -0.3568
 2501SOL     OW 7867   1.463   2.607   4.893 -0.5983  0.1492 -0.2462
 2501SOL    HW1 7868   1.375   2.639   4.911 -0.8301 -0.3295 -0.5284
 2501SOL    HW2 7869   1.463   2.517   4.924  0.3912  0.7159  1.5626
 2502SOL     OW 7870   0.786   1.409   5.982  0.2717  0.3925 -0.1991
 2502SOL    HW1 7871   0.822   1.483   6.032 -0.9334  0.6935  0.2542
 2502SOL    HW2 7872   0.826   1.332   6.022  0.7770  0.7390 -0.0213
 2503SOL     OW 7873   0.809   6.361   3.403 -0.8288 -0.1826 -0.4900
 2503SOL    HW1 7874   0.774   6.408   3.479 -1.0942  2.1504 -1.9484
 2503SOL    HW2 7875   0.847   6.429   3.349 -0.2208 -1.8437 -2.2506
 2504SOL     OW 7876   5.765   3.382   4.890 -0.9917  0.2598  0.1082
 2504SOL    HW1 7877   5.707   3.454   4.867 -3.0486 -1.4461 -0.3327
 2504SOL    HW2 7878   5.762   3.380   4.986  0.1277  1.5123  0.2061
 2505SOL     OW 7879   5.903   3.121   0.891  0.6962 -0.0489 -0.0709
 2505SOL    HW1 7880   5.969   3.062   0.856  0.6786 -1.6425  2.3902
 2505SOL    HW2 7881   5.938   3.151   0.975 -1.4111 -0.5365  1.0686
 2506SOL     OW 7882   1.095   1.625   5.110  0.3302 -0.4879  0.6151
 2506SOL    HW1 7883   1.103   1.667   5.024 -1.1428  0.1416  0.7415
 2506SOL    HW2 7884   1.064   1.537   5.091 -1.5487  0.1498  0.5190
 2507SOL     OW 7885   5.512   4.137   4.197 -0.1204  0.6872 -0.2147
 2507SOL    HW1 7886   5.462   4.079   4.255  0.7096  0.7293  0.5754
 2507SOL    HW2 7887   5.564   4.191   4.257  2.8312 -1.0762 -0.9789
 2508SOL     OW 7888   6.387   1.901   1.627 -0.1617  0.3401 -0.4438
 2508SOL    HW1 7889   6.389   1.817   1.673 -1.8428  0.6807  0.3174
 2508SOL    HW2 7890   6.347   1.881   1.542  0.1663  0.2411 -0.5767
 2509SOL     OW 7891   5.447   5.286   5.656 -0.8447 -0.1065  0.3024
 2509SOL    HW1 7892   5.467   5.301   5.748  0.3141 -1.1509  0.2492
 2509SOL    HW2 7893   5.378   5.220   5.657 -0.2436 -0.7591  0.4448
 2510SOL     OW 7894   2.678   6.307   2.941 -0.1077  0.0660 -0.3643
 2510SOL    HW1 7895   2.734   6.338   2.870 -1.3257  2.3614 -0.4048
 2510SOL    HW2 7896   2.739   6.282   3.011  1.0152  1.2323 -0.8976
 2511SOL     OW 7897   5.353   0.324   2.766  0.2519 -0.6902 -0.2569
 2511SOL    HW1 7898   5.262   0.354   2.760  0.5111  0.1179 -0.2802
 2511SOL    HW2 7899   5.376   0.332   2.858  0.9814  1.2499 -0.5565
 2512SOL     OW 7900   6.796   2.046   0.560 -0.5444  0.1407 -0.1297
 2512SOL    HW1 7901   6.841   2.107   0.618 -0.7641 -0.4178  0.6481
 2512SOL    HW2 7902   6.738   2.101   0.507 -0.5571  0.6294  0.3850
 2513SOL     OW 7903   3.871   3.550   4.610  0.0543  0.3649  0.3203
 2513SOL    HW1 7904   3.810   3.478   4.595  0.6011 -0.0527  0.1006
 2513SOL    HW2 7905   3.871   3.599   4.527 -0.8104  1.0036  0.6812
 2514SOL     OW 7906   5.837   0.760   3.853 -0.6800 -0.1290 -0.1356
 2514SOL    HW1 7907   5.895   0.833   3.831 -1.5196  0.3434 -0.8577
 2514SOL    HW2 7908   5.822   0.715   3.770  0.4778 -1.6401  0.4336
 2515SOL     OW 7909   1.678   4.709   4.565  0.3401 -0.0382  0.2655
 2515SOL    HW1 7910   1.762   4.678   4.599  0.0024 -2.4492 -0.8823
 2515SOL    HW2 7911   1.615   4.643   4.595 -0.7933  0.6456 -0.5612
 2516SOL     OW 7912   6.505   5.242   2.353 -0.0692  0.0606  0.6716
 2516SOL    HW1 7913   6.550   5.288   2.282 -0.9691  0.1018  0.1075
 2516SOL    HW2 7914   6.505   5.305   2.425 -0.9672  0.8363  0.0248
 2517SOL     OW 7915   2.601   4.263   1.830 -0.4797 -0.1043 -0.2460
 2517SOL    HW1 7916   2.518   4.296   1.866 -2.3415 -1.3827 -3.0517
 2517SOL    HW2 7917   2.643   4.341   1.793  0.1776  0.7444  2.1253
 2518SOL     OW 7918   1.338   0.735   3.043  0.1999  0.2140 -0.4680
 2518SOL    HW1 7919   1.247   0.760   3.028  0.2168 -0.2567 -1.4024
 2518SOL    HW2 7920   1.382   0.817   3.065 -0.5240  0.3801  0.4086
 2519SOL     OW 7921   0.440   5.730   2.646  0.6568 -0.1544 -0.0363
 2519SOL    HW1 7922   0.412   5.691   2.563  0.6509  0.2392 -0.2214
 2519SOL    HW2 7923   0.463   5.655   2.701  0.9046 -0.4057 -0.4777
 2520SOL     OW 7924   2.512   0.996   2.164  0.2230  0.6677  0.4150
 2520SOL    HW1 7925   2.488   1.073   2.217 -2.8960  1.3160 -1.6598
 2520SOL    HW2 7926   2.501   1.025   2.074  0.8719 -1.6984 -0.4944
 2521SOL     OW 7927   6.699   3.683   0.209 -0.2094  0.2287 -0.2483
 2521SOL    HW1 7928   6.776   3.662   0.157  1.0528  0.9409  1.2656
 2521SOL    HW2 7929   6.627   3.636   0.166  0.7314  0.8424 -2.6413
 2522SOL     OW 7930   3.599   2.018   0.708  0.1132  0.6063 -0.5991
 2522SOL    HW1 7931   3.520   1.991   0.663 -0.8132  2.1419  0.0172
 2522SOL    HW2 7932   3.658   1.943   0.703 -1.7866 -0.9708 -0.1228
 2523SOL     OW 7933   1.570   2.767   4.124 -0.5304  0.2420  0.0139
 2523SOL    HW1 7934   1.584   2.860   4.105 -0.0575  0.0895 -0.3947
 2523SOL    HW2 7935   1.479   2.762   4.153 -1.0716  0.5860 -1.5396
 2524SOL     OW 7936   5.775   1.315   2.614  0.6795 -0.0884  0.1736
 2524SOL    HW1 7937   5.761   1.291   2.706  0.4438 -0.0204  0.1579
 2524SOL    HW2 7938   5.727   1.249   2.565  0.7735 -0.1017  0.1005
 2525SOL     OW 7939   5.103   0.435   3.156  0.2197  0.0528  0.1392
 2525SOL    HW1 7940   5.116   0.525   3.127  1.2155 -0.4448 -1.0384
 2525SOL    HW2 7941   5.029   0.439   3.216 -0.0453  1.5779 -0.2715
 2526SOL     OW 7942   4.653   4.998   2.203 -0.5272  0.3436 -0.3308
 2526SOL    HW1 7943   4.591   5.070   2.216 -0.2470  0.7207 -1.0304
 2526SOL    HW2 7944   4.628   4.960   2.120 -1.1949 -0.9118  0.4232
 2527SOL     OW 7945   1.214   0.680   2.198 -0.2957 -0.2982 -0.2973
 2527SOL    HW1 7946   1.222   0.661   2.104  2.2664 -2.0262  0.1571
 2527SOL    HW2 7947   1.133   0.636   2.224 -0.5570 -0.5894 -1.5345
 2528SOL     OW 7948   6.102   2.568   5.451  0.0248  0.3628 -0.1319
 2528SOL    HW1 7949   6.083   2.560   5.544 -1.5913  2.8433 -0.1548
 2528SOL    HW2 7950   6.019   2.595   5.411  0.5577 -1.0251 -2.4021
 2529SOL     OW 7951   2.434   0.600   4.711 -0.9067  0.3417  0.6866
 2529SOL    HW1 7952   2.432   0.689   4.744  2.3023  0.5789  0.4617
 2529SOL    HW2 7953   2.458   0.546   4.786  0.0776  0.0588  0.1830
 2530SOL     OW 7954   3.296   1.903   5.613 -0.5567  0.4842  0.3128
 2530SOL    HW1 7955   3.251   1.918   5.530 -0.1686 -1.0908 -0.2117
 2530SOL    HW2 7956   3.255   1.824   5.648  0.7269 -0.0819  0.5801
 2531SOL     OW 7957   3.936   4.127   0.123 -0.1581  0.1513 -0.0636
 2531SOL    HW1 7958   3.914   4.217   0.102  2.4633  0.8043 -0.3715
 2531SOL    HW2 7959   4.022   4.132   0.165 -0.4334 -2.1122  0.9592
 2532SOL     OW 7960   0.019   1.537   0.689  0.0168 -0.3085 -0.1528
 2532SOL    HW1 7961   0.010   1.522   0.595  4.5675 -0.8609 -0.7565
 2532SOL    HW2 7962   0.034   1.450   0.727  0.5868  0.1144  0.6488
 2533SOL     OW 7963   4.181   0.668   2.666  0.2146 -0.3239  0.5329
 2533SOL    HW1 7964   4.111   0.706   2.612  0.8219 -1.8026 -1.3890
 2533SOL    HW2 7965   4.232   0.743   2.695 -1.4519  0.6952  1.0053
 2534SOL     OW 7966   5.882   3.941   1.274  0.1886 -0.2128  0.0544
 2534SOL    HW1 7967   5.973   3.932   1.302  0.0808 -0.0685  0.4503
 2534SOL    HW2 7968   5.884   3.920   1.181  1.1409  2.8349 -0.7026
 2535SOL     OW 7969   5.861   6.512   1.312 -0.1141 -0.0849 -0.3599
 2535SOL    HW1 7970   5.779   6.545   1.350  0.8051 -1.5690  3.2846
 2535SOL    HW2 7971   5.925   6.580   1.330  0.2853 -0.7082  0.6420
 2536SOL     OW 7972   3.887   2.400   4.194 -0.3829 -0.2051  0.4713
 2536SOL    HW1 7973   3.881   2.374   4.286  0.0305 -1.1461  0.2429
 2536SOL    HW2 7974   3.810   2.360   4.153 -0.6019  0.2692  0.4213
 2537SOL     OW 7975   1.110   0.308   0.845  0.6751 -0.9424  0.0213
 2537SOL    HW1 7976   1.160   0.323   0.764 -0.4872  1.5317 -0.3552
 2537SOL    HW2 7977   1.162   0.351   0.913  1.3867 -2.5660  0.5503
 2538SOL     OW 7978   0.612   1.646   0.750  0.4936 -0.1065 -0.2630
 2538SOL    HW1 7979   0.654   1.575   0.700  0.2975  0.0514 -0.6544
 2538SOL    HW2 7980   0.519   1.622   0.752  0.5266 -0.2083  0.1942
 2539SOL     OW 7981   0.638   0.357   4.356  0.0634 -0.0542 -0.4001
 2539SOL    HW1 7982   0.561   0.320   4.398  0.5797 -1.2882 -0.5128
 2539SOL    HW2 7983   0.607   0.387   4.270 -0.8726  1.9976  0.5911
 2540SOL     OW 7984   2.919   5.604   3.300 -0.2224  0.4333 -0.9676
 2540SOL    HW1 7985   2.840   5.552   3.314  0.0199  0.1549 -0.6177
 2540SOL    HW2 7986   2.918   5.669   3.370  1.7476 -1.8705  1.3940
 2541SOL     OW 7987   3.877   2.476   0.885  0.0957 -0.0350 -0.7921
 2541SOL    HW1 7988   3.842   2.389   0.903  1.8547 -0.4685  0.9043
 2541SOL    HW2 7989   3.837   2.532   0.952 -1.3060  0.6068 -2.0916
 2542SOL     OW 7990   2.290   0.526   0.947  0.1459  0.6458  0.0059
 2542SOL    HW1 7991   2.328   0.564   0.868  2.2011  1.3505  1.2373
 2542SOL    HW2 7992   2.335   0.570   1.019 -1.1557 -0.4456  1.5783
 2543SOL     OW 7993   5.265   2.544   5.890  0.1190  0.0686 -0.0780
 2543SOL    HW1 7994   5.320   2.469   5.868 -0.4596  0.2713 -2.5318
 2543SOL    HW2 7995   5.327   2.614   5.912  0.6661 -0.9544  1.8105
 2544SOL     OW 7996   1.823   4.711   4.962 -0.0498  0.5472  0.2910
 2544SOL    HW1 7997   1.911   4.675   4.959 -0.0694  0.5561 -1.0092
 2544SOL    HW2 7998   1.834   4.800   4.996  0.2774  0.1343  1.2941
 2545SOL     OW 7999   5.476   1.637   4.820  0.5331 -0.3501  0.6267
 2545SOL    HW1 8000   5.566   1.618   4.844  1.2148  0.8123 -0.7909
 2545SOL    HW2 8001   5.424   1.572   4.866  2.0067 -0.4712  2.2112
 2546SOL     OW 8002   1.168   1.148   2.807  0.3684 -0.2034  0.0314
 2546SOL    HW1 8003   1.241   1.177   2.862 -0.0442  1.0484 -0.0390
 2546SOL    HW2 8004   1.179   1.054   2.800  0.7288 -0.3317  1.8260
 2547SOL     OW 8005   0.754   3.416   0.248 -0.1541 -0.4171 -0.1630
 2547SOL    HW1 8006   0.737   3.329   0.285 -0.7868  0.3670  1.4824
 2547SOL    HW2 8007   0.849   3.426   0.254 -0.1006 -0.9058 -0.1444
 2548SOL     OW 8008   0.380   2.266   6.533 -0.3472  0.0461 -0.1028
 2548SOL    HW1 8009   0.399   2.356   6.562 -1.3129  0.3500 -0.3759
 2548SOL    HW2 8010   0.413   2.262   6.443 -0.0567  0.0362  0.0023
 2549SOL     OW 8011   5.349   5.926   4.135  0.2940  0.0173 -0.7170
 2549SOL    HW1 8012   5.363   5.870   4.058 -0.9257 -1.6903  0.2245
 2549SOL    HW2 8013   5.348   6.015   4.100  0.8585 -0.6206 -2.4982
 2550SOL     OW 8014   4.944   1.255   1.870 -0.0990 -0.0310 -0.6291
 2550SOL    HW1 8015   5.010   1.269   1.937 -0.1337 -0.0144 -0.5989
 2550SOL    HW2 8016   4.873   1.315   1.892  0.2756  0.6376 -1.1962
 2551SOL     OW 8017   4.358   6.400   3.941  0.2333  0.1100  0.0396
 2551SOL    HW1 8018   4.406   6.317   3.934 -0.0714  0.0763 -2.4076
 2551SOL    HW2 8019   4.407   6.461   3.887 -1.2763  0.6456 -0.7801
 2552SOL     OW 8020   1.770   3.266   3.340  0.4943  0.3192 -0.2473
 2552SOL    HW1 8021   1.830   3.248   3.269 -0.5730  1.1671 -1.4052
 2552SOL    HW2 8022   1.699   3.316   3.300  0.1144  1.2844  1.5099
 2553SOL     OW 8023   3.170   6.644   3.816 -0.2446 -0.0951  0.5277
 2553SOL    HW1 8024   3.142   6.731   3.788  1.4418  0.0026 -1.0126
 2553SOL    HW2 8025   3.110   6.584   3.772  0.3726  0.2011 -0.7657
 2554SOL     OW 8026   5.362   4.289   5.379 -0.1139  0.0523 -0.4560
 2554SOL    HW1 8027   5.380   4.383   5.393  0.0178 -0.1089  0.5984
 2554SOL    HW2 8028   5.391   4.248   5.461 -1.5184 -0.7304 -0.3231
 2555SOL     OW 8029   2.209   6.203   0.197  0.4467 -0.3000  0.2728
 2555SOL    HW1 8030   2.184   6.170   0.111  0.3613  1.4457 -0.4004
 2555SOL    HW2 8031   2.144   6.166   0.257  0.4784 -1.4906 -0.3947
 2556SOL     OW 8032   5.984   5.305   6.136  0.2951 -0.5013  0.1445
 2556SOL    HW1 8033   6.077   5.323   6.131  0.3658 -1.0957 -4.2500
 2556SOL    HW2 8034   5.941   5.384   6.104 -0.4605 -1.3122 -0.9481
 2557SOL     OW 8035   3.610   5.493   6.402 -0.1337 -0.0037 -0.0036
 2557SOL    HW1 8036   3.520   5.519   6.385  0.4565  1.2805 -1.3841
 2557SOL    HW2 8037   3.603   5.406   6.440 -1.9542  0.1608  0.1229
 2558SOL     OW 8038   1.388   0.068   5.046 -0.3662  0.1941 -0.2288
 2558SOL    HW1 8039   1.426   0.154   5.065 -0.8613 -0.2517  3.6800
 2558SOL    HW2 8040   1.293   0.084   5.046 -0.4414 -0.2430 -0.1437
 2559SOL     OW 8041   6.706   3.454   2.251 -0.3740 -0.3198 -0.7429
 2559SOL    HW1 8042   6.700   3.392   2.324 -1.5672 -1.7694 -1.9981
 2559SOL    HW2 8043   6.797   3.448   2.221 -0.3956 -1.2693 -0.6510
 2560SOL     OW 8044   2.990   3.729   3.885 -0.1410  0.7923  0.1480
 2560SOL    HW1 8045   3.061   3.728   3.821 -1.5442  1.1632 -1.4641
 2560SOL    HW2 8046   2.911   3.717   3.834 -1.3083  0.8711  1.8539
 2561SOL     OW 8047   5.998   0.486   4.315  0.0444  0.3376  0.0870
 2561SOL    HW1 8048   5.902   0.487   4.324  0.2405  1.6933  3.5362
 2561SOL    HW2 8049   6.014   0.517   4.226 -2.6881 -2.4337 -1.5625
 2562SOL     OW 8050   1.728   3.659   6.271 -0.3458 -0.4476  0.1308
 2562SOL    HW1 8051   1.681   3.628   6.347 -1.5716 -1.4778 -1.0097
 2562SOL    HW2 8052   1.662   3.705   6.219  0.9194  2.1685  0.6717
 2563SOL     OW 8053   3.076   6.483   5.610 -0.7223 -0.4983  0.2678
 2563SOL    HW1 8054   3.085   6.578   5.617 -1.7289 -0.4195  0.7794
 2563SOL    HW2 8055   2.981   6.468   5.615 -0.5878 -1.5132 -0.0304
 2564SOL     OW 8056   2.606   2.816   4.137 -0.1006 -0.1838  0.4069
 2564SOL    HW1 8057   2.605   2.912   4.138  1.0983 -0.1451 -0.2455
 2564SOL    HW2 8058   2.683   2.793   4.084 -0.4628 -1.5081  0.4138
 2565SOL     OW 8059   3.118   1.935   4.308  0.5199  0.5715 -0.3506
 2565SOL    HW1 8060   3.150   1.847   4.331  0.3479  0.7129  0.4479
 2565SOL    HW2 8061   3.110   1.933   4.212  1.0454 -0.1018 -0.3889
 2566SOL     OW 8062   0.989   5.605   1.021 -0.5281 -0.2196 -0.2441
 2566SOL    HW1 8063   0.897   5.628   1.008 -0.9554 -1.6284  0.0481
 2566SOL    HW2 8064   1.035   5.652   0.952 -0.9317  3.4408  1.7388
 2567SOL     OW 8065   3.851   0.701   1.824  0.2909 -0.6539 -0.9649
 2567SOL    HW1 8066   3.879   0.611   1.807  3.0987 -0.3387  1.2812
 2567SOL    HW2 8067   3.868   0.748   1.743  0.8374 -1.7458 -1.4959
 2568SOL     OW 8068   1.198   5.939   3.475 -0.2858  0.3658 -0.6018
 2568SOL    HW1 8069   1.209   6.014   3.417 -0.2391 -0.0373 -1.1151
 2568SOL    HW2 8070   1.151   5.875   3.423 -2.7075  0.9936  0.6524
 2569SOL     OW 8071   0.568   1.267   1.323  0.4626 -0.5180 -0.2062
 2569SOL    HW1 8072   0.491   1.218   1.296  1.0058 -1.1759 -0.6075
 2569SOL    HW2 8073   0.581   1.244   1.415 -2.0186  2.5502  1.0949
 2570SOL     OW 8074   1.738   0.230   4.225  0.0659  0.1610 -0.4196
 2570SOL    HW1 8075   1.711   0.139   4.213 -0.1475 -0.1634  2.0661
 2570SOL    HW2 8076   1.679   0.279   4.168 -0.0033 -1.2036 -1.5862
 2571SOL     OW 8077   0.958   4.530   3.524  0.5528 -0.3188  0.2134
 2571SOL    HW1 8078   0.959   4.581   3.605 -2.5323 -1.6064  1.2357
 2571SOL    HW2 8079   0.977   4.440   3.552  0.5360 -0.6068 -0.6641
 2572SOL     OW 8080   4.485   1.011   3.813 -0.0385  0.8477  0.0259
 2572SOL    HW1 8081   4.485   1.068   3.736  0.2497  2.1255  0.9362
 2572SOL    HW2 8082   4.405   1.035   3.860 -0.5689 -0.4004 -0.1838
 2573SOL     OW 8083   2.889   2.572   4.756  0.5491  0.0202  0.4210
 2573SOL    HW1 8084   2.925   2.483   4.752  0.3646 -0.0653  0.6510
 2573SOL    HW2 8085   2.816   2.571   4.694  0.2739 -0.1172  0.7409
 2574SOL     OW 8086   3.630   6.458   2.512 -0.1039  0.0591  0.1246
 2574SOL    HW1 8087   3.568   6.487   2.445 -2.8038 -2.5773  1.2644
 2574SOL    HW2 8088   3.600   6.501   2.593  0.6610  0.0856  0.4046
 2575SOL     OW 8089   4.065   1.028   0.212 -0.2434  0.3117 -0.7083
 2575SOL    HW1 8090   4.043   1.115   0.181  0.5524  0.2373 -1.5265
 2575SOL    HW2 8091   4.156   1.015   0.185  0.5453  0.2579  1.7328
 2576SOL     OW 8092   1.797   3.190   4.603 -0.2888  0.6811  0.3608
 2576SOL    HW1 8093   1.708   3.175   4.632 -1.2582  2.2740 -1.5697
 2576SOL    HW2 8094   1.843   3.222   4.680 -1.6923  0.9970  1.0891
 2577SOL     OW 8095   1.937   1.765   5.875  0.2343 -0.4063 -0.0106
 2577SOL    HW1 8096   1.859   1.720   5.843 -1.3072  0.5738  2.1193
 2577SOL    HW2 8097   1.950   1.837   5.814 -0.4728 -0.6406 -0.4494
 2578SOL     OW 8098   6.659   6.049   3.860 -0.1892  0.6288  0.1780
 2578SOL    HW1 8099   6.754   6.036   3.866  0.0205  1.8557 -0.2138
 2578SOL    HW2 8100   6.643   6.066   3.767 -0.4584  2.6379  0.5378
 2579SOL     OW 8101   2.578   1.251   5.077 -0.3311 -0.4289  0.0954
 2579SOL    HW1 8102   2.613   1.275   4.991 -0.5446  0.1217  0.1562
 2579SOL    HW2 8103   2.485   1.232   5.060 -0.3128 -0.5713  0.1574
 2580SOL     OW 8104   1.352   1.293   1.025 -0.0023 -0.2827 -0.2400
 2580SOL    HW1 8105   1.290   1.365   1.016  1.3514  0.8298 -1.0565
 2580SOL    HW2 8106   1.331   1.235   0.952  0.0530  0.2031 -0.6484
 2581SOL     OW 8107   4.012   2.492   2.620  0.1979 -0.5352 -0.0271
 2581SOL    HW1 8108   3.972   2.464   2.702  2.1908  0.6990  1.4908
 2581SOL    HW2 8109   3.949   2.470   2.553 -2.3823  0.1022  2.0325
 2582SOL     OW 8110   1.683   6.044   3.290  0.1901 -0.2556  0.2738
 2582SOL    HW1 8111   1.711   6.102   3.361  0.3624  0.5699 -0.4468
 2582SOL    HW2 8112   1.743   6.064   3.218 -0.2045 -0.8255 -0.2264
 2583SOL     OW 8113   2.388   1.863   2.372 -0.2948  0.3470  0.1533
 2583SOL    HW1 8114   2.309   1.918   2.372  1.3816  2.9398  1.4674
 2583SOL    HW2 8115   2.394   1.830   2.282 -1.4135  2.3304 -0.7179
 2584SOL     OW 8116   2.738   5.533   2.949  0.1998  0.1139 -0.0157
 2584SOL    HW1 8117   2.674   5.483   2.898  2.7383 -2.3531 -1.0624
 2584SOL    HW2 8118   2.729   5.623   2.918 -1.7097 -0.4063 -1.1488
 2585SOL     OW 8119   2.919   4.138   3.449  0.2945  0.0236  0.2465
 2585SOL    HW1 8120   2.858   4.189   3.502  2.4083  0.1837  2.7285
 2585SOL    HW2 8121   3.005   4.176   3.468  1.9395 -3.9510  1.7237
 2586SOL     OW 8122   2.657   0.794   2.272 -0.0807 -0.1935 -0.4081
 2586SOL    HW1 8123   2.625   0.870   2.222  0.7559  0.2892 -0.2360
 2586SOL    HW2 8124   2.749   0.814   2.287  1.8480 -3.6688 -5.1130
 2587SOL     OW 8125   0.064   1.138   5.195 -0.1531  0.6509  0.1657
 2587SOL    HW1 8126   0.076   1.090   5.113  0.5193  2.1504 -0.6408
 2587SOL    HW2 8127  -0.031   1.135   5.212 -0.2947  0.3527 -0.6713
 2588SOL     OW 8128   0.340   1.405   2.784 -0.5583  0.4285 -0.1301
 2588SOL    HW1 8129   0.326   1.460   2.861 -0.5601  1.1695 -0.6621
 2588SOL    HW2 8130   0.329   1.463   2.709  0.6991 -0.0038 -0.6730
 2589SOL     OW 8131   2.266   5.584   3.009  0.0199  0.1000 -0.2194
 2589SOL    HW1 8132   2.196   5.538   3.056 -0.6482  1.3291  0.0477
 2589SOL    HW2 8133   2.219   5.637   2.943  0.6333  1.2826  0.2569
 2590SOL     OW 8134   5.752   5.810   0.977 -0.4361  0.3475 -0.3955
 2590SOL    HW1 8135   5.800   5.893   0.971 -0.1695  0.0779 -3.0718
 2590SOL    HW2 8136   5.819   5.746   1.000 -0.0434  0.4318 -1.2642
 2591SOL     OW 8137   2.809   4.961   1.631 -0.3642  0.2410  0.3328
 2591SOL    HW1 8138   2.807   5.030   1.698 -0.1158  1.3226 -0.7292
 2591SOL    HW2 8139   2.902   4.946   1.615 -0.4095 -0.7478  0.9399
 2592SOL     OW 8140   2.445   5.658   4.952  0.2296 -0.2247 -0.3161
 2592SOL    HW1 8141   2.479   5.678   5.040 -0.9575 -0.1169  0.1384
 2592SOL    HW2 8142   2.485   5.724   4.896 -1.2775  1.6276  0.6625
 2593SOL     OW 8143   1.220   5.508   6.338  0.0049 -0.1292  0.4847
 2593SOL    HW1 8144   1.162   5.474   6.406 -0.1453  0.4103  0.6245
 2593SOL    HW2 8145   1.291   5.444   6.334  0.6673  0.4862  2.0207
 2594SOL     OW 8146   5.159   0.869   2.590 -0.1103 -0.1460 -0.5853
 2594SOL    HW1 8147   5.206   0.817   2.525  0.3231 -1.8656  1.0175
 2594SOL    HW2 8148   5.073   0.827   2.598 -0.2211  0.1529 -0.1734
 2595SOL     OW 8149   6.170   3.910   3.935  0.2333 -0.4101 -0.1027
 2595SOL    HW1 8150   6.220   3.980   3.893  0.7826  0.4791  1.9215
 2595SOL    HW2 8151   6.116   3.954   4.001 -0.2241 -1.7706  0.4763
 2596SOL     OW 8152   3.509   1.740   1.398 -0.0385  0.4613 -0.3883
 2596SOL    HW1 8153   3.414   1.734   1.397  0.0697 -2.2953 -0.2062
 2596SOL    HW2 8154   3.530   1.763   1.489 -0.4814 -0.5641 -0.0191
 2597SOL     OW 8155   1.644   2.594   6.711  0.2701  0.7005  0.5435
 2597SOL    HW1 8156   1.643   2.645   6.630  1.8422  1.1410  0.7813
 2597SOL    HW2 8157   1.731   2.607   6.747  0.2481 -1.0598  1.3290
 2598SOL     OW 8158   5.095   5.617   5.725 -0.2980 -0.3572  0.4112
 2598SOL    HW1 8159   5.060   5.543   5.675 -1.9213  0.0193  0.9088
 2598SOL    HW2 8160   5.024   5.640   5.785  0.4296  1.1798  0.7262
 2599SOL     OW 8161   6.278   2.793   1.076  0.0772 -0.1139  0.0840
 2599SOL    HW1 8162   6.347   2.812   1.012  0.8711 -0.0953  0.9149
 2599SOL    HW2 8163   6.205   2.761   1.024  0.6305  0.1033 -0.8506
 2600SOL     OW 8164   4.239   5.827   0.818 -0.1615 -0.0905  0.3199
 2600SOL    HW1 8165   4.315   5.865   0.775 -0.1070  0.2607  0.7206
 2600SOL    HW2 8166   4.256   5.733   0.818  1.2269  0.1129  2.1892
 2601SOL     OW 8167   5.653   3.429   4.379 -0.0445 -0.3014 -0.3967
 2601SOL    HW1 8168   5.656   3.524   4.389  0.0316 -0.4642  1.6566
 2601SOL    HW2 8169   5.658   3.414   4.285  0.4573  1.7047 -0.7327
 2602SOL     OW 8170   2.879   3.910   5.848 -0.3947 -0.4600 -0.7262
 2602SOL    HW1 8171   2.897   4.004   5.848  0.0432 -0.3704  3.1436
 2602SOL    HW2 8172   2.959   3.869   5.816  0.8442  0.4640  1.0226
 2603SOL     OW 8173   6.244   2.155   5.577 -0.9227  0.2306  0.1118
 2603SOL    HW1 8174   6.184   2.142   5.504  1.1108  2.1037 -2.0358
 2603SOL    HW2 8175   6.311   2.088   5.565 -0.9685  0.0620  0.7474
 2604SOL     OW 8176   2.004   1.744   0.789 -0.2419 -0.0625 -0.0229
 2604SOL    HW1 8177   2.022   1.700   0.706 -0.5083 -1.7413  0.7796
 2604SOL    HW2 8178   1.922   1.791   0.774 -1.1725 -1.6949 -0.2433
 2605SOL     OW 8179   4.014   2.829   4.679  0.0998  0.2024  0.3943
 2605SOL    HW1 8180   3.929   2.794   4.705  0.2494  0.0315  0.6588
 2605SOL    HW2 8181   4.009   2.923   4.700  0.5104 -0.0687  1.8692
 2606SOL     OW 8182   3.370   3.141   5.042  0.2867 -0.4233  0.5183
 2606SOL    HW1 8183   3.394   3.209   5.104  0.9033  0.0062 -0.1843
 2606SOL    HW2 8184   3.281   3.163   5.015  0.4247  0.0128  0.4182
 2607SOL     OW 8185   4.147   1.795   1.889  0.3419 -0.0805  0.2722
 2607SOL    HW1 8186   4.115   1.707   1.871 -1.6077  0.3918  1.1740
 2607SOL    HW2 8187   4.079   1.853   1.856  0.7747  1.0387  1.2608
 2608SOL     OW 8188   2.818   5.543   1.077 -0.2590 -0.5324 -0.1250
 2608SOL    HW1 8189   2.841   5.635   1.093  2.3406 -0.9637 -0.9051
 2608SOL    HW2 8190   2.743   5.547   1.019 -1.7312  1.0448  1.7336
 2609SOL     OW 8191   6.401   1.635   0.192  0.0423  0.0222 -0.0356
 2609SOL    HW1 8192   6.492   1.664   0.194 -0.3566  1.5125 -1.6176
 2609SOL    HW2 8193   6.363   1.669   0.273  0.6186  0.3146  0.1176
 2610SOL     OW 8194   3.914   2.900   0.003 -0.5662  0.3625 -0.4174
 2610SOL    HW1 8195   3.977   2.845   0.050 -0.3405  0.2545 -0.8412
 2610SOL    HW2 8196   3.932   2.883  -0.090 -1.8331 -0.3899 -0.5520
 2611SOL     OW 8197   0.882   4.508   2.437 -0.7538 -0.0817  0.3014
 2611SOL    HW1 8198   0.918   4.547   2.358  1.9549  0.8530  1.8525
 2611SOL    HW2 8199   0.899   4.414   2.429 -0.2648  0.0425 -0.1010
 2612SOL     OW 8200   6.504   3.618   5.663 -0.3331 -0.2895  0.0847
 2612SOL    HW1 8201   6.538   3.533   5.635 -1.4910 -0.2509 -1.5885
 2612SOL    HW2 8202   6.581   3.668   5.690  0.7459 -0.8261 -1.8548
 2613SOL     OW 8203   6.574   1.185   4.413  0.3123 -0.1458 -0.8663
 2613SOL    HW1 8204   6.584   1.227   4.327  0.2853 -0.6523 -1.1233
 2613SOL    HW2 8205   6.481   1.197   4.434  0.7399  1.9224  0.1334
 2614SOL     OW 8206   6.166   1.435   1.298 -0.5642 -0.0878  0.3422
 2614SOL    HW1 8207   6.219   1.483   1.361 -0.1292  0.9268 -0.7502
 2614SOL    HW2 8208   6.163   1.346   1.331 -0.9731  0.5670  2.1697
 2615SOL     OW 8209   6.443   1.444   5.016 -0.6513 -0.1854 -0.3526
 2615SOL    HW1 8210   6.357   1.441   4.974 -0.1681  1.3279 -1.5537
 2615SOL    HW2 8211   6.505   1.417   4.948 -0.1856 -2.0383  0.7189
 2616SOL     OW 8212   2.031   6.755   1.699 -0.3559  0.4036 -0.1195
 2616SOL    HW1 8213   1.985   6.800   1.770  2.6790  0.8949  1.7438
 2616SOL    HW2 8214   2.010   6.806   1.621 -3.0470  0.4319  0.5343
 2617SOL     OW 8215   3.106   2.789   1.890  0.5584 -0.1447 -0.2697
 2617SOL    HW1 8216   3.079   2.770   1.800  0.0019 -0.5266 -0.0337
 2617SOL    HW2 8217   3.196   2.757   1.895  0.2201 -1.1774 -0.3866
 2618SOL     OW 8218   6.152   2.764   4.975  0.2037  0.3615 -0.3586
 2618SOL    HW1 8219   6.063   2.766   4.939 -0.6443 -1.4458  1.4860
 2618SOL    HW2 8220   6.208   2.756   4.898 -1.2659  0.6541 -1.5172
 2619SOL     OW 8221   6.262   6.342   5.643 -0.4513 -0.5418 -0.0003
 2619SOL    HW1 8222   6.258   6.421   5.590  1.4114 -1.3154 -1.4250
 2619SOL    HW2 8223   6.181   6.294   5.621 -2.0543  1.2760  1.5727
 2620SOL     OW 8224   2.170   4.607   5.942  0.0132  0.6603  0.1629
 2620SOL    HW1 8225   2.113   4.555   5.998 -0.8732  1.4828  0.0436
 2620SOL    HW2 8226   2.259   4.584   5.971 -0.1718 -2.6349 -1.3962
 2621SOL     OW 8227   3.746   1.740   0.140 -0.1458 -0.4156  0.2048
 2621SOL    HW1 8228   3.746   1.660   0.087 -0.0219  0.0728 -0.5570
 2621SOL    HW2 8229   3.815   1.726   0.205  2.0580  0.2443 -1.8340
 2622SOL     OW 8230   4.107   3.920   5.284 -0.3339  0.2145  0.4681
 2622SOL    HW1 8231   4.186   3.965   5.313 -0.3709  1.4716 -1.2731
 2622SOL    HW2 8232   4.138   3.852   5.224 -0.4766 -0.3918  1.0657
 2623SOL     OW 8233   5.636   4.392   2.226  0.0134 -0.1523 -0.8673
 2623SOL    HW1 8234   5.541   4.385   2.214  0.1205 -2.0492 -0.9801
 2623SOL    HW2 8235   5.655   4.486   2.221 -2.3129  0.7210  2.7358
 2624SOL     OW 8236   5.584   2.909   5.455  0.0662 -0.4033  0.8356
 2624SOL    HW1 8237   5.546   2.845   5.515 -1.6476 -1.2089 -0.9901
 2624SOL    HW2 8238   5.553   2.994   5.489  0.2257 -0.7260  1.8183
 2625SOL     OW 8239   1.037   4.985   6.249  0.5430  0.8934 -0.0376
 2625SOL    HW1 8240   1.039   5.031   6.165 -0.8164  0.6858 -0.1994
 2625SOL    HW2 8241   0.956   5.013   6.291 -1.2105 -2.4946 -0.8393
 2626SOL     OW 8242   0.407   1.120   3.519 -0.0157  0.1461  0.0960
 2626SOL    HW1 8243   0.361   1.037   3.535 -0.7925  0.2574 -1.4369
 2626SOL    HW2 8244   0.353   1.185   3.564 -1.4045  0.2654 -1.6349
 2627SOL     OW 8245   2.671   3.765   5.925 -0.2330  0.2315  0.0611
 2627SOL    HW1 8246   2.693   3.735   6.013 -2.1815  0.3928  0.6435
 2627SOL    HW2 8247   2.745   3.821   5.900  0.7158 -0.4401  1.2654
 2628SOL     OW 8248   5.722   5.687   4.733 -0.0464  0.1819 -0.3489
 2628SOL    HW1 8249   5.627   5.698   4.725 -0.1405 -0.4098 -0.0887
 2628SOL    HW2 8250   5.733   5.617   4.797  0.5980  1.2262  0.7356
 2629SOL     OW 8251   3.403   1.741   2.668 -0.0704 -0.5617  0.0022
 2629SOL    HW1 8252   3.307   1.750   2.667  0.0179  0.9419  1.7027
 2629SOL    HW2 8253   3.430   1.771   2.582 -1.0533  0.0983 -0.0953
 2630SOL     OW 8254   6.786   2.621   2.371 -0.3694  0.1079 -0.3585
 2630SOL    HW1 8255   6.763   2.697   2.318 -1.1465 -0.6116 -1.0871
 2630SOL    HW2 8256   6.862   2.583   2.327 -1.1296 -0.5970 -1.0862
 2631SOL     OW 8257   5.183   4.709   1.513 -0.4517 -0.2728 -0.0654
 2631SOL    HW1 8258   5.138   4.696   1.429 -1.1025  2.0944 -0.1610
 2631SOL    HW2 8259   5.273   4.682   1.496 -0.3138  1.0950 -1.9131
 2632SOL     OW 8260   0.217   2.849   4.233  0.0574 -0.6913 -0.4131
 2632SOL    HW1 8261   0.302   2.893   4.229 -0.6250  0.6452 -1.0105
 2632SOL    HW2 8262   0.164   2.895   4.168 -0.8344 -2.1612 -0.7630
 2633SOL     OW 8263   0.842   3.074   1.359 -0.5654 -0.7134  0.2045
 2633SOL    HW1 8264   0.889   3.152   1.387  0.6324 -1.7082  1.0579
 2633SOL    HW2 8265   0.801   3.041   1.439  0.6947 -2.1047  0.3257
 2634SOL     OW 8266   3.404   4.601   4.740 -0.8230 -0.5723  0.2532
 2634SOL    HW1 8267   3.354   4.683   4.747 -2.4425 -1.3341 -1.5174
 2634SOL    HW2 8268   3.463   4.615   4.666 -1.3333 -1.1117 -0.2578
 2635SOL     OW 8269   0.293   6.592   4.084 -0.6396 -0.4265 -0.1541
 2635SOL    HW1 8270   0.351   6.667   4.072 -1.1104 -0.3799 -2.7960
 2635SOL    HW2 8271   0.346   6.516   4.061 -0.3105 -0.9182  2.0265
 2636SOL     OW 8272   4.919   0.850   6.609 -0.0538 -0.0055 -0.3178
 2636SOL    HW1 8273   4.835   0.845   6.563 -0.6830  1.9277  0.4723
 2636SOL    HW2 8274   4.895   0.850   6.702  0.7352  1.2758 -0.0883
 2637SOL     OW 8275   5.552   2.505   6.624  0.0703  0.0625 -0.3767
 2637SOL    HW1 8276   5.500   2.444   6.571  0.4584 -1.5535  1.0123
 2637SOL    HW2 8277   5.493   2.531   6.695  0.3535  0.2216 -0.2007
 2638SOL     OW 8278   4.287   0.925   4.410  0.4499 -0.5639  0.0727
 2638SOL    HW1 8279   4.251   0.842   4.441  0.3175 -0.6158 -0.2098
 2638SOL    HW2 8280   4.222   0.990   4.437  0.7385 -0.4991  0.6301
 2639SOL     OW 8281   0.460   3.196   2.179 -0.2779  0.0438  0.3010
 2639SOL    HW1 8282   0.405   3.232   2.110 -2.1447 -1.1836  1.0751
 2639SOL    HW2 8283   0.549   3.219   2.153 -1.1492  2.6190 -0.6809
 2640SOL     OW 8284   3.709   3.577   4.137 -0.4644 -0.5851 -0.1680
 2640SOL    HW1 8285   3.635   3.556   4.194  0.9480  0.2778  2.1445
 2640SOL    HW2 8286   3.781   3.524   4.171  0.2807 -0.5033 -1.5698
 2641SOL     OW 8287   5.323   3.209   4.012  0.1280 -0.1513 -0.1805
 2641SOL    HW1 8288   5.418   3.213   4.022  0.1449  0.7522 -0.6416
 2641SOL    HW2 8289   5.309   3.158   3.932  0.2333  0.0176 -0.3065
 2642SOL     OW 8290   6.327   5.752   3.996 -0.5959  0.1218  0.4238
 2642SOL    HW1 8291   6.296   5.842   4.000  1.1885  0.7254  2.5375
 2642SOL    HW2 8292   6.252   5.700   4.025 -1.6140  0.8675 -0.7289
 2643SOL     OW 8293   6.434   6.106   3.997  0.3017  0.1388  0.2029
 2643SOL    HW1 8294   6.505   6.073   3.943  0.1260  0.6470 -0.3439
 2643SOL    HW2 8295   6.374   6.148   3.936  0.5792  1.5826  0.8895
 2644SOL     OW 8296   3.735   5.172   6.258 -0.2590  0.3958 -0.1716
 2644SOL    HW1 8297   3.736   5.254   6.209 -0.7080  0.5526  0.0799
 2644SOL    HW2 8298   3.697   5.194   6.343  3.2843  0.7875  1.4903
 2645SOL     OW 8299   6.233   0.194   4.648 -0.5720 -0.3864  0.4774
 2645SOL    HW1 8300   6.227   0.140   4.727 -0.7976 -2.4795 -0.9089
 2645SOL    HW2 8301   6.297   0.150   4.593  0.8268  1.9394  0.1122
 2646SOL     OW 8302   3.537   5.151   3.597  0.1585 -0.6448 -0.4744
 2646SOL    HW1 8303   3.632   5.161   3.586  0.1130 -1.0037 -1.2668
 2646SOL    HW2 8304   3.499   5.196   3.522 -0.6839  5.2400  2.7908
 2647SOL     OW 8305   6.016   6.338   6.168  0.1926 -0.1411 -0.8506
 2647SOL    HW1 8306   6.031   6.425   6.205  0.8206 -0.3537 -0.5959
 2647SOL    HW2 8307   6.098   6.291   6.182  0.0873 -0.5626 -1.5876
 2648SOL     OW 8308   6.474   5.675   1.893  0.4425 -0.0305  0.6998
 2648SOL    HW1 8309   6.463   5.610   1.823 -0.3251  0.5227  0.2951
 2648SOL    HW2 8310   6.562   5.659   1.926  1.6605  1.0342 -1.7883
 2649SOL     OW 8311   5.122   1.696   0.754 -0.0358 -0.0190 -0.4305
 2649SOL    HW1 8312   5.152   1.767   0.811 -0.1047 -0.7614  0.5485
 2649SOL    HW2 8313   5.202   1.663   0.713 -0.0454  0.8679 -1.2015
 2650SOL     OW 8314   2.077   5.590   3.712 -0.2679 -0.3877 -0.4724
 2650SOL    HW1 8315   2.013   5.661   3.699 -0.3557 -0.3496  0.1255
 2650SOL    HW2 8316   2.162   5.632   3.699 -0.2638  0.0950  0.9376
 2651SOL     OW 8317   3.185   1.489   1.410 -0.0199  0.0997  0.5419
 2651SOL    HW1 8318   3.119   1.440   1.458  1.3533 -1.4481  0.9477
 2651SOL    HW2 8319   3.266   1.440   1.423  0.5300 -0.2572 -3.0239
 2652SOL     OW 8320   1.688   1.434   1.137  0.9490 -0.4779 -0.0682
 2652SOL    HW1 8321   1.659   1.525   1.143 -0.6597 -0.7809 -2.1194
 2652SOL    HW2 8322   1.752   1.434   1.066  1.1622 -0.8876  0.1257
 2653SOL     OW 8323   0.263   2.747   1.962  0.8838 -0.0238  0.3191
 2653SOL    HW1 8324   0.310   2.681   1.911  1.3718  0.8309 -0.3622
 2653SOL    HW2 8325   0.266   2.826   1.908 -0.7533  0.2494  0.5607
 2654SOL     OW 8326   6.310   0.864   3.867 -0.0181 -0.3341 -0.0860
 2654SOL    HW1 8327   6.294   0.770   3.867 -0.6602 -0.2402 -1.2445
 2654SOL    HW2 8328   6.223   0.903   3.857  0.1905  0.4066  0.8232
 2655SOL     OW 8329   5.302   3.457   5.400 -0.1525 -0.4381  0.5099
 2655SOL    HW1 8330   5.264   3.512   5.331  1.9271  0.1677 -0.2061
 2655SOL    HW2 8331   5.232   3.395   5.422 -1.8298  1.1289 -0.1493
 2656SOL     OW 8332   4.833   1.973   5.322  0.5404 -0.4116 -0.2660
 2656SOL    HW1 8333   4.815   2.022   5.242  1.1086  0.5164  0.1561
 2656SOL    HW2 8334   4.864   2.038   5.384  2.5517 -1.4717 -0.0738
 2657SOL     OW 8335   2.987   4.431   1.808  0.4814  0.3785 -0.3872
 2657SOL    HW1 8336   2.923   4.468   1.868  0.2974  0.4799 -0.6431
 2657SOL    HW2 8337   3.063   4.410   1.863 -0.3317 -1.1813  0.1910
 2658SOL     OW 8338   1.477   5.399   5.635  0.0824  0.2560 -0.2292
 2658SOL    HW1 8339   1.494   5.357   5.551 -1.1293  0.4934 -0.6101
 2658SOL    HW2 8340   1.479   5.327   5.699 -0.5095 -0.1665 -0.6745
 2659SOL     OW 8341   1.491   6.444   2.911  0.3535 -0.1006 -0.2424
 2659SOL    HW1 8342   1.411   6.393   2.929  0.1694  0.6578  1.2774
 2659SOL    HW2 8343   1.539   6.442   2.994  1.6095  0.0121 -0.9471
 2660SOL     OW 8344   5.513   0.560   3.322 -0.0699  0.3359  0.0286
 2660SOL    HW1 8345   5.582   0.503   3.357 -1.5566 -0.5066  1.7986
 2660SOL    HW2 8346   5.553   0.603   3.247  2.0078 -0.9618  0.3025
 2661SOL     OW 8347   3.902   3.934   1.293  0.2335  0.8606 -0.2863
 2661SOL    HW1 8348   3.839   3.947   1.364 -0.8419 -2.7170 -0.4145
 2661SOL    HW2 8349   3.984   3.914   1.337 -0.5720 -1.9772  0.1256
 2662SOL     OW 8350   5.617   0.675   0.971  0.6907 -0.2028  0.3499
 2662SOL    HW1 8351   5.576   0.756   1.002 -1.3481  0.2911 -3.0767
 2662SOL    HW2 8352   5.710   0.697   0.961  0.5285  1.0494  1.3254
 2663SOL     OW 8353   4.874   0.375   0.803 -0.1909  0.4136 -0.0388
 2663SOL    HW1 8354   4.781   0.393   0.788 -0.5534 -0.9278  0.3832
 2663SOL    HW2 8355   4.916   0.389   0.718 -1.1303 -0.9356 -0.7614
 2664SOL     OW 8356   4.328   1.283   3.570 -0.1766  0.2461  0.1106
 2664SOL    HW1 8357   4.413   1.284   3.614 -0.1806  0.7944  0.1157
 2664SOL    HW2 8358   4.320   1.195   3.535  0.5800  0.3168 -0.2530
 2665SOL     OW 8359   2.849   1.091   4.632  0.6174  0.0573  0.1406
 2665SOL    HW1 8360   2.859   1.046   4.549  1.5011  0.1694  0.1785
 2665SOL    HW2 8361   2.864   1.183   4.612  4.0041 -0.2141  0.9115
 2666SOL     OW 8362   5.775   2.171   1.742 -0.2986  0.0490  0.5158
 2666SOL    HW1 8363   5.704   2.226   1.775 -0.5409  0.2201 -0.2861
 2666SOL    HW2 8364   5.734   2.113   1.679  0.2774  0.1532  0.0369
 2667SOL     OW 8365   3.213   2.595   0.274  0.3100 -0.1503  0.2261
 2667SOL    HW1 8366   3.122   2.626   0.275  0.3756  0.0468  0.0755
 2667SOL    HW2 8367   3.206   2.500   0.266  0.1527  0.0432 -3.8369
 2668SOL     OW 8368   2.699   6.686   1.205  0.6200  0.9283 -0.1752
 2668SOL    HW1 8369   2.617   6.722   1.238  0.9489  0.1234  1.6368
 2668SOL    HW2 8370   2.673   6.621   1.140 -0.1682  0.7783  0.2838
 2669SOL     OW 8371   0.449   0.841   4.012 -0.1952 -0.4647  0.0596
 2669SOL    HW1 8372   0.355   0.836   4.029 -0.1912 -0.5745  0.0504
 2669SOL    HW2 8373   0.487   0.771   4.065 -0.2780 -1.4028 -1.0997
 2670SOL     OW 8374   1.499   4.748   2.933  0.1144  0.3627  0.1586
 2670SOL    HW1 8375   1.578   4.733   2.881  0.2620 -1.4299  0.8267
 2670SOL    HW2 8376   1.487   4.666   2.982 -2.8510  0.0876 -0.8525
 2671SOL     OW 8377   0.177   6.261   3.728 -0.7506 -0.3551  0.1314
 2671SOL    HW1 8378   0.098   6.275   3.678 -0.3301  0.5355 -0.2960
 2671SOL    HW2 8379   0.186   6.338   3.783 -1.2913 -1.3851  1.7280
 2672SOL     OW 8380   2.238   0.577   0.468  0.3792 -0.8408 -0.0882
 2672SOL    HW1 8381   2.209   0.655   0.420 -1.2601 -1.0802  0.4705
 2672SOL    HW2 8382   2.159   0.541   0.507  1.3774 -1.7645  1.1910
 2673SOL     OW 8383   2.521   0.865   5.098 -0.5183  0.3744  0.2336
 2673SOL    HW1 8384   2.454   0.903   5.156  0.8590  1.5542  1.1388
 2673SOL    HW2 8385   2.487   0.878   5.010 -0.3270  3.5516  0.4955
 2674SOL     OW 8386   3.593   0.755   6.340  0.5091 -0.6612  0.0315
 2674SOL    HW1 8387   3.678   0.788   6.310 -0.4220  1.6191 -0.3046
 2674SOL    HW2 8388   3.555   0.713   6.262  0.2215  0.7605 -0.6381
 2675SOL     OW 8389   4.705   6.520   4.267 -0.1210  0.3815 -0.3783
 2675SOL    HW1 8390   4.753   6.441   4.243 -0.0017  0.6904 -1.1989
 2675SOL    HW2 8391   4.731   6.538   4.357  0.4094 -0.1025 -0.4337
 2676SOL     OW 8392   5.243   2.268   2.940  0.2896 -0.8495  0.0363
 2676SOL    HW1 8393   5.310   2.318   2.893 -1.2100  0.4577 -0.8102
 2676SOL    HW2 8394   5.248   2.300   3.030 -1.3318  1.7956 -0.6731
 2677SOL     OW 8395   6.190   4.974   5.337  0.0523 -1.0882  0.3630
 2677SOL    HW1 8396   6.215   4.970   5.245 -1.8903  1.0964 -0.3595
 2677SOL    HW2 8397   6.259   5.024   5.379 -0.2133 -0.0007 -0.4465
 2678SOL     OW 8398   5.476   2.284   3.231  0.2907  0.0438  0.0709
 2678SOL    HW1 8399   5.517   2.327   3.306 -0.6041 -1.9198  1.8076
 2678SOL    HW2 8400   5.384   2.275   3.256 -0.3672  0.6967 -1.9572
 2679SOL     OW 8401   3.373   1.836   3.476 -0.2234  0.3050  0.1859
 2679SOL    HW1 8402   3.352   1.889   3.399 -0.5453 -0.3624 -0.1946
 2679SOL    HW2 8403   3.437   1.772   3.444 -0.0601  0.2702  0.5730
 2680SOL     OW 8404   4.155   0.613   5.948  0.0499  0.0457 -1.0197
 2680SOL    HW1 8405   4.142   0.658   5.865 -1.0497  0.4553 -0.6432
 2680SOL    HW2 8406   4.247   0.588   5.948  0.5711  1.8293 -1.4776
 2681SOL     OW 8407   3.999   5.632   0.545 -0.2066  0.4192  0.1329
 2681SOL    HW1 8408   4.085   5.615   0.584 -0.6119 -0.5241  0.6495
 2681SOL    HW2 8409   4.019   5.678   0.463  0.8188 -0.1293  0.0519
 2682SOL     OW 8410   0.211   3.850   2.081 -0.5844 -0.7120  0.1502
 2682SOL    HW1 8411   0.276   3.791   2.120 -0.2185 -0.4852 -0.1048
 2682SOL    HW2 8412   0.257   3.890   2.007 -1.3755 -1.4203 -0.7537
 2683SOL     OW 8413   6.345   0.962   6.348  0.3149  0.1705  0.2454
 2683SOL    HW1 8414   6.367   0.889   6.405  2.9627  1.8403  1.5137
 2683SOL    HW2 8415   6.361   0.928   6.259  1.1450 -0.8868  0.7744
 2684SOL     OW 8416   3.422   0.135   2.976  0.6542 -0.3262 -0.6649
 2684SOL    HW1 8417   3.336   0.143   2.936  0.4588 -1.5868 -0.5380
 2684SOL    HW2 8418   3.405   0.141   3.070  1.1446  2.9300 -0.6899
 2685SOL     OW 8419   3.483   0.610   0.792  0.2062  0.2879  0.6080
 2685SOL    HW1 8420   3.473   0.703   0.815  0.3134  0.4959 -0.1351
 2685SOL    HW2 8421   3.393   0.578   0.785  0.1775  0.1857  1.4363
 2686SOL     OW 8422   1.133   1.916   1.393 -0.0134  0.5182  0.4818
 2686SOL    HW1 8423   1.145   2.003   1.430  1.8959  0.4885  0.0251
 2686SOL    HW2 8424   1.170   1.922   1.305  0.6883 -0.9061  0.6567
 2687SOL     OW 8425   0.869   1.834   5.202  0.0085  0.4669 -0.1109
 2687SOL    HW1 8426   0.897   1.883   5.280 -1.8569  0.1598  0.8109
 2687SOL    HW2 8427   0.945   1.837   5.144  1.1854  1.4039  1.3749
 2688SOL     OW 8428   1.356   2.837   2.256 -0.5307 -0.1142 -0.0872
 2688SOL    HW1 8429   1.274   2.787   2.254  0.3373 -1.6157 -1.1380
 2688SOL    HW2 8430   1.386   2.837   2.164  0.2953  1.0043  0.1580
 2689SOL     OW 8431   0.271   2.392   2.623 -0.5086  0.2288 -0.1194
 2689SOL    HW1 8432   0.247   2.340   2.699 -0.7200 -0.4663 -0.6480
 2689SOL    HW2 8433   0.364   2.411   2.634 -0.6555  0.5689  0.5597
 2690SOL     OW 8434   5.676   1.780   3.153  0.2900 -0.0046 -0.5222
 2690SOL    HW1 8435   5.651   1.808   3.065 -0.4917 -0.5357 -0.4813
 2690SOL    HW2 8436   5.597   1.793   3.205  0.4116 -0.7315 -0.1432
 2691SOL     OW 8437   3.056   1.798   5.073  0.3725  0.1259  0.4496
 2691SOL    HW1 8438   3.057   1.714   5.025  0.9786  0.0091  0.6603
 2691SOL    HW2 8439   3.120   1.852   5.027 -0.7566  0.8509 -0.3258
 2692SOL     OW 8440   5.298   2.754   2.541  0.5391  0.3683  0.2646
 2692SOL    HW1 8441   5.326   2.663   2.529 -0.8525 -0.1795  0.9309
 2692SOL    HW2 8442   5.308   2.770   2.635 -0.5645  0.4341  0.3735
 2693SOL     OW 8443   5.894   2.631   6.407  0.0575  0.1330  0.0912
 2693SOL    HW1 8444   5.974   2.676   6.434  1.5050 -2.2201  0.0667
 2693SOL    HW2 8445   5.866   2.676   6.328  1.2423  1.1522  0.2229
 2694SOL     OW 8446   2.254   4.286   4.017  0.2242  0.0401  0.5784
 2694SOL    HW1 8447   2.322   4.218   4.014  1.2079  0.9866  1.0824
 2694SOL    HW2 8448   2.214   4.276   4.104 -0.6376 -0.8289  0.1046
 2695SOL     OW 8449   0.038   1.931   3.862 -0.2915 -0.0846 -0.2711
 2695SOL    HW1 8450   0.012   2.005   3.807  0.9266 -1.5515 -2.9742
 2695SOL    HW2 8451   0.127   1.952   3.891 -0.3154 -0.0728 -0.2043
 2696SOL     OW 8452   3.562   2.929   6.707 -0.4874  0.0585 -0.1973
 2696SOL    HW1 8453   3.613   3.010   6.702  0.5511 -0.5210  0.4804
 2696SOL    HW2 8454   3.591   2.879   6.631 -1.9387  0.7451 -1.2392
 2697SOL     OW 8455   2.976   4.781   5.098  0.2191  0.4314  0.4961
 2697SOL    HW1 8456   3.061   4.784   5.141  1.1156  0.6698 -1.2019
 2697SOL    HW2 8457   2.996   4.760   5.006 -1.2636  3.0278 -0.5380
 2698SOL     OW 8458   6.096   3.357   4.025  0.2938 -0.0169 -0.4856
 2698SOL    HW1 8459   6.037   3.405   4.083  1.0092  2.2306 -1.5287
 2698SOL    HW2 8460   6.052   3.358   3.940  0.5115 -0.8812 -0.6182
 2699SOL     OW 8461   3.291   1.888   6.094 -0.2183 -0.5619 -0.2389
 2699SOL    HW1 8462   3.368   1.934   6.128 -0.1650 -1.7017  1.2856
 2699SOL    HW2 8463   3.320   1.797   6.086 -1.0874 -0.7996 -0.7164
 2700SOL     OW 8464   2.447   6.159   3.238 -0.3804  0.5682 -0.1292
 2700SOL    HW1 8465   2.525   6.109   3.212  0.3160  2.0609 -1.0205
 2700SOL    HW2 8466   2.474   6.206   3.317 -0.9055 -0.0964  0.4662
 2701SOL     OW 8467   3.717   2.555   5.777 -0.6348 -0.1095  0.2807
 2701SOL    HW1 8468   3.768   2.634   5.798 -0.9076  0.7117 -1.9162
 2701SOL    HW2 8469   3.642   2.559   5.837 -0.7546  1.4288  0.0620
 2702SOL     OW 8470   0.229   5.576   4.985  0.6047 -0.2666  0.1733
 2702SOL    HW1 8471   0.148   5.627   4.978  1.3776  1.4805  2.5862
 2702SOL    HW2 8472   0.277   5.596   4.905  0.0356  1.2813  0.1819
 2703SOL     OW 8473   2.042   3.389   1.067  0.3196  0.1681  0.0506
 2703SOL    HW1 8474   2.015   3.460   1.125  1.1063 -1.0616  2.0401
 2703SOL    HW2 8475   1.961   3.342   1.047  0.1079  0.2736  0.6434
 2704SOL     OW 8476   5.998   6.451   1.769  0.0083 -0.9617  0.8409
 2704SOL    HW1 8477   6.001   6.378   1.707 -0.2867 -0.1475 -0.1604
 2704SOL    HW2 8478   6.020   6.528   1.717 -1.4501 -0.0799  1.4710
 2705SOL     OW 8479   3.988   2.247   6.015  0.2586 -0.1544  0.3701
 2705SOL    HW1 8480   3.965   2.155   6.007 -1.9498  0.4558 -0.8826
 2705SOL    HW2 8481   4.041   2.251   6.095  0.1616 -2.4409  0.6117
 2706SOL     OW 8482   3.246   5.941   6.176 -0.7726 -0.0222 -0.1736
 2706SOL    HW1 8483   3.186   6.010   6.202 -0.6904 -0.5464  1.5575
 2706SOL    HW2 8484   3.320   5.987   6.136  0.8874  1.3423  3.9561
 2707SOL     OW 8485   4.771   2.993   4.937 -0.0885 -0.1869  0.1152
 2707SOL    HW1 8486   4.817   3.067   4.898  0.7686 -0.5729  0.3667
 2707SOL    HW2 8487   4.679   3.011   4.920  0.0438  1.2593  0.7053
 2708SOL     OW 8488   1.538   1.464   4.445 -0.1008 -0.5640  0.1297
 2708SOL    HW1 8489   1.534   1.454   4.349  1.0263 -1.0757  0.1157
 2708SOL    HW2 8490   1.609   1.405   4.472  0.8714  0.9618  1.0654
 2709SOL     OW 8491   5.893   1.116   5.675  0.0661 -0.4400  0.1911
 2709SOL    HW1 8492   5.953   1.053   5.634  0.6994  0.5554 -0.4661
 2709SOL    HW2 8493   5.872   1.178   5.605  1.6328  1.6566  1.4500
 2710SOL     OW 8494   5.620   2.666   4.905 -0.5578 -0.1427  0.5311
 2710SOL    HW1 8495   5.552   2.710   4.956 -0.5183  1.5637 -0.7934
 2710SOL    HW2 8496   5.608   2.573   4.925 -1.1829  0.3522  2.8030
 2711SOL     OW 8497   4.130   1.952   1.082  0.5904 -0.4215 -0.0006
 2711SOL    HW1 8498   4.203   1.938   1.142 -0.4213  0.8964  1.6262
 2711SOL    HW2 8499   4.052   1.933   1.134 -0.2884 -0.2135 -1.2028
 2712SOL     OW 8500   5.312   2.581   3.482  0.0258 -0.2541 -0.2745
 2712SOL    HW1 8501   5.350   2.594   3.396  3.4761 -0.5849  1.0229
 2712SOL    HW2 8502   5.225   2.621   3.477  0.5896  0.8337 -3.4823
 2713SOL     OW 8503   1.303   2.540   3.584 -0.7396 -0.0524  0.0061
 2713SOL    HW1 8504   1.334   2.531   3.494  0.9712  1.2348  0.3973
 2713SOL    HW2 8505   1.369   2.494   3.637 -1.5258 -0.4823  0.6363
 2714SOL     OW 8506   5.010   0.694   1.118 -0.3292  0.6104  0.1699
 2714SOL    HW1 8507   5.060   0.692   1.200  0.0663  0.7725 -0.0663
 2714SOL    HW2 8508   5.058   0.635   1.060 -0.1186  1.1726 -0.2293
 2715SOL     OW 8509   4.699   6.200   3.749  0.2507  0.1906  0.0589
 2715SOL    HW1 8510   4.642   6.277   3.743 -0.9452 -0.6782 -0.0765
 2715SOL    HW2 8511   4.651   6.131   3.703  0.8880 -0.8745  0.9432
 2716SOL     OW 8512   0.446   4.645   3.280 -0.0096 -0.4339  0.1225
 2716SOL    HW1 8513   0.414   4.729   3.246 -0.5217 -1.1684 -1.2949
 2716SOL    HW2 8514   0.415   4.643   3.371 -2.6066 -0.3495 -0.6797
 2717SOL     OW 8515   5.300   4.811   4.875  0.3697 -0.0758 -0.3958
 2717SOL    HW1 8516   5.289   4.830   4.968  2.1644 -0.7782  0.0031
 2717SOL    HW2 8517   5.213   4.824   4.838 -0.3535  0.3884  1.3406
 2718SOL     OW 8518   1.804   6.025   5.797 -0.5796 -0.3444  0.2926
 2718SOL    HW1 8519   1.740   6.049   5.863 -1.8778  0.6143 -1.2254
 2718SOL    HW2 8520   1.867   6.097   5.796 -1.2052  0.2085 -0.2750
 2719SOL     OW 8521   1.045   3.402   0.243  1.0386  0.3418 -0.2127
 2719SOL    HW1 8522   1.072   3.321   0.200 -2.6813 -0.5382 -1.2911
 2719SOL    HW2 8523   1.047   3.381   0.336 -0.7372 -1.4350 -0.5007
 2720SOL     OW 8524   5.097   6.250   6.055 -0.0368  0.1314 -0.0463
 2720SOL    HW1 8525   5.147   6.275   6.133 -0.5947  1.0003  0.0422
 2720SOL    HW2 8526   5.102   6.154   6.053  0.8473  0.1521  0.4756
 2721SOL     OW 8527   4.689   2.133   3.990  0.1727 -0.5027 -0.4163
 2721SOL    HW1 8528   4.680   2.038   3.999  1.0584 -0.8411 -2.4997
 2721SOL    HW2 8529   4.601   2.163   3.965 -0.3191 -0.6151  1.0688
 2722SOL     OW 8530   1.573   5.253   0.014 -0.5227  0.4153 -0.4205
 2722SOL    HW1 8531   1.480   5.250   0.036 -0.7793  1.1011 -1.3701
 2722SOL    HW2 8532   1.577   5.231  -0.079  0.0552  2.2752 -0.8843
 2723SOL     OW 8533   3.328   1.577   0.919  0.3052 -0.3942 -0.1060
 2723SOL    HW1 8534   3.423   1.583   0.904  0.1296 -1.4621 -1.9470
 2723SOL    HW2 8535   3.320   1.554   1.011  1.8535 -0.5783  0.0176
 2724SOL     OW 8536   0.074   1.186   3.943  0.3656 -0.2743  0.1347
 2724SOL    HW1 8537   0.009   1.128   3.985 -1.6065  1.2836 -0.6038
 2724SOL    HW2 8538   0.154   1.134   3.940 -0.7424 -2.1765  1.4177
 2725SOL     OW 8539   4.088   3.051   3.151 -0.0600  0.1522 -0.3519
 2725SOL    HW1 8540   4.037   2.982   3.194  1.5628 -0.8485  0.0496
 2725SOL    HW2 8541   4.093   3.121   3.216  0.4382 -0.4187  0.2382
 2726SOL     OW 8542   4.263   3.814   2.028  0.3495 -0.1051 -0.1824
 2726SOL    HW1 8543   4.318   3.771   1.962  0.4156  0.7732 -0.7141
 2726SOL    HW2 8544   4.298   3.904   2.032 -1.5314  0.7175 -1.1016
 2727SOL     OW 8545   5.628   1.784   5.130  0.1342  0.2812  0.2775
 2727SOL    HW1 8546   5.620   1.835   5.211 -1.0378  0.3008  0.1561
 2727SOL    HW2 8547   5.549   1.804   5.080 -0.0556 -1.1746 -0.0560
 2728SOL     OW 8548   4.193   2.120   5.115  0.1440 -0.1416 -0.0534
 2728SOL    HW1 8549   4.255   2.066   5.066  0.7504  1.2341 -0.8923
 2728SOL    HW2 8550   4.244   2.159   5.186  0.1922  0.7276 -0.5405
 2729SOL     OW 8551   2.728   5.913   4.872  0.4969  0.1424 -0.4854
 2729SOL    HW1 8552   2.809   5.882   4.833  0.9922  0.5140  0.2188
 2729SOL    HW2 8553   2.659   5.862   4.829  1.2233 -1.4480  0.1576
 2730SOL     OW 8554   4.674   3.232   6.555 -0.0022  0.1441 -0.6335
 2730SOL    HW1 8555   4.609   3.226   6.625  0.1112 -1.2810 -0.6117
 2730SOL    HW2 8556   4.758   3.226   6.599  0.0667 -0.8858 -0.8828
 2731SOL     OW 8557   2.365   2.913   6.291  0.5471 -0.4405 -0.4651
 2731SOL    HW1 8558   2.298   2.846   6.303  1.0842 -1.1988 -1.5117
 2731SOL    HW2 8559   2.354   2.943   6.201  0.8756  0.2687 -0.2828
 2732SOL     OW 8560   1.937   4.536   0.547 -0.2008  0.1110 -0.4963
 2732SOL    HW1 8561   1.885   4.604   0.590  0.6002 -0.0799  0.8468
 2732SOL    HW2 8562   2.027   4.569   0.553  0.1121 -0.7376 -0.4710
 2733SOL     OW 8563   5.436   2.522   3.921 -0.0794  0.2300  0.1869
 2733SOL    HW1 8564   5.467   2.608   3.892 -0.8088  0.0801 -1.1182
 2733SOL    HW2 8565   5.379   2.541   3.995  1.0640  0.7095  0.9856
 2734SOL     OW 8566   6.287   6.682   4.242 -0.3268  0.4838  0.2058
 2734SOL    HW1 8567   6.289   6.680   4.146  0.8512  0.8696  0.2046
 2734SOL    HW2 8568   6.326   6.599   4.269  0.8006  1.0250  0.3227
 2735SOL     OW 8569   6.216   4.742   4.490  0.0271  0.2014  0.1676
 2735SOL    HW1 8570   6.305   4.720   4.460 -0.6057 -1.7237 -0.4566
 2735SOL    HW2 8571   6.225   4.751   4.585  0.6802 -1.3754  0.3009
 2736SOL     OW 8572   5.258   1.790   5.761  0.2162 -0.1205 -0.4913
 2736SOL    HW1 8573   5.170   1.764   5.733  1.2894 -1.8053 -2.5818
 2736SOL    HW2 8574   5.243   1.865   5.818 -2.6905 -1.4117  0.6919
 2737SOL     OW 8575   4.398   0.942   2.177 -0.1783 -0.3447 -0.3750
 2737SOL    HW1 8576   4.429   0.856   2.149  2.8117  0.3273  0.4686
 2737SOL    HW2 8577   4.401   0.938   2.273  2.7813  1.4559 -0.2681
 2738SOL     OW 8578   2.978   0.365   0.810 -0.2744 -0.4776 -0.1242
 2738SOL    HW1 8579   3.026   0.312   0.874  0.1915  0.5941  0.4345
 2738SOL    HW2 8580   2.891   0.376   0.849  0.3406  1.1132  0.9178
 2739SOL     OW 8581   3.901   1.657   0.372  0.4879  0.3787  0.2064
 2739SOL    HW1 8582   3.961   1.582   0.367  0.0161 -0.0296  0.6746
 2739SOL    HW2 8583   3.821   1.621   0.409 -0.6379  0.5588 -1.9233
 2740SOL     OW 8584   6.625   3.489   5.142 -0.1041  0.2563  0.3387
 2740SOL    HW1 8585   6.676   3.561   5.106  0.9011 -0.0737  1.0559
 2740SOL    HW2 8586   6.637   3.417   5.080 -1.3009  0.7589 -0.4999
 2741SOL     OW 8587   4.632   3.236   3.974  0.2033  0.4643 -0.1333
 2741SOL    HW1 8588   4.597   3.213   4.060  0.8555 -0.4667 -0.1090
 2741SOL    HW2 8589   4.718   3.194   3.970  0.4303  0.9748 -1.0147
 2742SOL     OW 8590   1.769   4.466   3.546  0.1227  0.5497 -0.1341
 2742SOL    HW1 8591   1.831   4.524   3.502  0.5002 -0.6998 -1.3348
 2742SOL    HW2 8592   1.701   4.449   3.480  0.1427 -0.5336  0.1037
 2743SOL     OW 8593   0.960   6.261   4.742 -0.3538 -0.4377 -0.0821
 2743SOL    HW1 8594   1.022   6.291   4.676  1.1104 -1.4868  0.7539
 2743SOL    HW2 8595   0.975   6.320   4.817 -2.0130  0.7570 -0.6278
 2744SOL     OW 8596   3.475   2.105   4.881 -0.0818  0.3763 -0.4105
 2744SOL    HW1 8597   3.508   2.184   4.925  0.2735 -0.7320  1.4146
 2744SOL    HW2 8598   3.531   2.095   4.804  0.9226  1.0336  0.2046
 2745SOL     OW 8599   0.835   4.053   5.675 -0.0221  0.4108 -0.4971
 2745SOL    HW1 8600   0.850   4.001   5.754  0.2305 -1.7976 -1.9138
 2745SOL    HW2 8601   0.874   4.138   5.695 -0.1068 -0.0145  1.7937
 2746SOL     OW 8602   5.000   1.345   0.111 -0.1547 -0.3144  0.4009
 2746SOL    HW1 8603   4.989   1.374   0.201  1.9847  1.6755  0.1192
 2746SOL    HW2 8604   5.080   1.293   0.112 -0.2351 -0.4620 -0.3018
 2747SOL     OW 8605   5.289   6.705   2.367  0.7397 -0.1166 -0.4246
 2747SOL    HW1 8606   5.301   6.796   2.391 -2.0858  0.2657 -0.0843
 2747SOL    HW2 8607   5.356   6.658   2.416  1.4983  1.6428  0.3080
 2748SOL     OW 8608   6.431   6.770   0.077 -0.7891 -0.4355  0.0606
 2748SOL    HW1 8609   6.378   6.792   0.154 -2.5179 -1.0861 -0.8906
 2748SOL    HW2 8610   6.411   6.840   0.015  0.4481 -0.0241  0.0993
 2749SOL     OW 8611   5.041   6.241   5.607 -0.1000 -0.1274  0.2019
 2749SOL    HW1 8612   5.130   6.213   5.626  0.0319  0.1904  0.0557
 2749SOL    HW2 8613   5.027   6.219   5.515  0.1970  0.7651 -0.0728
 2750SOL     OW 8614   3.946   3.064   6.388  0.7341  0.3545 -0.1387
 2750SOL    HW1 8615   3.867   3.034   6.342  0.1797 -0.4427  1.2830
 2750SOL    HW2 8616   3.954   3.156   6.363 -0.9677  0.6085  0.1232
 2751SOL     OW 8617   0.562   1.423   6.581 -0.3232  0.2098 -0.5897
 2751SOL    HW1 8618   0.544   1.341   6.534 -1.1440 -0.0959  0.2050
 2751SOL    HW2 8619   0.495   1.425   6.650  0.3552  1.0301  0.0594
 2752SOL     OW 8620   2.666   1.693   0.809  0.6039 -0.6401 -0.3502
 2752SOL    HW1 8621   2.718   1.615   0.828 -0.5256 -1.8826 -2.1046
 2752SOL    HW2 8622   2.582   1.659   0.778 -0.9233  1.2948  1.3705
 2753SOL     OW 8623   4.728   5.055   1.323 -0.6045 -0.4634 -0.7537
 2753SOL    HW1 8624   4.702   4.970   1.358 -0.8304 -0.1441 -0.1260
 2753SOL    HW2 8625   4.815   5.070   1.358 -1.7041  0.8894  1.6511
 2754SOL     OW 8626   1.151   5.402   2.312 -0.1314  0.5343  0.5721
 2754SOL    HW1 8627   1.113   5.454   2.383 -0.2794  0.2077  0.7311
 2754SOL    HW2 8628   1.240   5.437   2.303 -0.9707  2.4799 -0.9363
 2755SOL     OW 8629   5.801   4.597   4.003 -0.0283  0.0375  0.1236
 2755SOL    HW1 8630   5.806   4.519   3.947  1.1115  0.1944 -0.0215
 2755SOL    HW2 8631   5.711   4.598   4.035 -0.1149 -1.2373 -0.0257
 2756SOL     OW 8632   5.734   5.294   5.791  0.1060  0.1638 -0.3495
 2756SOL    HW1 8633   5.813   5.242   5.777 -0.7760 -0.8406 -1.9274
 2756SOL    HW2 8634   5.679   5.274   5.716 -1.2662  1.5724  0.2334
 2757SOL     OW 8635   0.394   3.293   5.252 -0.1014 -0.6797 -0.1454
 2757SOL    HW1 8636   0.328   3.352   5.216 -0.4254 -1.6865 -1.2676
 2757SOL    HW2 8637   0.463   3.292   5.186  0.3402 -0.8232  0.3128
 2758SOL     OW 8638   5.089   1.399   3.638 -0.1960 -0.2346 -0.1033
 2758SOL    HW1 8639   5.133   1.378   3.720  0.4902 -0.6896 -0.5741
 2758SOL    HW2 8640   5.110   1.491   3.622 -0.0028 -0.2550  0.0299
 2759SOL     OW 8641   5.776   0.727   3.587 -0.1404  0.1860 -0.1100
 2759SOL    HW1 8642   5.826   0.705   3.509 -1.3390  1.2583 -1.2437
 2759SOL    HW2 8643   5.706   0.662   3.591  0.8238 -0.8236  1.0089
 2760SOL     OW 8644   5.272   5.999   5.514  0.5475 -0.0678  0.1436
 2760SOL    HW1 8645   5.270   6.037   5.426 -0.0670  0.2444  0.2883
 2760SOL    HW2 8646   5.221   5.919   5.507 -1.5620  1.1549  0.7485
 2761SOL     OW 8647   2.731   3.122   4.233 -0.0084 -0.1999  0.0124
 2761SOL    HW1 8648   2.652   3.177   4.234 -0.9141 -1.3534 -1.7996
 2761SOL    HW2 8649   2.796   3.176   4.188 -0.3362  0.0938 -0.1193
 2762SOL     OW 8650   4.088   4.791   5.917  0.3396  0.0487 -0.4316
 2762SOL    HW1 8651   4.115   4.769   6.006 -0.2367 -1.4267 -0.6024
 2762SOL    HW2 8652   4.013   4.849   5.928  0.5924  0.2940  0.0340
 2763SOL     OW 8653   6.383   5.445   1.733 -0.5396  0.2087  0.1205
 2763SOL    HW1 8654   6.402   5.378   1.667  2.9800  3.0927 -2.1334
 2763SOL    HW2 8655   6.317   5.501   1.692  0.0897  0.7988 -0.1103
 2764SOL     OW 8656   5.850   6.085   6.762  0.4290  0.1356  0.2395
 2764SOL    HW1 8657   5.922   6.146   6.745 -0.3947  0.7843 -1.0670
 2764SOL    HW2 8658   5.777   6.140   6.790  0.0721 -0.3898  0.3617
 2765SOL     OW 8659   3.624   3.902   4.769  0.3168 -0.2886  0.0036
 2765SOL    HW1 8660   3.563   3.912   4.697 -2.0031  0.1274  1.8940
 2765SOL    HW2 8661   3.603   3.816   4.806  0.3798  0.1489  1.0901
 2766SOL     OW 8662   2.932   5.759   4.502  0.1704 -0.1425 -0.0714
 2766SOL    HW1 8663   2.839   5.775   4.487  0.4256  1.1830 -0.3479
 2766SOL    HW2 8664   2.944   5.771   4.596  0.3555  1.4106 -0.2726
 2767SOL     OW 8665   0.164   0.804   3.161  0.3671 -0.3188 -0.2208
 2767SOL    HW1 8666   0.214   0.856   3.099  0.0671  0.6761  0.3461
 2767SOL    HW2 8667   0.073   0.831   3.148  0.4216  0.9114  1.5212
 2768SOL     OW 8668   0.299   1.534   1.260  0.4466 -0.6423 -0.4271
 2768SOL    HW1 8669   0.394   1.546   1.254  0.3619  0.3870  0.0748
 2768SOL    HW2 8670   0.289   1.452   1.309  1.1323  0.7347  2.2787
 2769SOL     OW 8671   4.831   2.899   5.179 -0.9064  0.9009  0.0967
 2769SOL    HW1 8672   4.834   2.934   5.089 -0.6691  0.9803  0.1339
 2769SOL    HW2 8673   4.916   2.856   5.190 -0.9346  0.8951  0.2855
 2770SOL     OW 8674   1.983   3.522   5.287  0.5452 -0.1660 -0.4069
 2770SOL    HW1 8675   2.017   3.570   5.211  0.0548  0.1039 -0.4583
 2770SOL    HW2 8676   2.008   3.575   5.362 -1.5117  1.1144 -0.5659
 2771SOL     OW 8677   5.107   3.431   3.234  0.1285  0.2769 -0.6365
 2771SOL    HW1 8678   5.032   3.421   3.176  0.6564  1.1278 -1.4865
 2771SOL    HW2 8679   5.070   3.471   3.314 -0.4093  0.1394 -0.8097
 2772SOL     OW 8680   4.817   2.711   0.885 -0.6076  0.2206  0.3621
 2772SOL    HW1 8681   4.744   2.765   0.915 -1.5980 -0.5158 -0.6225
 2772SOL    HW2 8682   4.808   2.711   0.789  2.2626  2.2849 -0.0284
 2773SOL     OW 8683   0.215   4.046   3.261  0.0542  0.3478 -0.3435
 2773SOL    HW1 8684   0.252   3.967   3.220 -3.0791 -1.2473 -0.4379
 2773SOL    HW2 8685   0.215   4.026   3.355 -0.8610  0.1578 -0.3782
 2774SOL     OW 8686   5.158   5.534   2.206  0.8418 -0.4831  0.2731
 2774SOL    HW1 8687   5.235   5.478   2.194  1.3130  0.3679 -0.8394
 2774SOL    HW2 8688   5.164   5.598   2.136  1.4480  2.3001  2.6635
 2775SOL     OW 8689   1.070   4.208   1.993  0.6104 -0.1363  0.4016
 2775SOL    HW1 8690   1.093   4.179   1.905 -1.2532  0.9163 -0.5058
 2775SOL    HW2 8691   1.133   4.164   2.050  2.2637 -0.3946 -1.4822
 2776SOL     OW 8692   1.875   5.509   4.278 -0.1292  0.3217 -0.2791
 2776SOL    HW1 8693   1.962   5.474   4.293 -0.7274 -0.5518  1.4439
 2776SOL    HW2 8694   1.823   5.433   4.252 -0.3971  0.8341 -1.3047
 2777SOL     OW 8695   6.462   1.163   5.858  0.0514 -0.5110  0.9026
 2777SOL    HW1 8696   6.455   1.257   5.839  0.6396 -0.8242 -1.0733
 2777SOL    HW2 8697   6.555   1.149   5.876  0.5229 -1.1129 -1.5869
 2778SOL     OW 8698   1.264   0.413   3.423  0.2449 -0.4060  0.4569
 2778SOL    HW1 8699   1.283   0.342   3.484 -1.3778 -2.5991 -1.3792
 2778SOL    HW2 8700   1.228   0.483   3.477 -0.2879 -1.8863  2.1161
 2779SOL     OW 8701   6.527   3.584   3.967  0.0798  0.2353 -0.0009
 2779SOL    HW1 8702   6.473   3.661   3.978 -2.6486 -1.0160 -2.9442
 2779SOL    HW2 8703   6.467   3.510   3.979  1.4412 -1.2650 -1.6984
 2780SOL     OW 8704   2.659   4.575   4.253  0.0910  0.5422  0.0051
 2780SOL    HW1 8705   2.655   4.623   4.336  0.7663  1.8896 -0.7139
 2780SOL    HW2 8706   2.735   4.518   4.263 -1.3387 -1.2614  1.2764
 2781SOL     OW 8707   3.293   6.726   3.459  0.2163  0.1400 -0.6206
 2781SOL    HW1 8708   3.305   6.631   3.455  1.6819  0.3110 -0.7421
 2781SOL    HW2 8709   3.198   6.738   3.455  0.0073 -1.3136 -0.6272
 2782SOL     OW 8710   2.010   4.455   6.624  1.1173  0.1903 -0.1172
 2782SOL    HW1 8711   1.963   4.391   6.678 -1.3818  1.5253 -0.5505
 2782SOL    HW2 8712   2.004   4.419   6.535  2.1877 -0.3221  0.0099
 2783SOL     OW 8713   5.280   0.703   0.954  0.6504  0.5033 -0.0471
 2783SOL    HW1 8714   5.361   0.734   0.994  1.1204 -0.9811  0.2194
 2783SOL    HW2 8715   5.258   0.770   0.889  2.0840  0.9286 -0.1278
 2784SOL     OW 8716   4.842   3.570   3.192 -0.0075 -0.2942 -0.1576
 2784SOL    HW1 8717   4.851   3.503   3.124  0.5536  0.0154 -0.3927
 2784SOL    HW2 8718   4.762   3.616   3.170  0.3875  0.0706 -0.8482
 2785SOL     OW 8719   1.789   4.669   2.858  0.1363  0.0324  0.3191
 2785SOL    HW1 8720   1.796   4.575   2.842  0.1008  0.2733 -1.3857
 2785SOL    HW2 8721   1.861   4.708   2.808 -0.2891  0.9529  0.3891
 2786SOL     OW 8722   4.974   2.292   5.998  0.0900 -0.2910 -0.6927
 2786SOL    HW1 8723   5.027   2.219   5.964  2.2311  0.9593 -0.2413
 2786SOL    HW2 8724   4.990   2.290   6.093 -1.4252 -0.4063 -0.4208
 2787SOL     OW 8725   3.779   4.734   3.387 -0.0754 -0.2290  0.3436
 2787SOL    HW1 8726   3.724   4.805   3.421  0.6494  0.7239 -0.4064
 2787SOL    HW2 8727   3.862   4.777   3.366  0.0524 -1.1025 -1.0570
 2788SOL     OW 8728   4.560   5.249   1.184  0.4682  0.9744 -0.0163
 2788SOL    HW1 8729   4.607   5.201   1.251 -0.6712 -1.5029 -0.8786
 2788SOL    HW2 8730   4.628   5.281   1.125  1.2938  0.9209  0.8849
 2789SOL     OW 8731   2.414   1.920   6.485 -0.0284 -0.0156 -0.3551
 2789SOL    HW1 8732   2.428   1.845   6.543  1.0425  1.3878  1.3128
 2789SOL    HW2 8733   2.480   1.910   6.416 -0.7502 -1.2612 -0.8950
 2790SOL     OW 8734   4.950   5.162   6.419 -0.1428 -0.3303 -0.1441
 2790SOL    HW1 8735   5.039   5.127   6.408  0.6014  1.7866 -1.4976
 2790SOL    HW2 8736   4.926   5.194   6.332 -0.9269  1.9752  0.8279
 2791SOL     OW 8737   5.079   2.097   6.487  0.4611 -0.0469  0.2469
 2791SOL    HW1 8738   5.078   2.027   6.553  0.6409 -0.6118 -0.3416
 2791SOL    HW2 8739   5.012   2.072   6.424  0.0930  0.6409  0.3572
 2792SOL     OW 8740   2.058   0.768   6.205 -0.0712 -0.5548  0.6152
 2792SOL    HW1 8741   2.033   0.777   6.112  1.8368 -1.5225 -0.0429
 2792SOL    HW2 8742   2.152   0.783   6.206 -0.3591  1.7334  2.8071
 2793SOL     OW 8743   2.093   2.771   6.028 -0.1243 -0.1295 -0.0868
 2793SOL    HW1 8744   2.092   2.679   6.004 -1.0779 -0.2651  0.4206
 2793SOL    HW2 8745   2.020   2.810   5.980  0.4918  0.4434 -0.5771
 2794SOL     OW 8746   5.382   1.483   5.025 -0.2767  0.0046 -0.0018
 2794SOL    HW1 8747   5.305   1.537   5.045 -0.3279  0.7812 -2.0160
 2794SOL    HW2 8748   5.357   1.394   5.052 -1.6276  0.3609 -0.0223
 2795SOL     OW 8749   2.300   1.752   0.494  0.0368 -0.6151 -0.2309
 2795SOL    HW1 8750   2.385   1.713   0.478  0.4007  0.2128 -0.3404
 2795SOL    HW2 8751   2.315   1.815   0.564 -0.0353  1.0298 -1.6277
 2796SOL     OW 8752   1.896   2.869   6.409  0.8170  0.7851 -0.3915
 2796SOL    HW1 8753   1.936   2.883   6.323  1.0048  1.1931 -0.2411
 2796SOL    HW2 8754   1.925   2.944   6.461 -0.2366  1.1582 -0.3150
 2797SOL     OW 8755   3.224   1.568   6.332 -0.3588  0.1506 -0.1531
 2797SOL    HW1 8756   3.137   1.586   6.295 -0.9330 -1.1546  0.4806
 2797SOL    HW2 8757   3.215   1.482   6.371  0.7751  0.6694  1.3323
 2798SOL     OW 8758   6.662   3.509   2.663  0.4101  0.3795 -0.0844
 2798SOL    HW1 8759   6.729   3.538   2.600 -0.8617 -0.5902 -1.9663
 2798SOL    HW2 8760   6.586   3.564   2.643 -0.5826 -1.1528 -0.6622
 2799SOL     OW 8761   3.447   0.678   6.107  0.4163  0.1303 -0.8518
 2799SOL    HW1 8762   3.435   0.715   6.019  0.9338  1.0383 -0.5483
 2799SOL    HW2 8763   3.412   0.589   6.100 -1.0642  0.7317 -1.5443
 2800SOL     OW 8764   5.173   4.414   1.604 -0.0203 -0.3995  0.5773
 2800SOL    HW1 8765   5.121   4.406   1.524  1.1165 -0.7549 -0.1466
 2800SOL    HW2 8766   5.112   4.449   1.669 -0.6434  1.1814 -0.7823
 2801SOL     OW 8767   6.155   6.782   3.380  0.4860  0.3388 -0.3866
 2801SOL    HW1 8768   6.204   6.749   3.305 -2.1898  1.2634 -2.6831
 2801SOL    HW2 8769   6.177   6.875   3.385  0.8467  0.2320  0.1827
 2802SOL     OW 8770   5.423   4.393   3.263 -0.1791 -0.2556  0.2796
 2802SOL    HW1 8771   5.362   4.340   3.316 -0.8857 -0.0706 -0.3400
 2802SOL    HW2 8772   5.508   4.352   3.278 -0.1423  0.4332  2.4308
 2803SOL     OW 8773   1.027   4.155   6.524 -0.1824  0.5034 -0.3732
 2803SOL    HW1 8774   0.980   4.139   6.606 -1.0182  0.5522 -0.8303
 2803SOL    HW2 8775   0.958   4.164   6.458  0.5083 -1.2771 -1.4112
 2804SOL     OW 8776   3.220   3.516   3.399 -0.1164 -0.2955 -0.3253
 2804SOL    HW1 8777   3.316   3.516   3.396 -0.0558  1.2410  0.7444
 2804SOL    HW2 8778   3.194   3.589   3.343 -0.8465 -2.5637 -3.1480
 2805SOL     OW 8779   0.456   4.146   6.195 -0.0365  0.1700 -0.3097
 2805SOL    HW1 8780   0.504   4.207   6.139  1.1650  0.6337  1.1689
 2805SOL    HW2 8781   0.493   4.159   6.282 -3.5995  1.3422  1.1997
 2806SOL     OW 8782   1.644   3.604   5.068 -0.6016  0.2841  0.4625
 2806SOL    HW1 8783   1.688   3.520   5.085  0.1394  0.5218 -0.2619
 2806SOL    HW2 8784   1.661   3.655   5.148 -2.5095 -0.8260  1.6579
 2807SOL     OW 8785   2.262   2.389   1.545 -0.5215 -0.0324 -0.0416
 2807SOL    HW1 8786   2.309   2.423   1.469  1.0937  1.5313  1.5737
 2807SOL    HW2 8787   2.229   2.467   1.590 -2.5496 -0.9848  0.2294
 2808SOL     OW 8788   2.189   4.921   0.953 -0.2434  0.3297  0.2480
 2808SOL    HW1 8789   2.248   4.960   1.019  0.2322  1.0360 -0.5748
 2808SOL    HW2 8790   2.214   4.829   0.950  1.0123  0.6666 -0.2681
 2809SOL     OW 8791   6.652   0.215   0.173 -0.1485  0.1112  0.8094
 2809SOL    HW1 8792   6.576   0.233   0.118 -1.3934 -1.0520  2.0758
 2809SOL    HW2 8793   6.701   0.298   0.173 -0.5850  0.4271 -1.2291
 2810SOL     OW 8794   6.408   4.593   5.084 -0.5917 -0.3879 -0.3916
 2810SOL    HW1 8795   6.346   4.524   5.061 -1.1214 -0.0790  0.0970
 2810SOL    HW2 8796   6.386   4.617   5.174 -0.1494  0.1380 -0.4178
 2811SOL     OW 8797   0.197   4.953   5.772 -0.5273  0.0045 -0.0060
 2811SOL    HW1 8798   0.246   4.978   5.694 -1.0959  1.6958  0.1422
 2811SOL    HW2 8799   0.220   4.861   5.786  0.7430  0.0879 -1.2869
 2812SOL     OW 8800   1.935   1.858   0.165 -0.7395 -0.3274 -0.1551
 2812SOL    HW1 8801   1.869   1.836   0.100 -1.2473  1.1071 -0.1517
 2812SOL    HW2 8802   1.919   1.796   0.237 -0.4870 -1.5934 -1.1496
 2813SOL     OW 8803   0.090   4.965   1.350  0.5553 -0.2756 -0.0008
 2813SOL    HW1 8804   0.168   5.018   1.369 -0.5847  1.5644 -0.2206
 2813SOL    HW2 8805   0.081   4.908   1.426  2.0288 -0.4511  0.0797
 2814SOL     OW 8806   1.613   1.656   3.439 -0.6305  0.1634 -0.0302
 2814SOL    HW1 8807   1.606   1.653   3.535 -1.1019 -0.5197 -0.0782
 2814SOL    HW2 8808   1.687   1.714   3.422  0.2875 -0.7220  0.7879
 2815SOL     OW 8809   1.014   4.903   4.332  0.0351  0.0285 -0.2411
 2815SOL    HW1 8810   1.065   4.882   4.410 -1.1188  0.4248  0.6585
 2815SOL    HW2 8811   1.024   4.998   4.323 -1.9910  0.4440  1.0829
 2816SOL     OW 8812   5.613   0.940   3.553 -0.2937  0.2298  0.1250
 2816SOL    HW1 8813   5.664   1.021   3.555 -1.0637  0.8701 -2.2988
 2816SOL    HW2 8814   5.672   0.874   3.588  1.4151  1.3345 -0.5462
 2817SOL     OW 8815   2.257   2.168   5.854 -0.6749  0.4858  0.1471
 2817SOL    HW1 8816   2.241   2.158   5.760  2.0211  1.4872 -0.4857
 2817SOL    HW2 8817   2.241   2.261   5.872 -0.0603  0.5404  0.4281
 2818SOL     OW 8818   2.732   1.726   1.146  0.6339 -0.5928  0.6299
 2818SOL    HW1 8819   2.801   1.681   1.098 -0.1584 -2.9271  1.5390
 2818SOL    HW2 8820   2.730   1.684   1.231 -0.6119  0.7615  1.3198
 2819SOL     OW 8821   3.418   4.112   2.328 -0.4196  0.4323  0.0093
 2819SOL    HW1 8822   3.327   4.142   2.328 -0.7290 -0.4780  0.5387
 2819SOL    HW2 8823   3.442   4.108   2.235 -0.2603  2.5545 -0.0826
 2820SOL     OW 8824   4.500   0.479   0.399 -0.2216  1.0161 -0.2445
 2820SOL    HW1 8825   4.551   0.408   0.438 -1.5128 -0.2292 -0.7058
 2820SOL    HW2 8826   4.544   0.497   0.316  1.0561  1.9009  0.6128
 2821SOL     OW 8827   2.888   5.815   6.354 -0.1481  0.6366 -0.0351
 2821SOL    HW1 8828   2.943   5.866   6.295  0.6681  0.8843  0.9327
 2821SOL    HW2 8829   2.942   5.740   6.379 -1.4059 -0.8979 -1.6343
 2822SOL     OW 8830   5.011   3.027   4.282  0.6230 -0.6009 -0.4008
 2822SOL    HW1 8831   5.094   3.073   4.265  1.2932 -0.9031  1.6681
 2822SOL    HW2 8832   4.948   3.097   4.300  1.2329 -0.3932  1.0902
 2823SOL     OW 8833   0.791   1.169   5.322  0.0057 -0.0072 -0.3173
 2823SOL    HW1 8834   0.771   1.229   5.394  1.1690  0.8430 -0.6768
 2823SOL    HW2 8835   0.706   1.129   5.300 -0.2130 -1.1158  2.2044
 2824SOL     OW 8836   2.232   3.075   2.446 -0.1550  0.9116  0.3067
 2824SOL    HW1 8837   2.237   3.046   2.355  0.5005 -0.0944  0.6491
 2824SOL    HW2 8838   2.164   3.142   2.446 -1.3933 -0.2860 -0.6160
 2825SOL     OW 8839   0.365   6.465   1.481 -0.2549 -0.3526  0.3651
 2825SOL    HW1 8840   0.450   6.477   1.437  0.5471 -2.0832  1.3458
 2825SOL    HW2 8841   0.300   6.475   1.410  0.6844  1.4063 -0.3336
 2826SOL     OW 8842   0.734   3.964   3.157  0.1085 -0.2293  0.3048
 2826SOL    HW1 8843   0.752   4.008   3.241  0.8751  0.2970 -0.1267
 2826SOL    HW2 8844   0.655   3.912   3.174  0.5555 -0.5537  1.5115
 2827SOL     OW 8845   0.049   6.424   3.396 -0.2258  0.1237  0.2814
 2827SOL    HW1 8846   0.034   6.448   3.305  1.3595  0.4209  0.0681
 2827SOL    HW2 8847   0.064   6.507   3.441  0.5955 -0.1129  0.4719
 2828SOL     OW 8848   1.997   4.170   3.898 -0.1272 -0.5221  0.1460
 2828SOL    HW1 8849   2.093   4.163   3.904 -0.0869  0.7360  1.2731
 2828SOL    HW2 8850   1.982   4.249   3.846 -0.5672 -1.2047 -0.7827
 2829SOL     OW 8851   0.490   2.163   5.058  0.3290 -0.1657 -0.4070
 2829SOL    HW1 8852   0.454   2.188   4.973  0.4567 -2.0939 -1.0930
 2829SOL    HW2 8853   0.413   2.142   5.112  0.1814  2.1933  0.4110
 2830SOL     OW 8854   2.740   4.377   3.979  0.3968 -0.3557 -0.3282
 2830SOL    HW1 8855   2.729   4.463   3.939  0.1030 -0.0358  0.4143
 2830SOL    HW2 8856   2.701   4.316   3.917 -0.5631  0.1876 -0.2742
 2831SOL     OW 8857   6.279   5.617   0.108  0.0322  0.0191 -0.2622
 2831SOL    HW1 8858   6.266   5.584   0.197 -1.3791  1.6111  0.1665
 2831SOL    HW2 8859   6.200   5.591   0.061 -0.3588  1.3395 -0.3528
 2832SOL     OW 8860   1.917   4.915   5.109  0.0773 -0.4322  0.3009
 2832SOL    HW1 8861   1.947   4.872   5.189 -0.9469  0.6401  1.2966
 2832SOL    HW2 8862   1.998   4.942   5.064  0.6778  0.5189  1.8682
 2833SOL     OW 8863   1.013   2.584   3.314 -0.3757  0.0381  0.3709
 2833SOL    HW1 8864   0.957   2.509   3.290  1.3545 -0.5577 -2.1558
 2833SOL    HW2 8865   0.997   2.595   3.408 -1.1982 -3.1066  0.7481
 2834SOL     OW 8866   3.533   1.160   0.858 -0.0936  0.3872 -0.6773
 2834SOL    HW1 8867   3.441   1.156   0.830 -0.2974  1.3309 -0.1843
 2834SOL    HW2 8868   3.532   1.218   0.935  0.2750 -2.8024  1.9912
 2835SOL     OW 8869   0.589   6.338   4.286 -0.1265 -0.3849 -0.2983
 2835SOL    HW1 8870   0.659   6.331   4.351 -0.6480 -0.4163  0.2648
 2835SOL    HW2 8871   0.540   6.256   4.295 -0.2948 -0.3211 -0.6292
 2836SOL     OW 8872   4.179   3.347   0.741 -0.3367  0.2427 -0.6050
 2836SOL    HW1 8873   4.084   3.335   0.748 -0.1575 -0.4517  0.7798
 2836SOL    HW2 8874   4.216   3.287   0.805  1.1180 -0.4610 -2.0509
 2837SOL     OW 8875   5.182   1.631   1.384  0.2315 -0.0631  0.3666
 2837SOL    HW1 8876   5.114   1.566   1.402 -0.0333 -0.0076 -0.4175
 2837SOL    HW2 8877   5.197   1.624   1.290  0.3178  0.8972  0.3072
 2838SOL     OW 8878   0.988   3.588   0.050  0.2271  0.4359 -0.3347
 2838SOL    HW1 8879   1.071   3.636   0.045  1.1181 -1.1181 -1.0980
 2838SOL    HW2 8880   1.001   3.523   0.119 -0.0616 -0.3454 -0.9979
 2839SOL     OW 8881   3.608   2.512   3.796  0.0199 -0.0452 -0.0334
 2839SOL    HW1 8882   3.530   2.461   3.816  1.4348 -1.4997  2.1766
 2839SOL    HW2 8883   3.681   2.452   3.811  1.6641  1.9520  0.3938
 2840SOL     OW 8884   4.629   4.600   5.123  0.5502 -0.2880 -0.0275
 2840SOL    HW1 8885   4.545   4.609   5.168  0.7673 -2.7530  1.0129
 2840SOL    HW2 8886   4.640   4.683   5.076 -1.5182  0.8621  1.3673
 2841SOL     OW 8887   6.790   3.675   3.075  0.0778  0.4513  0.0779
 2841SOL    HW1 8888   6.733   3.599   3.069  0.0565  0.5156 -0.5927
 2841SOL    HW2 8889   6.750   3.730   3.142  0.5206 -0.4813  1.1272
 2842SOL     OW 8890   5.126   4.755   5.828 -0.6175 -0.2717 -0.2428
 2842SOL    HW1 8891   5.136   4.680   5.768 -1.4297 -1.3562  0.9074
 2842SOL    HW2 8892   5.052   4.804   5.792 -1.8157 -1.5131  0.3704
 2843SOL     OW 8893   4.343   5.789   0.498 -0.3047  0.7469  0.0063
 2843SOL    HW1 8894   4.405   5.784   0.425 -0.9205  0.6526 -0.5233
 2843SOL    HW2 8895   4.374   5.723   0.560 -1.0588 -0.8122 -1.2044
 2844SOL     OW 8896   3.773   2.453   6.421 -0.1749 -0.1294  0.2871
 2844SOL    HW1 8897   3.751   2.514   6.351  1.0703  0.9842  0.8432
 2844SOL    HW2 8898   3.821   2.505   6.485 -0.1971 -1.4065  1.3901
 2845SOL     OW 8899   1.950   0.229   6.189  0.1679 -0.2538  0.2812
 2845SOL    HW1 8900   1.970   0.198   6.277  0.3077 -0.5259  0.1546
 2845SOL    HW2 8901   1.877   0.173   6.159  1.4828 -1.5894 -0.5714
 2846SOL     OW 8902   2.321   2.175   0.295 -0.6133  0.1854 -0.0823
 2846SOL    HW1 8903   2.284   2.113   0.358  0.8289  0.7851  1.4397
 2846SOL    HW2 8904   2.331   2.125   0.214 -0.5411 -1.2421  0.7803
 2847SOL     OW 8905   3.041   2.448   6.382  0.7036  0.8563 -0.2223
 2847SOL    HW1 8906   2.948   2.428   6.374  0.8315  0.3703 -0.5594
 2847SOL    HW2 8907   3.049   2.498   6.463  0.4093 -0.7811  0.8590
 2848SOL     OW 8908   4.641   4.472   0.731  0.0864 -0.2607  0.3399
 2848SOL    HW1 8909   4.555   4.465   0.772 -1.2089  1.2988 -1.9044
 2848SOL    HW2 8910   4.677   4.554   0.763  0.0399 -0.1318  0.0640
 2849SOL     OW 8911   0.206   0.653   2.026 -0.0942  0.2254 -0.2987
 2849SOL    HW1 8912   0.114   0.669   2.051 -0.4003 -0.2815 -1.0745
 2849SOL    HW2 8913   0.205   0.654   1.931  0.8262  0.8069 -0.3068
 2850SOL     OW 8914   6.612   2.649   0.840 -0.8490  0.1573  0.2851
 2850SOL    HW1 8915   6.640   2.688   0.922 -1.9056  0.9346  0.2931
 2850SOL    HW2 8916   6.690   2.605   0.806  0.3242  2.0342  0.4163
 2851SOL     OW 8917   0.636   5.661   3.924 -0.4512 -0.4804 -0.1707
 2851SOL    HW1 8918   0.597   5.671   4.011  0.2994  0.3318  0.0844
 2851SOL    HW2 8919   0.706   5.597   3.936 -0.3388 -0.3582 -0.1785
 2852SOL     OW 8920   1.833   5.507   5.647  0.3054 -0.0125  0.1556
 2852SOL    HW1 8921   1.871   5.588   5.681  0.0022  0.3690 -0.3971
 2852SOL    HW2 8922   1.817   5.526   5.555 -4.5264  1.1222  0.9904
 2853SOL     OW 8923   2.399   0.280   2.929 -0.1500 -0.1386  0.0598
 2853SOL    HW1 8924   2.364   0.277   2.840 -2.4577  0.4682  0.8587
 2853SOL    HW2 8925   2.492   0.264   2.919 -0.5985 -1.7816 -2.2962
 2854SOL     OW 8926   6.338   5.537   0.381 -0.2128  0.2939 -0.2119
 2854SOL    HW1 8927   6.327   5.443   0.388 -1.1200  0.4948  2.3947
 2854SOL    HW2 8928   6.405   5.559   0.445 -0.9166  1.5251  0.1578
 2855SOL     OW 8929   5.221   3.190   4.252 -0.1350  0.0451 -0.4399
 2855SOL    HW1 8930   5.202   3.266   4.307 -1.5221 -0.0088 -0.7999
 2855SOL    HW2 8931   5.264   3.227   4.175  2.1887  0.0792  0.7900
 2856SOL     OW 8932   1.398   4.446   1.233  0.0737  0.4259  0.2446
 2856SOL    HW1 8933   1.491   4.425   1.237  0.1525 -0.1962 -2.7662
 2856SOL    HW2 8934   1.358   4.386   1.296  1.5093 -0.6115  0.2279
 2857SOL     OW 8935   1.824   6.273   6.596 -0.8758 -0.5660  0.0280
 2857SOL    HW1 8936   1.900   6.233   6.554 -0.9777 -1.6937  0.8753
 2857SOL    HW2 8937   1.809   6.220   6.674 -1.7475  0.4323  0.5590
 2858SOL     OW 8938   3.525   0.168   4.423 -0.6624  0.1201  0.3960
 2858SOL    HW1 8939   3.437   0.130   4.422 -1.5495  2.0767 -0.0065
 2858SOL    HW2 8940   3.526   0.226   4.499  0.0725  0.5712  0.0574
 2859SOL     OW 8941   1.497   1.663   5.754  0.0620 -0.6451  1.1169
 2859SOL    HW1 8942   1.436   1.728   5.719 -0.1453 -1.4394 -0.0812
 2859SOL    HW2 8943   1.511   1.689   5.845  0.4908  1.4277  0.4995
 2860SOL     OW 8944   6.093   3.540   2.236 -0.0827 -0.9408  0.0934
 2860SOL    HW1 8945   6.030   3.573   2.300  0.5026  0.9386 -0.2203
 2860SOL    HW2 8946   6.145   3.617   2.213  0.2727 -1.7546 -2.0145
 2861SOL     OW 8947   5.269   6.431   2.696  0.1388 -0.1157  0.1542
 2861SOL    HW1 8948   5.245   6.359   2.755 -1.0518  1.0521  1.1795
 2861SOL    HW2 8949   5.310   6.496   2.753  0.3513  0.4063 -0.5816
 2862SOL     OW 8950   6.194   6.083   1.048  0.2193  0.3552 -0.5530
 2862SOL    HW1 8951   6.099   6.078   1.036  0.1694 -1.4085  0.2200
 2862SOL    HW2 8952   6.216   6.174   1.028 -1.7921  1.1129  0.3451
 2863SOL     OW 8953   5.684   0.448   4.754 -0.3012  0.0056 -0.1691
 2863SOL    HW1 8954   5.707   0.486   4.839  0.4502  0.7741 -0.6974
 2863SOL    HW2 8955   5.699   0.354   4.764 -0.5205  0.0494  0.6360
 2864SOL     OW 8956   1.291   0.518   5.709 -0.1147  0.4685  0.3120
 2864SOL    HW1 8957   1.372   0.512   5.659  0.0750 -1.5817  0.7579
 2864SOL    HW2 8958   1.284   0.433   5.753 -2.4477  0.6364  0.3891
 2865SOL     OW 8959   6.350   2.783   5.726 -0.2735  0.2159 -0.6295
 2865SOL    HW1 8960   6.359   2.740   5.640 -1.2827 -1.0409 -0.1408
 2865SOL    HW2 8961   6.361   2.876   5.707 -1.8941  0.1302 -2.3951
 2866SOL     OW 8962   6.415   0.846   6.067  0.3593  0.4640 -0.1728
 2866SOL    HW1 8963   6.481   0.857   5.999 -0.8776 -0.9782 -1.6812
 2866SOL    HW2 8964   6.412   0.752   6.083 -1.4405  0.4705 -0.2718
 2867SOL     OW 8965   4.038   6.760   4.795 -0.0622  0.7237 -0.1141
 2867SOL    HW1 8966   4.003   6.837   4.840  0.7114  0.5510  0.8042
 2867SOL    HW2 8967   4.070   6.704   4.865  3.3563  1.4836 -0.8837
 2868SOL     OW 8968   6.546   6.001   2.864 -0.4304 -0.0788  0.4750
 2868SOL    HW1 8969   6.621   6.003   2.805 -0.9612 -1.1069 -0.2638
 2868SOL    HW2 8970   6.498   6.082   2.845 -0.3460 -0.1812 -0.1818
 2869SOL     OW 8971   1.136   3.129   1.288 -0.7227 -0.0318 -0.5753
 2869SOL    HW1 8972   1.166   3.067   1.354 -0.3342  0.2574 -0.4728
 2869SOL    HW2 8973   1.098   3.075   1.219  0.4019 -0.4283 -0.8909
 2870SOL     OW 8974   5.168   3.432   4.441  0.1342 -0.1534  0.0490
 2870SOL    HW1 8975   5.242   3.481   4.477  0.9927 -1.7947  0.6134
 2870SOL    HW2 8976   5.110   3.499   4.407  2.1564  1.1917 -0.9697
 2871SOL     OW 8977   6.699   4.015   0.263 -0.1299  0.2230 -0.3448
 2871SOL    HW1 8978   6.769   3.996   0.326 -0.0909  0.3572 -0.3486
 2871SOL    HW2 8979   6.641   3.939   0.269  0.4586 -0.2947 -0.9543
 2872SOL     OW 8980   5.563   3.572   4.848  0.4304  0.4047 -0.2755
 2872SOL    HW1 8981   5.504   3.584   4.922 -3.1861 -2.5338 -2.3871
 2872SOL    HW2 8982   5.545   3.646   4.791 -0.2863  0.1965 -0.3244
 2873SOL     OW 8983   1.169   2.336   5.968  0.0522 -0.0708  0.0485
 2873SOL    HW1 8984   1.183   2.245   5.944  0.8332  0.5614 -2.2319
 2873SOL    HW2 8985   1.246   2.361   6.018 -0.6131 -0.8706  1.5366
 2874SOL     OW 8986   4.415   1.906   1.703 -0.7874  0.0516  0.2385
 2874SOL    HW1 8987   4.370   1.952   1.632 -3.0525 -0.0750  1.4985
 2874SOL    HW2 8988   4.362   1.923   1.780  1.2763 -0.3111  1.8225
 2875SOL     OW 8989   2.922   3.095   0.689  0.2529 -0.5661  0.0098
 2875SOL    HW1 8990   2.875   3.029   0.639 -0.2528  0.0404 -0.3246
 2875SOL    HW2 8991   2.907   3.177   0.642 -1.3099  0.2628  1.8419
 2876SOL     OW 8992   2.223   0.237   5.403  0.0811 -0.3619 -0.0373
 2876SOL    HW1 8993   2.200   0.323   5.369 -1.5183 -0.9023 -0.3730
 2876SOL    HW2 8994   2.142   0.203   5.441  1.0471 -1.1056  1.4658
 2877SOL     OW 8995   4.885   3.490   5.920 -0.4117  0.8450 -0.4088
 2877SOL    HW1 8996   4.938   3.415   5.948 -1.6118 -0.0309 -0.4118
 2877SOL    HW2 8997   4.918   3.512   5.833  0.0849  0.4587 -0.3248
 2878SOL     OW 8998   3.328   6.223   2.580 -0.2868  0.1046 -0.3393
 2878SOL    HW1 8999   3.236   6.234   2.604 -0.6233 -0.6394 -1.2145
 2878SOL    HW2 9000   3.344   6.289   2.514 -0.5798 -0.6127 -1.1465
 2879SOL     OW 9001   5.276   5.509   4.641 -0.5361 -0.6054  0.4174
 2879SOL    HW1 9002   5.272   5.537   4.732 -1.4294  0.4126  0.0904
 2879SOL    HW2 9003   5.185   5.501   4.614 -0.3556  1.4212 -1.0321
 2880SOL     OW 9004   1.571   5.206   5.460  0.9055  0.2038  0.4498
 2880SOL    HW1 9005   1.636   5.272   5.437  0.7697  0.1760 -0.0285
 2880SOL    HW2 9006   1.614   5.122   5.442  0.0471  0.2039 -1.8720
 2881SOL     OW 9007   0.822   5.656   5.339  0.0288  0.3394  0.0883
 2881SOL    HW1 9008   0.739   5.704   5.349 -0.6716 -0.5355 -1.2280
 2881SOL    HW2 9009   0.798   5.564   5.349  1.1672  0.1547  1.4142
 2882SOL     OW 9010   5.281   6.329   5.044 -0.0397  0.0841  0.1308
 2882SOL    HW1 9011   5.374   6.321   5.023 -0.0075  1.1268 -0.1601
 2882SOL    HW2 9012   5.255   6.412   5.005 -0.9419  0.1067  0.7654
 2883SOL     OW 9013   3.719   1.998   4.738  0.0873 -0.1497 -0.0937
 2883SOL    HW1 9014   3.756   2.086   4.729  0.1708  0.0359  1.6962
 2883SOL    HW2 9015   3.757   1.964   4.819  0.0091 -1.8360 -0.7178
 2884SOL     OW 9016   3.827   2.571   2.160 -0.2244  0.4502  0.2421
 2884SOL    HW1 9017   3.916   2.566   2.125 -0.7968  0.1262 -1.2144
 2884SOL    HW2 9018   3.818   2.661   2.191 -0.0845  1.1275 -1.5825
 2885SOL     OW 9019   4.823   5.999   2.907  1.1771  0.5737  0.2656
 2885SOL    HW1 9020   4.792   5.914   2.875  0.2338  0.2891  1.7782
 2885SOL    HW2 9021   4.861   6.041   2.831  0.4585 -0.6674 -0.8340
 2886SOL     OW 9022   0.216   1.159   5.403  0.6027  0.3102 -0.2711
 2886SOL    HW1 9023   0.190   1.133   5.315  1.4428  1.4663 -0.8930
 2886SOL    HW2 9024   0.158   1.233   5.424  0.4578  0.0881  0.1157
 2887SOL     OW 9025   4.916   1.305   4.190  0.3338  1.2690 -0.0902
 2887SOL    HW1 9026   4.983   1.367   4.219  0.5500  1.1000 -0.2183
 2887SOL    HW2 9027   4.833   1.348   4.209  0.4227  2.9890 -2.9688
 2888SOL     OW 9028   5.045   4.594   0.534 -0.6620  0.3650 -0.4335
 2888SOL    HW1 9029   5.115   4.597   0.599  1.7027 -0.4565 -2.7345
 2888SOL    HW2 9030   4.990   4.670   0.554  0.2530  0.4434  2.1130
 2889SOL     OW 9031   1.466   2.003   3.685 -0.2748  0.2543  0.4231
 2889SOL    HW1 9032   1.549   2.017   3.640 -1.7075  1.4340 -2.0614
 2889SOL    HW2 9033   1.474   2.052   3.767  1.5784  0.0437  0.3958
 2890SOL     OW 9034   0.684   6.615   6.622  0.6643  0.0625  0.3712
 2890SOL    HW1 9035   0.720   6.679   6.684  1.6490  0.3550 -0.4936
 2890SOL    HW2 9036   0.666   6.665   6.543 -3.1520  0.3042  1.1687
 2891SOL     OW 9037   5.438   2.857   6.037  0.8554  0.1867  0.5311
 2891SOL    HW1 9038   5.474   2.833   6.122  0.7109 -0.1730  0.4876
 2891SOL    HW2 9039   5.347   2.881   6.054  0.6470 -0.4956  0.3764
 2892SOL     OW 9040   2.397   4.358   2.369 -0.4118  0.0043  0.2598
 2892SOL    HW1 9041   2.440   4.290   2.318  0.9856  0.9720  0.0836
 2892SOL    HW2 9042   2.432   4.440   2.334 -2.4682  0.8567  0.0851
 2893SOL     OW 9043   4.984   2.236   3.308  0.0628 -0.0437 -0.0011
 2893SOL    HW1 9044   4.930   2.207   3.235  0.7574 -1.0038 -0.1455
 2893SOL    HW2 9045   4.960   2.178   3.380 -0.1645  0.4909  0.3604
 2894SOL     OW 9046   0.555   0.026   3.756  0.2394  0.6498 -0.8024
 2894SOL    HW1 9047   0.628  -0.001   3.813  2.4678  1.4989 -3.0561
 2894SOL    HW2 9048   0.535   0.115   3.783 -0.3609  0.2525  0.1415
 2895SOL     OW 9049   1.099   3.101   3.751 -0.4064 -0.4390  0.0911
 2895SOL    HW1 9050   1.168   3.048   3.712  0.8553  2.7053 -2.3665
 2895SOL    HW2 9051   1.019   3.051   3.737  0.4959 -1.1094 -3.5080
 2896SOL     OW 9052   1.004   5.583   5.625  0.2282 -0.0076 -0.1839
 2896SOL    HW1 9053   1.015   5.619   5.537 -1.7552 -1.8965 -1.2758
 2896SOL    HW2 9054   0.945   5.644   5.669 -0.0750  0.0730 -0.7091
 2897SOL     OW 9055   1.789   6.427   3.664 -0.1120 -0.0940  0.3663
 2897SOL    HW1 9056   1.783   6.515   3.628 -0.1810 -0.0473  0.4901
 2897SOL    HW2 9057   1.733   6.429   3.742  0.6883  0.0474  0.9515
 2898SOL     OW 9058   0.073   4.840   3.754 -0.0397  0.1911  0.6551
 2898SOL    HW1 9059   0.001   4.852   3.692 -0.1245 -0.3074  0.6518
 2898SOL    HW2 9060   0.067   4.748   3.780  2.0747 -0.5528 -1.1692
 2899SOL     OW 9061   2.923   1.253   5.504 -0.0631 -0.3282 -0.4029
 2899SOL    HW1 9062   2.962   1.265   5.417  0.4697 -0.5921 -0.2060
 2899SOL    HW2 9063   2.844   1.202   5.487 -0.5619  0.5870 -0.8561
 2900SOL     OW 9064   2.335   0.604   3.809 -0.1646 -0.1492  0.0098
 2900SOL    HW1 9065   2.421   0.644   3.792 -0.2556  0.7727  1.4782
 2900SOL    HW2 9066   2.340   0.518   3.769  0.2864  1.0502 -2.7181
 2901SOL     OW 9067   0.632   3.708   3.887  0.1526 -0.6152  0.1839
 2901SOL    HW1 9068   0.695   3.716   3.815 -2.0942  3.2356 -1.7242
 2901SOL    HW2 9069   0.553   3.672   3.846 -0.9101  0.8909  0.8152
 2902SOL     OW 9070   5.645   1.274   6.638  0.2510  0.5400  0.0674
 2902SOL    HW1 9071   5.613   1.362   6.617 -1.3259 -0.1039 -0.2988
 2902SOL    HW2 9072   5.702   1.252   6.564 -1.1283  0.3767 -0.9770
 2903SOL     OW 9073   3.259   4.487   0.180 -0.0714  0.1353  0.0619
 2903SOL    HW1 9074   3.325   4.507   0.246 -0.3123  2.1730 -0.2316
 2903SOL    HW2 9075   3.176   4.502   0.224 -0.2481  0.8093 -0.4733
 2904SOL     OW 9076   0.085   2.330   2.394 -0.5402  0.6745 -0.1637
 2904SOL    HW1 9077   0.004   2.380   2.406 -0.4500  0.9409 -0.6360
 2904SOL    HW2 9078   0.141   2.356   2.468 -1.0370  0.1779  0.3918
 2905SOL     OW 9079   5.106   0.313   5.358  0.3579  0.6170 -0.3119
 2905SOL    HW1 9080   5.160   0.266   5.422 -0.0677 -1.2595 -1.2878
 2905SOL    HW2 9081   5.016   0.288   5.380  0.2154 -0.1344 -1.6813
 2906SOL     OW 9082   1.339   3.303   6.126  0.2294  0.2066 -0.0435
 2906SOL    HW1 9083   1.266   3.264   6.174  1.0103 -0.3942  0.6808
 2906SOL    HW2 9084   1.302   3.382   6.086 -0.9759 -0.4249 -0.2233
 2907SOL     OW 9085   3.345   5.227   4.169  0.2295  0.3980 -0.0428
 2907SOL    HW1 9086   3.374   5.138   4.184  1.3148 -0.0997 -3.9599
 2907SOL    HW2 9087   3.267   5.237   4.224  1.7085 -1.8386  2.7355
 2908SOL     OW 9088   5.108   2.248   1.759 -0.0191  0.1814  0.7237
 2908SOL    HW1 9089   5.171   2.320   1.768 -0.9906  1.0099  1.0731
 2908SOL    HW2 9090   5.057   2.250   1.840 -0.3338 -0.6530  0.5630
 2909SOL     OW 9091   5.034   4.494   2.429 -0.0888 -0.2082 -0.1421
 2909SOL    HW1 9092   5.004   4.409   2.397  1.8554 -1.7006  1.6738
 2909SOL    HW2 9093   4.988   4.505   2.513  0.0666  0.2679 -0.1181
 2910SOL     OW 9094   1.173   5.099   2.418 -0.2178  0.2272 -0.2724
 2910SOL    HW1 9095   1.131   5.135   2.340  0.7469 -1.7876 -1.8044
 2910SOL    HW2 9096   1.169   5.004   2.406  4.5625 -0.1937 -0.5154
 2911SOL     OW 9097   4.911   1.999   3.451  0.0106  0.1603  0.0755
 2911SOL    HW1 9098   4.994   1.953   3.465  0.7775  1.4270 -0.1660
 2911SOL    HW2 9099   4.844   1.935   3.476  1.0206 -1.1280 -0.3960
 2912SOL     OW 9100   3.088   4.898   3.115  0.1976  0.9043 -0.2047
 2912SOL    HW1 9101   3.066   4.884   3.207 -0.4599 -0.1070 -0.5019
 2912SOL    HW2 9102   3.183   4.885   3.110  0.0968 -0.0459  0.1591
 2913SOL     OW 9103   5.585   6.034   3.792  0.1002  0.5045 -0.0695
 2913SOL    HW1 9104   5.536   5.979   3.853 -0.1897 -0.2115 -0.9213
 2913SOL    HW2 9105   5.610   6.110   3.843 -1.7516  0.8131  0.4501
 2914SOL     OW 9106   1.657   4.625   6.727 -0.2671  0.0025 -0.0663
 2914SOL    HW1 9107   1.713   4.627   6.649 -1.0468 -0.2665 -0.6403
 2914SOL    HW2 9108   1.568   4.619   6.693 -0.7398  1.5210  0.8130
 2915SOL     OW 9109   2.221   5.459   0.166  0.3925 -0.5339  0.1086
 2915SOL    HW1 9110   2.139   5.412   0.180  0.1591 -0.1727 -0.0283
 2915SOL    HW2 9111   2.198   5.531   0.108  0.8378 -0.5166 -0.0512
 2916SOL     OW 9112   4.435   6.028   3.305  0.1367  0.8370 -0.2840
 2916SOL    HW1 9113   4.408   5.936   3.311  0.0075  0.8641 -0.4500
 2916SOL    HW2 9114   4.359   6.073   3.271 -0.4449  1.3202  1.5561
 2917SOL     OW 9115   5.089   0.597   5.632  0.0159  0.0611 -0.4593
 2917SOL    HW1 9116   5.108   0.596   5.538  0.4313 -1.1381 -0.3865
 2917SOL    HW2 9117   5.161   0.547   5.671 -1.0872 -0.9973  0.2972
 2918SOL     OW 9118   2.938   2.248   0.434  0.4925 -0.4251  0.4874
 2918SOL    HW1 9119   2.877   2.213   0.498 -0.0772  1.4110  1.0038
 2918SOL    HW2 9120   3.012   2.280   0.485  1.2392 -1.2763 -0.0163
 2919SOL     OW 9121   2.081   1.629   0.558 -0.3822 -0.0112 -0.3824
 2919SOL    HW1 9122   2.102   1.536   0.550 -1.0582 -0.0709 -1.7877
 2919SOL    HW2 9123   2.162   1.674   0.536 -0.5401 -0.2678 -1.5499
 2920SOL     OW 9124   3.040   3.421   1.774  0.8109  0.0822 -0.7566
 2920SOL    HW1 9125   2.973   3.479   1.811  0.7063 -0.3859 -0.1783
 2920SOL    HW2 9126   3.055   3.356   1.843  0.7727 -0.6940 -1.4600
 2921SOL     OW 9127   6.662   2.718   5.703  0.1368  0.2419 -0.5706
 2921SOL    HW1 9128   6.593   2.667   5.744  0.5993  1.5319  2.0308
 2921SOL    HW2 9129   6.743   2.680   5.737  0.5213  1.7009  0.2162
 2922SOL     OW 9130   5.530   6.117   5.522  0.0558 -0.5002 -0.0265
 2922SOL    HW1 9131   5.445   6.080   5.546  0.3745 -1.2239  0.0112
 2922SOL    HW2 9132   5.594   6.054   5.555  0.5669 -0.5979 -1.1432
 2923SOL     OW 9133   3.260   4.231   6.046 -0.2204 -0.0168  0.7814
 2923SOL    HW1 9134   3.169   4.208   6.062 -0.4548 -0.2291 -0.7461
 2923SOL    HW2 9135   3.259   4.323   6.022 -0.2718 -0.4338 -0.9250
 2924SOL     OW 9136   5.528   3.748   1.401 -0.5826  0.4049  0.0628
 2924SOL    HW1 9137   5.604   3.693   1.416 -0.5196  0.7556  1.0610
 2924SOL    HW2 9138   5.508   3.736   1.308  1.4602  1.2876 -0.5415
 2925SOL     OW 9139   0.453   0.913   0.886  0.8470 -0.3280  0.3743
 2925SOL    HW1 9140   0.428   0.975   0.955  0.5323  1.1310 -0.9863
 2925SOL    HW2 9141   0.434   0.959   0.805  2.2462 -1.5661 -0.7165
 2926SOL     OW 9142   2.329   1.901   2.009 -0.1618 -0.0360 -0.4578
 2926SOL    HW1 9143   2.353   1.814   2.042  0.2104  0.4844  0.7383
 2926SOL    HW2 9144   2.239   1.913   2.038 -0.2327 -0.0541 -0.6764
 2927SOL     OW 9145   4.014   4.439   3.633  0.2031 -0.4454 -0.0929
 2927SOL    HW1 9146   4.010   4.350   3.667 -0.5242 -0.3564  0.0800
 2927SOL    HW2 9147   4.039   4.429   3.541 -0.4429 -0.8739 -0.2291
 2928SOL     OW 9148   5.043   2.771   3.172 -0.2000  0.3641 -0.2829
 2928SOL    HW1 9149   4.997   2.775   3.089  0.6762  0.0107 -0.7980
 2928SOL    HW2 9150   5.013   2.690   3.213  0.1674 -0.0007 -0.7358
 2929SOL     OW 9151   4.130   2.807   3.038 -0.2986  0.4146 -0.5173
 2929SOL    HW1 9152   4.176   2.755   2.971 -0.6774 -0.3131 -0.2297
 2929SOL    HW2 9153   4.167   2.894   3.030 -0.4334  0.3806 -1.7743
 2930SOL     OW 9154   6.163   3.022   1.234 -0.1668  0.1742 -0.2780
 2930SOL    HW1 9155   6.178   2.953   1.170 -2.8802 -0.5217 -0.2818
 2930SOL    HW2 9156   6.156   2.975   1.318 -0.4467  0.6335 -0.0442
 2931SOL     OW 9157   0.379   4.012   4.294 -0.2016 -0.2788  0.6580
 2931SOL    HW1 9158   0.299   4.063   4.279 -0.3283 -1.1366 -2.2963
 2931SOL    HW2 9159   0.377   3.992   4.388 -1.7140  2.4522  1.3362
 2932SOL     OW 9160   2.480   2.574   4.100  0.6764  0.7022 -0.5588
 2932SOL    HW1 9161   2.519   2.661   4.107  0.8964  0.4825  1.7282
 2932SOL    HW2 9162   2.489   2.537   4.187 -3.1317 -0.0126 -0.2797
 2933SOL     OW 9163   1.894   5.637   2.291 -0.3617 -0.0250  0.8221
 2933SOL    HW1 9164   1.911   5.703   2.223  0.0076 -1.8995 -1.0172
 2933SOL    HW2 9165   1.936   5.673   2.369  1.9489  0.8591 -0.6962
 2934SOL     OW 9166   4.294   4.314   1.500  0.6782  0.4047  0.1641
 2934SOL    HW1 9167   4.297   4.326   1.595 -0.8177  2.0392  0.0631
 2934SOL    HW2 9168   4.203   4.330   1.477  0.4838 -2.3324 -1.3153
 2935SOL     OW 9169   0.397   4.294   0.823 -0.0147  0.2357 -0.1471
 2935SOL    HW1 9170   0.453   4.216   0.822  0.4009  0.4953  1.1809
 2935SOL    HW2 9171   0.450   4.361   0.866 -0.4882  1.1718 -0.9878
 2936SOL     OW 9172   1.434   4.264   3.025  0.1259 -0.1468  0.2773
 2936SOL    HW1 9173   1.394   4.251   2.939 -1.0155 -2.0865  1.0464
 2936SOL    HW2 9174   1.491   4.188   3.037  0.7368  0.4062  1.0237
 2937SOL     OW 9175   3.841   3.032   1.499 -0.2353  0.3292  0.0833
 2937SOL    HW1 9176   3.837   3.035   1.595  0.8356  3.6550  0.1620
 2937SOL    HW2 9177   3.902   3.102   1.476  0.3456 -1.0554 -3.0370
 2938SOL     OW 9178   1.704   2.525   4.514 -0.2177 -0.3116 -0.8021
 2938SOL    HW1 9179   1.671   2.454   4.459  0.7067 -0.3264 -1.3683
 2938SOL    HW2 9180   1.701   2.602   4.457  2.8686 -0.7431 -1.7133
 2939SOL     OW 9181   6.285   1.556   5.533 -1.0920  0.2106 -0.1221
 2939SOL    HW1 9182   6.224   1.629   5.528 -1.9700 -0.5288 -0.3401
 2939SOL    HW2 9183   6.277   1.512   5.449  0.0185  0.3083 -0.2975
 2940SOL     OW 9184   4.324   6.371   0.078  0.2305  0.1272 -0.3615
 2940SOL    HW1 9185   4.294   6.342   0.164 -2.1595  1.0275 -0.8211
 2940SOL    HW2 9186   4.320   6.467   0.083 -1.0477  0.1848 -1.7817
 2941SOL     OW 9187   1.728   3.480   0.625  0.1724  0.3898  0.0259
 2941SOL    HW1 9188   1.823   3.485   0.610  0.0345  0.8469 -0.7143
 2941SOL    HW2 9189   1.712   3.546   0.694  0.1285  1.7240 -1.2156
 2942SOL     OW 9190   0.788   1.221   3.954 -0.1991  0.3582  0.1224
 2942SOL    HW1 9191   0.697   1.195   3.952 -0.1360 -0.0375  1.4135
 2942SOL    HW2 9192   0.785   1.316   3.968 -0.4045  0.6138 -1.5090
 2943SOL     OW 9193   5.289   4.773   3.063  0.0180 -0.1801  0.0831
 2943SOL    HW1 9194   5.221   4.788   3.129  0.7078  1.2653  0.4914
 2943SOL    HW2 9195   5.256   4.818   2.984  0.4381  0.4425  0.2548
 2944SOL     OW 9196   0.993   5.713   2.311  0.0834  0.8612  0.5447
 2944SOL    HW1 9197   0.925   5.704   2.245  0.3461 -0.4214  0.4269
 2944SOL    HW2 9198   1.040   5.792   2.285  1.1830 -0.4338 -1.7992
 2945SOL     OW 9199   0.912   6.196   6.352 -0.2148  0.1401 -0.0536
 2945SOL    HW1 9200   0.838   6.253   6.371  1.1647  1.4727  1.6937
 2945SOL    HW2 9201   0.984   6.231   6.405  0.9374 -2.7698  0.4982
 2946SOL     OW 9202   4.052   0.166   5.378 -0.0811  0.3387 -0.0903
 2946SOL    HW1 9203   4.053   0.087   5.325 -0.6091 -0.1426  0.5976
 2946SOL    HW2 9204   4.056   0.238   5.315 -0.3851 -0.2245 -0.7604
 2947SOL     OW 9205   3.274   5.692   6.053  0.3568  0.7647 -0.7417
 2947SOL    HW1 9206   3.276   5.765   6.114 -1.5896  0.8042 -0.6556
 2947SOL    HW2 9207   3.182   5.665   6.050  0.4847  0.3137 -3.1113
 2948SOL     OW 9208   0.075   1.700   3.970  0.1331  0.1968  0.0759
 2948SOL    HW1 9209  -0.016   1.674   3.986  0.0617 -2.5965 -3.4675
 2948SOL    HW2 9210   0.068   1.786   3.929 -0.4569  1.8150  3.2627
 2949SOL     OW 9211   5.291   6.731   5.391 -0.0630  0.2385  0.1860
 2949SOL    HW1 9212   5.292   6.652   5.445  1.7547  0.0953  0.0157
 2949SOL    HW2 9213   5.287   6.698   5.301  1.8676  0.2269  0.0541
 2950SOL     OW 9214   4.748   1.394   0.011  0.7410  0.0502 -0.7119
 2950SOL    HW1 9215   4.833   1.401   0.054  0.9982  2.6632 -1.4661
 2950SOL    HW2 9216   4.763   1.426  -0.077 -0.9502  0.1776 -0.9877
 2951SOL     OW 9217   3.621   1.838   4.976 -0.4101  0.5233  0.0365
 2951SOL    HW1 9218   3.642   1.746   4.992 -1.7175  0.3312  0.8043
 2951SOL    HW2 9219   3.598   1.842   4.883  1.0929  0.3928 -0.3699
 2952SOL     OW 9220   0.648   3.887   4.303 -0.3108 -0.3017 -0.6102
 2952SOL    HW1 9221   0.643   3.824   4.375  0.7760 -1.3541 -1.4134
 2952SOL    HW2 9222   0.568   3.939   4.310 -1.1733 -1.6964  0.1526
 2953SOL     OW 9223   5.898   5.983   3.935  0.0610 -0.0427 -0.1633
 2953SOL    HW1 9224   5.881   5.944   4.021  3.6156  0.0106  0.7226
 2953SOL    HW2 9225   5.921   5.909   3.879 -1.6432 -0.0061 -1.0018
 2954SOL     OW 9226   0.783   4.479   0.529  0.5124 -0.1581  0.8633
 2954SOL    HW1 9227   0.866   4.512   0.493  0.2877  0.3094  0.7647
 2954SOL    HW2 9228   0.720   4.491   0.458  0.2732 -0.1380  1.0798
 2955SOL     OW 9229   1.879   6.612   5.224 -0.2372  0.2072 -0.4489
 2955SOL    HW1 9230   1.843   6.547   5.164 -0.2847  1.2555 -1.6054
 2955SOL    HW2 9231   1.854   6.696   5.185  2.0369  0.9571 -0.4004
 2956SOL     OW 9232   4.663   1.966   5.555 -0.2105 -0.6574  0.5206
 2956SOL    HW1 9233   4.633   1.941   5.468 -0.0173 -0.4100  0.3818
 2956SOL    HW2 9234   4.732   1.903   5.576  0.2641 -0.2590  0.1782
 2957SOL     OW 9235   3.422   2.337   3.864 -0.0638  0.7219  0.4249
 2957SOL    HW1 9236   3.481   2.262   3.858 -0.8400  0.1077  0.2814
 2957SOL    HW2 9237   3.411   2.351   3.958  0.6970  1.1587  0.4556
 2958SOL     OW 9238   5.366   2.345   1.504  0.3289  0.0324 -0.4590
 2958SOL    HW1 9239   5.450   2.390   1.517  0.8919 -1.4174  1.2979
 2958SOL    HW2 9240   5.311   2.376   1.575  0.6685 -1.8190  0.6760
 2959SOL     OW 9241   4.007   4.528   0.767 -0.1253  0.0232  0.2654
 2959SOL    HW1 9242   3.968   4.570   0.690 -2.7538 -0.1712  1.3781
 2959SOL    HW2 9243   4.080   4.585   0.791  0.4334  0.3642 -2.0184
 2960SOL     OW 9244   4.344   5.049   3.139  0.1273 -0.2017 -0.1158
 2960SOL    HW1 9245   4.345   5.013   3.050  0.1257  0.2630 -0.3042
 2960SOL    HW2 9246   4.437   5.061   3.161  0.1677 -1.2520  0.3293
 2961SOL     OW 9247   5.924   2.432   5.015  0.3750  0.1608  0.0068
 2961SOL    HW1 9248   5.969   2.447   5.099 -1.7064  0.4862  1.1361
 2961SOL    HW2 9249   5.833   2.452   5.034 -0.2699 -0.5193 -2.1808
 2962SOL     OW 9250   0.077   5.258   3.350 -1.1669 -0.1768 -0.4363
 2962SOL    HW1 9251   0.064   5.182   3.294 -0.9228 -0.2506 -0.3938
 2962SOL    HW2 9252   0.004   5.316   3.328 -0.7101  0.0878 -1.3091
 2963SOL     OW 9253   0.708   3.347   6.279 -0.1966  0.3141 -0.0260
 2963SOL    HW1 9254   0.746   3.425   6.320 -2.3180  1.5809 -0.2882
 2963SOL    HW2 9255   0.617   3.348   6.306 -0.5322 -1.4997 -0.9387
 2964SOL     OW 9256   1.993   0.524   0.581 -0.3826  0.1093 -0.2255
 2964SOL    HW1 9257   1.996   0.611   0.621 -2.8652  0.3622 -0.4481
 2964SOL    HW2 9258   1.910   0.487   0.610  0.9388 -2.5434  0.4742
 2965SOL     OW 9259   6.190   0.695   6.765  0.0128 -0.0237 -0.8788
 2965SOL    HW1 9260   6.213   0.632   6.697  0.1240 -0.2294 -0.6518
 2965SOL    HW2 9261   6.095   0.688   6.774  0.1020 -0.6404 -0.3831
 2966SOL     OW 9262   4.164   6.330   6.159 -0.3261  0.6862  0.4422
 2966SOL    HW1 9263   4.110   6.252   6.146 -0.1172  0.2686  1.9312
 2966SOL    HW2 9264   4.249   6.295   6.186 -0.6091  1.4332  2.4191
 2967SOL     OW 9265   1.143   6.668   4.474 -0.3382  0.9479 -0.0453
 2967SOL    HW1 9266   1.223   6.641   4.428 -0.7471 -0.3536 -0.0484
 2967SOL    HW2 9267   1.123   6.595   4.532 -2.2567  0.6123 -1.0243
 2968SOL     OW 9268   5.513   2.242   3.852  0.4733  0.2084  0.2714
 2968SOL    HW1 9269   5.470   2.327   3.852  0.4025  0.1880  1.3654
 2968SOL    HW2 9270   5.508   2.212   3.762  0.9407  1.5849 -0.2342
 2969SOL     OW 9271   4.181   1.630   4.596  0.0513  0.5497  0.6795
 2969SOL    HW1 9272   4.234   1.699   4.555  3.8374 -1.7938  1.1639
 2969SOL    HW2 9273   4.158   1.571   4.524  1.1982 -0.2353  0.9259
 2970SOL     OW 9274   4.019   3.208   5.054  0.6629 -0.2617 -0.0014
 2970SOL    HW1 9275   4.017   3.221   5.148 -1.1104  1.8380 -0.2712
 2970SOL    HW2 9276   4.084   3.271   5.021 -0.2204  0.4809 -0.3529
 2971SOL     OW 9277   5.278   3.709   2.100  0.7372 -0.1944 -0.5544
 2971SOL    HW1 9278   5.191   3.710   2.139  0.8221 -1.6850 -0.2858
 2971SOL    HW2 9279   5.334   3.669   2.167  1.6401  0.7580 -0.7157
 2972SOL     OW 9280   3.383   6.303   0.870  0.1033  0.3878  0.2913
 2972SOL    HW1 9281   3.465   6.289   0.823 -1.1542 -0.2638 -1.8821
 2972SOL    HW2 9282   3.380   6.233   0.935  0.7209 -0.3116 -0.4172
 2973SOL     OW 9283   5.470   5.700   4.631 -0.3119  0.7087  0.5538
 2973SOL    HW1 9284   5.513   5.690   4.546  0.2327  0.4809  0.8472
 2973SOL    HW2 9285   5.417   5.621   4.640 -0.6178  0.8819  0.2879
 2974SOL     OW 9286   3.539   3.868   1.492  0.5724  0.0597  0.0625
 2974SOL    HW1 9287   3.578   3.933   1.435 -2.5199  1.4437 -0.7020
 2974SOL    HW2 9288   3.553   3.785   1.446  1.4553  0.6416 -0.7649
 2975SOL     OW 9289   3.976   1.474   3.904 -0.1347  0.1027 -0.7643
 2975SOL    HW1 9290   4.068   1.455   3.920  0.1162  2.1072  0.6213
 2975SOL    HW2 9291   3.934   1.389   3.894  1.3643 -0.9948  1.5799
 2976SOL     OW 9292   6.705   4.356   5.764 -0.3492  0.7892 -0.6302
 2976SOL    HW1 9293   6.730   4.399   5.682  0.6569  2.3525  0.4532
 2976SOL    HW2 9294   6.769   4.285   5.774 -1.2632 -0.2670 -1.7906
 2977SOL     OW 9295   0.792   0.597   0.432 -0.2262  0.0662  0.2365
 2977SOL    HW1 9296   0.866   0.549   0.394 -0.9980 -1.4110  0.5063
 2977SOL    HW2 9297   0.720   0.534   0.431 -1.3841  1.3500  0.3313
 2978SOL     OW 9298   2.964   0.170   2.308 -0.4313  0.2120 -0.5813
 2978SOL    HW1 9299   2.904   0.142   2.239 -0.2487 -1.2706 -0.1841
 2978SOL    HW2 9300   3.051   0.169   2.267 -0.5391  1.2567 -0.8511
 2979SOL     OW 9301   2.532   2.165   4.197 -0.0787 -0.4676 -0.4956
 2979SOL    HW1 9302   2.481   2.210   4.265  0.5415 -0.2553 -0.1676
 2979SOL    HW2 9303   2.622   2.192   4.213 -0.1588  1.7365 -2.9773
 2980SOL     OW 9304   0.811   6.154   1.684 -0.0610  0.1818  0.5163
 2980SOL    HW1 9305   0.781   6.235   1.725  0.3403  0.9516 -0.6492
 2980SOL    HW2 9306   0.907   6.163   1.681 -0.0415 -0.1414 -0.0112
 2981SOL     OW 9307   3.612   4.596   0.801 -0.0112  0.2636 -0.2331
 2981SOL    HW1 9308   3.599   4.691   0.799  0.5970  0.3462 -0.7411
 2981SOL    HW2 9309   3.526   4.560   0.780 -0.3796  0.6874  0.5063
 2982SOL     OW 9310   3.156   4.118   2.291 -0.0071 -0.5718 -0.5656
 2982SOL    HW1 9311   3.144   4.134   2.197 -0.4258  1.0631 -0.2568
 2982SOL    HW2 9312   3.073   4.079   2.320 -0.3115  0.0035 -0.6559
 2983SOL     OW 9313   5.649   3.839   5.845  0.3614 -0.0030  0.7454
 2983SOL    HW1 9314   5.625   3.791   5.765  0.6160  0.4803  0.3789
 2983SOL    HW2 9315   5.702   3.777   5.894 -0.6787 -0.6906  1.0462
 2984SOL     OW 9316   4.174   4.175   3.473 -0.0130  0.2778  0.6047
 2984SOL    HW1 9317   4.217   4.187   3.558  0.1581 -1.7448  0.8537
 2984SOL    HW2 9318   4.157   4.264   3.442  0.7348  1.0741  2.3367
 2985SOL     OW 9319   3.271   3.137   4.018 -0.1172  0.2017 -0.6230
 2985SOL    HW1 9320   3.290   3.219   4.063  3.5882 -0.5951 -0.3478
 2985SOL    HW2 9321   3.340   3.130   3.951 -1.6408 -1.6689 -2.1451
 2986SOL     OW 9322   2.639   3.658   2.084  0.6831 -0.2366 -0.4905
 2986SOL    HW1 9323   2.544   3.663   2.089  0.4282 -1.6880 -2.6155
 2986SOL    HW2 9324   2.667   3.750   2.078 -0.5238  0.2240  0.5058
 2987SOL     OW 9325   0.740   6.368   1.809  0.1036 -0.4561 -0.7573
 2987SOL    HW1 9326   0.774   6.427   1.876 -1.5002 -1.7741  1.3606
 2987SOL    HW2 9327   0.650   6.397   1.794  0.0868 -0.8591 -1.5562
 2988SOL     OW 9328   0.709   6.394   0.356 -0.3030 -0.0569  0.1653
 2988SOL    HW1 9329   0.658   6.440   0.422 -1.3054 -0.6388 -0.1838
 2988SOL    HW2 9330   0.703   6.449   0.278 -1.9141 -0.9735 -0.3978
 2989SOL     OW 9331   0.266   2.224   4.699  0.3819 -0.1824 -0.2250
 2989SOL    HW1 9332   0.253   2.131   4.721 -1.4902 -0.2165 -1.2701
 2989SOL    HW2 9333   0.348   2.247   4.741  0.7296 -2.2375  0.3367
 2990SOL     OW 9334   2.244   0.797   0.278  0.1985 -0.6950 -0.1254
 2990SOL    HW1 9335   2.198   0.792   0.194  2.2460 -1.0351 -1.2937
 2990SOL    HW2 9336   2.182   0.842   0.336 -0.3688  1.8648 -2.4790
 2991SOL     OW 9337   1.648   1.558   4.809 -0.3205  0.4372  0.0163
 2991SOL    HW1 9338   1.610   1.606   4.735 -0.3456  1.0072  0.3912
 2991SOL    HW2 9339   1.655   1.624   4.878 -1.1125 -0.2982  0.8070
 2992SOL     OW 9340   2.235   2.419   4.196 -0.1611  0.2746  0.6152
 2992SOL    HW1 9341   2.292   2.411   4.120 -0.2060 -0.3208  0.6400
 2992SOL    HW2 9342   2.159   2.468   4.164  0.4759  1.3039  0.6504
 2993SOL     OW 9343   0.683   5.536   6.497  0.9046  1.0087  0.0030
 2993SOL    HW1 9344   0.749   5.536   6.567  0.0637  0.7398  0.8161
 2993SOL    HW2 9345   0.635   5.618   6.510 -1.6929 -0.6806  2.1638
 2994SOL     OW 9346   1.508   3.747   3.026  0.1633 -0.6051 -0.0440
 2994SOL    HW1 9347   1.444   3.714   3.089  1.9112 -2.7037  0.7540
 2994SOL    HW2 9348   1.505   3.685   2.953  1.7551 -1.1596  0.3286
 2995SOL     OW 9349   4.339   1.606   6.120 -0.8605 -0.3863 -0.2742
 2995SOL    HW1 9350   4.416   1.637   6.166 -1.0173  0.1042 -0.3326
 2995SOL    HW2 9351   4.330   1.666   6.045 -0.2196 -1.5608 -1.3390
 2996SOL     OW 9352   3.658   2.790   0.261 -0.2574 -0.0925 -0.1980
 2996SOL    HW1 9353   3.703   2.753   0.185  0.4152 -0.0110  0.1492
 2996SOL    HW2 9354   3.565   2.785   0.239 -0.1903 -1.8628 -0.2192
 2997SOL     OW 9355   3.866   4.340   0.539 -0.7022  0.0129  0.5125
 2997SOL    HW1 9356   3.948   4.356   0.494 -0.1510 -1.2330  1.0260
 2997SOL    HW2 9357   3.873   4.251   0.572 -2.3688 -0.2193  0.3551
 2998SOL     OW 9358   0.041   1.031   6.191  0.0119  0.1060  0.1242
 2998SOL    HW1 9359   0.134   1.019   6.208 -0.6226 -0.3635  4.7342
 2998SOL    HW2 9360   0.006   1.065   6.274 -3.8979  0.4620 -1.4609
 2999SOL     OW 9361   0.258   1.830   4.202 -0.1452  0.5007 -0.3984
 2999SOL    HW1 9362   0.256   1.855   4.109  0.8246  0.7077 -0.3683
 2999SOL    HW2 9363   0.175   1.864   4.237 -0.3994  0.6548 -1.1225
 3000SOL     OW 9364   5.126   1.696   2.618  0.1815 -0.7031 -0.1864
 3000SOL    HW1 9365   5.208   1.746   2.623 -1.1252  1.5557 -0.1527
 3000SOL    HW2 9366   5.083   1.710   2.702 -0.9529 -0.5611 -0.7680
 3001SOL     OW 9367   2.833   6.702   5.416 -0.1403 -0.3672  0.0404
 3001SOL    HW1 9368   2.924   6.730   5.422  0.3537 -1.3034 -2.0186
 3001SOL    HW2 9369   2.826   6.663   5.329 -2.1708 -1.5735  0.6754
 3002SOL     OW 9370   6.416   3.608   2.607  0.4839 -0.1686 -0.0017
 3002SOL    HW1 9371   6.354   3.546   2.642 -1.5702  1.5942 -0.3115
 3002SOL    HW2 9372   6.364   3.668   2.553  2.3910  1.5534 -0.0976
 3003SOL     OW 9373   0.421   1.118   0.396  0.5467 -0.8565  0.7660
 3003SOL    HW1 9374   0.500   1.152   0.437  0.8455  0.5056 -0.8373
 3003SOL    HW2 9375   0.452   1.051   0.335  0.3299 -1.1864  1.0101
 3004SOL     OW 9376   3.008   6.077   1.647  0.1037 -0.6580  0.2061
 3004SOL    HW1 9377   3.051   5.991   1.639 -0.9361 -1.4372  2.2785
 3004SOL    HW2 9378   2.937   6.075   1.584  0.4221 -1.0992 -0.1426
 3005SOL     OW 9379   2.855   4.865   0.649 -0.2358 -0.1116  0.2233
 3005SOL    HW1 9380   2.928   4.865   0.587 -1.7968  1.7383 -1.7515
 3005SOL    HW2 9381   2.869   4.943   0.703 -1.4061  1.0470 -1.0786
 3006SOL     OW 9382   5.200   2.646   6.154  0.1769  0.5673 -0.4879
 3006SOL    HW1 9383   5.179   2.615   6.066 -0.4087 -1.4303  0.3037
 3006SOL    HW2 9384   5.284   2.603   6.175  0.6088  1.4902 -0.2738
 3007SOL     OW 9385   1.660   1.408   1.510 -0.1953  0.0094  0.5200
 3007SOL    HW1 9386   1.654   1.487   1.456 -2.8518 -1.5769 -1.7875
 3007SOL    HW2 9387   1.734   1.360   1.474 -0.6862 -0.0823 -0.4089
 3008SOL     OW 9388   5.539   3.990   4.943 -0.1313  0.1849  0.2337
 3008SOL    HW1 9389   5.589   3.922   4.899 -2.7263 -1.9837  0.4109
 3008SOL    HW2 9390   5.474   4.018   4.878 -1.6222 -0.4077  1.4039
 3009SOL     OW 9391   6.472   3.684   2.856 -0.0283  0.2394  0.1373
 3009SOL    HW1 9392   6.488   3.683   2.762 -2.4411  0.5040 -0.3274
 3009SOL    HW2 9393   6.526   3.612   2.890  0.1320 -0.4965 -1.5782
 3010SOL     OW 9394   1.746   6.237   6.103 -0.0565  0.1963  0.1242
 3010SOL    HW1 9395   1.726   6.266   6.192  3.4983  0.3276  1.0304
 3010SOL    HW2 9396   1.699   6.154   6.093 -1.3331  0.6808  1.7161
 3011SOL     OW 9397   6.371   0.871   1.480 -0.4153  0.5002  0.1757
 3011SOL    HW1 9398   6.343   0.816   1.407  0.0972  1.9840 -1.1869
 3011SOL    HW2 9399   6.297   0.931   1.494 -0.9909 -0.5084  1.6780
 3012SOL     OW 9400   1.111   2.534   4.832  0.1368 -0.3226 -0.1192
 3012SOL    HW1 9401   1.083   2.583   4.909  2.5618  1.4480 -0.2366
 3012SOL    HW2 9402   1.174   2.592   4.789 -1.0107 -1.2860 -3.3869
 3013SOL     OW 9403   4.599   1.057   0.034 -0.5295  0.6501 -0.5187
 3013SOL    HW1 9404   4.579   1.052   0.128 -0.0056  0.7053 -0.4003
 3013SOL    HW2 9405   4.689   1.089   0.030  0.0937 -1.0319 -0.9788
 3014SOL     OW 9406   4.104   5.676   4.826  0.6702  0.1678  0.9538
 3014SOL    HW1 9407   4.166   5.715   4.888  0.7705  0.8673  0.4218
 3014SOL    HW2 9408   4.136   5.703   4.740  0.3914 -0.5978  0.6035
 3015SOL     OW 9409   5.123   4.606   2.182 -0.0885 -0.0137 -0.0582
 3015SOL    HW1 9410   5.099   4.568   2.267 -1.9300  0.6322 -0.2442
 3015SOL    HW2 9411   5.118   4.701   2.197  1.9331  0.1810 -0.2877
 3016SOL     OW 9412   3.749   0.641   0.365 -0.0914  0.5019 -0.2177
 3016SOL    HW1 9413   3.751   0.695   0.444  0.0841  0.7338 -0.3778
 3016SOL    HW2 9414   3.837   0.604   0.360 -0.0970  0.5015 -0.3116
 3017SOL     OW 9415   4.546   3.422   2.883 -0.0163  0.0422 -0.3428
 3017SOL    HW1 9416   4.602   3.345   2.883  0.4602  0.3633 -1.4739
 3017SOL    HW2 9417   4.486   3.408   2.809 -1.6281 -0.4115  0.9817
 3018SOL     OW 9418   4.185   5.086   5.179 -0.3461  0.2814 -0.0500
 3018SOL    HW1 9419   4.112   5.032   5.147 -0.2875  0.6386 -0.8053
 3018SOL    HW2 9420   4.260   5.059   5.126  0.0400  0.0407  0.6051
 3019SOL     OW 9421   2.574   4.207   5.736 -0.4195  0.4278  0.9258
 3019SOL    HW1 9422   2.513   4.163   5.795 -2.2257  2.6558  0.8141
 3019SOL    HW2 9423   2.577   4.151   5.659 -1.4907 -0.2720  1.3694
 3020SOL     OW 9424   0.861   2.702   5.963 -0.2905  0.4058 -0.0937
 3020SOL    HW1 9425   0.816   2.642   6.023 -1.2136 -0.3945 -1.5247
 3020SOL    HW2 9426   0.953   2.681   5.972 -0.6477 -1.7734 -1.0829
 3021SOL     OW 9427   4.600   3.665   3.019  0.4655 -0.2302 -0.3949
 3021SOL    HW1 9428   4.579   3.581   2.977 -0.9992  0.7318 -1.7322
 3021SOL    HW2 9429   4.660   3.708   2.957  0.5953  0.0221 -0.0935
 3022SOL     OW 9430   6.453   5.088   4.542  0.5160 -0.3944  0.3210
 3022SOL    HW1 9431   6.486   5.161   4.490 -0.9313  0.4801  0.5818
 3022SOL    HW2 9432   6.358   5.096   4.538  0.2963 -2.5756 -0.0514
 3023SOL     OW 9433   0.636   6.696   1.961  0.3437  0.1520 -0.5117
 3023SOL    HW1 9434   0.553   6.649   1.957  0.1669  0.1805  1.6487
 3023SOL    HW2 9435   0.703   6.628   1.953  0.1011 -0.1440 -0.0087
 3024SOL     OW 9436   0.090   6.707   5.578 -0.2111  0.1173 -0.9504
 3024SOL    HW1 9437   0.057   6.633   5.629 -0.5587 -0.2951 -1.7703
 3024SOL    HW2 9438   0.116   6.669   5.494 -0.1236  0.8784 -1.2743
 3025SOL     OW 9439   3.067   3.369   5.018  0.3596 -0.3467 -1.0951
 3025SOL    HW1 9440   3.003   3.419   5.069  0.5154 -0.4090 -0.8330
 3025SOL    HW2 9441   3.139   3.430   5.004  0.4241 -0.4062 -1.0250
 3026SOL     OW 9442   3.509   4.998   2.493 -0.5131 -0.2308 -0.3544
 3026SOL    HW1 9443   3.437   4.943   2.461 -0.8021  0.3523 -0.7080
 3026SOL    HW2 9444   3.586   4.941   2.487 -1.1261 -1.3082  1.2540
 3027SOL     OW 9445   1.116   3.067   5.253 -0.4140  0.0293  0.3498
 3027SOL    HW1 9446   1.024   3.090   5.268 -0.0166  1.1129  1.2875
 3027SOL    HW2 9447   1.128   2.983   5.298 -0.5457  0.7083  1.7073
 3028SOL     OW 9448   3.941   1.173   6.202  0.4247 -0.1285 -0.1514
 3028SOL    HW1 9449   3.882   1.244   6.225  0.4705 -0.5268  1.3041
 3028SOL    HW2 9450   4.019   1.187   6.255 -0.4138 -2.4176  1.9031
 3029SOL     OW 9451   0.283   1.579   2.980 -0.4075 -0.1382  0.5692
 3029SOL    HW1 9452   0.269   1.552   3.071  0.4320  0.7870  0.9850
 3029SOL    HW2 9453   0.374   1.608   2.977 -0.0413 -1.2817 -0.8619
 3030SOL     OW 9454   6.143   1.082   4.249 -0.5225 -0.2939 -0.7948
 3030SOL    HW1 9455   6.064   1.074   4.196 -1.3825 -1.0898  0.5514
 3030SOL    HW2 9456   6.171   0.992   4.265  0.0869 -0.0488 -0.4252
 3031SOL     OW 9457   6.266   3.400   3.700  0.2232 -0.0550 -0.6117
 3031SOL    HW1 9458   6.269   3.321   3.647 -1.5656 -0.0617 -0.7668
 3031SOL    HW2 9459   6.317   3.379   3.778 -1.2255 -1.8402 -0.0757
 3032SOL     OW 9460   5.463   2.338   0.609  0.7652 -0.1568  0.4603
 3032SOL    HW1 9461   5.543   2.316   0.657  1.2238 -0.5431 -0.4677
 3032SOL    HW2 9462   5.487   2.415   0.557  0.6568 -0.4982 -0.1049
 3033SOL     OW 9463   3.918   5.511   2.389  0.2961  0.1982 -0.2405
 3033SOL    HW1 9464   3.933   5.600   2.422 -1.9296  1.2387 -1.8163
 3033SOL    HW2 9465   3.935   5.455   2.465  1.4874  1.9626  0.8779
 3034SOL     OW 9466   3.243   5.548   2.000 -0.0814  0.4958  0.5379
 3034SOL    HW1 9467   3.321   5.503   2.032 -0.6655 -1.6928 -0.9335
 3034SOL    HW2 9468   3.274   5.596   1.923 -0.1223 -0.0771  0.1653
 3035SOL     OW 9469   0.616   4.447   6.577 -0.5433  0.1775 -0.4164
 3035SOL    HW1 9470   0.662   4.512   6.523  1.6943  2.0258  3.3064
 3035SOL    HW2 9471   0.530   4.486   6.594 -0.0291  1.1480  0.0107
 3036SOL     OW 9472   2.411   0.023   3.289 -0.0872  0.2777  0.0694
 3036SOL    HW1 9473   2.365  -0.026   3.220 -0.1450  0.5567 -0.0938
 3036SOL    HW2 9474   2.357   0.100   3.304  0.7079  1.0061 -0.6744
 3037SOL     OW 9475   3.132   6.322   0.755  0.2679 -0.0155 -0.8294
 3037SOL    HW1 9476   3.095   6.287   0.835  1.0029 -2.7539 -1.5883
 3037SOL    HW2 9477   3.227   6.309   0.764  0.3748 -0.2659 -2.0854
 3038SOL     OW 9478   2.387   3.403   6.767 -0.1856  0.0621 -0.1569
 3038SOL    HW1 9479   2.336   3.323   6.778  2.1725 -1.7732 -1.6106
 3038SOL    HW2 9480   2.441   3.407   6.846  0.7576 -0.6635 -0.7424
 3039SOL     OW 9481   0.201   5.810   5.179 -0.5195 -0.6834  0.1943
 3039SOL    HW1 9482   0.110   5.835   5.198 -0.2200  1.6688 -1.1173
 3039SOL    HW2 9483   0.193   5.728   5.131 -2.0176 -0.2364 -0.3954
 3040SOL     OW 9484   0.958   5.147   6.606 -0.2523 -0.5130  0.2551
 3040SOL    HW1 9485   0.879   5.115   6.561 -0.9289 -1.6105  2.1258
 3040SOL    HW2 9486   1.011   5.069   6.618  0.6174  0.0359  0.0215
 3041SOL     OW 9487   5.940   5.276   4.856 -0.5189  0.9338  0.3950
 3041SOL    HW1 9488   5.988   5.194   4.847 -0.1002  0.9431  2.2170
 3041SOL    HW2 9489   5.848   5.251   4.848 -0.5500 -0.1329  2.9507
 3042SOL     OW 9490   4.348   1.922   4.974  0.2743  0.2205 -0.0860
 3042SOL    HW1 9491   4.424   1.883   5.016 -1.1759  0.8376  3.4480
 3042SOL    HW2 9492   4.276   1.861   4.991 -0.5598  0.9142 -0.9728
 3043SOL     OW 9493   6.494   4.290   2.910  0.1894 -0.3963  0.1255
 3043SOL    HW1 9494   6.462   4.277   2.999  1.4145 -0.6878  0.5398
 3043SOL    HW2 9495   6.480   4.383   2.893 -0.3488 -0.4042  0.5005
 3044SOL     OW 9496   6.028   3.440   3.776 -0.0811 -0.4844  0.1368
 3044SOL    HW1 9497   6.120   3.430   3.750  0.2440 -1.2868  1.5132
 3044SOL    HW2 9498   6.016   3.535   3.784  0.8615 -0.3955  0.6935
 3045SOL     OW 9499   4.725   1.117   3.786 -0.1476  0.0802 -0.0401
 3045SOL    HW1 9500   4.659   1.047   3.786 -0.5114  0.3168 -3.0098
 3045SOL    HW2 9501   4.804   1.074   3.754 -0.0732  0.7511 -0.7828
 3046SOL     OW 9502   0.873   2.487   1.412  0.0348  0.1800 -0.1167
 3046SOL    HW1 9503   0.809   2.492   1.340 -0.0892  0.3343  0.0046
 3046SOL    HW2 9504   0.940   2.427   1.380  0.2422  0.6442 -0.5657
 3047SOL     OW 9505   6.453   3.022   3.769 -0.4790 -0.0310 -0.0774
 3047SOL    HW1 9506   6.411   3.078   3.704 -0.9488  0.5012  0.6736
 3047SOL    HW2 9507   6.452   2.935   3.730 -0.5585  0.3124 -0.8701
 3048SOL     OW 9508   1.423   1.529   2.887  0.2201 -0.3328 -0.2652
 3048SOL    HW1 9509   1.472   1.600   2.928  0.6691 -1.7219  1.7282
 3048SOL    HW2 9510   1.461   1.521   2.800  2.2136 -0.0713  0.5390
 3049SOL     OW 9511   4.361   4.409   4.334  0.0399 -0.0320 -0.3791
 3049SOL    HW1 9512   4.358   4.498   4.300  1.0682 -0.0710 -0.5947
 3049SOL    HW2 9513   4.453   4.394   4.355  0.3486 -1.8976 -2.6926
 3050SOL     OW 9514   2.014   4.803   0.406 -0.2624  0.1844  0.0252
 3050SOL    HW1 9515   2.076   4.826   0.475 -1.2919 -1.3349  1.5097
 3050SOL    HW2 9516   1.943   4.867   0.416 -0.3033  0.1096  0.2086
 3051SOL     OW 9517   3.237   0.805   5.227  0.1594 -0.5496 -0.0118
 3051SOL    HW1 9518   3.260   0.861   5.153  0.1172  1.6843  1.5654
 3051SOL    HW2 9519   3.321   0.782   5.268  0.0875 -0.2950  0.2793
 3052SOL     OW 9520   3.424   2.557   6.346  0.2405  0.6242  0.3528
 3052SOL    HW1 9521   3.332   2.583   6.339  0.2404  0.7335  0.7161
 3052SOL    HW2 9522   3.427   2.467   6.314  0.3142  1.2039 -1.3652
 3053SOL     OW 9523   3.616   2.696   5.492  0.0254  0.1725 -0.0758
 3053SOL    HW1 9524   3.616   2.741   5.576 -1.3001  0.0192  0.0349
 3053SOL    HW2 9525   3.554   2.623   5.504  2.0923 -1.7278 -0.2317
 3054SOL     OW 9526   5.359   3.074   5.198 -0.2125  0.2606 -0.3109
 3054SOL    HW1 9527   5.445   3.103   5.166 -0.0674 -0.5493 -0.6651
 3054SOL    HW2 9528   5.299   3.143   5.169  0.5096  1.5726  1.1770
 3055SOL     OW 9529   0.656   1.717   3.591 -0.3645 -0.0745  0.1291
 3055SOL    HW1 9530   0.701   1.799   3.570  0.9744 -0.5193  1.1347
 3055SOL    HW2 9531   0.703   1.650   3.540 -2.1846 -0.1266 -1.6221
 3056SOL     OW 9532   2.302   5.730   3.697  0.0022 -0.0660 -0.4001
 3056SOL    HW1 9533   2.294   5.815   3.740 -0.4674  0.6142 -1.7818
 3056SOL    HW2 9534   2.375   5.739   3.637  1.2641 -1.3136  0.8752
 3057SOL     OW 9535   2.621   2.747   6.239 -0.4966 -0.4624  0.1581
 3057SOL    HW1 9536   2.642   2.774   6.328 -0.8589  0.1986  0.0498
 3057SOL    HW2 9537   2.547   2.687   6.249 -0.6439 -0.2608  0.2990
 3058SOL     OW 9538   4.187   2.856   3.397  0.5903 -0.2405  0.6531
 3058SOL    HW1 9539   4.108   2.894   3.434  0.2462 -1.7354  1.5517
 3058SOL    HW2 9540   4.253   2.865   3.466  0.3979 -1.5600  1.0329
 3059SOL     OW 9541   6.259   3.134   2.552  0.4833  0.0779  0.4079
 3059SOL    HW1 9542   6.224   3.061   2.502  0.5169  1.1739 -1.2711
 3059SOL    HW2 9543   6.207   3.210   2.525  2.0954  1.1505  0.1718
 3060SOL     OW 9544   3.773   3.616   2.059  0.3254  0.1217 -0.5064
 3060SOL    HW1 9545   3.747   3.525   2.041 -3.6065  0.2144  3.0348
 3060SOL    HW2 9546   3.717   3.668   2.002  1.1602  0.3856 -1.1046
 3061SOL     OW 9547   2.786   2.378   6.578 -0.4955  0.5065  0.0101
 3061SOL    HW1 9548   2.735   2.396   6.658 -0.4254  2.3987 -0.3246
 3061SOL    HW2 9549   2.863   2.330   6.609 -0.9601  0.3293  0.9370
 3062SOL     OW 9550   5.047   4.014   4.522 -0.0906 -0.4635 -0.1774
 3062SOL    HW1 9551   5.128   4.065   4.516 -0.5589  0.3902  0.4595
 3062SOL    HW2 9552   5.009   4.040   4.606 -0.5182 -1.6287  0.0144
 3063SOL     OW 9553   3.147   5.330   0.653 -0.3083 -0.1042 -0.2472
 3063SOL    HW1 9554   3.114   5.357   0.739  0.5923 -1.3018  0.5110
 3063SOL    HW2 9555   3.096   5.381   0.590 -0.1137  1.7524  1.0325
 3064SOL     OW 9556   3.603   6.573   0.594 -0.3613 -0.6922 -0.1145
 3064SOL    HW1 9557   3.533   6.632   0.624 -2.2326 -2.6571 -0.3909
 3064SOL    HW2 9558   3.599   6.498   0.653 -0.3630 -2.0827 -1.7888
 3065SOL     OW 9559   3.277   2.119   4.675  0.1621 -0.0599 -0.3333
 3065SOL    HW1 9560   3.321   2.152   4.597  0.1015  0.2469 -0.2354
 3065SOL    HW2 9561   3.332   2.147   4.748  0.1379 -0.2160 -0.2532
 3066SOL     OW 9562   6.318   4.195   2.387  0.3092  0.0438 -0.0666
 3066SOL    HW1 9563   6.308   4.258   2.316 -2.0504  2.7408  2.3932
 3066SOL    HW2 9564   6.232   4.153   2.393  1.1638 -1.8260 -0.1725
 3067SOL     OW 9565   0.318   3.593   0.921  0.1392 -0.1307 -0.6088
 3067SOL    HW1 9566   0.310   3.660   0.854  0.3665 -0.0150 -0.5242
 3067SOL    HW2 9567   0.334   3.642   1.002 -0.0491 -0.2719 -0.4840
 3068SOL     OW 9568   2.929   3.350   5.519  1.1740 -0.2688  0.2158
 3068SOL    HW1 9569   2.900   3.425   5.571  0.2337 -2.1052  2.5733
 3068SOL    HW2 9570   2.848   3.314   5.482  1.5808 -0.3279 -0.6508
 3069SOL     OW 9571   5.001   5.316   5.651  0.4233 -0.5680 -0.5411
 3069SOL    HW1 9572   5.078   5.343   5.601  0.1206  1.5003  0.0186
 3069SOL    HW2 9573   5.011   5.221   5.662  2.9404 -0.3334 -0.3512
 3070SOL     OW 9574   6.352   5.336   3.106 -0.4986 -0.0481  0.0506
 3070SOL    HW1 9575   6.265   5.302   3.128 -0.7045 -0.3407 -1.1667
 3070SOL    HW2 9576   6.375   5.294   3.023  0.2355  1.0141 -0.3192
 3071SOL     OW 9577   4.485   4.211   2.433 -0.6607 -0.1005  0.0872
 3071SOL    HW1 9578   4.398   4.206   2.473 -1.2417 -0.7390 -1.1807
 3071SOL    HW2 9579   4.494   4.128   2.386  0.0663  0.5441 -0.9393
 3072SOL     OW 9580   3.195   3.865   4.819 -0.0324 -0.0399 -0.1380
 3072SOL    HW1 9581   3.192   3.950   4.775 -0.8862 -1.5433 -3.2973
 3072SOL    HW2 9582   3.164   3.882   4.907  0.0127  2.9489 -0.6207
 3073SOL     OW 9583   2.601   0.267   4.588  0.4895 -0.1092 -0.0256
 3073SOL    HW1 9584   2.559   0.276   4.503  0.5242 -0.9830 -0.1538
 3073SOL    HW2 9585   2.679   0.321   4.583  1.0590 -0.9809 -0.9525
 3074SOL     OW 9586   5.074   6.084   6.418 -0.1340  0.8509  0.5304
 3074SOL    HW1 9587   5.151   6.080   6.361 -0.2891 -1.0453  0.3905
 3074SOL    HW2 9588   5.000   6.077   6.358 -0.4175  1.8912  0.7360
 3075SOL     OW 9589   1.175   1.557   5.866  0.0501  0.2713  0.4915
 3075SOL    HW1 9590   1.215   1.637   5.901  2.3905 -0.7771  0.3970
 3075SOL    HW2 9591   1.187   1.492   5.934  2.5618 -1.1912 -1.1761
 3076SOL     OW 9592   6.702   4.605   1.938  0.7022 -0.1693  0.1483
 3076SOL    HW1 9593   6.742   4.568   1.859 -0.1726 -0.6813 -0.0742
 3076SOL    HW2 9594   6.651   4.532   1.974  1.0041  0.0935  1.1305
 3077SOL     OW 9595   2.938   0.263   5.352 -1.2524 -0.4648  0.2029
 3077SOL    HW1 9596   2.849   0.256   5.385 -0.9564  1.7158  1.6283
 3077SOL    HW2 9597   2.935   0.335   5.289 -0.3146  0.3648  1.0733
 3078SOL     OW 9598   0.786   1.894   2.497  0.5493  0.4659 -0.1890
 3078SOL    HW1 9599   0.863   1.862   2.449 -1.0179 -3.1708 -0.5990
 3078SOL    HW2 9600   0.733   1.939   2.431  2.2878  3.3405  0.1686
 3079SOL     OW 9601   2.119   3.201   5.341  0.2694 -0.6952 -0.3957
 3079SOL    HW1 9602   2.113   3.296   5.328  1.2378 -0.8161 -2.0607
 3079SOL    HW2 9603   2.078   3.163   5.263  0.4370 -1.6440 -0.0424
 3080SOL     OW 9604   6.135   4.873   4.270 -0.2228  0.8180  0.0524
 3080SOL    HW1 9605   6.059   4.828   4.234  1.8873 -1.4369 -1.9563
 3080SOL    HW2 9606   6.152   4.830   4.354  1.0507 -1.5038 -1.2911
 3081SOL     OW 9607   0.181   0.619   2.327  0.6075 -0.6107  0.5360
 3081SOL    HW1 9608   0.142   0.695   2.371 -0.9552 -1.5667  0.8947
 3081SOL    HW2 9609   0.191   0.646   2.236  0.5281  0.2006  0.7663
 3082SOL     OW 9610   5.669   0.333   3.449  0.1011  0.0819  0.0967
 3082SOL    HW1 9611   5.753   0.288   3.455  1.0555  1.1662 -2.9187
 3082SOL    HW2 9612   5.610   0.284   3.506  2.3112 -1.8302  0.8580
 3083SOL     OW 9613   5.999   3.567   4.177 -1.3901  0.0680 -0.1551
 3083SOL    HW1 9614   5.959   3.650   4.203  0.8544  0.9521  0.7081
 3083SOL    HW2 9615   6.089   3.572   4.210 -0.3224 -1.5215 -2.5642
 3084SOL     OW 9616   4.962   6.651   0.044 -0.2351 -0.7291 -0.7425
 3084SOL    HW1 9617   4.998   6.730   0.004 -0.9814 -0.5685 -1.1307
 3084SOL    HW2 9618   4.900   6.618  -0.022  1.3055 -2.5953 -1.3407
 3085SOL     OW 9619   0.450   4.814   6.097  0.4450  0.4405  0.3643
 3085SOL    HW1 9620   0.454   4.785   6.005  1.6386 -0.9888  0.8359
 3085SOL    HW2 9621   0.535   4.856   6.112  0.1490  0.9017  0.7516
 3086SOL     OW 9622   6.601   3.015   0.832 -0.0194 -0.8676  0.3156
 3086SOL    HW1 9623   6.603   2.998   0.738  1.0743 -1.2822  0.3992
 3086SOL    HW2 9624   6.604   3.111   0.839 -0.4023 -0.8270 -0.0779
 3087SOL     OW 9625   4.162   2.308   0.101 -0.1975  0.3049  0.0804
 3087SOL    HW1 9626   4.098   2.307   0.031 -1.0108  0.4704  0.8090
 3087SOL    HW2 9627   4.114   2.339   0.178  0.0949 -1.9334  1.2527
 3088SOL     OW 9628   2.702   2.669   6.587  0.0422  0.5596  0.0680
 3088SOL    HW1 9629   2.787   2.713   6.580  0.5083 -0.3511 -0.2821
 3088SOL    HW2 9630   2.724   2.576   6.579 -1.1081  0.3653 -1.0680
 3089SOL     OW 9631   6.793   5.711   1.708  0.3765 -0.0262 -0.4352
 3089SOL    HW1 9632   6.860   5.765   1.665 -0.4119  0.3957 -1.1746
 3089SOL    HW2 9633   6.790   5.631   1.655  0.0777  0.0914 -0.5985
 3090SOL     OW 9634   6.672   6.680   3.290  0.3669 -0.0724  0.3184
 3090SOL    HW1 9635   6.711   6.645   3.210 -0.1265  0.6023 -0.2308
 3090SOL    HW2 9636   6.711   6.767   3.300 -1.0859  0.6871 -0.3446
 3091SOL     OW 9637   2.595   4.791   1.236  0.0304 -0.1696  0.7749
 3091SOL    HW1 9638   2.689   4.796   1.223  0.4652 -2.0480  2.6681
 3091SOL    HW2 9639   2.565   4.732   1.166  0.4432 -0.4997  0.8748
 3092SOL     OW 9640   6.287   6.444   2.519 -0.1745  0.0354  0.4484
 3092SOL    HW1 9641   6.229   6.406   2.585 -0.1122 -0.3613  0.2812
 3092SOL    HW2 9642   6.254   6.408   2.436  0.1102  0.0681  0.3213
 3093SOL     OW 9643   2.204   3.936   5.738  0.0013 -0.2432  0.1686
 3093SOL    HW1 9644   2.284   3.971   5.699  0.6080 -1.1233  0.5817
 3093SOL    HW2 9645   2.140   3.939   5.667  1.1108 -1.9508 -1.0146
 3094SOL     OW 9646   1.739   5.716   0.972  0.0390 -0.3447  0.3995
 3094SOL    HW1 9647   1.750   5.763   1.054  0.4627 -0.0952  0.2065
 3094SOL    HW2 9648   1.683   5.642   0.993  0.8455 -0.7763  1.1066
 3095SOL     OW 9649   5.118   2.266   0.357  0.4251 -0.2015  0.2104
 3095SOL    HW1 9650   5.149   2.234   0.442  0.4811  0.8914  0.6116
 3095SOL    HW2 9651   5.181   2.334   0.333 -0.2576  0.3035 -0.1507
 3096SOL     OW 9652   1.890   5.560   5.269 -0.0328 -0.2618 -0.3049
 3096SOL    HW1 9653   1.895   5.627   5.337  1.9627 -1.2632  0.6034
 3096SOL    HW2 9654   1.979   5.551   5.237 -0.1901 -2.6929 -0.1853
 3097SOL     OW 9655   3.146   0.184   0.966 -0.2723 -0.0510  0.2909
 3097SOL    HW1 9656   3.130   0.092   0.945 -2.5766  0.1287  0.9254
 3097SOL    HW2 9657   3.197   0.182   1.047 -1.5571 -0.8225  1.1166
 3098SOL     OW 9658   4.159   0.629   5.628  0.0149  0.3774  0.1087
 3098SOL    HW1 9659   4.127   0.714   5.600  1.0125  0.1631 -1.8541
 3098SOL    HW2 9660   4.109   0.566   5.576  1.9826 -0.0302 -1.4130
 3099SOL     OW 9661   4.431   2.691   1.184 -0.0312  0.0456 -0.4697
 3099SOL    HW1 9662   4.414   2.716   1.274  0.4270  0.8749 -0.6066
 3099SOL    HW2 9663   4.344   2.673   1.147 -0.3292  1.0163 -0.2500
 3100SOL     OW 9664   4.935   1.620   1.064  0.0191  0.3762  0.0077
 3100SOL    HW1 9665   4.877   1.654   0.996  0.5443  0.3019 -0.4851
 3100SOL    HW2 9666   4.936   1.525   1.051  1.5422  0.5039 -1.0626
 3101SOL     OW 9667   1.443   5.590   6.501  0.6699  0.6284  0.0345
 3101SOL    HW1 9668   1.351   5.594   6.478  0.7118  1.1996 -0.0653
 3101SOL    HW2 9669   1.472   5.682   6.498  1.0009  0.5623  1.0325
 3102SOL     OW 9670   4.975   1.850   1.277  0.1383  0.7505 -0.0595
 3102SOL    HW1 9671   4.960   1.757   1.261 -0.6535  0.8324  0.1347
 3102SOL    HW2 9672   4.887   1.888   1.282  0.4577  1.7207 -1.3007
 3103SOL     OW 9673   0.849   0.291   0.913  0.0487  0.1993  0.5979
 3103SOL    HW1 9674   0.803   0.342   0.846 -1.0331 -1.6606 -0.1624
 3103SOL    HW2 9675   0.936   0.276   0.876 -0.9502 -1.9572 -1.1582
 3104SOL     OW 9676   4.188   6.570   3.335  0.1823 -0.1603  0.7768
 3104SOL    HW1 9677   4.138   6.558   3.255 -1.5758 -0.4007  1.8631
 3104SOL    HW2 9678   4.272   6.528   3.317 -0.8030 -1.7557 -0.3283
 3105SOL     OW 9679   0.240   1.810   2.732  0.5430 -0.5072 -0.4375
 3105SOL    HW1 9680   0.266   1.880   2.672  4.6638 -1.7768 -0.4199
 3105SOL    HW2 9681   0.246   1.849   2.819 -1.9023  0.3192 -0.5631
 3106SOL     OW 9682   3.115   6.519   3.081  0.2309  0.4343 -0.2405
 3106SOL    HW1 9683   3.029   6.560   3.079  0.0719  0.2188  1.0884
 3106SOL    HW2 9684   3.160   6.554   3.004 -0.9244  0.7937 -0.7751
 3107SOL     OW 9685   5.974   2.823   5.806  0.2702  0.5068  0.0613
 3107SOL    HW1 9686   6.007   2.735   5.823 -0.7264  0.2808  0.9493
 3107SOL    HW2 9687   6.050   2.880   5.817  0.5350 -0.0596  1.3575
 3108SOL     OW 9688   0.990   6.732   4.983  0.5247 -0.6078 -0.4748
 3108SOL    HW1 9689   1.038   6.803   4.940  0.3489  0.6672  1.3167
 3108SOL    HW2 9690   0.984   6.759   5.075  0.2501 -2.8452  0.2440
 3109SOL     OW 9691   2.970   4.794   1.844 -0.1282 -0.2137 -0.1307
 3109SOL    HW1 9692   2.924   4.733   1.901  0.0121  0.4796  0.7520
 3109SOL    HW2 9693   2.991   4.744   1.766 -0.6466 -1.0824  0.2780
 3110SOL     OW 9694   0.667   6.747   4.487  0.4739  0.5258  0.2072
 3110SOL    HW1 9695   0.598   6.764   4.551  0.8062 -1.1013  1.0557
 3110SOL    HW2 9696   0.674   6.652   4.484  1.6560  0.6195 -0.9824
 3111SOL     OW 9697   3.624   5.916   6.414 -0.0304 -0.1977  0.2255
 3111SOL    HW1 9698   3.636   5.931   6.320  1.8361 -0.0013  0.4575
 3111SOL    HW2 9699   3.563   5.842   6.419 -0.4838  0.0656 -1.1195
 3112SOL     OW 9700   2.888   0.060   4.665  0.6147  0.0891  0.4500
 3112SOL    HW1 9701   2.838   0.092   4.740 -0.4959 -1.9688  0.6436
 3112SOL    HW2 9702   2.943  -0.009   4.700  0.9887 -0.0653 -0.4204
 3113SOL     OW 9703   2.153   1.632   2.035 -0.2693 -0.4219  0.4040
 3113SOL    HW1 9704   2.172   1.578   2.112 -0.2956 -1.3580 -0.2350
 3113SOL    HW2 9705   2.111   1.711   2.071  0.3637 -0.5291  1.4014
 3114SOL     OW 9706   2.775   0.636   2.771 -0.2043  0.1183 -0.1946
 3114SOL    HW1 9707   2.728   0.588   2.703 -0.1558 -3.0895  1.8353
 3114SOL    HW2 9708   2.860   0.657   2.731 -0.1853 -1.6315 -1.1657
 3115SOL     OW 9709   5.157   6.246   1.489 -0.8137  0.0145  0.5768
 3115SOL    HW1 9710   5.144   6.203   1.573 -0.6809 -0.7932  0.1960
 3115SOL    HW2 9711   5.074   6.292   1.473 -1.7669 -1.7810  0.0574
 3116SOL     OW 9712   0.374   6.084   0.539  0.2003 -0.0803 -0.1462
 3116SOL    HW1 9713   0.340   6.089   0.629 -1.0220  0.7056 -0.6237
 3116SOL    HW2 9714   0.388   5.991   0.524 -0.5984 -0.3178  0.5003
 3117SOL     OW 9715   1.088   5.830   6.410 -0.3953  0.3933  0.2896
 3117SOL    HW1 9716   1.137   5.774   6.471  0.5895  0.4716 -0.3965
 3117SOL    HW2 9717   1.128   5.916   6.421  0.2306  0.2711 -0.9109
 3118SOL     OW 9718   1.967   4.305   6.392  0.3530 -0.1075 -0.1853
 3118SOL    HW1 9719   1.889   4.290   6.338  0.2138  1.5732 -0.5140
 3118SOL    HW2 9720   1.969   4.231   6.452 -1.0847 -0.5766 -0.6589
 3119SOL     OW 9721   1.036   5.109   6.007  0.1227 -0.0991  0.2630
 3119SOL    HW1 9722   1.021   5.055   5.929  2.2935  2.5326 -2.2412
 3119SOL    HW2 9723   0.972   5.180   5.999  0.6336  0.4140  0.6608
 3120SOL     OW 9724   2.254   1.974   3.992 -0.0384  0.0098 -0.0185
 3120SOL    HW1 9725   2.310   1.931   4.057 -1.2150  1.0566  1.7822
 3120SOL    HW2 9726   2.185   2.016   4.044 -0.3577  1.9195 -1.8526
 3121SOL     OW 9727   4.074   1.226   2.737 -0.2832 -0.2874 -0.3665
 3121SOL    HW1 9728   3.993   1.277   2.740 -2.4070 -3.3196 -1.8453
 3121SOL    HW2 9729   4.130   1.267   2.803 -0.8671  5.1995 -2.7487
 3122SOL     OW 9730   2.790   5.687   0.386 -0.3406  0.1441 -0.3756
 3122SOL    HW1 9731   2.764   5.638   0.308 -1.1223  0.3906 -0.2813
 3122SOL    HW2 9732   2.717   5.746   0.402  0.5327  1.2696 -0.4272
 3123SOL     OW 9733   2.384   2.398   6.527 -0.0216 -0.2804  0.1190
 3123SOL    HW1 9734   2.453   2.332   6.517 -0.5758 -1.2430  2.0637
 3123SOL    HW2 9735   2.316   2.354   6.578 -0.9193  1.4403  0.4872
 3124SOL     OW 9736   2.577   3.174   6.282 -0.5840  0.1844 -0.3794
 3124SOL    HW1 9737   2.614   3.238   6.342 -1.1669  1.4209 -1.2819
 3124SOL    HW2 9738   2.562   3.223   6.201 -1.3591 -1.0135 -0.9961
 3125SOL     OW 9739   1.625   0.444   3.980 -0.2545 -0.3688  0.2893
 3125SOL    HW1 9740   1.682   0.505   4.027  0.1989  0.9898 -1.9269
 3125SOL    HW2 9741   1.537   0.464   4.012 -0.1540  1.6977 -0.5981
 3126SOL     OW 9742   6.755   4.459   1.268 -0.8581  0.6847  0.3154
 3126SOL    HW1 9743   6.849   4.465   1.252 -0.9233 -0.4629 -0.7366
 3126SOL    HW2 9744   6.723   4.549   1.263 -0.0371  0.9280 -0.9398
 3127SOL     OW 9745   2.293   1.677   4.073 -0.4453  0.0526 -0.2175
 3127SOL    HW1 9746   2.251   1.620   4.138 -2.2427  0.1515 -1.2104
 3127SOL    HW2 9747   2.341   1.741   4.124 -1.3003 -0.2432  1.0110
 3128SOL     OW 9748   1.810   5.891   0.768 -0.7870  0.1693  0.0381
 3128SOL    HW1 9749   1.774   5.844   0.843 -2.0211  0.2088 -0.5006
 3128SOL    HW2 9750   1.824   5.823   0.701 -2.9698  0.5571 -0.8918
 3129SOL     OW 9751   2.070   3.508   6.652 -0.0117 -1.0610 -0.0255
 3129SOL    HW1 9752   2.162   3.530   6.640  0.5684 -3.5082 -0.6956
 3129SOL    HW2 9753   2.060   3.423   6.610 -2.8568 -0.3921 -0.9356
 3130SOL     OW 9754   6.795   2.172   2.170 -0.1295 -0.5128 -0.3921
 3130SOL    HW1 9755   6.845   2.227   2.231 -0.6191  1.5925 -1.7780
 3130SOL    HW2 9756   6.711   2.160   2.213 -0.7066  1.5046 -0.8237
 3131SOL     OW 9757   1.547   5.651   0.666 -0.0724  0.2845  0.3073
 3131SOL    HW1 9758   1.570   5.644   0.758  0.3142 -0.5680  0.1516
 3131SOL    HW2 9759   1.628   5.679   0.623 -0.2588  0.7076  0.2229
 3132SOL     OW 9760   4.981   4.339   0.456  0.9798 -0.0173 -0.2272
 3132SOL    HW1 9761   4.887   4.354   0.439  1.3404  0.0860 -2.4157
 3132SOL    HW2 9762   5.018   4.427   0.462  1.2464 -0.0286 -1.4713
 3133SOL     OW 9763   4.835   0.156   6.436 -0.0031  0.1563  0.0648
 3133SOL    HW1 9764   4.762   0.196   6.388 -0.4435  0.4027  0.9193
 3133SOL    HW2 9765   4.898   0.132   6.368 -0.2230  1.2958 -0.5707
 3134SOL     OW 9766   4.733   3.782   1.654 -0.3536  0.6430 -0.5213
 3134SOL    HW1 9767   4.797   3.748   1.592 -1.9764  1.2573 -2.6737
 3134SOL    HW2 9768   4.699   3.705   1.699  0.8821  0.1849 -0.3325
 3135SOL     OW 9769   1.457   0.099   1.928  0.3432  0.1921  0.3664
 3135SOL    HW1 9770   1.436   0.036   1.997 -1.4388  1.9429  1.5330
 3135SOL    HW2 9771   1.373   0.117   1.886  1.0394  0.8416 -0.8012
 3136SOL     OW 9772   1.838   5.171   6.359 -0.3171 -0.7716 -0.6147
 3136SOL    HW1 9773   1.784   5.251   6.362  0.4756 -0.2503  0.3683
 3136SOL    HW2 9774   1.824   5.136   6.271 -2.0850 -0.5421 -0.4606
 3137SOL     OW 9775   0.747   2.511   6.441  0.1551 -0.8036  0.4131
 3137SOL    HW1 9776   0.736   2.601   6.471  0.1534 -0.8946  0.6887
 3137SOL    HW2 9777   0.728   2.457   6.518  1.2528 -1.0038  0.5569
 3138SOL     OW 9778   0.395   1.025   4.301  0.2742  0.1993 -0.2815
 3138SOL    HW1 9779   0.307   1.011   4.267  0.2118  0.3735 -0.1946
 3138SOL    HW2 9780   0.389   1.107   4.349  0.6483  0.5636 -0.8445
 3139SOL     OW 9781   3.931   3.981   4.975 -0.0282  0.0444 -0.4618
 3139SOL    HW1 9782   3.946   3.887   4.985  1.1297  0.1323 -1.2005
 3139SOL    HW2 9783   3.897   3.990   4.886 -0.9476  0.2457 -0.0950
 3140SOL     OW 9784   5.151   3.759   4.490  0.7834  0.6186 -0.4721
 3140SOL    HW1 9785   5.185   3.753   4.579 -0.6600 -0.7184  0.0392
 3140SOL    HW2 9786   5.104   3.842   4.488  1.2663  0.9015 -0.1548
 3141SOL     OW 9787   0.691   4.330   4.199 -0.8596  0.7815  0.0142
 3141SOL    HW1 9788   0.598   4.350   4.209 -0.9227 -0.2134  1.9533
 3141SOL    HW2 9789   0.707   4.258   4.261  1.0504  0.4384 -0.7941
 3142SOL     OW 9790   2.777   4.383   5.744 -0.3754 -0.5852  0.2832
 3142SOL    HW1 9791   2.684   4.357   5.741 -0.6971  0.4365  0.9439
 3142SOL    HW2 9792   2.810   4.345   5.825 -0.7689  0.7394  1.0969
 3143SOL     OW 9793   3.311   4.647   6.222  0.2206  0.1050  0.4023
 3143SOL    HW1 9794   3.243   4.619   6.160  0.9705 -0.7125 -0.0702
 3143SOL    HW2 9795   3.387   4.667   6.167  0.5218  0.5186  0.9665
 3144SOL     OW 9796   1.834   0.362   4.528 -0.1974 -0.0026 -0.7588
 3144SOL    HW1 9797   1.889   0.356   4.450  0.4887  0.9020 -0.3598
 3144SOL    HW2 9798   1.792   0.448   4.522  0.3635  0.3562  0.1772
 3145SOL     OW 9799   0.401   2.158   5.558 -0.0891  0.1037 -0.4877
 3145SOL    HW1 9800   0.459   2.090   5.522 -0.0141  0.8385 -1.8379
 3145SOL    HW2 9801   0.460   2.227   5.587 -0.0765 -0.9555  2.2430
 3146SOL     OW 9802   5.491   2.638   1.880 -0.4208 -0.3385 -0.3696
 3146SOL    HW1 9803   5.508   2.668   1.970  0.3107  0.4267 -0.7418
 3146SOL    HW2 9804   5.415   2.689   1.852 -1.1651 -1.1817  0.0917
 3147SOL     OW 9805   0.135   4.109   4.299  0.2378  0.2802 -0.1251
 3147SOL    HW1 9806   0.095   4.080   4.380 -0.8930  3.3025  0.5424
 3147SOL    HW2 9807   0.081   4.184   4.271  2.1255  0.9663 -2.2565
 3148SOL     OW 9808   0.803   2.951   2.753  0.6396  0.1113  0.3180
 3148SOL    HW1 9809   0.796   2.942   2.658 -0.9730 -0.1408  0.4314
 3148SOL    HW2 9810   0.765   2.870   2.787  1.4769  0.0634  1.1968
 3149SOL     OW 9811   0.634   2.253   3.057 -0.3690  0.8186  0.2892
 3149SOL    HW1 9812   0.667   2.163   3.057  1.2581  1.3657  1.2169
 3149SOL    HW2 9813   0.551   2.249   3.104 -0.0482 -0.1246  0.7870
 3150SOL     OW 9814   2.591   2.394   1.182 -0.2663 -0.0198  0.8014
 3150SOL    HW1 9815   2.561   2.319   1.130  0.4157  1.6659 -2.2831
 3150SOL    HW2 9816   2.681   2.371   1.207  0.4627  0.2501 -1.3580
 3151SOL     OW 9817   4.179   0.701   0.367  0.5959 -0.4322  0.2109
 3151SOL    HW1 9818   4.154   0.618   0.407  1.4654 -1.5284 -1.4192
 3151SOL    HW2 9819   4.243   0.739   0.428 -0.8602 -0.2233  1.6803
 3152SOL     OW 9820   3.518   2.667   4.595  0.2990 -0.3401  0.5719
 3152SOL    HW1 9821   3.527   2.615   4.675 -1.2211 -2.3687 -0.4576
 3152SOL    HW2 9822   3.424   2.687   4.592  0.7260  1.7789  0.4747
 3153SOL     OW 9823   3.588   3.343   3.606  0.3381 -0.0959  0.3406
 3153SOL    HW1 9824   3.608   3.410   3.671 -1.0594 -0.9359  1.7052
 3153SOL    HW2 9825   3.642   3.268   3.631  1.6906  0.3912 -1.0150
 3154SOL     OW 9826   3.483   0.465   3.729 -0.1981  0.1169 -0.3745
 3154SOL    HW1 9827   3.409   0.489   3.673 -0.3825 -2.5991 -1.4846
 3154SOL    HW2 9828   3.447   0.465   3.818 -1.0111  0.6277 -0.6873
 3155SOL     OW 9829   1.544   5.546   1.122 -0.0122 -0.5847  0.8857
 3155SOL    HW1 9830   1.452   5.553   1.096  0.0754  2.1259  1.0078
 3155SOL    HW2 9831   1.541   5.541   1.218 -0.0363 -0.0744  0.9146
 3156SOL     OW 9832   0.326   4.334   5.006  0.2678 -0.3873 -0.1096
 3156SOL    HW1 9833   0.266   4.392   5.053 -0.9089 -0.0309 -1.9427
 3156SOL    HW2 9834   0.411   4.378   5.012  0.0826 -0.1647  1.2900
 3157SOL     OW 9835   5.486   0.332   3.754 -0.7136  0.6872  0.3936
 3157SOL    HW1 9836   5.438   0.256   3.788  0.2399  0.3376  1.0183
 3157SOL    HW2 9837   5.418   0.395   3.732 -1.5198 -0.2725  0.0289
 3158SOL     OW 9838   0.627   0.627   3.475 -0.1938 -0.3103 -0.6236
 3158SOL    HW1 9839   0.630   0.535   3.499 -2.5918 -0.3093 -0.0957
 3158SOL    HW2 9840   0.717   0.657   3.485  0.3507 -2.1974  0.7495
 3159SOL     OW 9841   4.029   0.000   1.679  0.0379  0.4135 -0.2388
 3159SOL    HW1 9842   3.958   0.013   1.742  1.3225  0.7026  1.2038
 3159SOL    HW2 9843   4.078  -0.075   1.712 -2.0092 -2.7811 -3.5975
 3160SOL     OW 9844   3.826   0.735   5.373 -0.3943 -0.4830 -0.1843
 3160SOL    HW1 9845   3.843   0.670   5.441  2.9086  0.5180  0.1530
 3160SOL    HW2 9846   3.824   0.685   5.292 -1.2852 -1.3443  0.3489
 3161SOL     OW 9847   0.850   0.573   1.747  0.2706  0.0479  0.1346
 3161SOL    HW1 9848   0.844   0.522   1.666  0.8124  0.6327 -0.2854
 3161SOL    HW2 9849   0.835   0.509   1.817  0.6814 -0.6428 -0.3904
 3162SOL     OW 9850   4.485   0.222   2.516 -0.2938  0.3922  0.9873
 3162SOL    HW1 9851   4.430   0.196   2.590 -1.0884  2.0303  1.0154
 3162SOL    HW2 9852   4.559   0.161   2.519 -1.2519 -0.7883  1.9655
 3163SOL     OW 9853   2.558   5.341   2.810  0.4608 -0.0994  0.0957
 3163SOL    HW1 9854   2.524   5.351   2.721  3.2649  0.9167 -0.9825
 3163SOL    HW2 9855   2.642   5.297   2.799  0.0061 -1.7645  2.4842
 3164SOL     OW 9856   1.198   1.759   0.107  0.1970 -0.1301  0.7429
 3164SOL    HW1 9857   1.284   1.798   0.124  1.3396 -0.5241 -3.1062
 3164SOL    HW2 9858   1.193   1.755   0.012 -3.0431 -2.5473  0.8683
 3165SOL     OW 9859   2.350   3.659   0.305  0.5184  0.3300  0.5771
 3165SOL    HW1 9860   2.288   3.664   0.233  0.9774 -1.3211  0.0298
 3165SOL    HW2 9861   2.433   3.634   0.264  0.6231 -1.3783  1.7272
 3166SOL     OW 9862   1.732   1.472   0.233  0.1129  0.6502 -0.0123
 3166SOL    HW1 9863   1.784   1.420   0.170  0.8280  1.0131  0.2625
 3166SOL    HW2 9864   1.657   1.416   0.253  0.7309 -0.1805  0.0735
 3167SOL     OW 9865   5.071   4.793   3.226  0.2919  0.5040 -0.6898
 3167SOL    HW1 9866   5.059   4.699   3.240  1.7049  0.3811 -0.1967
 3167SOL    HW2 9867   5.035   4.809   3.139 -1.5445 -0.1562 -0.0938
 3168SOL     OW 9868   5.188   5.090   0.371  0.0713 -0.3699 -0.2866
 3168SOL    HW1 9869   5.256   5.147   0.408  1.1884 -1.7600 -0.1224
 3168SOL    HW2 9870   5.233   5.040   0.302 -1.2055 -0.1338 -1.3398
 3169SOL     OW 9871   4.293   3.347   4.084  0.1094 -0.0033 -0.2622
 3169SOL    HW1 9872   4.347   3.275   4.052  0.1053 -0.4487  0.6798
 3169SOL    HW2 9873   4.353   3.400   4.137  0.1190  0.7132 -0.9742
 3170SOL     OW 9874   1.670   0.038   1.791 -0.3121  0.0022  0.5435
 3170SOL    HW1 9875   1.595   0.053   1.848 -0.4503 -0.0560  0.3796
 3170SOL    HW2 9876   1.737   0.098   1.823 -1.1986  1.8095 -0.7570
 3171SOL     OW 9877   0.492   3.873   6.113  0.3155 -0.1717 -0.3485
 3171SOL    HW1 9878   0.413   3.836   6.075  1.5788 -1.6902 -1.6105
 3171SOL    HW2 9879   0.476   3.967   6.115 -1.8449 -0.4967  0.2624
 3172SOL     OW 9880   6.570   6.605   3.553  0.1453  0.1614 -0.2452
 3172SOL    HW1 9881   6.648   6.616   3.608  0.6243 -2.0955 -0.3750
 3172SOL    HW2 9882   6.603   6.608   3.464  0.7743 -3.8408 -0.3517
 3173SOL     OW 9883   0.169   4.747   2.093  0.0143  0.3241 -0.2899
 3173SOL    HW1 9884   0.209   4.660   2.094  0.5620  0.5475  1.9056
 3173SOL    HW2 9885   0.139   4.758   2.003 -0.4530 -2.3073 -0.5555
 3174SOL     OW 9886   3.732   2.438   0.475  0.3433 -0.2698 -0.7124
 3174SOL    HW1 9887   3.697   2.362   0.428  1.6837 -0.4398 -1.5107
 3174SOL    HW2 9888   3.780   2.487   0.408  0.3031  0.7729  0.0030
 3175SOL     OW 9889   2.791   2.688   3.969  0.1505 -0.8362 -0.2722
 3175SOL    HW1 9890   2.766   2.682   3.877 -0.7777 -0.4996 -0.0464
 3175SOL    HW2 9891   2.853   2.616   3.981 -0.2681 -1.3252 -0.9798
 3176SOL     OW 9892   6.658   0.943   0.871  0.4018 -0.2693 -0.0404
 3176SOL    HW1 9893   6.571   0.978   0.852  0.5073  0.7941  1.3115
 3176SOL    HW2 9894   6.698   1.007   0.930  3.1241  0.6368 -2.5987
 3177SOL     OW 9895   3.631   5.216   6.514 -0.2971 -0.1428  0.1303
 3177SOL    HW1 9896   3.576   5.138   6.512 -0.4362 -0.0533  0.3970
 3177SOL    HW2 9897   3.675   5.213   6.599 -0.6297  0.2869  0.3253
 3178SOL     OW 9898   1.065   1.985   0.659  0.1995  0.1054  0.4765
 3178SOL    HW1 9899   1.074   2.033   0.577 -0.5252 -1.6015 -0.6542
 3178SOL    HW2 9900   1.038   1.897   0.632 -2.5418  0.1456  2.6493
 3179SOL     OW 9901   1.795   0.292   3.376  0.3253  0.0116  0.5683
 3179SOL    HW1 9902   1.816   0.350   3.302 -1.3507 -1.0506 -0.8147
 3179SOL    HW2 9903   1.879   0.253   3.399  0.8537  0.0986 -1.0321
 3180SOL     OW 9904   2.514   0.053   2.726 -0.4966 -0.9098 -0.4045
 3180SOL    HW1 9905   2.518  -0.021   2.786 -0.5366  0.8109  1.8263
 3180SOL    HW2 9906   2.605   0.065   2.697  0.2691  0.4693  2.2738
 3181SOL     OW 9907   1.165   5.000   2.119 -0.6738 -0.1617 -0.1056
 3181SOL    HW1 9908   1.234   5.064   2.103 -0.6477 -0.2025 -0.1564
 3181SOL    HW2 9909   1.211   4.919   2.142 -0.6626 -0.5009 -1.2482
 3182SOL     OW 9910   1.631   4.269   2.508 -0.1595 -0.1592 -0.0403
 3182SOL    HW1 9911   1.606   4.199   2.568 -0.5734 -0.1118 -0.1562
 3182SOL    HW2 9912   1.669   4.336   2.564  0.6346 -0.6539  0.0254
 3183SOL     OW 9913   3.752   5.135   2.689 -0.5065 -0.3536  0.1116
 3183SOL    HW1 9914   3.677   5.138   2.629 -1.0379 -1.9627  0.6247
 3183SOL    HW2 9915   3.713   5.128   2.776  0.2456 -0.4923  0.4419
 3184SOL     OW 9916   2.842   6.684   1.973 -0.1732 -0.0808 -0.5108
 3184SOL    HW1 9917   2.929   6.647   1.985 -0.6253 -0.8882  0.4920
 3184SOL    HW2 9918   2.801   6.628   1.906  0.1540  0.4487 -1.1593
 3185SOL     OW 9919   1.611   1.084   0.019 -0.5314 -0.8448  0.1457
 3185SOL    HW1 9920   1.661   1.106  -0.059  0.4290 -0.0404  0.9609
 3185SOL    HW2 9921   1.521   1.074  -0.012 -0.3630  0.5295 -0.8810
 3186SOL     OW 9922   6.679   0.691   6.222 -0.4496  0.3506  0.0480
 3186SOL    HW1 9923   6.699   0.612   6.171 -0.2446 -0.0180  0.6900
 3186SOL    HW2 9924   6.692   0.763   6.160 -0.1731 -0.0890 -0.4128
 3187SOL     OW 9925   2.996   0.725   2.611 -0.1407  0.4463 -0.3168
 3187SOL    HW1 9926   2.959   0.806   2.646  0.9829  0.6077  0.5474
 3187SOL    HW2 9927   2.969   0.723   2.519 -2.1471  0.6198  0.2294
 3188SOL     OW 9928   5.170   4.044   0.492  0.3252  0.0368 -0.1776
 3188SOL    HW1 9929   5.195   4.125   0.536 -0.5090  0.3064 -0.1836
 3188SOL    HW2 9930   5.102   4.069   0.430 -1.1834 -0.9001  1.0191
 3189SOL     OW 9931   4.567   1.175   5.195  0.0955 -0.0288  0.1110
 3189SOL    HW1 9932   4.550   1.109   5.128 -1.2962  0.7025 -0.3138
 3189SOL    HW2 9933   4.550   1.130   5.278 -1.1654 -0.1365 -0.1858
 3190SOL     OW 9934   0.728   1.076   5.011 -0.6445  0.7669 -1.0333
 3190SOL    HW1 9935   0.653   1.050   5.065  0.2784  0.5060  0.1576
 3190SOL    HW2 9936   0.802   1.075   5.071 -0.0360  3.1641 -1.6696
 3191SOL     OW 9937   4.774   6.578   4.527  0.1387  0.0164  0.2986
 3191SOL    HW1 9938   4.793   6.659   4.573  0.4423  0.9217 -1.3488
 3191SOL    HW2 9939   4.860   6.536   4.517  0.4279  0.8808 -1.2751
 3192SOL     OW 9940   3.600   3.406   4.610  0.2012  0.4933  0.2367
 3192SOL    HW1 9941   3.629   3.324   4.569 -0.0639  0.3313  0.3725
 3192SOL    HW2 9942   3.512   3.387   4.642 -0.2324  1.1035 -0.5436
 3193SOL     OW 9943   1.204   2.929   0.048  0.1377 -0.1324 -0.3438
 3193SOL    HW1 9944   1.205   3.019   0.080 -1.9429 -0.6262  1.3588
 3193SOL    HW2 9945   1.195   2.876   0.127  2.5581 -1.9661 -1.1939
 3194SOL     OW 9946   4.669   0.627   1.999  0.0329 -0.3800  0.1589
 3194SOL    HW1 9947   4.676   0.571   2.077 -1.2736 -1.0120 -0.1395
 3194SOL    HW2 9948   4.703   0.712   2.027 -0.1367 -0.6804  1.3364
 3195SOL     OW 9949   1.655   3.401   0.118  0.0847  0.1489 -0.0919
 3195SOL    HW1 9950   1.673   3.494   0.103 -1.0620  0.5537  0.8797
 3195SOL    HW2 9951   1.708   3.378   0.194  1.0412 -0.2437 -0.8559
 3196SOL     OW 9952   5.982   5.612   0.394 -0.0207  0.6667 -0.1891
 3196SOL    HW1 9953   6.076   5.596   0.403 -0.1646 -0.1605 -0.1089
 3196SOL    HW2 9954   5.943   5.568   0.469 -0.3485  2.4237  0.7161
 3197SOL     OW 9955   3.672   5.702   1.766 -0.2676 -0.2260 -0.0060
 3197SOL    HW1 9956   3.659   5.646   1.842 -4.4905 -1.3647 -1.2820
 3197SOL    HW2 9957   3.693   5.643   1.694 -1.1328  0.1991 -0.6393
 3198SOL     OW 9958   6.414   2.965   6.086  0.6111  0.1369 -0.6100
 3198SOL    HW1 9959   6.483   2.959   6.152  0.1455  1.4227  0.0195
 3198SOL    HW2 9960   6.455   3.007   6.011  0.5350  0.9066 -0.2329
 3199SOL     OW 9961   6.322   5.294   0.544  0.0446  0.0497  0.1835
 3199SOL    HW1 9962   6.352   5.370   0.594  1.7708 -0.9984  0.8748
 3199SOL    HW2 9963   6.330   5.221   0.606  1.0889 -1.0987 -1.2352
 3200SOL     OW 9964   2.551   4.850   3.286  0.3383  0.2368  0.1044
 3200SOL    HW1 9965   2.462   4.846   3.249  0.4753  0.5992 -0.2727
 3200SOL    HW2 9966   2.600   4.782   3.240  0.4369  0.5036 -0.1867
 3201SOL     OW 9967   2.856   2.300   1.640  0.5538  0.2766  0.1360
 3201SOL    HW1 9968   2.789   2.368   1.648 -1.9625 -1.9140 -0.4407
 3201SOL    HW2 9969   2.887   2.286   1.729 -1.2430  0.0590  0.7710
 3202SOL     OW 9970   0.206   0.660   2.665  0.1009 -0.0216  0.8000
 3202SOL    HW1 9971   0.243   0.578   2.699  0.6796  0.0979  0.4821
 3202SOL    HW2 9972   0.117   0.637   2.639 -0.0219 -0.3438  1.5020
 3203SOL     OW 9973   6.455   1.056   5.308  0.0547  0.2800  0.1588
 3203SOL    HW1 9974   6.412   0.971   5.321  2.1922 -0.5914  2.2657
 3203SOL    HW2 9975   6.397   1.119   5.351 -0.2006 -0.5528  1.0704
 3204SOL     OW 9976   3.772   0.259   5.166 -0.3645 -0.1874 -0.5392
 3204SOL    HW1 9977   3.781   0.231   5.075  0.2554  0.4632 -0.6896
 3204SOL    HW2 9978   3.778   0.178   5.217  0.2545 -0.4504 -1.0217
 3205SOL     OW 9979   1.828   6.390   0.970 -0.2935 -0.2463  0.2981
 3205SOL    HW1 9980   1.790   6.433   1.047 -1.1058 -1.8409  0.8387
 3205SOL    HW2 9981   1.785   6.432   0.895 -0.1319  0.7330  0.7476
 3206SOL     OW 9982   0.416   4.071   2.939 -0.0654  0.3102 -0.0003
 3206SOL    HW1 9983   0.370   3.988   2.945  0.4660  0.0048 -0.0450
 3206SOL    HW2 9984   0.375   4.116   2.865 -1.2294  0.6503  0.8255
 3207SOL     OW 9985   4.454   2.516   1.539  0.1476 -0.5106  0.6552
 3207SOL    HW1 9986   4.481   2.458   1.467  0.1332  0.5786 -0.2459
 3207SOL    HW2 9987   4.364   2.541   1.516 -0.1179 -0.7217  1.4364
 3208SOL     OW 9988   5.171   6.238   4.646  0.1785 -0.0483 -0.6198
 3208SOL    HW1 9989   5.145   6.296   4.575 -0.3792  0.1618 -0.2436
 3208SOL    HW2 9990   5.134   6.153   4.623 -2.1092  0.5499  0.6050
 3209SOL     OW 9991   5.450   2.034   1.145 -0.0194  0.3897  0.2809
 3209SOL    HW1 9992   5.408   2.064   1.226 -0.9305  0.6467 -0.2820
 3209SOL    HW2 9993   5.417   2.093   1.078 -1.0464 -1.2179 -0.6790
 3210SOL     OW 9994   0.155   2.747   2.611  0.6191  0.2509  0.1705
 3210SOL    HW1 9995   0.214   2.804   2.560  0.7363 -0.0884 -0.0774
 3210SOL    HW2 9996   0.184   2.658   2.590  1.1746  0.1085  1.4258
 3211SOL     OW 9997   1.637   2.101   2.492 -0.2867  0.0349 -0.1300
 3211SOL    HW1 9998   1.569   2.168   2.488 -0.8765 -0.2861  2.5008
 3211SOL    HW2 9999   1.604   2.037   2.555  1.2645 -1.5729 -0.8600
 3212SOL     OW10000   1.264   1.583   2.169  0.5573  0.6693  0.3357
 3212SOL    HW110001   1.294   1.620   2.086 -2.0433  0.3732 -0.8236
 3212SOL    HW210002   1.228   1.657   2.218  1.2349  0.6862  0.8259
 3213SOL     OW10003   6.688   4.398   0.926  0.0028  0.3866 -0.4906
 3213SOL    HW110004   6.615   4.419   0.868 -0.0847  1.1290 -0.1199
 3213SOL    HW210005   6.648   4.354   1.001  0.2525 -1.7882 -1.5592
 3214SOL     OW10006   4.038   6.056   4.549 -0.1379  0.0315 -0.2924
 3214SOL    HW110007   3.982   5.978   4.546  1.4513 -1.1718 -0.5068
 3214SOL    HW210008   4.033   6.092   4.461  0.7421 -1.1003 -0.8400
 3215SOL     OW10009   0.296   5.413   2.916 -0.1955 -0.1599 -1.2461
 3215SOL    HW110010   0.326   5.498   2.949  2.3565 -1.5482  0.3482
 3215SOL    HW210011   0.232   5.384   2.981  1.6693 -0.9800  0.3591
 3216SOL     OW10012   3.559   3.381   6.543  0.7550 -0.8962 -1.0696
 3216SOL    HW110013   3.463   3.385   6.547  0.8177  0.4160 -0.3520
 3216SOL    HW210014   3.581   3.422   6.459  0.6801 -1.6785 -1.4817
 3217SOL     OW10015   4.464   6.500   5.550  0.3169 -0.2245 -0.0309
 3217SOL    HW110016   4.489   6.535   5.635  0.6144 -0.5563  0.0205
 3217SOL    HW210017   4.532   6.436   5.530  0.7186  0.4619 -0.9092
 3218SOL     OW10018   5.545   4.973   2.850 -0.5534  0.1812 -0.5681
 3218SOL    HW110019   5.461   4.933   2.831 -0.2918 -0.3978 -0.5187
 3218SOL    HW210020   5.532   5.016   2.935 -0.8047  0.1088 -0.5697
 3219SOL     OW10021   1.473   5.144   0.722  0.2828 -0.0745 -0.3090
 3219SOL    HW110022   1.477   5.138   0.817  1.2483 -0.7696 -0.3835
 3219SOL    HW210023   1.564   5.154   0.694 -0.1433  2.6871 -1.0477
 3220SOL     OW10024   1.710   3.678   0.156 -0.4998 -0.5258 -0.3186
 3220SOL    HW110025   1.633   3.730   0.180 -0.3042  0.9808 -2.6259
 3220SOL    HW210026   1.758   3.667   0.238 -2.5483 -0.4982  0.9547
 3221SOL     OW10027   4.315   3.873   0.747 -0.0601 -0.1855 -0.3084
 3221SOL    HW110028   4.294   3.883   0.840 -3.3419  0.0411 -0.9665
 3221SOL    HW210029   4.407   3.899   0.741  0.3564 -0.4746  2.8864
 3222SOL     OW10030   4.678   4.084   1.553 -0.1517 -0.1925  0.1142
 3222SOL    HW110031   4.682   4.097   1.648  0.1810  0.8480 -0.0284
 3222SOL    HW210032   4.767   4.099   1.522 -0.6966  1.9807 -0.6194
 3223SOL     OW10033   6.051   3.303   4.473 -0.5383 -0.3556 -0.0916
 3223SOL    HW110034   6.060   3.228   4.531 -1.1721 -0.3679  0.0063
 3223SOL    HW210035   5.997   3.365   4.523  0.8406  0.6191  0.2539
 3224SOL     OW10036   1.008   0.611   3.228 -0.0963 -0.1827 -0.4169
 3224SOL    HW110037   0.997   0.639   3.138 -1.9101 -0.2989 -0.2509
 3224SOL    HW210038   0.975   0.684   3.281  2.2852  0.5214  0.2569
 3225SOL     OW10039   2.845   5.486   4.993  0.1129 -0.0284  0.1522
 3225SOL    HW110040   2.841   5.474   4.898 -2.3426  0.9304  0.0732
 3225SOL    HW210041   2.897   5.565   5.005  4.7604 -2.6804  0.0067
 3226SOL     OW10042   0.504   4.171   3.972  0.2479  0.3809  0.2328
 3226SOL    HW110043   0.586   4.123   3.980  0.6655  1.2554  1.4678
 3226SOL    HW210044   0.482   4.165   3.879 -0.2577 -2.9573  0.4526
 3227SOL     OW10045   5.300   2.601   4.144 -0.1622  0.2454  0.1952
 3227SOL    HW110046   5.285   2.695   4.155 -2.0912 -0.0147  0.1417
 3227SOL    HW210047   5.354   2.577   4.220 -0.5872  1.2072  0.8274
 3228SOL     OW10048   2.497   1.587   3.921  0.1616  0.4354 -0.0305
 3228SOL    HW110049   2.426   1.630   3.969  1.6465  2.3251  0.5891
 3228SOL    HW210050   2.560   1.562   3.988  1.6386  1.8844 -0.8097
 3229SOL     OW10051   6.003   0.140   4.233 -0.3309  0.1125  0.6673
 3229SOL    HW110052   6.092   0.173   4.240 -0.7406  1.2612  0.6980
 3229SOL    HW210053   5.955   0.209   4.187 -1.0072 -0.8722 -0.1337
 3230SOL     OW10054   1.457   5.144   2.209  0.4148 -0.2664 -0.0782
 3230SOL    HW110055   1.522   5.103   2.152  0.0696 -0.4325 -0.3494
 3230SOL    HW210056   1.465   5.096   2.292  1.3120  0.3495  0.2005
 3231SOL     OW10057   0.746   0.693   2.402 -0.0921 -0.0200 -0.7756
 3231SOL    HW110058   0.685   0.702   2.475 -1.3201 -0.8839 -1.6571
 3231SOL    HW210059   0.690   0.686   2.325  1.0348 -2.4682 -1.4739
 3232SOL     OW10060   2.737   4.113   1.599  0.6255 -0.5934  0.1113
 3232SOL    HW110061   2.679   4.107   1.675 -1.3133 -1.3727 -1.3669
 3232SOL    HW210062   2.758   4.206   1.592 -0.0927 -0.3585  0.9263
 3233SOL     OW10063   1.928   3.672   2.755  0.4217  0.0942  0.3461
 3233SOL    HW110064   1.932   3.761   2.721 -0.7230 -0.2857 -0.9083
 3233SOL    HW210065   1.883   3.622   2.686  0.9724 -1.4363  1.0435
 3234SOL     OW10066   2.916   5.883   0.587 -0.5790 -0.4071  0.5976
 3234SOL    HW110067   3.008   5.890   0.560 -1.0977  1.6906 -0.8460
 3234SOL    HW210068   2.883   5.806   0.541  0.0349 -0.1786 -0.2429
 3235SOL     OW10069   5.106   3.272   5.474  1.0449  0.0889  0.0866
 3235SOL    HW110070   5.038   3.295   5.411 -0.3008 -1.4649  0.8798
 3235SOL    HW210071   5.136   3.185   5.447  1.1812 -0.1552  0.9867
 3236SOL     OW10072   2.188   3.943   1.457  0.2018  0.4869  0.9212
 3236SOL    HW110073   2.230   4.026   1.435  0.2985  0.1763 -0.1339
 3236SOL    HW210074   2.096   3.955   1.431  0.8047 -0.7472 -2.3167
 3237SOL     OW10075   3.410   5.144   6.030  0.3891  0.3552 -0.9301
 3237SOL    HW110076   3.324   5.103   6.031 -0.6113  2.1717  2.6329
 3237SOL    HW210077   3.399   5.223   5.977 -0.2821  0.7554 -0.2167
 3238SOL     OW10078   5.914   1.658   3.872  0.0028  0.2356  0.2405
 3238SOL    HW110079   6.002   1.642   3.904  0.5903  1.0359 -0.9086
 3238SOL    HW210080   5.857   1.626   3.941  1.1827 -0.8562  0.7363
 3239SOL     OW10081   4.431   0.171   6.195  0.5164  0.0375  0.1128
 3239SOL    HW110082   4.493   0.105   6.163  1.7784  0.7682  0.9502
 3239SOL    HW210083   4.485   0.229   6.249 -1.0577  0.2331  1.5366
 3240SOL     OW10084   6.089   4.747   6.310  0.0676 -0.3726  0.2176
 3240SOL    HW110085   6.000   4.780   6.325  0.0099 -0.3864 -0.0776
 3240SOL    HW210086   6.129   4.812   6.252 -0.3129 -1.2015 -1.0283
 3241SOL     OW10087   0.892   4.967   3.835  0.2296 -0.1510 -0.5412
 3241SOL    HW110088   0.966   4.932   3.885  0.9045  0.2023 -1.2729
 3241SOL    HW210089   0.868   4.896   3.776  0.8283  0.1833 -1.1984
 3242SOL     OW10090   5.485   0.077   2.715  0.2680 -0.5264 -0.3440
 3242SOL    HW110091   5.561   0.123   2.752  0.9545 -0.7826 -1.4010
 3242SOL    HW210092   5.414   0.142   2.719  0.4361 -0.3910  0.9530
 3243SOL     OW10093   5.167   1.263   2.025  0.5466  0.3114 -0.5456
 3243SOL    HW110094   5.181   1.259   2.120  0.7398  0.3566 -0.5704
 3243SOL    HW210095   5.222   1.193   1.990  0.5157  0.3287 -0.6274
 3244SOL     OW10096   6.618   1.579   1.405 -0.2069  0.3882  0.3418
 3244SOL    HW110097   6.651   1.657   1.360  0.9197 -0.2695  0.0210
 3244SOL    HW210098   6.692   1.547   1.455 -1.0334  0.2596  1.5357
 3245SOL     OW10099   5.580   5.897   5.865 -0.1224 -0.0026  0.0508
 3245SOL    HW110100   5.625   5.889   5.781  0.1962 -0.7049  0.2733
 3245SOL    HW210101   5.571   5.991   5.879 -1.0674  0.1148 -1.2262
 3246SOL     OW10102   4.968   5.282   2.163  0.0596 -0.2210  0.0398
 3246SOL    HW110103   5.014   5.360   2.130  0.8560 -1.8440 -2.9349
 3246SOL    HW210104   5.028   5.246   2.229  1.4677 -0.3400 -1.2538
 3247SOL     OW10105   4.290   5.519   5.387 -0.1209  0.1597  0.3260
 3247SOL    HW110106   4.339   5.547   5.464 -0.5679  1.5629  0.1401
 3247SOL    HW210107   4.201   5.552   5.402  0.0860  1.6415 -1.3465
 3248SOL     OW10108   1.177   4.401   5.888 -0.3946 -0.4549  0.2667
 3248SOL    HW110109   1.173   4.496   5.895 -2.2825 -0.4394 -0.5201
 3248SOL    HW210110   1.141   4.369   5.970 -0.7177 -0.4864  0.1117
 3249SOL     OW10111   4.357   2.804   0.893 -0.3158  0.7759  0.4568
 3249SOL    HW110112   4.304   2.840   0.964 -0.4904 -0.4295  0.9580
 3249SOL    HW210113   4.447   2.807   0.926 -0.1858  1.8452  0.0231
 3250SOL     OW10114   3.842   6.435   4.277  0.2492 -0.2864 -0.1065
 3250SOL    HW110115   3.761   6.388   4.294 -0.0170  0.5470  1.0167
 3250SOL    HW210116   3.814   6.524   4.254  0.8347  0.0558  0.4517
 3251SOL     OW10117   4.639   4.787   3.173 -0.6217  0.8149 -0.3038
 3251SOL    HW110118   4.624   4.875   3.138 -1.6995  0.6677 -0.2438
 3251SOL    HW210119   4.612   4.793   3.264 -0.5031  0.4631 -0.2435
 3252SOL     OW10120   2.983   6.596   6.788 -0.1534 -0.5962  0.0695
 3252SOL    HW110121   2.986   6.515   6.838  0.5465  0.5488  1.9800
 3252SOL    HW210122   3.007   6.570   6.699  0.4569 -2.4093  0.7229
 3253SOL     OW10123   1.920   5.007   0.961 -0.3827 -0.7333 -0.4842
 3253SOL    HW110124   1.863   4.971   1.029  0.2451  0.5444  0.7629
 3253SOL    HW210125   2.000   4.955   0.967 -0.9605 -1.7874 -1.4808
 3254SOL     OW10126   3.801   2.497   1.709 -0.3056 -0.5238  0.1700
 3254SOL    HW110127   3.853   2.577   1.719 -1.7416  0.4273  0.4654
 3254SOL    HW210128   3.774   2.497   1.617  0.4435 -1.1770 -0.0589
 3255SOL     OW10129   5.683   2.750   0.845 -0.7735  0.4304 -0.5472
 3255SOL    HW110130   5.647   2.795   0.921 -0.6912  0.4223 -0.5026
 3255SOL    HW210131   5.699   2.819   0.780  3.1983  1.2014  0.9434
 3256SOL     OW10132   4.013   3.756   1.928  0.0239  0.2695  0.2858
 3256SOL    HW110133   3.956   3.712   1.991  0.5780 -2.7313 -1.1083
 3256SOL    HW210134   4.097   3.763   1.973 -0.5756  1.8580  1.2357
 3257SOL     OW10135   0.784   2.741   1.486  0.1144  0.3565 -0.4943
 3257SOL    HW110136   0.752   2.755   1.397 -2.4354  1.1501  0.4543
 3257SOL    HW210137   0.822   2.653   1.485  1.4226  0.8556 -2.6339
 3258SOL     OW10138   6.696   3.077   6.468 -0.1241  0.0088 -0.2558
 3258SOL    HW110139   6.693   3.107   6.377  1.9613 -0.5443 -0.5553
 3258SOL    HW210140   6.662   3.151   6.518 -0.8698  0.5006 -1.4326
 3259SOL     OW10141   4.564   2.605   2.086 -0.0447 -0.1896 -0.4168
 3259SOL    HW110142   4.513   2.596   2.005  1.1253  0.7785 -1.2814
 3259SOL    HW210143   4.600   2.518   2.101 -0.5131 -0.4483 -0.7637
 3260SOL     OW10144   1.428   2.006   0.477  0.1096  0.1959  0.0443
 3260SOL    HW110145   1.384   1.932   0.437 -1.6338  1.8486 -1.2911
 3260SOL    HW210146   1.516   2.004   0.439 -0.7915  0.3825 -2.2356
 3261SOL     OW10147   5.418   1.704   2.813 -0.4036 -0.3008  0.2073
 3261SOL    HW110148   5.475   1.779   2.832  0.4862 -0.9932  0.2975
 3261SOL    HW210149   5.424   1.648   2.890 -0.1633 -1.0245 -0.3285
 3262SOL     OW10150   5.845   3.897   1.000  0.1552  0.2475  0.1978
 3262SOL    HW110151   5.838   3.823   0.940 -0.7579  0.1983  0.3563
 3262SOL    HW210152   5.860   3.973   0.942  0.9544 -0.0320  0.0279
 3263SOL     OW10153   4.127   1.453   2.108 -0.9303 -0.1748  0.0416
 3263SOL    HW110154   4.039   1.491   2.110 -1.2734 -0.9205 -0.4107
 3263SOL    HW210155   4.141   1.432   2.015 -1.4995 -2.7923  0.4744
 3264SOL     OW10156   3.938   4.127   5.542  0.1440 -0.7561  0.0874
 3264SOL    HW110157   4.000   4.149   5.612 -0.6334  0.0405  0.5464
 3264SOL    HW210158   3.852   4.144   5.580 -0.2665  1.9191 -1.7429
 3265SOL     OW10159   3.877   2.757   0.408 -0.2742  0.6071  0.0895
 3265SOL    HW110160   3.800   2.775   0.354  0.1891 -0.1542 -0.8646
 3265SOL    HW210161   3.950   2.791   0.356  0.3447 -1.5464 -0.5323
 3266SOL     OW10162   3.364   3.029   2.295 -0.4356 -0.6339 -0.6563
 3266SOL    HW110163   3.275   3.042   2.262 -1.2173 -2.5246  0.5549
 3266SOL    HW210164   3.364   3.070   2.381  0.2119  0.2890 -1.0823
 3267SOL     OW10165   3.996   2.841   6.521  0.3564 -0.1711 -0.6889
 3267SOL    HW110166   3.968   2.918   6.471 -0.4723 -0.2190 -0.3165
 3267SOL    HW210167   4.088   2.829   6.498  0.3859  0.7014 -1.0492
 3268SOL     OW10168   4.274   5.323   0.967 -0.7314  0.6460 -0.3430
 3268SOL    HW110169   4.224   5.298   1.044  1.3537  1.3255  1.3474
 3268SOL    HW210170   4.295   5.241   0.924 -0.2104  0.0466  1.0002
 3269SOL     OW10171   2.741   6.430   5.442 -0.7309 -0.3745  0.1433
 3269SOL    HW110172   2.750   6.511   5.492  3.5849 -0.7527  0.3505
 3269SOL    HW210173   2.763   6.454   5.352 -4.0712 -0.5610 -0.8416
 3270SOL     OW10174   4.778   5.742   1.113 -0.1178 -0.0733 -0.9690
 3270SOL    HW110175   4.821   5.768   1.032  1.0255 -1.6671 -0.9255
 3270SOL    HW210176   4.760   5.649   1.102 -1.3531  0.0224  0.0126
 3271SOL     OW10177   2.084   4.695   5.680  0.3955 -0.0534 -0.3747
 3271SOL    HW110178   2.106   4.657   5.765 -0.2160 -0.9344 -0.5910
 3271SOL    HW210179   2.052   4.783   5.700  1.6013  0.2799  0.1632
 3272SOL     OW10180   4.714   2.449   6.348 -0.6572 -0.1735 -0.5047
 3272SOL    HW110181   4.808   2.449   6.332 -0.5113 -1.5070  0.2810
 3272SOL    HW210182   4.676   2.484   6.267  0.4518 -0.4315 -1.1544
 3273SOL     OW10183   0.039   3.664   1.020 -0.3282 -0.2607  0.6884
 3273SOL    HW110184   0.031   3.630   1.109  0.4455  0.3694  1.0087
 3273SOL    HW210185   0.129   3.642   0.994 -0.8027 -1.1880 -0.2697
 3274SOL     OW10186   3.535   5.995   1.354  0.3708 -0.3023 -0.1335
 3274SOL    HW110187   3.512   5.943   1.277  0.5514 -2.7801  1.3747
 3274SOL    HW210188   3.629   6.009   1.347  0.4146 -0.6718 -0.3044
 3275SOL     OW10189   2.201   4.682   1.386 -0.5664  0.0768  0.1853
 3275SOL    HW110190   2.258   4.664   1.311 -1.3203 -1.4138 -0.0627
 3275SOL    HW210191   2.122   4.719   1.348 -1.0960 -1.0184  0.1775
 3276SOL     OW10192   3.382   5.940   2.741 -0.0365  0.0665  0.7918
 3276SOL    HW110193   3.340   5.963   2.659  0.9832 -1.3061 -0.1485
 3276SOL    HW210194   3.462   5.993   2.743  0.1079 -0.1480  0.7363
 3277SOL     OW10195   6.694   5.152   2.925 -0.1789 -0.4225 -0.3188
 3277SOL    HW110196   6.609   5.190   2.906 -0.0393  1.6413  2.4482
 3277SOL    HW210197   6.675   5.069   2.970 -0.7667  0.0675  0.3561
 3278SOL     OW10198   5.629   5.359   4.483  0.1493  0.5033  0.0119
 3278SOL    HW110199   5.608   5.443   4.524  2.9486  1.7165 -0.7573
 3278SOL    HW210200   5.670   5.308   4.553  2.7276  1.6663 -0.5089
 3279SOL     OW10201   5.128   0.596   4.948  0.1391  0.2409 -0.6396
 3279SOL    HW110202   5.191   0.526   4.934  0.7860  0.5383  0.6240
 3279SOL    HW210203   5.072   0.594   4.871  0.6344 -1.1464 -0.9871
 3280SOL     OW10204   0.488   4.044   4.702 -0.4444  0.0801  0.6609
 3280SOL    HW110205   0.484   3.969   4.761  0.5635 -0.6989 -0.2062
 3280SOL    HW210206   0.438   4.017   4.625  1.2795 -0.4120 -0.3501
 3281SOL     OW10207   1.174   2.058   4.604  0.2105  0.3834 -0.0615
 3281SOL    HW110208   1.120   2.113   4.661  0.9579  1.8371 -0.6906
 3281SOL    HW210209   1.126   2.054   4.521  0.4675  0.6395 -0.2246
 3282SOL     OW10210   4.530   3.144   0.694  0.1972  0.5452 -0.0674
 3282SOL    HW110211   4.473   3.127   0.769 -0.2397 -1.1821 -0.7595
 3282SOL    HW210212   4.619   3.138   0.729  0.0024 -0.5963  0.2673
 3283SOL     OW10213   0.835   4.829   3.537 -0.4162  0.4154  0.1606
 3283SOL    HW110214   0.756   4.775   3.546  0.3442 -0.7909 -0.0243
 3283SOL    HW210215   0.902   4.780   3.584  0.6616  0.4161 -1.3111
 3284SOL     OW10216   4.519   1.222   4.130  0.0167 -0.2985  0.4981
 3284SOL    HW110217   4.538   1.264   4.213 -0.1612  0.5285  0.1333
 3284SOL    HW210218   4.573   1.269   4.066 -0.2283 -0.5875  0.0709
 3285SOL     OW10219   6.580   6.549   4.136 -0.6711 -0.0425 -0.0862
 3285SOL    HW110220   6.654   6.489   4.135 -1.4803 -1.1209 -2.4786
 3285SOL    HW210221   6.504   6.495   4.113 -1.6251  1.6534 -1.1345
 3286SOL     OW10222   1.115   3.837   3.121  0.4061 -0.0863 -0.5894
 3286SOL    HW110223   1.040   3.782   3.101  1.1871 -1.9198  1.1599
 3286SOL    HW210224   1.096   3.872   3.208  1.9876 -1.4512  0.3571
 3287SOL     OW10225   4.117   5.681   1.436  0.1474 -0.1998  0.1286
 3287SOL    HW110226   4.129   5.604   1.379  1.6337  0.3333 -0.3267
 3287SOL    HW210227   4.080   5.645   1.516  1.1589 -1.4735  0.0728
 3288SOL     OW10228   4.476   5.058   3.664 -0.2171  0.4965  0.3761
 3288SOL    HW110229   4.496   5.022   3.751 -2.6829 -1.3901  0.2790
 3288SOL    HW210230   4.522   5.000   3.603 -0.9892 -0.1093  0.3537
 3289SOL     OW10231   4.080   5.220   1.171 -0.1805  0.2066 -0.4008
 3289SOL    HW110232   4.020   5.206   1.244  1.8751 -0.0743  1.3583
 3289SOL    HW210233   4.039   5.175   1.097 -1.3086 -1.4511  1.1319
 3290SOL     OW10234   6.303   2.760   3.429  0.3321  0.1698  0.1131
 3290SOL    HW110235   6.360   2.816   3.376 -0.1048 -0.2430 -0.8142
 3290SOL    HW210236   6.258   2.704   3.366 -0.3860 -0.1758  0.9054
 3291SOL     OW10237   3.220   6.071   0.315  0.4175 -0.2976 -0.3880
 3291SOL    HW110238   3.164   6.092   0.390  0.7700 -0.8041  0.0242
 3291SOL    HW210239   3.248   6.156   0.281  0.8879 -0.0661  0.5467
 3292SOL     OW10240   0.844   1.589   5.337 -0.5943  0.1119  0.0063
 3292SOL    HW110241   0.854   1.667   5.282 -0.7057 -1.3903 -2.2909
 3292SOL    HW210242   0.879   1.518   5.284 -0.3226 -1.4087  2.1004
 3293SOL     OW10243   3.126   5.072   4.015 -0.0668  0.3447 -0.5585
 3293SOL    HW110244   3.144   5.050   4.106 -2.1603  3.6889  0.8415
 3293SOL    HW210245   3.207   5.113   3.983 -0.1523  1.6176  0.7520
 3294SOL     OW10246   6.489   3.100   2.667 -0.5734 -0.2254 -0.7634
 3294SOL    HW110247   6.408   3.108   2.617 -0.5309  0.3310 -0.7467
 3294SOL    HW210248   6.554   3.074   2.602 -0.1758  2.0479 -1.3358
 3295SOL     OW10249   1.238   2.236   0.735 -0.1766 -0.2597  0.3354
 3295SOL    HW110250   1.289   2.294   0.792 -0.4202  2.0922 -1.6935
 3295SOL    HW210251   1.265   2.148   0.761 -0.2039  0.6362  3.9658
 3296SOL     OW10252   3.413   0.182   2.338 -0.2548 -0.0967  0.2641
 3296SOL    HW110253   3.332   0.173   2.288 -0.9492 -1.2673  1.5282
 3296SOL    HW210254   3.386   0.176   2.430  1.3398 -1.5432  0.6998
 3297SOL     OW10255   1.273   2.671   4.696  0.5425 -0.6396  0.0042
 3297SOL    HW110256   1.365   2.694   4.698  0.5722 -0.5987 -1.3061
 3297SOL    HW210257   1.259   2.630   4.611 -0.7963  0.0058 -0.1261
 3298SOL     OW10258   5.723   5.164   1.551 -0.2440 -0.1256 -0.3639
 3298SOL    HW110259   5.702   5.071   1.560 -1.5355  0.0613 -1.1729
 3298SOL    HW210260   5.737   5.194   1.641  1.1102 -1.2760 -0.1546
 3299SOL     OW10261   2.925   2.468   0.862  0.2529 -0.0361  0.0679
 3299SOL    HW110262   2.912   2.522   0.941 -2.0079  0.8728 -0.8423
 3299SOL    HW210263   2.859   2.399   0.869 -1.2460  1.1137 -1.8492
 3300SOL     OW10264   4.612   5.612   6.712  0.6102  0.2718  0.0415
 3300SOL    HW110265   4.621   5.707   6.710  1.3980  0.1951 -0.4941
 3300SOL    HW210266   4.702   5.580   6.706  0.6509 -0.4890  3.0923
 3301SOL     OW10267   4.584   0.599   4.772  0.1725 -0.1827  0.1978
 3301SOL    HW110268   4.585   0.655   4.695 -1.4296  0.6651  0.7452
 3301SOL    HW210269   4.648   0.637   4.832 -0.5213  0.7846  0.3477
 3302SOL     OW10270   0.080   6.326   0.213 -0.4345  0.2463 -0.0981
 3302SOL    HW110271   0.141   6.252   0.216 -0.2542  0.3987  2.2348
 3302SOL    HW210272   0.095   6.366   0.127  1.9557 -0.3974 -0.0666
 3303SOL     OW10273   3.265   6.684   1.157 -0.1462  0.2368  0.2402
 3303SOL    HW110274   3.293   6.775   1.159  0.5407  0.0312  0.2215
 3303SOL    HW210275   3.344   6.635   1.133  0.8894 -0.8642  4.9642
 3304SOL     OW10276   1.474   0.182   1.286  0.1697 -0.2701 -0.0878
 3304SOL    HW110277   1.498   0.168   1.378 -0.1058  2.4803  0.4689
 3304SOL    HW210278   1.542   0.136   1.237  0.6398 -1.3221  1.4724
 3305SOL     OW10279   2.022   2.978   3.917  0.0464 -0.2703  0.2903
 3305SOL    HW110280   1.959   2.986   3.845  1.1554 -1.1686 -0.8227
 3305SOL    HW210281   1.983   2.911   3.974 -1.0535  0.7608  0.8010
 3306SOL     OW10282   1.094   6.640   0.956 -0.4247 -0.0503 -0.4011
 3306SOL    HW110283   1.172   6.678   0.996 -0.3903  0.6349 -1.0971
 3306SOL    HW210284   1.025   6.704   0.975 -0.1542  0.9326 -2.4825
 3307SOL     OW10285   4.559   6.428   4.609  0.1893 -0.2296 -0.3368
 3307SOL    HW110286   4.484   6.484   4.586  0.1029  0.7588  2.0960
 3307SOL    HW210287   4.629   6.458   4.552 -1.1788 -1.1253 -2.6340
 3308SOL     OW10288   2.359   1.813   1.104  0.1241 -0.1935  0.1657
 3308SOL    HW110289   2.445   1.847   1.078 -0.5455  2.4997  1.0682
 3308SOL    HW210290   2.331   1.872   1.174 -3.1098  0.0265 -1.1482
 3309SOL     OW10291   1.738   4.004   3.725 -0.1942 -0.4747  0.3419
 3309SOL    HW110292   1.769   3.940   3.661  0.0814 -1.8492  1.7986
 3309SOL    HW210293   1.815   4.056   3.747 -0.4533  0.5320 -0.9627
 3310SOL     OW10294   2.447   1.271   2.881 -0.2141  0.3053  0.2174
 3310SOL    HW110295   2.435   1.322   2.961 -2.0012 -2.5748  1.9861
 3310SOL    HW210296   2.404   1.321   2.813 -1.9843  1.1376  1.8654
 3311SOL     OW10297   2.093   1.514   0.184 -0.0500 -0.0921 -0.2007
 3311SOL    HW110298   2.053   1.584   0.235 -0.6189 -1.0468  0.7139
 3311SOL    HW210299   2.108   1.444   0.247  3.2424  0.2369 -0.4528
 3312SOL     OW10300   0.307   1.722   6.077 -0.2159  0.1448  0.2397
 3312SOL    HW110301   0.343   1.797   6.029 -0.0052 -0.3419 -0.3787
 3312SOL    HW210302   0.318   1.648   6.017 -1.1207 -0.2411  0.5354
 3313SOL     OW10303   3.473   3.889   5.083 -0.4390  0.1641  0.1481
 3313SOL    HW110304   3.426   3.971   5.072 -0.1664  0.1997 -0.7863
 3313SOL    HW210305   3.538   3.907   5.152 -0.8390  0.5207  0.4374
 3314SOL     OW10306   1.666   4.956   3.465 -0.0196  0.0133 -0.2018
 3314SOL    HW110307   1.736   5.019   3.482  0.0385 -0.3469  0.9646
 3314SOL    HW210308   1.627   4.939   3.551 -1.1823 -0.2141 -0.7524
 3315SOL     OW10309   4.361   6.644   0.059 -0.4787 -0.0861  0.0324
 3315SOL    HW110310   4.430   6.630  -0.006  0.4867  0.0081  0.9966
 3315SOL    HW210311   4.397   6.709   0.119 -1.3755 -0.0976  0.6142
 3316SOL     OW10312   5.671   6.089   2.174  0.2430  0.6880  0.4739
 3316SOL    HW110313   5.607   6.020   2.188  1.5586 -0.8667 -0.7512
 3316SOL    HW210314   5.683   6.093   2.079  2.1648  0.6823  0.6625
 3317SOL     OW10315   0.014   4.154   6.600 -0.5861 -0.1811  0.6594
 3317SOL    HW110316  -0.026   4.171   6.686 -1.5902 -0.6515  0.3014
 3317SOL    HW210317   0.034   4.060   6.602 -0.6416 -0.1974  0.3723
 3318SOL     OW10318   4.952   1.562   3.130 -0.2225 -0.3194  0.2524
 3318SOL    HW110319   4.990   1.510   3.201  0.6477  0.3000  0.2534
 3318SOL    HW210320   4.992   1.649   3.139  0.5823 -0.4658 -1.5228
 3319SOL     OW10321   1.937   4.482   1.240 -0.0513 -0.9766  0.1657
 3319SOL    HW110322   1.983   4.559   1.207  0.7848 -1.4554  0.1725
 3319SOL    HW210323   1.994   4.448   1.309 -1.4689 -0.3576  1.7062
 3320SOL     OW10324   1.932   4.359   2.625 -0.3142  0.1288  0.8177
 3320SOL    HW110325   1.986   4.325   2.696 -0.7268  0.4060  1.2779
 3320SOL    HW210326   1.985   4.349   2.546 -0.0299 -0.6066  1.0987
 3321SOL     OW10327   2.510   2.582   0.962  0.3892  0.1468  0.0662
 3321SOL    HW110328   2.552   2.660   0.999 -1.3643  1.0935  0.1452
 3321SOL    HW210329   2.534   2.511   1.022 -0.3507  1.1772  1.6283
 3322SOL     OW10330   4.899   3.501   4.526  0.4909  0.3238 -0.0809
 3322SOL    HW110331   4.949   3.568   4.573  1.3928 -0.3974  0.0157
 3322SOL    HW210332   4.890   3.429   4.587 -1.7005  0.8430  0.3110
 3323SOL     OW10333   4.527   6.300   0.596 -0.4586 -0.1164  0.1362
 3323SOL    HW110334   4.579   6.379   0.606 -2.0079  1.0866 -0.8924
 3323SOL    HW210335   4.587   6.235   0.560  0.6573  0.8017  0.3213
 3324SOL     OW10336   3.162   1.875   3.797 -0.3022  0.4251  0.0088
 3324SOL    HW110337   3.235   1.931   3.771  2.0167 -1.7039  1.4354
 3324SOL    HW210338   3.148   1.818   3.722 -2.0310  2.1361 -1.0753
 3325SOL     OW10339   4.730   4.143   0.062 -0.1090 -0.2399 -0.2412
 3325SOL    HW110340   4.713   4.058   0.022  1.3132 -0.2718 -0.8441
 3325SOL    HW210341   4.825   4.153   0.057 -0.2768  1.5481 -0.5249
 3326SOL     OW10342   0.332   1.132   1.297 -0.0822  0.4053 -0.5141
 3326SOL    HW110343   0.273   1.074   1.346  1.0978 -0.1995  0.2651
 3326SOL    HW210344   0.310   1.116   1.205 -0.8216 -0.1366 -0.2581
 3327SOL     OW10345   3.609   1.763   6.419 -0.2183 -0.3031 -0.1934
 3327SOL    HW110346   3.590   1.839   6.475 -0.5917  0.6343 -1.5410
 3327SOL    HW210347   3.655   1.703   6.476  1.0192  1.3696  0.6648
 3328SOL     OW10348   3.059   0.231   4.967  0.1247 -0.7234 -0.0196
 3328SOL    HW110349   2.967   0.231   4.996  0.6936 -2.2591  2.0204
 3328SOL    HW210350   3.084   0.323   4.966 -0.4986 -0.4157  2.8644
 3329SOL     OW10351   6.358   0.221   1.250 -0.1458  0.1180 -0.1393
 3329SOL    HW110352   6.301   0.280   1.200 -1.7044  0.8637  2.3505
 3329SOL    HW210353   6.444   0.264   1.248  0.0372 -0.2020 -2.5850
 3330SOL     OW10354   5.321   3.081   3.771 -0.0409 -0.1044  0.1853
 3330SOL    HW110355   5.274   3.124   3.700  0.4710  0.5819  0.2459
 3330SOL    HW210356   5.401   3.047   3.730  0.2384  0.2608  0.4162
 3331SOL     OW10357   2.201   3.172   5.950 -0.3727  0.6679  0.9015
 3331SOL    HW110358   2.108   3.194   5.952 -1.1271 -1.7791 -1.6291
 3331SOL    HW210359   2.232   3.206   5.866  0.0306 -1.7321  0.0166
 3332SOL     OW10360   5.676   1.916   6.428  0.2869 -0.1172 -0.3239
 3332SOL    HW110361   5.710   1.966   6.354 -0.2912  0.0346 -0.4943
 3332SOL    HW210362   5.625   1.980   6.478  0.3111 -0.3213 -0.0385
 3333SOL     OW10363   1.258   2.203   3.601 -0.0737 -0.4374 -0.4722
 3333SOL    HW110364   1.272   2.217   3.695 -2.3675  0.2900 -0.1761
 3333SOL    HW210365   1.339   2.236   3.560  1.0827 -1.0169  1.2260
 3334SOL     OW10366   5.819   5.509   5.949 -0.0564  0.1054  0.4963
 3334SOL    HW110367   5.759   5.434   5.943 -1.3965  0.9617  2.2743
 3334SOL    HW210368   5.826   5.541   5.859 -1.2961 -0.7672  0.0610
 3335SOL     OW10369   5.850   0.743   6.565 -0.1023  0.7129 -0.1972
 3335SOL    HW110370   5.921   0.806   6.581  0.6446 -0.5817  2.1330
 3335SOL    HW210371   5.770   0.790   6.591  0.4248  0.8251  1.3338
 3336SOL     OW10372   0.451   3.435   2.343  0.2017 -0.1199 -0.5697
 3336SOL    HW110373   0.425   3.432   2.435  0.8060  0.4012 -0.3718
 3336SOL    HW210374   0.427   3.349   2.309  0.5920 -0.5667  0.2482
 3337SOL     OW10375   3.381   5.203   0.948 -0.0471 -0.4702  0.6797
 3337SOL    HW110376   3.449   5.158   0.898  1.0005  0.4640  1.2168
 3337SOL    HW210377   3.391   5.295   0.924  0.1519 -0.0708  2.2019
 3338SOL     OW10378   0.850   0.914   3.958  0.0335  0.1422  0.2247
 3338SOL    HW110379   0.800   0.990   3.990 -0.6114 -0.2542  0.1859
 3338SOL    HW210380   0.862   0.932   3.865  0.2038  0.3710  0.2895
 3339SOL     OW10381   1.686   6.196   1.389  0.1026  0.3053 -0.0660
 3339SOL    HW110382   1.753   6.127   1.393 -0.6436 -0.4596 -0.4674
 3339SOL    HW210383   1.650   6.199   1.477 -1.7504 -1.7793 -0.6550
 3340SOL     OW10384   5.526   4.508   6.283  0.7333  1.1655 -0.2077
 3340SOL    HW110385   5.445   4.508   6.333  1.5397  2.4783  1.1795
 3340SOL    HW210386   5.525   4.590   6.234  0.3334  0.2695 -1.7948
 3341SOL     OW10387   4.483   5.122   0.230 -0.1097 -0.4622  0.2520
 3341SOL    HW110388   4.499   5.054   0.295  0.7667 -0.6723 -0.1653
 3341SOL    HW210389   4.567   5.133   0.186 -0.0666  1.3067  0.7080
 3342SOL     OW10390   1.690   5.523   1.454 -0.7260 -0.2986  0.3663
 3342SOL    HW110391   1.630   5.454   1.484 -1.2483  0.9386  2.3759
 3342SOL    HW210392   1.649   5.604   1.483  0.3710  0.8130 -1.0702
 3343SOL     OW10393   4.040   0.147   2.001  0.1948 -0.5765  0.0202
 3343SOL    HW110394   4.018   0.214   2.066 -2.3677  0.4053 -1.7103
 3343SOL    HW210395   4.082   0.195   1.929  2.3790 -1.5551  0.5396
 3344SOL     OW10396   0.527   3.047   0.712  0.3666 -0.1288  0.8345
 3344SOL    HW110397   0.434   3.027   0.710  0.4402 -0.5316  1.1391
 3344SOL    HW210398   0.539   3.102   0.790  0.4292 -0.3344  0.9712
 3345SOL     OW10399   3.859   5.778   3.700  0.0338 -0.2393 -0.7434
 3345SOL    HW110400   3.913   5.725   3.641  0.1330 -0.9971  0.0081
 3345SOL    HW210401   3.879   5.744   3.787 -2.7442 -1.6206 -0.5250
 3346SOL     OW10402   5.705   6.144   1.427  0.4759 -0.2478  0.0128
 3346SOL    HW110403   5.758   6.214   1.389  0.0190  0.0318 -0.1240
 3346SOL    HW210404   5.751   6.118   1.507 -0.5258  1.8139  1.3458
 3347SOL     OW10405   6.596   2.263   3.540  0.0375 -0.2480 -0.2260
 3347SOL    HW110406   6.636   2.191   3.589 -1.4261 -0.7351  0.2920
 3347SOL    HW210407   6.589   2.334   3.604 -1.1413 -0.6190  0.0811
 3348SOL     OW10408   1.068   5.357   0.779 -0.7398 -0.3637 -0.1684
 3348SOL    HW110409   1.009   5.352   0.854 -0.2481  0.0254  0.2482
 3348SOL    HW210410   1.029   5.424   0.723 -1.9025 -1.6596 -0.9848
 3349SOL     OW10411   0.063   0.138   1.762  0.5917 -0.0304  0.0724
 3349SOL    HW110412  -0.027   0.160   1.785  0.4502  0.6726 -1.0535
 3349SOL    HW210413   0.060   0.044   1.742  0.4807 -0.3880  1.6282
 3350SOL     OW10414   1.265   4.268   1.384  0.0742  0.0836  0.0086
 3350SOL    HW110415   1.221   4.251   1.301  1.7653 -0.5398 -0.8108
 3350SOL    HW210416   1.319   4.190   1.399  2.3632  1.5639 -0.0469
 3351SOL     OW10417   2.699   0.155   0.848 -0.0909  0.1033 -0.0004
 3351SOL    HW110418   2.743   0.099   0.911  0.9925  0.0341 -0.7914
 3351SOL    HW210419   2.725   0.120   0.762 -0.6657  0.8441 -0.4909
 3352SOL     OW10420   1.342   1.970   4.167  0.6758  0.5389 -0.9449
 3352SOL    HW110421   1.283   1.938   4.099  0.5778  1.3230 -1.2408
 3352SOL    HW210422   1.430   1.958   4.131  0.6311  0.7707 -1.1345
 3353SOL     OW10423   2.106   0.498   1.631  0.1535 -0.6498 -0.6527
 3353SOL    HW110424   2.058   0.573   1.667 -0.3968 -0.6175 -1.4237
 3353SOL    HW210425   2.038   0.441   1.595  0.5415 -1.7142  0.2698
 3354SOL     OW10426   5.958   5.168   5.419 -0.5085 -0.0852 -0.6843
 3354SOL    HW110427   5.976   5.261   5.431 -1.2431  0.2748 -2.0875
 3354SOL    HW210428   6.044   5.129   5.402 -0.3385  0.6103 -1.5451
 3355SOL     OW10429   0.360   1.206   4.717 -0.1958  0.0259  0.4260
 3355SOL    HW110430   0.448   1.169   4.726  0.1831  0.9479  0.6829
 3355SOL    HW210431   0.338   1.237   4.805 -0.0531  1.3412  0.0237
 3356SOL     OW10432   4.036   0.574   6.630 -0.2773 -0.4651  0.2646
 3356SOL    HW110433   4.010   0.652   6.582 -4.1488 -1.7445 -0.0549
 3356SOL    HW210434   3.975   0.568   6.702 -0.5968 -3.4973 -0.1063
 3357SOL     OW10435   3.565   6.762   5.310  0.4021  0.4319  0.2723
 3357SOL    HW110436   3.648   6.716   5.296 -0.7962 -2.0769  0.9722
 3357SOL    HW210437   3.530   6.775   5.221  1.5779  1.6942 -0.0427
 3358SOL     OW10438   6.651   3.280   2.805 -0.0016  0.6056 -0.6478
 3358SOL    HW110439   6.590   3.217   2.768  1.4809 -0.2861 -1.7062
 3358SOL    HW210440   6.649   3.354   2.744  0.9606 -0.0181 -1.4740
 3359SOL     OW10441   4.272   2.089   2.156 -0.2856 -0.3257 -0.1161
 3359SOL    HW110442   4.206   2.032   2.196 -0.0306 -0.2210  0.4665
 3359SOL    HW210443   4.349   2.032   2.146 -0.2220 -0.2467 -0.0810
 3360SOL     OW10444   0.931   0.479   5.233 -0.2431  0.2346  0.3824
 3360SOL    HW110445   0.931   0.389   5.264  0.5796  0.2100  0.3252
 3360SOL    HW210446   0.964   0.530   5.308 -2.1792  0.7059  0.9815
 3361SOL     OW10447   1.674   6.139   0.022 -0.0542  0.1727 -0.4645
 3361SOL    HW110448   1.698   6.116   0.111 -1.5195  0.4782  0.0451
 3361SOL    HW210449   1.612   6.071  -0.005  1.0200 -0.4133 -1.6003
 3362SOL     OW10450   2.520   4.313   5.419 -0.0115 -0.3075 -0.6889
 3362SOL    HW110451   2.487   4.225   5.434 -1.1041  0.5863  2.9072
 3362SOL    HW210452   2.458   4.371   5.464  2.5546  2.0055  0.1554
 3363SOL     OW10453   4.573   3.736   2.129  0.1896  0.8298  0.2285
 3363SOL    HW110454   4.666   3.760   2.126  0.3832  0.2795  1.4957
 3363SOL    HW210455   4.544   3.744   2.038  1.8088 -0.2845 -0.4223
 3364SOL     OW10456   5.675   4.003   2.421 -0.8930 -0.2978  0.3562
 3364SOL    HW110457   5.623   4.022   2.342 -2.0388 -0.1203  1.1304
 3364SOL    HW210458   5.665   3.909   2.434 -0.2003 -0.4367 -0.0347
 3365SOL     OW10459   1.532   3.082   1.212  0.2701 -0.0816  0.0649
 3365SOL    HW110460   1.593   3.029   1.263 -1.9963 -1.5653  1.3904
 3365SOL    HW210461   1.538   3.047   1.123  1.6780  0.1488  0.0489
 3366SOL     OW10462   0.684   0.282   4.653 -0.0089  0.4248  0.4746
 3366SOL    HW110463   0.590   0.286   4.637 -0.0322  1.0625  0.7687
 3366SOL    HW210464   0.694   0.209   4.715 -0.2934  0.2821  0.3573
 3367SOL     OW10465   1.806   0.287   1.008  0.8456 -0.4422 -0.1105
 3367SOL    HW110466   1.759   0.360   1.049 -0.1299 -0.4582 -1.1368
 3367SOL    HW210467   1.880   0.329   0.964  1.0482 -0.2455  0.4084
 3368SOL     OW10468   5.793   6.659   6.402 -0.1003  0.5774  0.2885
 3368SOL    HW110469   5.848   6.668   6.324 -1.4741 -3.1629 -1.3657
 3368SOL    HW210470   5.712   6.704   6.380 -1.2501 -2.0982 -1.4722
 3369SOL     OW10471   3.519   2.463   6.601 -0.2863 -0.1531  0.4085
 3369SOL    HW110472   3.477   2.539   6.642  2.1135  1.5531 -0.0690
 3369SOL    HW210473   3.500   2.474   6.508 -1.3815 -1.1539  0.4911
 3370SOL     OW10474   0.733   0.533   0.814  0.4147  0.4983  0.0039
 3370SOL    HW110475   0.673   0.535   0.740 -0.5052  1.2366  0.7523
 3370SOL    HW210476   0.783   0.614   0.806  0.0756  0.7437  0.3907
 3371SOL     OW10477   0.981   2.139   4.125 -0.2754  0.1309  0.1606
 3371SOL    HW110478   1.010   2.055   4.088  0.3364  0.9923 -1.4310
 3371SOL    HW210479   1.022   2.144   4.211 -0.6780 -1.3821  0.4745
 3372SOL     OW10480   3.169   6.121   2.083 -0.1876  0.3381  0.0861
 3372SOL    HW110481   3.090   6.071   2.103 -1.5535  2.0010 -0.8797
 3372SOL    HW210482   3.146   6.170   2.004  1.0749  2.4596  0.9644
 3373SOL     OW10483   5.612   1.071   3.109  0.2357  0.5344  0.1895
 3373SOL    HW110484   5.598   1.148   3.164  1.0725 -0.5615  2.0118
 3373SOL    HW210485   5.575   0.999   3.159  0.6676 -0.4565 -0.8852
 3374SOL     OW10486   5.762   3.546   5.483  0.6023 -0.2337 -0.5077
 3374SOL    HW110487   5.740   3.621   5.427  1.6288  0.0030 -0.6150
 3374SOL    HW210488   5.678   3.516   5.517  0.0634  0.2522 -1.3768
 3375SOL     OW10489   3.238   2.718   4.150  0.2505  0.1618 -0.5985
 3375SOL    HW110490   3.209   2.773   4.223 -0.0062 -0.5578 -0.1507
 3375SOL    HW210491   3.193   2.754   4.074  0.1515  0.6282 -0.3232
 3376SOL     OW10492   4.309   2.303   3.238  0.7438  0.1383  0.0299
 3376SOL    HW110493   4.220   2.269   3.250  0.9727 -0.9691 -1.1583
 3376SOL    HW210494   4.355   2.278   3.318  0.1383  0.2033  0.4033
 3377SOL     OW10495   5.735   4.933   4.996  0.3644 -0.5580  0.0094
 3377SOL    HW110496   5.823   4.939   5.033 -0.1136 -0.9341  1.2848
 3377SOL    HW210497   5.742   4.972   4.909  1.6224  0.0873  0.3769
 3378SOL     OW10498   4.975   3.818   2.675 -0.1340 -0.0471 -0.5400
 3378SOL    HW110499   5.033   3.742   2.663  1.2834  0.7798  0.7018
 3378SOL    HW210500   5.016   3.887   2.623  0.6033  0.8237  1.1206
 3379SOL     OW10501   1.077   2.564   3.037  0.3846 -0.3223 -0.1602
 3379SOL    HW110502   1.089   2.556   3.132  1.8569 -0.9932 -0.3774
 3379SOL    HW210503   1.135   2.634   3.010 -0.5195  0.3175 -0.4986
 3380SOL     OW10504   3.171   4.580   5.588 -0.1693 -0.2817 -0.2457
 3380SOL    HW110505   3.120   4.503   5.615 -0.2836  0.4889  1.9740
 3380SOL    HW210506   3.113   4.654   5.604  0.7794  0.4345 -0.0449
 3381SOL     OW10507   3.725   3.538   5.909 -0.7806  0.6838  0.2328
 3381SOL    HW110508   3.728   3.566   6.000 -0.1112 -2.7659  1.4176
 3381SOL    HW210509   3.639   3.497   5.899 -0.4872  0.1986 -0.3797
 3382SOL     OW10510   1.456   1.535   6.207 -0.2793  0.4911  0.1272
 3382SOL    HW110511   1.404   1.522   6.127  0.4068  0.4537 -0.3187
 3382SOL    HW210512   1.522   1.599   6.183 -1.8801  2.8090  1.5255
 3383SOL     OW10513   6.227   3.916   5.952 -0.2733 -0.1034 -0.1325
 3383SOL    HW110514   6.263   3.829   5.933 -1.1895 -0.8205  1.1686
 3383SOL    HW210515   6.153   3.925   5.891 -0.0337 -0.1403 -0.4274
 3384SOL     OW10516   6.447   5.378   0.122 -0.0694 -0.7408 -0.6832
 3384SOL    HW110517   6.436   5.472   0.132 -0.4000 -0.7546 -0.8929
 3384SOL    HW210518   6.529   5.358   0.168  0.2449 -0.2863 -1.0465
 3385SOL     OW10519   5.886   3.769   3.033  0.4511 -0.2583 -0.1871
 3385SOL    HW110520   5.961   3.791   2.978  0.5517  1.3924  0.5356
 3385SOL    HW210521   5.809   3.786   2.978  0.5909 -1.0319 -0.6205
 3386SOL     OW10522   6.379   1.162   3.398  0.6750 -0.3575 -0.3120
 3386SOL    HW110523   6.440   1.235   3.383  0.1898  0.1180  0.0322
 3386SOL    HW210524   6.397   1.134   3.487  0.9686 -0.7656 -0.4966
 3387SOL     OW10525   1.757   2.872   2.059  0.3012 -0.1235  0.1744
 3387SOL    HW110526   1.753   2.863   2.155  3.8425 -1.4896  0.3540
 3387SOL    HW210527   1.819   2.944   2.045  0.6597 -0.6464 -1.0472
 3388SOL     OW10528   3.794   6.568   5.144  0.0942  0.1909 -0.3916
 3388SOL    HW110529   3.844   6.490   5.120 -0.5770 -0.2816 -0.2836
 3388SOL    HW210530   3.757   6.599   5.062 -3.1027 -2.0506  0.0208
 3389SOL     OW10531   0.880   3.823   6.485  0.3463  0.0941 -0.1128
 3389SOL    HW110532   0.830   3.796   6.408  1.0423  0.1179 -0.5786
 3389SOL    HW210533   0.837   3.904   6.514  0.4492  0.4202 -0.8418
 3390SOL     OW10534   4.004   6.759   2.904 -0.3084 -0.0253  0.1874
 3390SOL    HW110535   4.034   6.847   2.882 -0.6142 -0.5416 -2.7654
 3390SOL    HW210536   3.983   6.719   2.819  1.5205 -3.5652  1.2003
 3391SOL     OW10537   5.952   3.019   1.869  0.0855  0.3823  0.0616
 3391SOL    HW110538   6.022   2.974   1.917 -0.3987  1.3862  1.7853
 3391SOL    HW210539   5.886   2.951   1.855  0.1748  0.1004  0.9493
 3392SOL     OW10540   0.994   4.979   5.297  0.4280  0.7228 -0.3350
 3392SOL    HW110541   1.018   4.934   5.378 -0.0880 -0.3015 -0.7310
 3392SOL    HW210542   1.072   5.029   5.273  1.7227 -1.4297 -0.8628
 3393SOL     OW10543   1.995   0.077   5.532 -0.1927  0.1535  0.5875
 3393SOL    HW110544   2.005  -0.018   5.533 -1.9579 -0.0608  0.9507
 3393SOL    HW210545   1.902   0.092   5.551 -0.5904  1.8626 -2.1516
 3394SOL     OW10546   5.804   6.132   0.729  0.4527 -0.2742  0.2971
 3394SOL    HW110547   5.709   6.146   0.735  0.0664 -2.9325  1.9820
 3394SOL    HW210548   5.816   6.085   0.647  0.4420  0.7826 -0.3212
 3395SOL     OW10549   4.369   1.596   4.251 -0.1197 -0.4560  0.0715
 3395SOL    HW110550   4.432   1.668   4.242  1.0941 -1.6576 -1.8212
 3395SOL    HW210551   4.284   1.639   4.259  0.6822  1.1930  0.0885
 3396SOL     OW10552   6.172   3.338   3.346 -0.1965 -0.3714  0.3579
 3396SOL    HW110553   6.123   3.324   3.428 -1.7970 -2.6421 -0.8543
 3396SOL    HW210554   6.104   3.356   3.281  0.9949  0.7275 -0.6232
 3397SOL     OW10555   4.736   0.354   2.517 -1.0418 -0.0223 -0.4717
 3397SOL    HW110556   4.643   0.376   2.522 -1.2312 -0.9679  0.5740
 3397SOL    HW210557   4.770   0.375   2.604  0.0451  1.5569 -1.2174
 3398SOL     OW10558   2.727   0.580   5.803 -0.1100 -0.1403  0.0059
 3398SOL    HW110559   2.800   0.602   5.745  1.1509  2.4619  2.3086
 3398SOL    HW210560   2.751   0.496   5.842  1.1511  0.1640 -0.0690
 3399SOL     OW10561   4.010   6.701   4.535  0.3426 -0.4975 -0.9485
 3399SOL    HW110562   4.046   6.723   4.621  0.6488 -1.4206 -0.8282
 3399SOL    HW210563   4.042   6.612   4.518 -0.7015 -0.7827 -1.4787
 3400SOL     OW10564   5.662   1.094   4.662 -0.2518  0.0809 -0.0278
 3400SOL    HW110565   5.707   1.116   4.744  0.7918 -0.4439 -0.4395
 3400SOL    HW210566   5.668   0.999   4.656 -2.2668 -0.1168  0.3540
 3401SOL     OW10567   1.561   5.757   3.941 -0.0477 -0.2286 -0.0005
 3401SOL    HW110568   1.617   5.685   3.971  0.7516  0.3843  0.0173
 3401SOL    HW210569   1.558   5.746   3.846 -0.4973 -0.6845  0.0615
 3402SOL     OW10570   3.550   4.696   4.511 -0.0251  0.2936  0.0148
 3402SOL    HW110571   3.595   4.704   4.426 -0.3764  0.9583 -0.1132
 3402SOL    HW210572   3.508   4.781   4.524 -1.2141 -0.3022  0.1495
 3403SOL     OW10573   1.074   5.372   6.522 -0.6187  0.3629 -0.5476
 3403SOL    HW110574   1.017   5.439   6.562 -0.2789 -0.0188  0.6130
 3403SOL    HW210575   1.021   5.293   6.521 -0.3858  0.2031 -0.2208
 3404SOL     OW10576   1.652   3.451   5.477 -0.5551 -0.8520 -0.2903
 3404SOL    HW110577   1.676   3.379   5.536  0.9940 -0.1816 -0.0563
 3404SOL    HW210578   1.732   3.471   5.429 -1.5711 -0.8304 -2.0728
 3405SOL     OW10579   0.298   4.307   4.134 -0.5527  0.1949 -0.1957
 3405SOL    HW110580   0.234   4.247   4.172 -0.8224  1.3978  1.3552
 3405SOL    HW210581   0.361   4.250   4.090 -1.4122 -1.1436  0.2442
 3406SOL     OW10582   0.663   5.066   1.803 -0.7125 -0.0466  0.4340
 3406SOL    HW110583   0.699   5.088   1.889  1.1609 -1.0108 -0.0597
 3406SOL    HW210584   0.656   4.971   1.803 -0.7428 -0.0494 -0.4809
 3407SOL     OW10585   5.945   6.657   6.783  0.3446  0.5145 -0.1675
 3407SOL    HW110586   6.012   6.629   6.722  0.1117  1.0816 -0.6952
 3407SOL    HW210587   5.988   6.654   6.869  0.9085  0.4623 -0.4479
 3408SOL     OW10588   3.263   4.340   1.038 -0.1951 -0.3053  0.6482
 3408SOL    HW110589   3.266   4.294   1.121 -0.8721 -1.5174  0.0288
 3408SOL    HW210590   3.171   4.358   1.022 -0.0701 -0.0304  0.1818
 3409SOL     OW10591   1.109   1.638   1.040  0.2144 -0.0794 -0.2118
 3409SOL    HW110592   1.109   1.723   0.996 -0.1541 -1.2826 -2.7211
 3409SOL    HW210593   1.021   1.630   1.077 -0.2732  0.0233 -1.3051
 3410SOL     OW10594   6.439   5.655   3.387 -0.6006  0.0991  0.6226
 3410SOL    HW110595   6.517   5.622   3.343 -2.0711 -2.2395 -0.4252
 3410SOL    HW210596   6.464   5.663   3.479  0.8222 -0.8161  0.3428
 3411SOL     OW10597   3.882   4.404   0.030  0.7692  1.1483 -0.2713
 3411SOL    HW110598   3.955   4.463   0.012  0.1231  1.5726 -1.6721
 3411SOL    HW210599   3.864   4.362  -0.054  0.4141 -0.1512  0.4197
 3412SOL     OW10600   0.699   5.265   4.504  0.2787  0.0489 -0.5066
 3412SOL    HW110601   0.790   5.257   4.531 -0.2788 -0.1517  1.4870
 3412SOL    HW210602   0.689   5.201   4.433  1.0308 -2.0683  1.1703
 3413SOL     OW10603   5.856   0.772   0.355  0.4760 -0.4061  0.5724
 3413SOL    HW110604   5.880   0.680   0.368 -1.2806 -1.1962 -1.2033
 3413SOL    HW210605   5.761   0.772   0.353  0.4522  1.3542 -0.2001
 3414SOL     OW10606   3.341   5.368   5.891 -0.1709 -0.8217  0.0541
 3414SOL    HW110607   3.272   5.339   5.951 -0.2338 -0.5751  0.0993
 3414SOL    HW210608   3.294   5.412   5.820  0.0614  1.8776  1.4366
 3415SOL     OW10609   1.961   1.467   2.612  0.0085 -0.9223 -1.1258
 3415SOL    HW110610   1.962   1.388   2.557 -0.7327 -1.3079 -0.6088
 3415SOL    HW210611   1.875   1.465   2.654  0.6314 -0.7613  0.2109
 3416SOL     OW10612   2.582   5.358   5.021  0.1134  0.3803  0.6207
 3416SOL    HW110613   2.645   5.303   5.067  0.4069 -0.1386 -0.3672
 3416SOL    HW210614   2.619   5.446   5.027 -0.8208  0.6828  3.0043
 3417SOL     OW10615   4.580   2.652   0.002  0.0089 -0.2290  0.4437
 3417SOL    HW110616   4.565   2.621  -0.088  0.1902  0.5571  0.1399
 3417SOL    HW210617   4.662   2.610   0.028  0.5852  0.4830 -0.1954
 3418SOL     OW10618   5.912   1.368   0.991  0.1915 -0.2017  0.2068
 3418SOL    HW110619   5.974   1.307   1.031  0.6594 -0.1082 -0.3691
 3418SOL    HW210620   5.915   1.348   0.897  0.6802  0.9975 -0.0449
 3419SOL     OW10621   2.997   6.546   0.631  0.0051  0.2795 -0.5428
 3419SOL    HW110622   3.040   6.494   0.698 -0.9085  0.5578  0.2830
 3419SOL    HW210623   3.056   6.542   0.556  0.3305 -1.2842 -0.2417
 3420SOL     OW10624   4.066   4.567   6.731  0.5044 -0.8988  0.4286
 3420SOL    HW110625   4.030   4.591   6.646  0.9218 -1.1560  0.1813
 3420SOL    HW210626   4.131   4.635   6.751  0.7990 -1.1416  0.2932
 3421SOL     OW10627   6.677   1.267   4.928  0.4923 -0.2895 -0.2196
 3421SOL    HW110628   6.647   1.291   5.016 -0.2581  1.6280 -0.9570
 3421SOL    HW210629   6.617   1.198   4.900 -0.4131  0.3588  0.0854
 3422SOL     OW10630   2.951   0.952   0.024  0.4676 -0.1888  0.0826
 3422SOL    HW110631   2.930   1.034  -0.021 -0.6892 -1.3062 -1.5154
 3422SOL    HW210632   3.046   0.944   0.017  0.3400 -0.3262 -2.2829
 3423SOL     OW10633   3.993   5.197   6.101  0.9168  0.2700  0.3430
 3423SOL    HW110634   3.942   5.221   6.178 -1.0889  0.0690 -0.8459
 3423SOL    HW210635   3.994   5.276   6.047 -0.5796 -0.4961 -0.8830
 3424SOL     OW10636   2.746   2.216   5.930 -0.1686 -0.4941  0.3696
 3424SOL    HW110637   2.673   2.156   5.913  1.0037 -1.4117 -1.7231
 3424SOL    HW210638   2.766   2.204   6.023 -0.4989 -2.7671  0.2016
 3425SOL     OW10639   1.152   1.733   4.865 -0.2359  0.4002  0.1487
 3425SOL    HW110640   1.083   1.796   4.844  0.0172 -0.0004 -2.0871
 3425SOL    HW210641   1.130   1.655   4.814  1.6304  0.1065 -0.2758
 3426SOL     OW10642   2.577   1.224   1.461 -0.4036 -0.7678 -0.2468
 3426SOL    HW110643   2.567   1.178   1.378  0.1197 -2.1302  0.4188
 3426SOL    HW210644   2.560   1.316   1.440  1.6345 -0.7736 -2.2872
 3427SOL     OW10645   0.263   1.048   1.930  0.0669  0.0161  0.2237
 3427SOL    HW110646   0.169   1.049   1.912  0.1565 -2.2227 -0.7243
 3427SOL    HW210647   0.270   1.001   2.014  0.2134  2.8363  1.8996
 3428SOL     OW10648   1.324   5.128   5.611  0.0628 -0.7785  0.0825
 3428SOL    HW110649   1.278   5.131   5.527 -0.1484  0.6438  0.2271
 3428SOL    HW210650   1.417   5.119   5.588 -0.0345 -0.8638 -0.2759
 3429SOL     OW10651   4.759   0.383   5.063 -0.7187 -0.5970 -0.0377
 3429SOL    HW110652   4.737   0.300   5.105  3.7698 -2.0408 -0.0603
 3429SOL    HW210653   4.749   0.366   4.969 -0.0269 -1.0600 -0.0305
 3430SOL     OW10654   5.022   0.871   1.555  0.1835 -0.2096 -0.1048
 3430SOL    HW110655   4.986   0.813   1.623  0.8471 -0.4759  0.0282
 3430SOL    HW210656   4.948   0.888   1.497  0.2516 -2.3225 -0.9273
 3431SOL     OW10657   0.644   4.673   1.330  0.3627  0.3303  0.7046
 3431SOL    HW110658   0.680   4.707   1.412 -1.0954 -1.4443  2.1587
 3431SOL    HW210659   0.657   4.578   1.335 -1.5852 -0.0384 -0.1445
 3432SOL     OW10660   3.958   4.018   2.085 -0.0943  0.2665  0.5772
 3432SOL    HW110661   3.968   3.937   2.135 -0.1666  0.4393  0.8700
 3432SOL    HW210662   3.891   3.998   2.020 -2.2875  0.9541  2.4783
 3433SOL     OW10663   0.659   4.684   2.945 -0.5266 -0.2598 -0.3457
 3433SOL    HW110664   0.573   4.715   2.975 -1.0011 -1.2117 -0.6982
 3433SOL    HW210665   0.689   4.753   2.885  1.0686  2.4026  3.1620
 3434SOL     OW10666   3.065   4.708   4.045 -0.1515 -0.3828 -0.6462
 3434SOL    HW110667   2.973   4.729   4.033 -0.3838  0.4382  2.0114
 3434SOL    HW210668   3.069   4.661   4.128  1.6505 -1.9399 -1.5342
 3435SOL     OW10669   3.680   0.500   6.528 -0.1351 -0.2287  0.6161
 3435SOL    HW110670   3.640   0.585   6.509  0.9075  0.5839  1.8626
 3435SOL    HW210671   3.772   0.521   6.546  0.4376 -1.7965 -0.3228
 3436SOL     OW10672   5.156   1.780   4.899 -0.0406  0.0183  0.5228
 3436SOL    HW110673   5.251   1.772   4.906 -0.2239 -1.9920  1.6058
 3436SOL    HW210674   5.129   1.806   4.987 -0.6366 -1.7904  0.9091
 3437SOL     OW10675   1.376   6.587   4.348 -0.4547  0.3301  0.1237
 3437SOL    HW110676   1.395   6.503   4.388 -0.1874  0.8350  1.0924
 3437SOL    HW210677   1.461   6.623   4.324 -0.6681 -0.5805 -2.2837
 3438SOL     OW10678   3.545   4.435   5.020 -0.3609 -0.1155 -0.1295
 3438SOL    HW110679   3.551   4.435   4.924  0.7002  2.9641 -0.1703
 3438SOL    HW210680   3.608   4.368   5.048 -0.2498 -0.6431 -1.5518
 3439SOL     OW10681   1.796   0.895   0.154  0.1775  0.2659 -0.1923
 3439SOL    HW110682   1.734   0.895   0.081  1.5347 -2.1318 -1.4805
 3439SOL    HW210683   1.850   0.973   0.140 -1.3091  1.3470 -0.1138
 3440SOL     OW10684   4.177   1.963   1.470  0.2852 -0.0318 -0.5961
 3440SOL    HW110685   4.154   1.877   1.505  0.7958  0.1501  0.2307
 3440SOL    HW210686   4.250   1.946   1.411  0.5996 -0.1351 -0.1853
 3441SOL     OW10687   0.561   4.311   0.517 -0.5751  0.1350 -0.4512
 3441SOL    HW110688   0.630   4.343   0.575 -0.0161 -2.4480  0.4384
 3441SOL    HW210689   0.584   4.347   0.431 -0.4569  2.6217  0.5239
 3442SOL     OW10690   3.656   3.965   5.743  0.2413  0.5833  0.0714
 3442SOL    HW110691   3.740   3.950   5.786  2.1009  1.5762 -2.9053
 3442SOL    HW210692   3.648   3.893   5.680 -1.7892 -0.1581  1.0808
 3443SOL     OW10693   0.996   4.681   0.546 -0.0721 -0.3018 -0.5167
 3443SOL    HW110694   0.967   4.737   0.474 -1.4430  0.3391  0.4895
 3443SOL    HW210695   1.026   4.742   0.613 -0.4958 -0.7962  0.1401
 3444SOL     OW10696   6.434   4.831   5.926 -0.1484  0.1769 -0.0951
 3444SOL    HW110697   6.493   4.756   5.930  0.7251  0.7904 -1.0127
 3444SOL    HW210698   6.484   4.904   5.961 -0.7824  0.4611  0.2416
 3445SOL     OW10699   4.042   4.864   5.097  0.2984  0.0420  0.2564
 3445SOL    HW110700   3.978   4.849   5.167 -0.6866  1.1816 -0.3558
 3445SOL    HW210701   4.085   4.780   5.086 -0.8093 -0.6536  0.9873
 3446SOL     OW10702   0.193   4.462   1.495  0.3406 -0.2133 -0.0124
 3446SOL    HW110703   0.266   4.402   1.499  0.4684 -0.0100  1.2869
 3446SOL    HW210704   0.162   4.458   1.405  0.6086 -1.8903 -0.0532
 3447SOL     OW10705   4.991   2.902   4.573 -0.5678  0.1309  0.0094
 3447SOL    HW110706   4.974   2.991   4.545 -1.6521 -0.2373 -0.5566
 3447SOL    HW210707   5.078   2.905   4.613 -0.0739  1.1930 -1.0950
 3448SOL     OW10708   5.445   1.462   3.467  0.4954 -0.8422  0.0009
 3448SOL    HW110709   5.507   1.534   3.457 -1.0576  0.3998 -1.1206
 3448SOL    HW210710   5.398   1.483   3.548  0.7429 -1.1822  0.2384
 3449SOL     OW10711   2.231   1.136   1.376  0.0412  0.4960 -0.2001
 3449SOL    HW110712   2.246   1.227   1.402  1.0717 -0.2317  2.0001
 3449SOL    HW210713   2.159   1.106   1.431  1.2465 -0.6470  0.8314
 3450SOL     OW10714   3.567   3.570   0.585 -0.0018  0.7277  0.3593
 3450SOL    HW110715   3.525   3.635   0.529 -3.9542 -2.3001 -0.6125
 3450SOL    HW210716   3.531   3.586   0.672 -1.2135 -0.2248  0.0603
 3451SOL     OW10717   1.363   1.610   3.327 -0.0077  0.1730 -0.4752
 3451SOL    HW110718   1.434   1.648   3.379  1.2843 -1.2890 -1.0835
 3451SOL    HW210719   1.293   1.593   3.390 -0.0758  2.1562  0.0447
 3452SOL     OW10720   3.516   1.486   2.659  0.2085 -0.8186 -0.0059
 3452SOL    HW110721   3.510   1.581   2.654  0.7608 -0.8139 -0.7192
 3452SOL    HW210722   3.426   1.455   2.648 -0.1476 -0.3496  1.3895
 3453SOL     OW10723   2.282   3.956   1.083 -0.1409 -0.1194 -0.2366
 3453SOL    HW110724   2.312   3.997   1.002  0.1570 -1.6220 -0.9311
 3453SOL    HW210725   2.316   3.867   1.079  0.3884 -0.0691  1.8485
 3454SOL     OW10726   2.728   6.123   6.690  0.3245 -0.6235  0.1787
 3454SOL    HW110727   2.667   6.188   6.657  0.0511 -1.4291 -0.9442
 3454SOL    HW210728   2.723   6.132   6.785 -0.1777  0.5456  0.0596
 3455SOL     OW10729   4.500   6.440   1.301  0.3716 -0.3352  0.1588
 3455SOL    HW110730   4.447   6.388   1.242  1.9298  0.2024 -1.8158
 3455SOL    HW210731   4.460   6.427   1.387 -2.9262  0.0788 -1.1800
 3456SOL     OW10732   6.069   6.388   0.086 -0.1376 -0.5666 -0.4485
 3456SOL    HW110733   6.154   6.357   0.119  0.6148  0.0640 -1.7209
 3456SOL    HW210734   6.011   6.382   0.162  0.6576 -2.4270  0.0670
 3457SOL     OW10735   4.124   2.129   6.474 -0.3523 -0.1579  0.7465
 3457SOL    HW110736   4.079   2.046   6.458 -0.9289  0.3357 -0.2956
 3457SOL    HW210737   4.196   2.106   6.533  0.0885 -1.5816 -0.2659
 3458SOL     OW10738   4.419   2.881   3.904  0.0972  0.7742 -0.5617
 3458SOL    HW110739   4.457   2.899   3.990  0.6576  0.4008 -0.7287
 3458SOL    HW210740   4.435   2.961   3.854 -0.5384  1.1228 -0.2138
 3459SOL     OW10741   6.282   1.727   2.777  0.0298 -0.0135 -0.4952
 3459SOL    HW110742   6.249   1.701   2.691 -2.6444  1.0194  0.1186
 3459SOL    HW210743   6.213   1.700   2.838  1.5167 -0.0320  1.2559
 3460SOL     OW10744   0.811   2.215   2.491  0.3000 -0.2762  0.0301
 3460SOL    HW110745   0.847   2.216   2.403  0.5680 -1.1382  0.1283
 3460SOL    HW210746   0.887   2.205   2.548  0.0140 -0.9502  0.2973
 3461SOL     OW10747   6.022   4.942   6.685  0.2004 -0.3417  0.8547
 3461SOL    HW110748   5.966   4.871   6.654 -2.3635  2.5953 -2.0332
 3461SOL    HW210749   5.976   4.978   6.761  0.3986 -0.4654  1.0358
 3462SOL     OW10750   5.313   0.795   1.780 -1.0577  0.1479 -0.3338
 3462SOL    HW110751   5.395   0.752   1.757 -1.2436 -0.5949  0.3527
 3462SOL    HW210752   5.245   0.731   1.758 -1.6130  1.3154 -2.3705
 3463SOL     OW10753   4.688   5.823   5.266 -0.0728 -0.8269  0.5492
 3463SOL    HW110754   4.594   5.805   5.262 -0.0140 -0.9860 -1.0243
 3463SOL    HW210755   4.694   5.917   5.281 -0.5640 -0.3284 -1.9339
 3464SOL     OW10756   1.703   0.295   0.038  0.3677  0.1514  0.2586
 3464SOL    HW110757   1.657   0.362   0.089 -2.4361 -1.2707 -0.1806
 3464SOL    HW210758   1.710   0.220   0.097  1.5304  0.0876  0.0625
 3465SOL     OW10759   4.236   0.941   3.261  0.7210 -0.1644  0.3460
 3465SOL    HW110760   4.242   0.921   3.354  0.2416  0.3329  0.4857
 3465SOL    HW210761   4.288   0.872   3.219  0.5878 -0.6431  0.9444
 3466SOL     OW10762   2.817   5.327   2.085  0.2934 -0.2198  0.2783
 3466SOL    HW110763   2.767   5.409   2.090 -1.1108 -1.0094 -0.0794
 3466SOL    HW210764   2.899   5.352   2.042  1.4035  1.6093  3.1490
 3467SOL     OW10765   5.547   4.549   4.074 -0.1733 -0.2576  0.4876
 3467SOL    HW110766   5.495   4.474   4.044 -1.3968  1.1745 -1.1584
 3467SOL    HW210767   5.489   4.598   4.131 -0.0527  0.4375  0.0253
 3468SOL     OW10768   1.041   3.865   1.903  0.3165 -0.4511  0.0967
 3468SOL    HW110769   1.105   3.898   1.966  1.1112  1.2635 -1.5146
 3468SOL    HW210770   1.056   3.917   1.824 -2.3192 -0.7938 -0.7159
 3469SOL     OW10771   0.479   4.615   1.868 -0.0226 -0.0339  0.1219
 3469SOL    HW110772   0.409   4.591   1.929 -2.0721  1.3289 -1.5491
 3469SOL    HW210773   0.509   4.532   1.832 -0.4466 -0.6827  1.2330
 3470SOL     OW10774   0.297   5.812   3.728  0.3802 -0.0636 -0.6764
 3470SOL    HW110775   0.240   5.855   3.793 -0.1752 -1.2264 -0.3743
 3470SOL    HW210776   0.383   5.852   3.742  0.2960 -0.3514  0.8432
 3471SOL     OW10777   0.068   1.922   1.739 -0.1551  0.0137  0.5462
 3471SOL    HW110778   0.019   1.913   1.657 -0.5000 -2.5165  0.9591
 3471SOL    HW210779   0.002   1.949   1.803  0.0008  1.3881  0.1769
 3472SOL     OW10780   6.578   1.662   5.523 -0.1347 -0.1411  0.4150
 3472SOL    HW110781   6.623   1.746   5.517  0.7375 -0.6629 -1.0127
 3472SOL    HW210782   6.516   1.672   5.594  0.6351  1.3885  0.9009
 3473SOL     OW10783   5.971   5.284   1.133  0.2816  0.4619 -0.2149
 3473SOL    HW110784   5.961   5.289   1.038  1.6780 -1.6493 -0.5580
 3473SOL    HW210785   5.913   5.351   1.168  0.0681  1.5796 -2.5737
 3474SOL     OW10786   1.747   4.537   5.343  0.3195 -0.0370 -0.7312
 3474SOL    HW110787   1.782   4.536   5.432 -1.9898  1.2899  0.3119
 3474SOL    HW210788   1.768   4.451   5.307  1.7420 -0.4262  0.9084
 3475SOL     OW10789   6.714   6.723   3.973 -0.0861  0.0495  0.2011
 3475SOL    HW110790   6.707   6.805   4.022  0.2085 -0.0604  0.4347
 3475SOL    HW210791   6.666   6.659   4.026  2.7294 -0.7840  1.9917
 3476SOL     OW10792   6.277   4.755   0.732  0.4528  0.3474  0.4957
 3476SOL    HW110793   6.264   4.661   0.743  0.7603  0.2579  0.1392
 3476SOL    HW210794   6.282   4.790   0.821 -0.1095  0.0923  0.6280
 3477SOL     OW10795   4.151   2.142   6.192 -0.1112 -0.6555  0.1036
 3477SOL    HW110796   4.129   2.144   6.285 -0.0523 -0.4079  0.1127
 3477SOL    HW210797   4.130   2.052   6.165  0.1793 -0.8263  0.4290
 3478SOL     OW10798   2.142   5.467   0.562  0.0213 -0.2200  0.1673
 3478SOL    HW110799   2.047   5.459   0.572 -0.0581 -0.7349 -0.8640
 3478SOL    HW210800   2.164   5.551   0.602 -1.3464  1.5750 -2.5702
 3479SOL     OW10801   4.230   0.825   6.142  0.1875 -0.2438  0.0475
 3479SOL    HW110802   4.319   0.838   6.110 -0.4062  0.2191 -1.4971
 3479SOL    HW210803   4.200   0.745   6.099 -0.5364  0.2368 -0.3663
 3480SOL     OW10804   5.428   2.617   0.797 -0.1087  0.0285 -0.2060
 3480SOL    HW110805   5.418   2.659   0.882  0.3789 -3.3020  1.6433
 3480SOL    HW210806   5.523   2.618   0.780 -0.0931 -0.3293 -0.1458
 3481SOL     OW10807   3.635   6.299   6.739 -0.6517  0.0204 -0.1941
 3481SOL    HW110808   3.556   6.308   6.687 -1.7224  0.0960  1.3884
 3481SOL    HW210809   3.681   6.382   6.730 -0.5558 -0.1505 -1.3927
 3482SOL     OW10810   6.351   2.368   5.687  0.3690  0.0906 -0.3233
 3482SOL    HW110811   6.310   2.287   5.658  1.4981 -0.6987  0.2181
 3482SOL    HW210812   6.278   2.424   5.714 -0.4657 -0.4699 -1.3493
 3483SOL     OW10813   6.602   0.481   4.990 -0.0133  0.4863 -0.0743
 3483SOL    HW110814   6.621   0.505   5.081 -1.0122 -0.4576  0.4070
 3483SOL    HW210815   6.687   0.487   4.946  0.4974  0.9335  0.9225
 3484SOL     OW10816   6.729   6.757   1.248 -0.4501  0.0021 -0.5349
 3484SOL    HW110817   6.697   6.745   1.337  1.2115  0.5000  0.1773
 3484SOL    HW210818   6.720   6.671   1.207 -0.1243 -0.5527  0.5168
 3485SOL     OW10819   0.663   4.169   0.240 -0.0898  0.0751 -0.6354
 3485SOL    HW110820   0.604   4.184   0.166  0.6056 -0.1624 -1.2529
 3485SOL    HW210821   0.652   4.076   0.261  0.9456 -0.2831 -1.5591
 3486SOL     OW10822   4.982   0.230   4.393 -0.3505 -0.1096  0.0470
 3486SOL    HW110823   4.942   0.286   4.326  0.1172  1.0181  0.6833
 3486SOL    HW210824   4.912   0.218   4.458 -0.1137  0.7090  0.4720
 3487SOL     OW10825   4.521   6.148   2.551 -0.1167 -0.3572  0.3815
 3487SOL    HW110826   4.427   6.162   2.538 -0.2203 -1.1851  0.2328
 3487SOL    HW210827   4.537   6.176   2.641  0.2391  3.5279 -0.6774
 3488SOL     OW10828   5.852   5.063   6.460 -0.7955 -0.2231 -0.3612
 3488SOL    HW110829   5.906   5.140   6.479  0.9937 -1.8308  1.6495
 3488SOL    HW210830   5.872   5.041   6.369 -1.2171  1.5063 -0.9231
 3489SOL     OW10831   0.536   3.501   1.624 -0.4078 -0.0150 -0.2785
 3489SOL    HW110832   0.543   3.583   1.672 -1.3061  1.2572 -2.1875
 3489SOL    HW210833   0.623   3.461   1.631 -0.0373  0.9492  0.9002
 3490SOL     OW10834   0.407   1.123   5.127  0.0641  0.5877 -0.1965
 3490SOL    HW110835   0.377   1.045   5.081 -1.2109  0.5055  0.7115
 3490SOL    HW210836   0.435   1.092   5.212  1.4433  0.8775 -0.5183
 3491SOL     OW10837   4.507   5.706   3.890  0.6077 -0.4457  0.3448
 3491SOL    HW110838   4.428   5.659   3.915 -0.7680  0.7717 -1.4511
 3491SOL    HW210839   4.564   5.639   3.852 -1.3980 -0.7716 -2.3730
 3492SOL     OW10840   2.356   1.249   6.365 -0.3512 -0.0275 -0.2176
 3492SOL    HW110841   2.435   1.226   6.315 -0.1233 -3.4825  1.3992
 3492SOL    HW210842   2.390   1.293   6.443  0.3109 -2.8176  1.2106
 3493SOL     OW10843   4.299   0.624   2.368 -0.5136  0.0844  0.3126
 3493SOL    HW110844   4.315   0.530   2.367  0.4451  0.2399 -0.2399
 3493SOL    HW210845   4.204   0.632   2.362 -0.7217 -0.8559  1.9341
 3494SOL     OW10846   5.774   0.294   5.598  0.1621 -0.0251 -0.4232
 3494SOL    HW110847   5.797   0.379   5.562  1.0358 -0.2292 -0.3693
 3494SOL    HW210848   5.853   0.241   5.586  0.2787 -0.2686  1.2631
 3495SOL     OW10849   4.616   0.756   0.863  0.8132 -0.1543 -0.2800
 3495SOL    HW110850   4.622   0.707   0.781 -0.9312  1.1167 -1.2384
 3495SOL    HW210851   4.543   0.817   0.849  1.0660  0.7304  1.8929
 3496SOL     OW10852   6.293   1.415   3.542 -0.1396  0.5224 -0.2686
 3496SOL    HW110853   6.259   1.402   3.454 -1.8223  0.9521  0.2768
 3496SOL    HW210854   6.389   1.416   3.532 -0.2948 -0.1130 -1.9663
 3497SOL     OW10855   0.278   3.763   0.682 -0.4785 -0.0632  0.3361
 3497SOL    HW110856   0.364   3.750   0.644 -0.1892  2.1766  0.1125
 3497SOL    HW210857   0.217   3.734   0.614  0.0624 -0.5943  0.0635
 3498SOL     OW10858   0.204   0.938   1.596  0.5913 -0.2051  0.1543
 3498SOL    HW110859   0.279   0.919   1.540 -0.1844  1.1727 -1.4548
 3498SOL    HW210860   0.225   1.021   1.638  1.0463 -1.0917  1.7830
 3499SOL     OW10861   2.762   4.959   5.142 -0.3224  0.4954  0.0007
 3499SOL    HW110862   2.789   5.029   5.083 -1.1051  0.3495 -0.5491
 3499SOL    HW210863   2.834   4.896   5.140 -0.6957  0.0740 -1.4923
 3500SOL     OW10864   3.582   2.888   3.635  0.7357  0.6367 -0.4429
 3500SOL    HW110865   3.630   2.969   3.649  1.6955  0.0197 -0.0110
 3500SOL    HW210866   3.539   2.870   3.718  1.4078  0.1586 -0.1875
 3501SOL     OW10867   1.962   5.762   2.513  0.7562 -0.0572  0.1192
 3501SOL    HW110868   2.040   5.746   2.566 -0.6094 -1.5678  1.8187
 3501SOL    HW210869   1.936   5.852   2.536 -0.7919 -1.2026  3.6380
 3502SOL     OW10870   3.335   0.899   4.249  0.1431  0.3898 -0.4978
 3502SOL    HW110871   3.293   0.851   4.178  1.6274 -0.1142 -1.0727
 3502SOL    HW210872   3.272   0.896   4.321 -1.4025  0.9282 -1.7812
 3503SOL     OW10873   5.237   2.994   4.672  0.0285 -0.0266 -1.1834
 3503SOL    HW110874   5.327   2.987   4.640  0.9991  0.4819  1.1610
 3503SOL    HW210875   5.224   3.087   4.688 -0.2560 -0.2571  0.0884
 3504SOL     OW10876   3.827   3.903   3.573  0.1548  0.3974  0.3648
 3504SOL    HW110877   3.745   3.877   3.530  1.0945 -0.4640 -0.9591
 3504SOL    HW210878   3.833   3.998   3.559 -2.5187  1.3188  3.8751
 3505SOL     OW10879   2.681   1.882   1.652 -0.0945  0.2615 -0.6320
 3505SOL    HW110880   2.611   1.925   1.604  0.5067  0.3622 -1.4504
 3505SOL    HW210881   2.661   1.899   1.745 -0.7409  0.9168 -0.8798
 3506SOL     OW10882   1.833   1.290   2.171  0.6738  0.0947  0.0690
 3506SOL    HW110883   1.902   1.232   2.204  0.9309 -0.2621 -1.0795
 3506SOL    HW210884   1.755   1.266   2.221  1.4004  0.6226  1.5218
 3507SOL     OW10885   6.691   4.224   0.089 -0.1423  0.0967  0.1317
 3507SOL    HW110886   6.717   4.146   0.139 -0.0786  0.6135  0.9337
 3507SOL    HW210887   6.598   4.211   0.071  0.0126 -0.4494 -0.2752
 3508SOL     OW10888   3.154   0.400   1.549 -0.0248 -0.6691 -0.5789
 3508SOL    HW110889   3.147   0.457   1.473  0.1364 -0.2030 -0.2511
 3508SOL    HW210890   3.225   0.340   1.528  0.4586 -0.1240 -0.5393
 3509SOL     OW10891   1.126   4.091   6.274 -0.7407  0.6079 -0.3365
 3509SOL    HW110892   1.095   4.101   6.364  2.4119 -0.6073  1.0356
 3509SOL    HW210893   1.206   4.040   6.282 -2.1297 -2.7395 -4.1735
 3510SOL     OW10894   1.304   1.729   2.539  0.0367  0.3516 -0.0540
 3510SOL    HW110895   1.247   1.805   2.532  1.0119  1.0096 -1.4444
 3510SOL    HW210896   1.245   1.654   2.543 -0.9295  1.0193 -1.2800
 3511SOL     OW10897   6.626   5.447   0.506  0.1010 -0.3632 -0.0872
 3511SOL    HW110898   6.653   5.535   0.481  2.0546 -0.7372  0.5701
 3511SOL    HW210899   6.663   5.433   0.593 -1.8809 -1.1267  0.7082
 3512SOL     OW10900   1.592   1.263   2.798  0.5796  0.0128 -0.1521
 3512SOL    HW110901   1.661   1.261   2.731  0.3861 -2.5354 -0.3636
 3512SOL    HW210902   1.510   1.268   2.749  0.5014 -0.3272 -0.0621
 3513SOL     OW10903   6.412   4.012   4.589  0.3904  0.0533  0.6203
 3513SOL    HW110904   6.411   3.916   4.585  0.2814  0.0117  1.4485
 3513SOL    HW210905   6.360   4.033   4.667  0.0676  0.8027  0.2159
 3514SOL     OW10906   1.770   2.849   5.158 -0.5087  0.4617  0.4530
 3514SOL    HW110907   1.695   2.864   5.100 -0.5347 -2.4335 -0.4194
 3514SOL    HW210908   1.843   2.831   5.099  0.4881  1.4843  1.3281
 3515SOL     OW10909   1.930   1.564   2.268 -0.3719  0.2131  0.0619
 3515SOL    HW110910   1.903   1.477   2.240 -0.9475  0.3504  0.1771
 3515SOL    HW210911   1.904   1.621   2.196  0.8460  0.1773 -0.4312
 3516SOL     OW10912   5.210   2.048   3.285 -0.5025  0.2681  0.2665
 3516SOL    HW110913   5.141   2.114   3.290 -1.3104 -0.5274 -0.1763
 3516SOL    HW210914   5.213   2.010   3.373 -0.0317  0.8875  0.5236
 3517SOL     OW10915   0.337   4.604   0.248 -0.3369 -0.6089  0.5694
 3517SOL    HW110916   0.267   4.538   0.253  0.1671 -1.0893  1.4979
 3517SOL    HW210917   0.342   4.625   0.155 -1.9293 -0.3156  0.5101
 3518SOL     OW10918   1.363   4.631   0.645 -0.9934 -0.5510 -0.3124
 3518SOL    HW110919   1.311   4.682   0.583 -1.1720  0.0730  0.3357
 3518SOL    HW210920   1.417   4.574   0.590 -1.6423 -0.5029 -1.0207
 3519SOL     OW10921   0.043   0.510   0.104 -0.3682 -0.2218  0.2888
 3519SOL    HW110922  -0.043   0.525   0.065 -1.0357 -0.2617  1.7180
 3519SOL    HW210923   0.096   0.584   0.073 -1.1238  0.2163  0.0042
 3520SOL     OW10924   1.354   1.807   1.518  0.0594  0.2607  0.4299
 3520SOL    HW110925   1.360   1.849   1.604  1.0868  0.6891  0.1636
 3520SOL    HW210926   1.265   1.826   1.489 -0.1846  0.4099  1.2521
 3521SOL     OW10927   5.548   5.315   6.160  0.0998  0.2527 -0.4951
 3521SOL    HW110928   5.595   5.360   6.230 -0.6461 -0.0328  0.2106
 3521SOL    HW210929   5.596   5.234   6.147  0.3424  0.3869 -0.4419
 3522SOL     OW10930   3.804   2.579   4.517  0.1054 -0.4185 -0.1985
 3522SOL    HW110931   3.897   2.599   4.527 -0.1766  0.7983  0.1672
 3522SOL    HW210932   3.762   2.665   4.506 -1.1135 -0.8438  0.9024
 3523SOL     OW10933   1.224   3.931   2.898  0.4448  0.4159 -0.5684
 3523SOL    HW110934   1.174   4.013   2.894  1.6200  1.1468 -1.0665
 3523SOL    HW210935   1.200   3.892   2.982  0.4143  1.6605  0.0318
 3524SOL     OW10936   3.332   1.060   4.688  0.4785  0.0690  0.5395
 3524SOL    HW110937   3.380   0.995   4.636  0.2726  0.9330 -0.7805
 3524SOL    HW210938   3.394   1.088   4.755  0.9258 -0.7020  0.4696
 3525SOL     OW10939   3.030   6.369   1.340 -0.5106  0.0897 -0.0551
 3525SOL    HW110940   3.088   6.350   1.414  1.2900 -0.5794 -1.5459
 3525SOL    HW210941   2.950   6.321   1.359 -0.6586  1.0799  2.1097
 3526SOL     OW10942   3.815   4.605   0.570  0.1575 -0.1149  0.6438
 3526SOL    HW110943   3.818   4.517   0.533  0.0761 -0.0599  0.5052
 3526SOL    HW210944   3.750   4.600   0.639 -2.0839  0.5641 -1.2905
 3527SOL     OW10945   2.623   2.935   6.034 -0.1716 -0.1997 -0.2717
 3527SOL    HW110946   2.528   2.935   6.043  0.0044 -0.9718  2.3202
 3527SOL    HW210947   2.654   2.875   6.101  2.2680  1.9310  0.7112
 3528SOL     OW10948   6.621   6.214   0.269 -0.3396 -0.3130 -0.1669
 3528SOL    HW110949   6.568   6.181   0.196  0.6973 -1.4841 -0.4318
 3528SOL    HW210950   6.693   6.260   0.226 -0.5206  0.2798  0.1628
 3529SOL     OW10951   3.657   0.709   2.544  0.4632  0.1968  0.6552
 3529SOL    HW110952   3.684   0.798   2.521  2.9155 -0.3458  1.1253
 3529SOL    HW210953   3.668   0.659   2.463  0.8106 -0.0039  0.8211
 3530SOL     OW10954   0.022   5.281   2.264 -0.2370  0.0455 -0.1366
 3530SOL    HW110955  -0.052   5.266   2.205 -1.7486  0.2066  1.5991
 3530SOL    HW210956  -0.007   5.246   2.348  1.3814  0.8004  0.7890
 3531SOL     OW10957   4.590   2.671   5.125  0.4466  0.3823  0.1094
 3531SOL    HW110958   4.657   2.738   5.140  1.8857 -1.1031  0.7169
 3531SOL    HW210959   4.565   2.643   5.213  0.5340 -0.4783 -0.1309
 3532SOL     OW10960   3.593   0.889   0.774 -0.0249 -0.1231 -0.3192
 3532SOL    HW110961   3.655   0.870   0.845 -0.7752  0.3626  0.4924
 3532SOL    HW210962   3.553   0.972   0.799 -0.7258 -0.2369 -1.0227
 3533SOL     OW10963   6.305   5.235   1.543 -0.1494 -0.0354  0.5506
 3533SOL    HW110964   6.319   5.224   1.449 -0.7624 -0.2914  0.4903
 3533SOL    HW210965   6.217   5.271   1.551 -1.2126 -2.5954  1.1509
 3534SOL     OW10966   5.879   5.671   1.235  0.3476  0.1345  0.0338
 3534SOL    HW110967   5.937   5.669   1.159  1.1297 -1.4604  0.6215
 3534SOL    HW210968   5.937   5.695   1.308  0.0148 -0.2837  0.4396
 3535SOL     OW10969   0.006   3.635   5.286  0.4736 -0.0239 -0.5033
 3535SOL    HW110970  -0.020   3.726   5.273 -3.8909 -0.8271  1.2361
 3535SOL    HW210971  -0.068   3.584   5.255  2.1173 -2.9938  0.0961
 3536SOL     OW10972   0.454   4.380   3.505 -0.0826 -0.0894  0.2354
 3536SOL    HW110973   0.488   4.347   3.422 -2.4374  0.4517 -1.0309
 3536SOL    HW210974   0.364   4.404   3.486 -0.5637  0.4922  2.8664
 3537SOL     OW10975   2.540   5.746   5.200 -0.4441 -0.3205 -0.0289
 3537SOL    HW110976   2.494   5.818   5.243  0.4869 -0.0586  0.5591
 3537SOL    HW210977   2.623   5.738   5.247  1.2336  0.8587 -2.5621
 3538SOL     OW10978   3.732   4.944   0.270 -0.0851  0.3827  0.9095
 3538SOL    HW110979   3.677   4.914   0.343 -0.4335  0.0776  0.5298
 3538SOL    HW210980   3.812   4.976   0.311 -0.8834  1.6470  1.5460
 3539SOL     OW10981   2.419   5.988   6.604 -0.4084  0.0425  0.2075
 3539SOL    HW110982   2.505   5.960   6.571 -1.1913 -0.7135 -1.2788
 3539SOL    HW210983   2.418   6.082   6.590  0.4423  0.1729  0.9048
 3540SOL     OW10984   4.269   6.267   5.440  0.5572  0.7803  0.2932
 3540SOL    HW110985   4.344   6.325   5.452  0.9963  0.2502  0.1632
 3540SOL    HW210986   4.228   6.297   5.359 -0.5880  2.3788  1.4106
 3541SOL     OW10987   2.555   2.528   4.372  0.2379 -0.4740  0.1373
 3541SOL    HW110988   2.531   2.484   4.454 -0.9311 -0.3150 -0.0968
 3541SOL    HW210989   2.633   2.578   4.393  0.7032 -1.4593  0.8106
 3542SOL     OW10990   1.162   6.488   1.229  0.0222 -0.1842 -0.8528
 3542SOL    HW110991   1.212   6.473   1.309 -2.9058  0.9967  1.3829
 3542SOL    HW210992   1.210   6.557   1.183  0.5174  0.8638  1.1459
 3543SOL     OW10993   3.106   6.290   5.873  0.1127  0.2239  0.1718
 3543SOL    HW110994   3.160   6.297   5.794  0.3084 -1.1979  0.1575
 3543SOL    HW210995   3.131   6.366   5.926  1.5655  0.0254 -0.1892
 3544SOL     OW10996   1.196   6.080   4.045  0.5120 -0.5791  0.1484
 3544SOL    HW110997   1.283   6.042   4.055  1.5853  1.3975 -1.1091
 3544SOL    HW210998   1.200   6.129   3.963 -1.5024  0.3075  0.5236
 3545SOL     OW10999   2.685   5.482   3.255  0.3394  0.5716  0.0546
 3545SOL    HW111000   2.608   5.514   3.302  1.3054  0.3366  1.8917
 3545SOL    HW211001   2.691   5.539   3.179 -1.0442  1.2744  0.4320
 3546SOL     OW11002   6.526   0.639   2.539  0.1861  0.2211 -0.5068
 3546SOL    HW111003   6.462   0.677   2.598  0.7871  1.2407 -0.4905
 3546SOL    HW211004   6.502   0.546   2.534 -1.8242  0.7213 -1.2149
 3547SOL     OW11005   1.002   6.635   2.754 -0.3004 -0.2698 -0.5479
 3547SOL    HW111006   1.082   6.687   2.746 -0.7897  0.4121 -1.1964
 3547SOL    HW211007   1.008   6.570   2.684  0.3743 -1.1980  0.3467
 3548SOL     OW11008   5.157   6.753   4.558  0.3866 -0.2960 -0.2733
 3548SOL    HW111009   5.220   6.819   4.529  0.7589 -1.4585 -2.2175
 3548SOL    HW211010   5.159   6.760   4.654  4.1239 -0.8470 -0.1467
 3549SOL     OW11011   6.522   0.770   3.536  0.6216 -0.3437  0.6256
 3549SOL    HW111012   6.490   0.709   3.469 -0.2026  0.4819  0.2530
 3549SOL    HW211013   6.583   0.827   3.490 -0.1832  0.4232  0.5052
 3550SOL     OW11014   3.541   1.201   3.601  0.0775  0.1636  0.2492
 3550SOL    HW111015   3.509   1.192   3.511  0.7519 -0.0639  0.0256
 3550SOL    HW211016   3.610   1.134   3.609  0.6706  0.8017  0.6331
 3551SOL     OW11017   0.575   4.862   0.588 -0.0852 -0.4972  0.0643
 3551SOL    HW111018   0.508   4.807   0.547  0.5987 -1.2422 -0.0738
 3551SOL    HW211019   0.543   4.952   0.577 -0.5978 -0.7861 -0.8323
 3552SOL     OW11020   3.380   3.471   6.003  0.3800  0.3505 -0.3462
 3552SOL    HW111021   3.367   3.463   6.098 -0.1031 -0.5734 -0.4709
 3552SOL    HW211022   3.380   3.380   5.972 -0.0326  0.6677 -1.3016
 3553SOL     OW11023   3.129   5.696   2.889 -0.1222  0.1462 -0.0010
 3553SOL    HW111024   3.159   5.659   2.806 -1.8699  1.6650 -1.3886
 3553SOL    HW211025   3.079   5.625   2.929 -0.0864 -0.2922 -0.6959
 3554SOL     OW11026   5.775   5.323   6.671 -0.2318 -0.0994 -0.4535
 3554SOL    HW111027   5.812   5.348   6.755  2.1596 -3.7327 -0.2245
 3554SOL    HW211028   5.827   5.371   6.606 -1.0760  1.5233  0.0140
 3555SOL     OW11029   1.297   4.742   5.228 -0.5849 -0.0285 -0.1464
 3555SOL    HW111030   1.348   4.819   5.255 -1.1937  0.0639  0.7809
 3555SOL    HW211031   1.273   4.699   5.310  0.0351 -1.4139 -0.6764
 3556SOL     OW11032   5.424   0.147   2.391  0.3560  0.9338 -0.3408
 3556SOL    HW111033   5.512   0.111   2.401 -0.0653  0.1166  0.6455
 3556SOL    HW211034   5.412   0.155   2.297  1.7073  1.6540 -0.4820
 3557SOL     OW11035   3.645   0.665   3.705 -0.0916 -0.2719 -0.0310
 3557SOL    HW111036   3.594   0.584   3.711 -3.2001  1.2793 -2.6045
 3557SOL    HW211037   3.588   0.732   3.742  1.5975  1.0803  0.2155
 3558SOL     OW11038   4.979   1.472   2.585 -0.2269 -0.0492  0.0216
 3558SOL    HW111039   5.035   1.426   2.522 -0.8296 -0.5957 -0.1227
 3558SOL    HW211040   5.015   1.561   2.588  1.6584 -0.7917  1.1438
 3559SOL     OW11041   2.657   4.408   2.715  0.4951  0.1801 -0.1261
 3559SOL    HW111042   2.687   4.443   2.631  0.2772  1.6801  0.4048
 3559SOL    HW211043   2.562   4.401   2.706  0.3552  1.3501  0.3514
 3560SOL     OW11044   0.681   2.048   2.228  0.1894 -0.7599 -0.2524
 3560SOL    HW111045   0.744   1.994   2.180 -1.2901 -0.5449 -2.5900
 3560SOL    HW211046   0.695   2.136   2.194 -1.6396 -0.7872 -1.1745
 3561SOL     OW11047   5.387   5.588   6.235  0.2957  0.4912  0.2940
 3561SOL    HW111048   5.417   5.586   6.144  1.0926  1.2437  0.5332
 3561SOL    HW211049   5.419   5.672   6.269 -0.7120  0.5957  1.0268
 3562SOL     OW11050   4.821   1.087   4.068  0.3097 -0.1183  0.3007
 3562SOL    HW111051   4.801   1.092   3.975 -1.2110 -0.9335  0.5494
 3562SOL    HW211052   4.843   1.177   4.093 -1.0859  0.4805 -0.4891
 3563SOL     OW11053   6.582   3.154   2.216 -0.3486 -0.1382  0.2458
 3563SOL    HW111054   6.505   3.211   2.208 -0.7867 -0.8622 -1.0705
 3563SOL    HW211055   6.633   3.173   2.137  1.1672  0.7732  1.3972
 3564SOL     OW11056   6.273   4.076   2.720  0.7576  0.3852 -0.2020
 3564SOL    HW111057   6.200   4.125   2.683  1.0254 -0.2424 -1.6331
 3564SOL    HW211058   6.345   4.139   2.724  0.4763  0.6919  0.1138
 3565SOL     OW11059   0.963   5.189   2.254 -0.2634  0.0012  0.2655
 3565SOL    HW111060   0.919   5.222   2.332 -0.8542  0.3430 -0.1976
 3565SOL    HW211061   1.040   5.245   2.243  1.2179 -1.5789  1.9740
 3566SOL     OW11062   4.828   6.368   2.793 -0.5632 -0.1825 -0.8753
 3566SOL    HW111063   4.777   6.312   2.851 -0.4039  0.9087  0.3718
 3566SOL    HW211064   4.873   6.307   2.735 -1.2240 -1.2886 -0.2676
 3567SOL     OW11065   1.794   3.199   1.572 -0.1021  0.0743  0.4574
 3567SOL    HW111066   1.733   3.126   1.574 -1.3597  1.0319 -0.7296
 3567SOL    HW211067   1.740   3.276   1.555  1.3907  1.0043 -0.3895
 3568SOL     OW11068   5.858   4.072   5.914 -0.5715  0.2077  0.0449
 3568SOL    HW111069   5.906   3.991   5.928  0.7713  1.0556  0.5393
 3568SOL    HW211070   5.876   4.096   5.824  2.4245  2.0168  1.0051
 3569SOL     OW11071   3.630   6.118   4.720  0.7396 -0.4115 -0.3253
 3569SOL    HW111072   3.686   6.174   4.667  0.5630  0.9435  0.8545
 3569SOL    HW211073   3.680   6.037   4.732  1.3954 -0.1576 -1.2902
 3570SOL     OW11074   5.747   5.011   0.713 -0.7983 -0.4647 -0.2936
 3570SOL    HW111075   5.727   5.084   0.772  0.6738  1.7526 -2.3678
 3570SOL    HW211076   5.783   4.943   0.771 -0.5613  1.1088  1.5175
 3571SOL     OW11077   5.767   1.193   4.413  0.1851  0.0455  0.0458
 3571SOL    HW111078   5.823   1.166   4.486 -1.6046 -0.3375  1.3340
 3571SOL    HW211079   5.690   1.231   4.454 -1.1404 -0.6984 -1.6360
 3572SOL     OW11080   1.884   0.345   1.504  0.0768  0.4521 -0.1396
 3572SOL    HW111081   1.804   0.395   1.518 -1.6544 -1.9169 -0.8975
 3572SOL    HW211082   1.898   0.348   1.409 -0.3706 -0.8613 -0.2726
 3573SOL     OW11083   1.513   2.299   0.799 -0.6712  0.2085 -0.1572
 3573SOL    HW111084   1.477   2.343   0.723 -1.6263 -0.1559  0.0740
 3573SOL    HW211085   1.597   2.343   0.815  0.2661 -0.6824 -2.2891
 3574SOL     OW11086   6.356   4.983   1.545 -0.4096 -0.1015  0.3705
 3574SOL    HW111087   6.334   5.076   1.546  1.8088  0.4757  1.3761
 3574SOL    HW211088   6.441   4.979   1.500 -0.6614 -1.7116 -0.0354
 3575SOL     OW11089   5.948   5.306   0.854  0.2930 -0.0120  0.0344
 3575SOL    HW111090   6.030   5.257   0.853  0.7491  0.7392 -0.4728
 3575SOL    HW211091   5.964   5.381   0.798 -0.2029  1.0171  1.2091
 3576SOL     OW11092   2.450   4.033   1.726  0.8080  0.4581  0.3667
 3576SOL    HW111093   2.461   4.128   1.730  1.5659  0.4180 -0.5859
 3576SOL    HW211094   2.469   4.010   1.636  1.7592 -0.7385  0.8487
 3577SOL     OW11095   0.152   6.739   2.541  0.0718 -0.0197  0.1980
 3577SOL    HW111096   0.090   6.770   2.475  0.3750 -0.5495 -0.3408
 3577SOL    HW211097   0.153   6.809   2.607 -0.0848  0.6145 -0.4538
 3578SOL     OW11098   1.507   4.003   5.605 -0.6838  0.2497  0.5742
 3578SOL    HW111099   1.488   3.993   5.512 -0.2598  0.5394  0.4569
 3578SOL    HW211100   1.421   4.020   5.645 -0.8366  0.3410  0.2105
 3579SOL     OW11101   3.272   3.327   2.383  1.0981  0.2608  0.3578
 3579SOL    HW111102   3.210   3.398   2.395 -0.0476 -0.6066 -0.2212
 3579SOL    HW211103   3.303   3.336   2.292  0.2686 -0.4773 -0.0145
 3580SOL     OW11104   4.295   4.864   3.336 -0.3954  0.1628 -0.5500
 3580SOL    HW111105   4.305   4.945   3.285 -0.5096  0.5697  0.0619
 3580SOL    HW211106   4.375   4.859   3.389 -0.7966  0.3682  0.0897
 3581SOL     OW11107   4.481   4.408   6.526 -0.0902  0.1710 -0.3143
 3581SOL    HW111108   4.575   4.429   6.525 -0.2164  0.7633 -0.1648
 3581SOL    HW211109   4.438   4.492   6.509 -0.6091 -0.0140  0.0694
 3582SOL     OW11110   6.577   5.833   0.012  0.5140 -0.7268 -0.0181
 3582SOL    HW111111   6.499   5.847   0.066  1.8498  0.5370  1.7002
 3582SOL    HW211112   6.583   5.738   0.003 -1.4173 -0.8598 -0.5653
 3583SOL     OW11113   4.186   5.995   4.780  0.1329  0.3733 -0.8526
 3583SOL    HW111114   4.153   5.994   4.690  1.1343 -0.3621 -1.2273
 3583SOL    HW211115   4.278   5.970   4.772  0.0651 -0.3678  0.4453
 3584SOL     OW11116   3.109   3.753   6.546  0.1837  0.1036  0.2658
 3584SOL    HW111117   3.115   3.823   6.611  3.3924  0.0954  0.1339
 3584SOL    HW211118   3.099   3.798   6.463  0.1122  0.3138  0.3880
 3585SOL     OW11119   6.381   1.430   3.904  0.5173 -0.5599 -0.3152
 3585SOL    HW111120   6.343   1.377   3.975  0.0514 -0.0341 -0.1672
 3585SOL    HW211121   6.446   1.372   3.864  1.4543 -0.5590  1.1307
 3586SOL     OW11122   2.972   4.078   5.290  0.3871  0.5391  0.2912
 3586SOL    HW111123   3.057   4.098   5.330 -0.4694  1.3001  1.7826
 3586SOL    HW211124   2.912   4.142   5.328 -0.6922  0.5998 -1.4424
 3587SOL     OW11125   0.683   5.488   3.522 -0.6765  0.1616 -0.4190
 3587SOL    HW111126   0.610   5.521   3.574 -0.3501  1.2171 -0.5966
 3587SOL    HW211127   0.689   5.550   3.449 -0.5493 -0.7695 -1.2166
 3588SOL     OW11128   2.441   2.275   6.157  0.3506  0.1325 -0.3439
 3588SOL    HW111129   2.484   2.226   6.228 -0.4771 -0.4413 -0.2319
 3588SOL    HW211130   2.496   2.257   6.080  3.1508  3.2870  0.6676
 3589SOL     OW11131   0.465   4.385   3.001  0.5302  0.7734 -0.2966
 3589SOL    HW111132   0.505   4.431   3.075  0.9587 -0.3915  0.2090
 3589SOL    HW211133   0.389   4.341   3.038  0.9910 -0.1657 -0.4549
 3590SOL     OW11134   5.351   0.072   6.387 -0.1198  0.2623  0.0036
 3590SOL    HW111135   5.360  -0.020   6.409 -0.0346  0.6470  1.6701
 3590SOL    HW211136   5.439   0.108   6.396 -0.1363  0.5061 -0.7206
 3591SOL     OW11137   2.745   2.095   4.806  0.2582 -0.3146  0.4178
 3591SOL    HW111138   2.840   2.110   4.809  0.4821 -1.6712  0.6109
 3591SOL    HW211139   2.709   2.157   4.869  1.0223  0.1639  0.3916
 3592SOL     OW11140   4.498   5.294   3.893 -0.6530 -0.2632 -0.5898
 3592SOL    HW111141   4.506   5.274   3.800 -2.0337 -2.3691 -0.3242
 3592SOL    HW211142   4.514   5.210   3.937 -1.2080  0.4278  1.0149
 3593SOL     OW11143   2.290   3.963   2.154 -0.7744  0.4477 -0.0475
 3593SOL    HW111144   2.349   4.007   2.215 -0.5645  0.1531 -0.0349
 3593SOL    HW211145   2.226   4.030   2.130 -1.6407  0.1983  1.4895
 3594SOL     OW11146   1.874   1.890   2.249 -0.3465 -0.6817 -0.3409
 3594SOL    HW111147   1.919   1.939   2.318  0.7199  0.3425 -1.6996
 3594SOL    HW211148   1.814   1.833   2.296 -0.5021  0.7954  1.3943
 3595SOL     OW11149   5.709   3.401   1.674  0.2916 -0.4012  0.1063
 3595SOL    HW111150   5.673   3.327   1.625  1.0074 -1.7227  1.4964
 3595SOL    HW211151   5.803   3.398   1.658  0.9375 -2.3781  3.2987
 3596SOL     OW11152   2.180   5.854   5.108  0.0799  0.0836  0.0808
 3596SOL    HW111153   2.131   5.847   5.026 -0.1592  1.3370  0.0859
 3596SOL    HW211154   2.234   5.932   5.097 -0.2422  0.5040  1.2514
 3597SOL     OW11155   4.572   6.094   3.523 -0.4882 -0.3616  0.1332
 3597SOL    HW111156   4.518   6.081   3.444 -1.5217  1.5998  0.4365
 3597SOL    HW211157   4.541   6.027   3.584  0.3226 -1.9064 -1.0925
 3598SOL     OW11158   4.536   3.130   3.747  0.5048  0.4334 -0.0938
 3598SOL    HW111159   4.537   3.204   3.686  0.1243  1.7284  1.4212
 3598SOL    HW211160   4.598   3.155   3.815 -1.9428  0.8725  2.1111
 3599SOL     OW11161   2.071   1.256   4.501  0.0425  0.1544  0.0057
 3599SOL    HW111162   2.157   1.262   4.543 -1.0422 -2.6877  3.0190
 3599SOL    HW211163   2.086   1.201   4.425  0.6688 -1.8932  1.5294
 3600SOL     OW11164   6.068   6.486   4.998  0.1402 -0.2568 -0.5915
 3600SOL    HW111165   6.097   6.486   5.089 -0.3533 -1.0625 -0.4232
 3600SOL    HW211166   6.140   6.525   4.949 -0.2294  1.7157  0.3319
 3601SOL     OW11167   1.637   5.374   3.578 -0.5906  0.1433  0.2111
 3601SOL    HW111168   1.548   5.339   3.581 -0.4653 -0.1676  0.2953
 3601SOL    HW211169   1.682   5.334   3.652 -0.7492  1.3303  0.9728
 3602SOL     OW11170   6.592   6.714   0.545 -0.9619 -0.4799  0.4286
 3602SOL    HW111171   6.675   6.684   0.581 -0.8789 -0.2531  0.4270
 3602SOL    HW211172   6.610   6.727   0.452 -1.2232 -1.2411  0.2611
 3603SOL     OW11173   3.897   5.035   5.738  0.2875  0.2179 -0.2642
 3603SOL    HW111174   3.877   5.129   5.744  2.5213  0.6977  1.2174
 3603SOL    HW211175   3.980   5.026   5.785 -0.3600 -2.6927  0.5105
 3604SOL     OW11176   1.361   1.706   1.933  0.0754  0.1815 -0.5640
 3604SOL    HW111177   1.410   1.668   1.860  0.2842 -1.4146  0.3582
 3604SOL    HW211178   1.416   1.777   1.965  1.5907 -1.2784  0.1536
 3605SOL     OW11179   2.230   5.861   3.986 -0.1697  0.3809 -0.0038
 3605SOL    HW111180   2.247   5.907   4.068 -0.1952  0.5437 -0.0889
 3605SOL    HW211181   2.150   5.811   4.002  0.6066 -0.7425  0.5497
 3606SOL     OW11182   6.442   5.023   6.368  0.9389 -0.2616  0.3216
 3606SOL    HW111183   6.430   5.116   6.351 -1.0220 -0.7079 -1.0644
 3606SOL    HW211184   6.364   4.997   6.416  1.7636 -1.1002  1.2529
 3607SOL     OW11185   5.006   6.677   2.005  0.2123 -0.4870  0.2377
 3607SOL    HW111186   5.028   6.622   2.081  0.2770 -0.6527  0.0998
 3607SOL    HW211187   4.927   6.636   1.969 -0.0931 -0.1327  0.4906
 3608SOL     OW11188   2.694   0.037   4.290  0.2278 -0.1567  0.0128
 3608SOL    HW111189   2.665  -0.054   4.304  1.3818 -0.6845 -0.8531
 3608SOL    HW211190   2.771   0.046   4.346  1.5592 -0.5219 -1.6695
 3609SOL     OW11191   1.049   0.646   4.639  0.3657  0.0229  0.1431
 3609SOL    HW111192   1.135   0.637   4.681 -0.5672 -0.5343  2.0618
 3609SOL    HW211193   1.037   0.740   4.630  1.2464  0.1017 -0.2901
 3610SOL     OW11194   5.083   5.755   4.334 -0.0444  0.0946 -0.3353
 3610SOL    HW111195   5.067   5.668   4.298  1.7736  0.3589 -1.9063
 3610SOL    HW211196   5.028   5.813   4.282 -1.8816 -0.1212  1.2352
 3611SOL     OW11197   0.478   0.033   0.515 -0.7050 -0.2520 -0.6446
 3611SOL    HW111198   0.540   0.038   0.587  0.2394 -0.6470 -1.4143
 3611SOL    HW211199   0.430   0.116   0.518 -2.5901 -1.2892  2.0821
 3612SOL     OW11200   0.131   4.680   0.620  0.3016 -0.2991 -0.3425
 3612SOL    HW111201   0.132   4.584   0.616  0.2778 -0.3099 -0.0802
 3612SOL    HW211202   0.057   4.705   0.565 -0.5854 -0.4932  0.7289
 3613SOL     OW11203   6.061   2.207   4.475 -0.6295  0.3414  0.3899
 3613SOL    HW111204   5.979   2.160   4.483 -0.2683 -0.1154  1.6947
 3613SOL    HW211205   6.128   2.144   4.503  0.1802  0.6680 -0.7505
 3614SOL     OW11206   3.285   1.516   1.810  0.2088 -0.2672 -0.0838
 3614SOL    HW111207   3.303   1.609   1.796  1.1253 -0.5744 -1.1017
 3614SOL    HW211208   3.209   1.514   1.867 -0.4674  1.1106 -0.9079
 3615SOL     OW11209   3.347   6.589   4.365  0.3097  0.0842  0.3602
 3615SOL    HW111210   3.318   6.613   4.276 -0.4101 -1.7661  0.0495
 3615SOL    HW211211   3.351   6.493   4.363 -0.4401 -0.0390  2.5472
 3616SOL     OW11212   5.670   6.793   3.039 -0.5025 -0.4380  0.2696
 3616SOL    HW111213   5.743   6.760   3.090 -1.7133 -2.0592  1.0627
 3616SOL    HW211214   5.592   6.759   3.084 -1.7142  0.4772 -1.0357
 3617SOL     OW11215   1.767   4.801   2.492  0.2408  0.0362  0.4521
 3617SOL    HW111216   1.806   4.842   2.415  0.4779  0.1930  0.6552
 3617SOL    HW211217   1.801   4.851   2.566 -1.8785  1.4383  0.5538
 3618SOL     OW11218   5.353   5.539   2.945  0.0198 -0.3808  0.0447
 3618SOL    HW111219   5.285   5.496   2.997  0.5711 -1.3352  0.0181
 3618SOL    HW211220   5.427   5.547   3.005  0.0132  0.2933 -0.0376
 3619SOL     OW11221   5.109   3.552   3.800  0.0006  0.4405  0.0244
 3619SOL    HW111222   5.092   3.530   3.891 -0.2799 -0.0120 -0.1398
 3619SOL    HW211223   5.105   3.469   3.753  2.1028  0.3539 -0.1141
 3620SOL     OW11224   6.639   3.395   5.602 -0.1379 -0.4538  0.1921
 3620SOL    HW111225   6.719   3.424   5.559 -0.4401 -0.5135 -0.4235
 3620SOL    HW211226   6.660   3.308   5.636  0.4262  0.0121  1.0847
 3621SOL     OW11227   5.330   3.776   3.345  0.3276 -0.1536  0.4151
 3621SOL    HW111228   5.329   3.854   3.401  0.8763  1.0958 -1.2204
 3621SOL    HW211229   5.253   3.726   3.371  0.6106  0.3058  2.3202
 3622SOL     OW11230   0.048   5.842   0.028 -0.1561  0.1776  0.5400
 3622SOL    HW111231   0.088   5.851  -0.058 -0.1913 -0.3153  0.4710
 3622SOL    HW211232  -0.046   5.856   0.013  0.0060  1.7613  0.7678
 3623SOL     OW11233   1.174   0.338   3.926  0.0765 -0.0540 -0.2104
 3623SOL    HW111234   1.098   0.343   3.984 -0.1504  3.2845 -0.6307
 3623SOL    HW211235   1.137   0.315   3.841 -0.2037 -0.2909 -0.0281
 3624SOL     OW11236   1.297   4.779   2.184  0.8572 -0.1218 -0.0696
 3624SOL    HW111237   1.251   4.705   2.224 -0.5225  0.2512 -0.8891
 3624SOL    HW211238   1.380   4.785   2.232 -0.0960 -0.5871  1.7238
 3625SOL     OW11239   3.239   2.450   2.100  0.0118 -0.1643  0.3383
 3625SOL    HW111240   3.255   2.485   2.012 -0.8275  1.8008  0.8957
 3625SOL    HW211241   3.218   2.528   2.152  0.2482 -1.3190  2.2238
 3626SOL     OW11242   6.391   4.485   0.202 -0.0231  0.7450  0.6985
 3626SOL    HW111243   6.326   4.530   0.255  0.2090  0.1993  1.4772
 3626SOL    HW211244   6.382   4.393   0.227 -0.1953  0.4104 -0.5337
 3627SOL     OW11245   4.465   4.448   3.586 -0.0366 -0.2402  0.4572
 3627SOL    HW111246   4.442   4.466   3.495 -1.3069  0.3589  0.8750
 3627SOL    HW211247   4.431   4.361   3.603 -1.0401  0.1949  0.7436
 3628SOL     OW11248   5.403   3.184   1.359 -0.1132  0.7321  0.4271
 3628SOL    HW111249   5.320   3.232   1.358 -0.3141  0.3948 -0.6152
 3628SOL    HW211250   5.470   3.250   1.341 -0.2921  0.7932 -0.0313
 3629SOL     OW11251   5.067   2.484   1.274 -0.0419 -0.2529  0.5261
 3629SOL    HW111252   5.013   2.553   1.235  1.0169 -0.1773 -0.8827
 3629SOL    HW211253   5.062   2.500   1.368 -1.3630  0.5726  0.3453
 3630SOL     OW11254   2.559   3.511   5.873  0.0212 -0.3421 -0.1327
 3630SOL    HW111255   2.588   3.602   5.882  2.7265 -1.2906  2.4234
 3630SOL    HW211256   2.517   3.491   5.957 -2.8055 -0.8310 -1.5638
 3631SOL     OW11257   6.036   6.446   5.859  0.3903  0.2093  0.0029
 3631SOL    HW111258   6.064   6.405   5.940  1.5344  1.5509  0.3298
 3631SOL    HW211259   6.031   6.374   5.796  1.6602 -0.5267  0.7100
 3632SOL     OW11260   3.737   2.619   0.043 -0.0111 -0.1609 -0.1810
 3632SOL    HW111261   3.719   2.611  -0.051 -1.4234 -0.0164  0.0528
 3632SOL    HW211262   3.832   2.607   0.051  0.2600  0.7406 -1.7240
 3633SOL     OW11263   1.030   1.001   5.357  0.7034  0.1987 -0.1020
 3633SOL    HW111264   1.034   0.930   5.292  0.9958 -1.0775  1.2483
 3633SOL    HW211265   0.964   1.061   5.323 -0.8977 -1.6470 -0.4503
 3634SOL     OW11266   0.906   5.684   4.866 -0.0271 -0.0340  0.6113
 3634SOL    HW111267   0.842   5.652   4.931  0.2583  0.0920  0.9585
 3634SOL    HW211268   0.990   5.678   4.911 -0.0532  2.0932  1.0322
 3635SOL     OW11269   5.302   1.674   0.161  1.0534  0.1745  0.2640
 3635SOL    HW111270   5.307   1.769   0.167  0.8877  0.1756  0.4292
 3635SOL    HW211271   5.329   1.643   0.248  1.4612  0.0562  0.0937
 3636SOL     OW11272   6.600   4.287   1.571 -1.0908 -0.1466  0.0587
 3636SOL    HW111273   6.675   4.345   1.561 -1.3293  0.3488  0.9656
 3636SOL    HW211274   6.628   4.224   1.638 -1.5595  0.1975  0.5884
 3637SOL     OW11275   3.038   5.971   5.175  0.3171  0.1743 -0.6215
 3637SOL    HW111276   3.009   6.062   5.173  0.7206  0.2896 -1.6184
 3637SOL    HW211277   3.132   5.975   5.157  0.5775 -0.3547  0.5407
 3638SOL     OW11278   0.215   5.695   4.716 -0.3727  0.2500  0.2179
 3638SOL    HW111279   0.174   5.771   4.675 -0.7102  1.8762  3.2574
 3638SOL    HW211280   0.305   5.722   4.731 -0.9053  0.8979  2.8712
 3639SOL     OW11281   5.004   4.632   5.386 -0.0213 -0.5214  0.1432
 3639SOL    HW111282   4.941   4.641   5.458  1.0431 -1.6637  1.2591
 3639SOL    HW211283   5.046   4.548   5.401  0.8604 -0.3845 -1.3417
 3640SOL     OW11284   3.780   2.011   5.158 -0.2789  0.3458  0.2177
 3640SOL    HW111285   3.833   1.958   5.217 -0.0312  1.7450  1.2987
 3640SOL    HW211286   3.728   1.947   5.109 -0.4126 -0.8893  1.8685
 3641SOL     OW11287   0.536   0.265   3.966 -0.0175 -0.0009  0.4415
 3641SOL    HW111288   0.601   0.334   3.957  1.9070 -1.7853 -0.0690
 3641SOL    HW211289   0.456   0.310   3.993  1.3867  2.2930  0.9806
 3642SOL     OW11290   1.865   6.792   0.429 -0.2801 -0.3265 -0.0531
 3642SOL    HW111291   1.810   6.715   0.441 -1.7242  0.8210  1.0013
 3642SOL    HW211292   1.912   6.802   0.512  0.1003 -0.2018 -0.2780
 3643SOL     OW11293   6.356   5.697   5.973 -0.1727  0.2359 -0.7241
 3643SOL    HW111294   6.362   5.791   5.987  0.8670  0.2542 -1.1778
 3643SOL    HW211295   6.275   5.685   5.922 -0.0219  0.9398 -1.1388
 3644SOL     OW11296   2.347   5.310   1.885 -0.3424 -0.2302 -0.3159
 3644SOL    HW111297   2.334   5.215   1.896 -1.1761 -0.2761 -1.4934
 3644SOL    HW211298   2.337   5.346   1.973  0.4799 -1.2818  0.2293
 3645SOL     OW11299   5.254   3.547   4.871 -0.2061 -0.0102  0.0398
 3645SOL    HW111300   5.253   3.634   4.832  3.2861 -0.0634 -0.5553
 3645SOL    HW211301   5.287   3.490   4.801 -1.1787 -1.5913  0.8138
 3646SOL     OW11302   4.054   5.481   0.786  0.2209  0.5347  0.3546
 3646SOL    HW111303   3.975   5.482   0.732  0.5378  1.3103 -0.1057
 3646SOL    HW211304   4.111   5.416   0.744  0.5619  1.3044 -0.4086
 3647SOL     OW11305   1.335   1.773   5.504 -0.2944 -0.3963  0.0105
 3647SOL    HW111306   1.338   1.850   5.448  0.3520 -0.4918 -0.0921
 3647SOL    HW211307   1.276   1.712   5.459 -0.9229  0.0791  0.1641
 3648SOL     OW11308   2.429   6.400   4.474 -0.0691  0.3078 -0.0048
 3648SOL    HW111309   2.457   6.483   4.513  0.9064 -0.7605  1.6838
 3648SOL    HW211310   2.340   6.417   4.443 -0.6083  1.4696  2.0250
 3649SOL     OW11311   4.916   2.849   5.961 -0.1438  0.1663  0.2851
 3649SOL    HW111312   4.861   2.922   5.989 -1.1099 -0.8876  1.2663
 3649SOL    HW211313   4.859   2.772   5.970  1.1757 -0.8362  0.3125
 3650SOL     OW11314   2.566   3.095   1.751  0.7503 -0.0464  0.4079
 3650SOL    HW111315   2.629   3.167   1.752 -0.8972  1.4928 -0.7900
 3650SOL    HW211316   2.610   3.025   1.702  1.3088  1.2515 -1.0337
 3651SOL     OW11317   0.880   2.090   6.196 -0.1359  0.0860 -0.7379
 3651SOL    HW111318   0.827   2.154   6.150  1.4007  1.4268 -0.7544
 3651SOL    HW211319   0.923   2.140   6.266  0.9496 -0.9632 -0.6115
 3652SOL     OW11320   3.087   1.630   0.435 -0.1644  0.1228 -0.6796
 3652SOL    HW111321   3.061   1.570   0.366  0.2627 -2.0067  0.9021
 3652SOL    HW211322   3.008   1.643   0.487  0.0118  0.0158 -0.3818
 3653SOL     OW11323   3.435   0.401   6.066  0.1326 -0.0425 -0.1573
 3653SOL    HW111324   3.516   0.367   6.030  1.5788  2.2713  0.6772
 3653SOL    HW211325   3.448   0.400   6.161 -1.0584 -0.1827  0.0210
 3654SOL     OW11326   6.253   0.699   2.164 -0.2681  0.0795 -0.1369
 3654SOL    HW111327   6.325   0.720   2.106 -0.4677  0.2148 -0.3371
 3654SOL    HW211328   6.185   0.663   2.107 -0.9401  1.3639 -0.1770
 3655SOL     OW11329   6.050   1.521   4.817  0.2016 -0.2001  0.1483
 3655SOL    HW111330   6.049   1.616   4.807 -2.3591 -0.2557 -0.9098
 3655SOL    HW211331   6.046   1.507   4.912 -0.4362  0.7757  0.2767
 3656SOL     OW11332   1.562   3.882   6.121  0.3717  0.2097 -0.0654
 3656SOL    HW111333   1.608   3.959   6.088  0.1597  0.3774  0.0296
 3656SOL    HW211334   1.558   3.823   6.045 -0.6027  0.8217 -0.5126
 3657SOL     OW11335   4.779   2.058   5.815 -0.0106 -0.0824  0.5767
 3657SOL    HW111336   4.720   1.986   5.838  0.4118 -0.3453  0.8542
 3657SOL    HW211337   4.721   2.133   5.801 -0.5045 -0.5999 -0.2560
 3658SOL     OW11338   5.433   6.606   4.741  0.0057  0.6981 -0.3852
 3658SOL    HW111339   5.413   6.699   4.730 -2.4207  0.3517  0.5276
 3658SOL    HW211340   5.528   6.601   4.732  0.1262  3.1327 -1.2761
 3659SOL     OW11341   5.368   5.006   1.693  0.4266  0.1375  0.1564
 3659SOL    HW111342   5.406   5.003   1.781 -0.0463  2.6722  0.5277
 3659SOL    HW211343   5.439   4.978   1.635  1.2050 -0.1441  1.2120
 3660SOL     OW11344   4.898   6.592   4.084 -0.3031 -0.3312 -0.2159
 3660SOL    HW111345   4.822   6.582   4.140  0.6913 -1.9040  0.9318
 3660SOL    HW211346   4.890   6.522   4.019 -0.2812  0.0531 -0.6403
 3661SOL     OW11347   5.114   0.179   0.299  0.1247 -0.4313  0.0403
 3661SOL    HW111348   5.132   0.174   0.392  1.1977 -2.3780 -0.2371
 3661SOL    HW211349   5.189   0.226   0.262  0.1524 -0.4809  0.0344
 3662SOL     OW11350   2.242   3.624   3.029  0.2098 -0.3683 -0.4588
 3662SOL    HW111351   2.187   3.551   3.058  0.2601 -0.2342 -0.0291
 3662SOL    HW211352   2.302   3.640   3.102 -0.9734  1.2913  0.2091
 3663SOL     OW11353   1.031   4.234   3.570  0.2969  0.2841 -0.3488
 3663SOL    HW111354   1.109   4.179   3.578  0.6757  0.3668 -2.6368
 3663SOL    HW211355   0.967   4.194   3.629  1.3687 -1.1028 -0.0701
 3664SOL     OW11356   2.146   5.458   1.290  0.0492  0.5861  0.0443
 3664SOL    HW111357   2.181   5.392   1.350 -0.0183  2.9107  2.8875
 3664SOL    HW211358   2.223   5.510   1.265 -0.3159  1.3155  0.4147
 3665SOL     OW11359   5.947   1.573   0.611  0.8735  0.2686  0.0031
 3665SOL    HW111360   5.907   1.487   0.601  2.1812 -0.3421 -0.1461
 3665SOL    HW211361   5.875   1.630   0.636 -0.0072 -0.8727  0.1416
 3666SOL     OW11362   3.518   0.668   5.104  0.0046  0.2487 -0.3165
 3666SOL    HW111363   3.533   0.732   5.035  0.7681  0.8002  0.3483
 3666SOL    HW211364   3.605   0.632   5.123  0.3264  2.1187  2.2738
 3667SOL     OW11365   2.932   2.618   1.126  0.2253  0.2712 -0.4720
 3667SOL    HW111366   2.999   2.661   1.073 -0.3620 -0.6016 -1.9791
 3667SOL    HW211367   2.979   2.553   1.177  0.7735  0.9996 -0.0246
 3668SOL     OW11368   0.228   2.380   5.704 -0.0974 -0.4644  0.1087
 3668SOL    HW111369   0.212   2.386   5.798 -0.5664 -2.5509  0.1978
 3668SOL    HW211370   0.148   2.412   5.664  0.2880  0.9096  0.3824
 3669SOL     OW11371   3.849   4.472   4.475  0.3147 -0.0687  0.2354
 3669SOL    HW111372   3.871   4.525   4.551  0.9979  0.7040 -0.4902
 3669SOL    HW211373   3.798   4.530   4.418  1.5388  0.0074 -0.8172
 3670SOL     OW11374   5.071   4.659   1.268 -0.2943 -0.1608 -0.1116
 3670SOL    HW111375   5.060   4.714   1.191 -0.7891 -0.1526 -0.0368
 3670SOL    HW211376   5.118   4.582   1.236  0.1261  0.1604 -0.2773
 3671SOL     OW11377   3.100   1.994   4.037  0.2635  1.2898  0.2319
 3671SOL    HW111378   3.114   1.949   3.954 -0.3262  1.7154 -0.1088
 3671SOL    HW211379   3.018   2.043   4.024 -0.5538  0.3254  1.5022
 3672SOL     OW11380   6.243   1.972   4.436 -0.3661  0.3154 -0.0602
 3672SOL    HW111381   6.319   1.965   4.378  0.4498  0.5440  0.9486
 3672SOL    HW211382   6.178   1.912   4.399 -0.5445  1.7571 -2.2059
 3673SOL     OW11383   1.973   0.596   4.938  0.0408 -0.4224  0.2072
 3673SOL    HW111384   2.002   0.528   4.877  1.2955 -2.1698  2.5709
 3673SOL    HW211385   2.041   0.663   4.933  0.1192 -0.5333 -0.2959
 3674SOL     OW11386   1.502   5.926   3.486 -0.7833  0.5080 -0.0513
 3674SOL    HW111387   1.416   5.901   3.452 -2.3337  3.7029  1.0795
 3674SOL    HW211388   1.547   5.966   3.412 -0.5899 -0.4204 -0.4408
 3675SOL     OW11389   5.840   1.503   4.099  0.3700  0.1080  0.1702
 3675SOL    HW111390   5.761   1.531   4.147  0.3738  1.0759 -0.3675
 3675SOL    HW211391   5.911   1.514   4.162  0.1030 -0.6475  0.6170
 3676SOL     OW11392   4.262   2.395   5.231 -0.4866  0.4940  0.2455
 3676SOL    HW111393   4.261   2.450   5.310 -1.1484  0.1421  0.4933
 3676SOL    HW211394   4.192   2.432   5.176  0.6885  1.4205 -0.6642
 3677SOL     OW11395   5.234   0.949   5.673  0.1208  0.2738 -0.2568
 3677SOL    HW111396   5.256   1.042   5.668  0.8341  0.0720 -1.2062
 3677SOL    HW211397   5.141   0.947   5.695  0.0541  1.2112 -0.4285
 3678SOL     OW11398   6.659   1.349   0.199  0.1409  0.2732  0.6868
 3678SOL    HW111399   6.692   1.260   0.213 -0.7613 -0.2236 -0.1687
 3678SOL    HW211400   6.654   1.357   0.104 -2.2373  0.2885  0.7724
 3679SOL     OW11401   6.353   5.490   3.809 -0.1122 -0.0280 -0.3917
 3679SOL    HW111402   6.428   5.482   3.868 -0.5615 -0.7968  0.0902
 3679SOL    HW211403   6.307   5.569   3.839  1.3389  1.3888 -1.6898
 3680SOL     OW11404   6.279   4.355   5.450 -0.0476  0.4551  0.2736
 3680SOL    HW111405   6.363   4.343   5.406  0.1315  0.5301  0.5944
 3680SOL    HW211406   6.282   4.295   5.524 -0.6457 -0.2078 -0.2317
 3681SOL     OW11407   5.322   5.350   1.178 -0.1587  0.6959  0.3338
 3681SOL    HW111408   5.381   5.422   1.152  0.0395  0.0581 -1.0639
 3681SOL    HW211409   5.368   5.271   1.151 -0.1232 -0.0285  2.3581
 3682SOL     OW11410   2.567   1.922   6.268 -0.0362  0.2290  0.2167
 3682SOL    HW111411   2.632   1.886   6.207  0.6724 -0.4193  1.3172
 3682SOL    HW211412   2.516   1.984   6.215  0.9330  0.1271 -0.8812
 3683SOL     OW11413   2.950   4.040   2.988  0.5879 -0.4944  0.6016
 3683SOL    HW111414   2.992   4.125   2.973 -0.4387  0.2438  1.6835
 3683SOL    HW211415   3.017   3.976   2.965  0.0092  0.3848 -4.6769
 3684SOL     OW11416   0.458   5.853   4.719 -0.2424 -0.3831 -0.1019
 3684SOL    HW111417   0.495   5.870   4.633 -2.0038 -0.4330 -0.9162
 3684SOL    HW211418   0.425   5.938   4.748  0.2640 -0.3849  0.4878
 3685SOL     OW11419   0.754   0.365   5.785 -0.2127 -0.4999 -0.5447
 3685SOL    HW111420   0.704   0.442   5.758 -0.4673 -0.1993  0.7200
 3685SOL    HW211421   0.706   0.291   5.750 -0.1091 -0.0946 -1.5559
 3686SOL     OW11422   4.280   5.687   2.079  0.4373  0.4206  0.0939
 3686SOL    HW111423   4.315   5.728   2.000 -0.2313  0.0588 -0.4026
 3686SOL    HW211424   4.356   5.676   2.136  0.8279  1.2289 -0.2524
 3687SOL     OW11425   6.166   5.974   5.365  0.1393  0.4736 -0.2064
 3687SOL    HW111426   6.206   5.959   5.450 -0.9680  0.4525  0.3199
 3687SOL    HW211427   6.175   6.069   5.351 -1.0753  0.7270  0.6568
 3688SOL     OW11428   2.594   1.479   1.354 -0.6868 -0.3693 -0.4401
 3688SOL    HW111429   2.540   1.502   1.279  0.4511 -0.4873 -1.3311
 3688SOL    HW211430   2.572   1.544   1.421 -1.9162 -0.4254 -0.7617
 3689SOL     OW11431   6.271   4.173   5.641  0.5957  0.0370  0.1304
 3689SOL    HW111432   6.340   4.139   5.698  0.6886  0.7366  0.4387
 3689SOL    HW211433   6.206   4.103   5.637  1.4747 -0.7724 -0.4422
 3690SOL     OW11434   0.309   1.349   0.351 -0.3945  0.0237 -0.2319
 3690SOL    HW111435   0.363   1.270   0.354 -0.0812  0.2538  0.2912
 3690SOL    HW211436   0.341   1.402   0.423 -0.3383  0.8052 -0.8197
 3691SOL     OW11437   6.015   4.712   5.941  0.7747 -0.8145 -0.5030
 3691SOL    HW111438   6.093   4.707   5.997  0.7036 -1.1796 -0.4336
 3691SOL    HW211439   5.942   4.696   6.001  0.6077 -0.0031 -0.4783
 3692SOL     OW11440   1.203   0.032   5.713  0.0949  0.6737 -0.0706
 3692SOL    HW111441   1.166   0.112   5.675  0.8286  0.6050 -0.9589
 3692SOL    HW211442   1.167  -0.039   5.660  1.1034  0.5763 -0.6397
 3693SOL     OW11443   0.723   0.825   0.879 -0.7824  0.1002 -0.1565
 3693SOL    HW111444   0.742   0.810   0.787 -1.1175 -2.4036  0.1045
 3693SOL    HW211445   0.629   0.843   0.882 -0.9550 -0.7403 -0.2494
 3694SOL     OW11446   1.324   5.080   0.497  0.2761  0.3611  0.3523
 3694SOL    HW111447   1.252   5.030   0.536  0.1390  0.4181  0.1734
 3694SOL    HW211448   1.370   5.118   0.571 -0.8618  1.7004  0.4034
 3695SOL     OW11449   3.267   0.499   4.477 -0.2908  0.4756  0.2179
 3695SOL    HW111450   3.256   0.459   4.563 -0.5444  2.6156  1.2544
 3695SOL    HW211451   3.306   0.585   4.496  0.7479  0.5291 -1.9073
 3696SOL     OW11452   5.936   5.284   2.451 -0.0702 -0.7701  0.0199
 3696SOL    HW111453   5.962   5.374   2.431 -0.3753 -0.6488  0.1650
 3696SOL    HW211454   5.887   5.291   2.533  0.9856 -1.2413  0.7076
 3697SOL     OW11455   5.590   3.223   4.080 -0.3797  0.0419 -0.2567
 3697SOL    HW111456   5.648   3.298   4.066  0.6950 -0.8731 -0.7493
 3697SOL    HW211457   5.639   3.164   4.136 -0.3019 -1.2941 -1.6504
 3698SOL     OW11458   4.529   5.940   0.748  0.0284  0.2480  0.8298
 3698SOL    HW111459   4.585   5.978   0.680  0.3574  0.6814  1.3282
 3698SOL    HW211460   4.518   5.849   0.724  1.6784 -0.0673  1.1804
 3699SOL     OW11461   5.546   3.045   1.777  0.2220 -0.3392  0.2118
 3699SOL    HW111462   5.612   3.008   1.835 -1.6886 -1.2220  1.9272
 3699SOL    HW211463   5.491   3.099   1.834 -0.2861  0.7798 -1.2602
 3700SOL     OW11464   1.278   2.464   4.493  0.0403 -0.1945 -0.7395
 3700SOL    HW111465   1.333   2.388   4.476  1.1881  0.1099  1.3252
 3700SOL    HW211466   1.335   2.539   4.476  0.6136  0.1209  2.1517
 3701SOL     OW11467   1.736   1.320   5.012 -0.2973  0.2514 -0.9336
 3701SOL    HW111468   1.655   1.268   5.015 -0.1049 -0.0302 -0.0020
 3701SOL    HW211469   1.707   1.411   5.005 -0.7296  0.1963 -0.0334
 3702SOL     OW11470   4.752   1.110   6.470  0.2138 -0.0470  0.2146
 3702SOL    HW111471   4.841   1.114   6.505  0.5568 -0.5703 -0.5618
 3702SOL    HW211472   4.760   1.058   6.390 -1.1886 -2.0676  1.3148
 3703SOL     OW11473   6.260   1.420   0.392  0.2134 -0.1803  0.5098
 3703SOL    HW111474   6.286   1.395   0.303 -1.0495 -4.0070  1.0021
 3703SOL    HW211475   6.338   1.461   0.429  0.2615  3.2880 -2.7552
 3704SOL     OW11476   5.753   0.867   5.290 -0.2293  0.2475  0.3212
 3704SOL    HW111477   5.693   0.875   5.365 -1.1993 -1.6858 -0.1975
 3704SOL    HW211478   5.832   0.827   5.326 -0.2167  0.4408  0.5152
 3705SOL     OW11479   1.285   5.493   1.081  0.5242  0.2378  0.1338
 3705SOL    HW111480   1.219   5.463   1.144  1.2972 -0.4198  0.6428
 3705SOL    HW211481   1.234   5.532   1.010 -0.3686  0.8146  1.0667
 3706SOL     OW11482   5.132   2.755   5.205  0.2153 -0.8327 -0.0471
 3706SOL    HW111483   5.093   2.723   5.124 -0.5096  0.5706 -0.2853
 3706SOL    HW211484   5.068   2.733   5.273 -0.1443 -0.1848 -0.1680
 3707SOL     OW11485   0.048   3.511   5.881  0.2058  0.3206  0.0063
 3707SOL    HW111486   0.014   3.596   5.856  2.0484  1.0360 -0.2573
 3707SOL    HW211487   0.134   3.507   5.839  0.6870 -1.1280  1.0658
 3708SOL     OW11488   6.423   3.238   1.248  0.1384 -0.0697 -0.2622
 3708SOL    HW111489   6.406   3.285   1.167 -0.5963  0.4525  0.1789
 3708SOL    HW211490   6.339   3.199   1.271  0.2961 -0.0657  0.3332
 3709SOL     OW11491   0.749   3.235   4.638 -0.8282  0.2508 -0.1013
 3709SOL    HW111492   0.666   3.216   4.682 -0.0150 -0.9101  0.9934
 3709SOL    HW211493   0.795   3.151   4.637 -0.0143  0.6755 -1.4888
 3710SOL     OW11494   4.853   0.839   4.128 -0.3849  0.2593 -0.4641
 3710SOL    HW111495   4.788   0.820   4.196  1.0221 -0.5220  0.7375
 3710SOL    HW211496   4.843   0.932   4.110  0.5786  1.0528  2.4395
 3711SOL     OW11497   2.563   3.748   4.964  0.1050  0.3937 -0.5999
 3711SOL    HW111498   2.598   3.801   5.035  0.8365  0.4027 -0.9587
 3711SOL    HW211499   2.494   3.802   4.925  0.5377  0.8896 -0.6755
 3712SOL     OW11500   2.458   4.430   4.774  0.3587 -0.1328 -0.1834
 3712SOL    HW111501   2.496   4.503   4.724 -0.9994  0.3465 -0.5742
 3712SOL    HW211502   2.378   4.408   4.726  1.1962 -2.5413 -0.6139
 3713SOL     OW11503   3.711   4.611   2.207  0.1655  0.2284  0.3320
 3713SOL    HW111504   3.675   4.527   2.237  0.4787  0.1477  0.4901
 3713SOL    HW211505   3.806   4.597   2.208  0.1913  0.3125 -0.4397
 3714SOL     OW11506   3.226   6.339   0.223  0.1597  0.3683  0.2083
 3714SOL    HW111507   3.183   6.424   0.228 -1.6045 -0.3108 -1.8356
 3714SOL    HW211508   3.226   6.317   0.130  0.4251 -1.9392  0.6751
 3715SOL     OW11509   0.478   2.208   0.970 -0.4091  0.3284 -0.0819
 3715SOL    HW111510   0.395   2.166   0.994  0.3323 -0.5791  1.0185
 3715SOL    HW211511   0.508   2.159   0.893  0.3248 -1.0582  1.0405
 3716SOL     OW11512   2.724   3.661   3.720 -0.5359 -0.2047 -0.3730
 3716SOL    HW111513   2.685   3.742   3.754  0.3800  0.2185 -0.3218
 3716SOL    HW211514   2.686   3.592   3.775  0.4395  0.4082  1.1272
 3717SOL     OW11515   5.043   0.740   6.185 -0.2096  0.5223 -0.2203
 3717SOL    HW111516   4.987   0.764   6.112 -0.6672 -2.0796 -0.8009
 3717SOL    HW211517   4.992   0.677   6.235  0.5078  1.4481  1.8125
 3718SOL     OW11518   3.257   5.431   3.114 -0.3419  0.5778 -0.1155
 3718SOL    HW111519   3.252   5.336   3.119 -1.4372  0.6694  1.2805
 3718SOL    HW211520   3.166   5.459   3.103  0.0195  1.4522 -0.9930
 3719SOL     OW11521   1.080   6.057   1.691 -0.0192  0.0127 -0.2026
 3719SOL    HW111522   1.101   6.021   1.605  0.0074  0.1371 -0.2474
 3719SOL    HW211523   1.063   5.980   1.745  0.9416 -0.1039 -0.0617
 3720SOL     OW11524   2.192   6.033   3.386  0.7134  0.3817 -0.2818
 3720SOL    HW111525   2.190   6.075   3.300 -0.9588  0.9685  0.0045
 3720SOL    HW211526   2.280   6.049   3.419  1.4709 -0.0587 -1.9685
 3721SOL     OW11527   4.080   6.208   5.658  0.3103 -0.1853 -0.0257
 3721SOL    HW111528   4.166   6.240   5.631  0.1576  1.5461  1.3677
 3721SOL    HW211529   4.018   6.254   5.602  0.2250 -0.8724 -0.5186
 3722SOL     OW11530   2.822   0.737   6.783  0.3189  0.3773  0.3987
 3722SOL    HW111531   2.858   0.825   6.778 -1.2566  0.9741 -1.2875
 3722SOL    HW211532   2.848   0.696   6.701  0.2017 -0.4113  0.7450
 3723SOL     OW11533   5.251   0.480   1.385  0.6363 -0.1368 -0.1187
 3723SOL    HW111534   5.216   0.567   1.367  1.6979  0.5770  1.0851
 3723SOL    HW211535   5.191   0.420   1.341 -0.3685  1.1787 -0.5951
 3724SOL     OW11536   4.840   0.770   1.717  0.3132 -0.0758 -0.6128
 3724SOL    HW111537   4.785   0.748   1.792  0.9217 -0.5934 -0.3074
 3724SOL    HW211538   4.779   0.781   1.645 -0.1442 -1.3823 -0.4563
 3725SOL     OW11539   3.704   4.589   5.213 -0.7235  0.4701  0.0787
 3725SOL    HW111540   3.648   4.551   5.145  0.0630  0.5533 -0.6401
 3725SOL    HW211541   3.732   4.514   5.266 -0.9128  0.3337 -0.0126
 3726SOL     OW11542   2.803   1.909   3.448  0.2610  0.1467  0.1520
 3726SOL    HW111543   2.813   1.874   3.359 -1.1450  1.6881 -0.6635
 3726SOL    HW211544   2.881   1.963   3.461  1.1566 -1.1699  0.4217
 3727SOL     OW11545   2.538   3.986   1.442 -0.1960  1.2336 -0.1546
 3727SOL    HW111546   2.624   3.993   1.484  0.4682  0.0736 -1.2329
 3727SOL    HW211547   2.536   3.897   1.406 -1.4186  1.6042 -1.0886
 3728SOL     OW11548   2.115   3.278   3.723  0.2807 -0.0135  0.3237
 3728SOL    HW111549   2.035   3.248   3.767  0.5113 -1.6845 -0.3200
 3728SOL    HW211550   2.084   3.306   3.636  0.5424 -2.1957 -0.5370
 3729SOL     OW11551   0.062   1.704   3.599  0.2165  0.1893  0.1459
 3729SOL    HW111552   0.121   1.718   3.673  0.8131  0.1457 -0.3149
 3729SOL    HW211553   0.071   1.610   3.580 -1.5154 -0.2638  1.3361
 3730SOL     OW11554   0.958   0.208   1.142  0.5391 -0.0087  0.2639
 3730SOL    HW111555   0.918   0.245   1.063  1.4675 -2.5486 -1.5468
 3730SOL    HW211556   1.048   0.242   1.141 -0.3635  2.7290  2.2686
 3731SOL     OW11557   4.999   2.230   2.805  0.3490  0.2088  0.2135
 3731SOL    HW111558   4.939   2.221   2.879 -0.2913  0.7228 -0.2425
 3731SOL    HW211559   5.073   2.279   2.841 -0.0917  0.7185  0.4379
 3732SOL     OW11560   6.080   3.810   3.534  0.2859  0.3012 -0.2170
 3732SOL    HW111561   6.155   3.756   3.508 -0.1401 -0.8795  0.8749
 3732SOL    HW211562   6.031   3.822   3.453  0.0098 -1.6224 -0.3970
 3733SOL     OW11563   0.068   3.205   4.500  0.3661 -0.6985 -0.4932
 3733SOL    HW111564  -0.004   3.262   4.476  1.6893  1.8489  1.1101
 3733SOL    HW211565   0.099   3.168   4.417 -0.4954  1.0146 -1.6267
 3734SOL     OW11566   3.797   5.923   4.778  0.2546 -0.7147 -0.1272
 3734SOL    HW111567   3.767   5.832   4.773 -0.2609 -0.5515 -0.0132
 3734SOL    HW211568   3.835   5.930   4.865  3.3108 -1.7282 -1.2358
 3735SOL     OW11569   3.521   0.850   0.050 -0.3801  0.2968 -0.5226
 3735SOL    HW111570   3.546   0.829  -0.040 -2.0000 -0.3613 -0.8447
 3735SOL    HW211571   3.604   0.871   0.093  1.0717 -3.6479 -1.0093
 3736SOL     OW11572   2.098   3.635   5.497 -0.3706 -0.6555 -0.6421
 3736SOL    HW111573   2.068   3.684   5.573 -0.1810  0.1334 -1.0627
 3736SOL    HW211574   2.185   3.603   5.521  0.7612  1.6548 -1.3694
 3737SOL     OW11575   5.685   2.349   3.078  0.1091 -0.0280  0.5120
 3737SOL    HW111576   5.697   2.443   3.089  0.9610 -0.2725  2.0422
 3737SOL    HW211577   5.616   2.326   3.140  0.1659 -0.4555  0.4205
 3738SOL     OW11578   1.915   3.698   6.026  0.5108 -0.4913 -0.2884
 3738SOL    HW111579   1.825   3.729   6.030  1.0101  0.9070  0.8891
 3738SOL    HW211580   1.937   3.679   6.117  1.4694 -0.6219 -0.5426
 3739SOL     OW11581   6.103   0.085   3.781  0.2385 -0.2193  0.0516
 3739SOL    HW111582   6.040   0.076   3.853 -0.3091  1.7222 -0.1458
 3739SOL    HW211583   6.091   0.005   3.729 -1.0028 -0.5726  0.8357
 3740SOL     OW11584   4.716   0.712   2.783 -0.1467  0.2764  0.4032
 3740SOL    HW111585   4.629   0.722   2.745 -0.5062 -2.2718  0.4110
 3740SOL    HW211586   4.705   0.647   2.852  1.7849 -0.1336  0.3694
 3741SOL     OW11587   1.356   3.280   1.261 -0.2939  0.2505 -0.0903
 3741SOL    HW111588   1.267   3.245   1.252 -0.2697 -1.0345  3.3062
 3741SOL    HW211589   1.412   3.203   1.264  1.1841  1.0510 -2.8829
 3742SOL     OW11590   4.392   2.284   1.182 -0.4308  0.3602  0.2645
 3742SOL    HW111591   4.318   2.326   1.139  1.2852  3.1234 -0.2297
 3742SOL    HW211592   4.433   2.231   1.114  0.6140  2.4530 -0.8312
 3743SOL     OW11593   2.309   2.987   1.665  0.2113  0.0774 -0.2458
 3743SOL    HW111594   2.344   2.982   1.576  1.8296  0.2220  0.3547
 3743SOL    HW211595   2.386   2.994   1.721 -0.6989 -1.3808  1.2928
 3744SOL     OW11596   2.083   5.753   0.258 -0.1778 -0.7211  0.2670
 3744SOL    HW111597   2.120   5.735   0.172 -2.0253  3.6932 -1.7632
 3744SOL    HW211598   2.034   5.674   0.280  0.8313 -2.2428 -2.4724
 3745SOL     OW11599   3.994   0.758   2.476  0.3965 -0.4788  0.0805
 3745SOL    HW111600   3.935   0.683   2.468  0.3644 -0.6822  1.9182
 3745SOL    HW211601   3.980   0.808   2.395  1.0403 -2.8387 -1.6135
 3746SOL     OW11602   6.649   1.876   4.078 -0.2554 -0.0726  0.0224
 3746SOL    HW111603   6.689   1.833   4.153  0.7210 -1.1888 -1.0906
 3746SOL    HW211604   6.715   1.937   4.046 -1.1092  1.2801  0.7369
 3747SOL     OW11605   6.160   0.306   3.134  0.0283 -0.2241  0.4530
 3747SOL    HW111606   6.128   0.353   3.211  0.7058 -0.3350  0.8101
 3747SOL    HW211607   6.254   0.325   3.131 -0.5359  3.2839 -2.7433
 3748SOL     OW11608   6.654   1.676   1.803  0.1445  0.4554 -0.3792
 3748SOL    HW111609   6.683   1.762   1.772  1.2257 -0.3030 -1.5320
 3748SOL    HW211610   6.688   1.671   1.893  0.1949  1.1658 -0.3492
 3749SOL     OW11611   0.068   4.009   4.589  0.0038 -0.3945  0.0892
 3749SOL    HW111612  -0.002   4.074   4.579  0.3757 -0.0513 -0.2913
 3749SOL    HW211613   0.026   3.936   4.635 -1.5512 -1.7065 -3.1591
 3750SOL     OW11614   6.236   2.722   5.236 -0.1895  0.2585 -0.1438
 3750SOL    HW111615   6.165   2.680   5.284 -0.6049 -0.1533 -1.1056
 3750SOL    HW211616   6.217   2.705   5.144  2.0949 -1.4602 -0.4131
 3751SOL     OW11617   2.529   2.187   6.449  0.2754  0.2484  0.3513
 3751SOL    HW111618   2.613   2.149   6.476  0.3980 -0.4383 -0.9194
 3751SOL    HW211619   2.468   2.114   6.450  0.2008  0.2708 -0.8152
 3752SOL     OW11620   4.241   3.812   5.537 -0.2169  0.7048 -0.1675
 3752SOL    HW111621   4.163   3.800   5.481 -0.0489  0.2145 -0.3054
 3752SOL    HW211622   4.281   3.893   5.505  0.3326  0.0103 -1.3357
 3753SOL     OW11623   4.703   5.084   0.886 -0.2983  0.2113  0.4872
 3753SOL    HW111624   4.786   5.097   0.931 -0.9549  1.1563  1.4737
 3753SOL    HW211625   4.710   5.135   0.805  0.1860  0.0439  0.4259
 3754SOL     OW11626   1.541   2.899   5.755  0.0296 -0.7535  0.0138
 3754SOL    HW111627   1.586   2.828   5.709  1.6928  1.3152 -1.7296
 3754SOL    HW211628   1.451   2.896   5.722  0.1810 -1.7449 -0.3458
 3755SOL     OW11629   3.186   4.102   5.692  0.4011 -0.4841 -0.5902
 3755SOL    HW111630   3.171   4.018   5.735 -2.9517  0.1699 -0.1740
 3755SOL    HW211631   3.252   4.145   5.747  0.0556 -1.7303  0.8784
 3756SOL     OW11632   3.266   0.789   6.339 -0.1484  0.9551 -0.2625
 3756SOL    HW111633   3.339   0.756   6.286 -1.5908 -1.2469 -0.9935
 3756SOL    HW211634   3.244   0.873   6.299  1.1749  1.0739 -0.8021
 3757SOL     OW11635   5.797   1.172   2.863 -0.1140  0.2654 -0.1648
 3757SOL    HW111636   5.744   1.247   2.889 -0.6284  0.1422 -0.8447
 3757SOL    HW211637   5.774   1.103   2.926 -1.2323  0.0185 -0.8159
 3758SOL     OW11638   0.791   3.962   2.702 -0.4568 -0.3216  0.8811
 3758SOL    HW111639   0.711   3.914   2.722 -0.5373  0.2218  1.9716
 3758SOL    HW211640   0.790   4.036   2.764 -0.0494  0.7356 -0.3389
 3759SOL     OW11641   2.220   6.516   5.763 -0.4284 -0.4698 -0.1833
 3759SOL    HW111642   2.204   6.579   5.833  0.7724 -0.1708 -0.1564
 3759SOL    HW211643   2.225   6.431   5.808 -0.9984 -0.4576 -0.0887
 3760SOL     OW11644   4.213   4.313   2.513 -0.1393 -0.3465  0.0132
 3760SOL    HW111645   4.123   4.295   2.538 -0.1988  1.8814  1.7457
 3760SOL    HW211646   4.259   4.324   2.596  0.7643  2.6091 -0.7561
 3761SOL     OW11647   5.043   6.119   6.693  0.0640  0.5250 -0.2555
 3761SOL    HW111648   5.058   6.212   6.674  3.5105  0.7042  2.3821
 3761SOL    HW211649   5.095   6.073   6.626 -0.6189  0.5160 -0.7890
 3762SOL     OW11650   5.763   0.815   5.715 -0.0992  0.5462  0.1692
 3762SOL    HW111651   5.699   0.853   5.654 -0.3040  0.4803  0.3406
 3762SOL    HW211652   5.802   0.891   5.758  1.8903  0.7568 -1.8419
 3763SOL     OW11653   4.612   4.407   4.427  0.2106  0.0144  0.2740
 3763SOL    HW111654   4.689   4.355   4.450 -0.6764 -1.0034  1.0506
 3763SOL    HW211655   4.629   4.493   4.464  1.3055  0.0411 -0.2437
 3764SOL     OW11656   6.040   3.416   0.703 -0.1743 -0.3019  0.1215
 3764SOL    HW111657   6.017   3.338   0.654 -0.5408 -0.1697  0.0782
 3764SOL    HW211658   6.136   3.419   0.701 -0.1584 -0.7737  0.1679
 3765SOL     OW11659   3.119   0.288   4.005  0.6586 -0.2690  0.3799
 3765SOL    HW111660   3.209   0.284   3.974  0.3569 -0.7896 -0.4540
 3765SOL    HW211661   3.126   0.277   4.100  1.6798  2.2763  0.6856
 3766SOL     OW11662   6.089   4.683   3.030  0.0380  0.0658 -0.3365
 3766SOL    HW111663   6.056   4.716   3.114 -0.3568  2.8572 -1.4594
 3766SOL    HW211664   6.017   4.631   2.996 -0.9018  1.1488 -0.0965
 3767SOL     OW11665   5.392   1.267   6.052 -0.0868 -0.3149 -0.3449
 3767SOL    HW111666   5.409   1.217   6.132 -0.7986  0.5592  0.3805
 3767SOL    HW211667   5.387   1.201   5.983  1.9077 -0.9800  0.0847
 3768SOL     OW11668   4.516   5.857   1.383 -0.2217 -0.0239 -0.1288
 3768SOL    HW111669   4.604   5.893   1.391 -0.2020  0.0436 -0.6040
 3768SOL    HW211670   4.530   5.766   1.354 -0.3004 -0.1079  0.0959
 3769SOL     OW11671   5.919   2.176   1.477  0.0417  0.6855 -0.6342
 3769SOL    HW111672   5.909   2.223   1.560 -1.2657 -1.4048  0.4942
 3769SOL    HW211673   5.839   2.196   1.428 -1.7845 -2.1671  0.9228
 3770SOL     OW11674   6.449   6.392   1.998 -0.2179  0.6402  0.2988
 3770SOL    HW111675   6.471   6.464   1.940  0.5313 -1.1428 -1.7687
 3770SOL    HW211676   6.353   6.388   1.998 -0.2454  1.2860 -0.0150
 3771SOL     OW11677   4.915   2.754   2.931 -0.3747 -0.9165 -0.2862
 3771SOL    HW111678   4.909   2.795   2.845  0.3263  0.7696  0.4264
 3771SOL    HW211679   4.838   2.697   2.935 -0.2333 -1.3251 -2.1438
 3772SOL     OW11680   2.700   4.231   5.129  0.6481  0.0932 -0.7497
 3772SOL    HW111681   2.792   4.258   5.134  0.3345  1.0026  0.6405
 3772SOL    HW211682   2.687   4.177   5.206 -0.3661  1.2347 -0.0984
 3773SOL     OW11683   1.609   4.810   0.519  0.5495 -0.3810  0.1451
 3773SOL    HW111684   1.686   4.852   0.481  0.5292  0.7135  1.2628
 3773SOL    HW211685   1.538   4.831   0.459  1.0979 -1.3798 -0.8840
 3774SOL     OW11686   3.422   3.699   1.244 -0.5540  0.3194 -0.8655
 3774SOL    HW111687   3.483   3.669   1.177 -1.1363 -0.4708 -1.0506
 3774SOL    HW211688   3.367   3.764   1.199  0.2843  1.2228 -0.6328
 3775SOL     OW11689   1.762   0.441   0.727  0.4427 -0.0969  0.1591
 3775SOL    HW111690   1.686   0.447   0.785 -1.4056 -0.7961 -2.0378
 3775SOL    HW211691   1.731   0.391   0.651  3.0065 -0.0855 -1.0131
 3776SOL     OW11692   0.171   2.321   3.638  0.3893  0.3066 -0.3348
 3776SOL    HW111693   0.256   2.310   3.680 -0.3387 -1.1514  0.8682
 3776SOL    HW211694   0.152   2.415   3.645  0.9575  0.3330  1.3308
 3777SOL     OW11695   5.209   1.700   4.633 -0.3424 -0.5376 -0.4921
 3777SOL    HW111696   5.250   1.614   4.617 -2.2747 -1.3620 -1.2884
 3777SOL    HW211697   5.269   1.763   4.594  1.4936 -1.4186  0.7548
 3778SOL     OW11698   1.229   5.579   3.918  0.0811  0.2666  0.1283
 3778SOL    HW111699   1.238   5.611   3.828  1.7891 -0.0197  0.1772
 3778SOL    HW211700   1.313   5.538   3.939 -1.3422 -2.7319  0.6859
 3779SOL     OW11701   3.805   4.085   6.425 -0.0626 -0.4963  0.5900
 3779SOL    HW111702   3.739   4.135   6.377  0.3800 -0.9977 -0.5846
 3779SOL    HW211703   3.768   3.996   6.431  1.0491 -1.1415 -1.3024
 3780SOL     OW11704   5.762   0.066   5.152  0.5830 -0.2340 -0.1276
 3780SOL    HW111705   5.789  -0.025   5.167 -0.6621 -0.4284  1.1172
 3780SOL    HW211706   5.733   0.097   5.238  1.0773  1.3955 -0.5059
 3781SOL     OW11707   5.652   3.683   2.413  0.6306 -0.1271  0.7541
 3781SOL    HW111708   5.593   3.667   2.339  0.9351 -0.1332  0.5110
 3781SOL    HW211709   5.628   3.617   2.477  0.6434 -0.3845  0.4951
 3782SOL     OW11710   5.629   0.197   6.326  0.3953  0.0251  0.1682
 3782SOL    HW111711   5.606   0.222   6.416  1.2043 -0.2792  0.4694
 3782SOL    HW211712   5.547   0.206   6.277 -0.5832 -1.7418  1.3503
 3783SOL     OW11713   6.388   1.781   2.223  0.2486 -0.1246  0.3757
 3783SOL    HW111714   6.411   1.821   2.307  2.5337 -1.6021  0.5101
 3783SOL    HW211715   6.459   1.721   2.204  1.1907  1.9481 -3.8770
 3784SOL     OW11716   4.212   3.993   1.334 -0.3431  0.3428 -0.6332
 3784SOL    HW111717   4.304   4.017   1.345 -0.2372 -0.4262  0.2836
 3784SOL    HW211718   4.165   4.076   1.339  0.1748  0.5826  0.4729
 3785SOL     OW11719   6.674   0.479   5.398  0.0794 -0.0367 -0.2899
 3785SOL    HW111720   6.751   0.511   5.351  0.4928  0.5003  0.7260
 3785SOL    HW211721   6.705   0.464   5.487 -1.2998  1.5071  0.5079
 3786SOL     OW11722   3.448   3.208   5.377  0.4623 -0.4000 -0.4406
 3786SOL    HW111723   3.525   3.152   5.375 -0.2262 -1.5828  2.3276
 3786SOL    HW211724   3.376   3.151   5.351  0.3889  0.6059 -2.6577
 3787SOL     OW11725   3.468   1.207   5.627  0.1397 -0.3417 -0.0423
 3787SOL    HW111726   3.561   1.202   5.648 -0.2870 -0.2340  2.1786
 3787SOL    HW211727   3.443   1.117   5.607  0.6118 -0.4612 -0.1087
 3788SOL     OW11728   3.625   2.054   4.272 -0.1434  0.1711 -0.6683
 3788SOL    HW111729   3.569   1.976   4.266  0.0250  0.0343 -0.4801
 3788SOL    HW211730   3.576   2.114   4.329  0.4254 -0.4136  0.4828
 3789SOL     OW11731   2.305   5.059   3.330 -0.3861  0.7351 -0.7980
 3789SOL    HW111732   2.299   5.122   3.259 -0.9294 -0.3655 -1.7658
 3789SOL    HW211733   2.220   5.015   3.331 -0.4994  0.9332  0.7432
 3790SOL     OW11734   2.154   0.105   4.498 -0.2953 -0.4428  0.1956
 3790SOL    HW111735   2.119   0.017   4.511  0.0160 -0.3562  1.7758
 3790SOL    HW211736   2.125   0.130   4.411 -2.1608 -1.2793  0.5457
 3791SOL     OW11737   5.402   5.062   3.330 -0.3499  0.2508  0.4434
 3791SOL    HW111738   5.446   5.109   3.400 -1.0872 -0.0972  1.1603
 3791SOL    HW211739   5.363   4.986   3.373 -0.6496 -0.0748 -0.3801
 3792SOL     OW11740   3.967   1.283   1.227 -0.0001 -0.2867 -0.2195
 3792SOL    HW111741   4.012   1.204   1.257 -2.1888 -1.1759  0.9569
 3792SOL    HW211742   4.034   1.351   1.230  1.2651 -1.5020  1.5716
 3793SOL     OW11743   4.927   1.365   6.313 -0.4186 -0.2084  0.2856
 3793SOL    HW111744   4.921   1.458   6.293 -0.4102 -0.2522  0.0791
 3793SOL    HW211745   5.021   1.349   6.323 -0.1799 -0.6741 -2.0213
 3794SOL     OW11746   2.207   6.127   3.145 -0.5196 -0.0130  0.2662
 3794SOL    HW111747   2.214   6.119   3.050 -0.9217  2.1038 -0.0018
 3794SOL    HW211748   2.297   6.138   3.175 -0.5630  2.2075 -0.2537
 3795SOL     OW11749   1.773   0.487   3.077 -0.4210 -0.2801  0.4811
 3795SOL    HW111750   1.847   0.542   3.052  0.2787 -0.0820  2.7296
 3795SOL    HW211751   1.797   0.399   3.050  1.7448 -0.6120  3.0987
 3796SOL     OW11752   6.146   6.719   6.588 -0.8485 -0.1054  0.2463
 3796SOL    HW111753   6.151   6.811   6.615 -0.4936 -0.8955  3.3139
 3796SOL    HW211754   6.237   6.690   6.588 -0.9690 -0.5132 -0.6025
 3797SOL     OW11755   6.715   4.120   3.206  0.0951  0.7016 -0.6439
 3797SOL    HW111756   6.805   4.145   3.227  0.3520 -0.6538  0.0333
 3797SOL    HW211757   6.724   4.051   3.140 -0.3497 -0.3175  0.3100
 3798SOL     OW11758   3.779   4.356   5.639 -0.2175  0.4381  0.1608
 3798SOL    HW111759   3.710   4.406   5.680 -0.9790 -0.9157  0.6037
 3798SOL    HW211760   3.860   4.387   5.681 -0.4477  2.3924 -0.7281
 3799SOL     OW11761   1.341   6.682   1.056 -0.7078  0.3248  0.1789
 3799SOL    HW111762   1.392   6.614   1.012 -0.9560  1.7258 -2.4729
 3799SOL    HW211763   1.390   6.763   1.041 -2.7382  1.4363 -0.9079
 3800SOL     OW11764   5.776   2.108   1.099 -0.0949 -0.0643  0.1199
 3800SOL    HW111765   5.845   2.174   1.100 -0.6449  0.5503 -0.8504
 3800SOL    HW211766   5.699   2.154   1.064  0.0303 -1.6691 -2.5469
 3801SOL     OW11767   4.214   2.549   5.452 -0.5264  0.2227  0.0786
 3801SOL    HW111768   4.162   2.585   5.524 -0.2126  0.5324  0.1565
 3801SOL    HW211769   4.255   2.471   5.489  3.0018  2.5564  1.6641
 3802SOL     OW11770   4.275   4.748   6.712  0.0141  0.3536  0.7989
 3802SOL    HW111771   4.294   4.707   6.628  0.5274 -1.3194  1.6870
 3802SOL    HW211772   4.264   4.841   6.692  3.6354  0.6205 -0.6158
 3803SOL     OW11773   4.567   6.130   0.032  0.0433 -0.1358  0.2795
 3803SOL    HW111774   4.491   6.151   0.085  1.9724  1.0766  2.7348
 3803SOL    HW211775   4.541   6.155  -0.057 -2.2502  0.6284  1.0793
 3804SOL     OW11776   5.470   4.344   4.837  0.2283  0.5689  0.3533
 3804SOL    HW111777   5.519   4.422   4.862  1.7682 -0.3614  0.3634
 3804SOL    HW211778   5.419   4.321   4.914  2.0806 -0.1344  1.4395
 3805SOL     OW11779   3.736   1.565   1.779  0.0582 -0.2327  0.2432
 3805SOL    HW111780   3.830   1.580   1.764  0.1682 -2.1219 -1.4988
 3805SOL    HW211781   3.734   1.489   1.837 -0.2597 -2.5428 -2.5706
 3806SOL     OW11782   1.136   0.960   6.371  0.2185 -0.4066  0.1743
 3806SOL    HW111783   1.148   1.029   6.305 -0.8090 -0.2897  0.0830
 3806SOL    HW211784   1.211   0.903   6.360  0.6053  0.1903 -0.3912
 3807SOL     OW11785   3.876   1.162   3.408  0.3054  0.0120  0.5783
 3807SOL    HW111786   3.802   1.190   3.354  1.4688 -1.7959 -2.1720
 3807SOL    HW211787   3.949   1.153   3.346  2.5701  0.6671  2.9882
 3808SOL     OW11788   1.307   4.782   1.086  0.7270  0.3736  0.2270
 3808SOL    HW111789   1.298   4.723   1.012 -0.7908 -0.2230  0.8481
 3808SOL    HW211790   1.333   4.725   1.159 -0.9505  0.3868  0.8790
 3809SOL     OW11791   3.586   6.273   1.062 -0.3412 -0.2920 -0.4853
 3809SOL    HW111792   3.672   6.236   1.045  0.3274  1.8762 -2.2231
 3809SOL    HW211793   3.593   6.313   1.149 -0.7184 -3.0129  0.8835
 3810SOL     OW11794   4.072   4.465   1.581 -0.1003  0.3340  0.6961
 3810SOL    HW111795   4.045   4.529   1.515  0.9264  0.6684  0.5736
 3810SOL    HW211796   4.133   4.513   1.637  0.1982 -0.3639  0.9798
 3811SOL     OW11797   6.105   5.374   3.761 -0.2281 -0.0629  0.1794
 3811SOL    HW111798   6.052   5.430   3.817  1.3003 -0.1630  1.7923
 3811SOL    HW211799   6.191   5.417   3.757  0.4283 -1.3343 -0.0629
 3812SOL     OW11800   0.623   2.152   6.744  0.2642 -0.3339 -0.7374
 3812SOL    HW111801   0.623   2.247   6.734 -0.4682  0.1610  2.7651
 3812SOL    HW211802   0.536   2.125   6.716 -0.2898  0.3491  0.2737
 3813SOL     OW11803   0.261   5.088   6.633 -0.3084  0.7522 -0.6572
 3813SOL    HW111804   0.339   5.054   6.589  2.2033  2.3973  2.0818
 3813SOL    HW211805   0.277   5.182   6.640 -1.4627  0.8369  1.8687
 3814SOL     OW11806   5.150   1.047   6.088 -0.1137  0.1969 -0.2457
 3814SOL    HW111807   5.160   1.137   6.121 -1.8422  0.6504 -0.8476
 3814SOL    HW211808   5.154   0.993   6.167  0.0737  0.8878  0.2358
 3815SOL     OW11809   4.079   3.007   0.689 -0.2822  0.5940 -0.1776
 3815SOL    HW111810   4.131   3.056   0.753 -0.7860 -0.3889  1.0291
 3815SOL    HW211811   4.136   2.936   0.660 -0.5078  0.2576  0.1932
 3816SOL     OW11812   3.825   2.468   2.414  0.3448  0.8083  0.4424
 3816SOL    HW111813   3.733   2.468   2.439 -0.3231  2.4597 -1.7610
 3816SOL    HW211814   3.828   2.513   2.330  2.9749 -0.5587 -0.3334
 3817SOL     OW11815   4.828   2.778   4.737  0.2325  0.6057 -0.4763
 3817SOL    HW111816   4.789   2.841   4.798  1.3055 -0.5810  1.5534
 3817SOL    HW211817   4.893   2.828   4.689 -0.9377  1.6716 -1.0040
 3818SOL     OW11818   4.854   2.794   0.228 -0.3922 -0.6880  0.0889
 3818SOL    HW111819   4.883   2.807   0.318 -1.5608 -1.6897  0.6422
 3818SOL    HW211820   4.789   2.863   0.213  2.1129  1.6004 -1.1732
 3819SOL     OW11821   3.775   0.304   2.886 -0.1582  0.0678 -0.4079
 3819SOL    HW111822   3.783   0.396   2.861 -1.7433  0.4434  0.3316
 3819SOL    HW211823   3.849   0.288   2.945 -0.9358  1.4619  1.0207
 3820SOL     OW11824   2.870   1.505   1.869 -0.1781 -0.5537  0.2506
 3820SOL    HW111825   2.785   1.545   1.891  0.6977  2.0212 -0.6976
 3820SOL    HW211826   2.848   1.430   1.815 -1.9877 -2.3038  3.1399
 3821SOL     OW11827   0.218   0.300   1.545 -0.9573  0.2110  0.3627
 3821SOL    HW111828   0.282   0.278   1.613  0.4228 -0.3299 -1.0609
 3821SOL    HW211829   0.155   0.228   1.546  0.6326 -1.2605 -0.7764
 3822SOL     OW11830   6.069   2.640   6.787 -0.0250 -0.2577  0.0369
 3822SOL    HW111831   6.041   2.558   6.747 -0.6087 -1.3434  2.4461
 3822SOL    HW211832   5.991   2.695   6.787 -0.6315 -1.0543  1.4635
 3823SOL     OW11833   1.385   1.155   4.688 -0.3342 -0.1114  0.0021
 3823SOL    HW111834   1.479   1.152   4.672 -0.3779  0.6223 -0.4377
 3823SOL    HW211835   1.367   1.246   4.713 -0.8581 -0.3447  0.5000
 3824SOL     OW11836   6.101   2.930   0.818  0.4728 -0.2106 -0.5132
 3824SOL    HW111837   6.087   2.840   0.847 -0.1969  0.2032  0.5127
 3824SOL    HW211838   6.195   2.945   0.828  0.6508 -0.9048 -1.0585
 3825SOL     OW11839   4.488   4.600   5.827  0.1728 -0.2340 -0.0847
 3825SOL    HW111840   4.540   4.520   5.833  1.4457  0.5972  0.3673
 3825SOL    HW211841   4.535   4.663   5.882 -0.5078  0.9734 -0.8477
 3826SOL     OW11842   5.627   1.764   2.627  0.2926  0.3904 -0.9459
 3826SOL    HW111843   5.545   1.790   2.668 -0.8976 -1.8212 -1.7612
 3826SOL    HW211844   5.669   1.708   2.692 -0.2923 -0.8898 -1.6420
 3827SOL     OW11845   2.284   5.894   0.420  0.4283  0.5685 -0.6528
 3827SOL    HW111846   2.221   5.966   0.425 -1.5087 -1.0928  0.0624
 3827SOL    HW211847   2.256   5.843   0.344  2.4680  1.1099 -1.8426
 3828SOL     OW11848   0.181   6.243   1.899 -0.5915  0.0822  0.2500
 3828SOL    HW111849   0.275   6.226   1.894 -0.5638  0.4580 -0.7873
 3828SOL    HW211850   0.157   6.271   1.811 -1.2838  1.9594  0.9800
 3829SOL     OW11851   1.466   0.655   0.327  0.2563 -0.2141 -0.6079
 3829SOL    HW111852   1.483   0.723   0.262  0.4349 -0.9562 -1.3647
 3829SOL    HW211853   1.415   0.698   0.395  0.4661  0.6982 -1.0203
 3830SOL     OW11854   6.140   4.088   0.722 -0.0691  0.3843  0.2454
 3830SOL    HW111855   6.214   4.129   0.765  0.4481  0.3784 -0.6226
 3830SOL    HW211856   6.134   4.132   0.637 -1.6720  1.0736  0.6786
 3831SOL     OW11857   0.181   5.851   1.560 -0.2154  0.3161 -0.1835
 3831SOL    HW111858   0.243   5.915   1.594  0.9654 -1.1819  0.6117
 3831SOL    HW211859   0.226   5.813   1.484  0.4166 -1.6053  1.0827
 3832SOL     OW11860   4.581   4.448   2.379  0.3825  0.4703 -0.3267
 3832SOL    HW111861   4.537   4.366   2.400  1.6075 -0.3655 -0.9496
 3832SOL    HW211862   4.540   4.476   2.297  0.0077  0.4618 -0.1468
 3833SOL     OW11863   4.024   5.514   3.149  0.0676 -0.3050  0.9622
 3833SOL    HW111864   3.934   5.491   3.167  0.0331 -1.3112 -0.2947
 3833SOL    HW211865   4.075   5.438   3.178  0.0153 -1.9165 -2.6118
 3834SOL     OW11866   5.363   2.097   2.274  0.5004 -0.0763 -0.2374
 3834SOL    HW111867   5.425   2.136   2.212  0.8471 -4.1153 -2.7759
 3834SOL    HW211868   5.419   2.053   2.338  0.1188  1.3400  1.1300
 3835SOL     OW11869   3.865   6.289   2.810 -0.2484 -0.1442 -0.3199
 3835SOL    HW111870   3.850   6.345   2.886  2.1158  0.4753 -0.2266
 3835SOL    HW211871   3.804   6.321   2.743 -1.1187  0.4405  0.7308
 3836SOL     OW11872   2.995   1.740   0.173 -0.1138  0.7896  0.3467
 3836SOL    HW111873   2.975   1.649   0.194  0.2923  0.5689 -0.2005
 3836SOL    HW211874   3.088   1.749   0.190 -0.0096  0.9110 -0.2607
 3837SOL     OW11875   6.645   4.547   5.452 -0.0601  0.3216 -0.1014
 3837SOL    HW111876   6.587   4.538   5.528  0.5146  0.8896  0.4280
 3837SOL    HW211877   6.732   4.555   5.490  0.4532 -1.0919 -0.9022
 3838SOL     OW11878   2.063   0.102   1.477 -0.2343 -0.6393 -0.0184
 3838SOL    HW111879   2.020   0.184   1.502  2.5606  0.8144  0.4269
 3838SOL    HW211880   2.141   0.130   1.429  0.5514 -3.0779 -0.2905
 3839SOL     OW11881   6.600   6.387   5.723 -0.4267 -0.1135  0.1621
 3839SOL    HW111882   6.617   6.293   5.728 -0.6651 -0.1530  0.2336
 3839SOL    HW211883   6.506   6.396   5.738 -0.2781  0.2016  1.0045
 3840SOL     OW11884   5.824   1.623   2.766 -0.8386 -0.0888  0.3409
 3840SOL    HW111885   5.909   1.610   2.806 -0.7600  0.6507  0.4266
 3840SOL    HW211886   5.840   1.614   2.672 -0.5115  0.8161  0.3029
 3841SOL     OW11887   1.751   2.835   2.336 -0.5194 -0.6050  0.3233
 3841SOL    HW111888   1.682   2.793   2.387 -0.9302 -1.6847 -1.0582
 3841SOL    HW211889   1.790   2.899   2.396 -1.0437 -1.7307  1.9381
 3842SOL     OW11890   3.130   1.712   2.381 -0.0686  0.0078 -0.4010
 3842SOL    HW111891   3.077   1.784   2.415 -0.8535 -1.8552  2.7072
 3842SOL    HW211892   3.067   1.647   2.350  0.5806 -0.2098 -1.3212
 3843SOL     OW11893   2.464   3.175   0.848 -0.2621  0.5488 -0.3838
 3843SOL    HW111894   2.398   3.222   0.899 -0.0779  3.3912 -2.5033
 3843SOL    HW211895   2.548   3.210   0.879  0.0223  0.1132 -0.6443
 3844SOL     OW11896   5.524   4.323   6.090  0.2153  0.1698 -0.2057
 3844SOL    HW111897   5.540   4.393   6.153  1.2482 -0.2360  0.0109
 3844SOL    HW211898   5.577   4.249   6.123 -0.5327 -0.5772 -0.6418
 3845SOL     OW11899   2.158   6.499   4.682  0.4346  0.3637 -0.7996
 3845SOL    HW111900   2.101   6.422   4.692  1.6040 -0.4218  0.0645
 3845SOL    HW211901   2.156   6.518   4.588 -0.3121 -0.3642 -0.9492
 3846SOL     OW11902   1.143   0.274   2.559  0.4162 -0.4106 -0.4694
 3846SOL    HW111903   1.088   0.263   2.481  0.3746  0.6767 -0.6014
 3846SOL    HW211904   1.095   0.228   2.628  2.0546 -4.3908 -1.7093
 3847SOL     OW11905   3.608   3.384   4.972  0.1650  0.1161  0.3868
 3847SOL    HW111906   3.534   3.356   5.027 -0.3600  1.0251  0.1576
 3847SOL    HW211907   3.585   3.472   4.944 -0.2512 -0.8242 -2.4904
 3848SOL     OW11908   0.685   3.216   3.529 -0.3115  0.3632  0.3797
 3848SOL    HW111909   0.743   3.140   3.521  0.7079  0.4360  4.5124
 3848SOL    HW211910   0.733   3.288   3.488  0.8017 -0.3563  0.3793
 3849SOL     OW11911   5.391   1.147   6.722  0.5670  0.2265  0.0086
 3849SOL    HW111912   5.408   1.196   6.642  0.1033 -0.4445 -0.5070
 3849SOL    HW211913   5.428   1.061   6.707  0.0090 -0.0751  0.3071
 3850SOL     OW11914   4.298   2.599   0.087 -0.0715 -0.6791  0.1298
 3850SOL    HW111915   4.312   2.601   0.182 -0.3534 -1.5151  0.1879
 3850SOL    HW211916   4.382   2.630   0.051 -0.5696  1.4950  0.6754
 3851SOL     OW11917   4.026   1.942   6.048  0.4568  0.0648  0.2657
 3851SOL    HW111918   3.963   1.955   6.120 -0.9639  0.1835 -0.9455
 3851SOL    HW211919   3.971   1.930   5.971  1.8477 -3.2659 -0.3692
 3852SOL     OW11920   4.766   3.149   1.873  0.0952  0.2013  0.3889
 3852SOL    HW111921   4.761   3.126   1.966  1.3909 -0.5984  0.2881
 3852SOL    HW211922   4.680   3.125   1.838 -0.5452  0.8925  1.4531
 3853SOL     OW11923   2.067   3.590   1.257  0.3160 -0.3988  0.0451
 3853SOL    HW111924   2.098   3.613   1.344  0.2048  1.2048 -0.3062
 3853SOL    HW211925   2.116   3.648   1.198 -0.7479 -0.3292 -0.8006
 3854SOL     OW11926   4.286   3.600   1.608  0.3489 -0.0607 -0.0894
 3854SOL    HW111927   4.192   3.592   1.626  0.2795 -0.2352 -0.5239
 3854SOL    HW211928   4.291   3.670   1.542  0.5966  0.5417  0.5510
 3855SOL     OW11929   1.833   3.223   0.012  0.1977  0.3458 -0.4461
 3855SOL    HW111930   1.763   3.289   0.015 -0.3902 -0.1998 -1.5137
 3855SOL    HW211931   1.817   3.167   0.088  0.6456  1.3472  0.4166
 3856SOL     OW11932   3.581   3.714   2.308  0.0522 -0.4821  0.1146
 3856SOL    HW111933   3.507   3.768   2.337 -0.0518 -0.0041 -0.9895
 3856SOL    HW211934   3.613   3.672   2.388 -1.1784 -0.4072  0.6648
 3857SOL     OW11935   4.545   0.745   4.529 -0.4260  0.6900 -0.4308
 3857SOL    HW111936   4.613   0.742   4.461 -0.1976 -0.0545 -0.1763
 3857SOL    HW211937   4.485   0.814   4.499 -0.2959  0.4176 -1.3563
 3858SOL     OW11938   5.321   0.785   0.494  0.3291  0.1148 -0.0589
 3858SOL    HW111939   5.403   0.743   0.468  0.0894 -0.2764 -0.2014
 3858SOL    HW211940   5.286   0.820   0.412  0.5552  0.6502  0.0684
 3859SOL     OW11941   3.583   6.571   4.471  0.2697  0.3730  0.3039
 3859SOL    HW111942   3.491   6.595   4.457  0.3789 -0.1299 -1.4931
 3859SOL    HW211943   3.628   6.605   4.394  1.2541 -1.1665  0.1753
 3860SOL     OW11944   4.249   1.816   5.948 -0.4926  0.8208 -0.4137
 3860SOL    HW111945   4.227   1.806   5.855 -1.3411 -1.4315 -0.0350
 3860SOL    HW211946   4.182   1.876   5.982 -1.6117 -0.1551 -0.8150
 3861SOL     OW11947   0.079   1.066   4.936 -0.3701  0.2563 -0.3065
 3861SOL    HW111948   0.077   1.161   4.928 -0.5863  0.3406  0.6292
 3861SOL    HW211949   0.075   1.034   4.846 -1.7858  1.1120 -0.5681
 3862SOL     OW11950   1.829   6.262   5.256 -0.0287 -0.4228  0.3337
 3862SOL    HW111951   1.825   6.173   5.222  0.4962 -0.0773 -0.6700
 3862SOL    HW211952   1.802   6.318   5.183 -1.2995  0.1949  1.2444
 3863SOL     OW11953   4.498   6.554   3.771 -0.5291  0.3209  0.9161
 3863SOL    HW111954   4.583   6.593   3.789 -1.4053  1.5678  2.7728
 3863SOL    HW211955   4.451   6.621   3.721  0.0252 -0.9511 -1.4023
 3864SOL     OW11956   4.169   5.924   6.123  0.5191 -0.3897  0.4347
 3864SOL    HW111957   4.129   5.955   6.042  0.6880 -2.6946 -0.6165
 3864SOL    HW211958   4.102   5.938   6.189 -0.2493  0.0529 -0.4067
 3865SOL     OW11959   1.998   6.747   4.218  0.3339 -0.3357 -0.7551
 3865SOL    HW111960   2.011   6.839   4.198  2.4892 -0.5816 -0.6791
 3865SOL    HW211961   1.981   6.706   4.134  1.5129 -0.1719 -1.0891
 3866SOL     OW11962   0.733   3.200   0.459 -0.6526 -0.0649 -0.4892
 3866SOL    HW111963   0.763   3.229   0.545 -0.7159 -0.2531 -0.4038
 3866SOL    HW211964   0.772   3.114   0.447 -0.6930 -0.0644 -0.6224
 3867SOL     OW11965   1.151   5.951   3.746 -0.0808  0.7711 -0.0786
 3867SOL    HW111966   1.161   5.948   3.651 -1.0318 -0.1631 -0.1664
 3867SOL    HW211967   1.177   6.040   3.770 -0.1510  1.1239 -1.2410
 3868SOL     OW11968   0.893   2.833   3.206  0.5889 -0.2462 -0.2127
 3868SOL    HW111969   0.913   2.856   3.297  2.4017  1.4560 -0.9575
 3868SOL    HW211970   0.939   2.750   3.191 -0.5957 -1.0861  0.6921
 3869SOL     OW11971   4.729   3.832   3.824  0.5640 -0.6754 -0.6367
 3869SOL    HW111972   4.679   3.850   3.904  0.3305 -0.3113 -0.8607
 3869SOL    HW211973   4.689   3.753   3.788  0.0205 -0.2787 -0.9137
 3870SOL     OW11974   2.894   5.414   0.499  0.2363  0.6015 -0.0639
 3870SOL    HW111975   2.896   5.508   0.478  0.1539  0.2701 -1.7058
 3870SOL    HW211976   2.816   5.404   0.552 -0.8333  1.2032 -1.4387
 3871SOL     OW11977   2.692   1.884   4.468  0.2668 -0.0434  0.0684
 3871SOL    HW111978   2.756   1.955   4.478  1.2384 -1.0810  1.4388
 3871SOL    HW211979   2.736   1.806   4.502 -0.3539 -1.5955 -2.4561
 3872SOL     OW11980   3.584   5.443   0.493  0.3945  0.0129 -0.5409
 3872SOL    HW111981   3.495   5.408   0.500  0.3282  0.3522  0.5580
 3872SOL    HW211982   3.624   5.393   0.422 -0.3048 -0.9355 -0.2929
 3873SOL     OW11983   4.856   3.359   3.443  0.1286  0.0016 -0.0958
 3873SOL    HW111984   4.830   3.286   3.386  1.3267 -1.9956  1.7580
 3873SOL    HW211985   4.775   3.383   3.489 -0.2774 -0.1440 -0.7169
 3874SOL     OW11986   0.525   6.306   0.592  0.3323  0.0988  0.2724
 3874SOL    HW111987   0.615   6.282   0.570  0.3568 -0.7467  1.2032
 3874SOL    HW211988   0.473   6.228   0.570 -0.0654  0.3265  0.3887
 3875SOL     OW11989   6.359   6.310   4.717  0.3494  0.4225  0.0650
 3875SOL    HW111990   6.429   6.249   4.740 -0.9691 -0.6151  1.4805
 3875SOL    HW211991   6.336   6.353   4.799 -0.1849  1.3143 -0.5230
 3876SOL     OW11992   5.040   0.321   6.211  0.4971 -0.1754  0.5764
 3876SOL    HW111993   4.944   0.312   6.214  0.6542 -2.3411  0.6575
 3876SOL    HW211994   5.056   0.374   6.133 -0.7064 -2.0504 -1.0337
 3877SOL     OW11995   2.250   3.462   4.033  0.2828 -0.3330 -0.4023
 3877SOL    HW111996   2.238   3.526   3.963  1.6326 -0.7940 -1.0985
 3877SOL    HW211997   2.193   3.492   4.103  0.5697  1.4140 -0.8690
 3878SOL     OW11998   6.650   4.716   0.972  0.0755  0.1660 -0.4466
 3878SOL    HW111999   6.612   4.728   0.885 -2.7735 -0.8334  0.5161
 3878SOL    HW212000   6.682   4.625   0.972 -0.1643  0.0800 -0.3913
 3879SOL     OW12001   4.077   1.153   3.233 -0.1408  0.0466  0.2146
 3879SOL    HW112002   4.118   1.074   3.267  1.5136  1.3430  1.4046
 3879SOL    HW212003   4.148   1.202   3.191 -0.9501  1.2228  0.1404
 3880SOL     OW12004   1.367   1.195   5.802 -0.2666  0.0427 -0.3973
 3880SOL    HW112005   1.381   1.271   5.744  1.5943  2.6147  3.0045
 3880SOL    HW212006   1.285   1.214   5.847 -0.8143 -1.0496 -0.9025
 3881SOL     OW12007   0.061   3.244   5.327  0.2525  0.4503  0.0853
 3881SOL    HW112008   0.105   3.304   5.267 -1.1447  0.9637 -0.4614
 3881SOL    HW212009   0.025   3.300   5.396 -1.0499  0.2488 -0.4189
 3882SOL     OW12010   4.641   0.405   3.847  0.1634 -0.1142  0.0883
 3882SOL    HW112011   4.611   0.420   3.758 -0.6885  0.4292  0.4563
 3882SOL    HW212012   4.645   0.492   3.887 -2.9898 -0.5640  1.6573
 3883SOL     OW12013   2.953   6.592   2.232 -0.1207  0.0239  0.5502
 3883SOL    HW112014   2.868   6.632   2.214  1.2750  2.1084 -2.3304
 3883SOL    HW212015   2.951   6.509   2.186 -0.4004  0.3506 -0.0362
 3884SOL     OW12016   5.152   6.433   3.790 -0.1231 -0.4670 -0.3529
 3884SOL    HW112017   5.182   6.347   3.763 -1.0649 -1.3915  1.4048
 3884SOL    HW212018   5.091   6.417   3.862 -0.3258  1.6616  0.0388
 3885SOL     OW12019   5.493   5.793   3.938  0.3677  0.4350  0.9113
 3885SOL    HW112020   5.546   5.721   3.972  2.8227  1.1445 -1.0775
 3885SOL    HW212021   5.468   5.765   3.851  2.3256  2.2880 -0.3645
 3886SOL     OW12022   0.367   0.656   6.061  0.0571  0.8856 -0.5465
 3886SOL    HW112023   0.296   0.630   6.120  0.5162  3.0881  1.1215
 3886SOL    HW212024   0.446   0.647   6.115  0.6513  1.6612 -1.2610
 3887SOL     OW12025   4.149   2.976   2.280 -0.0777  0.0312 -0.2277
 3887SOL    HW112026   4.218   2.927   2.325  1.0147  1.9367  0.2468
 3887SOL    HW212027   4.088   3.001   2.350  0.3124  0.8559 -0.1714
 3888SOL     OW12028   5.715   0.460   3.818 -0.1213 -0.3195  0.4643
 3888SOL    HW112029   5.711   0.487   3.910  0.1177  1.8205 -0.0872
 3888SOL    HW212030   5.631   0.416   3.802 -0.2735 -0.4880  1.6296
 3889SOL     OW12031   0.768   5.615   0.355 -0.3685 -0.1752  0.3833
 3889SOL    HW112032   0.801   5.677   0.290 -3.0310  0.2644 -0.6611
 3889SOL    HW212033   0.763   5.532   0.308 -1.9036  0.0535  0.0872
 3890SOL     OW12034   6.077   6.464   0.381 -0.0016 -0.4732  0.4196
 3890SOL    HW112035   6.121   6.528   0.437 -1.4307  0.6466  0.3354
 3890SOL    HW212036   6.147   6.425   0.330  0.8212  2.0887 -0.5856
 3891SOL     OW12037   0.903   3.827   0.135 -0.2836  0.4405  0.1072
 3891SOL    HW112038   0.931   3.757   0.076 -0.4386  0.9990 -0.6438
 3891SOL    HW212039   0.822   3.860   0.097  0.2812  1.6669 -0.0891
 3892SOL     OW12040   4.268   5.672   0.032 -0.8913 -0.1601  0.8719
 3892SOL    HW112041   4.236   5.683  -0.058 -1.5289 -1.1146  0.9627
 3892SOL    HW212042   4.277   5.761   0.066 -0.7897  0.2043 -0.0836
 3893SOL     OW12043   4.274   4.304   3.734  0.4994 -0.2334  0.5332
 3893SOL    HW112044   4.265   4.393   3.766 -0.3712 -0.7291  1.7379
 3893SOL    HW212045   4.288   4.252   3.813  0.5540 -1.2175 -0.1106
 3894SOL     OW12046   0.370   2.309   3.213  0.1387 -0.2677 -0.2407
 3894SOL    HW112047   0.393   2.377   3.149  0.6895 -0.1656  0.0625
 3894SOL    HW212048   0.300   2.348   3.265  0.3615  0.0206 -0.1536
 3895SOL     OW12049   1.944   2.847   4.954  0.3313  0.0080  0.2063
 3895SOL    HW112050   1.967   2.910   4.885 -1.0838 -0.4632 -0.7539
 3895SOL    HW212051   2.013   2.781   4.950  0.4246  0.1371 -0.5720
 3896SOL     OW12052   4.182   6.064   2.015 -0.5654  0.0644  0.2514
 3896SOL    HW112053   4.249   6.131   2.008  0.6059 -0.7782  2.4339
 3896SOL    HW212054   4.209   5.996   1.954 -1.8057  1.4771 -2.0411
 3897SOL     OW12055   5.297   5.884   4.390  0.3750 -1.1736  0.5869
 3897SOL    HW112056   5.239   5.809   4.387  1.3404 -1.9256 -1.2667
 3897SOL    HW212057   5.321   5.899   4.298  0.8549  0.8837  0.9986
 3898SOL     OW12058   3.796   3.848   0.925  0.0024 -0.0609  0.8805
 3898SOL    HW112059   3.841   3.879   1.004 -0.2806  0.5429  0.8087
 3898SOL    HW212060   3.866   3.815   0.869  0.4249  1.3161  0.5715
 3899SOL     OW12061   0.140   3.439   2.122 -0.1062  0.1866 -0.0488
 3899SOL    HW112062   0.095   3.455   2.038  0.9017 -0.7076 -0.7906
 3899SOL    HW212063   0.229   3.415   2.097  0.2299 -0.0445  1.2964
 3900SOL     OW12064   4.583   0.408   1.851 -0.2387 -0.3881  0.6179
 3900SOL    HW112065   4.597   0.495   1.889  1.6743 -0.5576  0.3970
 3900SOL    HW212066   4.575   0.351   1.927  0.4978 -0.2893  0.7768
 3901SOL     OW12067   5.498   4.733   0.220 -0.0550 -0.8871  0.2746
 3901SOL    HW112068   5.569   4.785   0.258  1.9714 -2.1504 -1.5762
 3901SOL    HW212069   5.522   4.722   0.128 -2.4386 -1.7850 -0.3220
 3902SOL     OW12070   4.771   1.388   0.988 -0.1228  0.0951  0.4352
 3902SOL    HW112071   4.725   1.461   0.947  1.2481  1.1459  0.7030
 3902SOL    HW212072   4.780   1.323   0.918  2.2311  1.8673 -1.0605
 3903SOL     OW12073   6.317   0.035   6.081 -0.4598  0.0439 -0.0524
 3903SOL    HW112074   6.284  -0.021   6.151 -1.7916  0.3237 -0.4236
 3903SOL    HW212075   6.391  -0.013   6.044 -1.3412 -1.3022 -0.1226
 3904SOL     OW12076   4.338   3.466   0.157 -0.1398 -0.6042 -0.1142
 3904SOL    HW112077   4.366   3.487   0.246  2.2973  0.7110 -1.0840
 3904SOL    HW212078   4.281   3.390   0.167  0.4040 -0.7727  2.5170
 3905SOL     OW12079   6.499   6.198   1.076 -0.4121 -0.2095 -0.3729
 3905SOL    HW112080   6.446   6.118   1.081 -0.6097 -0.1851 -1.7729
 3905SOL    HW212081   6.461   6.255   1.144 -1.4528 -0.6213 -0.5826
 3906SOL     OW12082   5.602   2.978   3.397  0.0236  0.7718  0.0675
 3906SOL    HW112083   5.550   2.956   3.475 -0.0900 -0.5057 -0.3402
 3906SOL    HW212084   5.585   3.071   3.383 -1.9161  0.4776  0.1323
 3907SOL     OW12085   6.071   1.956   1.084 -0.0844  0.0133  0.3712
 3907SOL    HW112086   6.146   2.002   1.048  0.2232 -2.1749 -2.0704
 3907SOL    HW212087   6.062   1.991   1.173  0.8420  3.7609 -0.8111
 3908SOL     OW12088   2.160   1.262   6.740 -0.4954  0.1210  0.1282
 3908SOL    HW112089   2.084   1.319   6.729 -0.7745 -0.2170  0.3171
 3908SOL    HW212090   2.202   1.262   6.655 -0.2706  0.9297  0.2254
 3909SOL     OW12091   2.599   3.574   4.377  0.1216  0.7551  0.3163
 3909SOL    HW112092   2.646   3.595   4.457 -1.4840 -0.3733  1.6306
 3909SOL    HW212093   2.574   3.659   4.340  0.5796  1.2893  1.2138
 3910SOL     OW12094   1.612   0.031   2.382  0.4411  0.8784 -0.5689
 3910SOL    HW112095   1.593   0.123   2.395 -1.2617  0.3221  1.3496
 3910SOL    HW212096   1.561   0.006   2.305  0.5740  1.4115 -0.8352
 3911SOL     OW12097   4.509   0.642   0.635  0.3956 -0.2922 -0.6409
 3911SOL    HW112098   4.490   0.582   0.564  0.3098  0.1192 -0.9710
 3911SOL    HW212099   4.444   0.712   0.626  0.5339 -0.1169 -0.3052
 3912SOL     OW12100   4.863   2.713   6.617 -0.0900  0.6056 -0.4599
 3912SOL    HW112101   4.915   2.784   6.656  2.9296 -1.6583  0.0859
 3912SOL    HW212102   4.855   2.649   6.687  0.3649 -1.0688 -1.8729
 3913SOL     OW12103   4.517   0.744   1.290  0.0193 -0.3380  0.1942
 3913SOL    HW112104   4.577   0.743   1.215 -1.1522 -0.9812 -0.7809
 3913SOL    HW212105   4.430   0.737   1.250 -0.9085  2.5851  1.4148
 3914SOL     OW12106   5.999   3.810   0.648 -0.5211  0.3196 -0.5634
 3914SOL    HW112107   5.954   3.746   0.703  0.2803 -1.2241 -1.6334
 3914SOL    HW212108   5.992   3.892   0.696 -0.4310 -0.8196  1.4983
 3915SOL     OW12109   4.120   5.813   0.340  0.2152 -0.1831 -0.1867
 3915SOL    HW112110   4.182   5.801   0.411 -1.5046  0.7616  1.5589
 3915SOL    HW212111   4.140   5.901   0.306  0.8655 -0.5324 -0.7395
 3916SOL     OW12112   5.706   3.309   2.088  0.4165 -0.2477 -0.2220
 3916SOL    HW112113   5.683   3.339   2.175  1.9920  0.6128 -0.0629
 3916SOL    HW212114   5.666   3.372   2.028  2.3459  1.3063  0.0495
 3917SOL     OW12115   0.533   4.516   0.905 -0.0652 -0.0750  0.0030
 3917SOL    HW112116   0.475   4.557   0.841 -1.1529 -2.4666 -0.6736
 3917SOL    HW212117   0.620   4.549   0.883 -0.6622  0.5476 -1.5598
 3918SOL     OW12118   0.300   5.614   4.457  0.3878 -0.7022 -0.0628
 3918SOL    HW112119   0.371   5.554   4.480 -0.9256 -2.6190 -0.7001
 3918SOL    HW212120   0.224   5.557   4.443 -0.7050  1.0225 -1.7332
 3919SOL     OW12121   3.693   1.224   1.226  0.3683 -0.2050 -0.3355
 3919SOL    HW112122   3.779   1.233   1.185  0.2752  0.4585 -0.3948
 3919SOL    HW212123   3.666   1.314   1.246  0.3625 -0.5077  1.1057
 3920SOL     OW12124   5.931   3.803   3.287 -0.7476 -0.1687 -0.0390
 3920SOL    HW112125   5.840   3.818   3.314 -0.9328  1.0095 -1.2456
 3920SOL    HW212126   5.925   3.785   3.193  0.4059  1.7268 -0.5233
 3921SOL     OW12127   3.943   5.298   0.368 -0.5386  0.2565 -0.4533
 3921SOL    HW112128   3.849   5.294   0.351 -0.4602  0.1798 -0.8911
 3921SOL    HW212129   3.980   5.338   0.290 -0.3745  1.7862  0.3772
 3922SOL     OW12130   3.159   3.779   3.291  0.3071  0.1659 -0.3696
 3922SOL    HW112131   3.081   3.834   3.295  0.2283 -0.0264  1.6906
 3922SOL    HW212132   3.223   3.823   3.348  1.7415  0.2948 -1.9688
 3923SOL     OW12133   1.538   1.687   4.596  0.4617  0.3152  0.3917
 3923SOL    HW112134   1.468   1.746   4.567 -1.1887 -0.2983  2.8343
 3923SOL    HW212135   1.523   1.606   4.548 -0.4058  0.2410  0.7854
 3924SOL     OW12136   2.281   5.989   3.758 -0.1813  0.2662 -0.2793
 3924SOL    HW112137   2.196   6.014   3.722 -0.4153 -0.5649 -0.3286
 3924SOL    HW212138   2.263   5.959   3.847  0.0972  0.3540 -0.1902
 3925SOL     OW12139   2.851   0.608   0.230  0.5763 -0.7924  0.3832
 3925SOL    HW112140   2.940   0.618   0.265  0.6219 -0.9428  0.3102
 3925SOL    HW212141   2.854   0.653   0.146  1.0755 -2.2953 -0.4346
 3926SOL     OW12142   1.039   4.230   5.283  0.4361  0.1081  0.0538
 3926SOL    HW112143   1.123   4.237   5.237 -0.3452 -0.8581 -1.6050
 3926SOL    HW212144   1.051   4.156   5.343  0.4513 -0.7663 -0.9880
 3927SOL     OW12145   2.089   1.031   1.146 -0.5693  0.2198 -0.3680
 3927SOL    HW112146   2.154   1.061   1.209 -0.5373  0.2773 -0.4275
 3927SOL    HW212147   2.018   1.095   1.152 -0.3683  0.4825 -0.7115
 3928SOL     OW12148   0.691   4.121   2.921  0.7153  0.4131  0.3670
 3928SOL    HW112149   0.716   4.062   2.992  1.4536  0.4675  0.1588
 3928SOL    HW212150   0.595   4.121   2.923  0.7108 -0.4326  0.6601
 3929SOL     OW12151   4.989   1.077   4.324  0.1592  0.6225  0.1510
 3929SOL    HW112152   4.941   1.096   4.244 -0.9077 -0.3886  0.5099
 3929SOL    HW212153   5.061   1.139   4.325 -0.3105  1.2178 -1.1519
 3930SOL     OW12154   6.436   2.171   5.949 -0.0865 -0.5281 -0.3429
 3930SOL    HW112155   6.462   2.086   5.986  1.5222  0.3610  0.7238
 3930SOL    HW212156   6.350   2.188   5.986  0.9902 -0.1947  2.2669
 3931SOL     OW12157   1.647   1.131   4.611  0.5142  0.2526  0.0309
 3931SOL    HW112158   1.693   1.204   4.569  1.2652 -0.3338 -0.1854
 3931SOL    HW212159   1.705   1.056   4.599 -0.8161 -0.6647 -0.8140
 3932SOL     OW12160   5.515   5.988   4.699  0.2423 -0.0567  0.0498
 3932SOL    HW112161   5.508   5.986   4.795 -1.2939  0.1789 -0.0330
 3932SOL    HW212162   5.522   5.896   4.674  1.4180 -0.0864  0.4134
 3933SOL     OW12163   0.828   3.179   2.250 -0.4130  0.2621 -0.7073
 3933SOL    HW112164   0.790   3.266   2.239  1.0828  0.8109 -1.7725
 3933SOL    HW212165   0.911   3.194   2.294 -0.7370 -0.7836  0.3247
 3934SOL     OW12166   4.293   0.072   2.686  0.2832  0.1371  0.5234
 3934SOL    HW112167   4.312   0.032   2.771 -1.4907 -1.7765  0.0914
 3934SOL    HW212168   4.232   0.143   2.706  1.0797  0.7013  0.9900
 3935SOL     OW12169   2.096   3.301   2.400  0.6191 -0.5016  0.3019
 3935SOL    HW112170   2.170   3.320   2.343 -1.1302 -0.3231 -2.0619
 3935SOL    HW212171   2.036   3.249   2.346 -2.3116  1.8146  1.0435
 3936SOL     OW12172   3.640   4.278   0.761 -0.4122 -0.1321 -0.8066
 3936SOL    HW112173   3.709   4.315   0.815 -0.9540 -1.3980  0.8414
 3936SOL    HW212174   3.671   4.289   0.671  0.8719  1.3389 -0.2340
 3937SOL     OW12175   0.509   4.666   5.871  0.0078  0.1784 -0.3702
 3937SOL    HW112176   0.551   4.595   5.919  0.1982 -0.4598 -1.4630
 3937SOL    HW212177   0.581   4.724   5.846  0.1391 -0.4421 -1.4562
 3938SOL     OW12178   1.767   2.542   0.885 -0.0439  0.3011 -0.0528
 3938SOL    HW112179   1.766   2.520   0.792  1.1440 -0.7883  0.1550
 3938SOL    HW212180   1.800   2.632   0.888  1.2465 -0.1224 -0.6483
 3939SOL     OW12181   1.542   3.029   1.504 -0.9182 -0.3794 -0.4186
 3939SOL    HW112182   1.468   2.971   1.488 -1.2500 -0.3340  0.8748
 3939SOL    HW212183   1.515   3.113   1.468 -1.1870 -0.5484 -0.6184
 3940SOL     OW12184   2.356   1.360   3.102 -0.1690 -0.6392 -0.5652
 3940SOL    HW112185   2.278   1.410   3.123  0.3744 -0.0468  0.0961
 3940SOL    HW212186   2.324   1.271   3.087 -0.8242 -0.7439  1.1631
 3941SOL     OW12187   5.603   4.028   2.807 -0.6066  0.3566 -0.1857
 3941SOL    HW112188   5.521   4.039   2.758  0.5752  1.3461 -2.0373
 3941SOL    HW212189   5.667   4.081   2.759  1.2541 -0.7995  0.9074
 3942SOL     OW12190   4.429   6.534   0.829 -0.0626 -0.2041 -0.2593
 3942SOL    HW112191   4.517   6.509   0.802 -0.4481 -1.5518 -0.3513
 3942SOL    HW212192   4.371   6.493   0.764 -0.7791  0.2267  0.0894
 3943SOL     OW12193   0.088   3.007   4.052 -0.3258 -0.1064  0.3593
 3943SOL    HW112194   0.041   2.978   3.973 -0.1922  0.2993  0.1257
 3943SOL    HW212195   0.053   3.095   4.070 -0.1297 -0.0694  0.5673
 3944SOL     OW12196   0.333   6.038   5.076 -0.1716 -0.2243 -0.1952
 3944SOL    HW112197   0.274   5.965   5.095 -0.1140 -0.1579  0.2425
 3944SOL    HW212198   0.333   6.091   5.155 -0.7578  0.6378 -0.7604
 3945SOL     OW12199   3.097   4.737   6.054  0.5781  0.6849  0.0605
 3945SOL    HW112200   3.020   4.683   6.069  0.3953  0.9739  0.1681
 3945SOL    HW212201   3.128   4.760   6.142  0.3605  1.1670  0.0146
 3946SOL     OW12202   5.913   3.923   1.693 -0.0484  0.0188 -0.3829
 3946SOL    HW112203   5.928   4.016   1.709  0.8797 -0.0119 -0.9800
 3946SOL    HW212204   5.840   3.921   1.631 -0.4774  0.3151  0.1004
 3947SOL     OW12205   6.554   5.842   1.575 -0.2046 -0.2693  0.5526
 3947SOL    HW112206   6.630   5.786   1.592  0.2868  0.4816  0.8692
 3947SOL    HW212207   6.538   5.887   1.658 -0.3366  0.3573  0.1929
 3948SOL     OW12208   1.011   6.540   6.138  0.2058  0.0436 -0.0171
 3948SOL    HW112209   1.055   6.615   6.179  1.3432 -0.5823 -0.0392
 3948SOL    HW212210   0.941   6.517   6.199  1.0579 -0.0632  0.9660
 3949SOL     OW12211   2.569   2.468   1.516 -0.1595  0.0362 -0.0975
 3949SOL    HW112212   2.569   2.404   1.587 -0.2508 -1.0981 -1.0972
 3949SOL    HW212213   2.606   2.422   1.441  1.1300  1.5951 -0.4854
 3950SOL     OW12214   1.347   6.491   2.302  0.6366 -0.5522  0.3877
 3950SOL    HW112215   1.441   6.500   2.283  0.8572 -1.4828  0.9530
 3950SOL    HW212216   1.344   6.438   2.382 -0.3582  0.1333  0.8165
 3951SOL     OW12217   4.138   2.835   4.404  0.4317  0.0119  1.0238
 3951SOL    HW112218   4.111   2.809   4.492  0.0922  0.0465  0.9325
 3951SOL    HW212219   4.067   2.892   4.374  0.6268  0.1333  0.7920
 3952SOL     OW12220   2.481   1.209   2.321  0.2806 -0.2249 -0.5164
 3952SOL    HW112221   2.535   1.282   2.290  1.6356 -0.1900  1.7381
 3952SOL    HW212222   2.395   1.248   2.337  0.8347  0.7711  0.1528
 3953SOL     OW12223   1.251   1.517   0.854  0.2658  0.2190  0.0546
 3953SOL    HW112224   1.185   1.490   0.790  1.4473 -2.5937 -0.1239
 3953SOL    HW212225   1.200   1.540   0.932 -1.0037 -0.3432 -0.5752
 3954SOL     OW12226   6.536   1.655   3.443  0.8130  0.1462 -0.0399
 3954SOL    HW112227   6.481   1.722   3.483  0.0975 -1.4617  1.8040
 3954SOL    HW212228   6.624   1.672   3.478  0.6103  0.0538  0.5214
 3955SOL     OW12229   1.807   5.321   5.383 -0.1492  0.4015 -0.4845
 3955SOL    HW112230   1.785   5.256   5.316  1.7516 -0.2422 -0.5545
 3955SOL    HW212231   1.844   5.395   5.334 -0.4677  0.7032 -0.2712
 3956SOL     OW12232   4.898   0.830   0.107  0.3012  0.1647  0.4308
 3956SOL    HW112233   4.905   0.921   0.079 -1.1904  0.4576  0.8931
 3956SOL    HW212234   4.932   0.830   0.197 -0.4786  0.4624  0.7392
 3957SOL     OW12235   4.515   3.100   1.715  0.6197  0.4432  0.2649
 3957SOL    HW112236   4.475   3.164   1.656  0.3365 -0.9801 -1.1363
 3957SOL    HW212237   4.476   3.119   1.800 -3.2992 -0.9388 -0.9830
 3958SOL     OW12238   1.085   4.158   2.865 -0.1739 -0.4754 -0.0993
 3958SOL    HW112239   1.146   4.230   2.848 -0.4805 -0.0105  0.6820
 3958SOL    HW212240   1.001   4.202   2.880 -0.4394 -1.0246  0.0265
 3959SOL     OW12241   5.683   6.550   6.771 -0.1676 -0.1022 -0.2537
 3959SOL    HW112242   5.645   6.545   6.858 -0.9436  1.3960 -0.4666
 3959SOL    HW212243   5.775   6.572   6.786 -0.2891  0.1151  0.1906
 3960SOL     OW12244   6.760   5.332   0.754  0.0876 -0.3013  0.0647
 3960SOL    HW112245   6.822   5.259   0.750  1.8250  1.1236 -0.8402
 3960SOL    HW212246   6.754   5.353   0.847  2.3040  0.5051  0.1046
 3961SOL     OW12247   0.455   4.550   1.589  0.9167  0.2198  0.5988
 3961SOL    HW112248   0.360   4.544   1.580  1.0193 -0.4449 -0.0648
 3961SOL    HW212249   0.474   4.644   1.582  0.4297  0.2496 -0.4666
 3962SOL     OW12250   4.939   2.923   1.565 -0.3139  0.2359  0.2372
 3962SOL    HW112251   4.970   2.958   1.649  0.9529  0.1428 -0.1815
 3962SOL    HW212252   5.017   2.885   1.524 -0.1713  3.0478 -2.4353
 3963SOL     OW12253   5.609   1.985   3.479 -0.1087  0.0243  0.0268
 3963SOL    HW112254   5.555   1.915   3.442 -0.8249  0.4612  0.2215
 3963SOL    HW212255   5.661   1.942   3.547  0.6785 -0.6344 -0.9625
 3964SOL     OW12256   4.535   5.848   3.059 -0.0091 -0.3220  0.3677
 3964SOL    HW112257   4.485   5.772   3.027  0.7631 -1.0133  0.7956
 3964SOL    HW212258   4.506   5.919   3.002 -0.5512 -0.9852 -0.2204
 3965SOL     OW12259   0.942   3.701   3.413 -0.4941  0.4190 -0.1592
 3965SOL    HW112260   1.021   3.651   3.433 -0.4044  0.5866 -0.0884
 3965SOL    HW212261   0.975   3.789   3.393 -0.4780 -0.0158 -2.1656
 3966SOL     OW12262   2.906   2.277   0.120 -0.4325 -0.1996 -0.2019
 3966SOL    HW112263   2.830   2.327   0.091 -0.6811 -0.7782 -0.5644
 3966SOL    HW212264   2.888   2.257   0.212  0.8640  2.5977  0.7835
 3967SOL     OW12265   0.525   5.590   4.825 -0.1721  0.1468  0.4867
 3967SOL    HW112266   0.497   5.669   4.780  0.0991 -0.2512 -0.3992
 3967SOL    HW212267   0.584   5.621   4.894  2.6620  0.5726 -1.9174
 3968SOL     OW12268   5.695   1.513   2.377 -0.4913  0.1744 -0.2601
 3968SOL    HW112269   5.615   1.504   2.428 -0.4335 -2.5550 -0.5240
 3968SOL    HW212270   5.765   1.498   2.440 -0.2038  1.2932 -0.2883
 3969SOL     OW12271   6.267   4.206   5.038  0.4071  0.0039 -0.3235
 3969SOL    HW112272   6.260   4.113   5.061 -1.2366 -0.3342 -1.9175
 3969SOL    HW212273   6.221   4.252   5.108  2.5068 -0.1762  1.2771
 3970SOL     OW12274   3.063   3.112   5.733  0.0606  0.0307  0.3352
 3970SOL    HW112275   3.140   3.168   5.728 -0.6722  0.9320 -2.3775
 3970SOL    HW212276   2.989   3.172   5.745 -0.3817 -0.7567  1.9551
 3971SOL     OW12277   4.413   3.409   4.672  0.1964 -0.1460  0.9385
 3971SOL    HW112278   4.482   3.355   4.634  0.4138  0.7857 -0.0534
 3971SOL    HW212279   4.398   3.478   4.607 -0.8220  0.3636  1.6817
 3972SOL     OW12280   0.178   5.243   1.611 -0.2634 -0.0566 -0.3677
 3972SOL    HW112281   0.131   5.210   1.688 -0.1151  0.5780 -0.0008
 3972SOL    HW212282   0.219   5.166   1.573  0.8923 -0.1681  1.0433
 3973SOL     OW12283   4.242   3.492   2.298 -0.4243  0.2074 -0.1183
 3973SOL    HW112284   4.264   3.452   2.214  1.5556 -2.9152  1.7077
 3973SOL    HW212285   4.317   3.547   2.320 -1.3667  1.8198 -0.7433
 3974SOL     OW12286   2.786   3.416   0.791 -0.2401  0.2242  0.3395
 3974SOL    HW112287   2.847   3.448   0.858 -1.8307 -0.7879  2.3798
 3974SOL    HW212288   2.837   3.418   0.710  2.1823  0.3443  1.7547
 3975SOL     OW12289   6.495   1.950   1.105  0.1494 -0.2758  0.3544
 3975SOL    HW112290   6.424   1.933   1.167 -0.2654  1.6927  0.4904
 3975SOL    HW212291   6.522   2.040   1.123  0.7930 -0.0263 -1.5684
 3976SOL     OW12292   0.998   2.572   2.056  0.2217  0.0424  0.7828
 3976SOL    HW112293   1.013   2.648   2.113  0.2108 -0.0243  0.8742
 3976SOL    HW212294   1.086   2.542   2.033  0.2510  1.0136 -0.4985
 3977SOL     OW12295   3.255   4.422   3.658 -0.8066  0.0431 -0.0579
 3977SOL    HW112296   3.293   4.424   3.746 -2.7256  2.5697  0.8320
 3977SOL    HW212297   3.197   4.346   3.658 -0.3072 -0.3457  0.6239
 3978SOL     OW12298   1.739   6.428   0.728  0.7561 -0.3030 -0.0933
 3978SOL    HW112299   1.798   6.394   0.660  0.0193 -0.5085 -0.6417
 3978SOL    HW212300   1.652   6.400   0.700  0.2085  1.3914 -0.1361
 3979SOL     OW12301   5.265   0.483   6.491  0.1870 -0.5650  0.1810
 3979SOL    HW112302   5.180   0.481   6.535  0.3482  3.0250  0.9738
 3979SOL    HW212303   5.250   0.441   6.407 -1.9143 -1.5042  0.9734
 3980SOL     OW12304   5.459   2.081   3.046 -0.3378 -0.1695  0.3167
 3980SOL    HW112305   5.392   2.109   2.984 -0.1294 -0.8550 -0.2499
 3980SOL    HW212306   5.461   2.148   3.113 -2.5578 -0.8176  1.0962
 3981SOL     OW12307   6.517   0.522   3.328 -0.1299 -0.6840  0.3776
 3981SOL    HW112308   6.469   0.450   3.286 -0.1228 -2.3172  2.9890
 3981SOL    HW212309   6.598   0.482   3.358  0.9068  1.0010 -0.0468
 3982SOL     OW12310   5.769   3.022   0.050 -0.2669  0.1194 -0.1625
 3982SOL    HW112311   5.826   2.974  -0.009 -0.9183 -0.3333 -0.4401
 3982SOL    HW212312   5.767   3.111   0.014  1.9472  0.7347  1.0719
 3983SOL     OW12313   5.028   3.037   1.798  0.0661  0.0066  0.1517
 3983SOL    HW112314   5.102   3.027   1.858  0.4876  0.9222 -0.1920
 3983SOL    HW212315   4.962   3.085   1.847  0.3280  0.5710 -0.0413
 3984SOL     OW12316   6.368   1.729   0.627 -0.1647  0.1997  0.2667
 3984SOL    HW112317   6.411   1.803   0.669 -0.2805  0.5738 -0.2607
 3984SOL    HW212318   6.355   1.757   0.536 -1.3269  0.0199  0.3592
 3985SOL     OW12319   2.294   6.628   3.147  0.7062  0.3833 -0.3828
 3985SOL    HW112320   2.342   6.556   3.105  0.2002 -0.5465  0.5818
 3985SOL    HW212321   2.216   6.639   3.093  0.5598 -0.1153 -0.2808
 3986SOL     OW12322   1.012   1.142   0.376  0.6106  0.3534 -0.3140
 3986SOL    HW112323   1.038   1.195   0.300  0.4105 -0.6369 -1.0993
 3986SOL    HW212324   1.074   1.068   0.376  1.5029  1.0545  1.3431
 3987SOL     OW12325   2.228   3.407   5.814  0.1684  0.9985  0.4589
 3987SOL    HW112326   2.248   3.494   5.848 -0.5853  1.2030  0.3931
 3987SOL    HW212327   2.146   3.418   5.765  0.2301  0.3183  0.1918
 3988SOL     OW12328   0.868   0.972   6.753  0.0420  0.1460 -0.1075
 3988SOL    HW112329   0.828   0.891   6.784 -1.1384  0.7423 -0.0355
 3988SOL    HW212330   0.951   0.978   6.801  0.5026 -1.3854 -0.6609
 3989SOL     OW12331   5.999   0.883   5.586  0.0673  0.0750  0.0064
 3989SOL    HW112332   6.076   0.839   5.621  0.6357 -0.5236 -1.8770
 3989SOL    HW212333   5.925   0.838   5.627  0.6953 -0.3543  0.6862
 3990SOL     OW12334   5.816   3.205   4.266 -0.5120 -0.5651  0.2274
 3990SOL    HW112335   5.842   3.271   4.331 -1.2105  1.2875 -1.2868
 3990SOL    HW212336   5.891   3.199   4.207 -1.0105 -0.0005 -0.4794
 3991SOL     OW12337   3.562   1.097   6.288 -0.1075  0.2924  0.0650
 3991SOL    HW112338   3.501   1.038   6.334 -1.1847  1.1998 -0.1577
 3991SOL    HW212339   3.564   1.064   6.199 -0.2386  0.2324  0.0833
 3992SOL     OW12340   6.064   1.008   0.023  0.3106  0.0291 -0.4875
 3992SOL    HW112341   6.093   0.962   0.101 -1.5943 -1.1332 -0.4022
 3992SOL    HW212342   6.065   1.101   0.047 -0.4061 -0.3229  0.9958
 3993SOL     OW12343   3.984   3.560   6.454 -0.5202 -0.0613 -0.2880
 3993SOL    HW112344   3.978   3.652   6.426 -0.5670  0.2080  0.5646
 3993SOL    HW212345   4.045   3.562   6.529 -2.2127 -0.3617  1.1634
 3994SOL     OW12346   0.946   4.690   3.747  0.5063 -0.5514  0.1474
 3994SOL    HW112347   0.891   4.656   3.817 -0.0408  0.8265  0.4102
 3994SOL    HW212348   1.036   4.676   3.778  0.2878  1.2282  1.7646
 3995SOL     OW12349   1.216   6.657   0.640  0.1625  0.1789 -0.0505
 3995SOL    HW112350   1.259   6.716   0.702 -0.7752  0.0402  0.7507
 3995SOL    HW212351   1.167   6.716   0.582 -1.4269  0.1970  1.2435
 3996SOL     OW12352   1.791   2.389   0.668 -0.1945 -0.5329 -0.6510
 3996SOL    HW112353   1.770   2.424   0.582  2.4537  0.8840 -0.8157
 3996SOL    HW212354   1.882   2.362   0.662 -0.4313 -2.0256  1.2550
 3997SOL     OW12355   3.740   0.495   0.728 -0.0322  0.4198 -0.1025
 3997SOL    HW112356   3.743   0.432   0.800 -1.1085 -0.9806 -1.2038
 3997SOL    HW212357   3.669   0.555   0.752 -0.9741 -0.5568 -0.3518
 3998SOL     OW12358   6.493   4.067   6.258  0.3563 -0.1531  0.5751
 3998SOL    HW112359   6.445   4.054   6.175  0.6752 -2.1530  0.6492
 3998SOL    HW212360   6.584   4.078   6.231  0.5173 -1.1946  0.6508
 3999SOL     OW12361   2.787   4.024   6.275  0.1075 -0.4745  0.1808
 3999SOL    HW112362   2.815   3.957   6.337 -0.7918 -0.2135  0.9044
 3999SOL    HW212363   2.856   4.028   6.210  0.9796 -0.9145  1.0552
 4000SOL     OW12364   3.425   0.437   6.359  0.1262 -0.5645  0.2346
 4000SOL    HW112365   3.515   0.460   6.381 -0.1363  0.2970  0.4508
 4000SOL    HW212366   3.374   0.465   6.434 -0.2449 -1.7350  0.4369
 4001SOL     OW12367   4.810   4.691   0.298 -0.4119  0.2127  0.0647
 4001SOL    HW112368   4.873   4.762   0.310 -0.4665  0.4456 -0.9401
 4001SOL    HW212369   4.844   4.639   0.226 -0.8231 -0.2924  0.2180
 4002SOL     OW12370   0.690   2.570   3.035  0.1642  0.7387 -1.0396
 4002SOL    HW112371   0.609   2.529   3.064 -0.5662  2.8354  0.0940
 4002SOL    HW212372   0.753   2.553   3.105  0.1992  0.6181 -1.0992
 4003SOL     OW12373   5.285   6.067   6.277  0.0888  0.0928 -0.0680
 4003SOL    HW112374   5.351   6.131   6.249 -1.2406  1.6392  0.2415
 4003SOL    HW212375   5.294   5.996   6.213  0.3175  1.4264 -1.6085
 4004SOL     OW12376   0.694   6.556   0.958  0.0820  0.4720  0.0489
 4004SOL    HW112377   0.763   6.614   0.988 -0.1806  0.5730  0.4626
 4004SOL    HW212378   0.688   6.488   1.025  0.7026 -0.3054 -0.6517
 4005SOL     OW12379   4.676   0.914   1.925  0.1431 -0.4555  0.1759
 4005SOL    HW112380   4.634   1.000   1.924 -0.2437 -0.6433 -0.9720
 4005SOL    HW212381   4.641   0.869   1.849  0.1694 -1.7269  0.8877
 4006SOL     OW12382   6.526   4.744   3.813  0.0635 -0.6508  0.2453
 4006SOL    HW112383   6.567   4.658   3.823 -0.0535 -0.6198  1.0564
 4006SOL    HW212384   6.443   4.726   3.770  0.1318 -0.9165  0.2225
 4007SOL     OW12385   3.662   2.798   4.396 -0.2815  0.3089  0.2540
 4007SOL    HW112386   3.696   2.865   4.456 -0.8280  0.9446 -0.1458
 4007SOL    HW212387   3.616   2.736   4.453  3.1849 -1.7396  1.1326
 4008SOL     OW12388   4.444   5.365   6.241  0.0441  0.4470  0.1876
 4008SOL    HW112389   4.521   5.313   6.266  1.8687  1.6861 -2.4393
 4008SOL    HW212390   4.420   5.331   6.155 -0.6453  1.8641 -0.2031
 4009SOL     OW12391   4.377   0.630   3.988  0.1684  0.4425  0.2391
 4009SOL    HW112392   4.364   0.689   4.063 -0.9925  1.4067 -0.6872
 4009SOL    HW212393   4.469   0.604   3.995  1.1324  3.3705 -0.0084
 4010SOL     OW12394   1.441   3.976   3.751  0.2327  0.1553 -0.3447
 4010SOL    HW112395   1.405   4.025   3.824 -1.1377  0.8939 -1.4755
 4010SOL    HW212396   1.523   4.022   3.729 -1.7105  3.0330 -2.3343
 4011SOL     OW12397   6.380   5.077   3.750  0.2805  0.0393  0.2707
 4011SOL    HW112398   6.335   4.993   3.746  1.5571 -0.6859  0.4631
 4011SOL    HW212399   6.399   5.090   3.843 -0.0535  0.6225  0.2606
 4012SOL     OW12400   3.105   4.348   6.466 -0.3076  0.0866  0.6673
 4012SOL    HW112401   3.017   4.316   6.489  0.0436 -0.7660  0.8791
 4012SOL    HW212402   3.144   4.372   6.550 -1.2233  2.9290  0.3626
 4013SOL     OW12403   6.592   5.686   4.275 -0.0504 -0.3599 -0.1250
 4013SOL    HW112404   6.615   5.717   4.187 -0.5091 -1.1540 -0.5383
 4013SOL    HW212405   6.523   5.745   4.304 -0.3134 -0.4582 -0.5423
 4014SOL     OW12406   1.442   4.409   4.347  0.2243  0.0950 -0.3397
 4014SOL    HW112407   1.489   4.466   4.408  1.1471  1.3393 -2.1274
 4014SOL    HW212408   1.360   4.389   4.392  2.6193 -2.9006  3.2984
 4015SOL     OW12409   6.124   4.515   0.896  0.3035  0.4888 -0.3519
 4015SOL    HW112410   6.177   4.503   0.975 -1.6719 -3.1501  0.6531
 4015SOL    HW212411   6.045   4.559   0.927 -0.0606 -0.0804 -0.4463
 4016SOL     OW12412   1.419   0.216   4.648 -1.1309  0.0361  0.6244
 4016SOL    HW112413   1.405   0.261   4.731 -1.7733  0.7650  0.1379
 4016SOL    HW212414   1.354   0.146   4.647  0.9619 -2.1050  2.1433
 4017SOL     OW12415   1.220   5.358   5.481 -0.1689 -0.9227 -0.5052
 4017SOL    HW112416   1.272   5.375   5.560 -0.2100  0.6951 -0.7929
 4017SOL    HW212417   1.134   5.395   5.500  0.6015  2.0959 -2.2630
 4018SOL     OW12418   3.516   3.368   0.414  0.3294  0.0200 -0.1444
 4018SOL    HW112419   3.524   3.432   0.484 -0.3630  0.2480 -0.2637
 4018SOL    HW212420   3.598   3.319   0.416  0.4017  0.1664  0.6872
 4019SOL     OW12421   2.487   1.211   3.972  0.0335  0.1492 -0.2890
 4019SOL    HW112422   2.451   1.153   3.905  1.4792 -0.7011 -0.3681
 4019SOL    HW212423   2.555   1.261   3.926  0.7144 -0.1138  0.4084
 4020SOL     OW12424   4.818   6.165   0.222  0.0122  0.2592  0.3608
 4020SOL    HW112425   4.900   6.116   0.222  0.2594  0.6435 -0.7649
 4020SOL    HW212426   4.763   6.121   0.158 -0.9702 -0.4404  1.6288
 4021SOL     OW12427   2.969   1.341   0.652 -0.3008  0.2116  0.2764
 4021SOL    HW112428   2.986   1.274   0.586 -2.3008  0.1919 -0.2878
 4021SOL    HW212429   3.055   1.364   0.686  0.7504 -0.2464 -1.8845
 4022SOL     OW12430   5.615   0.632   5.224  0.2150 -0.5004 -0.1903
 4022SOL    HW112431   5.546   0.613   5.288  0.4355 -0.2917  0.1142
 4022SOL    HW212432   5.644   0.721   5.245  0.5562 -0.5734 -0.3346
 4023SOL     OW12433   1.966   3.384   3.507  0.2501  0.0034  0.1314
 4023SOL    HW112434   1.902   3.370   3.437  0.2205 -1.5480  0.4319
 4023SOL    HW212435   1.913   3.389   3.587  0.4293 -0.2674  0.2672
 4024SOL     OW12436   2.350   6.051   5.055  0.3443  0.4119 -0.1171
 4024SOL    HW112437   2.440   6.044   5.024  0.2757  0.7490 -0.3974
 4024SOL    HW212438   2.348   6.131   5.106  0.0898  0.6608 -0.5114
 4025SOL     OW12439   1.148   0.526   1.371 -0.3445 -0.6328 -0.3526
 4025SOL    HW112440   1.200   0.449   1.392 -0.3413 -0.6936 -0.5833
 4025SOL    HW212441   1.143   0.575   1.454  1.2212  0.0561 -0.6249
 4026SOL     OW12442   0.221   6.325   5.619 -0.3676 -0.1149  0.4907
 4026SOL    HW112443   0.157   6.375   5.671  0.1052  0.6747  0.3284
 4026SOL    HW212444   0.285   6.294   5.683 -0.1116  0.3481  0.4594
 4027SOL     OW12445   0.814   6.481   4.918  0.0846  0.3525  0.0540
 4027SOL    HW112446   0.735   6.505   4.871  1.4491  0.5030 -2.3347
 4027SOL    HW212447   0.834   6.557   4.973 -2.0090 -0.1624  1.6531
 4028SOL     OW12448   4.145   2.921   6.253  0.0498  0.0891 -0.6070
 4028SOL    HW112449   4.179   3.009   6.238  1.4707 -0.1045  1.0922
 4028SOL    HW212450   4.053   2.925   6.225 -0.1236  2.3078  0.0966
 4029SOL     OW12451   0.016   1.424   5.229 -0.1214  0.2868 -0.7344
 4029SOL    HW112452   0.036   1.347   5.176 -0.3495  0.7360 -1.4874
 4029SOL    HW212453  -0.068   1.404   5.271  0.9653 -0.8656  1.0226
 4030SOL     OW12454   4.868   0.237   0.132  0.0463  0.4381  0.0064
 4030SOL    HW112455   4.900   0.209   0.046  0.7213  0.6944  0.1648
 4030SOL    HW212456   4.941   0.219   0.192 -0.5178  0.0013  0.5774
 4031SOL     OW12457   4.044   2.280   3.022 -0.1608 -0.6748  0.5330
 4031SOL    HW112458   4.074   2.201   3.066  0.3823  0.0243  1.4359
 4031SOL    HW212459   3.964   2.253   2.976  0.2471 -1.8399  0.4833
 4032SOL     OW12460   6.089   3.925   2.828 -0.2312  0.1464 -0.0112
 4032SOL    HW112461   6.148   3.869   2.877 -0.7236  0.1656  0.6149
 4032SOL    HW212462   6.146   3.989   2.785  0.1295  0.8722  1.5091
 4033SOL     OW12463   6.432   0.559   6.080  0.2760 -0.4731 -0.0390
 4033SOL    HW112464   6.365   0.508   6.035 -0.5613  1.3420 -0.9388
 4033SOL    HW212465   6.435   0.522   6.169  0.3135 -2.5892 -0.8704
 4034SOL     OW12466   0.880   4.447   4.958  0.0913  0.6475  0.0019
 4034SOL    HW112467   0.812   4.475   4.896  0.4643  0.0319 -0.6844
 4034SOL    HW212468   0.830   4.413   5.033 -0.3631  1.8875  0.2898
 4035SOL     OW12469   6.327   2.934   1.870 -0.5095 -0.5199  0.3636
 4035SOL    HW112470   6.412   2.908   1.834 -0.1261  0.7139  0.3354
 4035SOL    HW212471   6.282   2.977   1.798  0.6260  2.8162  1.4566
 4036SOL     OW12472   1.855   3.088   1.907  0.2779 -0.0728 -0.3881
 4036SOL    HW112473   1.811   3.168   1.878  1.5500  0.3989 -1.1182
 4036SOL    HW212474   1.847   3.027   1.833  0.3880 -0.1652 -0.3263
 4037SOL     OW12475   5.874   4.942   6.215 -0.6775 -0.0092  0.0838
 4037SOL    HW112476   5.850   4.853   6.190  0.5091 -0.5028  0.6305
 4037SOL    HW212477   5.850   4.995   6.139  1.4922 -1.2649 -1.5911
 4038SOL     OW12478   5.601   0.722   0.501 -0.1826 -0.4762 -0.2124
 4038SOL    HW112479   5.634   0.634   0.523  1.7827 -0.0048 -1.0662
 4038SOL    HW212480   5.645   0.779   0.564  0.1239  0.1048 -0.9448
 4039SOL     OW12481   4.741   3.122   3.315 -0.3397 -0.3561 -0.0026
 4039SOL    HW112482   4.703   3.143   3.230 -1.5162  0.6961  0.7385
 4039SOL    HW212483   4.733   3.027   3.322 -1.7995 -0.2878 -0.3848
 4040SOL     OW12484   0.103   2.583   0.220  0.1392 -0.5826 -0.1158
 4040SOL    HW112485   0.104   2.653   0.154 -1.3481 -0.8472 -0.4564
 4040SOL    HW212486   0.012   2.556   0.225  0.4841 -1.6462  0.9388
 4041SOL     OW12487   2.479   0.971   4.519 -0.2516  0.4789  0.4504
 4041SOL    HW112488   2.559   0.929   4.551 -0.6385 -0.1366  0.6267
 4041SOL    HW212489   2.500   1.064   4.517  2.1863  0.1313 -4.0806
 4042SOL     OW12490   0.219   3.466   6.150  0.3611 -0.5314 -0.3193
 4042SOL    HW112491   0.177   3.411   6.085 -0.7652  0.1718 -0.1991
 4042SOL    HW212492   0.218   3.554   6.113  0.5137 -0.2764  0.2664
 4043SOL     OW12493   4.775   2.307   0.673  0.6118  0.6462 -0.4407
 4043SOL    HW112494   4.837   2.371   0.638 -0.5297  1.9498 -0.1692
 4043SOL    HW212495   4.720   2.283   0.598  0.7274  0.3604 -0.4338
 4044SOL     OW12496   4.748   3.828   6.026 -1.1839  0.0611 -0.2970
 4044SOL    HW112497   4.709   3.776   6.096  1.4022  0.6289  1.7257
 4044SOL    HW212498   4.674   3.863   5.978 -3.0488 -2.5973  0.4235
 4045SOL     OW12499   3.626   0.880   4.161  0.8039  0.1728  0.0140
 4045SOL    HW112500   3.541   0.915   4.186 -0.3176 -1.8744 -0.6620
 4045SOL    HW212501   3.625   0.880   4.065  1.6061  0.2078 -0.0044
 4046SOL     OW12502   3.814   0.031   1.868  0.2374 -0.3024 -0.0549
 4046SOL    HW112503   3.731   0.073   1.889  0.8878  0.3355  1.3483
 4046SOL    HW212504   3.880   0.082   1.915  1.3370 -1.3158 -0.4368
 4047SOL     OW12505   6.653   5.471   2.438 -0.5390 -0.3844  0.3310
 4047SOL    HW112506   6.637   5.550   2.489 -1.3139 -0.8205  0.7805
 4047SOL    HW212507   6.748   5.462   2.436 -0.4232  0.8300 -0.1536
 4048SOL     OW12508   4.876   5.668   5.362  0.1034  0.1312  0.3723
 4048SOL    HW112509   4.867   5.641   5.453  0.8929 -0.4616  0.2787
 4048SOL    HW212510   4.801   5.726   5.347 -1.2566 -1.4460  0.7709
 4049SOL     OW12511   0.173   4.071   1.683 -0.0514  0.1739  0.3327
 4049SOL    HW112512   0.204   4.158   1.710 -2.6445  2.5560 -3.2982
 4049SOL    HW212513   0.079   4.072   1.703 -0.1137 -1.8962  0.3660
 4050SOL     OW12514   5.287   4.057   2.031 -0.2580  0.0291 -0.4766
 4050SOL    HW112515   5.362   3.997   2.037 -0.2397 -0.1741 -2.3148
 4050SOL    HW212516   5.294   4.096   1.944 -0.3354  2.6896  0.6232
 4051SOL     OW12517   2.586   0.607   1.150 -0.7726  0.0839 -0.4276
 4051SOL    HW112518   2.655   0.556   1.108 -1.2688 -0.9723 -0.0163
 4051SOL    HW212519   2.536   0.542   1.201 -0.9907  1.0945  0.7067
 4052SOL     OW12520   5.917   3.348   1.393 -0.0088 -0.1996 -0.0190
 4052SOL    HW112521   6.003   3.380   1.365  0.2067 -0.1028  0.7258
 4052SOL    HW212522   5.931   3.316   1.482 -0.8517  0.2789  0.3014
 4053SOL     OW12523   6.094   4.491   6.400  0.0888 -0.3509 -0.0647
 4053SOL    HW112524   6.000   4.505   6.391 -0.6149 -1.8693  3.4060
 4053SOL    HW212525   6.133   4.578   6.396 -1.4665  0.3428 -0.9886
 4054SOL     OW12526   5.636   4.505   3.055 -0.2269  0.3660  0.3921
 4054SOL    HW112527   5.659   4.578   2.998  0.9182  0.4783  0.9614
 4054SOL    HW212528   5.555   4.470   3.019  1.0878 -0.3629 -2.0511
 4055SOL     OW12529   2.100   3.898   4.144 -0.3674 -0.0420  0.3247
 4055SOL    HW112530   2.019   3.894   4.092 -0.7337 -0.9031  0.9314
 4055SOL    HW212531   2.122   3.806   4.161  0.1965  0.2046  0.9907
 4056SOL     OW12532   2.758   5.897   3.934 -0.5059  0.0514 -0.1591
 4056SOL    HW112533   2.809   5.949   3.996  0.7339 -0.6039 -0.6076
 4056SOL    HW212534   2.707   5.838   3.989 -0.0471  0.0419  0.2610
 4057SOL     OW12535   4.016   0.615   4.661 -0.5613 -0.1462 -0.4119
 4057SOL    HW112536   3.997   0.524   4.637  2.7963 -1.2566  0.4843
 4057SOL    HW212537   4.063   0.650   4.585  2.6982 -0.9755  1.0400
 4058SOL     OW12538   0.391   5.808   5.377  0.5194 -0.4817  0.5219
 4058SOL    HW112539   0.363   5.883   5.429 -0.7708 -2.1274  2.3486
 4058SOL    HW212540   0.345   5.819   5.293  1.5302  1.4912  0.1874
 4059SOL     OW12541   2.636   6.741   2.240 -0.2545  0.6849  0.3965
 4059SOL    HW112542   2.606   6.696   2.161  0.0585  0.7460  0.2382
 4059SOL    HW212543   2.665   6.827   2.208 -0.0957  0.6971  0.5711
 4060SOL     OW12544   4.280   5.916   5.524  0.0026 -0.1723 -0.6224
 4060SOL    HW112545   4.335   5.994   5.518  1.2760 -1.0431 -0.6403
 4060SOL    HW212546   4.230   5.916   5.442 -0.7278  1.1243 -0.1976
 4061SOL     OW12547   0.728   2.279   2.081 -0.0982 -0.1612 -0.3916
 4061SOL    HW112548   0.667   2.352   2.087 -1.7465 -1.5307  0.6421
 4061SOL    HW212549   0.719   2.248   1.991 -0.3949  0.0893 -0.4525
 4062SOL     OW12550   4.695   3.606   0.972  0.3589 -0.0458  0.2083
 4062SOL    HW112551   4.714   3.694   1.006  1.0600 -0.0613 -0.1241
 4062SOL    HW212552   4.662   3.622   0.884 -0.9698 -0.0359  0.6913
 4063SOL     OW12553   5.591   5.588   2.484  0.2523  0.7194 -0.5438
 4063SOL    HW112554   5.630   5.586   2.396  0.2787  0.4386 -0.5258
 4063SOL    HW212555   5.532   5.513   2.485  0.8807  0.2186 -0.0295
 4064SOL     OW12556   5.034   1.652   5.687  0.0656 -0.0300 -0.0954
 4064SOL    HW112557   4.950   1.669   5.644  0.9345  0.5284 -1.6781
 4064SOL    HW212558   5.011   1.626   5.776 -1.7275  1.0669 -0.1932
 4065SOL     OW12559   6.094   4.197   3.708 -0.0648 -0.2799 -0.3374
 4065SOL    HW112560   6.133   4.192   3.620  0.0643 -1.0390 -0.2462
 4065SOL    HW212561   6.016   4.142   3.703 -0.7186  0.6222 -0.2989
 4066SOL     OW12562   5.842   5.199   0.204  0.6782  0.1176  0.6171
 4066SOL    HW112563   5.922   5.213   0.153 -0.1397 -0.1050 -0.7650
 4066SOL    HW212564   5.829   5.104   0.204 -1.1879  0.2802 -1.8034
 4067SOL     OW12565   0.442   1.296   1.743  0.4552 -0.5730  0.3374
 4067SOL    HW112566   0.377   1.229   1.720 -0.2382  0.2942 -0.3077
 4067SOL    HW212567   0.402   1.378   1.714  1.3062  0.1190  1.0883
 4068SOL     OW12568   6.698   2.848   1.470 -0.0797 -0.5905  0.4655
 4068SOL    HW112569   6.767   2.816   1.412  0.8503  0.1452  1.1344
 4068SOL    HW212570   6.638   2.896   1.412  1.5245  1.2727  0.2489
 4069SOL     OW12571   0.586   4.516   0.333 -0.3572  0.0318  0.4283
 4069SOL    HW112572   0.502   4.515   0.287 -0.5444 -0.2496  0.7631
 4069SOL    HW212573   0.650   4.543   0.267 -0.8791  1.4588  0.4736
 4070SOL     OW12574   4.345   4.203   4.526 -0.5002  0.3946 -0.0412
 4070SOL    HW112575   4.429   4.180   4.566 -0.3224  0.0817 -0.5864
 4070SOL    HW212576   4.367   4.267   4.459 -0.8633  1.3324  0.7244
 4071SOL     OW12577   1.774   1.020   5.207 -0.5186  0.4187  0.0968
 4071SOL    HW112578   1.744   1.087   5.268  0.8602 -1.3656  2.9042
 4071SOL    HW212579   1.867   1.008   5.228  0.0929 -0.1843 -2.5338
 4072SOL     OW12580   3.163   1.891   5.363 -0.1970 -0.5338  0.1145
 4072SOL    HW112581   3.250   1.864   5.334  0.1622  1.3371 -0.6837
 4072SOL    HW212582   3.104   1.859   5.294 -0.1370 -1.5133  0.4926
 4073SOL     OW12583   2.346   6.713   4.325 -0.5787 -0.1408 -0.2779
 4073SOL    HW112584   2.394   6.676   4.250 -0.7164  0.9094 -0.8929
 4073SOL    HW212585   2.315   6.798   4.295 -0.2047  0.5347  1.1336
 4074SOL     OW12586   0.552   0.675   6.274 -0.0989 -0.1682 -0.5302
 4074SOL    HW112587   0.504   0.690   6.355 -0.4741  0.0248 -0.7850
 4074SOL    HW212588   0.622   0.615   6.298  1.1842  1.6261  0.4369
 4075SOL     OW12589   3.037   0.775   4.957  0.7594 -0.5768  0.2953
 4075SOL    HW112590   3.132   0.781   4.969  0.6634 -1.5855  1.9086
 4075SOL    HW212591   3.003   0.857   4.994  0.8592 -1.4038  2.3832
 4076SOL     OW12592   5.353   2.949   1.596 -0.3686 -0.1197  0.5670
 4076SOL    HW112593   5.313   3.036   1.599  0.1994  0.1351  1.0494
 4076SOL    HW212594   5.433   2.958   1.648  0.4056 -0.5781 -0.5218
 4077SOL     OW12595   3.080   5.262   4.323  0.3931 -0.2479  0.2622
 4077SOL    HW112596   3.050   5.347   4.356  2.1274 -0.0978  1.5949
 4077SOL    HW212597   3.038   5.254   4.237 -0.4155  1.6026  0.4251
 4078SOL     OW12598   6.675   0.275   0.633 -0.3743 -0.0654 -0.5825
 4078SOL    HW112599   6.703   0.363   0.608 -1.2034  0.0655 -1.0742
 4078SOL    HW212600   6.756   0.224   0.634  0.7948  1.4829  3.3974
 4079SOL     OW12601   2.434   0.054   5.674  0.5974 -0.2114 -0.2083
 4079SOL    HW112602   2.403   0.108   5.602 -1.5618 -2.7208 -1.3284
 4079SOL    HW212603   2.386   0.085   5.750 -1.2810 -0.9926 -1.0052
 4080SOL     OW12604   6.595   6.482   5.446  0.2006 -0.4931  0.3203
 4080SOL    HW112605   6.618   6.464   5.537 -1.5959  1.0562  1.1523
 4080SOL    HW212606   6.677   6.471   5.398  1.2239 -1.2121  2.1385
 4081SOL     OW12607   2.259   4.417   4.587 -0.0708 -0.5608 -0.0708
 4081SOL    HW112608   2.176   4.371   4.590 -0.5152  0.2296 -0.0577
 4081SOL    HW212609   2.296   4.396   4.502 -1.6686  1.4322 -1.3500
 4082SOL     OW12610   6.754   1.999   4.803  0.3174  0.2276 -0.0690
 4082SOL    HW112611   6.697   2.018   4.877  0.2240  1.0535 -0.3423
 4082SOL    HW212612   6.769   2.084   4.762  1.3092 -0.0618 -0.3195
 4083SOL     OW12613   3.310   2.996   6.624 -0.2594 -0.1300  0.7713
 4083SOL    HW112614   3.287   2.935   6.554  1.0684  1.4045 -1.1233
 4083SOL    HW212615   3.403   2.979   6.640 -0.1617  0.5979  1.0214
 4084SOL     OW12616   3.138   2.498   0.681  0.4541  0.2557  0.2634
 4084SOL    HW112617   3.056   2.497   0.731 -0.6420  3.1423 -1.2078
 4084SOL    HW212618   3.146   2.409   0.646 -2.3989 -0.0194  0.0188
 4085SOL     OW12619   4.963   0.558   4.751 -0.3117 -1.0841  0.6819
 4085SOL    HW112620   4.902   0.486   4.766  0.3271 -1.3331  2.2479
 4085SOL    HW212621   4.963   0.570   4.656 -2.3063 -1.4893  0.5874
 4086SOL     OW12622   0.382   6.546   2.164 -0.1547 -0.0933  0.5441
 4086SOL    HW112623   0.381   6.605   2.240 -0.5404  2.9412 -1.5970
 4086SOL    HW212624   0.293   6.511   2.161 -0.2510  0.0634  1.2726
 4087SOL     OW12625   2.990   1.799   6.468 -0.6780 -0.1246 -0.5898
 4087SOL    HW112626   3.071   1.778   6.515 -0.5337  0.8851 -0.3688
 4087SOL    HW212627   3.001   1.890   6.441 -1.0031 -0.5096 -2.1155
 4088SOL     OW12628   6.312   1.930   1.986 -0.3665  0.5984  0.1252
 4088SOL    HW112629   6.295   1.846   1.944  2.5624  0.6642 -1.4351
 4088SOL    HW212630   6.334   1.908   2.077  1.5159 -0.4830 -0.5563
 4089SOL     OW12631   5.376   3.982   6.092  0.4952  0.2194  0.2440
 4089SOL    HW112632   5.464   3.951   6.114  1.1731  2.5140  1.0634
 4089SOL    HW212633   5.320   3.945   6.161  0.6912 -1.5047 -0.4531
 4090SOL     OW12634   5.787   1.346   0.539 -0.8570 -0.5628 -0.2286
 4090SOL    HW112635   5.785   1.316   0.448 -1.4680  1.1348 -0.8270
 4090SOL    HW212636   5.694   1.360   0.560 -0.7687 -1.6123  0.9055
 4091SOL     OW12637   6.143   2.915   2.050 -0.4260 -0.0384  0.4563
 4091SOL    HW112638   6.216   2.935   1.990 -0.0279  0.1839  1.0052
 4091SOL    HW212639   6.169   2.832   2.092 -0.0438  0.5066  1.3255
 4092SOL     OW12640   1.279   3.267   3.341  0.4627 -0.3305 -0.0755
 4092SOL    HW112641   1.355   3.209   3.336  0.1139 -0.8022 -0.0069
 4092SOL    HW212642   1.222   3.237   3.270  0.6519  0.4872 -0.5931
 4093SOL     OW12643   1.407   5.265   0.986  0.0153 -0.9509  0.0922
 4093SOL    HW112644   1.363   5.337   1.031 -1.6374 -1.2902 -0.8843
 4093SOL    HW212645   1.347   5.191   0.994  0.9434 -1.7682 -0.3047
 4094SOL     OW12646   4.595   6.240   3.244  0.1944  0.2708  0.8792
 4094SOL    HW112647   4.666   6.217   3.304  1.2273 -1.7321 -0.9779
 4094SOL    HW212648   4.539   6.162   3.243  0.4160  0.0980 -0.9850
 4095SOL     OW12649   5.389   4.053   2.623 -0.7040 -0.2275  0.0892
 4095SOL    HW112650   5.407   4.146   2.606 -0.3317 -0.0115  1.5016
 4095SOL    HW212651   5.391   4.012   2.537  3.1458  0.4147 -0.3074
 4096SOL     OW12652   6.426   3.842   3.504  0.1776 -0.1731  0.2546
 4096SOL    HW112653   6.366   3.879   3.439 -0.9837 -0.2681  1.2357
 4096SOL    HW212654   6.380   3.765   3.538  1.0242 -0.4674  0.7756
 4097SOL     OW12655   6.335   4.925   3.046  0.5156 -0.0588  0.5499
 4097SOL    HW112656   6.345   4.933   2.951 -0.6249  0.7693  0.4762
 4097SOL    HW212657   6.393   4.992   3.082  1.0093 -0.4263  0.4497
 4098SOL     OW12658   3.107   5.964   5.455  0.7108  0.0377 -0.3132
 4098SOL    HW112659   3.094   6.058   5.473 -0.2485 -0.2829  0.7661
 4098SOL    HW212660   3.135   5.962   5.363  1.9830  1.4580 -0.0076
 4099SOL     OW12661   1.163   1.590   3.792 -0.0049  0.0487 -0.2063
 4099SOL    HW112662   1.250   1.564   3.821  0.4815  1.3922 -0.3601
 4099SOL    HW212663   1.178   1.667   3.737 -1.1436 -0.7904 -1.7636
 4100SOL     OW12664   3.779   5.825   4.103  0.1137 -0.4494  0.4780
 4100SOL    HW112665   3.811   5.764   4.170  1.3258  1.2205  1.4899
 4100SOL    HW212666   3.707   5.778   4.062  0.6322 -2.3471  1.5786
 4101SOL     OW12667   2.415   3.772   4.637  0.0302 -0.0573  0.2125
 4101SOL    HW112668   2.366   3.768   4.555 -1.2260  0.8946  0.8891
 4101SOL    HW212669   2.480   3.841   4.623  0.3151 -0.4026 -0.2157
 4102SOL     OW12670   0.744   3.188   3.884  0.7951 -0.1069 -0.5561
 4102SOL    HW112671   0.820   3.217   3.834 -0.1090  1.0679 -1.2996
 4102SOL    HW212672   0.683   3.154   3.818  0.4583 -0.5448 -0.0286
 4103SOL     OW12673   4.358   5.580   3.589  0.0351  0.2286  0.1395
 4103SOL    HW112674   4.401   5.621   3.664  3.9651 -0.7354 -1.3100
 4103SOL    HW212675   4.365   5.486   3.606 -0.7881  0.0322 -0.5509
 4104SOL     OW12676   6.288   2.664   5.969 -0.5189 -0.4332  1.0265
 4104SOL    HW112677   6.328   2.706   5.893  0.8722 -1.8157  0.9589
 4104SOL    HW212678   6.215   2.614   5.932  0.7023 -1.8301  0.4361
 4105SOL     OW12679   2.330   6.366   2.526  0.8862 -0.1373  0.2940
 4105SOL    HW112680   2.300   6.457   2.530  0.8564 -0.1739  1.2488
 4105SOL    HW212681   2.251   6.314   2.539  1.1730 -0.2473  1.8587
 4106SOL     OW12682   1.093   2.268   4.788  0.6941 -0.1552  0.0170
 4106SOL    HW112683   1.097   2.364   4.785 -0.6010 -0.0959 -2.4555
 4106SOL    HW212684   1.008   2.248   4.827  0.3621 -0.2354 -0.7212
 4107SOL     OW12685   5.969   6.543   1.079 -0.3334  0.7032  0.9989
 4107SOL    HW112686   5.927   6.545   1.165  0.2747  2.6937  1.2993
 4107SOL    HW212687   5.985   6.635   1.058 -0.0406  0.2333 -1.0459
 4108SOL     OW12688   6.756   6.455   2.436 -0.0930  0.3553 -0.3504
 4108SOL    HW112689   6.765   6.474   2.529 -0.0717 -0.1565 -0.2400
 4108SOL    HW212690   6.667   6.482   2.414  0.2967  1.5979 -0.4745
 4109SOL     OW12691   1.011   5.248   4.616 -0.4323 -0.4259 -0.3066
 4109SOL    HW112692   0.971   5.206   4.693 -1.1462  0.9164  0.0978
 4109SOL    HW212693   0.982   5.339   4.621 -0.3798 -0.2741 -2.1158
 4110SOL     OW12694   3.045   3.647   0.569 -0.6048  0.0158  0.0957
 4110SOL    HW112695   3.079   3.690   0.490 -1.3308  1.0445  0.3172
 4110SOL    HW212696   3.045   3.554   0.548  0.1595  0.1922 -0.7419
 4111SOL     OW12697   1.817   1.754   2.584  0.3482 -0.0630 -0.4231
 4111SOL    HW112698   1.765   1.745   2.504 -0.8492  1.4112  0.1395
 4111SOL    HW212699   1.785   1.684   2.641 -1.3368  1.0365  0.0481
 4112SOL     OW12700   4.360   6.240   2.012 -0.2572  0.3008 -0.4995
 4112SOL    HW112701   4.442   6.204   1.978  0.1025  1.9410 -1.4785
 4112SOL    HW212702   4.386   6.324   2.052 -1.3216  0.3810  0.0535
 4113SOL     OW12703   3.054   4.242   3.688 -0.0564  0.4423  0.2294
 4113SOL    HW112704   3.020   4.331   3.691 -1.0576  0.1757 -1.9307
 4113SOL    HW212705   2.995   4.192   3.745 -0.3521  0.8726  0.3096
 4114SOL     OW12706   1.254   4.847   1.479 -0.2738 -0.1943 -0.0197
 4114SOL    HW112707   1.274   4.933   1.442 -1.3905  0.0600 -0.0789
 4114SOL    HW212708   1.210   4.866   1.562 -1.0862 -0.6836 -0.3280
 4115SOL     OW12709   4.188   3.632   0.967 -0.0192  0.0743  0.3359
 4115SOL    HW112710   4.112   3.686   0.947  0.0613 -0.1795 -0.7336
 4115SOL    HW212711   4.157   3.542   0.958  0.4413 -0.0294 -0.2750
 4116SOL     OW12712   4.378   5.118   0.524  0.2712 -0.1474  0.4709
 4116SOL    HW112713   4.344   5.039   0.482 -1.1141  0.9076 -0.5029
 4116SOL    HW212714   4.463   5.092   0.558  0.8023 -1.5021 -1.6651
 4117SOL     OW12715   3.310   6.031   5.172  0.4110 -0.4436 -0.8508
 4117SOL    HW112716   3.348   6.000   5.254 -2.0481 -1.2532  0.0905
 4117SOL    HW212717   3.372   6.003   5.105  0.3573 -3.9471  0.3227
 4118SOL     OW12718   4.905   3.080   0.624  0.2703  0.4189  0.2583
 4118SOL    HW112719   4.862   3.076   0.709 -0.6267  0.6781 -0.1720
 4118SOL    HW212720   4.999   3.081   0.645  0.1850 -2.3459  1.1471
 4119SOL     OW12721   6.666   0.620   1.281 -0.1930  0.0105 -0.1241
 4119SOL    HW112722   6.719   0.682   1.331 -0.2512 -0.5627  0.6758
 4119SOL    HW212723   6.671   0.652   1.191  1.6805 -0.1210 -0.1212
 4120SOL     OW12724   3.817   5.121   5.053 -0.2026  0.9517  0.0093
 4120SOL    HW112725   3.777   5.181   4.990 -0.5091  1.7029  0.8928
 4120SOL    HW212726   3.752   5.051   5.064  0.1818  0.4062 -1.0691
 4121SOL     OW12727   0.289   6.719   4.833 -0.0504  0.4236  0.0848
 4121SOL    HW112728   0.207   6.756   4.800 -1.1071 -1.1840  0.8055
 4121SOL    HW212729   0.274   6.704   4.926  1.1415  0.3110  0.2783
 4122SOL     OW12730   3.907   6.332   0.018  0.8654  0.1181  0.1469
 4122SOL    HW112731   3.870   6.420   0.014  1.4524  0.5162  2.1961
 4122SOL    HW212732   3.978   6.332  -0.047 -0.6991  0.2853 -1.6673
 4123SOL     OW12733   2.740   0.992   3.682  0.5660  0.0894  0.0450
 4123SOL    HW112734   2.784   0.996   3.766 -0.7345 -1.3280  0.8311
 4123SOL    HW212735   2.770   1.071   3.636  1.6328  0.6623  1.6332
 4124SOL     OW12736   0.422   6.109   4.329  0.4136  0.0469 -0.2683
 4124SOL    HW112737   0.473   6.076   4.255 -0.4411 -0.8063 -0.4959
 4124SOL    HW212738   0.378   6.032   4.365 -0.8647  0.7760 -0.2011
 4125SOL     OW12739   4.940   0.575   5.159  0.3394 -0.3048  0.2115
 4125SOL    HW112740   4.989   0.565   5.077  0.8759 -2.5743  0.7382
 4125SOL    HW212741   4.890   0.494   5.168  0.0855 -0.0014  1.9868
 4126SOL     OW12742   0.417   2.844   6.645 -0.6890  0.0623  0.0978
 4126SOL    HW112743   0.365   2.780   6.694  1.0367 -0.3013  1.5804
 4126SOL    HW212744   0.442   2.909   6.711  1.4799 -0.2852 -0.3152
 4127SOL     OW12745   6.032   3.237   3.545 -0.2549  0.3800  0.1661
 4127SOL    HW112746   5.952   3.223   3.595 -0.4036 -1.0380 -0.4359
 4127SOL    HW212747   6.066   3.149   3.528 -0.7840  0.7017 -3.1629
 4128SOL     OW12748   4.163   4.051   6.451  0.6070  0.2243  0.1041
 4128SOL    HW112749   4.237   4.001   6.417  1.4012  1.6978 -0.4211
 4128SOL    HW212750   4.194   4.084   6.536  0.4017  0.4888  0.0769
 4129SOL     OW12751   3.561   2.725   2.404  1.0996  0.6975 -0.4617
 4129SOL    HW112752   3.654   2.747   2.399  0.4100  3.7644 -2.4619
 4129SOL    HW212753   3.529   2.772   2.481  0.7342  2.0692 -1.4089
 4130SOL     OW12754   0.399   5.820   0.239  0.1865  0.4503  0.2590
 4130SOL    HW112755   0.390   5.773   0.155  1.2711 -1.4467  1.1420
 4130SOL    HW212756   0.397   5.913   0.214  2.2568 -0.0167 -2.1084
 4131SOL     OW12757   0.874   6.309   4.201  0.2336  0.1274  1.0173
 4131SOL    HW112758   0.833   6.278   4.282  0.7771 -3.1012  0.2030
 4131SOL    HW212759   0.901   6.229   4.156  1.1705  1.8628 -1.7480
 4132SOL     OW12760   5.938   2.703   4.074 -0.0010 -0.7804 -0.2995
 4132SOL    HW112761   5.952   2.610   4.056 -0.8305 -0.7891 -0.9558
 4132SOL    HW212762   6.022   2.745   4.055 -0.2581 -1.0738 -2.2649
 4133SOL     OW12763   2.933   1.685   1.358 -0.2847  0.0046  0.1542
 4133SOL    HW112764   2.984   1.604   1.364  0.8531  0.6136 -0.7072
 4133SOL    HW212765   2.960   1.735   1.435  0.3357  0.2686 -0.2278
 4134SOL     OW12766   4.393   6.780   4.093  0.2065 -0.5399  0.9297
 4134SOL    HW112767   4.379   6.851   4.030  1.3488 -0.6853  0.5015
 4134SOL    HW212768   4.305   6.758   4.123 -0.3876 -0.5228 -0.6779
 4135SOL     OW12769   3.384   4.381   0.523  0.4284  0.1011  0.3025
 4135SOL    HW112770   3.302   4.367   0.571 -0.3326  0.7426 -0.7625
 4135SOL    HW212771   3.418   4.464   0.558  0.1182  0.3250  0.0822
 4136SOL     OW12772   3.889   4.907   4.302 -0.3455 -0.4529 -0.1829
 4136SOL    HW112773   3.880   4.984   4.358  0.3264 -0.8628  0.5148
 4136SOL    HW212774   3.918   4.943   4.218 -0.4829  0.0999 -0.0014
 4137SOL     OW12775   1.382   2.329   1.673 -0.0463  0.7630 -0.8108
 4137SOL    HW112776   1.463   2.338   1.622 -0.5908 -1.1589 -2.1514
 4137SOL    HW212777   1.340   2.414   1.667  1.6201  1.6638 -0.4871
 4138SOL     OW12778   5.526   2.245   0.039  0.7516 -0.6844  0.3027
 4138SOL    HW112779   5.551   2.172   0.096  0.0694  0.8133  2.6606
 4138SOL    HW212780   5.430   2.241   0.036  0.7866 -0.8597 -0.9490
 4139SOL     OW12781   3.083   0.932   3.774 -0.3332 -0.8329  0.1472
 4139SOL    HW112782   3.066   1.026   3.781  0.3742 -0.6651 -0.2572
 4139SOL    HW212783   2.997   0.894   3.755 -0.3909 -0.0894 -1.2159
 4140SOL     OW12784   1.324   6.433   2.570 -0.0809 -0.1329  0.6116
 4140SOL    HW112785   1.345   6.350   2.613  0.6753 -0.6074 -0.5874
 4140SOL    HW212786   1.396   6.491   2.594  1.0301 -0.7824 -0.9380
 4141SOL     OW12787   1.236   0.046   1.425 -0.0708  0.0153  0.0864
 4141SOL    HW112788   1.285  -0.033   1.404 -0.6021 -0.9807  2.2637
 4141SOL    HW212789   1.302   0.115   1.430  0.4783 -0.3644 -1.2552
 4142SOL     OW12790   4.598   0.095   6.565  0.5908  0.7866 -0.3774
 4142SOL    HW112791   4.686   0.083   6.531  0.9051  0.0202  0.6652
 4142SOL    HW212792   4.608   0.151   6.642  0.6288 -1.7248  1.5715
 4143SOL     OW12793   0.193   3.907   0.315 -0.4774 -0.3114  0.2767
 4143SOL    HW112794   0.219   3.822   0.348  0.2816  0.0389  0.5984
 4143SOL    HW212795   0.160   3.889   0.227  2.6126 -0.5732 -0.9312
 4144SOL     OW12796   3.095   1.760   3.570  0.1148  0.4721  0.4823
 4144SOL    HW112797   3.152   1.793   3.501  2.7515 -1.6043  1.4988
 4144SOL    HW212798   3.046   1.689   3.530 -1.3737  1.8255 -0.2123
 4145SOL     OW12799   4.092   2.609   5.987  0.3742  0.3593 -0.1831
 4145SOL    HW112800   4.082   2.557   6.067  0.3789  0.2280 -0.2678
 4145SOL    HW212801   4.107   2.545   5.918  3.8218  0.5665  0.1999
 4146SOL     OW12802   6.496   1.921   3.821  0.1795 -0.0373 -0.1363
 4146SOL    HW112803   6.458   1.914   3.909 -0.2372  1.0362 -0.2125
 4146SOL    HW212804   6.585   1.887   3.830 -0.2803 -1.1586  0.3964
 4147SOL     OW12805   1.129   1.517   2.591 -0.6655  0.5265  0.8816
 4147SOL    HW112806   1.037   1.493   2.580 -0.8032  1.9408 -1.9968
 4147SOL    HW212807   1.178   1.444   2.555 -0.6532  0.0478  1.8407
 4148SOL     OW12808   6.481   6.534   1.187  0.1191  0.0851  0.2242
 4148SOL    HW112809   6.448   6.620   1.162  0.5843  0.2009 -0.0023
 4148SOL    HW212810   6.451   6.522   1.277  0.9250  0.9454  0.6277
 4149SOL     OW12811   6.266   2.540   2.962 -0.4174 -0.4326  0.4197
 4149SOL    HW112812   6.261   2.565   2.870 -0.8347  1.2705  0.8704
 4149SOL    HW212813   6.175   2.542   2.992 -0.3200 -1.2885  0.8016
 4150SOL     OW12814   6.302   6.726   2.924 -0.6645 -0.1986 -0.3584
 4150SOL    HW112815   6.214   6.764   2.931  0.5053  2.6802  0.4279
 4150SOL    HW212816   6.319   6.722   2.830 -0.8683  1.3486 -0.4952
 4151SOL     OW12817   4.737   1.116   3.005 -0.3460 -0.3102  0.2706
 4151SOL    HW112818   4.766   1.025   3.000 -3.7101 -1.4924 -1.0687
 4151SOL    HW212819   4.783   1.160   2.934  0.8359 -1.1214  0.5092
 4152SOL     OW12820   1.077   1.922   0.945 -0.4871 -0.5496  0.5190
 4152SOL    HW112821   1.077   1.951   0.854 -1.3419  0.5964  0.8649
 4152SOL    HW212822   0.985   1.907   0.965 -0.3101 -0.7313  1.2244
 4153SOL     OW12823   1.361   0.444   2.568 -0.7850  0.0013  0.2422
 4153SOL    HW112824   1.423   0.403   2.628  0.6834 -1.5280 -2.1543
 4153SOL    HW212825   1.278   0.402   2.587 -0.8513  1.0334  2.5343
 4154SOL     OW12826   5.726   5.460   0.601 -0.2104 -0.1820 -0.4959
 4154SOL    HW112827   5.695   5.551   0.596  0.2445 -0.1017 -3.8785
 4154SOL    HW212828   5.821   5.467   0.610 -0.1515 -0.3041 -0.9975
 4155SOL     OW12829   1.463   0.655   5.381 -0.6440  0.3169 -0.4346
 4155SOL    HW112830   1.529   0.641   5.449  1.0390  0.2804 -2.0112
 4155SOL    HW212831   1.502   0.619   5.302 -2.8640 -0.3169 -1.3112
 4156SOL     OW12832   2.241   4.694   2.209 -0.1824 -0.1015 -0.3574
 4156SOL    HW112833   2.314   4.637   2.235 -0.7215 -1.2654 -1.2797
 4156SOL    HW212834   2.183   4.636   2.160 -1.3958  0.9737 -0.2220
 4157SOL     OW12835   6.716   6.473   2.079  0.1984 -0.5886  0.1345
 4157SOL    HW112836   6.629   6.434   2.070 -0.8319  1.5878  0.2334
 4157SOL    HW212837   6.772   6.418   2.024 -0.7974 -3.1813  1.5228
 4158SOL     OW12838   6.135   1.171   0.497 -0.1446  0.1082 -0.0673
 4158SOL    HW112839   6.049   1.129   0.503  0.0989 -0.5579 -1.0241
 4158SOL    HW212840   6.121   1.248   0.442  0.0112 -0.4232 -0.8658
 4159SOL     OW12841   1.727   4.210   0.910  0.3068 -0.2993  0.5106
 4159SOL    HW112842   1.709   4.296   0.946  0.4787  1.0168 -2.2391
 4159SOL    HW212843   1.816   4.189   0.939  0.2397  0.4006  1.2428
 4160SOL     OW12844   6.148   6.013   5.918 -0.4387 -0.6678 -0.2855
 4160SOL    HW112845   6.058   6.038   5.896 -0.7599 -2.5711 -1.3483
 4160SOL    HW212846   6.142   5.971   6.004 -0.5704 -0.8376 -0.3783
 4161SOL     OW12847   5.665   1.035   6.328  0.0491  0.6915 -0.1859
 4161SOL    HW112848   5.673   1.015   6.235  0.3431  1.4382 -0.3293
 4161SOL    HW212849   5.721   1.112   6.341 -0.6754  1.1318  0.4215
 4162SOL     OW12850   6.698   0.895   4.029  0.0125  0.0196 -0.0708
 4162SOL    HW112851   6.690   0.800   4.039  0.4154 -0.1708 -1.4037
 4162SOL    HW212852   6.729   0.908   3.939 -1.9619  1.5005 -0.6221
 4163SOL     OW12853   0.016   1.577   2.919 -0.0929 -0.3085 -0.0750
 4163SOL    HW112854  -0.015   1.528   2.995  0.1971 -0.5009 -0.0743
 4163SOL    HW212855   0.107   1.599   2.941  0.7180 -2.2006 -1.2075
 4164SOL     OW12856   3.400   1.290   1.902 -0.2004  0.7454 -0.0491
 4164SOL    HW112857   3.367   1.305   1.990  0.5409 -1.7677  0.7687
 4164SOL    HW212858   3.377   1.368   1.853 -1.3671  1.8687  2.1586
 4165SOL     OW12859   0.369   2.947   4.511  0.5998 -0.0790  0.0914
 4165SOL    HW112860   0.303   2.937   4.443  0.7109  2.8846 -0.5724
 4165SOL    HW212861   0.426   2.870   4.501 -2.1563 -2.2735  0.1401
 4166SOL     OW12862   5.161   6.217   0.371  0.5394  0.0444 -0.1073
 4166SOL    HW112863   5.107   6.292   0.345  0.4541  0.3701  0.9867
 4166SOL    HW212864   5.160   6.219   0.466  1.5916 -0.6068 -0.0779
 4167SOL     OW12865   6.788   2.382   4.475 -0.2296 -0.3771  0.3575
 4167SOL    HW112866   6.814   2.471   4.501 -1.7901  0.5689 -1.0907
 4167SOL    HW212867   6.870   2.335   4.466  0.6555  0.9613  0.9811
 4168SOL     OW12868   4.504   4.273   5.102  0.0220  0.0950  0.3474
 4168SOL    HW112869   4.584   4.291   5.053 -0.8048 -0.4319 -1.2836
 4168SOL    HW212870   4.533   4.255   5.191  1.6701  0.3087 -0.1163
 4169SOL     OW12871   3.901   1.234   3.831  0.5936  0.3881 -0.5710
 4169SOL    HW112872   3.913   1.284   3.751  0.4166  1.6833  0.1909
 4169SOL    HW212873   3.954   1.155   3.818  1.0507  0.8630 -1.7029
 4170SOL     OW12874   4.779   2.327   1.017 -0.2641 -0.3806  0.5086
 4170SOL    HW112875   4.791   2.352   0.926  0.3585 -1.8259  0.1563
 4170SOL    HW212876   4.701   2.374   1.046  0.8456  1.9679 -0.0305
 4171SOL     OW12877   1.425   1.021   0.861  0.2639 -0.1639 -0.1840
 4171SOL    HW112878   1.468   0.947   0.818 -0.5912 -0.3370 -0.7490
 4171SOL    HW212879   1.380   0.983   0.936 -0.1234 -0.2087 -0.4383
 4172SOL     OW12880   1.029   6.192   6.720 -0.0704 -0.2478  0.0522
 4172SOL    HW112881   1.118   6.224   6.731  0.0116 -0.3161 -0.3909
 4172SOL    HW212882   0.975   6.252   6.772  0.1372  0.3055 -0.3565
 4173SOL     OW12883   2.824   0.454   3.385 -0.8624  0.0069  0.1164
 4173SOL    HW112884   2.734   0.456   3.353 -0.6990 -0.2015 -0.3664
 4173SOL    HW212885   2.875   0.493   3.314 -0.7163  1.3060  0.8990
 4174SOL     OW12886   5.993   4.978   2.620  0.1544  0.3398 -0.6956
 4174SOL    HW112887   5.924   5.005   2.680 -1.1916 -1.9965 -1.0622
 4174SOL    HW212888   6.064   5.041   2.635 -1.2250  1.5493  1.2297
 4175SOL     OW12889   3.184   1.920   1.901  0.4413 -0.6719  0.6796
 4175SOL    HW112890   3.249   1.871   1.850  0.0120  1.0759 -1.7228
 4175SOL    HW212891   3.106   1.864   1.901  0.0013 -0.1767 -1.8774
 4176SOL     OW12892   6.385   2.858   0.812 -0.5310  0.6682 -0.3677
 4176SOL    HW112893   6.425   2.826   0.731 -2.4806  0.1362 -1.1701
 4176SOL    HW212894   6.446   2.925   0.844  1.5063 -0.8218 -0.9167
 4177SOL     OW12895   6.331   6.220   5.909  0.0844  0.2190  0.2735
 4177SOL    HW112896   6.320   6.268   5.827  2.4189 -1.0042 -0.8313
 4177SOL    HW212897   6.267   6.148   5.903  0.8873 -0.4244 -0.9552
 4178SOL     OW12898   1.681   5.074   2.058 -0.4005 -0.1289  0.2848
 4178SOL    HW112899   1.720   5.050   2.142 -0.9488 -2.0889  0.0341
 4178SOL    HW212900   1.711   5.005   1.998  0.7148  1.7006 -1.3845
 4179SOL     OW12901   5.631   5.710   0.612  0.9243  0.3217  0.4208
 4179SOL    HW112902   5.576   5.722   0.690  1.6181 -0.6742  1.0916
 4179SOL    HW212903   5.569   5.690   0.542  0.2975  1.0980  0.7328
 4180SOL     OW12904   5.006   4.819   4.484  0.5457  0.2107 -0.1046
 4180SOL    HW112905   4.982   4.731   4.453 -2.9593  0.7040  0.7071
 4180SOL    HW212906   4.979   4.819   4.576 -1.0267  2.5650 -0.4977
 4181SOL     OW12907   2.903   4.130   5.653 -0.0667 -0.1873  0.1283
 4181SOL    HW112908   2.871   4.161   5.738 -0.2293 -0.9676  0.3567
 4181SOL    HW212909   2.998   4.132   5.660 -0.0754  0.1984  0.1602
 4182SOL     OW12910   0.778   6.078   2.509  0.3299 -0.3584 -0.3342
 4182SOL    HW112911   0.702   6.134   2.498  1.0453  1.1377  1.7680
 4182SOL    HW212912   0.742   5.991   2.524 -0.8968  0.0258 -0.9533
 4183SOL     OW12913   0.634   5.361   6.745  0.3085 -0.2408  0.0896
 4183SOL    HW112914   0.705   5.425   6.757 -0.0548  0.2725 -0.5036
 4183SOL    HW212915   0.571   5.382   6.814  1.7321 -2.1379  2.1370
 4184SOL     OW12916   4.740   1.338   0.704 -0.3173  0.4212  0.5563
 4184SOL    HW112917   4.683   1.358   0.630 -2.0142  1.7001  2.1240
 4184SOL    HW212918   4.815   1.397   0.693  0.3180 -0.6264 -1.0314
 4185SOL     OW12919   2.145   2.681   5.646  0.1045 -0.2546 -0.2508
 4185SOL    HW112920   2.206   2.656   5.577 -0.3253  0.7677 -1.0200
 4185SOL    HW212921   2.181   2.762   5.682 -0.9267  0.5113 -0.9010
 4186SOL     OW12922   4.662   2.347   2.938  0.3706 -0.1754  0.4150
 4186SOL    HW112923   4.639   2.360   2.846 -1.1469 -0.6694  0.6933
 4186SOL    HW212924   4.583   2.373   2.986  0.3647 -1.9534  1.4450
 4187SOL     OW12925   0.668   2.207   3.848  0.4031  0.2808  0.0246
 4187SOL    HW112926   0.735   2.229   3.784  0.0181 -0.0836 -0.5167
 4187SOL    HW212927   0.686   2.264   3.923  1.5842 -0.1367  0.0724
 4188SOL     OW12928   0.310   3.233   5.495 -0.3897  0.4482 -0.2975
 4188SOL    HW112929   0.216   3.238   5.479 -0.2856 -0.5111 -1.2920
 4188SOL    HW212930   0.350   3.265   5.414  0.1589  1.7740  0.4661
 4189SOL     OW12931   6.101   2.556   3.833  0.0078  0.6711  0.2987
 4189SOL    HW112932   6.008   2.540   3.823  0.0497  0.1512  0.6721
 4189SOL    HW212933   6.138   2.543   3.746  0.0818 -1.6436  0.6089
 4190SOL     OW12934   5.055   1.075   2.735  0.1405  0.4247  0.4400
 4190SOL    HW112935   5.106   1.019   2.677 -0.6394  0.7226 -0.5665
 4190SOL    HW212936   4.975   1.094   2.685  0.5717  2.8017  0.5224
 4191SOL     OW12937   4.840   5.024   5.965  0.0715  0.0349 -0.0762
 4191SOL    HW112938   4.744   5.031   5.965 -0.0001 -0.7059  1.0856
 4191SOL    HW212939   4.859   4.956   5.900 -0.4906 -2.6748  2.4009
 4192SOL     OW12940   6.301   5.966   0.459  0.5087  0.4149  0.2198
 4192SOL    HW112941   6.291   6.062   0.459 -1.1254  0.2971 -1.4459
 4192SOL    HW212942   6.315   5.943   0.367 -0.6835 -1.0762  0.3802
 4193SOL     OW12943   6.113   3.442   2.991  0.3352  0.4402  0.1756
 4193SOL    HW112944   6.074   3.369   2.943 -0.7486  0.7739  0.5102
 4193SOL    HW212945   6.053   3.458   3.064 -0.4619  2.7812 -0.8764
 4194SOL     OW12946   0.666   3.251   2.630 -0.3153 -0.3954  0.8336
 4194SOL    HW112947   0.571   3.261   2.621 -0.1331  1.1430  0.3272
 4194SOL    HW212948   0.684   3.165   2.591 -1.0253  1.1119 -3.3465
 4195SOL     OW12949   3.981   4.392   5.826  0.2867  0.2094 -0.2219
 4195SOL    HW112950   3.965   4.350   5.911 -0.2779 -1.3497 -1.0437
 4195SOL    HW212951   4.057   4.346   5.792  0.2468  0.5269 -0.7362
 4196SOL     OW12952   1.223   4.322   6.668 -0.1512 -0.0954  1.1954
 4196SOL    HW112953   1.154   4.260   6.644 -0.2156  0.1233  0.7992
 4196SOL    HW212954   1.176   4.403   6.688 -0.0235 -0.0006  1.1107
 4197SOL     OW12955   6.263   0.688   3.587 -0.1845 -0.2697 -0.3779
 4197SOL    HW112956   6.346   0.733   3.575  0.0931  0.0404  2.2087
 4197SOL    HW212957   6.201   0.757   3.611 -0.0525 -0.9547  2.3068
 4198SOL     OW12958   4.537   5.770   0.283  0.3093 -0.1063 -0.0488
 4198SOL    HW112959   4.486   5.831   0.231 -0.5275  0.6915  1.6379
 4198SOL    HW212960   4.534   5.688   0.235  0.7105  0.9203 -1.9081
 4199SOL     OW12961   1.994   0.343   0.347 -0.4445  0.4201 -0.1890
 4199SOL    HW112962   1.978   0.419   0.404  0.9605  0.4551  0.2056
 4199SOL    HW212963   1.979   0.375   0.259  0.2268  1.2095 -0.0323
 4200SOL     OW12964   0.064   2.785   0.014 -0.3108 -0.1471 -0.1510
 4200SOL    HW112965   0.079   2.878   0.030 -2.4951  0.3250 -0.5040
 4200SOL    HW212966   0.011   2.783  -0.066 -0.9261 -1.6425  0.2683
 4201SOL     OW12967   2.330   6.330   5.128 -0.0307 -0.5803  0.0679
 4201SOL    HW112968   2.244   6.323   5.171  0.3710  1.0999  1.2533
 4201SOL    HW212969   2.310   6.332   5.034 -1.2412 -0.7421  0.3054
 4202SOL     OW12970   2.816   2.686   2.263  0.5993 -1.0057  0.0542
 4202SOL    HW112971   2.795   2.700   2.355  0.9699 -1.6100  0.2317
 4202SOL    HW212972   2.765   2.609   2.237 -0.2257 -0.3003 -0.5070
 4203SOL     OW12973   5.208   3.813   1.620  0.3834 -0.1826  0.9628
 4203SOL    HW112974   5.257   3.894   1.608 -0.9212  0.6714  1.1729
 4203SOL    HW212975   5.160   3.827   1.702 -0.3826 -0.8877  0.6373
 4204SOL     OW12976   0.892   6.121   0.695  0.1555 -0.0165  0.2205
 4204SOL    HW112977   0.986   6.140   0.689  0.7287 -1.6822  2.3797
 4204SOL    HW212978   0.854   6.202   0.729  0.7555  0.7595 -0.9026
 4205SOL     OW12979   1.284   2.527   5.468 -0.3352  0.4627 -0.2982
 4205SOL    HW112980   1.195   2.538   5.503 -0.7538  1.2574 -1.5293
 4205SOL    HW212981   1.271   2.481   5.386  0.4963 -0.2115 -0.0581
 4206SOL     OW12982   2.633   6.046   5.078  0.0177 -0.6487  0.2765
 4206SOL    HW112983   2.679   5.995   5.012 -0.1608 -0.2591 -0.1553
 4206SOL    HW212984   2.652   6.137   5.055 -1.5108 -0.4444 -0.3191
 4207SOL     OW12985   1.012   2.345   4.478 -0.3135  0.2021 -0.8091
 4207SOL    HW112986   1.051   2.371   4.562  0.6919  0.0668 -1.2193
 4207SOL    HW212987   1.073   2.378   4.412 -0.4287 -0.7844 -1.4329
 4208SOL     OW12988   3.243   4.832   1.030 -0.0275  0.6078  0.0588
 4208SOL    HW112989   3.209   4.921   1.021  3.1617  1.8628 -1.4216
 4208SOL    HW212990   3.315   4.828   0.968  0.1352 -2.9839  0.2759
 4209SOL     OW12991   5.405   6.000   6.520  0.0460 -0.1970 -0.1259
 4209SOL    HW112992   5.490   5.965   6.495 -0.1914 -0.6531 -0.3074
 4209SOL    HW212993   5.359   6.014   6.436  0.3913  1.2379 -0.1158
 4210SOL     OW12994   0.808   3.457   3.382  0.3098 -0.1744  0.0102
 4210SOL    HW112995   0.816   3.552   3.374 -0.1168 -0.1965 -0.8003
 4210SOL    HW212996   0.799   3.426   3.292  1.2261 -1.0662  0.2043
 4211SOL     OW12997   6.732   4.101   4.893 -0.2795 -0.5085  0.1848
 4211SOL    HW112998   6.689   4.141   4.968  0.1211 -0.5525  0.4407
 4211SOL    HW212999   6.678   4.126   4.818 -1.3978 -1.4893  0.6200
 4212SOL     OW13000   2.576   5.559   3.746  0.1587 -0.0930  0.4015
 4212SOL    HW113001   2.630   5.483   3.766  0.6789  0.7858  2.5935
 4212SOL    HW213002   2.501   5.551   3.805 -1.5948 -0.6529 -1.7463
 4213SOL     OW13003   0.015   5.996   0.783  0.1554  0.2862 -0.1722
 4213SOL    HW113004   0.085   6.057   0.759  0.3853  0.6485  1.3105
 4213SOL    HW213005   0.054   5.942   0.852 -1.2113  0.9411  1.1637
 4214SOL     OW13006   4.120   0.394   3.735 -0.0566  0.1834 -0.0770
 4214SOL    HW113007   4.076   0.469   3.695  0.1717  1.7893  2.4530
 4214SOL    HW213008   4.201   0.384   3.686  0.0273  1.7716 -0.3135
 4215SOL     OW13009   5.935   3.000   5.122 -0.3331  0.0790 -0.0628
 4215SOL    HW113010   5.913   3.025   5.032 -0.7789  0.3436  0.1171
 4215SOL    HW213011   6.000   3.065   5.149 -1.3968  1.0035  0.3621
 4216SOL     OW13012   4.132   4.026   3.904  0.1292 -0.5277  0.4897
 4216SOL    HW113013   4.205   4.015   3.965  0.3246 -0.2575  0.3110
 4216SOL    HW213014   4.055   3.996   3.952  0.5593 -2.2520  0.1661
 4217SOL     OW13015   0.418   1.971   2.190  0.4701  0.2543 -0.4132
 4217SOL    HW113016   0.374   2.024   2.257  0.3083 -0.4029  0.0089
 4217SOL    HW213017   0.511   1.985   2.207  0.4509 -0.7680  0.6742
 4218SOL     OW13018   0.249   1.992   4.812 -0.2338  0.7427  0.4984
 4218SOL    HW113019   0.267   1.914   4.758  0.5995  0.3131  1.3601
 4218SOL    HW213020   0.157   1.982   4.837 -0.3276  0.3874  0.0482
 4219SOL     OW13021   5.404   0.227   5.243 -0.0054  0.0649 -0.7025
 4219SOL    HW113022   5.491   0.203   5.273 -1.0177 -2.0055  0.7612
 4219SOL    HW213023   5.369   0.283   5.312  0.1490  0.9405 -1.3150
 4220SOL     OW13024   6.426   1.374   2.791  0.5110  0.2388 -0.5584
 4220SOL    HW113025   6.480   1.391   2.868  0.8619  0.8231 -0.9331
 4220SOL    HW213026   6.368   1.302   2.818 -0.5714  1.5721  0.8298
 4221SOL     OW13027   0.190   6.261   4.142  0.1567 -0.0014  0.4840
 4221SOL    HW113028   0.214   6.169   4.150 -0.4442 -0.3271 -1.0649
 4221SOL    HW213029   0.270   6.304   4.114  0.0395 -0.3483 -0.4161
 4222SOL     OW13030   3.325   2.493   4.901  0.0013 -0.0809 -0.1197
 4222SOL    HW113031   3.283   2.535   4.826 -1.4369 -0.6008  0.3564
 4222SOL    HW213032   3.252   2.465   4.957  1.0163  1.7294  2.2992
 4223SOL     OW13033   3.547   6.159   2.736  0.0026 -0.0070 -0.9162
 4223SOL    HW113034   3.472   6.182   2.680  0.8318  1.4337 -1.4914
 4223SOL    HW213035   3.541   6.219   2.810  0.8167  0.4034 -1.1768
 4224SOL     OW13036   3.952   5.913   5.524 -0.0607  0.4636  0.6500
 4224SOL    HW113037   3.883   5.917   5.589  0.4278  0.8831  1.1591
 4224SOL    HW213038   4.007   5.989   5.543  0.1395  0.5426 -0.1969
 4225SOL     OW13039   0.639   2.057   6.471  0.1789  0.3108 -0.6044
 4225SOL    HW113040   0.577   2.023   6.536  0.4381  0.9831  0.0043
 4225SOL    HW213041   0.654   1.983   6.411  0.9830 -0.7655  0.8592
 4226SOL     OW13042   4.475   0.997   0.840 -0.1561  0.1183 -0.0071
 4226SOL    HW113043   4.560   1.016   0.879  0.4516  1.6663 -1.9851
 4226SOL    HW213044   4.448   1.078   0.798 -1.4759 -1.0336 -1.5191
 4227SOL     OW13045   6.236   2.318   2.711  0.3688  0.5131 -0.2042
 4227SOL    HW113046   6.258   2.400   2.668  0.5198  0.6066  0.0463
 4227SOL    HW213047   6.142   2.323   2.728  0.5500  1.0619  0.6997
 4228SOL     OW13048   1.577   5.414   0.536 -0.0795 -0.4341  0.3752
 4228SOL    HW113049   1.533   5.373   0.461  1.5441 -0.1707 -0.7727
 4228SOL    HW213050   1.523   5.491   0.556 -1.1109 -1.0758  0.1782
 4229SOL     OW13051   4.718   0.548   6.623 -0.6080 -0.0209 -0.5253
 4229SOL    HW113052   4.738   0.540   6.716 -0.6705  0.5323 -0.4619
 4229SOL    HW213053   4.709   0.642   6.608  0.8520  0.0088 -1.3881
 4230SOL     OW13054   2.247   1.307   2.427 -0.2245  0.1436 -0.1494
 4230SOL    HW113055   2.264   1.330   2.518  0.6957  0.4585 -0.3944
 4230SOL    HW213056   2.154   1.283   2.426 -0.6555  1.6148  0.5822
 4231SOL     OW13057   6.726   0.752   2.369  0.3722 -0.0054  0.1746
 4231SOL    HW113058   6.656   0.714   2.422 -3.3690  2.6418 -2.3387
 4231SOL    HW213059   6.729   0.844   2.395 -0.1582  0.8911 -2.5614
 4232SOL     OW13060   1.967   1.473   1.326 -0.0498  0.1953 -0.9616
 4232SOL    HW113061   2.040   1.519   1.368 -1.2304  0.1045  1.3961
 4232SOL    HW213062   1.894   1.536   1.331 -1.0651 -1.0016  0.1473
 4233SOL     OW13063   1.442   4.085   1.467 -0.1562  0.5815 -0.4440
 4233SOL    HW113064   1.401   4.005   1.498 -0.9053  0.6115 -1.3111
 4233SOL    HW213065   1.533   4.078   1.494 -0.5973  0.2458  1.0142
 4234SOL     OW13066   6.734   4.208   6.210  0.5611  0.1017 -0.4121
 4234SOL    HW113067   6.803   4.152   6.245 -0.4852 -0.1884  1.3332
 4234SOL    HW213068   6.778   4.292   6.194  1.2263  0.1355  1.2956
 4235SOL     OW13069   4.695   5.104   4.430  0.4582 -0.5147  0.1842
 4235SOL    HW113070   4.718   5.187   4.472  0.3828 -0.0448 -0.6595
 4235SOL    HW213071   4.655   5.052   4.499 -0.1500  0.4339  0.5731
 4236SOL     OW13072   6.593   0.037   6.602  0.1614 -0.2510 -0.3269
 4236SOL    HW113073   6.688   0.044   6.596  0.1277  0.7781  0.2101
 4236SOL    HW213074   6.565   0.117   6.646 -0.9291 -0.6933 -0.1748
 4237SOL     OW13075   3.042   4.750   4.838 -0.8179 -0.2539 -0.5546
 4237SOL    HW113076   3.040   4.716   4.749  0.5934 -1.5227 -0.1417
 4237SOL    HW213077   3.096   4.829   4.833 -1.5505  0.2370 -0.9650
 4238SOL     OW13078   2.611   0.562   2.106  0.7062  0.1586 -0.2567
 4238SOL    HW113079   2.621   0.634   2.167  1.2087  0.1751 -0.3483
 4238SOL    HW213080   2.543   0.590   2.045  0.0232  0.0345  0.4390
 4239SOL     OW13081   6.193   0.080   2.292  0.0203  0.5403 -0.1220
 4239SOL    HW113082   6.186   0.172   2.318 -0.4695  0.2005  1.0344
 4239SOL    HW213083   6.109   0.042   2.317  0.5659 -0.4324  0.2899
 4240SOL     OW13084   4.755   6.071   1.709 -0.0899 -0.8705 -0.5816
 4240SOL    HW113085   4.674   6.061   1.758  0.2706 -0.1073  0.2054
 4240SOL    HW213086   4.775   5.984   1.676 -0.2490 -1.4449  0.7945
 4241SOL     OW13087   0.966   4.210   3.867  0.6862 -0.3358 -0.3910
 4241SOL    HW113088   0.878   4.188   3.835  0.5285 -1.3593  0.6716
 4241SOL    HW213089   0.951   4.264   3.944  1.0386  0.8083 -1.0973
 4242SOL     OW13090   2.422   0.324   5.587  0.5216 -0.2808 -0.4001
 4242SOL    HW113091   2.362   0.298   5.517  1.3256  0.3667 -1.3715
 4242SOL    HW213092   2.432   0.419   5.576  1.4068 -0.3137 -0.0182
 4243SOL     OW13093   2.735   2.894   0.606  0.0670  0.2672  0.2405
 4243SOL    HW113094   2.789   2.835   0.658  0.9295 -0.7612 -1.7173
 4243SOL    HW213095   2.647   2.885   0.643  0.2454 -2.0154  0.2272
 4244SOL     OW13096   6.657   2.187   6.261 -0.5047  0.2585  0.2646
 4244SOL    HW113097   6.642   2.192   6.356 -1.3482 -1.7387  0.2875
 4244SOL    HW213098   6.605   2.258   6.224  0.9335  1.9787  1.3487
 4245SOL     OW13099   1.579   6.015   2.672  0.2928 -0.3544  0.0664
 4245SOL    HW113100   1.632   5.999   2.594  0.1524  0.7763 -0.2842
 4245SOL    HW213101   1.556   5.928   2.704  1.8606 -0.8736 -0.1078
 4246SOL     OW13102   1.951   3.887   0.396  0.5553  0.2904  0.4856
 4246SOL    HW113103   1.954   3.792   0.388  2.4272  0.3473 -0.0102
 4246SOL    HW213104   1.858   3.908   0.399  0.1067 -1.6779  2.4949
 4247SOL     OW13105   0.463   3.588   5.930  0.0742  0.0529 -0.4163
 4247SOL    HW113106   0.379   3.633   5.927 -0.3140 -0.6593 -0.3894
 4247SOL    HW213107   0.528   3.657   5.915 -0.4699  0.7224  0.2336
 4248SOL     OW13108   0.224   0.538   3.530  0.0177 -0.6757  0.0614
 4248SOL    HW113109   0.253   0.593   3.457 -1.0849 -1.2192 -0.8251
 4248SOL    HW213110   0.223   0.450   3.494  0.5047 -1.1191  1.0807
 4249SOL     OW13111   0.840   1.692   3.835 -0.1850 -0.1490 -0.5949
 4249SOL    HW113112   0.786   1.662   3.762 -0.3989  0.1804 -0.5736
 4249SOL    HW213113   0.918   1.730   3.794 -0.4801  0.3858 -0.6712
 4250SOL     OW13114   4.463   1.631   0.649  0.5088 -0.3180  0.1229
 4250SOL    HW113115   4.455   1.689   0.573 -1.4747  0.7487  1.0588
 4250SOL    HW213116   4.403   1.559   0.630 -1.9188  1.1642  1.6142
 4251SOL     OW13117   3.444   1.343   4.214 -0.1308 -0.0819 -0.1548
 4251SOL    HW113118   3.515   1.300   4.167 -1.5223 -1.5616 -0.9951
 4251SOL    HW213119   3.426   1.286   4.289  2.1827  2.3376  2.4891
 4252SOL     OW13120   6.052   4.996   3.107 -0.6769  0.1744 -0.0993
 4252SOL    HW113121   6.116   4.964   3.043 -1.5909 -0.8955 -0.5372
 4252SOL    HW213122   6.015   4.916   3.145 -0.5042  0.7954  1.4252
 4253SOL     OW13123   5.617   6.191   0.288 -0.3207  0.5679  0.4423
 4253SOL    HW113124   5.611   6.191   0.192  2.9787  0.5972  0.1336
 4253SOL    HW213125   5.561   6.118   0.315 -0.0837 -0.4645 -1.6332
 4254SOL     OW13126   2.817   2.015   1.277  0.2394  0.2080 -0.8207
 4254SOL    HW113127   2.827   1.939   1.219 -1.6149 -1.2777  0.6950
 4254SOL    HW213128   2.856   1.987   1.360  1.6550  1.8241 -0.8866
 4255SOL     OW13129   0.258   3.212   4.260  0.2828 -0.1797 -0.0968
 4255SOL    HW113130   0.288   3.163   4.184  0.1488  0.3039 -0.4691
 4255SOL    HW213131   0.338   3.239   4.305  0.3966  0.5224 -0.7083
 4256SOL     OW13132   5.751   0.840   4.116  0.5794 -1.0414  0.3304
 4256SOL    HW113133   5.761   0.774   4.184  0.5112 -1.5641 -0.1593
 4256SOL    HW213134   5.745   0.790   4.034  2.3809 -0.3714 -0.2649
 4257SOL     OW13135   5.053   4.376   3.053  0.2938 -0.0994  0.0395
 4257SOL    HW113136   5.092   4.289   3.059  0.9345  0.0172 -1.7884
 4257SOL    HW213137   5.001   4.373   2.973 -3.5489 -0.2194  2.3090
 4258SOL     OW13138   3.405   4.959   4.161  0.7235 -0.1592  0.1407
 4258SOL    HW113139   3.492   4.977   4.125  1.2299 -1.0783  0.8438
 4258SOL    HW213140   3.386   4.869   4.132 -0.2773  0.2409 -0.5249
 4259SOL     OW13141   1.295   6.457   5.480 -0.3988  0.1665  0.2374
 4259SOL    HW113142   1.317   6.368   5.509  0.2502  0.4761  0.7098
 4259SOL    HW213143   1.231   6.488   5.545 -1.5843 -0.3956 -0.6219
 4260SOL     OW13144   0.438   1.898   1.261 -0.4682  0.1724  0.4524
 4260SOL    HW113145   0.419   1.842   1.185  1.5477  1.8593 -1.4459
 4260SOL    HW213146   0.367   1.962   1.261  0.2354  1.0162 -0.9737
 4261SOL     OW13147   3.780   6.503   5.947 -0.1216  0.0576  0.5273
 4261SOL    HW113148   3.769   6.415   5.911 -0.2746  0.1907  0.2472
 4261SOL    HW213149   3.771   6.492   6.042 -0.1978 -0.2206  0.4871
 4262SOL     OW13150   2.656   2.378   0.020  0.2014 -0.1884  0.2460
 4262SOL    HW113151   2.667   2.446   0.086  1.1388 -1.3181  1.3111
 4262SOL    HW213152   2.613   2.306   0.066  1.8699 -1.4233 -0.0324
 4263SOL     OW13153   4.410   3.201   6.717  0.0730  0.3427 -0.0411
 4263SOL    HW113154   4.333   3.239   6.759 -0.1449 -1.8924  1.7902
 4263SOL    HW213155   4.377   3.162   6.636 -0.4024  0.8033 -0.0718
 4264SOL     OW13156   1.787   5.945   3.937 -0.3348 -0.1266  0.1216
 4264SOL    HW113157   1.815   5.892   3.862 -0.2820  0.6956 -0.4661
 4264SOL    HW213158   1.709   5.901   3.970 -0.1910 -0.6622 -0.2395
 4265SOL     OW13159   6.330   5.091   0.057  0.0759 -0.1199 -0.1573
 4265SOL    HW113160   6.416   5.062   0.027  0.6691  0.5701  0.8258
 4265SOL    HW213161   6.337   5.186   0.059  0.3069 -0.1128  2.7367
 4266SOL     OW13162   0.861   1.461   6.538 -0.3863  0.3413  0.2573
 4266SOL    HW113163   0.807   1.510   6.600  1.8431  0.0758  2.5651
 4266SOL    HW213164   0.852   1.370   6.564  3.3664  0.4983  2.7674
 4267SOL     OW13165   5.807   5.642   6.667 -0.0775  0.1423 -0.5679
 4267SOL    HW113166   5.715   5.616   6.669 -0.3844  1.1267 -1.2533
 4267SOL    HW213167   5.809   5.723   6.616  1.0085  0.7693  0.4015
 4268SOL     OW13168   0.546   3.110   1.254 -0.2523  0.4964 -0.4410
 4268SOL    HW113169   0.602   3.178   1.291  1.2750 -0.8340 -0.1873
 4268SOL    HW213170   0.490   3.083   1.327  0.8636 -0.2088  0.1968
 4269SOL     OW13171   5.308   6.513   1.932 -0.0209  0.0157  0.1124
 4269SOL    HW113172   5.357   6.528   2.013 -0.5392  2.7756  0.0261
 4269SOL    HW213173   5.315   6.596   1.885 -0.9617 -1.0429 -2.0131
 4270SOL     OW13174   3.713   0.364   6.196  0.5964  0.0353  0.6922
 4270SOL    HW113175   3.705   0.442   6.252 -0.8947  1.7410 -1.7078
 4270SOL    HW213176   3.796   0.376   6.150  1.5779 -1.1169  2.0738
 4271SOL     OW13177   2.665   0.324   2.922  0.0058  0.7008  0.4807
 4271SOL    HW113178   2.715   0.286   2.994  0.7624  0.2878 -0.2386
 4271SOL    HW213179   2.657   0.417   2.944  1.1376  0.7831  0.6058
 4272SOL     OW13180   5.892   6.034   0.962 -0.6228  0.0560  0.4907
 4272SOL    HW113181   5.878   6.054   0.870  0.6752  0.3858  0.3366
 4272SOL    HW213182   5.871   6.115   1.008  1.3461  0.8108  0.1864
 4273SOL     OW13183   2.428   6.394   0.353 -0.0858 -0.3273  0.0126
 4273SOL    HW113184   2.347   6.344   0.362  0.5730 -1.7051 -1.2992
 4273SOL    HW213185   2.399   6.485   0.346 -1.4611 -0.7213  0.2255
 4274SOL     OW13186   0.177   5.163   0.830  0.1612 -0.2161 -0.1378
 4274SOL    HW113187   0.185   5.085   0.775 -1.2655  0.2808 -1.1245
 4274SOL    HW213188   0.138   5.132   0.911 -1.5496 -0.4040 -0.9858
 4275SOL     OW13189   5.807   4.344   3.850  0.0560 -0.4402 -0.2380
 4275SOL    HW113190   5.764   4.322   3.768 -0.5793 -0.0750 -0.0081
 4275SOL    HW213191   5.823   4.260   3.893  1.9798 -0.7907 -1.4985
 4276SOL     OW13192   5.400   1.679   5.301  0.0117  0.4217  0.2181
 4276SOL    HW113193   5.389   1.751   5.362 -0.8848  1.3326 -0.9800
 4276SOL    HW213194   5.484   1.696   5.258  0.3716  0.0876  0.7806
 4277SOL     OW13195   6.227   4.570   0.405 -0.2115 -0.4249  0.1669
 4277SOL    HW113196   6.141   4.606   0.426  0.2053  0.3173  0.6459
 4277SOL    HW213197   6.248   4.511   0.478  1.1909  2.0738  1.9134
 4278SOL     OW13198   0.103   1.290   0.764 -0.1936 -0.2107 -0.1245
 4278SOL    HW113199   0.019   1.252   0.789  0.5658 -2.2315 -0.4462
 4278SOL    HW213200   0.126   1.247   0.682  1.3198  0.0046  0.1562
 4279SOL     OW13201   1.690   1.655   5.089 -0.1861 -0.0419 -0.0183
 4279SOL    HW113202   1.760   1.707   5.129  0.0218 -0.5406  0.2783
 4279SOL    HW213203   1.623   1.647   5.158  0.1834 -0.9233  0.2613
 4280SOL     OW13204   2.738   1.801   2.124 -0.3006 -0.6407 -0.2408
 4280SOL    HW113205   2.761   1.883   2.168  1.1595 -1.0733 -0.1478
 4280SOL    HW213206   2.723   1.739   2.196 -0.3026 -0.7295 -0.3170
 4281SOL     OW13207   3.157   2.493   1.718 -0.2014 -0.5975 -0.0511
 4281SOL    HW113208   3.097   2.478   1.791  1.9517 -1.9938  1.5601
 4281SOL    HW213209   3.126   2.573   1.677 -3.2221 -1.3334  0.5513
 4282SOL     OW13210   6.012   0.293   1.763  0.1480 -0.1954  0.3574
 4282SOL    HW113211   6.075   0.324   1.829 -2.2620  1.2723  2.1519
 4282SOL    HW213212   6.009   0.362   1.697  1.4127 -0.9433 -0.5239
 4283SOL     OW13213   6.226   3.517   0.117 -0.1262 -0.6871  0.7172
 4283SOL    HW113214   6.181   3.452   0.063  0.0401 -1.5902  1.6270
 4283SOL    HW213215   6.188   3.507   0.204 -1.2697  1.5952  0.5511
 4284SOL     OW13216   4.228   5.011   6.112  0.7655  0.2705 -0.0939
 4284SOL    HW113217   4.209   5.012   6.019 -1.3669 -2.1348  0.2073
 4284SOL    HW213218   4.159   5.065   6.151  0.5046 -0.2765  0.2150
 4285SOL     OW13219   4.553   0.003   1.265  0.4272  0.2241 -0.2342
 4285SOL    HW113220   4.555  -0.091   1.245 -0.4096  0.0205  0.5271
 4285SOL    HW213221   4.519   0.044   1.185  0.0496 -0.2183 -0.3076
 4286SOL     OW13222   2.708   6.605   5.179  0.3543  0.1805  0.0275
 4286SOL    HW113223   2.628   6.624   5.229  0.6901  1.1505  0.2305
 4286SOL    HW213224   2.710   6.674   5.112 -0.7776 -1.8370 -2.2139
 4287SOL     OW13225   2.813   4.559   0.600  0.1669 -0.3247 -0.0706
 4287SOL    HW113226   2.858   4.632   0.642  1.9484 -2.6476  2.4272
 4287SOL    HW213227   2.873   4.530   0.531  0.7469 -1.0054  0.6944
 4288SOL     OW13228   1.217   3.149   2.894 -0.2191  0.0309  0.3055
 4288SOL    HW113229   1.197   3.057   2.875 -0.0048  0.3021 -1.4395
 4288SOL    HW213230   1.294   3.146   2.951 -0.4921 -0.8807  0.6356
 4289SOL     OW13231   4.087   0.193   4.508 -0.0104  0.2706 -0.2526
 4289SOL    HW113232   4.066   0.214   4.417  2.2686 -1.2555 -1.2512
 4289SOL    HW213233   4.050   0.106   4.522 -2.1733  1.3269  1.0552
 4290SOL     OW13234   1.147   2.497   4.241  0.0806 -0.2824 -0.3416
 4290SOL    HW113235   1.118   2.431   4.177  1.4406 -0.1772 -1.0968
 4290SOL    HW213236   1.234   2.523   4.211  0.1063  0.9099  0.6969
 4291SOL     OW13237   2.993   5.513   4.341 -0.5211 -0.1641  0.4858
 4291SOL    HW113238   2.919   5.513   4.281  0.4396 -0.3807 -0.7253
 4291SOL    HW213239   2.979   5.590   4.396 -2.4195 -1.0119  1.3041
 4292SOL     OW13240   0.783   6.569   1.588 -0.0882  0.2146 -0.7985
 4292SOL    HW113241   0.869   6.584   1.626  0.6591  0.7287 -2.5890
 4292SOL    HW213242   0.771   6.474   1.594  0.7389  0.1020 -0.8034
 4293SOL     OW13243   1.203   5.854   2.991 -0.4648 -0.5674  0.0256
 4293SOL    HW113244   1.137   5.810   3.043 -2.1763  0.2108 -1.3981
 4293SOL    HW213245   1.170   5.849   2.901  0.0293  2.2185 -0.4013
 4294SOL     OW13246   4.970   0.072   3.990  0.0837 -0.1331  0.1565
 4294SOL    HW113247   4.877   0.096   3.993  0.1405  0.0465  0.4500
 4294SOL    HW213248   4.976  -0.007   4.044  0.1190 -0.0916  0.2126
 4295SOL     OW13249   6.617   1.454   2.618 -0.3186  0.1537  0.5568
 4295SOL    HW113250   6.600   1.547   2.604 -2.5204 -0.4311 -1.3559
 4295SOL    HW213251   6.551   1.427   2.682 -0.1200 -0.2107  0.6083
 4296SOL     OW13252   1.452   2.497   0.598  0.2067  0.2074  0.5118
 4296SOL    HW113253   1.505   2.462   0.526  0.3804 -0.6256  1.0257
 4296SOL    HW213254   1.490   2.583   0.616  0.9344 -0.0813  0.4015
 4297SOL     OW13255   5.019   3.873   1.110 -0.0333 -0.3441 -0.0220
 4297SOL    HW113256   5.059   3.789   1.132  1.9858  0.2708 -1.0478
 4297SOL    HW213257   5.007   3.917   1.194 -0.7498 -1.4760  0.4877
 4298SOL     OW13258   1.389   2.783   6.170  0.1067 -0.2359 -0.2455
 4298SOL    HW113259   1.375   2.735   6.251  0.5731 -0.1437 -0.1076
 4298SOL    HW213260   1.472   2.828   6.183 -0.3253  0.6170 -0.3732
 4299SOL     OW13261   5.787   2.512   4.594 -0.2758 -0.3306 -0.3006
 4299SOL    HW113262   5.713   2.569   4.573 -0.5330 -0.6850 -0.3748
 4299SOL    HW213263   5.826   2.490   4.510 -1.2090 -1.6194 -0.4323
 4300SOL     OW13264   1.231   4.831   5.650 -0.5221 -0.1590  0.3360
 4300SOL    HW113265   1.276   4.888   5.587 -1.5900 -0.5521 -0.8175
 4300SOL    HW213266   1.244   4.742   5.616 -1.6450 -0.3274  0.3117
 4301SOL     OW13267   4.324   2.236   0.559 -0.1524 -0.4517  0.0361
 4301SOL    HW113268   4.388   2.252   0.489 -1.5269 -1.0543 -1.4252
 4301SOL    HW213269   4.349   2.152   0.596  0.4268 -0.2571  0.1016
 4302SOL     OW13270   4.963   0.159   6.682 -0.6359  0.2229  0.1358
 4302SOL    HW113271   5.056   0.156   6.661 -0.2542 -4.0785  1.5898
 4302SOL    HW213272   4.919   0.133   6.601 -0.3059 -0.7846  0.2698
 4303SOL     OW13273   1.499   5.133   4.958 -0.0883 -0.1891  0.5564
 4303SOL    HW113274   1.528   5.111   5.046  0.3244 -1.7247  0.0797
 4303SOL    HW213275   1.565   5.093   4.901 -0.7803  0.0843 -0.4570
 4304SOL     OW13276   5.674   0.584   1.382 -0.5812  0.2184  0.8214
 4304SOL    HW113277   5.595   0.572   1.435 -1.2128  1.6382  0.2739
 4304SOL    HW213278   5.643   0.627   1.303  0.4139 -1.4066 -0.5200
 4305SOL     OW13279   3.442   0.656   1.422 -0.3132 -0.2419 -0.5733
 4305SOL    HW113280   3.430   0.685   1.332 -0.3688 -0.7761 -0.7432
 4305SOL    HW213281   3.355   0.662   1.461 -0.1174  0.8820 -0.2745
 4306SOL     OW13282   2.182   0.222   3.075 -0.2655  0.3633 -0.4741
 4306SOL    HW113283   2.127   0.192   3.002 -0.3635 -1.3153  0.2497
 4306SOL    HW213284   2.261   0.256   3.032 -1.2111  1.4051 -1.4464
 4307SOL     OW13285   0.320   3.787   3.241 -0.2050  0.0290  0.3429
 4307SOL    HW113286   0.400   3.768   3.290  0.1801 -0.5167 -0.4607
 4307SOL    HW213287   0.252   3.738   3.286  0.0428 -0.0322  0.6545
 4308SOL     OW13288   5.433   1.151   6.303 -0.2888 -0.1088  0.2631
 4308SOL    HW113289   5.387   1.081   6.350  1.2217 -0.6954  0.9242
 4308SOL    HW213290   5.525   1.136   6.322  0.2108  0.9220 -1.1881
 4309SOL     OW13291   4.733   3.885   6.735  0.0636 -0.4647 -0.0790
 4309SOL    HW113292   4.779   3.830   6.671  0.5612  0.0115 -0.1326
 4309SOL    HW213293   4.656   3.917   6.688  0.4415 -0.0942 -0.4527
 4310SOL     OW13294   0.615   6.367   1.233  0.0379 -0.1985 -0.2518
 4310SOL    HW113295   0.682   6.311   1.273  0.7150 -0.7492 -2.0499
 4310SOL    HW213296   0.637   6.455   1.262  1.0189 -0.4819 -0.0762
 4311SOL     OW13297   2.453   1.016   5.600  0.0648  0.2058  0.5557
 4311SOL    HW113298   2.420   1.105   5.589  0.3724  0.3777  0.9646
 4311SOL    HW213299   2.459   1.005   5.695  0.6294 -0.0247  0.4960
 4312SOL     OW13300   4.764   6.479   1.441 -0.0683 -0.2079 -0.0991
 4312SOL    HW113301   4.741   6.566   1.475  0.9675  0.9915 -2.2413
 4312SOL    HW213302   4.695   6.461   1.377 -1.2135 -1.7892  1.4884
 4313SOL     OW13303   6.280   5.863   0.723 -0.0212  0.6178  0.0553
 4313SOL    HW113304   6.283   5.890   0.631 -1.4283 -0.3264 -0.2992
 4313SOL    HW213305   6.316   5.938   0.770 -1.1367  1.9705 -1.1147
 4314SOL     OW13306   3.320   3.772   4.587  0.0557  0.6888 -0.1438
 4314SOL    HW113307   3.404   3.737   4.614 -1.0721 -0.4077  2.2220
 4314SOL    HW213308   3.299   3.838   4.653 -0.8128  1.1528 -0.8662
 4315SOL     OW13309   6.030   0.711   1.336  0.4349 -0.1618 -0.4139
 4315SOL    HW113310   6.073   0.794   1.317  0.6340 -0.6157 -2.0651
 4315SOL    HW213311   5.941   0.735   1.361 -0.3472  0.5000 -3.4365
 4316SOL     OW13312   4.123   5.884   2.673  0.0965 -0.1588 -0.6031
 4316SOL    HW113313   4.179   5.812   2.644  1.1613  0.7966 -1.0134
 4316SOL    HW213314   4.131   5.883   2.769  2.7323  1.3551 -0.7072
 4317SOL     OW13315   1.779   1.292   3.504 -0.4073 -0.2578 -0.3992
 4317SOL    HW113316   1.701   1.237   3.509 -0.7210  0.2866  2.0457
 4317SOL    HW213317   1.754   1.373   3.549  1.2272  0.3891 -0.5822
 4318SOL     OW13318   0.823   4.269   1.016  0.4092  0.4645  0.0709
 4318SOL    HW113319   0.842   4.180   0.985  2.0019 -0.0751  2.3410
 4318SOL    HW213320   0.853   4.326   0.946  1.0749 -0.7298 -0.6513
 4319SOL     OW13321   6.143   4.776   2.459 -0.2663  0.8152  0.0765
 4319SOL    HW113322   6.092   4.823   2.525 -2.0111 -0.6117 -0.1667
 4319SOL    HW213323   6.109   4.808   2.375  0.2669  0.8984 -0.1103
 4320SOL     OW13324   1.602   5.509   6.707 -0.0456 -0.5910 -0.1901
 4320SOL    HW113325   1.541   5.515   6.635 -0.9374  1.1403  0.6648
 4320SOL    HW213326   1.577   5.428   6.753 -1.4107 -0.1578 -0.1277
 4321SOL     OW13327   3.472   1.999   1.020 -0.1903  0.0324 -0.4143
 4321SOL    HW113328   3.523   2.012   0.940  1.1385 -1.1775  0.1976
 4321SOL    HW213329   3.395   1.949   0.991 -1.2800  2.1708 -1.4018
 4322SOL     OW13330   2.652   2.579   0.435  0.2694 -0.1356  0.2397
 4322SOL    HW113331   2.681   2.591   0.526 -0.0262 -2.5555  0.7103
 4322SOL    HW213332   2.639   2.485   0.426  1.2982 -0.1012 -2.6506
 4323SOL     OW13333   1.410   4.818   3.993 -0.4775 -0.6846  0.2140
 4323SOL    HW113334   1.478   4.864   3.945  1.1992 -0.8614  2.3084
 4323SOL    HW213335   1.448   4.733   4.014 -1.3809 -0.8576  1.2848
 4324SOL     OW13336   5.361   2.099   1.391  0.1584  0.1402 -0.1752
 4324SOL    HW113337   5.315   2.182   1.401  1.6198  0.9839 -0.0563
 4324SOL    HW213338   5.308   2.036   1.439 -1.0059  0.9881 -0.3074
 4325SOL     OW13339   5.526   5.297   2.850  0.0053  1.0495  0.3378
 4325SOL    HW113340   5.528   5.347   2.932 -0.6317  2.2332 -0.3433
 4325SOL    HW213341   5.436   5.264   2.844  0.4828 -0.4200  0.8986
 4326SOL     OW13342   4.015   3.644   5.495 -0.3559 -0.1762  0.4445
 4326SOL    HW113343   4.057   3.623   5.412  1.9920  0.8370  1.2883
 4326SOL    HW213344   4.040   3.573   5.554 -1.6522 -0.6682  0.4297
 4327SOL     OW13345   2.159   6.500   2.214  0.7448  0.2945 -0.5175
 4327SOL    HW113346   2.122   6.460   2.293  0.2580 -0.1956 -0.9738
 4327SOL    HW213347   2.082   6.521   2.160  0.9977  1.7765 -0.3380
 4328SOL     OW13348   0.729   3.432   2.257  0.5018 -0.0206  0.5072
 4328SOL    HW113349   0.720   3.524   2.283 -2.1391 -0.0960  0.1397
 4328SOL    HW213350   0.656   3.388   2.300  1.7668 -2.0127  0.7596
 4329SOL     OW13351   4.283   6.628   3.591 -0.1424  0.0327  0.0663
 4329SOL    HW113352   4.313   6.584   3.511 -0.3562 -0.3033  0.1706
 4329SOL    HW213353   4.333   6.710   3.593  0.0008 -0.0427 -0.3132
 4330SOL     OW13354   2.025   3.994   4.399 -0.1243 -0.4630  0.0064
 4330SOL    HW113355   2.104   4.043   4.421  0.0005 -1.0080  0.8310
 4330SOL    HW213356   2.037   3.968   4.308  0.6333 -0.5164  0.1162
 4331SOL     OW13357   5.423   4.280   2.915 -0.8146  0.4382 -0.0707
 4331SOL    HW113358   5.383   4.357   2.954  0.8209  0.4420  1.7911
 4331SOL    HW213359   5.429   4.300   2.821  0.1796  2.9099  0.4409
 4332SOL     OW13360   4.083   3.833   3.583 -0.0410 -0.1949  0.1472
 4332SOL    HW113361   4.103   3.898   3.515 -0.7003 -1.4474 -1.3201
 4332SOL    HW213362   3.989   3.839   3.595 -0.4732 -2.1861 -1.5337
 4333SOL     OW13363   6.588   1.927   0.691  0.4900 -0.0999  0.3095
 4333SOL    HW113364   6.627   1.886   0.768  0.1588 -0.7454  0.1415
 4333SOL    HW213365   6.662   1.967   0.645  1.5339 -3.7848 -1.5559
 4334SOL     OW13366   4.214   2.730   4.171 -0.4944 -0.0198  0.0826
 4334SOL    HW113367   4.193   2.767   4.256 -2.7121 -1.2700  0.1683
 4334SOL    HW213368   4.189   2.638   4.178 -0.0402 -0.3308 -1.7025
 4335SOL     OW13369   4.955   1.007   5.154 -0.1271  0.1824 -0.3640
 4335SOL    HW113370   4.907   0.933   5.192 -1.7330  1.5220  0.3654
 4335SOL    HW213371   5.035   1.013   5.207  0.0202 -1.0215 -0.4349
 4336SOL     OW13372   2.058   3.389   0.106 -0.2528  0.7831 -0.1690
 4336SOL    HW113373   2.085   3.440   0.029  2.3541 -0.4275 -0.1859
 4336SOL    HW213374   1.976   3.348   0.080 -0.5053  2.0576 -1.5192
 4337SOL     OW13375   5.605   2.412   0.363 -0.0179  0.6916 -0.2564
 4337SOL    HW113376   5.678   2.396   0.422 -0.4881 -1.5384 -0.1857
 4337SOL    HW213377   5.645   2.446   0.283  1.2623 -1.4403 -0.5911
 4338SOL     OW13378   1.584   2.019   6.176 -0.2170 -0.4907 -0.0463
 4338SOL    HW113379   1.639   2.024   6.097 -0.9020  1.3653 -0.4720
 4338SOL    HW213380   1.646   2.005   6.247  0.5580 -0.8860 -0.7813
 4339SOL     OW13381   4.127   6.771   4.278  0.3279  0.0893 -0.2997
 4339SOL    HW113382   4.058   6.750   4.215 -1.4201  1.5682  0.9916
 4339SOL    HW213383   4.092   6.742   4.363  1.7219  0.0123  0.2790
 4340SOL     OW13384   4.481   6.796   0.710 -0.6209 -0.1775  0.2239
 4340SOL    HW113385   4.565   6.813   0.753 -0.4751  0.7817 -0.4149
 4340SOL    HW213386   4.447   6.718   0.754  0.3090 -0.2089  0.9160
 4341SOL     OW13387   0.854   0.840   4.840 -0.0684  0.4420  0.7988
 4341SOL    HW113388   0.907   0.868   4.766  1.7594 -0.7292  1.5971
 4341SOL    HW213389   0.828   0.750   4.819 -0.6396  0.5460  1.0250
 4342SOL     OW13390   1.683   1.432   1.990 -0.5675  0.0289  0.2975
 4342SOL    HW113391   1.735   1.385   2.055  0.1149 -1.7203 -1.4111
 4342SOL    HW213392   1.598   1.388   1.989 -0.7296  0.3353  0.2994
 4343SOL     OW13393   6.537   5.328   5.751 -0.1074  0.2706 -0.0848
 4343SOL    HW113394   6.556   5.239   5.721 -0.1220  0.6143 -1.1571
 4343SOL    HW213395   6.441   5.329   5.760  0.0024 -0.2493  1.3773
 4344SOL     OW13396   3.187   2.306   0.211 -0.4020  0.2088  0.3348
 4344SOL    HW113397   3.095   2.279   0.216 -0.5132  0.1501 -1.4248
 4344SOL    HW213398   3.211   2.293   0.120  1.3817  0.2154  0.7596
 4345SOL     OW13399   4.959   1.670   1.734  0.2080  0.2755  0.1873
 4345SOL    HW113400   4.889   1.735   1.726 -2.4579 -2.4585 -0.9019
 4345SOL    HW213401   4.972   1.661   1.829 -0.4386  1.3204  0.3989
 4346SOL     OW13402   6.622   5.090   5.658  0.6089  0.2186 -0.5980
 4346SOL    HW113403   6.690   5.066   5.594  1.5863 -0.7074  0.7413
 4346SOL    HW213404   6.630   5.024   5.727 -0.7789  0.8913  0.2380
 4347SOL     OW13405   2.311   0.011   0.757  0.0873  0.6729 -0.0359
 4347SOL    HW113406   2.337   0.020   0.665 -0.2047  0.8247 -0.1046
 4347SOL    HW213407   2.266   0.093   0.777 -0.2173  0.4684  0.1212
 4348SOL     OW13408   0.862   0.742   0.649 -0.0834 -0.4230  0.0055
 4348SOL    HW113409   0.835   0.703   0.566 -2.2629  2.0445 -0.5636
 4348SOL    HW213410   0.932   0.802   0.626 -1.0894  0.7085 -0.2185
 4349SOL     OW13411   6.656   6.445   6.493 -0.7077  0.1405 -0.3548
 4349SOL    HW113412   6.575   6.444   6.442 -0.5242 -0.3265 -0.6391
 4349SOL    HW213413   6.708   6.515   6.453 -0.5502 -0.2479 -0.8384
 4350SOL     OW13414   0.330   0.870   4.662  0.1538  0.2865 -0.5861
 4350SOL    HW113415   0.261   0.882   4.597  1.0684  0.1846 -1.6166
 4350SOL    HW213416   0.391   0.941   4.645  0.5113  0.1333  0.0326
 4351SOL     OW13417   5.379   4.426   4.353  0.3814  0.2259  0.0635
 4351SOL    HW113418   5.375   4.509   4.305  0.0221  0.4450  0.4649
 4351SOL    HW213419   5.368   4.359   4.286  1.1709  0.4801 -0.3341
 4352SOL     OW13420   6.421   2.095   4.601 -0.4863  0.2557 -0.2005
 4352SOL    HW113421   6.352   2.087   4.535 -0.0614 -1.3138 -0.5164
 4352SOL    HW213422   6.379   2.071   4.683 -0.4520 -0.2274 -0.3182
 4353SOL     OW13423   6.296   0.810   4.878  0.0297  0.7995  1.0931
 4353SOL    HW113424   6.354   0.757   4.823 -0.5398  3.2020 -2.1281
 4353SOL    HW213425   6.351   0.837   4.952  1.0480 -1.9747  1.4805
 4354SOL     OW13426   1.863   2.681   0.270  0.3085  0.0111  0.1038
 4354SOL    HW113427   1.866   2.700   0.176  2.2929  0.0629  0.1293
 4354SOL    HW213428   1.795   2.738   0.303 -1.0374 -0.6315 -1.4181
 4355SOL     OW13429   6.550   3.811   0.397 -0.2684  0.2024 -0.1829
 4355SOL    HW113430   6.606   3.756   0.343  0.3739 -0.0852  0.7437
 4355SOL    HW213431   6.492   3.749   0.442 -0.6858  0.4235 -0.4061
 4356SOL     OW13432   5.817   3.285   3.781  0.5129 -0.8435 -0.3183
 4356SOL    HW113433   5.892   3.342   3.764 -0.1816  0.4527  0.8179
 4356SOL    HW213434   5.745   3.344   3.802 -0.6275 -2.0961 -0.5510
 4357SOL     OW13435   1.270   0.295   2.094  0.2982  0.4079  0.1021
 4357SOL    HW113436   1.202   0.344   2.141  0.9156  0.0494  1.4205
 4357SOL    HW213437   1.340   0.359   2.079  0.7396  0.1639  1.0520
 4358SOL     OW13438   6.690   0.723   0.740 -0.7530  0.5236 -0.3781
 4358SOL    HW113439   6.689   0.807   0.787 -0.7232  0.3317 -0.0380
 4358SOL    HW213440   6.677   0.748   0.648 -0.9884  0.8820 -0.2504
 4359SOL     OW13441   4.865   5.879   4.188  0.3501 -0.3220 -0.4076
 4359SOL    HW113442   4.850   5.973   4.201  0.9053 -0.1477 -0.9720
 4359SOL    HW213443   4.783   5.847   4.150  0.3995  0.0734 -0.8599
 4360SOL     OW13444   5.419   4.754   5.640  0.1861  0.2255  0.7145
 4360SOL    HW113445   5.349   4.737   5.703 -0.4561  2.0424  0.5506
 4360SOL    HW213446   5.496   4.771   5.695 -0.3610  1.7630  1.0455
 4361SOL     OW13447   6.544   0.429   4.033  0.2328 -0.1512 -0.4921
 4361SOL    HW113448   6.537   0.358   3.970  0.6605 -0.8209  0.2035
 4361SOL    HW213449   6.567   0.386   4.116 -0.8864  0.6374  0.2676
 4362SOL     OW13450   3.337   1.164   1.561 -0.1052  0.1485 -0.1290
 4362SOL    HW113451   3.378   1.079   1.548 -2.4209 -0.9795 -0.5438
 4362SOL    HW213452   3.249   1.144   1.594 -0.4205  2.4217  0.6153
 4363SOL     OW13453   3.629   0.392   2.443  0.2853 -0.4236 -0.4141
 4363SOL    HW113454   3.566   0.331   2.403  1.2381 -0.4695 -1.9458
 4363SOL    HW213455   3.714   0.364   2.409  1.2843 -0.8252  2.1760
 4364SOL     OW13456   2.649   1.965   2.463  0.0816  0.1178  0.0744
 4364SOL    HW113457   2.566   1.928   2.433  0.3257  0.0280 -0.4930
 4364SOL    HW213458   2.660   1.931   2.552 -1.5113  1.7583  0.9648
 4365SOL     OW13459   6.401   6.594   1.830 -0.0701 -0.0986  0.4019
 4365SOL    HW113460   6.345   6.636   1.896 -2.6166 -1.0394 -1.0055
 4365SOL    HW213461   6.441   6.667   1.782  0.7293  0.5941  2.0541
 4366SOL     OW13462   6.248   4.862   4.016  0.1672  0.1491 -0.1890
 4366SOL    HW113463   6.219   4.847   4.106  0.7601 -0.7934 -0.1444
 4366SOL    HW213464   6.258   4.957   4.010 -1.3638  0.3629  0.2620
 4367SOL     OW13465   4.993   2.526   2.565 -0.0472  0.0530 -0.0377
 4367SOL    HW113466   5.074   2.537   2.517 -0.0154 -2.9497 -0.8869
 4367SOL    HW213467   4.974   2.613   2.601  2.9425  1.0861 -0.6651
 4368SOL     OW13468   1.723   2.463   4.166  0.2626 -0.1665  0.0956
 4368SOL    HW113469   1.759   2.395   4.224 -0.3412 -0.3278  0.2902
 4368SOL    HW213470   1.720   2.542   4.220 -2.0901 -0.7464  0.9510
 4369SOL     OW13471   1.697   4.914   5.745  0.1537  0.1322 -0.2750
 4369SOL    HW113472   1.672   4.971   5.672  0.4203  0.2053 -0.3124
 4369SOL    HW213473   1.660   4.828   5.722  0.7205  0.0137 -0.7832
 4370SOL     OW13474   0.935   4.240   0.265 -0.2152 -0.0490 -0.2657
 4370SOL    HW113475   0.974   4.157   0.240  1.2123 -0.0985  1.8667
 4370SOL    HW213476   0.841   4.230   0.246  0.0039 -1.9387 -0.5040
 4371SOL     OW13477   0.762   2.024   3.089 -0.1071 -0.0199 -0.0523
 4371SOL    HW113478   0.823   1.995   3.022 -0.2772  0.0320 -0.2287
 4371SOL    HW213479   0.751   1.948   3.146 -1.0179 -0.5075 -0.8483
 4372SOL     OW13480   2.036   6.175   6.475  0.4863 -0.1029 -0.7055
 4372SOL    HW113481   2.045   6.125   6.394  1.6006  0.9116 -1.2349
 4372SOL    HW213482   2.123   6.211   6.491  0.2118 -0.0644  0.8039
 4373SOL     OW13483   5.018   2.195   5.459 -0.4906  0.7525  0.3659
 4373SOL    HW113484   5.082   2.253   5.417 -0.0710  1.1630  1.5353
 4373SOL    HW213485   5.065   2.156   5.532 -1.4242  0.6463  0.9278
 4374SOL     OW13486   3.378   3.288   4.295  0.0597 -0.4229  0.1591
 4374SOL    HW113487   3.449   3.226   4.278 -0.4531 -0.8262 -0.5347
 4374SOL    HW213488   3.305   3.233   4.325 -0.2210 -0.0941  0.0854
 4375SOL     OW13489   2.913   2.912   2.081  0.0967  0.4715 -0.2424
 4375SOL    HW113490   2.837   2.867   2.118 -0.2332  0.2668 -1.1524
 4375SOL    HW213491   2.962   2.843   2.036 -0.3666  0.9698 -1.5664
 4376SOL     OW13492   6.277   0.209   3.439  0.3385 -0.5031 -0.5501
 4376SOL    HW113493   6.368   0.221   3.414 -0.3672  0.6753 -2.8920
 4376SOL    HW213494   6.240   0.297   3.436 -0.8094 -0.9069  0.7437
 4377SOL     OW13495   6.324   0.528   5.122  0.0334  0.3291  0.0791
 4377SOL    HW113496   6.390   0.594   5.101  0.4734 -0.2185 -0.2912
 4377SOL    HW213497   6.344   0.502   5.212  1.7719 -1.4559 -0.7458
 4378SOL     OW13498   2.282   1.810   6.120  0.2805  0.3637 -0.0261
 4378SOL    HW113499   2.246   1.737   6.070  0.6967  0.7517 -0.8995
 4378SOL    HW213500   2.329   1.768   6.192  0.6102 -0.2368 -0.5818
 4379SOL     OW13501   0.498   0.109   6.698  0.5367 -0.3550  0.5777
 4379SOL    HW113502   0.462   0.065   6.621  0.2768 -1.0591  1.0891
 4379SOL    HW213503   0.552   0.179   6.662  0.3548 -0.6177 -0.2444
 4380SOL     OW13504   4.751   0.197   3.612 -0.1230 -0.6383  0.3511
 4380SOL    HW113505   4.820   0.253   3.575 -1.9930 -0.8383 -4.1136
 4380SOL    HW213506   4.794   0.113   3.626  1.4986  0.4098  2.0904
 4381SOL     OW13507   3.464   2.084   2.460  0.0303  0.3124  0.1217
 4381SOL    HW113508   3.532   2.022   2.430 -0.7888 -0.3399 -0.4437
 4381SOL    HW213509   3.391   2.069   2.400 -0.3856  1.4661  0.3222
 4382SOL     OW13510   1.179   5.478   2.649  0.3855  0.2420  0.1947
 4382SOL    HW113511   1.237   5.528   2.592  2.6596 -2.6233 -0.2374
 4382SOL    HW213512   1.201   5.386   2.631 -1.3691 -0.8834  3.1140
 4383SOL     OW13513   1.395   0.338   0.075  0.1383 -0.7326  0.1966
 4383SOL    HW113514   1.420   0.247   0.057 -1.1945 -0.9370 -0.7290
 4383SOL    HW213515   1.426   0.387  -0.001 -0.1197 -0.5931  0.1819
 4384SOL     OW13516   1.031   6.100   4.460 -0.1203  1.0411 -0.2453
 4384SOL    HW113517   1.068   6.014   4.440 -0.7896  0.7349 -0.1964
 4384SOL    HW213518   1.096   6.163   4.428 -0.2886  0.5390 -1.6468
 4385SOL     OW13519   4.911   4.572   4.436 -0.1744  0.4581  1.1265
 4385SOL    HW113520   4.894   4.562   4.529 -1.0637  0.2696  0.9523
 4385SOL    HW213521   4.955   4.490   4.410  0.1320  0.5386  1.3843
 4386SOL     OW13522   0.324   0.710   0.217 -0.2670 -0.4396  0.6131
 4386SOL    HW113523   0.321   0.700   0.313  2.7547 -1.5714  0.7217
 4386SOL    HW213524   0.373   0.633   0.187  0.4962  0.8226 -1.6250
 4387SOL     OW13525   6.178   4.107   1.555  0.0142 -0.0053  0.1329
 4387SOL    HW113526   6.153   4.168   1.485  0.3524  1.2602  1.0920
 4387SOL    HW213527   6.258   4.065   1.523  0.0874  0.4594 -0.2986
 4388SOL     OW13528   0.302   1.623   0.786  0.3068 -0.0221 -0.3199
 4388SOL    HW113529   0.291   1.598   0.878  2.2741  0.3112  0.0335
 4388SOL    HW213530   0.213   1.621   0.751 -0.1505 -4.3543  0.4846
 4389SOL     OW13531   3.159   3.693   0.812 -0.3671  0.8613 -0.2525
 4389SOL    HW113532   3.105   3.688   0.733  1.2652 -1.1660 -1.3400
 4389SOL    HW213533   3.116   3.635   0.874 -1.2712  1.9134  0.1265
 4390SOL     OW13534   2.061   4.728   3.302 -0.2752 -0.0010  0.1429
 4390SOL    HW113535   1.977   4.701   3.266 -0.3304 -1.5448  1.2927
 4390SOL    HW213536   2.053   4.822   3.316 -1.4796  0.0208 -0.5983
 4391SOL     OW13537   0.702   2.463   1.159 -0.4277 -0.2012 -0.1553
 4391SOL    HW113538   0.690   2.557   1.163 -0.5832 -0.1511 -1.4464
 4391SOL    HW213539   0.780   2.450   1.106 -2.1524 -0.8214 -2.7310
 4392SOL     OW13540   5.350   1.666   2.327 -0.5110  0.1670  0.4105
 4392SOL    HW113541   5.362   1.602   2.397  0.6379  0.3230  0.3730
 4392SOL    HW213542   5.414   1.735   2.345 -0.2332  0.2414 -0.7425
 4393SOL     OW13543   0.694   5.906   4.491 -0.2471  0.3225 -0.1573
 4393SOL    HW113544   0.729   5.974   4.547  2.6833 -1.0608 -0.0860
 4393SOL    HW213545   0.705   5.940   4.402  0.0445  0.4347 -0.0788
 4394SOL     OW13546   5.640   1.291   1.039  0.2436  0.0810 -0.0447
 4394SOL    HW113547   5.716   1.338   1.006  0.2345  0.8298  0.9901
 4394SOL    HW213548   5.644   1.206   0.995  2.1546 -0.2236  0.6440
 4395SOL     OW13549   0.868   6.171   3.768 -0.3060  0.1179  0.2930
 4395SOL    HW113550   0.871   6.077   3.747 -0.7405 -0.1280  1.2916
 4395SOL    HW213551   0.789   6.203   3.725  0.2153  0.1882 -0.6400
 4396SOL     OW13552   6.410   0.352   0.765 -1.2913  0.1742  0.2574
 4396SOL    HW113553   6.500   0.366   0.797  0.0479 -3.4733 -1.4074
 4396SOL    HW213554   6.367   0.436   0.781  2.4525  2.2383  0.9119
 4397SOL     OW13555   0.777   5.920   4.216 -0.0869 -0.4726 -0.5873
 4397SOL    HW113556   0.859   5.950   4.177  0.8756 -3.5749 -1.1895
 4397SOL    HW213557   0.710   5.938   4.150  0.4825  0.0310 -1.0325
 4398SOL     OW13558   0.247   4.611   2.551  0.6217 -0.3051 -0.0231
 4398SOL    HW113559   0.161   4.574   2.532  0.5437  0.4593 -1.3328
 4398SOL    HW213560   0.266   4.585   2.641 -0.7853 -0.8474  0.1389
 4399SOL     OW13561   0.426   5.848   2.364 -0.0452 -0.2536  0.2435
 4399SOL    HW113562   0.343   5.879   2.329  1.8368  1.3726 -3.2215
 4399SOL    HW213563   0.458   5.919   2.420 -0.6284 -0.6189  1.0648
 4400SOL     OW13564   3.133   5.034   0.713 -0.1926 -0.0137 -0.1229
 4400SOL    HW113565   3.146   4.953   0.662 -0.8627 -0.3521  0.2305
 4400SOL    HW213566   3.091   5.094   0.651 -2.7763 -1.0545  0.5024
 4401SOL     OW13567   1.206   4.006   2.120 -0.4043 -0.3156  0.1155
 4401SOL    HW113568   1.302   4.013   2.113 -0.4144 -0.2241  0.0739
 4401SOL    HW213569   1.192   3.937   2.185 -0.3097 -0.2152  0.2424
 4402SOL     OW13570   1.059   5.761   5.422  0.2666  0.0440 -0.4040
 4402SOL    HW113571   1.114   5.786   5.348  0.3151  0.2098 -0.3141
 4402SOL    HW213572   0.979   5.726   5.383  0.8777 -1.2529 -0.5501
 4403SOL     OW13573   2.142   5.199   4.300 -0.4255 -0.3464  0.0980
 4403SOL    HW113574   2.086   5.122   4.290 -0.5701 -0.5119  1.9040
 4403SOL    HW213575   2.135   5.222   4.392  1.0966  0.7058 -0.0169
 4404SOL     OW13576   0.151   3.247   5.984 -0.0052  0.5477  0.2837
 4404SOL    HW113577   0.139   3.304   5.909 -0.0831  1.6205  1.0966
 4404SOL    HW213578   0.208   3.177   5.952  0.4654  1.3147 -0.5908
 4405SOL     OW13579   3.674   3.058   1.099 -0.8339 -0.0195  0.1038
 4405SOL    HW113580   3.585   3.071   1.066 -2.3708 -2.0605  3.0059
 4405SOL    HW213581   3.714   2.998   1.037 -0.9211  1.9322 -1.9621
 4406SOL     OW13582   3.322   3.265   1.811 -0.6074  0.0731 -0.4746
 4406SOL    HW113583   3.271   3.184   1.815 -0.7912  0.1996 -0.2445
 4406SOL    HW213584   3.305   3.301   1.724 -0.6558 -0.0492 -0.5149
 4407SOL     OW13585   3.290   1.451   2.996 -0.5853  0.6116 -0.4353
 4407SOL    HW113586   3.341   1.528   3.021  1.1004 -0.6472  0.1487
 4407SOL    HW213587   3.333   1.378   3.040 -0.3086 -1.1008 -3.3006
 4408SOL     OW13588   6.115   2.619   1.649 -0.2657  0.0696 -0.2285
 4408SOL    HW113589   6.133   2.712   1.636 -0.3898 -0.0352 -1.2459
 4408SOL    HW213590   6.176   2.575   1.590 -0.2300 -0.5026  0.2271
 4409SOL     OW13591   0.230   2.368   3.995  0.0655 -0.0571 -0.1763
 4409SOL    HW113592   0.263   2.455   3.970 -1.5781  0.7551  0.3285
 4409SOL    HW213593   0.308   2.315   4.007  1.1479  1.6129  0.4124
 4410SOL     OW13594   2.905   0.745   3.474  0.1913 -0.2751 -1.1010
 4410SOL    HW113595   2.884   0.654   3.455 -0.0792 -0.1562 -1.3729
 4410SOL    HW213596   2.999   0.752   3.458  0.6566 -1.0245  0.9442
 4411SOL     OW13597   6.132   0.212   2.729 -0.0678 -0.0368 -0.2985
 4411SOL    HW113598   6.092   0.161   2.800 -1.3531  1.9297  0.4786
 4411SOL    HW213599   6.177   0.147   2.675 -0.7543 -1.8428  1.1922
 4412SOL     OW13600   4.429   5.915   6.214 -0.2614  0.3478  0.2013
 4412SOL    HW113601   4.400   5.898   6.303 -1.2221  0.1767 -0.1288
 4412SOL    HW213602   4.349   5.935   6.166  0.2683  0.6836 -0.5699
 4413SOL     OW13603   2.976   0.005   6.449  0.3932  0.0078 -0.4508
 4413SOL    HW113604   2.923   0.063   6.395 -0.4124 -1.7705 -1.6534
 4413SOL    HW213605   2.924  -0.008   6.529  1.2175  1.9823  0.4764
 4414SOL     OW13606   6.066   4.301   3.163  0.2643  0.0146  0.0642
 4414SOL    HW113607   5.982   4.346   3.163 -0.7001 -1.6455  1.9230
 4414SOL    HW213608   6.048   4.215   3.125  1.0542 -0.4570  0.7157
 4415SOL     OW13609   2.089   2.059   6.784 -0.3584  0.1431  0.0152
 4415SOL    HW113610   2.170   2.014   6.761  0.1239  1.3176 -0.6599
 4415SOL    HW213611   2.036   1.992   6.827  0.9229 -0.6629  0.3817
 4416SOL     OW13612   3.872   2.323   4.450 -0.4036 -0.8374  0.1099
 4416SOL    HW113613   3.824   2.403   4.472 -0.5268 -0.9881  0.3999
 4416SOL    HW213614   3.924   2.305   4.528 -1.1117 -1.5772  0.4248
 4417SOL     OW13615   1.470   5.044   2.478  0.0461  0.5982 -0.1069
 4417SOL    HW113616   1.514   5.056   2.562 -0.2251  1.9747 -0.1414
 4417SOL    HW213617   1.390   5.096   2.485 -1.2676 -1.2956 -0.3038
 4418SOL     OW13618   4.198   2.770   1.879  0.2661  0.5159 -0.2157
 4418SOL    HW113619   4.251   2.759   1.800  0.7808  1.6299 -0.0447
 4418SOL    HW213620   4.257   2.750   1.951 -0.1025 -0.1440 -0.0908
 4419SOL     OW13621   1.098   4.419   2.703  0.0216  0.4602  0.0728
 4419SOL    HW113622   1.019   4.394   2.750 -0.0606 -0.5425 -0.5594
 4419SOL    HW213623   1.077   4.503   2.663 -1.0329 -0.1521 -0.7268
 4420SOL     OW13624   6.008   2.311   0.564  0.2703  0.1021 -0.2998
 4420SOL    HW113625   5.972   2.269   0.485 -1.9345 -0.5629  0.9496
 4420SOL    HW213626   6.004   2.242   0.631  0.0904  1.2379  0.9014
 4421SOL     OW13627   0.227   2.620   5.563  0.1200 -0.3444 -0.0795
 4421SOL    HW113628   0.181   2.641   5.644 -0.1481  0.8036 -0.5139
 4421SOL    HW213629   0.163   2.635   5.494  0.1955 -1.7667 -0.5032
 4422SOL     OW13630   0.801   4.144   3.390 -0.1922  0.2791  0.0889
 4422SOL    HW113631   0.819   4.155   3.484 -1.0043  1.3968  0.1230
 4422SOL    HW213632   0.887   4.133   3.351  0.0794 -3.1615  1.2792
 4423SOL     OW13633   4.645   2.977   5.675  0.4171 -0.3311 -0.0243
 4423SOL    HW113634   4.602   2.892   5.671  0.1948 -0.1685 -1.3202
 4423SOL    HW213635   4.700   2.981   5.598 -0.8198  1.3319 -0.8967
 4424SOL     OW13636   3.035   6.063   6.299 -0.1196 -0.1069 -0.2214
 4424SOL    HW113637   2.954   6.092   6.258  0.5864  0.9094 -0.9613
 4424SOL    HW213638   3.027   6.092   6.390 -0.7890 -0.4627 -0.1605
 4425SOL     OW13639   4.006   5.454   6.651 -0.1974 -0.2161 -0.5330
 4425SOL    HW113640   3.939   5.388   6.634 -2.0505  1.0324  1.3518
 4425SOL    HW213641   4.089   5.409   6.638 -1.3862 -2.0304 -2.2710
 4426SOL     OW13642   2.437   1.566   0.732 -0.1564  0.2263  0.5134
 4426SOL    HW113643   2.463   1.504   0.664 -1.8959 -0.2969  0.2705
 4426SOL    HW213644   2.347   1.541   0.753 -0.6018  2.1384  1.0335
 4427SOL     OW13645   5.384   0.634   4.209  0.2182 -0.1490 -0.1505
 4427SOL    HW113646   5.338   0.569   4.262  1.4478  1.3324  2.9358
 4427SOL    HW213647   5.333   0.714   4.220 -0.5032 -0.1513 -2.7826
 4428SOL     OW13648   3.026   1.868   1.102 -0.2396  0.1990 -0.0746
 4428SOL    HW113649   3.001   1.776   1.112 -1.5095  0.5794  0.3860
 4428SOL    HW213650   3.054   1.896   1.189 -1.9368  0.8234  0.3054
 4429SOL     OW13651   1.346   4.521   2.533 -0.0676 -0.0797  0.2150
 4429SOL    HW113652   1.298   4.560   2.606 -0.8640 -0.6647  0.0179
 4429SOL    HW213653   1.435   4.554   2.543  0.0281 -0.7239  1.8959
 4430SOL     OW13654   2.558   5.779   4.075  0.0010  0.0315 -0.5438
 4430SOL    HW113655   2.489   5.832   4.115  0.1728  0.2177 -0.4942
 4430SOL    HW213656   2.513   5.699   4.047  0.1958 -0.9302  1.6678
 4431SOL     OW13657   3.736   2.026   0.331 -0.0263 -0.3971 -0.5296
 4431SOL    HW113658   3.657   2.080   0.336  1.3693  1.9503 -2.0104
 4431SOL    HW213659   3.719   1.966   0.258 -0.1262  0.6878 -1.4165
 4432SOL     OW13660   0.993   2.637   0.595 -0.4500  0.5510 -0.0300
 4432SOL    HW113661   1.086   2.621   0.585 -0.4637  0.1878  0.3674
 4432SOL    HW213662   0.987   2.722   0.638 -0.2735  0.2232  0.6563
 4433SOL     OW13663   4.335   3.864   6.344 -0.3741  0.3044 -0.2657
 4433SOL    HW113664   4.386   3.811   6.405  0.1239  2.5121  1.3565
 4433SOL    HW213665   4.400   3.915   6.296 -0.9134  0.5939 -0.7021
 4434SOL     OW13666   2.551   2.264   4.950 -0.1368  0.2335  0.8004
 4434SOL    HW113667   2.458   2.284   4.937 -0.4413 -0.9343  1.0093
 4434SOL    HW213668   2.594   2.295   4.871 -0.9107 -0.4326  0.1064
 4435SOL     OW13669   2.902   4.970   6.597 -0.6790  0.5352  0.2466
 4435SOL    HW113670   2.845   5.001   6.528 -0.4983 -0.2752 -0.2819
 4435SOL    HW213671   2.988   5.007   6.576 -0.3414 -0.7205 -0.6890
 4436SOL     OW13672   0.148   4.383   0.240 -0.0193  0.1067 -0.2442
 4436SOL    HW113673   0.136   4.353   0.330  0.6219 -1.2968 -0.5960
 4436SOL    HW213674   0.060   4.408   0.210  0.1717  4.5751  2.0086
 4437SOL     OW13675   0.868   1.629   1.158 -0.2552 -0.1183 -0.4306
 4437SOL    HW113676   0.775   1.607   1.158 -0.0012 -1.2640 -0.4555
 4437SOL    HW213677   0.891   1.637   1.250 -0.1644 -0.7941 -0.3953
 4438SOL     OW13678   3.503   3.035   4.737 -0.0157 -0.1700  0.1470
 4438SOL    HW113679   3.548   3.060   4.817 -0.3696  3.0971 -0.5480
 4438SOL    HW213680   3.570   2.989   4.686  1.2036  0.6535  0.9487
 4439SOL     OW13681   3.141   2.333   2.470  0.4794  0.3176 -0.6431
 4439SOL    HW113682   3.112   2.277   2.541 -0.9859  1.6837 -0.1058
 4439SOL    HW213683   3.229   2.362   2.496  0.7901 -0.8014 -0.4053
 4440SOL     OW13684   3.087   1.310   5.718 -0.2265  0.1038  0.2544
 4440SOL    HW113685   3.166   1.358   5.692  0.5684 -1.0767  0.4455
 4440SOL    HW213686   3.062   1.262   5.639  1.1546 -2.0774  1.0672
 4441SOL     OW13687   4.472   0.462   5.439 -0.6359  0.3186  0.4435
 4441SOL    HW113688   4.383   0.453   5.472 -1.5912  2.5238 -1.2869
 4441SOL    HW213689   4.469   0.423   5.351 -0.0781  0.9501  0.1310
 4442SOL     OW13690   6.437   2.172   1.961  0.0427  0.0846  0.6242
 4442SOL    HW113691   6.386   2.245   1.927  1.7724  0.5763 -1.1132
 4442SOL    HW213692   6.383   2.095   1.943 -0.6582  0.6933  0.0542
 4443SOL     OW13693   3.443   1.376   6.068 -0.1689  0.6733  0.5868
 4443SOL    HW113694   3.435   1.464   6.104 -1.4859  1.6936 -1.9623
 4443SOL    HW213695   3.360   1.333   6.093 -0.2206  0.6956  0.4517
 4444SOL     OW13696   1.795   0.206   2.980 -0.0174 -0.3249  0.4223
 4444SOL    HW113697   1.735   0.139   2.945 -0.5589  0.3969 -0.0609
 4444SOL    HW213698   1.879   0.185   2.939 -0.0400 -1.0461  0.7169
 4445SOL     OW13699   0.119   0.122   0.083 -0.4581  0.1642  0.3876
 4445SOL    HW113700   0.200   0.135   0.133  0.7585 -1.0614 -1.1581
 4445SOL    HW213701   0.053   0.103   0.150  0.6385  0.6271  1.6524
 4446SOL     OW13702   0.093   4.118   1.061  0.3251  0.0324  0.4821
 4446SOL    HW113703   0.015   4.159   1.098  0.5520  2.6903 -1.6694
 4446SOL    HW213704   0.165   4.149   1.115  0.2043  0.3186  0.4827
 4447SOL     OW13705   1.480   3.321   6.530  0.2087 -0.1691  0.0891
 4447SOL    HW113706   1.544   3.253   6.550  1.1874  0.9536  0.9704
 4447SOL    HW213707   1.526   3.403   6.550 -0.2000  0.8905 -2.8408
 4448SOL     OW13708   5.155   5.896   3.801 -0.0180 -0.2996  0.2515
 4448SOL    HW113709   5.192   5.973   3.758 -0.2289 -0.5407 -0.3675
 4448SOL    HW213710   5.200   5.822   3.760 -0.7452 -0.5662 -0.0786
 4449SOL     OW13711   3.707   4.161   2.549  0.8121  0.1351  0.1034
 4449SOL    HW113712   3.715   4.122   2.462 -1.4320 -2.4537  0.9335
 4449SOL    HW213713   3.671   4.092   2.604 -0.5533  2.5130  2.4635
 4450SOL     OW13714   4.973   6.788   5.576  0.3127 -0.2168 -0.1100
 4450SOL    HW113715   5.051   6.740   5.602  0.0452 -0.5630  0.0619
 4450SOL    HW213716   4.900   6.730   5.598  0.0650 -0.5421 -1.6744
 4451SOL     OW13717   6.122   1.215   1.101  0.0293  0.1501 -1.1176
 4451SOL    HW113718   6.163   1.287   1.053 -0.2467  1.8914  1.1225
 4451SOL    HW213719   6.188   1.187   1.164 -0.9954  0.6802  0.2261
 4452SOL     OW13720   2.709   4.105   2.773  0.8142 -0.7660  0.0207
 4452SOL    HW113721   2.795   4.081   2.806  0.9803 -0.1775  0.0329
 4452SOL    HW213722   2.712   4.200   2.766  0.1815 -0.7468 -0.0316
 4453SOL     OW13723   5.947   1.531   1.199  0.0489 -0.3700  0.1984
 4453SOL    HW113724   6.036   1.505   1.223  0.8207 -0.0026 -2.0351
 4453SOL    HW213725   5.925   1.477   1.123 -1.5887 -0.3261  0.5984
 4454SOL     OW13726   4.122   3.511   3.021  0.5961  0.3747  0.0108
 4454SOL    HW113727   4.166   3.507   2.936  0.2735  0.9129 -0.1882
 4454SOL    HW213728   4.059   3.439   3.019 -0.9789  1.7023 -1.1178
 4455SOL     OW13729   4.161   0.648   0.758 -0.8477  0.2222  0.1393
 4455SOL    HW113730   4.143   0.569   0.809 -1.9730 -0.2264 -0.8943
 4455SOL    HW213731   4.099   0.644   0.684  1.7803 -0.0186 -2.2059
 4456SOL     OW13732   4.730   5.266   3.715  0.0537  0.0176  0.1146
 4456SOL    HW113733   4.766   5.272   3.804 -1.5686  1.6473  0.7232
 4456SOL    HW213734   4.720   5.172   3.700 -0.6769 -0.2767  2.1224
 4457SOL     OW13735   3.753   0.999   5.358 -0.1129  0.1643  0.8411
 4457SOL    HW113736   3.783   0.908   5.358  1.3556  0.6063 -0.4933
 4457SOL    HW213737   3.812   1.044   5.419  1.9932  0.9884 -1.6126
 4458SOL     OW13738   5.914   6.506   2.299  0.2564  0.0834  0.1532
 4458SOL    HW113739   5.852   6.495   2.227 -0.7849 -2.2118  1.3216
 4458SOL    HW213740   5.936   6.599   2.297 -0.0435  0.1877 -2.8371
 4459SOL     OW13741   0.200   5.975   2.583 -0.3463 -0.4866 -0.1219
 4459SOL    HW113742   0.154   5.954   2.501 -1.3464 -2.2321  0.8339
 4459SOL    HW213743   0.293   5.964   2.562 -0.6536 -2.3728 -0.6879
 4460SOL     OW13744   1.842   1.603   6.706 -0.1879 -0.2170 -0.1382
 4460SOL    HW113745   1.845   1.519   6.752 -0.7806 -0.6035 -0.7920
 4460SOL    HW213746   1.917   1.601   6.647 -0.0273 -0.1607  0.0646
 4461SOL     OW13747   1.400   1.991   1.758 -0.1914 -0.7762 -0.3024
 4461SOL    HW113748   1.429   2.076   1.724  0.0369 -0.7037  0.0622
 4461SOL    HW213749   1.457   1.975   1.833 -0.4401 -1.1053 -0.1807
 4462SOL     OW13750   4.253   3.170   6.152  0.2626 -0.7777  0.1712
 4462SOL    HW113751   4.226   3.255   6.119  0.2297 -1.4551 -1.6569
 4462SOL    HW213752   4.340   3.186   6.191  0.9631 -0.1769 -1.5604
 4463SOL     OW13753   2.194   0.599   6.458  0.0264 -0.1395  0.2757
 4463SOL    HW113754   2.134   0.526   6.441  0.4503 -0.3131 -0.5681
 4463SOL    HW213755   2.137   0.675   6.470 -0.3744 -0.0199 -1.9057
 4464SOL     OW13756   1.134   6.774   3.569 -0.1171  0.1228 -1.0448
 4464SOL    HW113757   1.159   6.863   3.544  1.2375  0.4361  1.1209
 4464SOL    HW213758   1.040   6.780   3.588 -0.0067  1.1328 -0.7551
 4465SOL     OW13759   0.404   1.620   4.008 -0.2792 -0.2479 -0.4611
 4465SOL    HW113760   0.338   1.551   4.007 -0.7738  0.1870  0.6524
 4465SOL    HW213761   0.369   1.685   4.068  1.3111 -0.1408  0.3782
 4466SOL     OW13762   0.808   1.904   1.022 -0.3058  0.0895  0.1303
 4466SOL    HW113763   0.814   1.829   1.082  2.1409  0.3196  0.2939
 4466SOL    HW213764   0.716   1.930   1.024 -0.5148 -0.5609  2.9843
 4467SOL     OW13765   6.469   3.499   1.320 -0.2982  0.6399 -0.0348
 4467SOL    HW113766   6.495   3.528   1.408 -1.0331  0.9129  0.0998
 4467SOL    HW213767   6.466   3.403   1.327 -0.4245  0.6643  0.2597
 4468SOL     OW13768   2.030   6.673   4.477 -0.3278  0.7563 -0.2464
 4468SOL    HW113769   2.021   6.689   4.383  0.4681 -2.1198 -0.9069
 4468SOL    HW213770   1.943   6.646   4.505 -0.1713 -0.0604 -0.5414
 4469SOL     OW13771   1.276   4.073   3.964  0.1699  0.0814 -0.4245
 4469SOL    HW113772   1.243   4.148   4.014  0.4111 -0.1616  0.0994
 4469SOL    HW213773   1.197   4.022   3.943  0.0363  0.3377 -0.5463
 4470SOL     OW13774   0.761   4.516   2.014  0.2258  0.4610 -0.0762
 4470SOL    HW113775   0.767   4.421   2.022  2.5065  0.4387 -1.2235
 4470SOL    HW213776   0.810   4.536   1.935  2.9745  2.8506  2.0075
 4471SOL     OW13777   1.780   4.790   3.249  0.7451  0.0652 -0.0875
 4471SOL    HW113778   1.802   4.851   3.320 -1.1200 -0.0463  0.6610
 4471SOL    HW213779   1.704   4.741   3.283  0.2642 -0.4909 -1.8803
 4472SOL     OW13780   2.512   1.568   0.196 -0.1005 -0.2272 -0.0010
 4472SOL    HW113781   2.546   1.571   0.285 -1.5302 -0.3763  0.5639
 4472SOL    HW213782   2.480   1.657   0.180  0.0710 -0.2258 -0.3447
 4473SOL     OW13783   3.479   1.386   6.606  0.0724  0.1546  0.7333
 4473SOL    HW113784   3.389   1.378   6.572  0.6666 -0.5045 -0.7890
 4473SOL    HW213785   3.534   1.352   6.535  1.5473  0.7660  1.5473
 4474SOL     OW13786   3.964   4.547   2.819 -0.3065  0.1810 -0.7527
 4474SOL    HW113787   4.019   4.485   2.867 -0.5537  0.8300  0.4237
 4474SOL    HW213788   4.011   4.630   2.824 -0.7308  0.4390 -0.9208
 4475SOL     OW13789   3.792   4.246   1.153  0.4181 -0.0705 -0.6529
 4475SOL    HW113790   3.844   4.268   1.076  0.0012 -0.3008 -1.0046
 4475SOL    HW213791   3.712   4.299   1.144  0.5120  0.1560 -0.2025
 4476SOL     OW13792   4.418   3.120   1.391 -0.0747 -0.0071  0.2107
 4476SOL    HW113793   4.323   3.113   1.385 -0.0419 -0.1318 -0.1950
 4476SOL    HW213794   4.433   3.201   1.441 -0.3810  1.5858 -2.1144
 4477SOL     OW13795   1.527   4.746   5.553 -0.2184  0.4154  0.0913
 4477SOL    HW113796   1.523   4.685   5.627  0.1758 -0.5401 -0.6545
 4477SOL    HW213797   1.480   4.702   5.483 -0.5804  1.3090 -0.2468
 4478SOL     OW13798   5.819   0.604   5.873  0.3725  0.0821  0.0199
 4478SOL    HW113799   5.756   0.647   5.815 -0.3597 -0.7328  0.2042
 4478SOL    HW213800   5.853   0.675   5.928 -1.0577  0.3853  0.5466
 4479SOL     OW13801   5.845   6.586   5.224 -0.5659 -0.2958 -0.2809
 4479SOL    HW113802   5.773   6.580   5.287 -1.9260  1.3369 -1.5520
 4479SOL    HW213803   5.923   6.561   5.273 -1.6887 -0.0042  1.7736
 4480SOL     OW13804   1.804   6.528   6.479  0.0078  0.1836  0.2286
 4480SOL    HW113805   1.895   6.556   6.482  0.4035 -0.8736 -1.1050
 4480SOL    HW213806   1.804   6.440   6.516  0.0939 -1.0524 -2.4709
 4481SOL     OW13807   0.297   4.507   4.786 -0.6444 -0.0288 -0.2354
 4481SOL    HW113808   0.219   4.555   4.757 -1.8493 -1.2415  0.8143
 4481SOL    HW213809   0.335   4.563   4.854  0.4384  1.3808 -1.9364
 4482SOL     OW13810   6.278   0.479   4.644  0.9937 -0.6380 -0.5361
 4482SOL    HW113811   6.262   0.387   4.664  0.2870 -0.5982 -0.8797
 4482SOL    HW213812   6.346   0.506   4.706  0.9505 -1.2944 -0.1959
 4483SOL     OW13813   0.380   0.280   0.395 -0.5889 -0.0510  0.2069
 4483SOL    HW113814   0.398   0.227   0.317  1.1885  0.9288 -0.0856
 4483SOL    HW213815   0.304   0.333   0.370 -1.2229 -1.0968 -0.1598
 4484SOL     OW13816   4.823   5.902   3.714 -0.5356 -0.3502  0.1548
 4484SOL    HW113817   4.915   5.927   3.725 -0.6934  0.6848 -0.6589
 4484SOL    HW213818   4.825   5.830   3.650 -0.2946 -0.2322  0.0271
 4485SOL     OW13819   4.979   1.597   2.825  0.6871 -0.2649 -0.3971
 4485SOL    HW113820   4.980   1.521   2.766  0.1163  0.3209 -1.1696
 4485SOL    HW213821   4.952   1.561   2.909 -0.0323 -0.8548 -0.8671
 4486SOL     OW13822   0.350   5.360   0.959 -0.7886 -0.1252  0.4414
 4486SOL    HW113823   0.342   5.269   0.988 -2.0858  0.5083  2.2647
 4486SOL    HW213824   0.309   5.361   0.872 -1.0159 -1.2163  0.5244
 4487SOL     OW13825   6.654   6.402   4.832  0.3864  0.2346  0.1897
 4487SOL    HW113826   6.744   6.419   4.860  0.3342 -0.2559  0.6792
 4487SOL    HW213827   6.637   6.312   4.861  0.0176  0.0298 -0.6210
 4488SOL     OW13828   5.272   4.177   1.387 -0.0217 -0.3334 -0.5197
 4488SOL    HW113829   5.339   4.137   1.442  0.7069 -2.2684 -2.6380
 4488SOL    HW213830   5.310   4.178   1.299 -1.9067  0.6614 -1.3966
 4489SOL     OW13831   0.578   5.160   4.752 -0.3282 -0.4366 -0.2294
 4489SOL    HW113832   0.604   5.193   4.666  2.2780 -1.1209  0.2096
 4489SOL    HW213833   0.515   5.224   4.785 -0.9025  0.1601 -2.3611
 4490SOL     OW13834   0.183   0.771   1.240  0.3909 -0.0111 -0.5579
 4490SOL    HW113835   0.108   0.819   1.276  0.5271 -0.5087  0.4193
 4490SOL    HW213836   0.257   0.797   1.295  0.7874 -0.1252 -1.0286
 4491SOL     OW13837   3.984   0.454   1.765  0.2161  0.0519  0.0176
 4491SOL    HW113838   4.079   0.455   1.781  0.1572 -0.2297  0.3983
 4491SOL    HW213839   3.972   0.385   1.700  0.1085 -0.9517  1.0776
 4492SOL     OW13840   6.576   1.247   2.277  0.8411 -0.3203 -0.0220
 4492SOL    HW113841   6.609   1.260   2.365  0.2525 -1.7643  0.4508
 4492SOL    HW213842   6.650   1.210   2.228  0.8867 -0.4326  0.1324
 4493SOL     OW13843   2.895   0.969   2.679  0.6338 -0.6061 -0.2660
 4493SOL    HW113844   2.847   0.984   2.597  1.1239  0.8526 -0.3080
 4493SOL    HW213845   2.862   1.035   2.739  1.4406 -0.6232  0.2140
 4494SOL     OW13846   3.660   2.148   6.369 -0.2829 -0.7431 -0.0927
 4494SOL    HW113847   3.703   2.226   6.333  1.2243 -1.5012 -0.0296
 4494SOL    HW213848   3.620   2.178   6.450  0.1052  0.0142 -0.1741
 4495SOL     OW13849   0.207   6.200   5.236 -0.3532 -0.2083  0.2850
 4495SOL    HW113850   0.147   6.274   5.227 -1.1922 -0.9401 -0.1790
 4495SOL    HW213851   0.162   6.138   5.292 -0.5802 -1.3010 -1.0465
 4496SOL     OW13852   6.701   4.225   3.470  0.1863 -0.6390  0.3744
 4496SOL    HW113853   6.701   4.182   3.385 -0.2252 -1.5766  0.8434
 4496SOL    HW213854   6.667   4.313   3.452 -2.8777 -1.7859  0.0408
 4497SOL     OW13855   5.755   1.758   0.255 -0.2441 -0.3667 -0.2307
 4497SOL    HW113856   5.720   1.705   0.328 -0.5977 -0.8689 -0.7520
 4497SOL    HW213857   5.781   1.841   0.296 -0.4959 -0.6166  0.4574
 4498SOL     OW13858   5.609   5.055   3.823  0.0485  0.2065  0.1368
 4498SOL    HW113859   5.577   4.972   3.789  0.7070 -0.3233  0.7723
 4498SOL    HW213860   5.532   5.112   3.825 -0.4691 -0.4757 -0.0384
 4499SOL     OW13861   2.583   2.136   0.129 -0.2698 -0.4250  0.0440
 4499SOL    HW113862   2.648   2.073   0.097 -1.4964 -2.0426  0.5626
 4499SOL    HW213863   2.573   2.114   0.221  0.0780  1.3165  0.5218
 4500SOL     OW13864   2.162   0.330   6.084 -0.4220  0.2512 -0.1697
 4500SOL    HW113865   2.084   0.288   6.119  0.0509  0.3592  1.0451
 4500SOL    HW213866   2.233   0.270   6.104  0.0839  1.0508  0.4883
 4501SOL     OW13867   5.545   6.312   2.255 -0.2713  0.1018  0.3101
 4501SOL    HW113868   5.542   6.323   2.350  0.1499  0.3686  0.2948
 4501SOL    HW213869   5.598   6.233   2.242  0.4633  0.5940  0.2685
 4502SOL     OW13870   5.055   4.429   4.820  0.5053  0.5457 -0.2859
 4502SOL    HW113871   5.047   4.462   4.910  0.5767 -0.6656  0.1782
 4502SOL    HW213872   5.142   4.459   4.792  1.3303 -0.7489  0.7811
 4503SOL     OW13873   4.450   3.748   0.217  0.2072  0.0700  0.6898
 4503SOL    HW113874   4.360   3.731   0.245  0.2187  1.9470  2.0040
 4503SOL    HW213875   4.441   3.790   0.132 -0.2098  0.9359  1.1550
 4504SOL     OW13876   5.351   6.616   3.881  0.0073 -0.0160 -0.1397
 4504SOL    HW113877   5.402   6.537   3.901  0.7145  0.2375 -0.9015
 4504SOL    HW213878   5.266   6.582   3.853 -0.7547 -0.4108  2.3834
 4505SOL     OW13879   0.855   5.800   1.322  0.3914 -0.0935 -0.1793
 4505SOL    HW113880   0.877   5.862   1.252 -0.5300 -2.5018 -2.8002
 4505SOL    HW213881   0.765   5.773   1.302  0.2504 -1.1931  1.7275
 4506SOL     OW13882   2.321   5.331   4.910 -0.2995  0.1937  0.4172
 4506SOL    HW113883   2.402   5.355   4.955  0.2511 -0.3826 -0.2460
 4506SOL    HW213884   2.341   5.249   4.866 -0.8667  0.6473 -0.7379
 4507SOL     OW13885   4.677   1.637   0.406  0.0707  0.3625  0.2461
 4507SOL    HW113886   4.669   1.717   0.354 -1.9408  0.6062  0.8617
 4507SOL    HW213887   4.761   1.599   0.379 -0.1334  1.3419 -1.9406
 4508SOL     OW13888   4.969   5.114   3.007  0.1643 -0.0285 -0.2095
 4508SOL    HW113889   4.907   5.084   3.075  0.5659 -0.3450  0.0231
 4508SOL    HW213890   5.054   5.115   3.051  0.6846 -1.6719 -1.0847
 4509SOL     OW13891   0.501   3.904   1.091 -0.4586 -0.0321 -0.0019
 4509SOL    HW113892   0.531   3.901   1.182 -0.6634  0.7764  0.0960
 4509SOL    HW213893   0.407   3.920   1.097 -0.2309  1.5300 -0.3667
 4510SOL     OW13894   3.343   4.828   3.417 -0.3688  0.0416  0.4482
 4510SOL    HW113895   3.367   4.749   3.465 -1.8255 -0.7413 -0.0786
 4510SOL    HW213896   3.248   4.825   3.411 -0.5481  2.3003  1.1936
 4511SOL     OW13897   5.485   5.878   4.985 -0.2334  0.0332  0.1420
 4511SOL    HW113898   5.547   5.807   5.003 -0.0348  0.5296  1.5570
 4511SOL    HW213899   5.527   5.956   5.021  0.3013  1.2345 -2.8444
 4512SOL     OW13900   3.452   2.281   2.633  0.2764  0.0177  0.3277
 4512SOL    HW113901   3.451   2.207   2.572 -0.8355  1.4339 -1.4690
 4512SOL    HW213902   3.486   2.354   2.582 -0.7315  1.2734  1.3832
 4513SOL     OW13903   2.526   5.366   1.406  0.3555  0.2297 -0.0057
 4513SOL    HW113904   2.490   5.341   1.321 -1.5944  0.1143  0.7927
 4513SOL    HW213905   2.585   5.438   1.388  0.3583 -0.1322 -1.5128
 4514SOL     OW13906   5.156   6.746   4.237 -0.7563  0.7046  0.0678
 4514SOL    HW113907   5.103   6.808   4.285 -1.2416 -0.2397  0.7862
 4514SOL    HW213908   5.231   6.797   4.206 -1.7075  1.8943 -0.3547
 4515SOL     OW13909   5.252   2.733   1.727  0.3078 -0.1770 -0.4443
 4515SOL    HW113910   5.196   2.773   1.794 -1.3370 -1.4945 -0.9900
 4515SOL    HW213911   5.301   2.807   1.691 -1.1321  1.0549  0.0048
 4516SOL     OW13912   2.893   4.063   0.789 -0.3983 -0.6361  0.2457
 4516SOL    HW113913   2.820   4.009   0.759 -0.4941 -0.2532 -0.2203
 4516SOL    HW213914   2.959   4.054   0.720  0.2436 -1.4389  0.9242
 4517SOL     OW13915   6.404   6.454   4.947 -0.1519 -0.3522 -0.3807
 4517SOL    HW113916   6.480   6.496   4.905 -0.4156  0.4232 -0.0930
 4517SOL    HW213917   6.385   6.509   5.023  1.1682 -2.4462  1.6367
 4518SOL     OW13918   4.145   1.803   4.183  0.0621 -0.4254 -0.2227
 4518SOL    HW113919   4.191   1.882   4.155  0.5307 -0.1283  1.2755
 4518SOL    HW213920   4.113   1.824   4.271 -1.1415 -1.3713 -0.4062
 4519SOL     OW13921   3.714   4.687   1.310  0.1265  0.0069 -0.5428
 4519SOL    HW113922   3.622   4.679   1.336  0.5245 -2.5556  0.4791
 4519SOL    HW213923   3.720   4.637   1.229  0.8124 -0.9475  0.0727
 4520SOL     OW13924   3.205   4.060   5.443 -0.5806  0.2348 -0.6935
 4520SOL    HW113925   3.271   3.991   5.440 -1.1425 -0.3436 -0.0139
 4520SOL    HW213926   3.191   4.076   5.537 -1.2361  0.5146 -0.8367
 4521SOL     OW13927   4.497   5.085   6.150 -0.3059  0.1534 -0.5757
 4521SOL    HW113928   4.546   5.042   6.080 -0.9885  1.4974 -1.9446
 4521SOL    HW213929   4.406   5.059   6.134 -0.6431  1.5317 -1.0344
 4522SOL     OW13930   4.042   2.463   6.213  0.1711  0.0740  0.4074
 4522SOL    HW113931   4.099   2.461   6.290 -0.7641  0.9848  1.1528
 4522SOL    HW213932   3.955   2.441   6.247 -0.3577  1.0447 -0.2739
 4523SOL     OW13933   6.277   4.416   1.132  0.3245 -0.6129 -0.5737
 4523SOL    HW113934   6.336   4.408   1.207  0.0443  0.4228 -0.2248
 4523SOL    HW213935   6.270   4.327   1.097  0.2749 -1.1544  0.7604
 4524SOL     OW13936   5.113   6.382   1.805  0.3908  0.6288 -0.1736
 4524SOL    HW113937   5.070   6.433   1.737  1.8161 -1.3906 -2.7853
 4524SOL    HW213938   5.168   6.445   1.852 -1.0629  2.1836 -0.4738
 4525SOL     OW13939   5.940   2.432   4.394 -0.4051 -0.1315 -0.3102
 4525SOL    HW113940   5.991   2.352   4.406  2.6224  1.8694  1.1042
 4525SOL    HW213941   5.992   2.485   4.334 -2.3007  0.8705 -1.1444
 4526SOL     OW13942   5.167   1.644   3.690 -0.1130 -0.0548  0.0168
 4526SOL    HW113943   5.211   1.716   3.646 -1.1562  0.8275  0.3605
 4526SOL    HW213944   5.186   1.658   3.783 -0.5138 -0.0717  0.1048
 4527SOL     OW13945   5.533   0.410   2.138  0.1413  0.0668 -0.1097
 4527SOL    HW113946   5.526   0.375   2.050 -0.0456 -0.4920  0.1253
 4527SOL    HW213947   5.473   0.484   2.139  1.0506  0.8441 -0.8148
 4528SOL     OW13948   0.536   6.559   0.728 -0.1837 -0.4062  0.0914
 4528SOL    HW113949   0.607   6.591   0.785  1.1233 -0.1817 -1.5996
 4528SOL    HW213950   0.573   6.482   0.685 -1.8024 -1.6762  0.8519
 4529SOL     OW13951   3.110   2.909   0.758 -0.0141 -0.0640 -0.0886
 4529SOL    HW113952   3.088   2.855   0.682 -0.2137 -1.2983  0.8136
 4529SOL    HW213953   3.047   2.981   0.756 -0.1756 -0.2236 -0.9490
 4530SOL     OW13954   2.033   0.224   5.163  0.0024 -0.1576 -0.1542
 4530SOL    HW113955   2.075   0.175   5.234 -0.8879 -1.4041 -0.4551
 4530SOL    HW213956   1.973   0.161   5.123 -1.3725  1.2618 -0.4128
 4531SOL     OW13957   4.387   6.294   1.112 -0.5699 -0.3969 -0.1971
 4531SOL    HW113958   4.307   6.305   1.059 -1.6522 -0.4668  1.3474
 4531SOL    HW213959   4.377   6.207   1.151  0.5227 -0.6099 -0.3663
 4532SOL     OW13960   6.094   3.103   4.655 -0.1771 -0.3424  0.1952
 4532SOL    HW113961   6.040   3.120   4.732  0.2975  1.3024  0.2045
 4532SOL    HW213962   6.184   3.111   4.687  0.0247  0.6706 -0.5651
 4533SOL     OW13963   3.508   3.546   2.091  0.0204  0.0161  0.6488
 4533SOL    HW113964   3.419   3.566   2.122  0.0461 -1.1362  1.5661
 4533SOL    HW213965   3.564   3.610   2.135 -0.2996  0.3991  0.5005
 4534SOL     OW13966   3.171   4.528   6.711 -0.1008 -0.5114  0.1150
 4534SOL    HW113967   3.189   4.529   6.805 -1.2860 -0.0545  0.3468
 4534SOL    HW213968   3.124   4.609   6.695  0.6325 -0.2849 -0.9956
 4535SOL     OW13969   3.781   1.419   6.134 -0.1449  0.6687  0.3517
 4535SOL    HW113970   3.744   1.341   6.092 -1.1855  0.9187  0.7905
 4535SOL    HW213971   3.855   1.443   6.078  0.1694 -0.6103  0.1922
 4536SOL     OW13972   4.874   5.830   1.350  0.0141 -0.1091 -0.1593
 4536SOL    HW113973   4.967   5.851   1.354  0.0803 -0.2868 -0.7687
 4536SOL    HW213974   4.863   5.783   1.268 -0.3864 -1.2025  0.4970
 4537SOL     OW13975   1.207   0.025   1.866  0.5536 -0.0878 -0.5442
 4537SOL    HW113976   1.119   0.032   1.828 -0.1619  1.2804  1.1769
 4537SOL    HW213977   1.240  -0.059   1.836 -2.2250 -1.6902  0.4397
 4538SOL     OW13978   3.152   5.990   0.816 -0.2136 -0.2024 -0.2681
 4538SOL    HW113979   3.208   5.914   0.798 -2.3856 -1.5656 -1.8124
 4538SOL    HW213980   3.178   6.018   0.904  0.6382 -2.7916  0.4076
 4539SOL     OW13981   6.047   6.717   1.348  0.0919  0.3685 -0.2030
 4539SOL    HW113982   6.051   6.785   1.280 -0.7612 -0.6683 -1.3413
 4539SOL    HW213983   6.132   6.674   1.344  0.5281  1.1590  0.3195
 4540SOL     OW13984   6.737   1.764   0.839 -0.2828  0.5913  0.3001
 4540SOL    HW113985   6.764   1.687   0.790 -0.1941  0.5423  0.4253
 4540SOL    HW213986   6.663   1.733   0.892 -2.0465  1.2417 -1.6464
 4541SOL     OW13987   2.749   4.408   1.641 -0.0947  0.1254 -0.1354
 4541SOL    HW113988   2.833   4.422   1.685 -0.2644 -0.6280  0.4621
 4541SOL    HW213989   2.752   4.465   1.564  0.0548  1.7527  1.0484
 4542SOL     OW13990   0.327   3.139   3.748 -0.3891  0.0061  0.1141
 4542SOL    HW113991   0.266   3.205   3.778 -0.9338 -0.4000 -0.0905
 4542SOL    HW213992   0.302   3.121   3.658 -0.1619 -0.3792  0.1228
 4543SOL     OW13993   4.352   0.047   4.621 -0.0871 -0.2181 -0.1100
 4543SOL    HW113994   4.274   0.102   4.616 -0.3090 -0.3624  1.3872
 4543SOL    HW213995   4.389   0.065   4.708  0.9421 -0.9501 -0.3746
 4544SOL     OW13996   6.751   6.678   5.144  0.3680  0.1539 -0.4660
 4544SOL    HW113997   6.677   6.718   5.098 -0.0723 -0.5800 -0.4126
 4544SOL    HW213998   6.811   6.750   5.161 -0.3839  0.7731 -0.4228
 4545SOL     OW13999   5.163   4.325   3.423 -0.1363  0.0490  0.7989
 4545SOL    HW114000   5.086   4.270   3.409 -0.4553  0.5562  0.5676
 4545SOL    HW214001   5.164   4.341   3.518  0.5603 -1.2265  1.0311
 4546SOL     OW14002   4.832   0.935   4.884 -0.4587 -0.4394 -0.0426
 4546SOL    HW114003   4.875   0.878   4.822  0.0380  0.9576 -1.0324
 4546SOL    HW214004   4.886   0.931   4.963 -0.5684 -1.4964 -0.0180
 4547SOL     OW14005   1.281   4.884   3.307  0.6244 -0.2608 -0.0224
 4547SOL    HW114006   1.349   4.927   3.255  1.8870 -0.6594  1.2491
 4547SOL    HW214007   1.200   4.905   3.261  0.9190  4.5494  1.0757
 4548SOL     OW14008   3.017   3.691   4.710 -0.0167 -0.1786  0.1617
 4548SOL    HW114009   2.959   3.695   4.786 -0.3685  1.0400 -0.1421
 4548SOL    HW214010   3.094   3.742   4.735  0.8773 -1.6537  0.5029
 4549SOL     OW14011   3.621   6.394   1.298 -0.0642 -0.2335  0.1112
 4549SOL    HW114012   3.622   6.483   1.333 -0.1702 -0.3600  0.4377
 4549SOL    HW214013   3.541   6.356   1.334 -1.7144  0.5289 -2.5121
 4550SOL     OW14014   4.774   1.718   6.380  0.3812  0.3131  0.2743
 4550SOL    HW114015   4.725   1.782   6.432 -0.8773  0.4994 -1.1001
 4550SOL    HW214016   4.864   1.724   6.415 -0.6331 -0.6029  3.3789
 4551SOL     OW14017   4.732   2.607   2.708  0.9840 -0.0481 -0.0884
 4551SOL    HW114018   4.738   2.517   2.676  0.1981 -0.3823  0.6499
 4551SOL    HW214019   4.717   2.660   2.630  2.4806 -0.4259 -0.6471
 4552SOL     OW14020   5.193   4.219   4.221 -0.1500  0.2183 -0.2975
 4552SOL    HW114021   5.112   4.260   4.249  0.7995  1.9581  0.0680
 4552SOL    HW214022   5.202   4.141   4.276 -0.2898  1.4220  1.5069
 4553SOL     OW14023   5.293   0.771   5.450 -0.2167 -0.2751  0.2446
 4553SOL    HW114024   5.220   0.727   5.407  1.1541 -1.7151 -0.7906
 4553SOL    HW214025   5.253   0.830   5.513 -2.2849  0.1075 -1.3163
 4554SOL     OW14026   3.983   2.281   6.659 -0.3532 -0.2642 -0.2670
 4554SOL    HW114027   3.946   2.345   6.598  2.8046  1.5383 -0.5037
 4554SOL    HW214028   4.040   2.226   6.605  0.5312 -0.2740  0.6354
 4555SOL     OW14029   3.469   2.048   1.273  0.0609  0.4501 -0.1120
 4555SOL    HW114030   3.562   2.034   1.290  0.0328  0.0380 -0.2864
 4555SOL    HW214031   3.460   2.037   1.179 -0.1935  0.3175 -0.0730
 4556SOL     OW14032   3.482   6.570   5.591 -0.1862  0.2707  0.1069
 4556SOL    HW114033   3.477   6.475   5.585 -0.2235 -0.1595  4.3800
 4556SOL    HW214034   3.397   6.600   5.560 -0.2443 -1.0564 -1.1236
 4557SOL     OW14035   3.928   3.420   4.196 -0.1588 -0.8101 -0.0365
 4557SOL    HW114036   3.901   3.409   4.287  0.8866 -0.6806  0.3058
 4557SOL    HW214037   3.937   3.330   4.163  1.0730 -0.9036  0.5003
 4558SOL     OW14038   3.610   1.815   1.147  0.4620 -0.2390  0.0914
 4558SOL    HW114039   3.548   1.884   1.123 -1.1829 -1.6085  0.2360
 4558SOL    HW214040   3.598   1.803   1.241  2.8983  1.2714  0.6806
 4559SOL     OW14041   1.505   2.900   2.961  0.6230 -0.0399  0.3753
 4559SOL    HW114042   1.461   2.978   2.994  1.7618  0.1194  1.6100
 4559SOL    HW214043   1.589   2.932   2.929  0.5456 -0.5730 -0.3911
 4560SOL     OW14044   6.703   3.557   6.357  0.0764  0.2315  0.4498
 4560SOL    HW114045   6.748   3.499   6.419  0.4921 -0.1159 -0.1648
 4560SOL    HW214046   6.640   3.604   6.411 -0.3640 -0.8772  0.9515
 4561SOL     OW14047   5.310   2.222   0.970 -0.1847 -0.2544  0.0526
 4561SOL    HW114048   5.296   2.312   1.000  1.2654 -0.1274  0.4439
 4561SOL    HW214049   5.257   2.168   1.029  0.4428  0.2158  1.0752
 4562SOL     OW14050   0.202   2.150   0.993 -0.2891  0.3521 -0.0768
 4562SOL    HW114051   0.183   2.236   1.030  0.5674 -0.1314  1.5881
 4562SOL    HW214052   0.119   2.103   0.997 -0.2383  0.3297  1.2720
 4563SOL     OW14053   4.824   5.014   3.233 -0.7884  0.1989  0.5472
 4563SOL    HW114054   4.831   5.060   3.317 -1.0318  0.1979  0.5662
 4563SOL    HW214055   4.880   4.937   3.244 -2.9128 -1.2893  1.6921
 4564SOL     OW14056   1.880   1.515   3.922 -0.3372 -0.1801 -1.2112
 4564SOL    HW114057   1.922   1.450   3.979 -0.0468  1.0003 -0.0344
 4564SOL    HW214058   1.941   1.588   3.920 -1.6125  0.9319 -0.7458
 4565SOL     OW14059   0.374   5.801   3.464  0.3347  0.5294 -0.6715
 4565SOL    HW114060   0.287   5.782   3.427  0.2670  1.1105 -0.8277
 4565SOL    HW214061   0.370   5.766   3.553 -0.0104  0.4164 -0.7286
 4566SOL     OW14062   2.876   0.399   3.925  0.0580 -0.2672  0.1405
 4566SOL    HW114063   2.821   0.349   3.986 -0.1554  0.6198  0.7080
 4566SOL    HW214064   2.965   0.375   3.948 -0.0179  0.0781  0.8462
 4567SOL     OW14065   3.202   0.205   2.183  0.3680  0.4339 -0.0213
 4567SOL    HW114066   3.164   0.165   2.105 -2.4981  1.3008  0.7987
 4567SOL    HW214067   3.222   0.295   2.157  2.3553 -0.1138 -0.5487
 4568SOL     OW14068   5.609   6.286   2.539  0.0446 -0.0255  0.2201
 4568SOL    HW114069   5.587   6.214   2.599  1.1223 -0.8838 -0.3865
 4568SOL    HW214070   5.701   6.305   2.556  0.3297 -0.1911 -1.0570
 4569SOL     OW14071   1.600   3.295   5.031 -0.3498  0.6401  0.1304
 4569SOL    HW114072   1.694   3.306   5.042 -0.1072 -1.2976  0.4203
 4569SOL    HW214073   1.566   3.286   5.120 -0.6252  0.1388 -0.0199
 4570SOL     OW14074   5.557   4.754   5.236  0.1596 -0.3698 -0.3477
 4570SOL    HW114075   5.542   4.829   5.178 -1.3357 -0.0714  0.3791
 4570SOL    HW214076   5.568   4.680   5.177  1.4038  0.3460 -1.0754
 4571SOL     OW14077   2.187   4.591   1.083  0.1749 -0.1453  0.8829
 4571SOL    HW114078   2.115   4.611   1.023  1.8148  2.2412 -0.4328
 4571SOL    HW214079   2.209   4.500   1.063 -1.4623 -0.4415  0.2350
 4572SOL     OW14080   6.335   1.570   1.449  0.6523 -0.0697 -0.2578
 4572SOL    HW114081   6.335   1.551   1.543  0.0662 -3.4755 -0.8129
 4572SOL    HW214082   6.426   1.592   1.429  1.3494 -1.7958  0.7638
 4573SOL     OW14083   3.779   0.649   6.773 -0.5554  0.4070  0.2145
 4573SOL    HW114084   3.744   0.719   6.719  0.7860 -0.0839 -1.3775
 4573SOL    HW214085   3.791   0.688   6.859 -2.3184  1.3438  0.0790
 4574SOL     OW14086   1.507   0.755   1.296  0.5508  0.3940  0.1675
 4574SOL    HW114087   1.502   0.822   1.227  2.1833  1.2973  0.8703
 4574SOL    HW214088   1.453   0.790   1.367  0.2558  0.2860 -0.0034
 4575SOL     OW14089   1.683   4.275   5.645  0.2332  0.3771 -0.7942
 4575SOL    HW114090   1.670   4.190   5.602 -0.1104 -0.0619  0.1512
 4575SOL    HW214091   1.742   4.256   5.718 -1.1932  0.5934  0.4733
 4576SOL     OW14092   0.547   4.608   2.182  0.2487  0.0906  0.6737
 4576SOL    HW114093   0.626   4.580   2.135 -1.1206 -1.1792 -1.0016
 4576SOL    HW214094   0.571   4.602   2.275  3.0925  2.8284  0.2829
 4577SOL     OW14095   3.583   3.457   2.583  0.0168 -0.0584 -0.0198
 4577SOL    HW114096   3.525   3.504   2.643 -0.8577 -1.4444  0.2946
 4577SOL    HW214097   3.572   3.365   2.608  2.2798 -0.3885 -0.0437
 4578SOL     OW14098   2.967   5.309   5.721  0.2927 -0.8181  0.2061
 4578SOL    HW114099   3.029   5.357   5.666 -0.1664 -0.5274 -0.0669
 4578SOL    HW214100   2.881   5.331   5.685 -0.0456 -0.3229  1.2650
 4579SOL     OW14101   5.509   1.506   6.028 -0.0594 -0.4119 -0.3673
 4579SOL    HW114102   5.471   1.420   6.012  2.6784 -1.5586 -1.3656
 4579SOL    HW214103   5.482   1.558   5.952  0.6630 -1.3410 -1.3015
 4580SOL     OW14104   5.501   5.993   1.377  0.6388 -0.6184  0.5258
 4580SOL    HW114105   5.569   6.057   1.398 -0.4767  1.5382 -1.9068
 4580SOL    HW214106   5.545   5.928   1.322  1.0405 -0.0113  0.1296
 4581SOL     OW14107   0.622   5.138   1.425  0.0896  0.4317  0.0254
 4581SOL    HW114108   0.689   5.115   1.489  0.5677 -0.2941 -0.7129
 4581SOL    HW214109   0.659   5.212   1.377  0.7726 -0.5587 -0.9940
 4582SOL     OW14110   5.039   3.301   0.481 -0.5419  0.5562  0.3037
 4582SOL    HW114111   4.958   3.259   0.511 -0.8075  0.1220 -0.9649
 4582SOL    HW214112   5.107   3.237   0.499 -1.0634 -0.9174 -2.4815
 4583SOL     OW14113   3.711   4.915   1.172 -0.4132 -0.1812 -0.3078
 4583SOL    HW114114   3.626   4.926   1.214  0.5725  1.4601  1.4217
 4583SOL    HW214115   3.748   4.836   1.212 -0.5288 -0.0574  0.0471
 4584SOL     OW14116   0.268   0.231   2.440 -0.1680 -0.6417 -0.5514
 4584SOL    HW114117   0.316   0.307   2.407 -0.9569 -0.5457 -1.5260
 4584SOL    HW214118   0.176   0.255   2.432 -0.4552 -1.9191 -1.4502
 4585SOL     OW14119   0.420   3.198   5.732  0.4459  0.0490 -0.0312
 4585SOL    HW114120   0.509   3.225   5.708  0.3297 -0.4214 -1.0757
 4585SOL    HW214121   0.376   3.185   5.648 -0.7822  0.8066  0.4747
 4586SOL     OW14122   1.291   6.012   0.225  0.2203  0.3625  1.1688
 4586SOL    HW114123   1.370   5.960   0.236  1.0559  0.9551 -1.3036
 4586SOL    HW214124   1.313   6.097   0.261  0.6147  0.4205  0.8053
 4587SOL     OW14125   1.245   6.088   6.347  0.3675  0.6315 -0.2816
 4587SOL    HW114126   1.272   6.084   6.255  1.1598  0.6421 -0.0535
 4587SOL    HW214127   1.326   6.087   6.396 -0.0660  0.1358  0.4466
 4588SOL     OW14128   3.242   3.999   3.769  0.3920 -0.4440 -0.2046
 4588SOL    HW114129   3.255   3.981   3.862  0.4902  0.1069 -0.1089
 4588SOL    HW214130   3.174   4.066   3.767  0.9944  0.1698 -0.4840
 4589SOL     OW14131   5.672   1.374   5.048  0.0276  0.7942  0.0580
 4589SOL    HW114132   5.583   1.369   5.014  0.2839  1.8340 -0.8053
 4589SOL    HW214133   5.716   1.436   4.991  1.1720  0.6771  0.7884
 4590SOL     OW14134   3.027   6.481   6.512 -0.7057 -0.0425 -0.5289
 4590SOL    HW114135   3.111   6.437   6.502 -0.3931  0.4271  0.0336
 4590SOL    HW214136   2.979   6.458   6.432  0.0887 -0.0124 -1.0239
 4591SOL     OW14137   5.912   3.663   2.389  0.0731 -0.3944  0.5147
 4591SOL    HW114138   5.819   3.668   2.368 -0.1759 -2.0449  1.1316
 4591SOL    HW214139   5.922   3.719   2.466 -0.3590 -0.0439  0.3219
 4592SOL     OW14140   2.021   5.278   1.021 -0.8305  0.2435  0.4484
 4592SOL    HW114141   1.930   5.308   1.026 -1.2026 -0.9522  1.5351
 4592SOL    HW214142   2.017   5.184   1.040  0.6688  0.2513  1.0089
 4593SOL     OW14143   1.071   5.495   0.131  0.3128 -0.3405 -0.1494
 4593SOL    HW114144   1.096   5.587   0.132  1.5467 -0.6242 -1.4685
 4593SOL    HW214145   1.124   5.455   0.200 -0.2508 -0.0836  0.4488
 4594SOL     OW14146   0.274   0.013   2.260  0.3357  0.5838 -0.1898
 4594SOL    HW114147   0.218  -0.058   2.229  0.5540  0.3746 -0.1049
 4594SOL    HW214148   0.240   0.091   2.216 -0.0676  0.4714 -0.0847
 4595SOL     OW14149   4.757   1.194   4.778 -0.3745  0.7554 -0.0236
 4595SOL    HW114150   4.748   1.126   4.845  0.7566  0.0349 -0.5800
 4595SOL    HW214151   4.847   1.225   4.787  1.7390 -2.8893 -4.3682
 4596SOL     OW14152   2.386   4.983   1.140 -0.3353 -0.1991  0.3815
 4596SOL    HW114153   2.445   4.908   1.142 -1.6760 -1.3254 -0.5664
 4596SOL    HW214154   2.364   4.999   1.231  2.2766  1.0094  0.9171
 4597SOL     OW14155   6.517   5.491   6.078 -0.3486  0.0956  0.4068
 4597SOL    HW114156   6.459   5.561   6.048 -0.2443 -0.5028 -1.3509
 4597SOL    HW214157   6.606   5.525   6.064 -0.2739 -0.8096 -1.7653
 4598SOL     OW14158   3.042   2.251   2.178  0.6519 -0.7705 -0.2613
 4598SOL    HW114159   3.062   2.247   2.272 -1.2281 -0.8266  0.1940
 4598SOL    HW214160   3.073   2.337   2.150 -0.6383  0.1451  0.9459
 4599SOL     OW14161   6.519   1.955   6.707 -0.7304 -0.0131 -0.4381
 4599SOL    HW114162   6.507   1.976   6.799 -0.4813  1.8280 -0.7847
 4599SOL    HW214163   6.579   1.880   6.706  0.4471  0.8815  0.8597
 4600SOL     OW14164   0.908   2.974   0.513  0.7438 -0.7217  0.0437
 4600SOL    HW114165   0.820   2.941   0.533  0.8195 -1.5023 -0.8527
 4600SOL    HW214166   0.961   2.950   0.588  0.1542 -0.0703  0.6840
 4601SOL     OW14167   1.504   1.168   3.450 -0.2479  0.5205 -0.4353
 4601SOL    HW114168   1.437   1.202   3.390 -0.7163  0.0235 -0.2025
 4601SOL    HW214169   1.506   1.074   3.433 -0.0229  0.4484 -0.0217
 4602SOL     OW14170   2.651   6.358   5.081 -0.0292 -0.0218  0.1872
 4602SOL    HW114171   2.673   6.451   5.094 -1.1906  0.3643 -0.5278
 4602SOL    HW214172   2.584   6.359   5.014  0.4401 -1.4481 -0.3209
 4603SOL     OW14173   3.915   4.109   5.284 -0.5599  0.1769  0.6785
 4603SOL    HW114174   3.941   4.124   5.375 -1.9359 -0.6570  1.2470
 4603SOL    HW214175   3.980   4.048   5.250  0.0174  0.5655  1.0693
 4604SOL     OW14176   0.575   3.766   4.549  0.4485 -0.1336 -0.3513
 4604SOL    HW114177   0.492   3.746   4.505  0.5324  0.0469 -0.5957
 4604SOL    HW214178   0.552   3.774   4.641  0.1989 -0.1161 -0.4135
 4605SOL     OW14179   3.904   0.103   4.038 -0.0369  0.0160  0.0483
 4605SOL    HW114180   3.820   0.103   4.084 -0.2674  2.2248 -0.2734
 4605SOL    HW214181   3.918   0.194   4.014  1.9249 -0.4913 -0.9137
 4606SOL     OW14182   5.003   1.096   0.815 -0.0959 -0.6248  0.4043
 4606SOL    HW114183   5.032   1.079   0.905 -0.4401 -0.9399  0.4574
 4606SOL    HW214184   5.063   1.164   0.783  1.1559 -1.7546  0.2666
 4607SOL     OW14185   2.754   2.987   5.578  0.5231 -0.3217 -0.0703
 4607SOL    HW114186   2.823   2.937   5.534  0.0727 -1.0424  0.0175
 4607SOL    HW214187   2.787   3.077   5.581  1.0241 -0.4716 -0.9008
 4608SOL     OW14188   1.088   2.250   3.071  0.3636  0.4190 -0.2514
 4608SOL    HW114189   1.070   2.171   3.021  0.4635  0.6628 -0.6759
 4608SOL    HW214190   1.126   2.218   3.153 -0.0235  0.0071 -0.2308
 4609SOL     OW14191   6.122   3.439   5.860  0.4506 -0.4637  0.3000
 4609SOL    HW114192   6.138   3.531   5.837 -0.0910 -1.0073 -2.6655
 4609SOL    HW214193   6.197   3.393   5.822 -1.5491 -1.6672 -2.5183
 4610SOL     OW14194   0.641   0.651   1.131  0.0815  0.3190  0.1956
 4610SOL    HW114195   0.655   0.693   1.046  0.8009 -1.0010 -0.3687
 4610SOL    HW214196   0.729   0.629   1.161 -0.1844  0.5705  1.1831
 4611SOL     OW14197   3.744   5.669   4.714  0.0606  0.2032  0.3919
 4611SOL    HW114198   3.801   5.604   4.755  0.8277  0.7162  0.1651
 4611SOL    HW214199   3.669   5.618   4.682  1.1200 -0.7500 -0.6840
 4612SOL     OW14200   2.382   0.979   0.021 -0.0072 -0.1635 -0.5256
 4612SOL    HW114201   2.466   0.951   0.057 -0.4891 -1.6429 -0.4882
 4612SOL    HW214202   2.357   1.054   0.075  2.1661  1.5780 -1.7738
 4613SOL     OW14203   0.172   0.644   6.327 -0.3549  0.0001 -0.1601
 4613SOL    HW114204   0.085   0.682   6.340 -0.0265  1.1973 -1.2324
 4613SOL    HW214205   0.160   0.550   6.341 -1.3928  0.3549  1.6755
 4614SOL     OW14206   6.432   1.476   1.111  0.4943  0.3888 -0.0984
 4614SOL    HW114207   6.377   1.421   1.054 -1.0604  1.8153 -0.0557
 4614SOL    HW214208   6.373   1.502   1.182  2.1026 -0.4396  1.6132
 4615SOL     OW14209   1.950   5.239   5.583 -0.1004 -0.5275  0.3306
 4615SOL    HW114210   1.933   5.266   5.493 -1.3189 -1.0098  0.3987
 4615SOL    HW214211   1.884   5.284   5.635 -0.2750 -1.3111  0.8090
 4616SOL     OW14212   0.671   5.906   1.535  0.9920  0.1238 -0.2839
 4616SOL    HW114213   0.624   5.933   1.614 -1.0824 -1.5715 -0.8551
 4616SOL    HW214214   0.762   5.894   1.564  0.3207 -0.2995  1.8253
 4617SOL     OW14215   3.050   5.852   3.965  0.7152 -0.5764 -0.2387
 4617SOL    HW114216   3.034   5.885   4.054  0.5646 -2.3288  0.4305
 4617SOL    HW214217   2.997   5.772   3.960 -0.1908  0.0745 -2.3272
 4618SOL     OW14218   6.327   4.149   3.857  0.6150 -0.3305  0.7022
 4618SOL    HW114219   6.259   4.187   3.801  1.6358  1.7336  0.7922
 4618SOL    HW214220   6.394   4.120   3.795  1.5557  1.5693  0.8005
 4619SOL     OW14221   6.191   2.668   2.181 -0.1719 -0.3767  0.1869
 4619SOL    HW114222   6.123   2.612   2.143 -0.9802  0.2918  0.6199
 4619SOL    HW214223   6.224   2.619   2.256 -0.2786 -0.6420  0.0602
 4620SOL     OW14224   4.916   3.915   5.680  0.4488 -0.3584  0.0857
 4620SOL    HW114225   4.866   3.968   5.617 -0.7280 -0.6564  0.7564
 4620SOL    HW214226   4.943   3.838   5.630  1.1469  0.2755 -0.5605
 4621SOL     OW14227   0.764   4.982   6.465  0.3163  0.1429 -0.3708
 4621SOL    HW114228   0.764   4.908   6.526  0.6942  0.5844  0.1686
 4621SOL    HW214229   0.726   4.946   6.385 -0.4252 -0.3790  0.2007
 4622SOL     OW14230   1.266   2.479   5.174  0.1647 -0.4200 -0.1944
 4622SOL    HW114231   1.357   2.463   5.150  0.3016  0.0542 -0.0061
 4622SOL    HW214232   1.225   2.393   5.172  0.7235 -0.6986  0.1438
 4623SOL     OW14233   1.952   3.115   2.264 -0.5336 -0.2283 -0.0713
 4623SOL    HW114234   1.890   3.168   2.215  1.4059  1.6046 -0.7128
 4623SOL    HW214235   1.904   3.088   2.342 -2.0529  1.3115 -0.4093
 4624SOL     OW14236   3.163   4.819   5.777  0.0672 -0.1585 -0.2836
 4624SOL    HW114237   3.101   4.883   5.741  2.3913  2.3050 -0.2368
 4624SOL    HW214238   3.133   4.803   5.866 -0.8796  0.4450 -0.4833
 4625SOL     OW14239   5.465   5.310   5.028  0.2457  0.2861  0.0843
 4625SOL    HW114240   5.397   5.301   4.961 -0.3996  2.1486  0.4231
 4625SOL    HW214241   5.458   5.230   5.080 -0.8665 -0.1162 -0.6410
 4626SOL     OW14242   5.246   3.390   6.579 -0.2207 -0.2301  0.0116
 4626SOL    HW114243   5.249   3.297   6.556 -2.0428 -0.2064 -0.5001
 4626SOL    HW214244   5.160   3.402   6.620  0.0897  1.1763  0.2992
 4627SOL     OW14245   0.358   4.272   4.456  0.0431  0.7316 -0.8106
 4627SOL    HW114246   0.317   4.287   4.541 -1.7926 -0.6456 -1.3703
 4627SOL    HW214247   0.293   4.304   4.393 -0.1476 -1.3133 -1.7234
 4628SOL     OW14248   4.467   2.246   6.538 -0.7329 -0.0397 -0.1916
 4628SOL    HW114249   4.445   2.155   6.557  2.6860 -0.9311  0.1743
 4628SOL    HW214250   4.448   2.257   6.445 -0.1251 -1.5040 -0.5088
 4629SOL     OW14251   6.153   1.274   5.059 -0.3947  0.2477 -0.2065
 4629SOL    HW114252   6.233   1.289   5.009  0.8574  0.1528  1.6782
 4629SOL    HW214253   6.139   1.179   5.053 -0.2670  0.2393 -0.3837
 4630SOL     OW14254   5.546   5.498   0.904 -0.0153  0.2987 -0.3293
 4630SOL    HW114255   5.593   5.418   0.879 -0.2666  0.1398 -0.2970
 4630SOL    HW214256   5.470   5.500   0.846  1.3048  1.8632 -2.1603
 4631SOL     OW14257   3.713   5.953   2.277  0.1576  0.5174  0.3177
 4631SOL    HW114258   3.715   6.020   2.344  2.6920 -0.0573  0.9252
 4631SOL    HW214259   3.791   5.968   2.225  1.8140 -2.8689  1.5172
 4632SOL     OW14260   2.448   1.012   2.728  0.3951  1.1463 -0.2832
 4632SOL    HW114261   2.440   1.084   2.791  2.7068  2.2335 -1.1276
 4632SOL    HW214262   2.498   0.945   2.775  0.2531  1.0586 -0.2571
 4633SOL     OW14263   1.798   2.349   5.513  0.0300 -0.5354 -0.0948
 4633SOL    HW114264   1.837   2.426   5.556 -0.9786 -0.2870  0.4098
 4633SOL    HW214265   1.857   2.277   5.536  0.9496  0.0669 -0.5107
 4634SOL     OW14266   5.922   6.710   5.922 -0.1292  0.2147 -0.0122
 4634SOL    HW114267   5.996   6.654   5.897 -1.1380 -1.0728 -0.2252
 4634SOL    HW214268   5.947   6.798   5.893  0.9187 -0.3531 -0.8914
 4635SOL     OW14269   4.169   6.339   0.957 -0.3300  0.5206  0.0849
 4635SOL    HW114270   4.086   6.362   0.915  0.1922  0.8251 -0.8002
 4635SOL    HW214271   4.224   6.307   0.886 -0.3604 -1.6965  0.9525
 4636SOL     OW14272   3.147   0.406   0.281  0.2386  0.8275 -0.1849
 4636SOL    HW114273   3.092   0.374   0.353  0.9424  1.4331  0.6355
 4636SOL    HW214274   3.234   0.416   0.319  0.5442  1.5095 -1.0239
 4637SOL     OW14275   0.831   2.256   4.870 -0.0411 -0.2282  0.4996
 4637SOL    HW114276   0.801   2.239   4.780  2.9021  0.5388 -0.7509
 4637SOL    HW214277   0.798   2.343   4.890  1.9179  1.0185 -1.2225
 4638SOL     OW14278   0.579   6.537   4.772 -0.0673  0.0622 -0.0487
 4638SOL    HW114279   0.624   6.522   4.688  1.9580  1.4203  0.7020
 4638SOL    HW214280   0.519   6.609   4.754 -0.0463 -0.0233 -0.4772
 4639SOL     OW14281   3.775   3.078   3.590  0.1650  0.3246  0.1471
 4639SOL    HW114282   3.782   3.152   3.531  1.4488  1.2080  1.3475
 4639SOL    HW214283   3.812   3.004   3.542 -0.5340  0.5713 -0.8124
 4640SOL     OW14284   0.853   2.868   3.993 -0.2728 -0.0260  0.3758
 4640SOL    HW114285   0.870   2.913   4.076  0.1018  0.2362  0.1602
 4640SOL    HW214286   0.890   2.780   4.005 -1.5683 -0.5117  1.0263
 4641SOL     OW14287   0.153   2.363   3.353  0.1251 -0.0641 -0.2053
 4641SOL    HW114288   0.068   2.407   3.349 -0.5471 -1.4077 -1.6139
 4641SOL    HW214289   0.173   2.357   3.447 -3.0510 -2.8520  0.4784
 4642SOL     OW14290   5.631   3.572   0.641 -0.1854  0.0360  0.4178
 4642SOL    HW114291   5.580   3.649   0.668  0.3171 -0.0155  1.5789
 4642SOL    HW214292   5.611   3.562   0.548 -0.1425  1.6595  0.1927
 4643SOL     OW14293   3.643   4.393   3.918  0.7392 -0.1989 -0.6116
 4643SOL    HW114294   3.709   4.396   3.988  0.1143 -0.1753 -0.0184
 4643SOL    HW214295   3.673   4.323   3.860  1.7082  0.3332 -0.7738
 4644SOL     OW14296   0.700   1.501   5.047  0.2270  0.2912  0.0344
 4644SOL    HW114297   0.715   1.585   5.004  2.7305 -0.2647 -0.3617
 4644SOL    HW214298   0.655   1.448   4.981  1.6163  0.3090 -0.9755
 4645SOL     OW14299   6.663   0.667   6.473  0.1667 -0.3122 -0.0734
 4645SOL    HW114300   6.676   0.666   6.378 -0.4876 -0.0459 -0.1716
 4645SOL    HW214301   6.595   0.733   6.487 -1.7305 -2.2328  0.3262
 4646SOL     OW14302   4.660   1.941   0.572  0.4000  0.1727  0.6403
 4646SOL    HW114303   4.698   1.869   0.623 -0.0386 -0.7882 -0.3524
 4646SOL    HW214304   4.577   1.906   0.540 -1.1634  2.0595  2.3548
 4647SOL     OW14305   5.630   2.738   6.512 -0.0748 -0.0767  0.3761
 4647SOL    HW114306   5.712   2.771   6.548  0.1983 -0.5041  0.1642
 4647SOL    HW214307   5.631   2.644   6.532 -0.9933  0.0879  1.2638
 4648SOL     OW14308   1.566   6.387   5.935 -0.2015  0.0133  0.0294
 4648SOL    HW114309   1.620   6.361   6.010 -0.4361  0.0404  0.2110
 4648SOL    HW214310   1.593   6.330   5.864  0.3475  0.2935  0.0106
 4649SOL     OW14311   2.527   6.073   2.313  0.0201  0.4371 -0.3792
 4649SOL    HW114312   2.611   6.094   2.352 -0.2311  0.5217  0.1219
 4649SOL    HW214313   2.471   6.149   2.331 -0.3976  0.0511 -0.0004
 4650SOL     OW14314   2.577   0.810   0.655  0.3946 -0.7048 -0.5833
 4650SOL    HW114315   2.620   0.893   0.636 -1.4454  0.3252 -0.3901
 4650SOL    HW214316   2.646   0.756   0.695  1.5443  0.7838 -0.4747
 4651SOL     OW14317   0.309   3.832   2.986  0.6738  0.0292  0.2645
 4651SOL    HW114318   0.309   3.815   3.081  1.4192 -0.4268  0.1938
 4651SOL    HW214319   0.272   3.752   2.948 -1.1430  0.8466  0.2547
 4652SOL     OW14320   2.392   3.551   2.529  0.2280  0.1038 -0.3718
 4652SOL    HW114321   2.439   3.488   2.583  2.1624  2.7692  1.3092
 4652SOL    HW214322   2.439   3.552   2.446  1.7711  1.0419  0.4711
 4653SOL     OW14323   0.046   5.353   3.078 -0.1844  0.3207  0.1704
 4653SOL    HW114324   0.104   5.277   3.077  0.0929  0.5129  1.2333
 4653SOL    HW214325  -0.029   5.327   3.024 -0.2870 -0.8529  0.8688
 4654SOL     OW14326   4.409   1.705   5.335 -0.5479  0.5846  0.4294
 4654SOL    HW114327   4.320   1.675   5.354 -0.8513  0.5569 -0.8934
 4654SOL    HW214328   4.404   1.800   5.339 -0.2553  0.5565  1.8649
 4655SOL     OW14329   6.372   6.059   1.921  0.0410  0.5261 -0.0477
 4655SOL    HW114330   6.297   6.116   1.933  0.2950  0.5382  1.7899
 4655SOL    HW214331   6.337   5.971   1.926  0.0056  0.5228 -0.3240
 4656SOL     OW14332   3.952   6.401   5.495  0.5597 -0.1409 -0.0681
 4656SOL    HW114333   3.900   6.458   5.552  0.4235 -0.4575  0.1334
 4656SOL    HW214334   4.042   6.431   5.507  0.7303 -1.1064  1.4471
 4657SOL     OW14335   4.029   5.443   6.004  0.0575 -0.2784 -0.0346
 4657SOL    HW114336   3.983   5.504   5.947  1.6244 -1.1148 -2.3238
 4657SOL    HW214337   4.075   5.499   6.067 -0.1951  0.7703 -0.7585
 4658SOL     OW14338   0.311   6.030   5.537 -0.1046  0.1571 -0.1068
 4658SOL    HW114339   0.358   6.082   5.473 -0.8731 -1.5896 -2.2069
 4658SOL    HW214340   0.222   6.066   5.537  0.0082  0.4347  0.3009
 4659SOL     OW14341   3.878   1.156   5.512 -0.5865  0.4777  0.4967
 4659SOL    HW114342   3.880   1.118   5.600  1.3324 -1.6415 -0.3851
 4659SOL    HW214343   3.932   1.235   5.519 -0.3494  0.2638  1.1693
 4660SOL     OW14344   2.410   5.902   4.271 -0.6076 -0.0597  0.0219
 4660SOL    HW114345   2.499   5.933   4.289 -0.2057 -1.0438 -0.2468
 4660SOL    HW214346   2.373   5.883   4.357 -0.2972 -0.3578  0.0901
 4661SOL     OW14347   4.247   5.044   1.767 -0.6152 -0.0487 -0.1085
 4661SOL    HW114348   4.179   4.985   1.735 -0.9515  0.0595  0.4086
 4661SOL    HW214349   4.201   5.122   1.794 -0.2326  0.2075 -0.1866
 4662SOL     OW14350   1.037   0.592   4.392 -0.1074  0.3484  0.0048
 4662SOL    HW114351   1.057   0.499   4.380 -0.1879  0.3600 -0.2264
 4662SOL    HW214352   1.051   0.608   4.485 -1.8195 -0.3308  0.4157
 4663SOL     OW14353   4.139   2.089   3.196  0.0282 -0.7116 -0.5538
 4663SOL    HW114354   4.219   2.039   3.178  1.4515  1.4462 -0.6727
 4663SOL    HW214355   4.136   2.097   3.291  1.9554  2.0289 -0.5983
 4664SOL     OW14356   4.373   5.328   5.181 -0.0780  0.3842 -0.5958
 4664SOL    HW114357   4.365   5.389   5.255 -0.5126 -0.6919  0.2761
 4664SOL    HW214358   4.306   5.262   5.197  0.1406 -0.1287 -1.7176
 4665SOL     OW14359   6.547   2.851   4.157 -0.0699 -0.1388 -0.1242
 4665SOL    HW114360   6.501   2.790   4.099 -0.6782  0.9414 -0.8350
 4665SOL    HW214361   6.614   2.798   4.200  0.4634 -0.9808 -1.8951
 4666SOL     OW14362   3.487   4.481   1.419  0.1158  0.5502 -0.5122
 4666SOL    HW114363   3.459   4.404   1.467  0.5791 -0.4516 -1.7941
 4666SOL    HW214364   3.432   4.552   1.453 -0.6455 -0.4331  0.3545
 4667SOL     OW14365   3.957   3.138   0.439 -0.1002  0.8074  0.0718
 4667SOL    HW114366   4.018   3.101   0.504 -1.2740  0.5358  1.0422
 4667SOL    HW214367   3.996   3.222   0.414  1.7988 -0.3134 -0.9803
 4668SOL     OW14368   0.951   5.907   0.867 -0.2519 -0.1777  0.0237
 4668SOL    HW114369   0.861   5.881   0.887  0.1020 -1.9353 -0.5136
 4668SOL    HW214370   0.943   5.989   0.820 -1.5917 -0.4604 -0.2590
 4669SOL     OW14371   1.593   4.575   3.319 -0.1276 -1.1493 -0.5429
 4669SOL    HW114372   1.513   4.608   3.360  0.6485  0.7942 -0.5185
 4669SOL    HW214373   1.566   4.550   3.230 -1.2002 -2.6587  0.1716
 4670SOL     OW14374   1.781   6.082   1.927  0.2930 -0.2630 -0.1138
 4670SOL    HW114375   1.776   6.104   2.020  1.9291 -1.5238  0.3130
 4670SOL    HW214376   1.861   6.030   1.919  0.3073  0.0153 -2.2733
 4671SOL     OW14377   0.938   1.173   5.718 -0.0666  0.4828  0.4611
 4671SOL    HW114378   0.893   1.244   5.671 -0.3294  0.0509  0.0541
 4671SOL    HW214379   0.993   1.132   5.651  1.5010  1.4481  1.1055
 4672SOL     OW14380   3.996   6.355   3.786 -0.4044  0.0245 -0.1553
 4672SOL    HW114381   3.939   6.286   3.753 -0.3443  0.3138 -0.8845
 4672SOL    HW214382   3.984   6.353   3.881 -0.2821 -1.0961 -0.1469
 4673SOL     OW14383   1.583   4.228   5.092 -0.2586  0.6456  0.3793
 4673SOL    HW114384   1.621   4.268   5.170 -1.6132  2.4764  0.1409
 4673SOL    HW214385   1.512   4.173   5.126 -0.1697  0.6124  0.5125
 4674SOL     OW14386   5.384   3.269   2.741 -0.1132 -0.2672  0.4817
 4674SOL    HW114387   5.346   3.280   2.654 -0.6560 -0.9614  0.6233
 4674SOL    HW214388   5.466   3.221   2.726  1.0252  1.6734  0.1207
 4675SOL     OW14389   0.002   6.195   1.342  0.0443  0.3891  0.2930
 4675SOL    HW114390   0.018   6.142   1.420 -2.5309  1.4902  1.7250
 4675SOL    HW214391  -0.089   6.175   1.318  0.1217  1.6080 -1.1911
 4676SOL     OW14392   5.563   0.854   5.524  0.3048 -0.4368  0.0476
 4676SOL    HW114393   5.545   0.948   5.513 -0.9765 -0.5446  1.0315
 4676SOL    HW214394   5.482   0.811   5.499  0.4689 -1.2139  0.8245
 4677SOL     OW14395   6.189   6.158   4.557 -0.6351 -0.8274  0.0786
 4677SOL    HW114396   6.104   6.163   4.601 -0.6247 -1.2292  0.1484
 4677SOL    HW214397   6.248   6.208   4.613 -0.6840 -1.1031  0.3788
 4678SOL     OW14398   6.390   1.948   5.481  0.5732  0.5058  0.1832
 4678SOL    HW114399   6.349   1.904   5.407  0.9527  0.0826  0.2153
 4678SOL    HW214400   6.482   1.956   5.456  0.7904 -0.0213  0.7727
 4679SOL     OW14401   1.127   2.904   2.818  0.0299  0.3232 -0.2347
 4679SOL    HW114402   1.120   2.810   2.802 -0.7505 -0.1510  2.3301
 4679SOL    HW214403   1.045   2.927   2.861  0.2277  2.1892 -0.7813
 4680SOL     OW14404   4.077   1.275   1.599 -0.3156 -0.0410  0.0770
 4680SOL    HW114405   4.006   1.278   1.536 -0.1057 -0.8085 -0.2103
 4680SOL    HW214406   4.034   1.254   1.682 -0.8775  3.0997  0.6920
 4681SOL     OW14407   2.693   5.923   6.520 -0.1381 -0.0441 -0.1956
 4681SOL    HW114408   2.763   5.918   6.455  1.1384 -0.2651  1.1602
 4681SOL    HW214409   2.722   5.991   6.581 -1.2027 -0.0097  0.2957
 4682SOL     OW14410   6.559   2.719   1.955  0.0877 -0.3737  0.3575
 4682SOL    HW114411   6.512   2.751   1.878 -0.0473 -0.5209  0.3788
 4682SOL    HW214412   6.644   2.689   1.921 -0.3827 -1.4462  0.0970
 4683SOL     OW14413   0.042   4.872   4.482 -0.2482 -0.9689 -0.2404
 4683SOL    HW114414   0.018   4.922   4.404 -0.4710 -0.4015  0.1864
 4683SOL    HW214415  -0.041   4.838   4.515  0.0732 -3.4433 -1.7043
 4684SOL     OW14416   4.556   3.993   2.286  0.1809 -0.0738 -0.0364
 4684SOL    HW114417   4.603   4.038   2.216 -1.9200  0.3330 -1.2522
 4684SOL    HW214418   4.571   3.900   2.269  0.4570  0.0482 -0.4605
 4685SOL     OW14419   4.693   0.028   4.786  0.5341  0.3771  0.7949
 4685SOL    HW114420   4.749  -0.004   4.857  0.5459  0.3407  0.7689
 4685SOL    HW214421   4.625   0.079   4.830 -0.1276 -0.5892  0.9372
 4686SOL     OW14422   6.403   0.849   1.988 -0.4086 -0.4874 -0.1928
 4686SOL    HW114423   6.409   0.910   1.915  3.3930  0.3523  0.5948
 4686SOL    HW214424   6.374   0.903   2.062 -0.0867 -0.3406 -0.1721
 4687SOL     OW14425   2.393   4.352   0.618 -0.2968 -0.0461  0.7596
 4687SOL    HW114426   2.328   4.386   0.556  2.0604  1.0127 -1.3468
 4687SOL    HW214427   2.406   4.261   0.591  0.8247  0.4495 -0.5312
 4688SOL     OW14428   6.684   2.380   3.302 -0.3441  0.5363  0.1658
 4688SOL    HW114429   6.660   2.302   3.252  1.6772 -0.7560  1.0677
 4688SOL    HW214430   6.658   2.359   3.392  1.4780  0.2514  0.6632
 4689SOL     OW14431   1.637   1.765   2.380 -0.6516 -0.1676  0.6898
 4689SOL    HW114432   1.591   1.687   2.349 -0.7478 -0.1656  0.8277
 4689SOL    HW214433   1.583   1.798   2.452 -0.3537 -0.2568  0.9592
 4690SOL     OW14434   0.665   1.471   4.288  0.1135  0.3902  0.2279
 4690SOL    HW114435   0.589   1.507   4.335 -1.1547 -1.8278  0.0651
 4690SOL    HW214436   0.691   1.395   4.341 -0.1061 -1.0135 -1.5911
 4691SOL     OW14437   3.926   5.648   4.268  0.2616  0.2179 -0.5358
 4691SOL    HW114438   3.973   5.643   4.351  0.8980 -0.5498 -0.9251
 4691SOL    HW214439   3.956   5.571   4.219  0.6056  1.1432 -1.8329
 4692SOL     OW14440   0.126   4.075   2.225 -0.5622 -0.0757 -0.8832
 4692SOL    HW114441   0.196   4.034   2.175  0.3558 -1.1877  1.1819
 4692SOL    HW214442   0.082   4.002   2.269 -0.9185  0.8747  0.4024
 4693SOL     OW14443   1.089   4.504   5.324  0.1915  0.4512 -0.0906
 4693SOL    HW114444   1.030   4.440   5.364  0.5247 -0.4687 -1.0257
 4693SOL    HW214445   1.031   4.564   5.277  0.0017 -0.9530 -1.7293
 4694SOL     OW14446   3.684   5.237   1.171 -0.3532  0.8011 -0.4904
 4694SOL    HW114447   3.605   5.205   1.126 -0.7667  0.7251  0.2709
 4694SOL    HW214448   3.698   5.174   1.241 -0.9243  2.0181  0.7663
 4695SOL     OW14449   2.845   6.011   1.441 -0.0513  0.3158  0.1789
 4695SOL    HW114450   2.778   5.950   1.473 -0.1624  0.6173  0.5288
 4695SOL    HW214451   2.799   6.067   1.379 -0.3284  1.0480  1.0230
 4696SOL     OW14452   1.348   3.334   4.190 -0.0236 -0.0761  0.2875
 4696SOL    HW114453   1.406   3.270   4.231  1.1987  0.8569  0.0501
 4696SOL    HW214454   1.333   3.399   4.259  0.8626  0.7373 -0.2701
 4697SOL     OW14455   0.960   2.392   6.701  0.7208 -0.1031  0.3003
 4697SOL    HW114456   0.890   2.441   6.746 -0.0290  0.9765 -1.8704
 4697SOL    HW214457   1.018   2.461   6.667  1.9049 -0.9328  0.5937
 4698SOL     OW14458   0.741   1.544   2.353 -0.0320 -0.3462 -0.7373
 4698SOL    HW114459   0.789   1.589   2.283  2.5491 -2.3629 -0.4212
 4698SOL    HW214460   0.691   1.477   2.307 -2.1555  1.2998 -0.9932
 4699SOL     OW14461   2.238   0.989   2.563 -0.4588  0.4110 -0.1713
 4699SOL    HW114462   2.309   1.004   2.626 -1.9309  0.1660  1.6579
 4699SOL    HW214463   2.267   1.033   2.483  1.4849  0.7995  0.6738
 4700SOL     OW14464   0.370   4.877   0.967  0.6078  0.4937 -0.0927
 4700SOL    HW114465   0.353   4.927   0.887 -2.8387  1.3734  1.0382
 4700SOL    HW214466   0.299   4.813   0.971  2.7554 -2.0488  0.4920
 4701SOL     OW14467   2.061   2.311   1.904  0.5227 -0.2038  0.1819
 4701SOL    HW114468   1.971   2.306   1.934 -0.0148  0.5610 -1.1772
 4701SOL    HW214469   2.067   2.246   1.834  0.8432  0.1332 -0.1147
 4702SOL     OW14470   5.527   2.945   3.676  0.1285  0.4289  0.4296
 4702SOL    HW114471   5.521   2.884   3.750 -0.4730  0.8831  0.7645
 4702SOL    HW214472   5.614   2.985   3.685  0.9192 -1.0186 -0.3241
 4703SOL     OW14473   5.893   0.470   4.938 -0.5628 -0.3666 -0.1431
 4703SOL    HW114474   5.941   0.410   4.881 -0.6090 -0.7231  0.1883
 4703SOL    HW214475   5.949   0.547   4.945 -0.6115 -0.2751 -0.7668
 4704SOL     OW14476   5.911   1.825   0.869  0.1665 -0.0896 -0.7176
 4704SOL    HW114477   5.837   1.766   0.854  1.7145 -1.8439 -1.8767
 4704SOL    HW214478   5.988   1.769   0.861  1.7030  1.9678 -1.0498
 4705SOL     OW14479   2.551   5.253   0.916 -0.7889  0.6468  0.2275
 4705SOL    HW114480   2.619   5.226   0.977  0.2826  2.0155 -0.3125
 4705SOL    HW214481   2.528   5.342   0.943 -0.8115  0.9959 -0.8897
 4706SOL     OW14482   2.176   4.289   3.335  0.2089 -0.0206 -0.5098
 4706SOL    HW114483   2.259   4.332   3.312  0.8175 -0.1617  1.2943
 4706SOL    HW214484   2.109   4.341   3.290  1.2590  0.0246 -2.1116
 4707SOL     OW14485   3.000   2.622   5.327 -0.1017 -0.2351 -0.0639
 4707SOL    HW114486   2.953   2.635   5.244 -2.3324  0.5642  1.2667
 4707SOL    HW214487   2.953   2.552   5.371  0.2161  0.2862  1.1363
 4708SOL     OW14488   4.731   6.764   1.466  0.0041 -0.1664  0.2001
 4708SOL    HW114489   4.651   6.770   1.415 -1.0948  2.3659  2.0043
 4708SOL    HW214490   4.792   6.824   1.424  0.5779 -1.1941 -0.4751
 4709SOL     OW14491   6.197   0.182   6.625 -0.4181  0.0074  0.5938
 4709SOL    HW114492   6.258   0.234   6.677 -2.3235  2.5461  0.4799
 4709SOL    HW214493   6.197   0.225   6.539 -1.2532 -0.8418  0.1581
 4710SOL     OW14494   2.365   5.890   4.541 -0.1181 -0.3541 -0.4368
 4710SOL    HW114495   2.338   5.980   4.555  0.2175 -0.4383  0.9036
 4710SOL    HW214496   2.446   5.881   4.591 -0.0803 -1.3640 -0.6531
 4711SOL     OW14497   3.785   4.706   1.653 -0.6173 -0.0162 -0.1140
 4711SOL    HW114498   3.848   4.639   1.678  0.8457  0.2180 -2.7847
 4711SOL    HW214499   3.709   4.657   1.621 -0.2217 -0.4066 -0.4756
 4712SOL     OW14500   1.019   2.352   2.247 -0.1434 -0.2243  0.1477
 4712SOL    HW114501   0.962   2.410   2.196 -1.8992 -1.4004  0.6503
 4712SOL    HW214502   1.015   2.268   2.202  0.8067 -0.4718  0.4920
 4713SOL     OW14503   0.539   3.450   3.554  0.2399  0.3745  0.2045
 4713SOL    HW114504   0.616   3.503   3.577  0.8517 -1.5472  2.9595
 4713SOL    HW214505   0.571   3.360   3.552 -1.5431 -0.2893 -0.6629
 4714SOL     OW14506   6.349   0.067   1.775 -0.2931  0.4549  0.1946
 4714SOL    HW114507   6.358   0.061   1.870 -2.2195 -3.0582  0.3130
 4714SOL    HW214508   6.255   0.070   1.760 -0.2153 -2.2132 -1.5751
 4715SOL     OW14509   0.588   4.169   1.147 -0.2187  0.2351 -0.1244
 4715SOL    HW114510   0.631   4.224   1.081  2.2623  0.3054  1.4361
 4715SOL    HW214511   0.570   4.087   1.102  3.8356 -0.7143 -0.3445
 4716SOL     OW14512   4.679   4.438   2.867 -0.2315  0.4619  0.7015
 4716SOL    HW114513   4.667   4.356   2.915  0.1452 -0.2713 -0.4177
 4716SOL    HW214514   4.745   4.486   2.918  1.8659 -1.2854 -0.1995
 4717SOL     OW14515   0.288   1.731   2.311  0.1383 -0.1541 -0.2472
 4717SOL    HW114516   0.329   1.796   2.253  0.4621 -0.2073 -0.0844
 4717SOL    HW214517   0.355   1.663   2.320  0.5644  0.4192  1.1427
 4718SOL     OW14518   5.572   4.368   1.886 -0.5118  0.0968  0.4489
 4718SOL    HW114519   5.596   4.290   1.936  3.4194  0.4953 -0.5261
 4718SOL    HW214520   5.547   4.334   1.800  0.2517 -0.1568  0.3245
 4719SOL     OW14521   0.275   2.827   3.759 -0.0557 -0.5365 -0.4081
 4719SOL    HW114522   0.235   2.777   3.830  0.1598 -0.2613 -0.0890
 4719SOL    HW214523   0.254   2.919   3.779 -1.6192 -0.5592 -1.7104
 4720SOL     OW14524   5.003   6.448   0.443  0.0220  0.2860 -0.7659
 4720SOL    HW114525   4.980   6.519   0.383 -1.0633 -0.9394 -1.8750
 4720SOL    HW214526   5.050   6.491   0.514  0.3003  1.9656 -1.9012
 4721SOL     OW14527   6.247   3.509   1.943 -0.0072 -0.1978 -0.0606
 4721SOL    HW114528   6.249   3.447   2.016 -3.2239  1.0851  1.3156
 4721SOL    HW214529   6.259   3.594   1.984  1.6855  0.3604 -1.5837
 4722SOL     OW14530   2.990   5.287   1.346 -0.3421 -0.1080  0.4254
 4722SOL    HW114531   3.033   5.210   1.308 -0.9130 -0.0717 -0.3122
 4722SOL    HW214532   2.912   5.252   1.388  0.5767 -0.2275  2.1214
 4723SOL     OW14533   0.266   4.395   0.567  0.3970 -0.0584  0.1495
 4723SOL    HW114534   0.352   4.391   0.525  0.9105  0.2067  1.1524
 4723SOL    HW214535   0.283   4.375   0.659 -0.4900  0.8685  0.5304
 4724SOL     OW14536   3.180   6.584   0.412 -0.6575 -0.3920  0.2399
 4724SOL    HW114537   3.155   6.676   0.423 -2.8972 -1.1917  3.1340
 4724SOL    HW214538   3.271   6.580   0.443 -1.3971  0.4978  2.8019
 4725SOL     OW14539   5.173   6.510   6.241  0.0991  0.3704  0.2711
 4725SOL    HW114540   5.180   6.445   6.311 -1.6060 -0.8242 -0.6058
 4725SOL    HW214541   5.080   6.531   6.237  0.3616  1.4503 -0.7416
 4726SOL     OW14542   1.844   4.823   4.132  0.6995 -0.1594  0.4555
 4726SOL    HW114543   1.842   4.737   4.174  0.1648 -1.0022 -1.1818
 4726SOL    HW214544   1.789   4.812   4.054 -2.5063  2.7117  2.0335
 4727SOL     OW14545   3.736   2.063   1.301 -0.3243 -0.2275  0.3261
 4727SOL    HW114546   3.779   1.986   1.263  0.0688  0.7507 -1.3233
 4727SOL    HW214547   3.804   2.107   1.351  0.1287  0.3183 -0.7390
 4728SOL     OW14548   1.790   0.909   4.523 -0.0548  0.2282  0.0502
 4728SOL    HW114549   1.869   0.855   4.527  0.2662  0.4946 -1.8710
 4728SOL    HW214550   1.777   0.926   4.430 -1.8014  1.0654  0.4047
 4729SOL     OW14551   3.929   3.611   1.678 -0.2244 -0.2602  0.6578
 4729SOL    HW114552   3.862   3.655   1.626 -0.1281 -1.2730 -0.3635
 4729SOL    HW214553   3.941   3.668   1.754 -0.2670  1.3509 -0.4741
 4730SOL     OW14554   1.094   3.783   4.638  0.5611 -0.3568 -0.9935
 4730SOL    HW114555   1.047   3.768   4.720  2.2284  1.6545  0.4318
 4730SOL    HW214556   1.150   3.706   4.628  0.5833 -0.4794 -0.0421
 4731SOL     OW14557   6.032   0.186   1.472 -0.1159  0.0526  0.2629
 4731SOL    HW114558   5.962   0.234   1.427  1.0917  2.1208  0.4571
 4731SOL    HW214559   6.033   0.222   1.560  2.0129  1.0709 -0.1134
 4732SOL     OW14560   5.273   3.645   5.792 -0.5437 -0.1361  0.8115
 4732SOL    HW114561   5.233   3.731   5.800 -2.1727 -0.7761  0.0130
 4732SOL    HW214562   5.249   3.614   5.705  1.6572 -0.6345  0.2982
 4733SOL     OW14563   3.353   1.629   0.463  0.4988  0.0057 -0.0574
 4733SOL    HW114564   3.371   1.538   0.438  1.0433  0.5544 -1.8060
 4733SOL    HW214565   3.258   1.637   0.456  0.2972 -0.7619  1.4190
 4734SOL     OW14566   3.638   0.042   3.795 -0.0007  0.2946 -0.3264
 4734SOL    HW114567   3.721  -0.003   3.778 -0.8111 -1.5233  0.2277
 4734SOL    HW214568   3.576  -0.029   3.812 -1.3026  1.6615  0.9067
 4735SOL     OW14569   2.023   4.231   5.553  0.9268  0.5964  0.1133
 4735SOL    HW114570   1.995   4.185   5.474 -2.9526  0.8571  1.1585
 4735SOL    HW214571   1.978   4.186   5.624  2.4572  1.8228  1.9623
 4736SOL     OW14572   6.756   3.580   3.797 -0.0402 -0.1566  0.0312
 4736SOL    HW114573   6.681   3.611   3.849  0.1205  1.5398 -0.7119
 4736SOL    HW214574   6.716   3.538   3.720 -0.2425 -1.4695  0.8083
 4737SOL     OW14575   6.275   4.069   4.356 -0.4611  0.0009 -0.0913
 4737SOL    HW114576   6.341   4.041   4.420 -0.2403  2.5014  0.8898
 4737SOL    HW214577   6.322   4.073   4.273  0.8794  2.2792  0.6872
 4738SOL     OW14578   0.075   4.498   6.506 -0.2542  0.2503 -0.0950
 4738SOL    HW114579   0.068   4.587   6.540 -2.1015  0.4755 -0.9431
 4738SOL    HW214580   0.011   4.448   6.556  1.4407 -0.8857  1.0569
 4739SOL     OW14581   6.747   2.851   1.742 -0.3132 -0.6557 -0.9225
 4739SOL    HW114582   6.722   2.839   1.651  0.6529 -0.3574 -1.2461
 4739SOL    HW214583   6.697   2.927   1.772  1.4314  1.0370 -2.0777
 4740SOL     OW14584   3.036   1.187   0.452 -0.0309  0.5469  0.4389
 4740SOL    HW114585   3.127   1.182   0.422 -0.1478  0.1382  0.1384
 4740SOL    HW214586   2.992   1.115   0.406  0.1219 -1.1565  2.7571
 4741SOL     OW14587   4.925   5.612   1.969 -0.0476  0.6561 -0.2107
 4741SOL    HW114588   4.837   5.615   2.006  0.1476  1.2829  0.2149
 4741SOL    HW214589   4.948   5.703   1.953  1.3136  0.7040  1.6532
 4742SOL     OW14590   2.167   3.769   3.312 -0.3153 -0.0571 -0.1065
 4742SOL    HW114591   2.245   3.721   3.284 -0.9009 -1.5445  0.6728
 4742SOL    HW214592   2.200   3.850   3.351  0.8740 -0.9052  0.6828
 4743SOL     OW14593   5.026   5.335   2.796  0.2580 -0.2344 -0.6325
 4743SOL    HW114594   5.002   5.426   2.811  0.5834 -0.4298  1.2558
 4743SOL    HW214595   4.986   5.287   2.868  1.7603 -1.3013 -0.4597
 4744SOL     OW14596   3.738   0.064   0.077  0.1004 -0.1189 -0.9633
 4744SOL    HW114597   3.647   0.092   0.063 -1.1955 -3.4413 -0.0872
 4744SOL    HW214598   3.781   0.078  -0.008 -1.7436 -0.1947 -1.9611
 4745SOL     OW14599   3.327   3.706   2.622 -0.4537  0.0175 -0.2827
 4745SOL    HW114600   3.333   3.652   2.543  1.1518  1.0659 -0.9311
 4745SOL    HW214601   3.356   3.793   2.594  0.8131  0.2625  1.5940
 4746SOL     OW14602   1.442   0.543   3.727 -0.0975 -0.2166  0.3744
 4746SOL    HW114603   1.524   0.592   3.718 -0.2882  0.5205  2.2396
 4746SOL    HW214604   1.470   0.454   3.751  0.1770 -0.2564 -0.0854
 4747SOL     OW14605   1.540   6.631   0.534 -0.7325  0.2482 -0.2617
 4747SOL    HW114606   1.495   6.551   0.560 -2.3598  0.7191 -1.4679
 4747SOL    HW214607   1.614   6.602   0.481 -1.0456 -0.4579 -0.3120
 4748SOL     OW14608   2.432   3.944   2.857  0.1124 -0.2624  0.2291
 4748SOL    HW114609   2.413   4.031   2.821  0.7672 -1.3207 -3.0251
 4748SOL    HW214610   2.347   3.900   2.860  0.2064 -0.6295 -1.5625
 4749SOL     OW14611   4.172   0.342   6.540 -0.7141  0.2971 -0.1497
 4749SOL    HW114612   4.118   0.417   6.566  0.5127  0.9313  0.7351
 4749SOL    HW214613   4.179   0.349   6.445 -1.4734  0.6998 -0.1792
 4750SOL     OW14614   4.843   0.679   3.338 -0.6177 -0.0218  0.0029
 4750SOL    HW114615   4.938   0.680   3.344 -0.6497 -1.4536  1.2978
 4750SOL    HW214616   4.820   0.587   3.327 -1.8211  0.4127 -1.5026
 4751SOL     OW14617   6.730   3.830   1.518  0.6075 -0.5760 -0.1122
 4751SOL    HW114618   6.808   3.829   1.464  1.6041 -0.8265  1.2799
 4751SOL    HW214619   6.693   3.918   1.508  2.0887  0.1547  0.6143
 4752SOL     OW14620   6.317   5.269   4.786 -0.3548 -0.1600 -0.3454
 4752SOL    HW114621   6.245   5.256   4.848  0.0699  0.5940  0.3151
 4752SOL    HW214622   6.370   5.339   4.824  0.6269 -0.5644 -0.9154
 4753SOL     OW14623   4.403   0.087   5.193 -0.4497 -0.3214  0.0597
 4753SOL    HW114624   4.422   0.014   5.251  1.1954 -0.8118 -1.0229
 4753SOL    HW214625   4.337   0.139   5.239  0.7907 -0.6738  2.3233
 4754SOL     OW14626   5.559   5.963   2.812 -0.0938  0.2528 -0.2355
 4754SOL    HW114627   5.560   5.904   2.887 -0.2110  0.2570 -0.2313
 4754SOL    HW214628   5.637   6.017   2.824 -0.1253  0.2701 -0.1042
 4755SOL     OW14629   2.886   0.123   1.754  0.2538  0.1344  0.5184
 4755SOL    HW114630   2.900   0.175   1.676 -1.5680  1.3669  0.9334
 4755SOL    HW214631   2.806   0.073   1.736  0.0328  0.1318  1.4176
 4756SOL     OW14632   5.876   1.083   3.585  0.1570  0.2848  0.2643
 4756SOL    HW114633   5.879   1.162   3.640 -2.1056  0.4369  0.2443
 4756SOL    HW214634   5.854   1.116   3.498  0.8472 -0.2382 -0.1170
 4757SOL     OW14635   5.891   6.227   5.329 -0.2092  0.5053  0.3979
 4757SOL    HW114636   5.875   6.133   5.320 -0.5134  0.5606  0.3706
 4757SOL    HW214637   5.930   6.252   5.245  0.0499  0.3664  0.4754
 4758SOL     OW14638   3.691   2.261   0.749  0.3615 -0.4368 -0.5006
 4758SOL    HW114639   3.637   2.187   0.721  0.4190 -0.9258  0.6020
 4758SOL    HW214640   3.712   2.308   0.668 -2.7641  0.5410 -0.8559
 4759SOL     OW14641   5.265   6.504   0.794  0.2186 -0.0703  0.5427
 4759SOL    HW114642   5.283   6.476   0.884  1.3817 -0.3071  0.2457
 4759SOL    HW214643   5.347   6.489   0.747 -0.9217 -1.8367 -1.0311
 4760SOL     OW14644   2.869   5.191   1.819 -0.4546  0.2458 -0.5171
 4760SOL    HW114645   2.963   5.185   1.836 -0.0133  1.5796 -2.2003
 4760SOL    HW214646   2.831   5.222   1.902  0.6705  0.2479  0.0090
 4761SOL     OW14647   2.943   6.752   2.817  0.8930 -0.2409  0.1519
 4761SOL    HW114648   2.892   6.692   2.762 -0.3299  0.2575  0.7044
 4761SOL    HW214649   2.965   6.701   2.895 -0.8400  0.2224  0.9879
 4762SOL     OW14650   3.014   3.038   5.994  0.0901 -0.2844  0.2906
 4762SOL    HW114651   3.035   3.044   5.901 -1.1442 -0.9268 -0.0526
 4762SOL    HW214652   2.998   3.128   6.021  1.5019  0.0230  0.1540
 4763SOL     OW14653   0.005   2.688   3.941 -0.3821 -0.0563 -0.2550
 4763SOL    HW114654  -0.074   2.639   3.965 -1.4235  2.0428  0.9839
 4763SOL    HW214655  -0.029   2.770   3.905  1.2538  0.4640 -0.6741
 4764SOL     OW14656   1.037   0.202   0.084  0.0407 -0.1193 -0.7447
 4764SOL    HW114657   1.053   0.220  -0.008  0.6314  1.6052 -0.3449
 4764SOL    HW214658   1.051   0.108   0.093  0.9001 -0.1622 -2.2280
 4765SOL     OW14659   0.627   2.755   0.130  0.3600 -0.0945 -0.1799
 4765SOL    HW114660   0.705   2.804   0.105  0.3068  1.5795  2.5450
 4765SOL    HW214661   0.556   2.820   0.125 -0.1796 -0.5724  0.9570
 4766SOL     OW14662   3.887   0.813   4.036 -0.0948 -0.5067  0.5336
 4766SOL    HW114663   3.973   0.855   4.036  0.1615 -1.0300  0.5149
 4766SOL    HW214664   3.844   0.847   4.114 -0.1213  0.2679  0.1862
 4767SOL     OW14665   2.934   3.314   6.367  0.2670 -0.2144 -0.1877
 4767SOL    HW114666   2.936   3.405   6.395  2.6869  0.0374 -0.9382
 4767SOL    HW214667   2.940   3.263   6.448  0.7353  0.3361  0.1297
 4768SOL     OW14668   2.472   0.957   1.878 -0.6350 -0.1450  0.0754
 4768SOL    HW114669   2.464   0.870   1.918  2.5582 -0.0718  1.1623
 4768SOL    HW214670   2.446   0.943   1.787 -1.5114 -1.9105  0.5398
 4769SOL     OW14671   4.730   4.543   3.470 -0.5036 -0.1083 -0.5699
 4769SOL    HW114672   4.790   4.503   3.408 -1.3677 -0.8087 -0.9654
 4769SOL    HW214673   4.647   4.496   3.459 -0.1052 -1.8457  2.6959
 4770SOL     OW14674   0.440   5.339   3.150  0.5159  0.1481 -0.3029
 4770SOL    HW114675   0.448   5.259   3.202 -0.7021  0.2727  0.1023
 4770SOL    HW214676   0.406   5.309   3.066 -0.8714  0.3114  0.1675
 4771SOL     OW14677   3.527   2.078   3.921  0.7214 -0.0608  0.1902
 4771SOL    HW114678   3.611   2.044   3.890  0.4789 -0.0737 -0.4865
 4771SOL    HW214679   3.463   2.037   3.862  0.3744  1.1582 -0.2987
 4772SOL     OW14680   5.682   1.617   5.713 -0.2220 -0.2816 -0.3073
 4772SOL    HW114681   5.670   1.710   5.734 -0.9838  0.1659 -2.4037
 4772SOL    HW214682   5.593   1.582   5.711 -0.0400 -0.7278 -0.8194
 4773SOL     OW14683   5.120   3.830   6.748 -0.2882  0.0463 -0.1222
 4773SOL    HW114684   5.201   3.780   6.738  0.3277  0.9891  0.0010
 4773SOL    HW214685   5.106   3.872   6.663 -0.9221 -0.4990 -0.2967
 4774SOL     OW14686   6.397   6.470   4.406  0.2992  0.0238  0.4273
 4774SOL    HW114687   6.475   6.426   4.370 -0.2186 -0.1126 -0.5607
 4774SOL    HW214688   6.426   6.502   4.492  0.7938 -1.9419  1.0627
 4775SOL     OW14689   3.102   3.924   1.193 -0.5931 -0.8945  0.0498
 4775SOL    HW114690   3.064   3.984   1.129 -0.2901 -2.2420 -1.4216
 4775SOL    HW214691   3.185   3.896   1.155  1.4736  1.0614  2.6568
 4776SOL     OW14692   5.276   3.221   2.499  0.2840 -0.6131  0.1607
 4776SOL    HW114693   5.211   3.279   2.459 -0.1945  0.7006  2.6373
 4776SOL    HW214694   5.339   3.203   2.429 -0.6608  1.2470 -1.2519
 4777SOL     OW14695   3.933   5.666   0.917 -0.0039 -0.0123  0.2717
 4777SOL    HW114696   3.980   5.709   0.988  0.6846 -0.5158  0.1316
 4777SOL    HW214697   3.995   5.601   0.882 -0.6989 -0.4976 -0.1007
 4778SOL     OW14698   0.231   5.365   6.561 -0.1521  0.5507  0.3600
 4778SOL    HW114699   0.294   5.371   6.489  0.4791 -1.9422  0.6221
 4778SOL    HW214700   0.147   5.389   6.521 -0.0221 -1.8269 -1.5961
 4779SOL     OW14701   5.159   6.441   0.029  0.2394 -0.0776  0.5095
 4779SOL    HW114702   5.119   6.523   0.058 -1.3684  0.1388 -1.9927
 4779SOL    HW214703   5.198   6.461  -0.057 -0.3387 -1.9158 -0.2546
 4780SOL     OW14704   3.659   1.309   2.912 -0.0459 -0.0942  0.1286
 4780SOL    HW114705   3.708   1.380   2.954 -1.5634 -0.4029  2.6751
 4780SOL    HW214706   3.607   1.352   2.844 -0.8533  1.3019  1.5390
 4781SOL     OW14707   2.029   0.361   4.792  0.2143  0.1270 -0.6527
 4781SOL    HW114708   2.001   0.351   4.701  1.1831 -0.2796 -0.9121
 4781SOL    HW214709   2.125   0.358   4.789  0.3439  2.0684  0.1529
 4782SOL     OW14710   2.904   4.277   1.028 -0.7854  0.7189 -0.4772
 4782SOL    HW114711   2.824   4.261   0.979 -0.6443 -0.9898 -0.2078
 4782SOL    HW214712   2.949   4.192   1.029 -0.7578  0.6512  2.5561
 4783SOL     OW14713   5.047   6.575   2.599  0.1309  0.4515  0.0555
 4783SOL    HW114714   5.119   6.528   2.642 -0.1337 -2.1907 -2.1570
 4783SOL    HW214715   5.062   6.562   2.506 -1.8823  1.9756 -0.5415
 4784SOL     OW14716   5.204   3.445   1.778 -0.2662 -0.0580 -0.5231
 4784SOL    HW114717   5.270   3.514   1.776  0.5934 -0.8940 -1.6441
 4784SOL    HW214718   5.121   3.492   1.791  0.3604  1.1332 -0.6960
 4785SOL     OW14719   5.808   2.144   3.310 -0.4655 -0.1493 -0.3656
 4785SOL    HW114720   5.729   2.095   3.334  0.2278 -1.4995 -0.7876
 4785SOL    HW214721   5.812   2.137   3.215  0.4350 -0.5205 -0.3061
 4786SOL     OW14722   0.689   1.976   2.756 -0.0894 -0.1166 -0.8390
 4786SOL    HW114723   0.688   1.964   2.661 -0.8975  1.2397 -1.0399
 4786SOL    HW214724   0.603   2.013   2.777  0.4308  0.5456  0.2702
 4787SOL     OW14725   2.441   4.637   2.865  0.4766  0.3908  0.3518
 4787SOL    HW114726   2.431   4.719   2.816 -0.0951  0.0204 -0.1720
 4787SOL    HW214727   2.462   4.572   2.798 -0.8439 -0.2301  0.5005
 4788SOL     OW14728   0.822   2.083   5.486 -0.1529 -0.1705  0.2935
 4788SOL    HW114729   0.914   2.080   5.463 -0.1092  2.3046 -0.1291
 4788SOL    HW214730   0.820   2.120   5.574 -0.7194 -0.7036  0.5124
 4789SOL     OW14731   0.060   1.295   4.708 -0.2127 -0.1405 -0.4821
 4789SOL    HW114732  -0.001   1.257   4.771  1.1787 -0.2028  0.8687
 4789SOL    HW214733   0.143   1.302   4.755  0.3322  1.8458 -1.6149
 4790SOL     OW14734   2.650   0.141   0.126 -0.0615  0.1896 -0.0345
 4790SOL    HW114735   2.727   0.104   0.168  0.1471  1.2186  0.5308
 4790SOL    HW214736   2.653   0.234   0.147 -0.6406  0.5245 -1.2904
 4791SOL     OW14737   0.873   4.096   6.732  0.0671  0.1155  0.0665
 4791SOL    HW114738   0.799   4.062   6.682  0.2145 -0.2933  0.1262
 4791SOL    HW214739   0.847   4.185   6.756  0.6272  0.9501 -2.1049
 4792SOL     OW14740   5.589   3.689   1.720  0.1047  0.0200  0.0109
 4792SOL    HW114741   5.591   3.634   1.642 -0.2247  0.0828 -0.0415
 4792SOL    HW214742   5.677   3.679   1.758 -0.2981 -1.4362  0.6242
 4793SOL     OW14743   1.896   4.192   1.589 -0.1864  0.0379 -0.4180
 4793SOL    HW114744   1.822   4.247   1.616 -1.0064 -1.0772 -0.2937
 4793SOL    HW214745   1.959   4.199   1.661  0.3064  1.8044 -0.9849
 4794SOL     OW14746   3.156   1.195   1.151 -0.1255  0.0171  0.0290
 4794SOL    HW114747   3.239   1.166   1.190  1.7816  0.2939 -3.4127
 4794SOL    HW214748   3.126   1.119   1.101 -0.6609  0.6745 -0.6597
 4795SOL     OW14749   3.966   3.172   5.893 -0.0273 -0.2775  0.3664
 4795SOL    HW114750   3.999   3.111   5.827 -1.0403  0.7794 -1.1858
 4795SOL    HW214751   3.918   3.116   5.955  1.9212 -1.4272  0.9391
 4796SOL     OW14752   0.164   5.126   3.579  0.4033  0.3694  0.7375
 4796SOL    HW114753   0.215   5.195   3.622  0.6793  0.5005  0.2108
 4796SOL    HW214754   0.125   5.170   3.503  0.3617  0.0115  0.5539
 4797SOL     OW14755   0.865   1.327   0.467  0.0199 -0.0668  0.2510
 4797SOL    HW114756   0.826   1.361   0.387 -0.9360 -0.6193  0.4689
 4797SOL    HW214757   0.916   1.251   0.438 -0.1672 -0.1491  0.1335
 4798SOL     OW14758   6.506   3.871   2.530 -0.1965 -0.0041  0.7198
 4798SOL    HW114759   6.583   3.888   2.585  0.3082 -1.1864  0.4047
 4798SOL    HW214760   6.434   3.911   2.578  0.6527  1.5374  0.8091
 4799SOL     OW14761   4.040   2.969   5.722  0.3956 -0.1073 -0.7498
 4799SOL    HW114762   4.056   3.025   5.646  2.1157 -0.1282 -0.4431
 4799SOL    HW214763   4.124   2.925   5.737 -0.3712 -1.3094  0.2031
 4800SOL     OW14764   3.994   5.039   4.862  0.0292  0.1525 -0.0310
 4800SOL    HW114765   3.948   5.081   4.935 -0.2022 -1.0548  0.5362
 4800SOL    HW214766   4.037   4.963   4.901  1.3317  0.4470 -0.8350
 4801SOL     OW14767   1.396   2.944   5.179 -0.1076  0.3630 -0.6145
 4801SOL    HW114768   1.419   2.989   5.260  1.0390 -1.9657  0.4450
 4801SOL    HW214769   1.458   2.978   5.115  0.2820  0.7969 -0.0204
 4802SOL     OW14770   1.141   2.730   5.771 -0.3772  0.0440  0.3783
 4802SOL    HW114771   1.155   2.717   5.865 -0.3216  0.7315  0.4737
 4802SOL    HW214772   1.221   2.772   5.741 -0.0700 -0.8988 -0.1382
 4803SOL     OW14773   1.991   0.002   2.053 -0.0961  0.9140 -0.0467
 4803SOL    HW114774   1.960   0.005   2.143  0.0705 -2.0636  0.2011
 4803SOL    HW214775   1.990  -0.090   2.030  3.3358  1.1653 -1.8781
 4804SOL     OW14776   1.275   0.766   1.551 -0.3656 -0.4344  0.2391
 4804SOL    HW114777   1.203   0.796   1.606 -0.7380 -1.1622  0.1559
 4804SOL    HW214778   1.354   0.799   1.594 -0.7993  2.2457 -0.7987
 4805SOL     OW14779   1.952   6.392   3.314 -0.0747 -0.2161 -0.3346
 4805SOL    HW114780   2.041   6.411   3.344  0.2812  1.0676 -2.0498
 4805SOL    HW214781   1.916   6.478   3.290 -1.7758 -0.7182  0.2859
 4806SOL     OW14782   5.223   3.178   3.302 -0.5037  0.4437  0.0214
 4806SOL    HW114783   5.168   3.255   3.285  0.1144  0.8243 -0.3285
 4806SOL    HW214784   5.193   3.112   3.240 -0.8520  0.5016  0.1294
 4807SOL     OW14785   2.509   3.992   3.276 -0.2280 -0.1366  0.2368
 4807SOL    HW114786   2.420   4.009   3.306  0.7733  0.9348  2.9158
 4807SOL    HW214787   2.536   4.074   3.235 -0.7177 -0.7479 -1.3743
 4808SOL     OW14788   4.059   6.128   4.300 -0.3998 -0.6169  0.1246
 4808SOL    HW114789   4.095   6.047   4.265 -0.0685 -0.4237  0.0090
 4808SOL    HW214790   4.109   6.197   4.257 -0.9044 -0.3403 -0.0261
 4809SOL     OW14791   3.708   5.427   6.100 -0.5777 -0.0132 -0.5818
 4809SOL    HW114792   3.652   5.504   6.086  0.1445  0.5358 -0.5055
 4809SOL    HW214793   3.772   5.455   6.165 -0.0842 -0.5628 -0.8177
 4810SOL     OW14794   5.291   2.734   2.815  0.1667 -0.4251 -0.1549
 4810SOL    HW114795   5.248   2.654   2.844 -1.1603  0.2875 -0.0637
 4810SOL    HW214796   5.247   2.804   2.864  1.0496  0.3947 -0.4903
 4811SOL     OW14797   4.495   5.321   2.007  0.2124  0.2784  0.4939
 4811SOL    HW114798   4.402   5.310   2.027  0.0358 -2.1096 -1.1948
 4811SOL    HW214799   4.539   5.316   2.092 -1.0494 -0.9453  1.1164
 4812SOL     OW14800   1.997   3.440   0.607 -0.0025  0.0439 -0.0120
 4812SOL    HW114801   2.051   3.408   0.534  1.0435  0.1216  0.7081
 4812SOL    HW214802   2.056   3.494   0.659 -0.6604 -0.2307  1.0517
 4813SOL     OW14803   0.220   5.872   5.764 -0.1780  0.4927  0.2385
 4813SOL    HW114804   0.213   5.919   5.682  3.8560 -0.2301 -0.7420
 4813SOL    HW214805   0.211   5.780   5.740  0.4028  0.3096  0.6877
 4814SOL     OW14806   3.492   1.630   3.901  0.6563 -0.1637 -0.4297
 4814SOL    HW114807   3.513   1.579   3.823  1.6551  1.0410 -0.9818
 4814SOL    HW214808   3.558   1.698   3.904  0.5944 -0.1307  1.4512
 4815SOL     OW14809   6.300   1.955   4.036  0.5187 -0.0601  0.4999
 4815SOL    HW114810   6.236   1.982   3.971 -0.2696  0.3043  1.4143
 4815SOL    HW214811   6.261   1.877   4.077  1.1258 -0.4392  0.3793
 4816SOL     OW14812   5.020   6.555   5.954  0.6684 -0.1128 -0.0030
 4816SOL    HW114813   5.026   6.468   5.993  0.6054  0.1270  0.5531
 4816SOL    HW214814   4.935   6.588   5.984  0.0708 -0.3851 -1.3158
 4817SOL     OW14815   3.161   6.388   3.983  0.5352  0.0201  0.4249
 4817SOL    HW114816   3.112   6.459   3.940  0.2899 -0.4535 -0.0838
 4817SOL    HW214817   3.095   6.341   4.033  0.7666  0.3764  1.0812
 4818SOL     OW14818   2.353   2.678   0.439 -0.2917  0.2966  0.7100
 4818SOL    HW114819   2.446   2.666   0.421 -0.1591 -0.6800  1.9482
 4818SOL    HW214820   2.319   2.590   0.453 -1.0551  0.7455  1.8305
 4819SOL     OW14821   5.216   0.205   3.219  0.1549 -0.4825  0.6711
 4819SOL    HW114822   5.169   0.166   3.146 -0.5529  0.4979  0.5858
 4819SOL    HW214823   5.191   0.298   3.217 -0.8798 -0.6438  2.8850
 4820SOL     OW14824   1.617   1.936   4.134  0.2597  0.3632  0.0585
 4820SOL    HW114825   1.685   1.926   4.067  0.5163 -0.8498  0.4767
 4820SOL    HW214826   1.642   1.874   4.202 -2.0014 -1.1390 -0.3797
 4821SOL     OW14827   1.071   6.486   3.553  0.3346  0.0387  0.3256
 4821SOL    HW114828   1.081   6.575   3.521 -1.2270 -0.0894 -0.5883
 4821SOL    HW214829   1.139   6.436   3.508 -0.6928  0.2157 -1.5035
 4822SOL     OW14830   4.135   1.038   2.373  0.4391 -0.3622  0.1086
 4822SOL    HW114831   4.074   0.980   2.328  2.7774 -2.0293 -1.1878
 4822SOL    HW214832   4.132   1.010   2.465 -2.5598  1.3931  0.6643
 4823SOL     OW14833   6.642   1.007   2.842 -0.3697  0.9987 -0.1927
 4823SOL    HW114834   6.697   1.080   2.813  0.4352  0.0616 -1.1219
 4823SOL    HW214835   6.562   1.014   2.790 -0.2607  1.1711 -0.3378
 4824SOL     OW14836   2.821   6.393   2.358  0.5122  0.2287  0.7896
 4824SOL    HW114837   2.848   6.483   2.373  0.6480  0.3226  0.0022
 4824SOL    HW214838   2.837   6.378   2.265  0.5982 -0.6402  0.9344
 4825SOL     OW14839   6.094   0.879   0.260 -0.2563  0.0833  0.4148
 4825SOL    HW114840   6.131   0.863   0.347 -1.2257  3.2952  1.5803
 4825SOL    HW214841   6.002   0.854   0.268 -0.0427 -0.9600 -0.1857
 4826SOL     OW14842   4.345   4.935   5.778  0.5868 -0.3864 -0.0548
 4826SOL    HW114843   4.285   4.869   5.812 -0.4705  1.1891  1.3015
 4826SOL    HW214844   4.402   4.887   5.718 -1.2590 -2.1696 -0.5021
 4827SOL     OW14845   2.540   1.589   6.078  0.0779  0.1706  0.5478
 4827SOL    HW114846   2.574   1.554   6.160 -0.9542 -0.6619  0.6404
 4827SOL    HW214847   2.467   1.645   6.104 -1.2483 -1.3030  0.1437
 4828SOL     OW14848   3.754   2.445   1.422 -0.2293 -0.6404 -0.1698
 4828SOL    HW114849   3.689   2.473   1.358  1.4658  0.4706 -1.5101
 4828SOL    HW214850   3.837   2.446   1.374  0.8321 -1.7100  1.5341
 4829SOL     OW14851   5.706   3.284   6.738 -0.4698 -0.0617 -0.7964
 4829SOL    HW114852   5.732   3.327   6.820 -0.1590 -1.7709  0.0470
 4829SOL    HW214853   5.676   3.355   6.682  0.5001  1.3013  0.3432
 4830SOL     OW14854   6.076   5.675   5.576 -0.2928  0.4763  0.0149
 4830SOL    HW114855   6.024   5.717   5.644 -0.2015  0.4362  0.1115
 4830SOL    HW214856   6.044   5.712   5.494 -0.0820  0.8764  0.1098
 4831SOL     OW14857   5.146   0.555   1.716 -0.3106 -0.1904 -0.3667
 4831SOL    HW114858   5.058   0.547   1.753 -0.8040  1.9479 -0.9261
 4831SOL    HW214859   5.189   0.472   1.737 -1.9600 -0.7029  1.2241
 4832SOL     OW14860   5.935   0.550   6.734  0.7712  0.2659 -0.0525
 4832SOL    HW114861   5.906   0.579   6.648  1.1787  0.4448 -0.1333
 4832SOL    HW214862   5.975   0.464   6.718  2.2793  0.9884 -0.3134
 4833SOL     OW14863   4.494   2.825   6.517 -0.2267 -0.2515  0.0058
 4833SOL    HW114864   4.539   2.782   6.589  1.0054  0.1246 -0.5139
 4833SOL    HW214865   4.465   2.754   6.461 -0.4072 -0.5036  0.4110
 4834SOL     OW14866   6.433   0.344   2.740 -0.3862 -0.1028  0.4203
 4834SOL    HW114867   6.337   0.341   2.744 -0.4026  1.1114  1.6617
 4834SOL    HW214868   6.453   0.325   2.648 -1.9423  1.6370 -0.3658
 4835SOL     OW14869   0.551   0.088   1.227  0.3386  0.4515  0.0245
 4835SOL    HW114870   0.465   0.123   1.246 -1.2306 -3.1672  0.4196
 4835SOL    HW214871   0.553   0.079   1.131 -0.6524 -1.3038  0.1190
 4836SOL     OW14872   4.220   3.351   4.963 -0.7106 -0.1432 -0.5371
 4836SOL    HW114873   4.271   3.432   4.975 -2.7255  1.6545 -3.0854
 4836SOL    HW214874   4.234   3.327   4.871 -1.0099 -2.1584 -0.1069
 4837SOL     OW14875   1.721   5.811   4.731 -0.1290 -0.0675 -0.7588
 4837SOL    HW114876   1.762   5.820   4.817  0.4996  1.4279 -1.1732
 4837SOL    HW214877   1.627   5.817   4.748  0.0393  2.6594 -0.3618
 4838SOL     OW14878   0.074   3.262   3.805  0.3180 -0.1544 -0.0011
 4838SOL    HW114879   0.045   3.253   3.896 -1.1562 -0.1404 -0.4466
 4838SOL    HW214880  -0.001   3.236   3.753  1.4121 -0.9464 -1.2381
 4839SOL     OW14881   2.762   3.881   5.210  0.4134 -0.0346 -0.5249
 4839SOL    HW114882   2.848   3.920   5.222 -0.1588  1.4703 -0.9633
 4839SOL    HW214883   2.753   3.819   5.282  0.3596  2.5924  1.9117
 4840SOL     OW14884   6.613   2.124   3.219 -0.3981  0.8791 -0.3448
 4840SOL    HW114885   6.525   2.089   3.202 -0.1644  0.8554 -1.5456
 4840SOL    HW214886   6.641   2.077   3.298 -1.5862  1.1331  0.2620
 4841SOL     OW14887   3.213   2.003   0.717  0.1490  0.4171 -0.2572
 4841SOL    HW114888   3.294   1.955   0.702  0.0989  0.6989 -1.4882
 4841SOL    HW214889   3.191   1.985   0.809  1.3058 -0.0989 -0.0701
 4842SOL     OW14890   2.524   3.540   3.880 -0.2797  0.1755  1.0100
 4842SOL    HW114891   2.520   3.559   3.974  1.3959  0.1555  1.1193
 4842SOL    HW214892   2.519   3.444   3.876  1.0039  0.0795  1.2104
 4843SOL     OW14893   5.890   2.639   3.315 -0.9240  0.2435  0.3331
 4843SOL    HW114894   5.869   2.719   3.362 -0.7168 -0.0722  0.9662
 4843SOL    HW214895   5.972   2.609   3.354 -0.3727  0.3598 -0.7055
 4844SOL     OW14896   2.456   4.676   6.688  0.0500 -0.1123  0.1951
 4844SOL    HW114897   2.516   4.714   6.753  0.3729 -0.4590  0.1073
 4844SOL    HW214898   2.396   4.747   6.666  0.3181  0.1885  0.4208
 4845SOL     OW14899   6.422   0.001   2.424 -0.5235  0.8968 -0.2298
 4845SOL    HW114900   6.496   0.036   2.373 -0.4566  1.4159  0.2209
 4845SOL    HW214901   6.346   0.019   2.369 -0.3110  0.2804 -0.7390
 4846SOL     OW14902   4.565   1.705   2.732 -0.0126 -0.3033 -0.0043
 4846SOL    HW114903   4.641   1.750   2.768  0.2324 -0.0999 -0.7628
 4846SOL    HW214904   4.599   1.652   2.661 -0.6170  0.0433 -0.5711
 4847SOL     OW14905   4.290   1.173   6.733  0.0814 -0.2174 -0.3116
 4847SOL    HW114906   4.301   1.212   6.647  1.6421  1.6716  0.6520
 4847SOL    HW214907   4.223   1.227   6.775  0.7502  0.1544  0.3103
 4848SOL     OW14908   2.236   0.123   2.226 -0.0625  0.0769  0.4570
 4848SOL    HW114909   2.155   0.100   2.180 -0.6265  0.5424  1.1972
 4848SOL    HW214910   2.277   0.038   2.245 -0.5245 -0.1734  0.3477
 4849SOL     OW14911   2.402   4.541   6.064 -0.3783  0.6571 -0.1380
 4849SOL    HW114912   2.467   4.502   6.006 -2.2950 -2.0176 -0.6654
 4849SOL    HW214913   2.447   4.549   6.149  0.6177 -1.2978 -0.4330
 4850SOL     OW14914   2.888   0.961   0.319 -0.0800  0.3072 -0.5930
 4850SOL    HW114915   2.948   0.890   0.342 -0.0573  0.6341  0.3759
 4850SOL    HW214916   2.871   0.949   0.225 -1.9535 -2.3826 -0.0085
 4851SOL     OW14917   3.261   0.059   4.466 -0.2347  0.0290 -0.3371
 4851SOL    HW114918   3.279   0.052   4.560 -2.2173 -0.7164  0.0276
 4851SOL    HW214919   3.275  -0.030   4.433  2.3267  0.6473 -1.1867
 4852SOL     OW14920   3.024   2.227   6.658 -0.2530 -0.4256 -0.0069
 4852SOL    HW114921   3.109   2.269   6.655  0.6094 -1.9433  1.5657
 4852SOL    HW214922   2.999   2.228   6.750 -0.5266 -2.5999  0.0034
 4853SOL     OW14923   3.438   6.610   0.143 -0.2048  0.3580  1.2030
 4853SOL    HW114924   3.488   6.663   0.204 -1.3944  0.6905  1.9267
 4853SOL    HW214925   3.357   6.659   0.129  0.4081  0.7968 -1.4583
 4854SOL     OW14926   4.370   0.130   4.339  0.5405  0.2881  0.1129
 4854SOL    HW114927   4.300   0.085   4.292 -0.9604  1.9965  0.6319
 4854SOL    HW214928   4.354   0.110   4.431  1.4187 -0.2077  0.1735
 4855SOL     OW14929   0.415   5.548   1.400 -0.1794  0.0905  0.1226
 4855SOL    HW114930   0.489   5.608   1.400  0.9450 -1.2358  0.9854
 4855SOL    HW214931   0.348   5.592   1.348  0.9047  1.6926  0.0271
 4856SOL     OW14932   2.573   5.791   4.704  0.1584  0.4075 -0.4444
 4856SOL    HW114933   2.532   5.704   4.709 -1.2436  1.0205 -0.7200
 4856SOL    HW214934   2.626   5.788   4.625  0.3808 -0.2902 -0.2848
 4857SOL     OW14935   2.311   0.002   1.724  0.4827 -0.6239  0.1320
 4857SOL    HW114936   2.222  -0.034   1.721  0.3096 -0.2802  0.8994
 4857SOL    HW214937   2.299   0.096   1.707  0.7308 -0.6272 -0.0583
 4858SOL     OW14938   4.609   1.937   3.331  0.1468  0.0613 -0.2092
 4858SOL    HW114939   4.651   1.904   3.410  1.1192  1.7087  0.0118
 4858SOL    HW214940   4.670   1.917   3.260 -0.5427 -1.0548 -0.5228
 4859SOL     OW14941   3.777   4.704   6.086 -0.3816  0.2702 -0.0047
 4859SOL    HW114942   3.838   4.778   6.081 -1.4219  1.1817  0.3249
 4859SOL    HW214943   3.778   4.679   6.178 -0.9999  0.7390  0.1379
 4860SOL     OW14944   3.674   2.806   4.905 -0.2183 -0.0298 -0.1340
 4860SOL    HW114945   3.718   2.842   4.982  0.0012 -0.2962 -0.1337
 4860SOL    HW214946   3.647   2.718   4.931 -0.4511  0.0073 -0.2458
 4861SOL     OW14947   5.351   4.286   5.062 -0.3853 -0.3674  0.1811
 4861SOL    HW114948   5.323   4.347   5.129 -0.5899  1.2280 -1.3084
 4861SOL    HW214949   5.422   4.237   5.103 -1.7854 -0.8222  2.1962
 4862SOL     OW14950   4.670   1.758   2.357 -0.4121  0.3991 -0.1785
 4862SOL    HW114951   4.758   1.795   2.346  0.3425 -1.0366  0.6629
 4862SOL    HW214952   4.671   1.678   2.305 -1.1629  0.2741 -0.0064
 4863SOL     OW14953   0.262   2.103   1.479 -0.8840 -0.2663  0.4930
 4863SOL    HW114954   0.270   2.191   1.441 -0.9228  0.0644  1.2355
 4863SOL    HW214955   0.258   2.118   1.573 -0.5224 -1.0992  0.6440
 4864SOL     OW14956   6.614   0.227   5.301 -0.2851 -0.0641  0.3976
 4864SOL    HW114957   6.650   0.185   5.380 -0.3795  0.4978  0.7473
 4864SOL    HW214958   6.637   0.320   5.311 -0.2310 -0.0002 -0.2801
 4865SOL     OW14959   5.419   6.660   3.100 -0.0080  0.1057 -0.0793
 4865SOL    HW114960   5.361   6.595   3.140 -0.2364  1.1665  1.4161
 4865SOL    HW214961   5.435   6.627   3.012 -0.7882 -1.5362  0.3464
 4866SOL     OW14962   3.807   2.030   3.878  0.9408 -0.5346  0.2879
 4866SOL    HW114963   3.805   2.075   3.793 -1.2458  0.9884  1.0380
 4866SOL    HW214964   3.887   2.061   3.920  1.8105 -0.9459 -1.0174
 4867SOL     OW14965   1.945   6.257   5.740  0.1097  0.1348 -0.3864
 4867SOL    HW114966   1.999   6.289   5.812 -0.9163 -1.5387  1.2310
 4867SOL    HW214967   1.916   6.335   5.694 -0.0859  1.3649  1.6965
 4868SOL     OW14968   5.138   3.872   0.240 -0.4103 -0.2420  0.0976
 4868SOL    HW114969   5.088   3.953   0.246 -1.0422 -0.6145 -0.0111
 4868SOL    HW214970   5.135   3.849   0.147  2.6753  1.3802 -0.5570
 4869SOL     OW14971   0.008   2.244   5.366  0.1102 -0.4182 -0.4628
 4869SOL    HW114972  -0.068   2.190   5.344 -0.9616  0.2600  1.3389
 4869SOL    HW214973   0.036   2.281   5.283 -0.5375 -1.9364 -1.4040
 4870SOL     OW14974   6.184   2.288   1.813  0.2446  0.5940  0.3946
 4870SOL    HW114975   6.209   2.260   1.724  0.4149 -0.6898  0.8158
 4870SOL    HW214976   6.107   2.344   1.800  1.2215  1.7524 -0.6686
 4871SOL     OW14977   2.761   5.193   1.452  0.0422  0.6604  0.7181
 4871SOL    HW114978   2.682   5.245   1.468 -0.0155  0.1956  2.1356
 4871SOL    HW214979   2.751   5.117   1.509 -0.4021 -1.5458 -2.0757
 4872SOL     OW14980   3.374   2.087   2.018 -0.0763 -0.1832 -0.6977
 4872SOL    HW114981   3.395   2.131   1.936  0.3573 -0.9538 -1.0096
 4872SOL    HW214982   3.312   2.018   1.993  0.1834 -0.5255 -0.4064
 4873SOL     OW14983   6.374   3.383   3.026  0.0613  0.0855  0.1539
 4873SOL    HW114984   6.371   3.288   3.016  1.3622  0.0177  0.1321
 4873SOL    HW214985   6.284   3.412   3.017 -0.1503 -0.9917 -1.4910
 4874SOL     OW14986   2.053   1.759   4.288 -1.2781  0.4060 -0.4712
 4874SOL    HW114987   1.991   1.765   4.215 -1.0074 -0.6829 -0.8037
 4874SOL    HW214988   2.013   1.696   4.348 -2.1341  2.2375  0.9982
 4875SOL     OW14989   2.221   3.248   1.219 -0.2071 -0.3878  0.0629
 4875SOL    HW114990   2.163   3.252   1.295  0.0437 -0.0629  0.2450
 4875SOL    HW214991   2.173   3.293   1.150  0.5272  1.5220  0.7078
 4876SOL     OW14992   1.437   6.695   2.100 -0.1400 -0.5214 -0.1447
 4876SOL    HW114993   1.494   6.618   2.107 -0.5803 -0.8884 -0.5263
 4876SOL    HW214994   1.350   6.661   2.120 -0.2815 -0.0414  0.0539
 4877SOL     OW14995   3.855   2.047   2.968 -0.0269 -0.1091  0.5705
 4877SOL    HW114996   3.892   1.959   2.956  0.4932  0.1939 -0.1524
 4877SOL    HW214997   3.802   2.041   3.047 -0.9576 -1.3778 -0.1218
 4878SOL     OW14998   2.914   6.404   3.380  0.5386  0.0817  0.6470
 4878SOL    HW114999   2.911   6.311   3.360 -0.6275  0.3802 -0.7658
 4878SOL    HW215000   2.841   6.419   3.440  0.2855  0.1971  0.3130
 4879SOL     OW15001   4.469   1.604   3.642  0.1563  0.2321 -0.0289
 4879SOL    HW115002   4.556   1.564   3.634  0.5300  0.8292  0.8470
 4879SOL    HW215003   4.486   1.688   3.685 -0.9771 -0.1424  1.2077
 4880SOL     OW15004   3.303   3.853   1.996  0.1911  0.3399  0.1498
 4880SOL    HW115005   3.287   3.947   2.007 -0.0741  0.1051  2.1725
 4880SOL    HW215006   3.218   3.816   1.974  0.2590  0.5379 -0.4588
 4881SOL     OW15007   1.068   3.179   0.858  0.9758 -0.1879 -0.0321
 4881SOL    HW115008   1.084   3.108   0.920  3.2943 -1.0523 -1.4973
 4881SOL    HW215009   1.091   3.259   0.905 -0.9304 -0.3994  1.3822
 4882SOL     OW15010   1.659   3.203   3.581  0.0423 -0.1049  0.1299
 4882SOL    HW115011   1.692   3.218   3.493  0.7076  0.8650  0.5356
 4882SOL    HW215012   1.599   3.128   3.571 -1.0285  0.9014 -1.3943
 4883SOL     OW15013   1.542   6.594   3.455 -0.2392  0.1802 -0.2492
 4883SOL    HW115014   1.621   6.636   3.488 -0.4193 -0.4734  1.1025
 4883SOL    HW215015   1.474   6.618   3.517 -0.5322 -1.3421  0.0719
 4884SOL     OW15016   3.995   0.271   1.250 -0.2108 -0.1661  0.1774
 4884SOL    HW115017   3.974   0.364   1.253  0.6087  0.0386 -0.3134
 4884SOL    HW215018   4.091   0.267   1.249 -0.2168 -0.9275 -1.7201
 4885SOL     OW15019   1.413   3.296   3.827  0.2961  0.1915 -0.0705
 4885SOL    HW115020   1.379   3.250   3.751  1.7813  2.7258 -2.4900
 4885SOL    HW215021   1.505   3.315   3.805 -0.3500  4.8192  0.2303
 4886SOL     OW15022   1.619   5.597   5.360  0.1551  0.1399  0.4688
 4886SOL    HW115023   1.685   5.540   5.321 -0.8013 -0.7531  0.1080
 4886SOL    HW215024   1.558   5.616   5.288 -1.5786 -1.4434  1.4176
 4887SOL     OW15025   2.628   1.875   2.730  0.1099 -0.5708 -0.1247
 4887SOL    HW115026   2.636   1.781   2.714 -2.5268 -0.3902 -3.7124
 4887SOL    HW215027   2.549   1.883   2.785 -0.4658 -0.4302 -0.9590
 4888SOL     OW15028   2.839   3.846   2.159  0.1853 -0.2372  0.1187
 4888SOL    HW115029   2.872   3.845   2.249  1.6383  0.2828 -0.3933
 4888SOL    HW215030   2.793   3.930   2.151 -0.9076 -0.7639  0.6935
 4889SOL     OW15031   6.011   4.364   1.429 -0.7519 -0.1148  0.1992
 4889SOL    HW115032   6.006   4.337   1.337 -0.2021  1.4127 -0.3201
 4889SOL    HW215033   6.048   4.452   1.425  0.3651 -0.4679  1.9740
 4890SOL     OW15034   4.236   2.418   1.001  0.4176  0.5736 -0.0440
 4890SOL    HW115035   4.168   2.351   1.005  1.5773 -0.5956  0.8061
 4890SOL    HW215036   4.252   2.429   0.907 -0.4345  0.3501 -0.2288
 4891SOL     OW15037   4.466   3.202   0.989  0.3061  0.0339  0.0775
 4891SOL    HW115038   4.431   3.255   1.061 -0.5990 -0.8868  0.3321
 4891SOL    HW215039   4.503   3.125   1.032 -1.3488 -1.1307 -0.4829
 4892SOL     OW15040   3.308   1.272   2.184  0.0341 -0.1408 -0.4709
 4892SOL    HW115041   3.229   1.270   2.237  0.0208 -1.6543 -0.4985
 4892SOL    HW215042   3.289   1.215   2.110  0.9234 -0.0206 -0.8094
 4893SOL     OW15043   0.195   0.131   3.050  0.0987 -0.2092  0.2942
 4893SOL    HW115044   0.257   0.110   3.120  0.1566 -0.9614  0.0190
 4893SOL    HW215045   0.194   0.227   3.047  1.2532 -0.1894  0.2964
 4894SOL     OW15046   2.612   6.603   0.806 -0.1862  0.3866 -0.1323
 4894SOL    HW115047   2.696   6.634   0.773 -0.6873  0.9748 -0.8938
 4894SOL    HW215048   2.547   6.655   0.759 -1.1347 -2.3699 -2.1983
 4895SOL     OW15049   2.076   1.967   3.469 -0.3179 -0.4466 -0.2401
 4895SOL    HW115050   2.035   2.053   3.483  0.4218 -0.0988 -0.2040
 4895SOL    HW215051   2.158   1.971   3.518 -0.8135 -1.5980  0.7356
 4896SOL     OW15052   0.592   1.355   3.357  0.2679  0.6903 -0.2276
 4896SOL    HW115053   0.558   1.402   3.281  1.9240 -0.3393 -1.7044
 4896SOL    HW215054   0.667   1.409   3.386  1.0728 -0.0782 -0.8213
 4897SOL     OW15055   5.469   0.924   6.555  0.6214  0.1765 -0.3152
 4897SOL    HW115056   5.535   0.939   6.487  0.4137 -0.6008 -0.7098
 4897SOL    HW215057   5.457   0.829   6.555 -1.2361  0.3718 -0.9633
 4898SOL     OW15058   4.691   2.583   5.456  0.0573 -0.1450 -0.3790
 4898SOL    HW115059   4.767   2.587   5.515  1.6727  0.8587 -2.4086
 4898SOL    HW215060   4.706   2.504   5.404 -0.4130 -0.0704 -0.6291
 4899SOL     OW15061   3.376   4.862   0.208  0.1918  0.3541  0.3700
 4899SOL    HW115062   3.395   4.772   0.234  1.3847 -0.4880 -2.8937
 4899SOL    HW215063   3.369   4.858   0.112 -0.5892  3.6050  0.1763
 4900SOL     OW15064   5.292   5.761   1.041  0.4380 -0.2287  0.2499
 4900SOL    HW115065   5.285   5.856   1.044 -1.7809 -0.3349  0.1527
 4900SOL    HW215066   5.358   5.743   0.975  0.4289  1.2434 -0.1829
 4901SOL     OW15067   1.825   1.029   4.948  0.1933 -0.2386 -0.3875
 4901SOL    HW115068   1.787   1.117   4.946 -0.4051 -0.4955 -0.7105
 4901SOL    HW215069   1.811   0.998   5.037 -0.1360 -0.2386 -0.4395
 4902SOL     OW15070   3.449   1.153   3.903  0.3112  0.2204  0.8424
 4902SOL    HW115071   3.362   1.190   3.914  0.9048  1.5068  1.3506
 4902SOL    HW215072   3.461   1.147   3.808 -0.3239  0.0223  0.7715
 4903SOL     OW15073   3.522   5.836   2.119  0.2124  0.2989 -0.2352
 4903SOL    HW115074   3.597   5.855   2.176  0.3698 -1.3607  0.1601
 4903SOL    HW215075   3.553   5.766   2.062 -0.8407  0.0426 -0.4982
 4904SOL     OW15076   1.992   4.943   5.850  0.7709  0.3410 -0.3219
 4904SOL    HW115077   2.052   4.965   5.779 -0.5536  3.1453 -0.7367
 4904SOL    HW215078   1.909   4.925   5.805  1.1339 -3.4069  0.2335
 4905SOL     OW15079   2.732   5.184   3.985 -0.9032 -0.1268  0.5261
 4905SOL    HW115080   2.755   5.121   3.916 -2.9399 -2.4588  1.8229
 4905SOL    HW215081   2.637   5.191   3.980 -0.9007  1.2469  1.8384
 4906SOL     OW15082   2.999   1.668   3.883  0.2793 -0.0412  0.1028
 4906SOL    HW115083   2.963   1.717   3.808 -0.4178  1.2683  1.2347
 4906SOL    HW215084   3.084   1.708   3.898 -0.1680  0.6806  0.8451
 4907SOL     OW15085   2.000   0.332   3.704 -0.1352 -0.1975 -0.1295
 4907SOL    HW115086   1.926   0.311   3.760  1.0256  0.9440  1.9476
 4907SOL    HW215087   1.978   0.418   3.667 -1.0228 -1.0687 -1.7378
 4908SOL     OW15088   1.358   4.560   5.019  0.0106  0.1804  0.2273
 4908SOL    HW115089   1.400   4.611   5.088 -0.1006 -0.0084  0.4375
 4908SOL    HW215090   1.291   4.618   4.983  0.9270  0.7539 -0.6150
 4909SOL     OW15091   2.216   6.100   1.126 -0.1494  0.2280 -0.0576
 4909SOL    HW115092   2.123   6.121   1.121 -0.1069  0.6647  0.7332
 4909SOL    HW215093   2.227   6.023   1.072 -1.1838 -0.4974  0.7296
 4910SOL     OW15094   1.097   2.540   2.459 -0.8265  0.1547  0.3073
 4910SOL    HW115095   1.064   2.628   2.440 -0.8583 -0.2066 -1.4935
 4910SOL    HW215096   1.066   2.487   2.386  1.4411 -0.7874 -0.0388
 4911SOL     OW15097   2.261   2.218   1.206 -0.2531  0.3770 -0.0020
 4911SOL    HW115098   2.291   2.203   1.117  0.9602  0.1715  0.4204
 4911SOL    HW215099   2.174   2.179   1.209  0.2863 -0.9372 -0.7003
 4912SOL     OW15100   5.577   3.403   1.280 -0.2179 -0.1630  0.4963
 4912SOL    HW115101   5.643   3.418   1.348 -0.6986 -0.7662  1.1093
 4912SOL    HW215102   5.627   3.368   1.206  0.3989  1.0554  0.3068
 4913SOL     OW15103   6.374   4.657   2.636  0.3248 -0.0192 -0.0814
 4913SOL    HW115104   6.421   4.576   2.615 -1.4999 -1.6467  1.7213
 4913SOL    HW215105   6.329   4.680   2.555 -0.4080 -1.7489 -0.2056
 4914SOL     OW15106   4.006   0.811   3.557  0.6144  0.3400  0.1278
 4914SOL    HW115107   3.983   0.759   3.634  3.7473 -1.2106  0.1482
 4914SOL    HW215108   3.923   0.825   3.512 -0.7722 -2.2231  1.6520
 4915SOL     OW15109   0.090   1.536   1.507  0.0187  0.0584  0.1376
 4915SOL    HW115110   0.133   1.513   1.589  0.1666 -0.0430  0.0318
 4915SOL    HW215111   0.158   1.580   1.456 -0.7466  2.5371  1.0968
 4916SOL     OW15112   6.368   2.372   3.424 -0.4461 -0.2910 -0.2641
 4916SOL    HW115113   6.369   2.340   3.334  1.2814 -1.1390  0.0090
 4916SOL    HW215114   6.439   2.324   3.467 -0.6651  0.7360  1.3240
 4917SOL     OW15115   6.305   6.393   1.673 -0.6466  0.1978 -0.1763
 4917SOL    HW115116   6.333   6.455   1.740 -1.6069  1.6237 -1.0385
 4917SOL    HW215117   6.386   6.353   1.642 -0.0186  0.8710  0.5385
 4918SOL     OW15118   0.319   6.527   1.736 -0.5344  0.1544 -0.1618
 4918SOL    HW115119   0.239   6.580   1.739 -0.0485  0.9347 -0.4190
 4918SOL    HW215120   0.340   6.520   1.643  0.8045  1.7427 -0.0456
 4919SOL     OW15121   6.261   2.612   4.753 -0.0656 -0.2185 -0.1143
 4919SOL    HW115122   6.256   2.675   4.681  0.5786 -0.0201  0.0154
 4919SOL    HW215123   6.177   2.565   4.749 -1.2198  1.6482  0.7209
 4920SOL     OW15124   1.376   6.096   2.953 -0.3801 -0.8328  0.1287
 4920SOL    HW115125   1.325   6.020   2.983 -1.4238 -0.5026 -0.7387
 4920SOL    HW215126   1.332   6.171   2.992 -0.0714 -0.5995  0.0289
 4921SOL     OW15127   4.199   3.870   2.314 -0.4528 -0.4997 -0.5089
 4921SOL    HW115128   4.174   3.843   2.226 -1.7943  0.0964 -0.3370
 4921SOL    HW215129   4.274   3.814   2.336 -0.8522 -1.4927 -1.5557
 4922SOL     OW15130   2.821   4.792   6.227 -0.4451  0.3522  0.5671
 4922SOL    HW115131   2.761   4.795   6.302  0.8088 -0.7517  1.6700
 4922SOL    HW215132   2.796   4.714   6.178 -0.9591  0.8116  0.0851
 4923SOL     OW15133   0.588   0.928   5.266  0.7884  0.2300 -0.2720
 4923SOL    HW115134   0.636   0.873   5.328  0.1357 -1.2641 -1.0348
 4923SOL    HW215135   0.554   0.867   5.201 -1.8789  1.2483  0.0494
 4924SOL     OW15136   4.115   4.753   1.924  0.5682  0.1860 -0.4843
 4924SOL    HW115137   4.061   4.813   1.873  1.1339  1.0330 -0.0902
 4924SOL    HW215138   4.085   4.765   2.014  1.6526  0.9354 -0.2111
 4925SOL     OW15139   4.471   6.380   4.273  0.3375 -0.5461  0.1069
 4925SOL    HW115140   4.533   6.452   4.269  0.0990  0.1129  3.9867
 4925SOL    HW215141   4.387   6.419   4.249  0.3956  0.2576  1.1251
 4926SOL     OW15142   1.261   0.959   4.866 -0.0651 -0.1325 -0.1000
 4926SOL    HW115143   1.311   0.921   4.938 -0.3560  0.1694  0.2634
 4926SOL    HW215144   1.321   1.021   4.825  0.1669 -0.4502 -0.2402
 4927SOL     OW15145   5.702   3.792   5.366  0.9172  0.2639 -0.2004
 4927SOL    HW115146   5.641   3.841   5.312  0.2265  1.9110  1.9354
 4927SOL    HW215147   5.784   3.841   5.360  0.6579  0.8369  0.7017
 4928SOL     OW15148   1.104   6.748   0.082 -0.1236  0.8052  0.1519
 4928SOL    HW115149   1.087   6.705  -0.002  0.5546 -1.9605  1.2944
 4928SOL    HW215150   1.073   6.684   0.148  1.1794  1.9984  2.0197
 4929SOL     OW15151   4.873   4.504   3.899 -0.1836  0.2664  0.0941
 4929SOL    HW115152   4.859   4.582   3.845  1.2209 -0.4480 -1.4242
 4929SOL    HW215153   4.962   4.514   3.933 -0.0895 -0.5216  0.1094
 4930SOL     OW15154   3.681   4.584   6.476  0.7268 -0.1748  0.0701
 4930SOL    HW115155   3.628   4.535   6.540 -1.6736 -0.5735 -2.0376
 4930SOL    HW215156   3.681   4.674   6.508 -2.8574  0.2290 -0.6440
 4931SOL     OW15157   6.385   0.634   0.741  0.1340  0.2445  0.2152
 4931SOL    HW115158   6.338   0.620   0.658  0.6154 -0.2122  0.0120
 4931SOL    HW215159   6.477   0.639   0.716  0.1696  1.5060  0.5685
 4932SOL     OW15160   4.970   2.532   1.993  0.2720 -0.1830  0.0533
 4932SOL    HW115161   4.925   2.461   1.948 -2.4953  1.2008  0.4571
 4932SOL    HW215162   5.035   2.488   2.048 -0.6303 -2.2947 -0.4847
 4933SOL     OW15163   0.228   0.473   1.228  0.2791 -0.1289  0.2771
 4933SOL    HW115164   0.243   0.519   1.311  0.5867  1.0778 -0.4323
 4933SOL    HW215165   0.192   0.539   1.170  0.0183 -0.9826 -0.5532
 4934SOL     OW15166   0.481   5.091   6.448 -0.1442 -0.0136  0.2601
 4934SOL    HW115167   0.566   5.071   6.487 -1.5450 -1.2069  3.0748
 4934SOL    HW215168   0.481   5.186   6.435  1.5830  0.0025  0.2001
 4935SOL     OW15169   3.914   2.254   1.731  0.3877  0.4312 -0.1201
 4935SOL    HW115170   3.877   2.341   1.715  3.5252  1.7905 -0.6598
 4935SOL    HW215171   3.992   2.270   1.784  1.4236 -2.0064 -0.7580
 4936SOL     OW15172   3.351   2.026   3.273  0.4955 -0.2553 -0.2020
 4936SOL    HW115173   3.356   2.079   3.194  2.2815  0.8823  0.6275
 4936SOL    HW215174   3.282   2.067   3.325  0.3374 -0.0973 -0.5346
 4937SOL     OW15175   5.292   6.320   2.424 -0.1631 -0.3031  0.1382
 4937SOL    HW115176   5.309   6.356   2.511  0.2902  0.7581 -0.3733
 4937SOL    HW215177   5.350   6.244   2.418  0.3912  0.0885  0.4634
 4938SOL     OW15178   6.014   4.593   3.817  0.1839  0.5473  0.2314
 4938SOL    HW115179   5.954   4.631   3.882  0.1854  0.7926  0.0911
 4938SOL    HW215180   5.981   4.505   3.802  0.7311  0.1422  1.2770
 4939SOL     OW15181   0.878   2.585   3.551 -0.8685  0.3349  0.8592
 4939SOL    HW115182   0.868   2.653   3.618 -1.7072 -0.3546  1.4634
 4939SOL    HW215183   0.924   2.514   3.596 -1.5189 -0.1673  0.7599
 4940SOL     OW15184   4.630   0.417   1.541 -0.1659  0.4155 -0.1943
 4940SOL    HW115185   4.574   0.443   1.614  0.0442  0.3338 -0.0022
 4940SOL    HW215186   4.709   0.383   1.583  0.1994  0.9131 -0.4672
 4941SOL     OW15187   5.777   2.661   0.537 -0.3400  0.3042  0.3681
 4941SOL    HW115188   5.698   2.706   0.507 -0.0237  0.8749  0.3918
 4941SOL    HW215189   5.844   2.685   0.474 -0.4663 -1.1966 -0.3927
 4942SOL     OW15190   0.628   5.113   0.066  0.1570  0.0767  0.5859
 4942SOL    HW115191   0.712   5.071   0.050  0.4709  1.3782 -1.6696
 4942SOL    HW215192   0.643   5.205   0.044 -1.2143  0.8700  2.6586
 4943SOL     OW15193   5.802   1.837   6.748  0.0673  0.8321  0.2081
 4943SOL    HW115194   5.781   1.827   6.655 -1.0237 -1.6317  0.6490
 4943SOL    HW215195   5.776   1.927   6.769  0.3416  1.4354 -1.8463
 4944SOL     OW15196   4.781   6.306   5.112 -0.0533  0.3595 -0.1344
 4944SOL    HW115197   4.870   6.277   5.092  1.0914  1.8771  2.2449
 4944SOL    HW215198   4.724   6.245   5.065  2.2282 -1.0934 -1.1726
 4945SOL     OW15199   4.533   4.837   0.047 -0.4287 -0.3429 -0.1485
 4945SOL    HW115200   4.491   4.923   0.038 -0.9255 -0.6323 -0.6397
 4945SOL    HW215201   4.461   4.775   0.056 -0.0599 -0.6535  0.7788
 4946SOL     OW15202   5.142   4.867   1.982 -0.3511  0.3121 -0.5762
 4946SOL    HW115203   5.138   4.776   1.952  0.2556  0.3067 -0.6492
 4946SOL    HW215204   5.067   4.876   2.041  1.0272 -0.9930  1.4984
 4947SOL     OW15205   1.910   3.622   0.353 -0.5384  0.8637 -0.0017
 4947SOL    HW115206   1.885   3.530   0.366 -2.9157  1.1108 -2.0126
 4947SOL    HW215207   1.972   3.620   0.281 -0.0766  0.8005  0.3932
 4948SOL     OW15208   3.213   5.166   4.539  0.2291 -0.1631  0.0173
 4948SOL    HW115209   3.163   5.214   4.473  1.0672 -0.0884 -0.5799
 4948SOL    HW215210   3.269   5.108   4.488  1.6567  0.6484  0.6116
 4949SOL     OW15211   0.300   0.321   3.735 -0.0845  0.1051  0.4094
 4949SOL    HW115212   0.207   0.330   3.755  0.0253 -0.0500  1.0096
 4949SOL    HW215213   0.322   0.232   3.764 -0.0703 -0.3915 -1.0351
 4950SOL     OW15214   0.330   3.887   1.824 -0.5837  0.3522 -0.3200
 4950SOL    HW115215   0.278   3.956   1.785  1.2204  2.1077  0.2260
 4950SOL    HW215216   0.418   3.898   1.787 -0.2067 -1.6232 -0.1706
 4951SOL     OW15217   5.900   2.782   4.355 -0.3490  0.5191 -0.0554
 4951SOL    HW115218   5.892   2.770   4.260  1.6411  3.0774 -0.6881
 4951SOL    HW215219   5.986   2.747   4.376 -1.3997 -1.4697  1.1757
 4952SOL     OW15220   6.359   5.080   5.517 -0.0083 -0.4654 -0.3724
 4952SOL    HW115221   6.452   5.090   5.539  0.1922 -1.3629 -0.7395
 4952SOL    HW215222   6.322   5.032   5.590 -0.5262  1.1307  0.4619
 4953SOL     OW15223   0.117   1.333   6.648 -0.1513 -0.0184 -0.0943
 4953SOL    HW115224   0.134   1.355   6.556  1.8167 -1.1103 -0.0446
 4953SOL    HW215225   0.191   1.370   6.696 -0.2083 -0.9947  0.8000
 4954SOL     OW15226   3.473   5.610   3.415 -0.1666 -0.2485 -0.2083
 4954SOL    HW115227   3.383   5.605   3.448 -0.7945  0.0385 -1.8141
 4954SOL    HW215228   3.481   5.534   3.357  0.3982  0.1070 -0.6013
 4955SOL     OW15229   2.727   5.578   2.028  0.1104 -0.1697  0.3323
 4955SOL    HW115230   2.677   5.646   2.075  1.8602  2.1225 -0.9087
 4955SOL    HW215231   2.733   5.610   1.938  0.2172 -2.4938 -0.5568
 4956SOL     OW15232   1.543   2.707   2.449  0.1300 -1.0741 -0.3300
 4956SOL    HW115233   1.499   2.717   2.533 -0.3501  0.9738 -0.7658
 4956SOL    HW215234   1.478   2.735   2.384  1.6760  1.0900 -1.0662
 4957SOL     OW15235   6.773   0.950   1.927  0.2640 -0.3566 -0.0491
 4957SOL    HW115236   6.692   0.941   1.877  0.1781  1.6622 -0.3527
 4957SOL    HW215237   6.777   0.872   1.981 -1.2714 -1.0664 -0.9018
 4958SOL     OW15238   4.241   4.206   0.893 -0.2440  0.2701  0.6553
 4958SOL    HW115239   4.173   4.139   0.894  0.0684 -0.1499 -1.1169
 4958SOL    HW215240   4.225   4.255   0.812  2.3724 -0.8084 -0.6380
 4959SOL     OW15241   4.693   5.318   6.374  0.1472 -0.1619  0.0811
 4959SOL    HW115242   4.716   5.284   6.461 -2.4881 -0.3046  0.8132
 4959SOL    HW215243   4.756   5.277   6.315  3.0456  1.1456  2.0371
 4960SOL     OW15244   0.164   0.808   0.030 -0.6705  0.4925 -0.3155
 4960SOL    HW115245   0.224   0.824  -0.043 -2.7483  0.4407 -2.1400
 4960SOL    HW215246   0.221   0.785   0.103  1.5481  1.1071 -1.7509
 4961SOL     OW15247   0.298   5.786   1.333  0.1500  0.1496 -0.4226
 4961SOL    HW115248   0.251   5.859   1.294 -0.9877 -1.1450 -1.5926
 4961SOL    HW215249   0.355   5.754   1.262  0.3460 -0.3322 -0.0530
 4962SOL     OW15250   3.174   5.648   0.278 -0.4531  0.3244 -0.1594
 4962SOL    HW115251   3.235   5.654   0.204  0.6761  0.0478  0.7387
 4962SOL    HW215252   3.161   5.554   0.291 -0.5145  0.3722  0.1219
 4963SOL     OW15253   5.582   6.231   0.035  1.3326  0.9536  0.0229
 4963SOL    HW115254   5.501   6.270   0.068  1.8106  1.2000  0.9295
 4963SOL    HW215255   5.578   6.244  -0.059 -0.0206  0.3211 -0.0318
 4964SOL     OW15256   5.950   3.380   5.367  0.0011  0.4412 -0.6355
 4964SOL    HW115257   5.899   3.440   5.422 -0.5183 -1.1638  0.7019
 4964SOL    HW215258   6.038   3.382   5.405 -0.4464 -0.9505  0.5667
 4965SOL     OW15259   4.563   6.082   1.936 -0.2362 -0.4663 -0.3226
 4965SOL    HW115260   4.646   6.070   1.983  0.0277 -2.2648 -1.1483
 4965SOL    HW215261   4.513   6.002   1.955 -0.5200 -0.8023 -2.2445
 4966SOL     OW15262   5.434   6.588   6.391 -0.4898  0.5444 -0.1517
 4966SOL    HW115263   5.503   6.548   6.338 -1.6476  0.0299 -1.3103
 4966SOL    HW215264   5.352   6.565   6.347 -1.3334  2.5436  0.2643
 4967SOL     OW15265   6.739   0.676   1.693 -0.3458 -0.5698  0.7024
 4967SOL    HW115266   6.701   0.759   1.663  0.8259 -0.0516  0.5468
 4967SOL    HW215267   6.832   0.696   1.704 -0.1021 -1.7850  0.9944
 4968SOL     OW15268   3.861   4.307   2.131 -0.2856 -0.1279  0.2408
 4968SOL    HW115269   3.800   4.245   2.171 -1.1282  0.2223 -0.4547
 4968SOL    HW215270   3.866   4.280   2.040  0.1090  0.2278  0.1538
 4969SOL     OW15271   1.392   4.198   4.201  0.0889 -0.0290  0.6793
 4969SOL    HW115272   1.296   4.197   4.206  0.0380 -1.0682 -0.3085
 4969SOL    HW215273   1.417   4.274   4.254 -1.2932  0.4518  0.6886
 4970SOL     OW15274   4.942   6.050   2.664  0.3005 -0.2132 -0.1192
 4970SOL    HW115275   4.895   6.120   2.619  0.2769 -0.1789 -0.0419
 4970SOL    HW215276   4.943   5.977   2.601 -3.0893 -1.5617  1.1252
 4971SOL     OW15277   5.756   4.699   6.112 -0.1717  0.1997 -0.1763
 4971SOL    HW115278   5.761   4.605   6.126 -2.5704 -0.9353 -4.8305
 4971SOL    HW215279   5.665   4.722   6.130  0.0670  1.3604 -0.3391
 4972SOL     OW15280   1.765   5.982   5.212  0.2090  0.6012  0.0744
 4972SOL    HW115281   1.765   5.972   5.307 -0.8272 -0.2777 -0.0021
 4972SOL    HW215282   1.835   5.924   5.181 -1.5232 -1.6529  0.1116
 4973SOL     OW15283   5.613   2.927   5.836 -0.2846 -0.3137  0.1224
 4973SOL    HW115284   5.532   2.940   5.785  0.1818  0.4060 -0.4676
 4973SOL    HW215285   5.583   2.914   5.926 -1.0416  0.6387  0.0293
 4974SOL     OW15286   6.175   0.426   1.912 -0.2289 -0.1125 -0.1495
 4974SOL    HW115287   6.146   0.516   1.902 -1.9200 -0.5814  0.1089
 4974SOL    HW215288   6.253   0.419   1.857 -0.5763  1.2779 -0.8636
 4975SOL     OW15289   3.868   6.719   3.744  0.3233  0.5332  0.7318
 4975SOL    HW115290   3.864   6.673   3.827 -1.0826 -1.9016 -0.5915
 4975SOL    HW215291   3.943   6.681   3.698 -1.1220 -0.9232 -0.5602
 4976SOL     OW15292   5.733   2.701   5.641  0.8693 -0.4323  0.2706
 4976SOL    HW115293   5.701   2.676   5.555 -0.8508 -0.1326  0.7824
 4976SOL    HW215294   5.753   2.618   5.685 -0.6948 -0.7299  0.4615
 4977SOL     OW15295   5.142   5.990   1.286  0.6472 -0.1179 -0.1678
 4977SOL    HW115296   5.109   6.065   1.336 -1.7368 -0.1836 -1.4675
 4977SOL    HW215297   5.215   6.025   1.235  0.1690  1.1011 -0.0409
 4978SOL     OW15298   0.609   0.314   2.627  0.2541  0.3425  0.2159
 4978SOL    HW115299   0.677   0.266   2.580 -1.1321  0.3943 -1.9312
 4978SOL    HW215300   0.530   0.260   2.618 -0.0658  0.2625  2.6906
 4979SOL     OW15301   5.548   2.103   0.845  0.4545  0.2840  0.5541
 4979SOL    HW115302   5.606   2.178   0.833 -0.1628  0.7195  0.2014
 4979SOL    HW215303   5.464   2.142   0.869  0.6893 -0.4083  2.6911
 4980SOL     OW15304   2.399   5.139   5.678 -0.0496 -0.1806 -0.2580
 4980SOL    HW115305   2.434   5.138   5.589  0.7609 -1.5255  0.0544
 4980SOL    HW215306   2.304   5.127   5.666 -0.2448  1.6918 -1.0096
 4981SOL     OW15307   1.274   4.799   0.014 -0.6927  0.6483 -0.1215
 4981SOL    HW115308   1.311   4.886  -0.001  2.4149 -0.3970  0.6603
 4981SOL    HW215309   1.271   4.790   0.109 -0.4452 -0.2802 -0.1882
 4982SOL     OW15310   6.612   5.009   5.258  0.1373  0.3115  0.0180
 4982SOL    HW115311   6.687   4.966   5.219 -0.0723 -0.2903  0.2630
 4982SOL    HW215312   6.583   4.949   5.327 -0.7268  0.3973 -0.2489
 4983SOL     OW15313   5.829   4.594   4.781  0.3470  0.5166  0.0068
 4983SOL    HW115314   5.793   4.506   4.793  0.0845  0.6949  0.5553
 4983SOL    HW215315   5.922   4.586   4.802  0.1480  0.5514  0.9611
 4984SOL     OW15316   5.842   5.578   4.174 -0.1929  0.0014  0.1706
 4984SOL    HW115317   5.813   5.490   4.198  2.3466 -1.1336 -0.6305
 4984SOL    HW215318   5.779   5.606   4.108 -1.3827 -0.9465  0.8617
 4985SOL     OW15319   6.198   1.126   3.162  0.5351 -0.5030 -0.1160
 4985SOL    HW115320   6.166   1.037   3.172 -0.2640 -0.1740  0.4386
 4985SOL    HW215321   6.263   1.137   3.231  0.2762 -0.5074  0.1308
 4986SOL     OW15322   5.506   6.562   2.512 -0.2173 -0.8239  0.0121
 4986SOL    HW115323   5.439   6.551   2.580 -0.8887  0.1022 -0.4728
 4986SOL    HW215324   5.568   6.491   2.528 -2.6089 -3.3785 -1.0611
 4987SOL     OW15325   6.619   3.028   0.250  0.4744 -0.0346 -0.2435
 4987SOL    HW115326   6.524   3.030   0.262  0.6543 -1.6802  1.8816
 4987SOL    HW215327   6.630   2.999   0.159 -1.0233  0.5202 -0.6442
 4988SOL     OW15328   1.694   5.346   1.961 -0.1669  0.1090  0.4761
 4988SOL    HW115329   1.789   5.340   1.953 -0.1114  1.1483  0.1633
 4988SOL    HW215330   1.672   5.287   2.034  0.7531  0.1072  0.7655
 4989SOL     OW15331   6.663   4.989   0.698  0.1541 -0.1976 -1.0693
 4989SOL    HW115332   6.682   4.897   0.720 -2.4823 -0.7333 -0.6358
 4989SOL    HW215333   6.725   5.010   0.628  1.3867 -2.0205 -0.6202
 4990SOL     OW15334   4.475   1.478   6.534  0.3248  0.7547 -0.1162
 4990SOL    HW115335   4.492   1.533   6.611 -0.7263 -0.2381  0.8662
 4990SOL    HW215336   4.512   1.392   6.558 -1.7033 -0.1134  0.1284
 4991SOL     OW15337   5.494   6.033   0.868  0.8859  0.0822 -0.0189
 4991SOL    HW115338   5.512   5.940   0.878  1.3696  0.2197  0.3788
 4991SOL    HW215339   5.475   6.044   0.774 -1.9762 -0.8993  0.3321
 4992SOL     OW15340   3.549   5.301   4.448 -0.2797 -0.2584 -0.4792
 4992SOL    HW115341   3.460   5.335   4.448  0.2792  1.3168  0.1452
 4992SOL    HW215342   3.574   5.300   4.355 -0.9723 -0.8388 -0.6686
 4993SOL     OW15343   0.644   5.976   2.198 -0.8113 -0.2135 -0.0877
 4993SOL    HW115344   0.707   5.905   2.186 -1.2513 -0.3023 -2.5247
 4993SOL    HW215345   0.577   5.940   2.256 -0.5053 -1.4519 -0.4689
 4994SOL     OW15346   0.597   0.013   2.862 -0.5898  0.2399 -0.5015
 4994SOL    HW115347   0.668   0.049   2.915 -1.2244  1.1606 -0.2551
 4994SOL    HW215348   0.551  -0.047   2.921 -1.6200  1.6640  0.2047
 4995SOL     OW15349   5.208   4.308   6.562 -0.5737 -0.4970  0.3275
 4995SOL    HW115350   5.264   4.311   6.639 -1.2592 -1.0380  0.8610
 4995SOL    HW215351   5.242   4.233   6.512 -0.5758 -0.5857  0.4566
 4996SOL     OW15352   1.054   5.840   6.112  0.3714  0.8972  0.0198
 4996SOL    HW115353   1.097   5.774   6.058  0.7320  0.3286  0.9856
 4996SOL    HW215354   1.096   5.833   6.197 -1.0178  0.9485  0.7394
 4997SOL     OW15355   1.547   1.035   6.426  0.2035 -0.0383  0.3672
 4997SOL    HW115356   1.501   0.963   6.383  0.2466 -0.7855  1.5369
 4997SOL    HW215357   1.546   1.105   6.362 -1.0332 -0.6227 -0.2887
 4998SOL     OW15358   2.374   1.647   1.859  0.1857  0.3135  0.4198
 4998SOL    HW115359   2.305   1.669   1.796 -0.1648  0.4216  0.8326
 4998SOL    HW215360   2.327   1.607   1.932  0.6236 -0.1199  0.4720
 4999SOL     OW15361   5.511   1.891   2.403 -0.0995 -0.2364  0.0017
 4999SOL    HW115362   5.602   1.904   2.375 -0.5596 -1.6283 -2.4754
 4999SOL    HW215363   5.518   1.839   2.483  1.2819  0.7573  0.5741
 5000SOL     OW15364   4.214   1.780   3.097  0.7084  0.0696 -0.3198
 5000SOL    HW115365   4.256   1.695   3.078  0.1462 -0.6725  1.5260
 5000SOL    HW215366   4.287   1.840   3.110  1.1134  0.0584 -2.2896
 5001SOL     OW15367   5.732   0.171   4.882 -0.5098 -0.7642 -0.0104
 5001SOL    HW115368   5.722   0.134   4.970 -0.0786 -1.8437 -0.3990
 5001SOL    HW215369   5.804   0.121   4.844  0.6257  0.9939 -0.3018
 5002SOL     OW15370   0.152   6.173   6.705 -0.2332  0.2568 -0.4417
 5002SOL    HW115371   0.154   6.260   6.744 -1.3044  0.5175 -0.9379
 5002SOL    HW215372   0.068   6.169   6.659  0.8680 -0.0861 -2.5612
 5003SOL     OW15373   5.910   1.840   1.748 -0.2269 -0.2283 -0.1599
 5003SOL    HW115374   5.957   1.910   1.793  0.7360 -0.7410 -0.3383
 5003SOL    HW215375   5.832   1.882   1.713  0.4202  0.7937 -0.4173
 5004SOL     OW15376   2.785   0.203   6.319 -0.1377  0.4668 -0.3305
 5004SOL    HW115377   2.835   0.267   6.270  0.2053 -0.6078 -1.4526
 5004SOL    HW215378   2.729   0.254   6.377  0.0924  1.7649 -1.2261
 5005SOL     OW15379   4.770   4.944   2.432  0.5337 -0.2694 -0.1468
 5005SOL    HW115380   4.797   4.857   2.402 -0.6759 -1.2243  1.3647
 5005SOL    HW215381   4.731   4.985   2.355  3.1532 -0.1310 -1.4869
 5006SOL     OW15382   0.966   6.362   2.847 -0.7089 -0.2308  0.1351
 5006SOL    HW115383   0.970   6.372   2.751 -0.0013 -0.3414  0.1497
 5006SOL    HW215384   0.913   6.437   2.876  0.8764  1.0595 -0.1516
 5007SOL     OW15385   2.437   6.267   5.367  0.0457  0.0322  0.4416
 5007SOL    HW115386   2.415   6.289   5.277 -0.4057 -0.8874  0.3168
 5007SOL    HW215387   2.397   6.337   5.420 -0.0522  0.3410 -0.0343
 5008SOL     OW15388   4.892   6.021   3.303 -0.4435  0.1827 -0.2908
 5008SOL    HW115389   4.910   6.047   3.393  1.7452  0.3267 -0.6986
 5008SOL    HW215390   4.955   6.071   3.251 -0.0262 -1.6272 -1.6447
 5009SOL     OW15391   1.456   6.307   6.455  0.2395  0.4441 -0.0178
 5009SOL    HW115392   1.407   6.332   6.376 -1.1005  2.0145  1.2304
 5009SOL    HW215393   1.458   6.387   6.508  0.0900 -0.8452  2.0580
 5010SOL     OW15394   5.926   3.434   0.947 -0.3452  0.2120 -0.0925
 5010SOL    HW115395   5.964   3.423   0.860 -0.4584 -1.0238 -0.0032
 5010SOL    HW215396   5.864   3.361   0.956 -1.7522  1.4099  0.2893
 5011SOL     OW15397   3.564   0.657   2.214  0.0464  0.1288  0.6026
 5011SOL    HW115398   3.526   0.745   2.207 -1.2995 -0.5660 -3.8587
 5011SOL    HW215399   3.496   0.599   2.180  2.2950 -2.1533 -0.2901
 5012SOL     OW15400   2.517   1.339   0.573  0.1289  0.0656  0.0925
 5012SOL    HW115401   2.441   1.283   0.555 -0.2122  0.8436 -1.0053
 5012SOL    HW215402   2.554   1.304   0.654 -2.2782  0.5645  1.5126
 5013SOL     OW15403   0.279   2.411   5.997 -0.2068  0.2857 -0.1143
 5013SOL    HW115404   0.325   2.486   6.036  0.8400 -1.0357  1.3086
 5013SOL    HW215405   0.223   2.379   6.067 -0.8012 -0.1465 -0.7770
 5014SOL     OW15406   5.769   5.897   6.568  0.2961 -0.0292  0.5066
 5014SOL    HW115407   5.843   5.922   6.514  0.8565  0.8150  1.6111
 5014SOL    HW215408   5.781   5.947   6.649 -0.9619 -0.6056  1.0749
 5015SOL     OW15409   4.430   0.939   6.646  0.8297 -0.2799  0.1812
 5015SOL    HW115410   4.500   0.999   6.671  1.5904 -1.4175  0.8649
 5015SOL    HW215411   4.355   0.966   6.698  0.9330  0.5483 -0.0854
 5016SOL     OW15412   4.579   5.470   2.594  0.3567 -0.1651  0.5427
 5016SOL    HW115413   4.527   5.445   2.670 -0.7309 -0.4234 -0.2522
 5016SOL    HW215414   4.592   5.389   2.545 -0.1064  0.1923 -0.2066
 5017SOL     OW15415   4.736   4.446   5.548  0.5976  0.2284  0.3773
 5017SOL    HW115416   4.720   4.383   5.618  2.4484 -1.6816 -0.7909
 5017SOL    HW215417   4.726   4.395   5.467 -1.2590  2.3031 -0.8138
 5018SOL     OW15418   0.878   2.381   3.232 -0.5702 -0.0012  0.5435
 5018SOL    HW115419   0.812   2.314   3.251 -1.8120  1.3142  1.1437
 5018SOL    HW215420   0.934   2.342   3.165 -1.6627 -1.3720  0.3788
 5019SOL     OW15421   0.433   5.627   2.040 -0.7467 -0.0483  0.6260
 5019SOL    HW115422   0.397   5.645   1.954  1.3973  0.6945 -0.2046
 5019SOL    HW215423   0.476   5.542   2.031  0.9663  0.7789  0.3535
 5020SOL     OW15424   4.027   1.587   1.749  0.0458  0.0061 -0.0904
 5020SOL    HW115425   4.010   1.568   1.656 -2.7288 -0.4538  0.4408
 5020SOL    HW215426   4.064   1.506   1.783 -1.5197 -0.7931 -0.2236
 5021SOL     OW15427   3.007   1.445   3.714  0.2037 -0.2879 -0.1007
 5021SOL    HW115428   3.005   1.510   3.784 -1.4235  0.7832 -1.0751
 5021SOL    HW215429   3.098   1.447   3.682  0.4081  0.8307  0.4971
 5022SOL     OW15430   0.333   4.872   4.447 -0.3750  1.0928  0.0889
 5022SOL    HW115431   0.243   4.881   4.478 -1.2984 -0.7093 -1.8611
 5022SOL    HW215432   0.364   4.790   4.484  0.4077  1.5757  0.5410
 5023SOL     OW15433   3.490   1.750   2.394 -0.4875 -0.4085  0.1381
 5023SOL    HW115434   3.567   1.804   2.374  0.1385 -1.6270 -0.8460
 5023SOL    HW215435   3.419   1.793   2.347  0.1800 -0.8964 -1.3909
 5024SOL     OW15436   4.555   5.372   4.146 -0.4383 -0.7821  0.4645
 5024SOL    HW115437   4.539   5.368   4.052  0.7565 -1.6042  0.2786
 5024SOL    HW215438   4.639   5.417   4.155 -1.5850  1.3430  1.2930
 5025SOL     OW15439   5.881   2.286   3.516  0.1770  0.5589  0.0784
 5025SOL    HW115440   5.948   2.232   3.557 -2.1052 -1.6534  1.1607
 5025SOL    HW215441   5.861   2.242   3.434  0.1775  1.3132 -0.3323
 5026SOL     OW15442   5.256   0.104   6.032 -0.4514  0.2374 -0.0382
 5026SOL    HW115443   5.196   0.090   5.959  0.3881  2.1928 -1.1763
 5026SOL    HW215444   5.216   0.057   6.105 -2.4805  0.0773 -1.1889
 5027SOL     OW15445   1.137   0.129   4.627  0.6598 -0.6110  0.0463
 5027SOL    HW115446   1.085   0.105   4.550 -0.6655 -0.9821  1.0223
 5027SOL    HW215447   1.077   0.180   4.681  2.3026  1.8128 -0.2524
 5028SOL     OW15448   0.998   2.184   1.072 -0.4608 -0.2921  0.4257
 5028SOL    HW115449   1.063   2.144   1.014 -0.1122  0.4135  0.3082
 5028SOL    HW215450   0.946   2.111   1.104  1.1423 -1.0366  1.4712
 5029SOL     OW15451   2.176   3.868   2.927  0.2040 -0.9686  0.2625
 5029SOL    HW115452   2.087   3.876   2.894  0.4980 -1.7194 -0.7757
 5029SOL    HW215453   2.192   3.774   2.932  1.5671 -0.8958 -1.4588
 5030SOL     OW15454   5.884   6.564   5.508 -0.5475 -0.0070 -0.9265
 5030SOL    HW115455   5.927   6.605   5.584  0.2245  0.2295 -1.4773
 5030SOL    HW215456   5.854   6.479   5.541 -0.1331  0.0503 -0.3760
 5031SOL     OW15457   0.275   4.154   5.675 -0.0107 -0.1388  0.0725
 5031SOL    HW115458   0.342   4.119   5.615 -0.0928 -0.0136 -0.0931
 5031SOL    HW215459   0.322   4.174   5.755  0.3493  0.9392 -0.3968
 5032SOL     OW15460   0.182   6.460   6.797  0.1787  0.4559 -0.0640
 5032SOL    HW115461   0.238   6.466   6.720 -0.9749 -1.2509 -1.1051
 5032SOL    HW215462   0.118   6.530   6.785  1.6199  2.0153  0.8262
 5033SOL     OW15463   2.849   0.031   1.025 -0.0797  0.6820 -0.1027
 5033SOL    HW115464   2.789  -0.022   1.078 -0.1945 -0.3688 -1.2409
 5033SOL    HW215465   2.909  -0.032   0.986  0.5638  1.5257 -0.5166
 5034SOL     OW15466   5.235   2.323   3.538  0.2071  0.1186  0.0809
 5034SOL    HW115467   5.324   2.291   3.529  0.1629 -0.5275  1.5564
 5034SOL    HW215468   5.241   2.416   3.519  0.8439 -0.2433 -1.6075
 5035SOL     OW15469   1.605   4.819   0.863  0.2566 -0.3229  0.2218
 5035SOL    HW115470   1.552   4.798   0.787  0.3843 -1.9331  0.5508
 5035SOL    HW215471   1.573   4.905   0.892 -0.8458 -0.4038 -0.7167
 5036SOL     OW15472   6.043   1.211   2.477 -0.6806  0.3023  0.3796
 5036SOL    HW115473   5.971   1.269   2.500 -1.3070 -0.9829  1.8255
 5036SOL    HW215474   6.003   1.124   2.476  0.5053 -0.2530 -0.4666
 5037SOL     OW15475   0.037   5.062   3.926 -0.2615 -0.5004 -0.0351
 5037SOL    HW115476  -0.055   5.038   3.927  0.1594 -2.2278  0.4894
 5037SOL    HW215477   0.080   4.993   3.876  0.7317  0.3858 -0.4496
 5038SOL     OW15478   1.486   0.341   3.203  0.6606  0.3207 -0.0698
 5038SOL    HW115479   1.477   0.389   3.120 -1.1267  0.1888 -0.0046
 5038SOL    HW215480   1.468   0.406   3.271 -1.0494 -0.2196  0.0473
 5039SOL     OW15481   3.553   2.442   2.416  0.1291  0.1237  0.0647
 5039SOL    HW115482   3.530   2.532   2.395  2.4855  0.5940 -0.8604
 5039SOL    HW215483   3.514   2.390   2.346  1.3052  0.8105 -1.1437
 5040SOL     OW15484   3.554   1.787   4.209  0.0577 -0.3525 -0.2103
 5040SOL    HW115485   3.552   1.773   4.115  1.1807 -1.0238 -0.1479
 5040SOL    HW215486   3.462   1.785   4.235 -0.2529 -0.3510 -1.2527
 5041SOL     OW15487   6.126   5.623   1.512 -0.0817 -0.5645 -0.4802
 5041SOL    HW115488   6.161   5.700   1.557 -2.1841  0.1159  0.1291
 5041SOL    HW215489   6.137   5.643   1.419  2.2387 -0.9804 -0.3625
 5042SOL     OW15490   0.780   4.981   5.632  0.1606  0.3499 -0.4133
 5042SOL    HW115491   0.760   5.008   5.542 -1.3365  1.1241  0.1140
 5042SOL    HW215492   0.779   5.063   5.682 -1.1748 -0.2815  0.6549
 5043SOL     OW15493   1.369   2.239   4.196  0.3227  0.0867  0.3171
 5043SOL    HW115494   1.431   2.243   4.123 -0.8395 -0.1467 -0.7220
 5043SOL    HW215495   1.364   2.146   4.218  0.4687  0.1243  0.5054
 5044SOL     OW15496   1.603   4.062   2.677 -0.2894  0.2238 -0.2704
 5044SOL    HW115497   1.697   4.057   2.694 -0.1046  1.0973 -0.9649
 5044SOL    HW215498   1.562   4.038   2.760  0.4755 -3.4591 -0.7928
 5045SOL     OW15499   6.572   3.786   4.257  0.3381  0.2050 -0.2096
 5045SOL    HW115500   6.644   3.848   4.240  1.1712 -0.3378  1.1642
 5045SOL    HW215501   6.510   3.801   4.185  1.0863  1.7754 -0.5743
 5046SOL     OW15502   3.755   1.006   1.432  0.1263  0.2489  0.1274
 5046SOL    HW115503   3.668   0.988   1.395 -0.3615  1.3879  0.6693
 5046SOL    HW215504   3.795   1.068   1.370  1.4321 -1.8377 -1.2500
 5047SOL     OW15505   1.786   3.492   2.264 -0.2407 -0.2789  1.1461
 5047SOL    HW115506   1.725   3.427   2.228  1.5510 -1.1844 -0.4428
 5047SOL    HW215507   1.784   3.477   2.358 -3.1645  0.4037  1.3019
 5048SOL     OW15508   0.509   3.078   4.956 -0.0451 -0.0617 -0.1208
 5048SOL    HW115509   0.597   3.058   4.923 -0.1375 -0.0368 -0.3837
 5048SOL    HW215510   0.450   3.050   4.886 -0.2406  0.0558 -0.0046
 5049SOL     OW15511   4.210   1.517   3.438 -0.2018  0.5271  0.4069
 5049SOL    HW115512   4.230   1.446   3.499 -1.4707  1.3804  1.8861
 5049SOL    HW215513   4.270   1.587   3.463 -0.2772  0.6535  0.2338
 5050SOL     OW15514   2.044   6.217   4.676 -0.1384 -0.4311  0.4194
 5050SOL    HW115515   2.092   6.229   4.594 -1.4182  0.3982 -0.2321
 5050SOL    HW215516   1.996   6.135   4.663 -1.2476  0.2884 -0.1441
 5051SOL     OW15517   3.811   4.884   1.475  0.3398 -0.4641  0.4485
 5051SOL    HW115518   3.792   4.812   1.534 -0.3404 -0.9230 -0.3099
 5051SOL    HW215519   3.864   4.845   1.406  0.8227 -0.0141  0.5605
 5052SOL     OW15520   5.846   2.694   2.814 -0.4948  0.0710 -0.3017
 5052SOL    HW115521   5.862   2.736   2.729  1.9035 -1.8304 -0.9115
 5052SOL    HW215522   5.751   2.694   2.823 -0.7500  2.2779 -1.9300
 5053SOL     OW15523   4.910   4.573   2.647  0.5312 -0.3823 -0.6125
 5053SOL    HW115524   4.818   4.548   2.652  0.4659 -0.0318  0.1032
 5053SOL    HW215525   4.909   4.666   2.626  0.6927 -0.1150  0.5185
 5054SOL     OW15526   1.148   2.094   1.827  0.2886  0.0876 -0.2725
 5054SOL    HW115527   1.229   2.056   1.792 -1.9640 -4.1460 -1.5414
 5054SOL    HW215528   1.094   2.110   1.750 -1.0502  0.3124  0.6844
 5055SOL     OW15529   6.013   3.099   4.100  0.4190  0.0328  0.0919
 5055SOL    HW115530   6.075   3.028   4.119 -0.8194 -1.1756 -0.2196
 5055SOL    HW215531   6.068   3.173   4.077  1.7879 -0.5773  1.2226
 5056SOL     OW15532   6.065   6.248   3.141  0.0465 -0.0825  0.0815
 5056SOL    HW115533   6.041   6.222   3.230 -0.0153  0.2453  0.1621
 5056SOL    HW215534   6.135   6.187   3.117 -0.2347 -0.4492  0.1905
 5057SOL     OW15535   6.480   0.752   5.616  1.2047 -0.1471  0.0102
 5057SOL    HW115536   6.563   0.786   5.650  0.8248  1.9491 -0.9696
 5057SOL    HW215537   6.413   0.810   5.654  0.0481 -2.2839  1.4341
 5058SOL     OW15538   0.182   5.712   0.385  0.4354 -0.3651  0.0046
 5058SOL    HW115539   0.259   5.730   0.331  0.8081  0.3506  0.7376
 5058SOL    HW215540   0.166   5.795   0.431 -0.7482 -0.5265 -0.1042
 5059SOL     OW15541   1.001   1.753   0.490 -0.1207 -0.8032 -0.0208
 5059SOL    HW115542   1.095   1.760   0.474 -0.4610  0.0685 -2.0140
 5059SOL    HW215543   0.971   1.688   0.427 -0.7423 -1.7561  1.2330
 5060SOL     OW15544   4.656   2.827   1.488  0.1387  0.1680  0.1137
 5060SOL    HW115545   4.736   2.859   1.530  1.0457 -0.4051 -1.1180
 5060SOL    HW215546   4.633   2.896   1.425 -0.1804  0.1972  0.2580
 5061SOL     OW15547   3.598   1.774   1.657 -0.5562 -0.5163  0.0659
 5061SOL    HW115548   3.676   1.803   1.610 -1.0580  2.3475  0.7996
 5061SOL    HW215549   3.629   1.706   1.717  1.3000  0.2411  0.0187
 5062SOL     OW15550   0.219   1.594   5.009 -0.7228  0.1525 -0.3648
 5062SOL    HW115551   0.161   1.634   4.944 -1.1967  1.1096  0.6143
 5062SOL    HW215552   0.238   1.664   5.070  2.6698  0.3109 -1.3833
 5063SOL     OW15553   4.842   0.654   2.320  0.2851  0.0909 -0.4942
 5063SOL    HW115554   4.849   0.694   2.407  0.9494 -0.9576 -0.0485
 5063SOL    HW215555   4.815   0.726   2.263  0.6841  0.9993  0.4226
 5064SOL     OW15556   1.771   0.116   6.589 -0.2620 -0.4505  0.0454
 5064SOL    HW115557   1.761   0.211   6.601  2.4570  0.0846 -1.1441
 5064SOL    HW215558   1.794   0.084   6.676 -0.1137  0.1738  0.2443
 5065SOL     OW15559   1.057   3.361   0.529 -0.4225  0.0273 -0.2719
 5065SOL    HW115560   1.023   3.309   0.601  0.0631  1.6525  1.2155
 5065SOL    HW215561   1.013   3.446   0.538 -1.3057 -0.0977 -2.6946
 5066SOL     OW15562   1.573   0.052   3.773 -0.2750 -0.1272 -0.4980
 5066SOL    HW115563   1.525  -0.018   3.728 -0.8771  0.1440 -0.2865
 5066SOL    HW215564   1.505   0.113   3.801  0.1869  0.1936 -0.0694
 5067SOL     OW15565   2.566   5.649   6.507  0.1817 -0.6452 -0.2739
 5067SOL    HW115566   2.621   5.724   6.531  0.2601 -0.8847  0.3224
 5067SOL    HW215567   2.502   5.684   6.445 -0.9733  0.3562  1.3994
 5068SOL     OW15568   4.174   2.040   3.972 -0.2055  0.1061 -0.3010
 5068SOL    HW115569   4.130   2.125   3.962  1.0577  1.0058  1.3245
 5068SOL    HW215570   4.129   1.983   3.910 -2.2722  1.4927 -0.1994
 5069SOL     OW15571   1.280   3.599   5.450  0.5833 -0.0247  0.3289
 5069SOL    HW115572   1.260   3.506   5.449 -2.0127  0.4367  0.7257
 5069SOL    HW215573   1.298   3.621   5.358 -2.5402 -0.3083 -0.4722
 5070SOL     OW15574   1.098   0.676   2.599 -0.2495  0.3941  0.1966
 5070SOL    HW115575   1.185   0.681   2.561  0.1603 -1.0077  0.8913
 5070SOL    HW215576   1.048   0.621   2.539 -0.4470  0.5921  0.1763
 5071SOL     OW15577   1.938   2.436   2.152  0.6292  0.1174  0.6161
 5071SOL    HW115578   1.996   2.361   2.164  1.4279  0.4312 -1.0113
 5071SOL    HW215579   1.855   2.408   2.190  0.4426 -2.2207 -1.2897
 5072SOL     OW15580   4.631   1.574   1.372 -0.4268  0.0862 -0.2913
 5072SOL    HW115581   4.536   1.580   1.364 -0.5374  0.7698  1.1860
 5072SOL    HW215582   4.656   1.504   1.311 -1.6755  0.9863 -1.8941
 5073SOL     OW15583   3.919   2.026   4.310  0.0874 -0.1376 -0.3798
 5073SOL    HW115584   3.879   1.951   4.266  1.2405 -0.7744 -0.3729
 5073SOL    HW215585   3.845   2.080   4.336 -0.8413 -1.7345  0.4595
 5074SOL     OW15586   5.889   1.391   6.143  0.1464  0.3435 -0.3382
 5074SOL    HW115587   5.850   1.441   6.071 -0.6062 -0.7225 -0.7075
 5074SOL    HW215588   5.906   1.305   6.105  1.4501  0.3178  0.2682
 5075SOL     OW15589   3.793   6.260   0.296 -0.3098 -0.4460 -0.4591
 5075SOL    HW115590   3.702   6.286   0.312 -0.1307  0.5455 -0.9641
 5075SOL    HW215591   3.845   6.325   0.344  0.1344 -1.5147  0.5422
 5076SOL     OW15592   6.571   5.227   4.296  0.0816 -0.4064 -0.3242
 5076SOL    HW115593   6.624   5.165   4.246 -1.7534 -0.5607 -2.2410
 5076SOL    HW215594   6.635   5.282   4.341  1.7910 -2.2428 -0.3622
 5077SOL     OW15595   1.714   2.153   6.453  0.1139  0.1284 -0.3448
 5077SOL    HW115596   1.674   2.080   6.501  0.1454  0.2748 -0.0904
 5077SOL    HW215597   1.650   2.224   6.459  0.0015  0.0638 -0.7537
 5078SOL     OW15598   6.657   3.767   3.329  0.4118  0.3273  0.1325
 5078SOL    HW115599   6.566   3.770   3.360  0.4084  0.6447  0.1002
 5078SOL    HW215600   6.700   3.837   3.376  0.2420  1.2928 -1.0793
 5079SOL     OW15601   2.443   1.865   4.912  0.0856  0.1884 -0.2173
 5079SOL    HW115602   2.404   1.789   4.955 -1.1800  0.8185 -0.2009
 5079SOL    HW215603   2.477   1.919   4.984 -0.9696  0.6680 -0.0556
 5080SOL     OW15604   2.705   5.387   5.672 -0.1882  0.4814  0.1445
 5080SOL    HW115605   2.653   5.320   5.716 -0.6502  0.4100 -0.4929
 5080SOL    HW215606   2.698   5.366   5.579 -0.7172  1.6820 -0.0999
 5081SOL     OW15607   3.297   2.253   6.759  0.6011  0.1993 -0.1317
 5081SOL    HW115608   3.312   2.169   6.803 -1.6201 -0.5922 -0.7328
 5081SOL    HW215609   3.384   2.282   6.732  1.7606 -0.5123  2.4940
 5082SOL     OW15610   2.414   5.289   1.179 -0.2593  0.1297  0.4081
 5082SOL    HW115611   2.444   5.204   1.147  0.9710  0.1538  1.4281
 5082SOL    HW215612   2.350   5.318   1.114 -0.3243 -1.3404 -0.2181
 5083SOL     OW15613   0.947   3.723   4.863 -0.3848  0.2372 -0.1658
 5083SOL    HW115614   0.873   3.664   4.851 -0.7637  0.9614 -1.5481
 5083SOL    HW215615   0.921   3.780   4.935 -0.9319  0.1242 -0.2676
 5084SOL     OW15616   6.216   5.177   6.574 -0.1590 -0.6241 -0.8256
 5084SOL    HW115617   6.125   5.167   6.600 -0.6085  3.0458 -0.4047
 5084SOL    HW215618   6.218   5.152   6.482 -1.5483 -0.9798 -0.7812
 5085SOL     OW15619   0.481   0.220   5.042  0.5706 -0.2711 -0.6453
 5085SOL    HW115620   0.577   0.223   5.049  0.6227 -1.8613 -0.3659
 5085SOL    HW215621   0.458   0.131   5.067 -0.9925  0.0705 -0.7857
 5086SOL     OW15622   2.409   2.123   5.273 -0.1053 -0.1181  0.2336
 5086SOL    HW115623   2.342   2.056   5.281  0.6706 -0.9519 -0.0647
 5086SOL    HW215624   2.478   2.082   5.220  0.4407  0.8664  0.1532
 5087SOL     OW15625   5.334   3.813   3.015  0.3111  0.2962  0.3747
 5087SOL    HW115626   5.288   3.836   3.096  1.6541  0.2018  1.1820
 5087SOL    HW215627   5.306   3.880   2.952 -0.9199  0.2463  0.8244
 5088SOL     OW15628   6.068   1.598   0.349  0.4947  0.0079  0.5111
 5088SOL    HW115629   6.122   1.521   0.366  1.7588  0.7713  0.1638
 5088SOL    HW215630   6.025   1.616   0.432  1.8520  0.1541  1.2201
 5089SOL     OW15631   3.216   2.200   3.415  0.3712  0.0319  0.4750
 5089SOL    HW115632   3.230   2.288   3.449  0.3930  0.2737 -0.1455
 5089SOL    HW215633   3.126   2.179   3.440 -0.6397  1.3473 -1.7290
 5090SOL     OW15634   4.528   6.773   3.174  0.0890 -0.6172  0.3548
 5090SOL    HW115635   4.496   6.699   3.123 -1.0385 -0.2019  0.4426
 5090SOL    HW215636   4.455   6.798   3.230  0.8517 -0.1889  1.1991
 5091SOL     OW15637   2.727   3.067   3.722 -0.2568  0.0724 -0.2037
 5091SOL    HW115638   2.765   3.087   3.637  0.1557 -1.0478 -0.3006
 5091SOL    HW215639   2.799   3.078   3.784 -0.5310  0.7892  0.0023
 5092SOL     OW15640   2.926   6.355   4.876 -0.9000 -0.0876 -0.0117
 5092SOL    HW115641   2.946   6.274   4.829 -2.8644 -0.0583 -1.0026
 5092SOL    HW215642   3.011   6.387   4.906  0.2566 -1.0567 -2.0108
 5093SOL     OW15643   3.308   0.461   1.221  0.0044 -0.5226 -0.6059
 5093SOL    HW115644   3.243   0.527   1.245 -0.2656 -1.0139  0.0523
 5093SOL    HW215645   3.342   0.490   1.136 -1.0210 -0.2232 -0.9251
 5094SOL     OW15646   3.074   0.105   1.960  0.3176  0.0586  0.4205
 5094SOL    HW115647   3.104   0.015   1.952 -0.8994 -0.4691  1.4463
 5094SOL    HW215648   3.011   0.116   1.888  0.2221 -0.0257  0.4903
 5095SOL     OW15649   0.408   2.542   1.492  0.1560 -0.4213  0.0229
 5095SOL    HW115650   0.423   2.623   1.444 -0.1930  0.5063  1.4339
 5095SOL    HW215651   0.486   2.489   1.475 -0.0506 -0.2269 -1.7156
 5096SOL     OW15652   1.466   5.970   1.265  0.0156  0.3846  0.1433
 5096SOL    HW115653   1.523   6.022   1.208  0.4460 -0.5418 -0.3010
 5096SOL    HW215654   1.526   5.910   1.310 -0.6572 -1.1128 -0.8778
 5097SOL     OW15655   0.029   3.548   1.863 -0.5157  0.0807 -0.1780
 5097SOL    HW115656  -0.064   3.534   1.881 -0.8820  0.6367 -1.5075
 5097SOL    HW215657   0.033   3.637   1.828  0.2147 -0.6450 -2.0700
 5098SOL     OW15658   2.195   0.602   3.368 -0.6408 -0.4611 -0.2387
 5098SOL    HW115659   2.145   0.526   3.400 -1.8930  1.0886  1.7068
 5098SOL    HW215660   2.229   0.643   3.447 -0.4725  1.3223 -1.1914
 5099SOL     OW15661   0.973   6.095   3.005  0.0493 -0.1420  0.6298
 5099SOL    HW115662   0.929   6.172   2.970  1.7308  0.3753 -0.4425
 5099SOL    HW215663   0.976   6.033   2.932  0.9855 -0.2048  0.7107
 5100SOL     OW15664   3.716   2.598   6.202 -0.2699 -0.3421  0.3048
 5100SOL    HW115665   3.623   2.579   6.201 -0.8607  2.2110 -1.5979
 5100SOL    HW215666   3.754   2.535   6.141 -0.3154 -2.7012  2.5151
 5101SOL     OW15667   3.564   6.515   0.903  0.1214 -0.3960 -0.0210
 5101SOL    HW115668   3.624   6.454   0.946 -0.9000 -2.0381 -0.8232
 5101SOL    HW215669   3.477   6.486   0.930 -0.4059  0.3756 -0.8525
 5102SOL     OW15670   3.747   3.878   2.551  0.3674  0.1303  0.6794
 5102SOL    HW115671   3.807   3.834   2.612  0.4545  2.2619  2.2385
 5102SOL    HW215672   3.803   3.905   2.478  0.7501 -0.2903  0.8092
 5103SOL     OW15673   3.109   1.981   2.154  0.3750  0.0359  0.1718
 5103SOL    HW115674   3.125   1.958   2.062  3.9989 -0.1510  0.7135
 5103SOL    HW215675   3.069   2.068   2.150  0.3147 -0.0423 -1.5990
 5104SOL     OW15676   6.792   1.083   0.200  0.1877 -0.1250 -0.9254
 5104SOL    HW115677   6.782   1.056   0.109 -0.0469 -0.2160 -0.8721
 5104SOL    HW215678   6.828   1.006   0.244  0.7027  0.0521 -1.0229
 5105SOL     OW15679   4.207   3.693   1.324 -0.3715 -0.0969  0.7106
 5105SOL    HW115680   4.209   3.789   1.328 -1.4309 -0.0514  0.3933
 5105SOL    HW215681   4.280   3.670   1.268 -1.7313  0.6846 -1.4950
 5106SOL     OW15682   3.391   0.245   1.513 -0.2198 -0.3364  0.2500
 5106SOL    HW115683   3.481   0.278   1.510  0.2571 -1.5297  0.7579
 5106SOL    HW215684   3.386   0.197   1.596 -1.6960  0.7014  0.8070
 5107SOL     OW15685   2.456   0.935   0.380 -0.2196 -0.2214  0.1879
 5107SOL    HW115686   2.389   0.897   0.324 -1.1408  0.7114  0.6385
 5107SOL    HW215687   2.520   0.864   0.392 -1.9355 -1.6877  1.1233
 5108SOL     OW15688   0.241   0.822   3.437  0.4660  0.3322 -0.2176
 5108SOL    HW115689   0.224   0.838   3.344 -0.2863 -0.3127 -0.1946
 5108SOL    HW215690   0.158   0.841   3.481  1.0242  1.3830  0.4341
 5109SOL     OW15691   5.326   0.464   5.672 -0.5839 -0.6991  0.5913
 5109SOL    HW115692   5.382   0.392   5.699  0.0777  0.4031  2.2780
 5109SOL    HW215693   5.365   0.542   5.712 -0.7656  0.7683 -1.8811
 5110SOL     OW15694   6.726   3.166   5.706  0.3966  0.3559 -0.1411
 5110SOL    HW115695   6.783   3.105   5.752  0.8800  0.5964 -0.4092
 5110SOL    HW215696   6.701   3.119   5.626  0.0906  0.1909  0.0501
 5111SOL     OW15697   0.162   4.027   2.555  0.2682 -0.3517  0.5747
 5111SOL    HW115698   0.226   4.020   2.484  1.5366 -3.0934  1.8100
 5111SOL    HW215699   0.210   4.071   2.625 -0.3531  0.6456  0.3840
 5112SOL     OW15700   6.627   5.962   2.446  0.0202  0.3409 -0.2836
 5112SOL    HW115701   6.622   6.057   2.436 -0.3931  0.1971 -1.7075
 5112SOL    HW215702   6.721   5.944   2.451  0.1288  0.7822 -0.6048
 5113SOL     OW15703   2.070   2.658   6.572 -0.2503  0.2991  0.2188
 5113SOL    HW115704   2.016   2.731   6.539 -1.5254 -1.1957 -1.2009
 5113SOL    HW215705   2.133   2.642   6.502 -0.3537 -0.3102  0.2574
 5114SOL     OW15706   6.695   1.378   1.008  0.0004 -0.9250  0.5764
 5114SOL    HW115707   6.629   1.420   1.063  0.2078  1.8879 -1.1100
 5114SOL    HW215708   6.649   1.359   0.926  1.0499  0.4994 -0.3926
 5115SOL     OW15709   3.390   3.612   5.778  0.1776 -0.3264  0.2172
 5115SOL    HW115710   3.433   3.536   5.739  1.4466  0.6971 -0.4203
 5115SOL    HW215711   3.367   3.583   5.867 -1.0679 -2.0560 -0.5989
 5116SOL     OW15712   4.668   0.810   6.555  0.1577 -0.1178  0.1332
 5116SOL    HW115713   4.630   0.793   6.468 -0.5732  1.2310  0.1597
 5116SOL    HW215714   4.603   0.866   6.599  1.3370  0.7061  0.8866
 5117SOL     OW15715   0.341   6.394   0.908 -0.0329  0.1729  0.5227
 5117SOL    HW115716   0.359   6.375   1.000  1.6283  0.8972  0.3775
 5117SOL    HW215717   0.417   6.445   0.879 -0.0258 -0.9097 -1.5191
 5118SOL     OW15718   5.321   2.376   4.498  0.8415  0.4143  0.2553
 5118SOL    HW115719   5.340   2.410   4.585 -0.1840  0.7458  0.3631
 5118SOL    HW215720   5.360   2.289   4.497 -2.0696 -1.0828  2.3186
 5119SOL     OW15721   6.385   5.921   4.385 -0.5187  0.4245 -0.0553
 5119SOL    HW115722   6.383   6.004   4.336 -0.3288  0.0882 -0.6455
 5119SOL    HW215723   6.296   5.912   4.420 -0.7080  0.5848 -0.4899
 5120SOL     OW15724   1.044   5.854   4.669  0.7298 -0.4786 -0.1873
 5120SOL    HW115725   1.016   5.840   4.759 -0.0787 -1.3864 -0.5597
 5120SOL    HW215726   0.975   5.908   4.630  0.3475 -1.2698 -0.6349
 5121SOL     OW15727   3.935   0.006   1.083  0.3177 -0.0733  0.0739
 5121SOL    HW115728   4.022   0.037   1.108  0.3771 -1.2621  1.4340
 5121SOL    HW215729   3.880   0.085   1.088  1.1092  0.4840  0.2004
 5122SOL     OW15730   5.255   5.116   5.103 -0.1515  0.2471 -0.1719
 5122SOL    HW115731   5.273   5.161   5.185  1.3805 -0.2179 -0.2150
 5122SOL    HW215732   5.336   5.069   5.083 -1.3947 -1.9138 -0.5120
 5123SOL     OW15733   5.492   0.909   3.309 -0.9579 -0.0659  0.4394
 5123SOL    HW115734   5.533   0.927   3.393  0.9137  0.1480 -0.4737
 5123SOL    HW215735   5.495   0.814   3.300 -0.8974 -0.0668  0.4759
 5124SOL     OW15736   1.141   0.027   2.171 -0.2514  0.1340  0.5781
 5124SOL    HW115737   1.192   0.079   2.109  1.4331 -0.3311  1.5047
 5124SOL    HW215738   1.100  -0.040   2.118  1.2081 -0.2947 -0.0665
 5125SOL     OW15739   4.614   6.781   6.202 -0.5286  0.0283  0.7856
 5125SOL    HW115740   4.699   6.805   6.165 -0.9253 -0.6871 -0.6687
 5125SOL    HW215741   4.635   6.739   6.285  0.3624  2.2096  1.7375
 5126SOL     OW15742   2.977   5.114   4.644  0.1371 -0.3560  0.7252
 5126SOL    HW115743   3.064   5.141   4.613 -0.2944  2.0945  1.4178
 5126SOL    HW215744   2.924   5.106   4.565  0.6493 -0.5031  0.3955
 5127SOL     OW15745   4.835   3.542   2.423  0.0267  0.0954  0.3368
 5127SOL    HW115746   4.825   3.529   2.517 -0.3009 -1.1334  0.1560
 5127SOL    HW215747   4.923   3.510   2.403  0.5829  1.5214  0.3957
 5128SOL     OW15748   2.537   4.894   0.178 -0.1003 -0.5670 -0.2933
 5128SOL    HW115749   2.506   4.981   0.202  2.3337  0.2224  0.2965
 5128SOL    HW215750   2.485   4.834   0.232  0.0527  0.7068  1.3336
 5129SOL     OW15751   0.397   6.613   3.031 -0.7801 -0.0728  0.4943
 5129SOL    HW115752   0.329   6.632   2.966 -0.4713  0.2036  0.2538
 5129SOL    HW215753   0.390   6.518   3.045 -0.2697 -0.2838 -0.5894
 5130SOL     OW15754   0.514   3.363   0.666 -0.2204  0.2379  0.1496
 5130SOL    HW115755   0.521   3.268   0.663  1.1441  0.2442  1.7535
 5130SOL    HW215756   0.420   3.381   0.659 -0.4836 -1.2052 -0.2632
 5131SOL     OW15757   2.264   5.259   1.464 -0.0081  0.6180 -0.1400
 5131SOL    HW115758   2.347   5.300   1.441 -0.6020  1.6489 -0.5287
 5131SOL    HW215759   2.276   5.166   1.441  0.5866  0.9941 -1.4435
 5132SOL     OW15760   6.043   5.751   0.743  0.5114 -0.8120 -0.0248
 5132SOL    HW115761   5.986   5.817   0.702  0.4887 -0.2387  0.8985
 5132SOL    HW215762   6.129   5.793   0.745  0.2243 -0.2501  1.7799
 5133SOL     OW15763   4.445   2.143   3.432  0.5125 -0.7901  0.3587
 5133SOL    HW115764   4.492   2.093   3.365 -1.9328 -1.8318 -0.7265
 5133SOL    HW215765   4.449   2.088   3.510 -1.4300 -2.4318 -0.5942
 5134SOL     OW15766   3.191   6.240   3.690  0.1003  0.6893  0.5404
 5134SOL    HW115767   3.136   6.197   3.756 -1.1357  0.5601 -0.5292
 5134SOL    HW215768   3.132   6.303   3.649  0.6135  0.2218 -0.9635
 5135SOL     OW15769   4.374   5.549   4.234 -0.2016 -0.1765 -0.6668
 5135SOL    HW115770   4.442   5.487   4.205  0.2049  0.3133 -0.7766
 5135SOL    HW215771   4.303   5.537   4.171  0.3916  0.3707 -1.4724
 5136SOL     OW15772   5.205   2.392   3.173 -0.1215  0.5056  0.1537
 5136SOL    HW115773   5.124   2.384   3.224 -0.3748 -0.0068 -0.3105
 5136SOL    HW215774   5.232   2.483   3.183 -1.1282  0.8627 -0.2241
 5137SOL     OW15775   2.977   5.426   3.591  0.0910  0.5190  0.1905
 5137SOL    HW115776   3.059   5.404   3.635  0.1813  0.7902  0.1625
 5137SOL    HW215777   3.001   5.494   3.528 -0.1572  0.6116  0.1923
 5138SOL     OW15778   5.870   3.969   3.604  0.0216  0.3555 -0.8549
 5138SOL    HW115779   5.951   3.924   3.583 -0.4249 -1.0304  0.2446
 5138SOL    HW215780   5.805   3.899   3.613 -1.6323  1.5043 -2.9798
 5139SOL     OW15781   0.816   1.657   2.127  0.3443 -0.4834 -0.0362
 5139SOL    HW115782   0.856   1.632   2.043 -0.7286 -0.0006 -0.7084
 5139SOL    HW215783   0.722   1.649   2.112  0.1169  0.3292  0.8966
 5140SOL     OW15784   1.631   3.835   0.712  0.5214  0.0777 -0.3115
 5140SOL    HW115785   1.573   3.842   0.789  0.7552 -1.5869  0.0545
 5140SOL    HW215786   1.661   3.925   0.697 -0.4295  0.6254  0.8440
 5141SOL     OW15787   1.460   3.374   4.823 -0.0771  0.4371  0.0120
 5141SOL    HW115788   1.371   3.349   4.851 -0.5307  0.5073 -1.3051
 5141SOL    HW215789   1.516   3.345   4.895 -1.0135 -0.8665  0.2671
 5142SOL     OW15790   4.733   5.417   1.025  0.0922  0.3740  0.6959
 5142SOL    HW115791   4.816   5.384   0.990 -0.4044 -1.7267  1.3395
 5142SOL    HW215792   4.673   5.417   0.951  0.6822  2.1804  0.1591
 5143SOL     OW15793   2.871   1.463   5.670  0.1354  0.7734 -0.2523
 5143SOL    HW115794   2.877   1.446   5.576  0.5891  1.1068 -0.2900
 5143SOL    HW215795   2.944   1.413   5.707  0.9150  1.8499 -0.2618
 5144SOL     OW15796   1.546   4.587   0.198 -0.4606  0.3281  0.1023
 5144SOL    HW115797   1.629   4.598   0.245 -0.7152  0.0921  0.6098
 5144SOL    HW215798   1.564   4.620   0.110  0.2979 -0.1255  0.0801
 5145SOL     OW15799   0.648   2.903   0.399 -0.6876 -0.4850  0.1790
 5145SOL    HW115800   0.642   2.832   0.334 -0.3722 -1.1893  0.9008
 5145SOL    HW215801   0.595   2.871   0.473 -0.6210  0.0825  0.4728
 5146SOL     OW15802   4.976   6.508   4.816  0.4613 -0.0302 -0.2131
 5146SOL    HW115803   4.889   6.488   4.851  0.1968  1.5655  0.0809
 5146SOL    HW215804   4.978   6.463   4.731 -0.0332 -1.3818  0.4473
 5147SOL     OW15805   4.415   3.454   5.249 -0.0956 -0.5294  0.5798
 5147SOL    HW115806   4.465   3.506   5.312 -0.9176 -0.1130  0.9056
 5147SOL    HW215807   4.447   3.482   5.164 -3.5345  4.0331  0.3890
 5148SOL     OW15808   4.323   6.476   2.239  0.1984  0.2037  0.0282
 5148SOL    HW115809   4.230   6.485   2.218  0.6840  0.3821 -2.2578
 5148SOL    HW215810   4.328   6.501   2.331 -1.9589  0.5986  0.1084
 5149SOL     OW15811   4.341   6.239   4.498 -0.1706 -0.1136 -0.2940
 5149SOL    HW115812   4.400   6.295   4.448 -0.4017 -0.1511 -0.6115
 5149SOL    HW215813   4.259   6.240   4.449 -0.4471 -0.0316  0.1675
 5150SOL     OW15814   0.197   1.290   3.208  0.4614 -0.2094  0.0408
 5150SOL    HW115815   0.244   1.239   3.141  3.0558  1.7484  0.2146
 5150SOL    HW215816   0.261   1.353   3.240 -1.7282  1.2371  1.9348
 5151SOL     OW15817   2.046   4.035   5.966 -0.3068 -0.1399 -0.2555
 5151SOL    HW115818   2.108   3.999   5.903  1.3214  1.3670  0.4177
 5151SOL    HW215819   2.051   3.976   6.042 -0.5469 -0.6344 -0.6155
 5152SOL     OW15820   6.397   4.169   4.110  0.1600 -1.0910 -0.9852
 5152SOL    HW115821   6.368   4.175   4.019 -0.3089  0.3935 -0.7635
 5152SOL    HW215822   6.442   4.252   4.127  0.4359 -1.4338  0.0812
 5153SOL     OW15823   4.557   6.549   5.123  0.3210  0.1463 -0.8876
 5153SOL    HW115824   4.643   6.509   5.108  1.7161  3.1260 -1.6604
 5153SOL    HW215825   4.515   6.547   5.038  1.6694  2.8227 -1.7414
 5154SOL     OW15826   5.749   0.450   1.789  0.0453  0.3835 -0.0006
 5154SOL    HW115827   5.687   0.394   1.836  1.0795  0.4544  1.5176
 5154SOL    HW215828   5.829   0.398   1.784  0.4518  1.0183 -0.2133
 5155SOL     OW15829   1.480   4.335   3.485 -0.1017  0.2165 -0.1671
 5155SOL    HW115830   1.475   4.377   3.399  0.4818 -1.5229 -1.1006
 5155SOL    HW215831   1.390   4.313   3.507 -0.2868  0.9295 -0.1748
 5156SOL     OW15832   0.854   3.620   3.661 -0.2363  0.2572 -0.0526
 5156SOL    HW115833   0.890   3.536   3.688  0.5882  0.3966 -0.6766
 5156SOL    HW215834   0.889   3.634   3.573 -1.9957  0.3078 -0.7970
 5157SOL     OW15835   4.840   3.436   1.383 -0.0690 -0.2606 -0.6768
 5157SOL    HW115836   4.880   3.392   1.458 -0.8492  0.8464  0.4221
 5157SOL    HW215837   4.751   3.455   1.411 -0.0109  1.2397 -1.4208
 5158SOL     OW15838   6.633   3.069   4.339 -0.1018  0.2444  0.3593
 5158SOL    HW115839   6.564   3.032   4.284 -1.4421  0.9026  1.5256
 5158SOL    HW215840   6.621   3.163   4.332  0.9074  0.3794  0.3340
 5159SOL     OW15841   1.174   2.195   6.756  0.6105 -0.7020  0.3908
 5159SOL    HW115842   1.092   2.228   6.720  0.0844 -2.0784  0.2704
 5159SOL    HW215843   1.180   2.235   6.843 -0.1361 -0.5154  0.3611
 5160SOL     OW15844   3.283   0.473   3.003  0.0536 -0.6002 -0.1520
 5160SOL    HW115845   3.201   0.430   2.979  0.5414 -1.1020 -0.9489
 5160SOL    HW215846   3.316   0.510   2.921  1.4375 -1.8176 -0.1874
 5161SOL     OW15847   3.172   3.398   4.126  0.0475  0.3309 -0.2377
 5161SOL    HW115848   3.198   3.468   4.066  1.1482 -0.3934 -0.6439
 5161SOL    HW215849   3.228   3.411   4.203 -0.2915  0.3593  0.0037
 5162SOL     OW15850   1.173   1.470   3.523 -0.0803  0.1789  0.2702
 5162SOL    HW115851   1.134   1.515   3.598 -1.3374 -0.0209 -0.2282
 5162SOL    HW215852   1.151   1.378   3.537  2.5164 -0.3789  1.3149
 5163SOL     OW15853   4.511   2.898   6.081 -0.1105  0.0390  0.0013
 5163SOL    HW115854   4.548   2.958   6.146  1.4111  0.7316 -1.4204
 5163SOL    HW215855   4.447   2.951   6.033 -1.3497 -0.5161  0.9912
 5164SOL     OW15856   4.404   5.160   4.861 -0.1121 -0.1971 -0.1362
 5164SOL    HW115857   4.339   5.154   4.791 -0.9734 -0.2329  0.6490
 5164SOL    HW215858   4.437   5.250   4.856 -0.3303 -0.1348 -0.4491
 5165SOL     OW15859   5.351   1.109   0.823  0.2634 -0.6512  0.3363
 5165SOL    HW115860   5.322   1.166   0.751 -0.2703 -0.3165  0.8081
 5165SOL    HW215861   5.300   1.029   0.811 -0.7919 -0.1134  1.0848
 5166SOL     OW15862   4.429   0.745   2.930 -0.3480 -0.3595  0.4500
 5166SOL    HW115863   4.379   0.667   2.904  0.3422 -0.6139 -0.1130
 5166SOL    HW215864   4.468   0.721   3.014 -0.9799 -0.2401  0.7842
 5167SOL     OW15865   6.294   0.042   1.442  0.2056  0.6002 -0.0745
 5167SOL    HW115866   6.205   0.078   1.446  0.6008  1.5593  0.2659
 5167SOL    HW215867   6.343   0.105   1.390  1.0207  0.7901  0.9123
 5168SOL     OW15868   5.156   4.372   1.977 -0.5743 -0.4807  0.8541
 5168SOL    HW115869   5.062   4.366   1.995 -0.2051 -1.2549  2.6995
 5168SOL    HW215870   5.192   4.420   2.052  0.7670 -1.9895  1.2233
 5169SOL     OW15871   1.879   4.020   5.375  0.1783  0.6564  0.6022
 5169SOL    HW115872   1.946   3.961   5.410 -0.7724 -0.1880  1.0242
 5169SOL    HW215873   1.904   4.033   5.283 -0.2250 -1.3458  0.1659
 5170SOL     OW15874   0.084   5.290   5.571  0.4813 -0.0338  0.2551
 5170SOL    HW115875   0.112   5.342   5.647 -1.1770 -0.2611  1.0715
 5170SOL    HW215876  -0.003   5.257   5.596  0.4897 -1.2440 -1.2032
 5171SOL     OW15877   3.498   5.456   4.828  0.5107 -0.0064 -0.0885
 5171SOL    HW115878   3.553   5.379   4.812 -1.8067 -2.0054  0.9333
 5171SOL    HW215879   3.418   5.439   4.779  0.1874  2.1229 -0.3926
 5172SOL     OW15880   4.888   5.866   0.861  0.0327  0.6697 -0.4250
 5172SOL    HW115881   4.897   5.840   0.770 -0.7059 -0.6861 -0.1450
 5172SOL    HW215882   4.837   5.946   0.859  1.0730  1.3325 -1.2566
 5173SOL     OW15883   6.435   4.169   6.762  0.4172 -0.0911 -0.2097
 5173SOL    HW115884   6.349   4.128   6.762  0.6809 -0.6779 -1.2273
 5173SOL    HW215885   6.429   4.238   6.695  0.1544  1.1872  1.0797
 5174SOL     OW15886   2.905   0.657   4.026  0.1109  0.0974 -0.0881
 5174SOL    HW115887   2.874   0.695   3.944 -2.4116  0.5446  0.9730
 5174SOL    HW215888   2.912   0.563   4.008  0.3698  0.2724 -0.9930
 5175SOL     OW15889   5.490   1.448   2.110  0.2240  0.3784 -0.2268
 5175SOL    HW115890   5.444   1.475   2.190 -0.9981  1.5198 -1.2693
 5175SOL    HW215891   5.452   1.502   2.041  2.7671  0.9799 -1.2607
 5176SOL     OW15892   0.210   5.868   6.549  0.4625 -0.1665 -0.5979
 5176SOL    HW115893   0.251   5.799   6.496  1.2168  0.6291 -1.0819
 5176SOL    HW215894   0.279   5.895   6.610 -0.2328 -0.7067  0.4365
 5177SOL     OW15895   1.843   1.042   5.554 -0.2388  0.3102  0.1573
 5177SOL    HW115896   1.890   0.961   5.574 -0.5475  0.2627  0.7401
 5177SOL    HW215897   1.752   1.014   5.540 -0.5136  0.6253  1.1553
 5178SOL     OW15898   0.796   5.622   2.501  0.5216 -0.8090 -0.3304
 5178SOL    HW115899   0.866   5.670   2.456 -0.1557  0.0747 -0.4806
 5178SOL    HW215900   0.740   5.590   2.430 -0.9783  1.2483 -0.1592
 5179SOL     OW15901   0.098   2.888   6.275 -0.1002 -0.0526 -0.2889
 5179SOL    HW115902   0.102   2.935   6.358 -0.2574 -0.8387  0.1704
 5179SOL    HW215903   0.085   2.957   6.209 -1.1236  0.4844  0.4476
 5180SOL     OW15904   6.680   5.365   6.479 -0.1360 -0.3082  0.2228
 5180SOL    HW115905   6.730   5.323   6.549  1.7064  1.4550  0.0537
 5180SOL    HW215906   6.592   5.327   6.486  0.4902 -1.5316  2.2714
 5181SOL     OW15907   3.385   5.679   1.773 -0.1132 -0.2104 -0.0087
 5181SOL    HW115908   3.477   5.706   1.782 -0.9894  3.0037  0.7363
 5181SOL    HW215909   3.368   5.685   1.679 -0.8697  5.1763  0.1209
 5182SOL     OW15910   3.588   4.247   4.312 -0.4421  0.3018  0.8635
 5182SOL    HW115911   3.559   4.262   4.402  0.4926 -0.3381  1.2851
 5182SOL    HW215912   3.683   4.240   4.318 -0.4304 -0.5527 -0.0557
 5183SOL     OW15913   5.273   4.909   0.713 -0.2331  0.7803 -0.0048
 5183SOL    HW115914   5.194   4.955   0.687 -0.1406  1.8232  1.4781
 5183SOL    HW215915   5.326   4.906   0.632 -0.4967  2.7662 -0.3113
 5184SOL     OW15916   6.620   4.650   6.161 -0.3392 -0.1494  0.1061
 5184SOL    HW115917   6.564   4.612   6.229  0.0335  1.4563  1.3743
 5184SOL    HW215918   6.577   4.733   6.138  0.9108  0.5906  0.3320
 5185SOL     OW15919   4.883   3.960   4.298 -0.1518 -0.7309  0.0063
 5185SOL    HW115920   4.952   3.975   4.363  0.4642  1.1710 -1.0234
 5185SOL    HW215921   4.926   3.970   4.213 -1.4502 -0.7203 -0.6811
 5186SOL     OW15922   5.334   0.340   4.954  0.6546 -0.1275 -0.2170
 5186SOL    HW115923   5.387   0.409   4.996  0.1967 -0.2245  0.5362
 5186SOL    HW215924   5.291   0.296   5.027 -1.6946  0.9387 -0.8644
 5187SOL     OW15925   4.119   4.582   5.035  0.3593  0.5835 -0.1489
 5187SOL    HW115926   4.098   4.526   5.110 -0.8230  0.2723 -0.6968
 5187SOL    HW215927   4.188   4.534   4.988 -2.0611 -1.5716 -1.7921
 5188SOL     OW15928   1.241   1.309   6.554  0.2278 -0.2064 -0.1326
 5188SOL    HW115929   1.151   1.328   6.528  0.0257 -1.4086 -0.3593
 5188SOL    HW215930   1.294   1.361   6.493 -0.2816 -1.0719 -1.3578
 5189SOL     OW15931   0.961   3.248   5.873 -0.1748 -0.4579  0.0771
 5189SOL    HW115932   0.882   3.195   5.886  0.1556 -0.7412  1.0748
 5189SOL    HW215933   0.941   3.331   5.915 -0.7438  0.3026 -1.6083
 5190SOL     OW15934   5.745   4.021   6.746 -0.0005  0.5781 -0.3967
 5190SOL    HW115935   5.830   4.065   6.743  1.7342 -2.1772  2.7965
 5190SOL    HW215936   5.753   3.949   6.684  0.1097  0.1391  0.1262
 5191SOL     OW15937   3.576   3.547   6.328 -0.2408 -0.0486 -0.2136
 5191SOL    HW115938   3.515   3.590   6.268  0.3849 -0.9829 -1.5627
 5191SOL    HW215939   3.618   3.619   6.375 -1.5795  0.6492 -0.0363
 5192SOL     OW15940   6.535   6.041   1.365 -0.1827  0.0752 -0.1740
 5192SOL    HW115941   6.461   6.012   1.312 -0.0789 -1.8197  0.6462
 5192SOL    HW215942   6.571   5.960   1.403  0.6373  1.2139  1.6063
 5193SOL     OW15943   6.082   0.030   1.730 -0.5445 -0.2628 -0.5177
 5193SOL    HW115944   6.018   0.100   1.735  0.4775  0.7990 -1.4502
 5193SOL    HW215945   6.052  -0.025   1.657 -0.2082  0.4594 -1.2181
 5194SOL     OW15946   3.135   1.120   3.137  0.2288 -0.2483 -0.3852
 5194SOL    HW115947   3.157   1.140   3.228  1.4469 -1.7783 -0.2894
 5194SOL    HW215948   3.059   1.062   3.142 -0.1203  0.2058 -0.3861
 5195SOL     OW15949   4.412   1.972   3.156  0.3792 -0.1179  0.7546
 5195SOL    HW115950   4.486   1.964   3.217  1.8731  0.0680 -0.9524
 5195SOL    HW215951   4.451   2.004   3.075 -1.6781  0.4424 -0.0757
 5196SOL     OW15952   4.710   1.960   1.539 -0.0277  0.2630  0.5978
 5196SOL    HW115953   4.676   1.916   1.617 -1.0894  0.4085  0.2335
 5196SOL    HW215954   4.800   1.983   1.562 -0.0464 -0.4486  1.4657
 5197SOL     OW15955   4.574   1.322   3.706 -0.6565  0.1441  0.1899
 5197SOL    HW115956   4.637   1.255   3.734  0.4899  0.5920 -1.1710
 5197SOL    HW215957   4.602   1.345   3.618 -3.5361 -0.5558 -1.0223
 5198SOL     OW15958   3.143   6.112   4.862 -0.0671 -0.5909 -0.5308
 5198SOL    HW115959   3.222   6.076   4.903  0.1224 -0.8933 -1.1454
 5198SOL    HW215960   3.159   6.206   4.856  0.3057 -0.6697 -0.7795
 5199SOL     OW15961   4.644   3.890   4.079 -0.0782 -0.3172  0.1544
 5199SOL    HW115962   4.622   3.942   4.156 -1.2555 -1.0220  0.3220
 5199SOL    HW215963   4.713   3.831   4.108 -2.0806 -2.1643  1.3628
 5200SOL     OW15964   2.717   3.839   5.590  0.0920 -0.3449  0.0603
 5200SOL    HW115965   2.772   3.904   5.635 -2.0656 -0.4020  3.0905
 5200SOL    HW215966   2.642   3.889   5.559 -0.1659 -0.9220 -0.2628
 5201SOL     OW15967   1.077   3.741   6.131 -0.0851 -0.1936 -0.2028
 5201SOL    HW115968   1.013   3.673   6.150 -1.1890  0.4147 -1.5430
 5201SOL    HW215969   1.105   3.772   6.217 -0.2935 -1.6479  0.4187
 5202SOL     OW15970   0.599   2.388   0.810  0.2183  0.0162 -0.5995
 5202SOL    HW115971   0.539   2.462   0.813  1.2433  0.8572  0.5607
 5202SOL    HW215972   0.580   2.339   0.890  2.0345  1.1417  0.5952
 5203SOL     OW15973   1.723   4.342   0.140  0.1828  0.5562  0.0045
 5203SOL    HW115974   1.753   4.429   0.167 -0.7961  0.6418  0.9044
 5203SOL    HW215975   1.639   4.359   0.096  0.1904  0.0965 -0.1951
 5204SOL     OW15976   3.268   0.789   0.636  0.9758 -0.2421  0.4295
 5204SOL    HW115977   3.258   0.708   0.686 -1.6295 -0.0116  0.4056
 5204SOL    HW215978   3.326   0.766   0.564  0.6952 -1.9402  0.7173
 5205SOL     OW15979   3.754   2.872   1.795 -0.3975  0.5884  0.0644
 5205SOL    HW115980   3.674   2.854   1.745 -0.8081  2.4922 -0.0140
 5205SOL    HW215981   3.723   2.916   1.874  0.4053 -0.8305  1.2193
 5206SOL     OW15982   2.980   6.771   4.946  0.2373 -0.0815  0.2772
 5206SOL    HW115983   3.016   6.856   4.921 -0.5959 -0.1265 -1.2300
 5206SOL    HW215984   3.054   6.722   4.979  0.9026  0.9389  0.3467
 5207SOL     OW15985   2.772   0.839   1.959 -0.3250 -0.6957  0.3682
 5207SOL    HW115986   2.783   0.779   2.033  0.2028 -0.0482  0.8312
 5207SOL    HW215987   2.679   0.858   1.957 -0.6820 -2.4027 -0.4914
 5208SOL     OW15988   4.271   0.805   0.120  0.2848  0.0782 -0.3797
 5208SOL    HW115989   4.247   0.764   0.204  2.7531 -0.4784  0.1419
 5208SOL    HW215990   4.207   0.770   0.058 -0.6256 -0.7764  0.9597
 5209SOL     OW15991   5.798   4.680   5.361  0.3946 -0.4535  0.2680
 5209SOL    HW115992   5.725   4.714   5.310  0.8949  0.0906 -0.0961
 5209SOL    HW215993   5.759   4.613   5.418 -0.9634  1.8465  2.2446
 5210SOL     OW15994   2.545   4.627   2.283 -0.2284  0.1050 -0.1390
 5210SOL    HW115995   2.548   4.704   2.341  3.0220 -0.4391  0.6505
 5210SOL    HW215996   2.587   4.656   2.203  0.8522 -0.7346  0.0953
 5211SOL     OW15997   1.076   5.152   0.064  0.0427 -0.2952 -0.2508
 5211SOL    HW115998   1.123   5.208   0.127  0.9783 -1.4224  0.0901
 5211SOL    HW215999   1.087   5.197  -0.020  0.2766  0.3369  0.1075
 5212SOL     OW16000   5.515   1.157   2.232 -0.4454  0.1264  0.1417
 5212SOL    HW116001   5.585   1.156   2.166  1.5581  1.0621  2.1346
 5212SOL    HW216002   5.560   1.153   2.316 -2.9338 -1.7410  1.5446
 5213SOL     OW16003   4.646   4.799   4.943 -0.4726 -0.5021  0.3991
 5213SOL    HW116004   4.740   4.795   4.926 -0.3698  1.1889  0.3560
 5213SOL    HW216005   4.605   4.803   4.856 -0.6507 -1.9383  0.3995
 5214SOL     OW16006   6.730   4.752   0.463  0.5678  0.2000 -0.3982
 5214SOL    HW116007   6.644   4.742   0.423 -0.2215  3.6442  0.1290
 5214SOL    HW216008   6.787   4.781   0.391  0.6281  0.5253 -0.2205
 5215SOL     OW16009   6.196   1.744   3.321 -0.3383  0.0178  0.7731
 5215SOL    HW116010   6.240   1.795   3.390  0.0059  2.4061 -1.0851
 5215SOL    HW216011   6.267   1.712   3.266 -0.7022 -0.5193  0.6043
 5216SOL     OW16012   5.887   5.526   4.982 -0.0395 -0.7831  0.1676
 5216SOL    HW116013   5.880   5.498   5.073 -0.6350 -2.3972 -0.3482
 5216SOL    HW216014   5.898   5.445   4.932  1.6671  0.1541 -1.0944
 5217SOL     OW16015   3.131   0.706   6.705 -0.1598 -0.0103  0.0219
 5217SOL    HW116016   3.140   0.614   6.731  0.4914  0.2420  0.7228
 5217SOL    HW216017   3.088   0.702   6.620  0.4101 -0.9963 -0.2398
 5218SOL     OW16018   4.108   3.573   6.698 -0.5284 -0.3119  0.0998
 5218SOL    HW116019   4.136   3.660   6.726 -0.0983  0.4573 -2.4460
 5218SOL    HW216020   4.026   3.558   6.746  0.1299  0.8280  1.6762
 5219SOL     OW16021   1.475   2.311   2.442 -0.3698  0.0921 -0.2451
 5219SOL    HW116022   1.398   2.328   2.497  0.2856  1.5198  0.2813
 5219SOL    HW216023   1.442   2.316   2.352 -1.3321 -1.6315 -0.0253
 5220SOL     OW16024   6.331   1.075   2.150 -0.2182 -0.1109 -0.2463
 5220SOL    HW116025   6.390   1.142   2.184 -1.9249  0.9251  0.8500
 5220SOL    HW216026   6.246   1.119   2.144 -0.9648 -1.6169 -1.4903
 5221SOL     OW16027   0.163   1.569   1.016  0.5938 -0.4415 -0.6795
 5221SOL    HW116028   0.213   1.539   1.092  0.9567 -0.4765 -0.9275
 5221SOL    HW216029   0.086   1.512   1.013  0.9550 -0.9284 -0.7775
 5222SOL     OW16030   4.879   0.406   1.169 -0.1538 -0.0754 -0.3873
 5222SOL    HW116031   4.936   0.445   1.103 -0.9613  1.6903 -0.0847
 5222SOL    HW216032   4.832   0.480   1.208 -0.5355 -1.1837  1.3798
 5223SOL     OW16033   6.213   4.503   3.476 -0.1102  0.0226 -0.3418
 5223SOL    HW116034   6.249   4.500   3.387  1.0698  0.9145  0.0723
 5223SOL    HW216035   6.131   4.455   3.471 -1.3907  2.2270 -2.5476
 5224SOL     OW16036   5.385   4.211   1.103 -0.1651  0.1749  0.3115
 5224SOL    HW116037   5.458   4.149   1.106 -0.7064 -0.4205  1.8936
 5224SOL    HW216038   5.318   4.166   1.051  0.8523  1.0812 -1.9159
 5225SOL     OW16039   4.351   2.774   5.022  0.2673 -0.0506  0.4665
 5225SOL    HW116040   4.298   2.823   5.084  2.2099  1.4968  1.0339
 5225SOL    HW216041   4.418   2.731   5.076 -0.2750 -1.8546 -0.2217
 5226SOL     OW16042   4.170   1.100   5.032 -0.2165  0.2023 -0.0348
 5226SOL    HW116043   4.201   1.180   5.075 -0.7438 -0.1062  0.9617
 5226SOL    HW216044   4.123   1.131   4.954  0.0200  0.8307  0.0695
 5227SOL     OW16045   3.726   2.752   5.190  0.0510  0.1312 -0.0146
 5227SOL    HW116046   3.684   2.758   5.276  2.4074 -1.1746  1.3260
 5227SOL    HW216047   3.805   2.804   5.198  0.8303 -0.8357 -1.0440
 5228SOL     OW16048   1.627   3.083   6.597  0.5886  0.1623  0.3333
 5228SOL    HW116049   1.717   3.111   6.581  0.1110  0.6943 -1.7341
 5228SOL    HW216050   1.629   3.046   6.685  2.6227  0.9599  0.6840
 5229SOL     OW16051   3.593   3.880   3.444 -0.3027 -0.6470  0.0856
 5229SOL    HW116052   3.572   3.966   3.406 -0.6433 -0.8491 -0.1888
 5229SOL    HW216053   3.579   3.818   3.373 -0.8055 -1.0101  0.4949
 5230SOL     OW16054   0.815   3.795   0.388 -0.6702 -0.2799  0.0276
 5230SOL    HW116055   0.795   3.702   0.391  2.5016 -1.0609  0.7742
 5230SOL    HW216056   0.841   3.812   0.298  0.5730 -0.6078  0.3076
 5231SOL     OW16057   3.076   2.614   4.426  0.1090 -0.1683 -0.3680
 5231SOL    HW116058   3.137   2.576   4.362  1.5067 -0.4157  1.0541
 5231SOL    HW216059   3.118   2.695   4.454 -0.1496 -0.3951  0.7163
 5232SOL     OW16060   0.243   3.894   1.162  0.1345 -0.1513  0.5712
 5232SOL    HW116061   0.206   3.850   1.238 -0.4573  2.9371  2.2446
 5232SOL    HW216062   0.185   3.969   1.147  2.2733  1.3890 -0.5809
 5233SOL     OW16063   0.445   0.650   2.894  0.1130  0.1128 -0.2085
 5233SOL    HW116064   0.391   0.726   2.918  0.9177  0.4967  0.4175
 5233SOL    HW216065   0.517   0.651   2.956 -0.7022 -2.1207  0.9096
 5234SOL     OW16066   0.125   4.198   3.634 -0.1493  0.2593 -0.1110
 5234SOL    HW116067   0.043   4.188   3.586 -1.2452  0.4167  1.6583
 5234SOL    HW216068   0.188   4.143   3.586 -2.0903 -2.5862  0.3841
 5235SOL     OW16069   0.540   5.869   3.811 -0.4611  0.4786 -0.2891
 5235SOL    HW116070   0.586   5.792   3.843 -0.8466  0.6618  0.7482
 5235SOL    HW216071   0.605   5.939   3.815 -0.8672  0.8200  1.5303
 5236SOL     OW16072   4.764   4.096   2.097  0.4903 -0.5782  0.6602
 5236SOL    HW116073   4.795   4.005   2.104 -0.2510 -0.8268  0.7438
 5236SOL    HW216074   4.762   4.113   2.003 -0.3041 -0.9797  0.5957
 5237SOL     OW16075   5.985   0.399   3.726 -0.1382 -0.0749  0.0035
 5237SOL    HW116076   6.051   0.455   3.766 -1.7343  1.3348  0.7932
 5237SOL    HW216077   5.903   0.447   3.735 -1.1328 -1.2422 -1.9462
 5238SOL     OW16078   3.160   4.606   3.106 -0.2226  0.4517 -0.3424
 5238SOL    HW116079   3.127   4.672   3.045 -0.9836  0.0727 -0.3525
 5238SOL    HW216080   3.254   4.624   3.113 -0.0243  0.2400 -1.9615
 5239SOL     OW16081   2.777   4.226   5.420  0.2854  0.9039 -0.1106
 5239SOL    HW116082   2.807   4.202   5.508  1.1969 -1.5501 -0.9955
 5239SOL    HW216083   2.686   4.251   5.432  0.3017  0.3347  1.5070
 5240SOL     OW16084   6.418   2.753   3.674 -0.2626 -0.0981  0.2841
 5240SOL    HW116085   6.387   2.759   3.584  0.5181  0.9796  0.0687
 5240SOL    HW216086   6.339   2.734   3.726 -0.7143 -0.7190 -0.6132
 5241SOL     OW16087   1.124   4.085   1.762 -0.9467 -0.3508  0.1750
 5241SOL    HW116088   1.173   4.159   1.725  0.5505 -1.0601  0.6283
 5241SOL    HW216089   1.117   4.023   1.690 -0.5820 -0.5203  0.2812
 5242SOL     OW16090   1.135   6.379   4.550  0.2053 -0.1812 -0.4723
 5242SOL    HW116091   1.226   6.366   4.574 -0.2572 -0.5294  1.2361
 5242SOL    HW216092   1.132   6.362   4.456  1.6542 -1.4286 -0.3241
 5243SOL     OW16093   3.729   3.228   5.728 -0.4552  0.5390  0.0885
 5243SOL    HW116094   3.796   3.189   5.784 -0.5531 -1.9945 -1.3793
 5243SOL    HW216095   3.647   3.217   5.776 -0.1106  1.8699  1.0368
 5244SOL     OW16096   2.909   2.635   5.084  0.6923 -0.1799 -0.6009
 5244SOL    HW116097   2.918   2.712   5.028  0.1737  0.6087  0.3869
 5244SOL    HW216098   2.823   2.599   5.062  0.0843  0.6667  0.3315
 5245SOL     OW16099   4.809   5.499   4.227 -0.0883  0.2617  0.3435
 5245SOL    HW116100   4.903   5.518   4.225 -0.1422  0.4626 -0.3142
 5245SOL    HW216101   4.796   5.452   4.309  0.9894 -1.8416 -0.6177
 5246SOL     OW16102   2.035   1.110   2.235 -0.4810 -0.0244  0.1072
 5246SOL    HW116103   2.008   1.020   2.218 -0.4340  0.0557 -0.4062
 5246SOL    HW216104   2.114   1.122   2.183 -1.3230  0.7782 -1.0295
 5247SOL     OW16105   1.242   4.050   3.575  0.3343  0.5715  0.6106
 5247SOL    HW116106   1.279   4.054   3.487 -0.9750  1.4613  0.0580
 5247SOL    HW216107   1.315   4.026   3.631  0.6787 -2.7459 -1.0153
 5248SOL     OW16108   1.797   1.951   5.359 -0.1589 -0.1160 -0.0475
 5248SOL    HW116109   1.740   2.028   5.357  0.6788  0.6497  2.3478
 5248SOL    HW216110   1.877   1.979   5.316  0.8548  1.0863  2.4072
 5249SOL     OW16111   1.453   5.927   4.730  0.0668  0.4331 -0.1370
 5249SOL    HW116112   1.419   5.999   4.783 -0.7019 -0.4185  0.5615
 5249SOL    HW216113   1.429   5.950   4.641 -0.4531  0.8919  0.1094
 5250SOL     OW16114   1.085   2.280   5.173  0.3265 -0.3223  0.4586
 5250SOL    HW116115   1.057   2.244   5.088  0.4134  1.1123 -0.2129
 5250SOL    HW216116   1.004   2.304   5.217  0.3402  0.8135 -0.1023
 5251SOL     OW16117   0.735   5.723   1.842  0.5785 -0.4974 -0.0030
 5251SOL    HW116118   0.686   5.645   1.817  1.1881 -0.7354 -0.4591
 5251SOL    HW216119   0.826   5.704   1.819  0.7062  0.4282 -0.3075
 5252SOL     OW16120   4.319   1.702   2.621 -0.1833  0.0753  0.1310
 5252SOL    HW116121   4.402   1.716   2.666 -1.3781  1.0897  2.1212
 5252SOL    HW216122   4.344   1.672   2.533  2.2498 -0.1733  0.8535
 5253SOL     OW16123   4.102   1.093   0.482  0.1899 -0.1204 -0.2946
 5253SOL    HW116124   4.090   1.071   0.390 -1.2559 -0.1517 -0.1189
 5253SOL    HW216125   4.066   1.018   0.530 -0.6534  0.6354  0.2880
 5254SOL     OW16126   1.510   1.587   5.325 -0.6350 -0.2164 -0.1231
 5254SOL    HW116127   1.428   1.616   5.366 -0.2696  0.2203  0.3084
 5254SOL    HW216128   1.531   1.505   5.370  0.6019  1.0452  1.7576
 5255SOL     OW16129   4.375   0.057   0.258 -0.5852 -0.4178 -0.4958
 5255SOL    HW116130   4.366   0.021   0.347  0.5034 -0.2147 -0.2923
 5255SOL    HW216131   4.467   0.083   0.252 -0.3051 -1.6350 -2.1398
 5256SOL     OW16132   3.648   3.998   5.288 -0.1445  0.5012 -0.1304
 5256SOL    HW116133   3.627   4.009   5.381 -0.1638 -0.2069 -0.0414
 5256SOL    HW216134   3.743   4.011   5.284 -0.2829  1.5793 -0.1889
 5257SOL     OW16135   5.100   5.031   2.751  0.0527 -0.0225  0.1100
 5257SOL    HW116136   5.180   5.069   2.788  0.2589  0.2326 -0.5894
 5257SOL    HW216137   5.029   5.071   2.801  0.3879 -3.6299  4.0202
 5258SOL     OW16138   0.079   2.645   0.739  0.1353  0.2509  0.1055
 5258SOL    HW116139   0.113   2.733   0.751 -0.7816  0.5116  0.8584
 5258SOL    HW216140   0.100   2.624   0.648 -1.2720  1.9911 -0.6925
 5259SOL     OW16141   2.771   1.641   6.531  0.4799  0.1705 -0.2374
 5259SOL    HW116142   2.830   1.716   6.536 -0.0863  0.6819 -1.0621
 5259SOL    HW216143   2.816   1.572   6.580  1.0751  0.9934  0.4129
 5260SOL     OW16144   6.228   0.612   3.229  0.5634 -0.1203  0.5203
 5260SOL    HW116145   6.229   0.697   3.274  1.2889 -0.5962  1.4625
 5260SOL    HW216146   6.173   0.557   3.285 -0.5962 -0.0650 -0.5321
 5261SOL     OW16147   2.479   5.578   5.998 -0.2725 -0.5074 -0.2177
 5261SOL    HW116148   2.466   5.483   5.993  0.9975 -0.6427 -1.3321
 5261SOL    HW216149   2.503   5.594   6.090  0.4066 -1.3934 -0.2266
 5262SOL     OW16150   2.568   3.972   4.569  0.0935 -0.0322  0.1818
 5262SOL    HW116151   2.601   4.057   4.598  0.3486 -0.4037  1.0230
 5262SOL    HW216152   2.645   3.927   4.534  0.3285 -0.5802  1.3692
 5263SOL     OW16153   0.654   6.002   6.168 -0.3200  0.6747  0.4001
 5263SOL    HW116154   0.601   5.938   6.120 -1.3524  1.3286  0.6412
 5263SOL    HW216155   0.714   5.948   6.221  2.9546 -0.1645 -3.6155
 5264SOL     OW16156   2.022   2.371   2.460 -0.0915 -0.0574  0.0590
 5264SOL    HW116157   2.064   2.441   2.510  0.8910  1.5460 -2.7436
 5264SOL    HW216158   1.948   2.415   2.416 -1.7746 -1.7185  1.1001
 5265SOL     OW16159   1.672   2.052   4.409 -0.1987  0.4474  0.0683
 5265SOL    HW116160   1.668   2.058   4.504  1.5700 -2.4425  0.4419
 5265SOL    HW216161   1.646   1.962   4.389  0.6461  0.6051 -2.0687
 5266SOL     OW16162   4.863   3.301   1.649 -0.3371  0.1211 -0.4713
 5266SOL    HW116163   4.867   3.378   1.706 -1.6559  0.6016 -1.0037
 5266SOL    HW216164   4.852   3.227   1.709  0.4952  0.3828  0.0152
 5267SOL     OW16165   2.213   5.453   5.859  0.2982  0.1529  0.4537
 5267SOL    HW116166   2.307   5.441   5.872  0.2652  0.5720  1.1429
 5267SOL    HW216167   2.206   5.536   5.812  0.2048  1.0426  1.9808
 5268SOL     OW16168   1.506   0.542   3.412 -0.4779 -0.0910  0.7370
 5268SOL    HW116169   1.413   0.522   3.409 -0.4727 -0.0586  0.2667
 5268SOL    HW216170   1.541   0.482   3.478 -0.5470 -1.3474 -0.3272
 5269SOL     OW16171   0.516   3.839   5.736 -0.5340  0.3229 -0.4915
 5269SOL    HW116172   0.585   3.788   5.778 -0.2345  0.1437 -1.1875
 5269SOL    HW216173   0.541   3.930   5.752 -0.6970  0.2597  0.1502
 5270SOL     OW16174   1.024   0.332   4.363 -0.0986 -0.3163  0.3707
 5270SOL    HW116175   0.980   0.350   4.280 -1.3797  1.3842  1.3453
 5270SOL    HW216176   0.974   0.261   4.402 -0.5132 -0.0007  0.4152
 5271SOL     OW16177   4.276   2.097   6.733 -0.1099 -0.2203 -0.1526
 5271SOL    HW116178   4.302   2.040   6.806 -1.4814 -0.6007  0.0548
 5271SOL    HW216179   4.266   2.184   6.773 -0.5756 -0.3696  0.0591
 5272SOL     OW16180   2.330   0.050   5.239 -0.5186  0.2953 -0.2864
 5272SOL    HW116181   2.266   0.004   5.185 -1.0353 -0.2661  0.7726
 5272SOL    HW216182   2.278   0.109   5.294 -0.3032 -0.9787  1.3908
 5273SOL     OW16183   4.527   5.286   6.703  0.0507 -0.2658 -0.0091
 5273SOL    HW116184   4.605   5.249   6.663 -0.7683 -1.2547 -0.7097
 5273SOL    HW216185   4.555   5.373   6.733  1.0560 -0.0540 -1.4567
 5274SOL     OW16186   0.203   0.276   3.365 -0.2567 -0.6558 -0.5472
 5274SOL    HW116187   0.255   0.312   3.294 -0.2552 -1.6163 -1.0447
 5274SOL    HW216188   0.233   0.186   3.374 -2.0122 -1.3276 -1.0509
 5275SOL     OW16189   1.134   6.497   2.128  0.3224  0.3396 -0.5300
 5275SOL    HW116190   1.185   6.422   2.099  0.5129  0.1823  0.2042
 5275SOL    HW216191   1.179   6.529   2.206 -1.3656 -0.5540  0.8646
 5276SOL     OW16192   1.801   4.728   6.498 -0.5726  0.1768 -0.3351
 5276SOL    HW116193   1.860   4.789   6.542  1.1995 -1.7372  0.1085
 5276SOL    HW216194   1.849   4.700   6.420 -2.8157  1.9389 -2.5154
 5277SOL     OW16195   5.739   4.484   1.562  0.7977 -0.0053 -0.0824
 5277SOL    HW116196   5.680   4.413   1.586  0.7737 -0.2103 -0.7162
 5277SOL    HW216197   5.812   4.441   1.516  0.8877  0.3534 -0.2817
 5278SOL     OW16198   0.059   6.222   2.304  0.1679  0.2261 -0.3343
 5278SOL    HW116199  -0.018   6.170   2.281  0.5576 -1.6471  2.1133
 5278SOL    HW216200   0.024   6.296   2.354 -0.2001  0.9738 -1.6524
 5279SOL     OW16201   3.338   4.495   0.801 -0.1103  0.3833  0.3476
 5279SOL    HW116202   3.247   4.509   0.825 -0.2125  0.6786 -0.2070
 5279SOL    HW216203   3.353   4.401   0.814 -1.0367 -0.0373 -1.4100
 5280SOL     OW16204   2.012   2.213   4.484 -0.5026  0.0265 -0.3098
 5280SOL    HW116205   1.998   2.125   4.520  0.7543 -0.0555  0.0422
 5280SOL    HW216206   2.032   2.266   4.561 -0.3126  0.4104 -0.6239
 5281SOL     OW16207   1.644   2.648   5.303  0.0847 -0.3905 -0.5109
 5281SOL    HW116208   1.705   2.575   5.306  2.3447  1.3907  2.0880
 5281SOL    HW216209   1.696   2.721   5.270 -0.7486  1.0256  1.1300
 5282SOL     OW16210   2.216   5.788   5.742 -0.1152  0.2216 -0.3071
 5282SOL    HW116211   2.234   5.879   5.721  2.0268 -0.2793 -0.8768
 5282SOL    HW216212   2.240   5.740   5.662  1.6871 -1.0901  0.9414
 5283SOL     OW16213   0.800   2.194   4.603 -0.5545  0.2508 -0.1491
 5283SOL    HW116214   0.737   2.172   4.535  0.2945 -1.3113 -0.4796
 5283SOL    HW216215   0.859   2.257   4.561 -1.4669  1.1946 -0.0497
 5284SOL     OW16216   0.488   3.574   5.016  0.4017 -0.0776 -0.0734
 5284SOL    HW116217   0.511   3.482   5.019  1.1708  0.0833 -0.6941
 5284SOL    HW216218   0.452   3.587   4.928  1.5674  0.4822 -0.4937
 5285SOL     OW16219   5.708   4.991   1.102  0.1345  0.2861  1.1263
 5285SOL    HW116220   5.731   4.997   1.195 -1.1577 -2.2170  1.6991
 5285SOL    HW216221   5.618   5.024   1.097  0.3693  0.8669  0.6714
 5286SOL     OW16222   2.042   4.716   6.706 -0.1011  0.4664 -0.3247
 5286SOL    HW116223   2.101   4.750   6.639 -0.5010 -0.8606 -1.4082
 5286SOL    HW216224   2.031   4.623   6.684  1.8453 -0.7861  3.1235
 5287SOL     OW16225   3.141   4.364   4.962 -0.3785  0.0835  0.1816
 5287SOL    HW116226   3.059   4.375   5.010  1.0798  1.0300  2.6739
 5287SOL    HW216227   3.207   4.407   5.017  1.9048 -1.2150 -1.3590
 5288SOL     OW16228   3.722   5.360   0.226  0.1020 -0.3528 -0.2676
 5288SOL    HW116229   3.765   5.425   0.171 -0.5917  0.4634  0.1428
 5288SOL    HW216230   3.632   5.357   0.194 -0.2243 -0.1049  0.6169
 5289SOL     OW16231   3.798   3.892   0.070 -0.0046 -0.0128 -0.1666
 5289SOL    HW116232   3.826   3.875  -0.020  2.1352  2.1884 -0.0165
 5289SOL    HW216233   3.836   3.977   0.091 -0.6468 -0.3467  2.7439
 5290SOL     OW16234   2.387   0.639   3.189 -0.6700 -0.5500 -0.8665
 5290SOL    HW116235   2.351   0.712   3.139  0.0969 -0.8484 -1.8986
 5290SOL    HW216236   2.324   0.625   3.260 -2.0440 -0.4070 -2.0117
 5291SOL     OW16237   6.081   4.463   4.804  0.2890 -0.0461  0.1996
 5291SOL    HW116238   6.176   4.457   4.815  0.3230  0.1704  0.0260
 5291SOL    HW216239   6.069   4.476   4.710  0.1834  2.0102  0.4660
 5292SOL     OW16240   2.254   4.288   1.660 -0.3238  0.2516 -0.7964
 5292SOL    HW116241   2.286   4.376   1.644  0.9474  0.1125  0.7334
 5292SOL    HW216242   2.297   4.234   1.593  2.3367  0.1674  0.8632
 5293SOL     OW16243   3.021   5.951   2.776 -0.3773  0.7428  0.4353
 5293SOL    HW116244   3.068   5.868   2.774  0.3691  1.1602  0.2186
 5293SOL    HW216245   2.971   5.949   2.857 -0.8475 -0.1754  0.1396
 5294SOL     OW16246   5.677   3.969   0.213 -0.1442  0.0669 -0.4547
 5294SOL    HW116247   5.702   3.992   0.123  0.7098  0.6814 -0.0689
 5294SOL    HW216248   5.748   3.913   0.244 -0.9419 -1.0147 -0.4967
 5295SOL     OW16249   3.752   1.275   5.753  0.4438 -0.3814 -0.4528
 5295SOL    HW116250   3.704   1.248   5.830  0.2618  0.3036 -0.3140
 5295SOL    HW216251   3.776   1.367   5.770  0.9119 -0.4010 -0.9513
 5296SOL     OW16252   2.893   2.103   6.206  0.3786  0.3634 -0.4638
 5296SOL    HW116253   2.906   2.037   6.138 -0.4528  0.1540 -0.4338
 5296SOL    HW216254   2.974   2.102   6.257  0.5661 -0.2796 -0.7619
 5297SOL     OW16255   1.020   2.641   6.614  0.0432  0.8486  0.0679
 5297SOL    HW116256   1.014   2.649   6.519  0.4428  0.8676  0.0434
 5297SOL    HW216257   0.997   2.729   6.647  0.2540  0.9375 -0.0241
 5298SOL     OW16258   1.048   2.635   5.079 -0.2610 -0.7283 -0.4158
 5298SOL    HW116259   1.128   2.586   5.098  0.4881  0.0121 -1.5404
 5298SOL    HW216260   0.978   2.584   5.120  1.0241 -0.0775  2.8852
 5299SOL     OW16261   2.364   3.380   4.769 -0.1163  0.3469 -0.8600
 5299SOL    HW116262   2.369   3.284   4.766  1.3148  0.2793  1.2738
 5299SOL    HW216263   2.299   3.402   4.703 -0.5856 -2.1041 -1.3403
 5300SOL     OW16264   3.986   4.509   6.474 -0.2898 -0.1933  0.8853
 5300SOL    HW116265   4.004   4.422   6.437 -1.0614 -0.4370  1.0805
 5300SOL    HW216266   3.892   4.519   6.466 -0.0335  1.4294 -0.8966
 5301SOL     OW16267   3.931   5.869   1.823 -0.1284  0.2890 -0.2229
 5301SOL    HW116268   3.942   5.953   1.868  0.2933  1.0992 -1.7441
 5301SOL    HW216269   3.860   5.884   1.760 -0.3760 -0.6435 -0.1786
 5302SOL     OW16270   4.137   4.220   2.005 -0.0968 -0.4469 -0.5934
 5302SOL    HW116271   4.195   4.268   1.946 -0.4408 -0.5451 -1.0169
 5302SOL    HW216272   4.057   4.206   1.954  0.2942 -2.2049 -0.7725
 5303SOL     OW16273   0.451   3.819   3.584 -0.1567 -0.6498  0.2987
 5303SOL    HW116274   0.435   3.738   3.634  3.1255 -1.1120  0.7874
 5303SOL    HW216275   0.537   3.849   3.612  0.1134  1.2997 -2.2102
 5304SOL     OW16276   5.873   6.403   6.551  0.0701 -0.6770 -0.3411
 5304SOL    HW116277   5.844   6.394   6.641  0.3404 -1.0025 -0.2836
 5304SOL    HW216278   5.836   6.486   6.521 -0.9892 -1.1287 -0.3038
 5305SOL     OW16279   1.248   2.160   3.910  0.0439 -0.1147 -0.5611
 5305SOL    HW116280   1.217   2.076   3.944  0.1622 -0.2350 -0.7505
 5305SOL    HW216281   1.340   2.165   3.938 -0.4148  0.7133  0.9096
 5306SOL     OW16282   0.694   0.104   5.634  0.0634  0.6967 -0.5090
 5306SOL    HW116283   0.738   0.021   5.615  2.7002  1.4434  1.6500
 5306SOL    HW216284   0.635   0.084   5.707 -1.7420  0.1439 -2.0412
 5307SOL     OW16285   5.579   2.757   3.870 -0.1804  0.0526  0.1426
 5307SOL    HW116286   5.656   2.711   3.903  0.0418  0.8414  0.7629
 5307SOL    HW216287   5.545   2.805   3.946 -1.3242 -0.3378 -0.1091
 5308SOL     OW16288   3.204   5.790   3.601  0.2828 -0.3677 -0.4993
 5308SOL    HW116289   3.248   5.867   3.637 -0.9390 -0.5080  1.4461
 5308SOL    HW216290   3.216   5.723   3.667 -3.1137 -0.2979  0.3782
 5309SOL     OW16291   1.089   3.379   4.419  0.1995 -0.4640 -0.2406
 5309SOL    HW116292   1.027   3.376   4.346  0.3232  0.9070 -0.4296
 5309SOL    HW216293   1.161   3.433   4.387 -0.2430  1.0887  1.2396
 5310SOL     OW16294   2.734   6.108   5.618 -0.2853 -0.1107  0.3019
 5310SOL    HW116295   2.807   6.063   5.659  1.0761  1.7485  0.0210
 5310SOL    HW216296   2.656   6.066   5.656  0.8686 -2.2401  0.4797
 5311SOL     OW16297   3.302   5.497   4.494  0.5389 -0.1268  0.1612
 5311SOL    HW116298   3.296   5.518   4.401  1.2650  1.2899  0.3976
 5311SOL    HW216299   3.335   5.577   4.535  0.1808 -0.6960  1.6557
 5312SOL     OW16300   1.427   3.251   0.055  0.2680 -0.0436 -0.2482
 5312SOL    HW116301   1.504   3.256   0.111  0.8576  0.5684 -1.0781
 5312SOL    HW216302   1.415   3.341   0.023 -1.3288  0.0541  0.5518
 5313SOL     OW16303   4.474   4.012   1.888  0.3235  0.4068 -0.4521
 5313SOL    HW116304   4.409   4.042   1.824 -1.2881 -1.3401  0.2685
 5313SOL    HW216305   4.511   3.933   1.848 -1.5034 -1.3595  1.1037
 5314SOL     OW16306   0.441   6.323   4.041 -0.1547 -0.2640 -0.3258
 5314SOL    HW116307   0.517   6.307   3.985 -0.0391 -0.1982 -0.1893
 5314SOL    HW216308   0.477   6.328   4.129 -0.5084 -1.7350 -0.0780
 5315SOL     OW16309   3.183   4.254   5.266 -0.3704  0.2479  0.6526
 5315SOL    HW116310   3.239   4.328   5.289 -1.6116  1.2315  0.6157
 5315SOL    HW216311   3.205   4.186   5.330  1.8454  0.0634 -0.2056
 5316SOL     OW16312   4.664   2.856   1.999 -0.3288  0.4308 -0.0328
 5316SOL    HW116313   4.706   2.809   1.927  0.1901 -0.5784  0.9042
 5316SOL    HW216314   4.626   2.788   2.054 -0.9402  1.1977  0.5169
 5317SOL     OW16315   4.363   5.066   2.133 -0.2225 -0.8711  0.5288
 5317SOL    HW116316   4.319   5.112   2.062  0.6288 -1.2615 -0.2919
 5317SOL    HW216317   4.313   5.087   2.211  0.8718  2.5241  0.4677
 5318SOL     OW16318   4.642   5.561   5.615  0.5236 -0.0822  0.1707
 5318SOL    HW116319   4.696   5.639   5.631  1.2568 -0.3382 -0.9350
 5318SOL    HW216320   4.553   5.590   5.630  0.9451  0.3120  2.2290
 5319SOL     OW16321   1.962   3.243   3.980  0.3833  0.5901  0.1213
 5319SOL    HW116322   1.952   3.250   4.075  1.4169  0.7390  0.2292
 5319SOL    HW216323   1.993   3.154   3.966 -1.6346 -0.0938 -0.2620
 5320SOL     OW16324   3.512   5.571   5.998 -0.3282 -0.1753  0.3021
 5320SOL    HW116325   3.429   5.587   6.043 -0.4726  1.1047 -0.3468
 5320SOL    HW216326   3.488   5.518   5.922 -0.8666  1.4814 -0.7565
 5321SOL     OW16327   0.259   2.317   4.465  0.2525 -0.1154  0.3695
 5321SOL    HW116328   0.255   2.288   4.557  0.6509 -0.2369  0.3472
 5321SOL    HW216329   0.340   2.280   4.431  0.3763  0.3772  0.1181
 5322SOL     OW16330   5.548   0.312   4.381  0.5595 -0.3982  0.5810
 5322SOL    HW116331   5.547   0.314   4.285  0.8540 -0.1431  0.5780
 5322SOL    HW216332   5.474   0.367   4.407  0.6218 -0.2728  0.4970
 5323SOL     OW16333   3.055   6.246   5.477  0.3361 -0.7681 -0.3519
 5323SOL    HW116334   2.978   6.247   5.419  0.8188  2.9750 -1.1286
 5323SOL    HW216335   3.053   6.330   5.522  2.7222 -1.5625  1.4479
 5324SOL     OW16336   4.245   0.377   5.523 -0.6430  0.1122  0.5590
 5324SOL    HW116337   4.230   0.411   5.611 -0.1524 -0.6239  0.9353
 5324SOL    HW216338   4.209   0.289   5.525  1.5294 -0.8312  0.7833
 5325SOL     OW16339   6.294   3.907   3.285  0.3743  0.7144  0.5603
 5325SOL    HW116340   6.210   3.910   3.239 -0.7266 -0.7470  2.3241
 5325SOL    HW216341   6.340   3.986   3.256 -1.1064  0.9540 -1.3458
 5326SOL     OW16342   2.813   6.200   6.222 -0.2268  0.5053 -0.5916
 5326SOL    HW116343   2.814   6.287   6.263  1.9076  0.0683  0.4112
 5326SOL    HW216344   2.830   6.216   6.130 -0.1091  1.1796 -0.4554
 5327SOL     OW16345   4.499   1.685   5.592 -0.0763  0.4203  0.6223
 5327SOL    HW116346   4.472   1.663   5.503  2.1949  1.2495 -0.3413
 5327SOL    HW216347   4.425   1.735   5.628 -0.3852  1.5544 -1.4227
 5328SOL     OW16348   5.637   2.410   2.421  0.2344 -0.1838  0.3459
 5328SOL    HW116349   5.717   2.462   2.415 -0.5003  1.0819  1.0637
 5328SOL    HW216350   5.629   2.369   2.335  1.0938  0.5146 -0.0833
 5329SOL     OW16351   6.566   5.650   3.622 -0.6659 -0.3502  0.6073
 5329SOL    HW116352   6.581   5.581   3.686  2.7254  0.0371  0.3884
 5329SOL    HW216353   6.612   5.726   3.657 -1.4859  0.8336 -0.7567
 5330SOL     OW16354   0.039   6.786   5.953  0.5524 -0.2128 -0.5301
 5330SOL    HW116355   0.110   6.723   5.940  0.1673 -0.9692  0.7389
 5330SOL    HW216356   0.008   6.768   6.042 -0.8009  0.5327 -0.8179
 5331SOL     OW16357   4.484   5.598   2.898 -0.8017 -0.5167 -0.1368
 5331SOL    HW116358   4.548   5.575   2.965 -0.3453  0.2755 -0.2841
 5331SOL    HW216359   4.445   5.515   2.872  0.3146 -1.0364 -0.1904
 5332SOL     OW16360   2.312   0.968   4.116 -0.0898 -0.0293 -0.5750
 5332SOL    HW116361   2.257   0.896   4.083 -1.3529  1.2321 -1.2969
 5332SOL    HW216362   2.380   0.979   4.050 -0.4144  0.0223 -0.9001
 5333SOL     OW16363   0.914   5.508   4.644 -0.1236  0.4393  0.1836
 5333SOL    HW116364   0.949   5.590   4.681  1.9101 -0.6629  0.8850
 5333SOL    HW216365   0.855   5.536   4.574 -2.4995  2.5932  2.7948
 5334SOL     OW16366   2.934   4.249   1.378 -0.0107  0.4740  0.3138
 5334SOL    HW116367   2.874   4.188   1.335 -1.5633  1.3901  1.0777
 5334SOL    HW216368   2.911   4.335   1.341  1.5719  0.7390 -0.1398
 5335SOL     OW16369   5.884   0.926   4.830  0.4668  0.5678 -0.1409
 5335SOL    HW116370   5.940   0.896   4.902  1.2729  0.5197 -0.7722
 5335SOL    HW216371   5.864   0.846   4.780  0.6622  0.7264 -0.4789
 5336SOL     OW16372   0.695   2.740   6.559  0.4128 -0.8193  0.3009
 5336SOL    HW116373   0.719   2.829   6.534  0.8965 -1.1920 -0.5985
 5336SOL    HW216374   0.599   2.738   6.550  0.4296 -0.4790  0.0150
 5337SOL     OW16375   1.243   3.723   0.216 -0.0241 -0.2517 -0.9347
 5337SOL    HW116376   1.270   3.809   0.183 -0.7902 -0.6590 -2.7565
 5337SOL    HW216377   1.210   3.741   0.304  0.0455  1.2969 -1.1861
 5338SOL     OW16378   2.235   4.674   0.247 -0.5220  0.3444  0.0550
 5338SOL    HW116379   2.149   4.680   0.288 -0.2185 -0.3095  0.8077
 5338SOL    HW216380   2.293   4.724   0.304 -0.8096  2.9991 -1.7679
 5339SOL     OW16381   4.887   2.105   6.743 -0.5033 -0.0869 -0.2072
 5339SOL    HW116382   4.929   2.105   6.828 -2.5941  0.2360  0.8916
 5339SOL    HW216383   4.910   2.190   6.704  0.8077 -0.4143 -0.1802
 5340SOL     OW16384   5.121   2.526   5.591 -0.0493  0.5366 -0.0794
 5340SOL    HW116385   5.086   2.490   5.673  1.4181  1.1104  0.8484
 5340SOL    HW216386   5.162   2.451   5.547 -0.8204  0.2315 -0.2921
 5341SOL     OW16387   2.874   1.027   1.335  0.1713 -0.3625 -0.9544
 5341SOL    HW116388   2.953   0.980   1.307 -0.6175 -1.7529 -0.9486
 5341SOL    HW216389   2.807   0.959   1.341 -0.3525  0.2759  1.8457
 5342SOL     OW16390   3.979   5.001   2.625  0.6050  0.1391 -0.2165
 5342SOL    HW116391   3.906   5.049   2.665 -0.0599 -0.7050 -0.3759
 5342SOL    HW216392   3.952   4.989   2.534 -0.0321 -1.9510  0.1848
 5343SOL     OW16393   6.310   1.767   1.242 -0.2851 -0.1529 -0.0600
 5343SOL    HW116394   6.227   1.784   1.196 -0.0934  0.2652 -0.2589
 5343SOL    HW216395   6.286   1.708   1.313 -0.6217 -0.6388 -0.5732
 5344SOL     OW16396   3.659   0.250   3.552 -0.4875  0.5032  0.2554
 5344SOL    HW116397   3.623   0.214   3.471  0.5411  0.4594 -0.1912
 5344SOL    HW216398   3.754   0.241   3.542 -0.1304  3.6475 -0.0485
 5345SOL     OW16399   3.995   1.142   4.184 -0.1006 -0.0971 -0.0128
 5345SOL    HW116400   3.966   1.233   4.178  1.8390  0.5680  0.0219
 5345SOL    HW216401   4.041   1.126   4.102 -1.1299 -1.3471 -0.3782
 5346SOL     OW16402   6.646   1.574   6.483  0.2870  0.5275 -0.2292
 5346SOL    HW116403   6.693   1.520   6.420  2.9646  2.4512 -0.0418
 5346SOL    HW216404   6.590   1.631   6.430  0.3824  0.2110 -0.6666
 5347SOL     OW16405   0.693   3.161   5.891 -0.0941 -0.1833  0.1926
 5347SOL    HW116406   0.607   3.203   5.901  0.3814  0.7554  0.4118
 5347SOL    HW216407   0.716   3.133   5.980  1.2893  2.5299  0.7850
 5348SOL     OW16408   2.598   1.973   1.922  0.0327  0.1096  0.1937
 5348SOL    HW116409   2.519   1.941   1.965 -1.0020  1.3096 -0.7305
 5348SOL    HW216410   2.643   2.025   1.989 -1.1144  1.2366  0.1205
 5349SOL     OW16411   5.978   5.849   1.943  0.3280 -0.2921  0.1697
 5349SOL    HW116412   6.070   5.837   1.919  0.1768  1.5490 -1.6694
 5349SOL    HW216413   5.976   5.936   1.982 -0.7914  0.2003 -0.9322
 5350SOL     OW16414   5.456   5.172   6.730  0.3860 -0.1629  0.1818
 5350SOL    HW116415   5.442   5.224   6.651 -0.9306  0.4363  0.7897
 5350SOL    HW216416   5.507   5.229   6.788  0.5870 -0.2749  0.1178
 5351SOL     OW16417   2.478   5.561   4.638 -0.2208  0.3918 -0.2046
 5351SOL    HW116418   2.522   5.481   4.666  0.1772  0.6238 -0.1645
 5351SOL    HW216419   2.390   5.553   4.673 -0.0217  0.2194  0.2620
 5352SOL     OW16420   5.522   1.311   1.291  0.6528 -0.1400  0.0127
 5352SOL    HW116421   5.532   1.300   1.196  0.8514 -1.0795  0.1349
 5352SOL    HW216422   5.592   1.372   1.315  1.1134 -0.5226 -0.3333
 5353SOL     OW16423   3.161   2.335   4.264  1.0600  0.4323 -0.3106
 5353SOL    HW116424   3.163   2.274   4.338  0.8782 -0.4068 -0.9830
 5353SOL    HW216425   3.149   2.279   4.187  1.9860  1.2204 -1.0557
 5354SOL     OW16426   4.426   3.908   4.486 -0.1367 -0.1599  0.1904
 5354SOL    HW116427   4.363   3.880   4.551 -0.3298 -0.6980 -0.2205
 5354SOL    HW216428   4.422   4.004   4.488  0.3023 -0.1461  1.3886
 5355SOL     OW16429   3.145   5.082   6.526 -0.0706 -0.3035  0.0726
 5355SOL    HW116430   3.148   5.152   6.461  0.7981  0.4679  0.9053
 5355SOL    HW216431   3.229   5.088   6.572  1.0713 -3.3725 -1.3059
 5356SOL     OW16432   0.093   2.644   5.849  0.0788 -0.0570  0.1126
 5356SOL    HW116433   0.092   2.567   5.906 -0.2950  0.6273  1.0610
 5356SOL    HW216434   0.131   2.713   5.902 -0.3472  0.6234 -0.4446
 5357SOL     OW16435   3.258   5.218   1.789  0.0662 -0.0056  0.5845
 5357SOL    HW116436   3.199   5.260   1.726 -0.7187 -2.3666 -0.3508
 5357SOL    HW216437   3.232   5.126   1.789  2.6406 -0.8158  1.4394
 5358SOL     OW16438   0.663   1.747   4.936  0.0271  0.4024  0.2868
 5358SOL    HW116439   0.631   1.769   4.849  0.2235  0.7583  0.3056
 5358SOL    HW216440   0.739   1.802   4.949  0.1761  0.1345  0.5668
 5359SOL     OW16441   5.185   6.288   0.640  0.3502  0.0684  0.1972
 5359SOL    HW116442   5.209   6.359   0.700 -0.0749  0.0508  0.3954
 5359SOL    HW216443   5.190   6.209   0.693  0.7401 -0.0422 -0.0018
 5360SOL     OW16444   0.312   2.068   5.265 -0.2275 -0.2932  0.5980
 5360SOL    HW116445   0.297   2.140   5.327 -1.1140 -0.8504  1.0578
 5360SOL    HW216446   0.393   2.028   5.295 -0.4067 -0.2690  1.1317
 5361SOL     OW16447   5.624   6.387   3.586 -0.1408 -0.3550 -0.2461
 5361SOL    HW116448   5.637   6.292   3.585  0.0689 -0.3419  0.3810
 5361SOL    HW216449   5.699   6.421   3.537 -0.9162 -0.5725 -1.6092
 5362SOL     OW16450   4.673   3.752   5.627 -0.0974  0.6940 -0.1697
 5362SOL    HW116451   4.755   3.721   5.589 -0.2580 -0.9798  0.7302
 5362SOL    HW216452   4.650   3.685   5.692  0.0775  3.2589  2.7649
 5363SOL     OW16453   6.694   0.985   5.454 -0.0511 -0.0524 -0.0403
 5363SOL    HW116454   6.711   1.068   5.499 -1.6610  1.3531 -1.8227
 5363SOL    HW216455   6.624   1.006   5.392 -0.3229 -2.7154 -0.7445
 5364SOL     OW16456   4.708   0.092   0.926 -0.0284  0.0671  0.1480
 5364SOL    HW116457   4.772   0.057   0.988 -0.0396 -2.5835 -1.2098
 5364SOL    HW216458   4.683   0.177   0.963  1.3554 -0.5466  2.7478
 5365SOL     OW16459   6.706   3.889   6.003 -0.4145 -0.3066  0.2591
 5365SOL    HW116460   6.760   3.832   6.058  1.1300  1.4084  0.6265
 5365SOL    HW216461   6.618   3.880   6.038  0.0398 -1.3714  1.1957
 5366SOL     OW16462   3.330   5.754   1.501 -0.2107  0.4934 -0.1714
 5366SOL    HW116463   3.284   5.708   1.431 -0.3842  1.6078 -0.8242
 5366SOL    HW216464   3.419   5.765   1.468  1.1259 -3.0879  1.7436
 5367SOL     OW16465   2.751   0.285   5.852  0.4425 -0.2390  0.0537
 5367SOL    HW116466   2.712   0.244   5.929 -0.2099  2.9392  1.5803
 5367SOL    HW216467   2.704   0.246   5.778 -0.8749 -1.3969  1.4397
 5368SOL     OW16468   1.915   0.379   2.027 -0.0007 -0.2124 -0.6060
 5368SOL    HW116469   1.995   0.383   2.080 -0.0659  3.7744 -0.4874
 5368SOL    HW216470   1.844   0.391   2.089 -0.4118 -0.0605 -1.0996
 5369SOL     OW16471   5.862   6.441   2.579  0.4376  0.3504 -0.1755
 5369SOL    HW116472   5.819   6.523   2.605 -0.9162 -0.2238 -0.5207
 5369SOL    HW216473   5.875   6.450   2.484 -1.5718 -0.6212 -0.5884
 5370SOL     OW16474   0.715   1.770   4.156 -0.1884  0.0128  0.1908
 5370SOL    HW116475   0.723   1.689   4.107  2.3169  0.6144 -0.5379
 5370SOL    HW216476   0.646   1.819   4.111 -0.3248 -0.8692 -0.5873
 5371SOL     OW16477   5.094   3.793   0.618 -0.2301 -0.6040  0.1262
 5371SOL    HW116478   5.105   3.719   0.559  0.1820 -0.9038  0.5692
 5371SOL    HW216479   5.103   3.871   0.562 -0.2388 -0.8825 -0.2645
 5372SOL     OW16480   2.726   6.303   3.861  0.5328  0.2481  0.0933
 5372SOL    HW116481   2.735   6.343   3.947  0.6705  0.1617  0.1187
 5372SOL    HW216482   2.663   6.232   3.873  0.7075  0.1064  0.1651
 5373SOL     OW16483   5.159   1.900   1.473 -0.1489 -0.0088 -0.6096
 5373SOL    HW116484   5.194   1.813   1.454 -1.0227 -0.4478 -0.2646
 5373SOL    HW216485   5.092   1.915   1.406 -0.1942  0.2864 -0.5016
 5374SOL     OW16486   5.267   4.552   4.725  0.2941 -0.0694  0.0064
 5374SOL    HW116487   5.360   4.531   4.714  0.4881  0.4708  0.5520
 5374SOL    HW216488   5.267   4.644   4.751 -0.3371 -0.3782  1.1165
 5375SOL     OW16489   4.732   0.285   2.867 -0.2880  0.0952 -0.1751
 5375SOL    HW116490   4.799   0.350   2.846  0.6821 -0.0721  2.1805
 5375SOL    HW216491   4.774   0.200   2.850 -1.3273 -0.0279 -2.5885
 5376SOL     OW16492   6.769   1.128   1.058  0.9401 -0.3890 -0.3654
 5376SOL    HW116493   6.765   1.119   1.153 -0.2876  0.0446 -0.3629
 5376SOL    HW216494   6.742   1.218   1.041 -0.6050 -0.9811 -1.2120
 5377SOL     OW16495   0.761   1.017   0.562  0.0225 -0.2699  0.5482
 5377SOL    HW116496   0.753   1.046   0.653 -0.5699 -0.2171  0.4868
 5377SOL    HW216497   0.855   1.008   0.548  0.0763 -1.3869  1.5154
 5378SOL     OW16498   4.806   2.165   2.142 -0.3824  0.0846  0.7256
 5378SOL    HW116499   4.717   2.163   2.178 -0.5194  0.6672  0.4315
 5378SOL    HW216500   4.803   2.104   2.068 -0.9454  1.1589 -0.1744
 5379SOL     OW16501   3.661   0.321   1.543  0.1576 -0.4915 -0.5277
 5379SOL    HW116502   3.750   0.356   1.539 -0.3477  0.8980 -0.1651
 5379SOL    HW216503   3.672   0.226   1.538  1.7951 -0.4614  1.3600
 5380SOL     OW16504   0.044   5.244   1.908  0.0492  0.0754 -0.2074
 5380SOL    HW116505  -0.002   5.168   1.874  0.2077 -0.3219  0.4614
 5380SOL    HW216506   0.105   5.209   1.972 -0.0279  0.7855  0.2617
 5381SOL     OW16507   2.359   4.830   3.817  0.0910 -0.2641  0.1646
 5381SOL    HW116508   2.445   4.843   3.858  0.0710 -0.3982  0.2488
 5381SOL    HW216509   2.365   4.877   3.734 -0.3259  1.1611  0.9063
 5382SOL     OW16510   0.243   1.949   1.984  0.0075  0.5231  0.1581
 5382SOL    HW116511   0.156   1.923   2.016 -0.1885 -0.6436 -1.2261
 5382SOL    HW216512   0.294   1.963   2.064 -1.0539 -0.1505  0.9878
 5383SOL     OW16513   3.365   6.347   2.273 -0.1106 -0.0359  0.2623
 5383SOL    HW116514   3.389   6.439   2.284  1.5015 -0.3834 -0.0758
 5383SOL    HW216515   3.275   6.342   2.305 -0.1019  1.5733  0.6468
 5384SOL     OW16516   1.550   4.864   5.963  0.4632 -0.3440  0.3510
 5384SOL    HW116517   1.468   4.908   5.940  0.4496 -0.0060  1.0481
 5384SOL    HW216518   1.612   4.894   5.897  0.1077 -0.3577  0.0058
 5385SOL     OW16519   0.819   0.400   2.150  0.3931 -0.1433 -0.6383
 5385SOL    HW116520   0.887   0.364   2.207  1.0907 -0.6698 -1.7777
 5385SOL    HW216521   0.741   0.348   2.170  0.4697  0.0534  0.2259
 5386SOL     OW16522   0.735   4.575   3.291 -0.4064  0.0225  0.1761
 5386SOL    HW116523   0.742   4.563   3.386 -0.6892  1.4069  0.3917
 5386SOL    HW216524   0.641   4.567   3.273 -0.3738 -0.0591  0.0409
 5387SOL     OW16525   1.488   3.529   3.961 -0.3323  0.3889 -0.0888
 5387SOL    HW116526   1.564   3.536   4.019  0.5385 -2.1062 -0.8078
 5387SOL    HW216527   1.484   3.614   3.917  3.3232  0.0351 -1.4909
 5388SOL     OW16528   3.955   3.286   3.043 -0.8220 -0.4625  0.7655
 5388SOL    HW116529   3.876   3.270   2.990 -0.5333 -2.4049  0.8660
 5388SOL    HW216530   3.974   3.202   3.084  2.3125 -0.5494 -0.6198
 5389SOL     OW16531   0.038   0.397   6.422 -0.3148 -0.2955 -0.0684
 5389SOL    HW116532  -0.010   0.397   6.505 -2.1145 -1.4360 -1.0673
 5389SOL    HW216533  -0.026   0.422   6.356  0.7132 -0.8321 -1.3228
 5390SOL     OW16534   6.750   6.027   4.363  0.1419 -0.8059 -0.4841
 5390SOL    HW116535   6.686   6.085   4.322  0.1511 -1.6595 -1.7625
 5390SOL    HW216536   6.701   5.946   4.380  0.1269 -0.4742  1.2780
 5391SOL     OW16537   4.456   0.813   2.433  0.1169  0.1617 -0.5804
 5391SOL    HW116538   4.399   0.744   2.397  0.7571 -0.0061 -1.2891
 5391SOL    HW216539   4.422   0.827   2.521 -2.1002  1.2295 -1.5012
 5392SOL     OW16540   5.598   0.102   0.411 -0.1108 -0.2280  0.3869
 5392SOL    HW116541   5.598   0.006   0.408 -3.1087 -0.3141  0.3334
 5392SOL    HW216542   5.603   0.122   0.505 -0.2164 -0.4750  0.4475
 5393SOL     OW16543   3.980   2.496   0.308 -0.2051  0.5701  0.4325
 5393SOL    HW116544   3.990   2.414   0.357  0.1087  0.6459  0.4983
 5393SOL    HW216545   3.967   2.563   0.375  0.1133  0.6581  0.4076
 5394SOL     OW16546   0.965   0.190   2.780 -0.0275 -0.1879  0.6236
 5394SOL    HW116547   0.985   0.136   2.856  0.1969  1.1148  1.5258
 5394SOL    HW216548   0.963   0.279   2.814  0.8373  0.5170 -1.0446
 5395SOL     OW16549   0.696   0.934   6.267 -0.1716  0.5400 -0.1247
 5395SOL    HW116550   0.643   0.857   6.288  0.1879 -0.1796 -1.7203
 5395SOL    HW216551   0.760   0.939   6.338  0.5208 -1.3267 -0.5530
 5396SOL     OW16552   6.657   2.366   0.600  0.3552 -0.2595  0.0585
 5396SOL    HW116553   6.681   2.442   0.546  0.6905 -0.1150  0.4104
 5396SOL    HW216554   6.739   2.338   0.639 -0.0913  0.4412  1.5505
 5397SOL     OW16555   2.685   2.810   5.799  0.2857  0.4135 -0.2994
 5397SOL    HW116556   2.704   2.869   5.726  0.6012  0.4920 -0.1522
 5397SOL    HW216557   2.689   2.865   5.877  0.4715  0.2196 -0.1716
 5398SOL     OW16558   4.546   3.097   4.230 -0.0537 -0.2369  0.8323
 5398SOL    HW116559   4.525   3.007   4.206  1.0307 -0.0795 -0.9513
 5398SOL    HW216560   4.478   3.123   4.292 -0.4876 -2.2034  1.2375
 5399SOL     OW16561   2.489   5.407   2.569 -0.0790  0.2798  0.0890
 5399SOL    HW116562   2.529   5.446   2.491 -0.0564  1.0956  0.4999
 5399SOL    HW216563   2.400   5.441   2.570  0.0410  0.5931  0.6293
 5400SOL     OW16564   5.941   3.546   1.916 -0.3433 -0.1977  0.0507
 5400SOL    HW116565   5.959   3.456   1.941  1.6323  0.5429  1.6206
 5400SOL    HW216566   5.972   3.598   1.991 -0.7192  1.8144 -1.1095
 5401SOL     OW16567   2.078   5.338   5.034  0.1188 -0.2416  0.7510
 5401SOL    HW116568   2.012   5.295   4.978 -1.2304  2.4693  0.0670
 5401SOL    HW216569   2.151   5.356   4.975 -0.6438  1.1663  0.1751
 5402SOL     OW16570   6.696   3.495   4.162  0.1128 -0.1505 -0.0054
 5402SOL    HW116571   6.764   3.563   4.159  0.1575 -0.1295  1.0799
 5402SOL    HW216572   6.632   3.522   4.096  1.1139 -0.1302 -0.9912
 5403SOL     OW16573   2.484   4.338   3.346  0.5804 -0.0620 -0.2376
 5403SOL    HW116574   2.571   4.349   3.308  0.6961 -0.4624 -0.1016
 5403SOL    HW216575   2.500   4.292   3.429  0.1689 -0.9041 -0.6157
 5404SOL     OW16576   2.292   4.613   6.353  0.2574  0.1628 -0.2568
 5404SOL    HW116577   2.259   4.585   6.268 -1.5130  2.1323 -0.2808
 5404SOL    HW216578   2.220   4.598   6.414 -0.1729  2.8768  0.0257
 5405SOL     OW16579   0.036   4.370   4.658 -0.4659  0.6138  0.0044
 5405SOL    HW116580  -0.036   4.307   4.670 -0.7009  1.1967  2.0909
 5405SOL    HW216581   0.107   4.335   4.711 -0.1877  1.5015  0.2295
 5406SOL     OW16582   0.532   5.382   2.054 -0.0912  0.6959 -0.0529
 5406SOL    HW116583   0.617   5.379   2.098 -0.0174  1.8337 -0.0770
 5406SOL    HW216584   0.469   5.357   2.121  0.2804 -0.4402 -0.1112
 5407SOL     OW16585   4.635   0.038   4.319  0.1120 -0.0394  0.3019
 5407SOL    HW116586   4.550   0.082   4.319 -0.0393 -0.3260  1.0558
 5407SOL    HW216587   4.618  -0.047   4.279  0.1249  0.0373  0.1283
 5408SOL     OW16588   0.317   5.639   1.038 -0.3217  0.3006 -0.2848
 5408SOL    HW116589   0.293   5.547   1.024 -0.3974  0.2640  0.0596
 5408SOL    HW216590   0.378   5.660   0.968  1.4785 -0.6738  0.9033
 5409SOL     OW16591   1.673   6.076   3.000 -0.5158  0.7440  0.0198
 5409SOL    HW116592   1.681   5.981   3.007  1.2723  0.9379  1.4014
 5409SOL    HW216593   1.592   6.090   2.951 -1.7407 -1.4641  1.2524
 5410SOL     OW16594   1.944   5.615   1.971 -0.5690 -0.3209 -0.8331
 5410SOL    HW116595   1.956   5.532   1.927  0.6102 -0.5261 -0.1674
 5410SOL    HW216596   1.862   5.605   2.020  0.1359 -1.5339  0.1638
 5411SOL     OW16597   1.121   3.469   3.453  0.1918  0.0473  0.2546
 5411SOL    HW116598   1.185   3.404   3.422 -1.1807 -1.0372 -0.4424
 5411SOL    HW216599   1.042   3.450   3.403 -1.0768  0.4957  1.9967
 5412SOL     OW16600   3.065   4.826   3.408 -0.3200  0.2943  0.2779
 5412SOL    HW116601   3.081   4.790   3.495  1.1459 -0.7613 -0.4021
 5412SOL    HW216602   2.970   4.837   3.405 -0.5799 -1.2617  1.3981
 5413SOL     OW16603   3.582   5.325   3.876  0.0412  0.5486  0.1755
 5413SOL    HW116604   3.602   5.352   3.787  1.6653 -0.4278  0.2074
 5413SOL    HW216605   3.571   5.230   3.871 -0.8582  0.5993  0.8563
 5414SOL     OW16606   0.617   4.452   4.830 -0.3378 -0.2571  0.3835
 5414SOL    HW116607   0.522   4.441   4.824 -0.3077 -0.1164 -0.7065
 5414SOL    HW216608   0.635   4.534   4.783  0.1083  0.9950  2.6170
 5415SOL     OW16609   4.993   3.540   4.119 -0.0830 -0.7290  0.5328
 5415SOL    HW116610   4.906   3.538   4.158 -0.0084  0.1831  0.7524
 5415SOL    HW216611   5.016   3.447   4.109  0.1315 -1.0598  3.2169
 5416SOL     OW16612   3.012   1.903   6.034 -0.3519 -0.4132  0.5120
 5416SOL    HW116613   3.010   1.917   5.939 -0.6167  1.6619  0.7780
 5416SOL    HW216614   3.104   1.893   6.055 -0.1338  0.8405  0.2266
 5417SOL     OW16615   2.648   2.621   5.003  0.0299 -0.6437 -0.0547
 5417SOL    HW116616   2.559   2.602   4.975 -0.7899  0.9951  1.2465
 5417SOL    HW216617   2.656   2.716   4.993  1.1960 -0.6126  1.0157
 5418SOL     OW16618   5.688   5.757   2.209  0.0303  0.3643 -0.2217
 5418SOL    HW116619   5.701   5.725   2.120 -0.5209 -0.1068 -0.1349
 5418SOL    HW216620   5.602   5.800   2.207  1.0441  2.5183 -0.5250
 5419SOL     OW16621   3.436   0.736   6.583 -0.5909 -0.3028 -0.2527
 5419SOL    HW116622   3.488   0.774   6.512  0.6682  0.7855  1.1949
 5419SOL    HW216623   3.346   0.762   6.564 -0.1812  0.5709 -1.0691
 5420SOL     OW16624   1.901   5.202   4.896 -0.6913 -0.4972 -0.5745
 5420SOL    HW116625   1.856   5.183   4.813 -2.6718 -1.2337  0.5892
 5420SOL    HW216626   1.964   5.130   4.905 -1.5017 -1.2481 -0.7441
 5421SOL     OW16627   1.607   6.730   6.470 -0.1984  0.3096  0.3473
 5421SOL    HW116628   1.671   6.662   6.493 -0.7623 -0.3729 -0.0559
 5421SOL    HW216629   1.646   6.811   6.504  2.4185  0.4865 -2.5884
 5422SOL     OW16630   0.479   2.652   5.778 -0.6325  0.6563 -0.1383
 5422SOL    HW116631   0.522   2.729   5.741 -2.1025  0.8721 -1.5148
 5422SOL    HW216632   0.545   2.614   5.837  0.5046  2.3364 -0.2457
 5423SOL     OW16633   1.895   3.333   4.832  0.4472  0.7805  0.5147
 5423SOL    HW116634   1.867   3.345   4.922 -2.1464  1.4231 -0.2962
 5423SOL    HW216635   1.848   3.401   4.783  1.3891  0.1208 -1.4064
 5424SOL     OW16636   0.797   6.244   4.450 -0.3413  0.0087  0.2815
 5424SOL    HW116637   0.743   6.209   4.521 -0.1911 -1.9716 -0.5038
 5424SOL    HW216638   0.880   6.197   4.458 -0.0982  0.2185 -0.8281
 5425SOL     OW16639   4.287   6.384   4.784  0.2342 -0.1791 -0.7735
 5425SOL    HW116640   4.193   6.364   4.783  0.6132 -2.1822 -0.9789
 5425SOL    HW216641   4.314   6.375   4.693  0.5680  0.7842 -0.7770
 5426SOL     OW16642   2.865   5.835   1.125 -0.0303 -0.2378 -0.2356
 5426SOL    HW116643   2.863   5.913   1.182  1.8435 -0.2849 -0.0572
 5426SOL    HW216644   2.886   5.869   1.038  0.9775 -0.5447 -0.1218
 5427SOL     OW16645   0.639   4.163   4.398 -0.3922 -0.2934 -0.6428
 5427SOL    HW116646   0.545   4.179   4.403 -0.1598  1.0113  0.1333
 5427SOL    HW216647   0.673   4.198   4.481  0.9085  0.3181 -1.4041
 5428SOL     OW16648   2.436   0.243   1.901 -0.0517  0.2325 -0.0772
 5428SOL    HW116649   2.527   0.270   1.914 -0.1960  0.9193 -0.4720
 5428SOL    HW216650   2.403   0.225   1.989  0.9650 -1.6947 -0.0379
 5429SOL     OW16651   1.292   3.039   0.671  0.4137 -0.0186 -0.2800
 5429SOL    HW116652   1.373   3.054   0.720  1.8690  3.7402 -3.3216
 5429SOL    HW216653   1.224   3.081   0.724  1.0330 -0.2237  0.7137
 5430SOL     OW16654   6.278   5.889   3.411 -0.2530  0.4824  0.2680
 5430SOL    HW116655   6.348   5.946   3.379  0.1688  0.4343  1.0795
 5430SOL    HW216656   6.314   5.801   3.406 -0.5354  0.3821 -0.0278
 5431SOL     OW16657   6.425   6.084   5.545 -0.2456  0.1231 -0.6551
 5431SOL    HW116658   6.395   5.996   5.568  0.6925 -0.5633 -1.9328
 5431SOL    HW216659   6.495   6.103   5.607 -0.5689  0.0455 -0.2638
 5432SOL     OW16660   4.527   3.982   5.896  0.1981  0.2305  0.2273
 5432SOL    HW116661   4.524   3.994   5.801  1.4036 -2.4629 -0.2499
 5432SOL    HW216662   4.444   3.939   5.917 -0.3036  1.3007  0.5292
 5433SOL     OW16663   2.735   3.115   2.650 -0.2483  0.9394  0.0938
 5433SOL    HW116664   2.653   3.161   2.635 -0.4919  0.0990 -1.3040
 5433SOL    HW216665   2.720   3.065   2.730 -1.3829  0.2251 -0.5308
 5434SOL     OW16666   1.257   5.223   2.637 -0.4476 -0.3022  0.4429
 5434SOL    HW116667   1.225   5.179   2.557 -2.8970  1.6402  0.2281
 5434SOL    HW216668   1.211   5.178   2.708 -0.4125 -0.2506  0.4979
 5435SOL     OW16669   4.295   3.995   3.027  0.4664 -0.1085  0.4036
 5435SOL    HW116670   4.306   3.949   3.110 -1.1172  1.3596  1.4961
 5435SOL    HW216671   4.211   3.965   2.994  0.3513  0.4961  0.1364
 5436SOL     OW16672   1.580   0.362   6.050 -0.3885  0.0454  0.0777
 5436SOL    HW116673   1.671   0.362   6.079 -0.7422 -1.1675  1.2660
 5436SOL    HW216674   1.582   0.327   5.962  0.1379 -1.7311  0.7580
 5437SOL     OW16675   3.981   1.371   3.577 -0.6041 -0.0289  0.0803
 5437SOL    HW116676   4.057   1.388   3.521 -0.1675  1.0350  0.9579
 5437SOL    HW216677   3.932   1.303   3.531  0.1227  0.2933 -1.2314
 5438SOL     OW16678   0.132   4.891   0.280 -0.4641 -0.8151  0.0977
 5438SOL    HW116679   0.217   4.850   0.264 -1.3612 -2.4122 -0.9177
 5438SOL    HW216680   0.104   4.922   0.194 -0.3492  0.9121  0.6587
 5439SOL     OW16681   2.802   4.030   0.304  0.2752 -0.3886  0.0941
 5439SOL    HW116682   2.735   3.974   0.343  1.7643 -2.0616  0.4108
 5439SOL    HW216683   2.858   4.055   0.377  0.8423 -0.2784 -0.3702
 5440SOL     OW16684   2.292   4.957   1.451  0.1722 -0.1044  0.3287
 5440SOL    HW116685   2.251   4.873   1.431  2.5569 -0.4653 -4.4738
 5440SOL    HW216686   2.365   4.935   1.509 -1.1008 -0.7511  1.7468
 5441SOL     OW16687   4.070   6.283   3.034  0.4487  0.3316 -0.0689
 5441SOL    HW116688   4.043   6.288   2.942  1.3339  0.3991 -0.3345
 5441SOL    HW216689   4.105   6.369   3.053  0.2772  0.3122  0.3340
 5442SOL     OW16690   1.119   5.481   2.953  0.1506  0.3883  0.1412
 5442SOL    HW116691   1.040   5.441   2.916  0.1716  0.3737  0.1119
 5442SOL    HW216692   1.164   5.520   2.878 -1.0665  2.5679  0.4702
 5443SOL     OW16693   4.027   0.838   5.538 -0.2053  0.5476 -0.3135
 5443SOL    HW116694   4.000   0.829   5.630  0.1520 -1.6466 -0.3592
 5443SOL    HW216695   3.957   0.795   5.489  1.8150 -2.7066 -0.6380
 5444SOL     OW16696   0.936   5.090   3.483 -0.4032 -0.2862  0.1114
 5444SOL    HW116697   0.886   5.011   3.503 -0.3369 -0.5101 -0.5747
 5444SOL    HW216698   0.871   5.160   3.482 -0.5426 -0.4144  0.2281
 5445SOL     OW16699   4.116   6.371   1.503  0.1855 -0.2957  0.4426
 5445SOL    HW116700   4.148   6.288   1.536  0.2094 -0.0057  1.1731
 5445SOL    HW216701   4.083   6.352   1.415  2.6223 -0.5426 -0.4732
 5446SOL     OW16702   3.623   3.701   3.251 -0.2689  0.3421  0.1940
 5446SOL    HW116703   3.575   3.665   3.176 -0.9601 -0.5601  1.0299
 5446SOL    HW216704   3.715   3.693   3.227 -0.4846  0.3299 -0.6734
 5447SOL     OW16705   3.694   6.068   4.365  0.7822 -0.5493 -0.6769
 5447SOL    HW116706   3.766   6.049   4.425  0.1207 -1.4035 -0.1260
 5447SOL    HW216707   3.655   5.982   4.348 -0.8016  0.0137 -0.0653
 5448SOL     OW16708   6.715   4.913   5.846  0.3524  0.1883 -0.0174
 5448SOL    HW116709   6.734   4.823   5.821 -0.6988 -0.2059  0.5625
 5448SOL    HW216710   6.801   4.957   5.844  0.5941 -0.2467 -2.4751
 5449SOL     OW16711   6.361   2.456   0.048  0.1488 -0.0937  0.1369
 5449SOL    HW116712   6.298   2.528   0.044  1.1220  0.7367 -1.9537
 5449SOL    HW216713   6.308   2.377   0.039 -1.0058  0.2308  3.0388
 5450SOL     OW16714   5.423   2.471   6.131 -0.3475  0.2048  0.1093
 5450SOL    HW116715   5.406   2.402   6.067  0.0158  1.0549 -0.9235
 5450SOL    HW216716   5.486   2.528   6.088 -0.3449  0.9765  1.1103
 5451SOL     OW16717   5.473   3.308   5.794 -0.2868 -0.3939  0.7863
 5451SOL    HW116718   5.449   3.287   5.884 -0.7717  0.3334  0.8336
 5451SOL    HW216719   5.435   3.237   5.742  1.6117 -1.8688  1.3019
 5452SOL     OW16720   4.512   6.113   4.756  0.6631 -0.1783  0.0912
 5452SOL    HW116721   4.557   6.053   4.697  2.0408  0.6490  0.2559
 5452SOL    HW216722   4.515   6.197   4.711 -0.9941 -0.1367 -0.0097
 5453SOL     OW16723   4.514   5.573   4.502 -0.3959  0.6998  0.0303
 5453SOL    HW116724   4.548   5.660   4.522 -2.6425  1.5747  0.2697
 5453SOL    HW216725   4.469   5.583   4.418 -2.1081  0.2080  0.8461
 5454SOL     OW16726   0.875   5.348   6.114 -0.3788  0.5089 -0.3945
 5454SOL    HW116727   0.832   5.357   6.199 -0.2590  0.9805 -0.3808
 5454SOL    HW216728   0.891   5.438   6.085 -0.6157  0.3574 -1.0178
 5455SOL     OW16729   4.922   0.007   2.548 -0.2011  0.8229  0.8993
 5455SOL    HW116730   4.964  -0.078   2.559 -1.7233  0.0861  1.2844
 5455SOL    HW216731   4.992   0.065   2.518  0.3659 -1.1177 -1.8266
 5456SOL     OW16732   0.284   2.814   5.940 -0.1766 -0.0757 -0.2848
 5456SOL    HW116733   0.337   2.787   5.865 -0.6677 -2.2001  0.0583
 5456SOL    HW216734   0.319   2.900   5.965  3.2660 -1.4328  0.0625
 5457SOL     OW16735   4.060   2.392   5.801 -0.0215 -0.0982  0.1185
 5457SOL    HW116736   4.050   2.345   5.884 -1.1507  4.2059  2.7526
 5457SOL    HW216737   3.974   2.387   5.760 -1.2161  2.2181  2.0840
 5458SOL     OW16738   2.379   1.640   6.340  0.1985  0.1407  0.8328
 5458SOL    HW116739   2.406   1.660   6.429  1.2740  0.6017  0.4253
 5458SOL    HW216740   2.304   1.582   6.349 -0.1741  0.7943  2.0379
 5459SOL     OW16741   3.834   1.769   5.363 -0.2178 -0.0234  0.0969
 5459SOL    HW116742   3.875   1.686   5.337  1.2375  0.5557  0.4427
 5459SOL    HW216743   3.908   1.827   5.382 -1.1125  0.2786  3.3510
 5460SOL     OW16744   1.165   1.603   5.376  0.0861  0.2413 -0.2551
 5460SOL    HW116745   1.141   1.510   5.380 -0.3866  0.3104 -1.1917
 5460SOL    HW216746   1.132   1.633   5.292 -1.7669  1.8182  0.9439
 5461SOL     OW16747   2.785   0.445   4.351  0.2276  0.2846 -0.4286
 5461SOL    HW116748   2.739   0.529   4.356  1.5647  1.1474 -1.6426
 5461SOL    HW216749   2.759   0.409   4.266  0.8428  0.2050 -0.5864
 5462SOL     OW16750   5.887   1.309   3.698 -0.5826 -0.3412 -0.3323
 5462SOL    HW116751   5.879   1.396   3.660  0.1867  1.3880  3.0552
 5462SOL    HW216752   5.823   1.308   3.769 -1.0935 -2.8640 -0.7429
 5463SOL     OW16753   6.410   1.918   6.464  0.8249  0.0049  0.3647
 5463SOL    HW116754   6.453   1.917   6.550  0.2722  0.9029  0.6696
 5463SOL    HW216755   6.475   1.880   6.405  0.7287 -1.8778  1.3735
 5464SOL     OW16756   6.044   4.516   5.458  0.4901 -0.2153 -0.5859
 5464SOL    HW116757   5.985   4.451   5.420 -0.1882  1.0295 -1.7826
 5464SOL    HW216758   6.091   4.470   5.527 -1.7292 -1.3091  0.2843
 5465SOL     OW16759   5.445   0.788   4.813 -0.4013 -0.1341  0.1467
 5465SOL    HW116760   5.377   0.784   4.746  0.3142 -0.5251 -0.5594
 5465SOL    HW216761   5.526   0.802   4.765  0.0471  0.1550  0.9743
 5466SOL     OW16762   4.954   3.941   3.942  0.4226 -0.3384  0.2645
 5466SOL    HW116763   4.893   3.889   3.890  0.4297  0.1112 -0.2089
 5466SOL    HW216764   5.022   3.880   3.968  0.5313 -0.5277 -0.4494
 5467SOL     OW16765   4.943   5.594   2.799  0.0237 -0.2217 -0.2292
 5467SOL    HW116766   4.961   5.649   2.875 -0.9414 -0.7074  0.3698
 5467SOL    HW216767   4.855   5.619   2.771  0.9944  1.2129 -2.3159
 5468SOL     OW16768   4.519   4.035   5.617 -0.4654 -0.6917 -0.1259
 5468SOL    HW116769   4.464   4.057   5.542  0.9311 -0.8886 -1.2436
 5468SOL    HW216770   4.563   3.955   5.591 -0.5091 -1.1683  1.2239
 5469SOL     OW16771   2.874   0.890   4.428 -0.5532 -0.3914 -0.1077
 5469SOL    HW116772   2.869   0.897   4.332 -0.3808 -3.1840 -0.4029
 5469SOL    HW216773   2.818   0.815   4.450  0.6952 -0.8494  1.7771
 5470SOL     OW16774   0.384   1.933   0.069  0.9234  0.2260  0.3225
 5470SOL    HW116775   0.397   1.951  -0.024 -0.4114  1.8232  0.3992
 5470SOL    HW216776   0.314   1.867   0.071  1.4759 -0.3756  0.1959
 5471SOL     OW16777   5.907   0.131   6.314 -0.1289  0.0329  0.3431
 5471SOL    HW116778   5.812   0.118   6.305 -0.0942  0.1946 -0.3537
 5471SOL    HW216779   5.936   0.059   6.370 -0.4418 -0.9890 -0.7503
 5472SOL     OW16780   4.299   1.174   3.963  0.4545 -0.2218  0.2005
 5472SOL    HW116781   4.290   1.255   3.912  0.2916 -0.2948  0.1134
 5472SOL    HW216782   4.360   1.197   4.034  0.3116  0.0115  0.2473
 5473SOL     OW16783   6.200   0.924   0.684  0.1831  0.2515 -0.8485
 5473SOL    HW116784   6.274   0.879   0.723 -0.8271 -0.6792  0.0767
 5473SOL    HW216785   6.150   0.855   0.641  0.0252  0.9146 -1.7471
 5474SOL     OW16786   0.951   1.508   4.281 -0.0061  0.0932  0.2855
 5474SOL    HW116787   0.974   1.439   4.342 -0.2829 -2.1643 -2.0061
 5474SOL    HW216788   0.857   1.498   4.267  0.1329  0.2538 -0.8420
 5475SOL     OW16789   6.581   4.056   0.737  0.1982 -0.5529  0.1014
 5475SOL    HW116790   6.557   4.004   0.660  1.1078  0.6272 -1.0173
 5475SOL    HW216791   6.665   4.019   0.766  0.0359 -0.7632  0.3025
 5476SOL     OW16792   6.632   1.468   4.645 -0.4076 -0.0704 -0.5750
 5476SOL    HW116793   6.714   1.424   4.664 -0.9504 -1.0716 -0.5172
 5476SOL    HW216794   6.564   1.404   4.665 -1.2018  0.6601 -0.8425
 5477SOL     OW16795   2.722   4.331   0.209 -0.1590 -0.3283 -0.1031
 5477SOL    HW116796   2.800   4.385   0.224  0.2175 -1.0032  0.3959
 5477SOL    HW216797   2.753   4.241   0.214 -1.2606 -0.6621  1.9760
 5478SOL     OW16798   2.201   3.109   4.952  0.8700  0.0550  0.1636
 5478SOL    HW116799   2.258   3.080   5.023  0.5116 -0.3765  0.2845
 5478SOL    HW216800   2.214   3.204   4.947  0.9574  0.0776  0.7524
 5479SOL     OW16801   5.566   3.326   0.744  0.3995 -0.3007 -0.2665
 5479SOL    HW116802   5.627   3.395   0.717 -0.3565  1.6098  2.5313
 5479SOL    HW216803   5.479   3.360   0.721  0.0730 -0.6998  0.3368
 5480SOL     OW16804   4.873   4.693   6.329 -0.4534 -0.1748  0.2184
 5480SOL    HW116805   4.915   4.614   6.364  2.6979  0.0925 -2.5020
 5480SOL    HW216806   4.945   4.746   6.297 -2.7417  1.8107 -2.0643
 5481SOL     OW16807   5.812   1.259   1.779  0.0542 -0.1552  0.4430
 5481SOL    HW116808   5.818   1.191   1.711 -0.2256 -0.2954  0.5592
 5481SOL    HW216809   5.806   1.341   1.730  0.2447 -0.2228  0.3018
 5482SOL     OW16810   4.298   2.622   3.189  0.1810 -0.2132 -0.3853
 5482SOL    HW116811   4.371   2.683   3.192  0.1768 -0.1682  3.0921
 5482SOL    HW216812   4.337   2.539   3.160  0.4070  0.9782 -3.9322
 5483SOL     OW16813   0.053   4.904   5.169 -0.1056  0.5782  0.4582
 5483SOL    HW116814   0.077   4.948   5.251  2.2255  0.5562 -0.1395
 5483SOL    HW216815   0.111   4.942   5.103 -1.5409  0.1906 -1.0992
 5484SOL     OW16816   6.265   4.097   4.784 -0.3330 -0.1789  0.0666
 5484SOL    HW116817   6.180   4.054   4.795  0.6047 -1.9919  0.5751
 5484SOL    HW216818   6.275   4.151   4.862 -0.5646 -0.7614  0.5026
 5485SOL     OW16819   0.723   2.256   6.045 -0.5317  0.1788 -0.4594
 5485SOL    HW116820   0.772   2.240   5.964  1.1549 -0.1724  0.5755
 5485SOL    HW216821   0.632   2.238   6.022  0.0134 -0.8186 -2.0328
 5486SOL     OW16822   2.877   2.788   1.325 -0.8072 -0.4357  0.3106
 5486SOL    HW116823   2.904   2.769   1.414  0.5623 -1.6462 -0.3188
 5486SOL    HW216824   2.922   2.723   1.271  0.8554  2.0444 -1.5810
 5487SOL     OW16825   6.528   6.232   1.573 -0.7839 -0.0272 -0.0895
 5487SOL    HW116826   6.518   6.161   1.636 -3.0592  0.3743  0.0779
 5487SOL    HW216827   6.516   6.190   1.488  1.8265 -0.4820 -0.3421
 5488SOL     OW16828   4.959   4.996   3.848  0.2333  0.1273  0.7021
 5488SOL    HW116829   4.929   4.975   3.760 -1.3115 -1.8869  1.6386
 5488SOL    HW216830   4.908   5.073   3.873  0.8930  0.8903 -0.2278
 5489SOL     OW16831   2.489   0.973   1.609  0.2667  0.8395 -0.7083
 5489SOL    HW116832   2.583   0.992   1.610 -0.0250  2.5130 -1.0594
 5489SOL    HW216833   2.449   1.052   1.570 -1.4826  1.2540  1.6739
 5490SOL     OW16834   1.877   6.694   2.339  0.6240 -0.0111  0.0518
 5490SOL    HW116835   1.841   6.608   2.316  1.0026  0.1258 -1.1412
 5490SOL    HW216836   1.806   6.755   2.322  0.9765  0.1159 -1.0409
 5491SOL     OW16837   0.029   1.880   0.344 -0.9336  0.2294  0.0345
 5491SOL    HW116838   0.115   1.849   0.374 -0.9662  0.3340  0.2324
 5491SOL    HW216839  -0.006   1.930   0.417 -1.4397 -0.3414  0.1880
 5492SOL     OW16840   1.567   4.919   6.519 -0.0822 -0.6409 -0.2814
 5492SOL    HW116841   1.608   4.983   6.460 -0.1674  0.6062  0.9601
 5492SOL    HW216842   1.641   4.874   6.560  0.1545  1.2120  1.5266
 5493SOL     OW16843   5.205   1.078   3.419 -0.2911  0.1693  0.3047
 5493SOL    HW116844   5.232   1.060   3.510 -1.4161 -2.1455  0.2508
 5493SOL    HW216845   5.171   1.168   3.422  1.2764  0.7713  1.7712
 5494SOL     OW16846   3.734   4.090   2.235  0.7668 -0.7170 -0.2110
 5494SOL    HW116847   3.779   4.005   2.227  1.2127 -0.4683 -0.3943
 5494SOL    HW216848   3.661   4.084   2.173  0.2771 -1.2943  0.4133
 5495SOL     OW16849   0.039   5.436   0.121  0.0656 -0.7209 -0.5885
 5495SOL    HW116850  -0.029   5.391   0.172  0.2225  1.4666  1.7488
 5495SOL    HW216851   0.114   5.376   0.122 -0.0254 -0.8448  1.5944
 5496SOL     OW16852   4.472   5.419   3.329  0.4012 -0.5204  0.7522
 5496SOL    HW116853   4.436   5.409   3.417  0.1075  1.3189  0.8731
 5496SOL    HW216854   4.400   5.455   3.277  1.3190  0.9442  0.4269
 5497SOL     OW16855   5.905   4.811   3.700  0.6057 -0.1898 -0.1088
 5497SOL    HW116856   5.907   4.868   3.777 -1.2698 -0.7412  0.3990
 5497SOL    HW216857   5.960   4.736   3.724 -0.5288 -0.7033  1.0240
 5498SOL     OW16858   1.338   2.006   5.356  0.3561 -0.0627 -0.5333
 5498SOL    HW116859   1.323   1.996   5.262 -1.4649 -1.3364 -0.1396
 5498SOL    HW216860   1.349   2.101   5.368 -0.4843  0.2333 -1.8666
 5499SOL     OW16861   4.556   2.151   2.230 -0.6608 -0.0269  0.1055
 5499SOL    HW116862   4.509   2.069   2.244 -2.3378  0.4870 -1.9265
 5499SOL    HW216863   4.538   2.173   2.138  3.0518  0.5941 -0.6457
 5500SOL     OW16864   5.700   2.151   5.526  0.1285  0.4244 -0.2690
 5500SOL    HW116865   5.664   2.085   5.467 -1.7290  0.0067  1.2169
 5500SOL    HW216866   5.788   2.120   5.546  0.5228  0.1939 -2.1702
 5501SOL     OW16867   2.513   1.263   4.488 -0.2793  0.6480  0.0255
 5501SOL    HW116868   2.545   1.349   4.461  0.5203  0.3980  0.1508
 5501SOL    HW216869   2.449   1.239   4.421  0.2614  0.8791 -0.5848
 5502SOL     OW16870   0.071   1.758   5.865 -0.4424  0.5813 -0.1575
 5502SOL    HW116871   0.036   1.847   5.860  0.1528  0.8234 -0.1029
 5502SOL    HW216872   0.135   1.753   5.794 -2.2532 -0.6247 -1.7891
 5503SOL     OW16873   1.807   4.875   0.018 -0.5810  0.1828  0.2594
 5503SOL    HW116874   1.863   4.884  -0.059  0.7787  1.2363  1.3219
 5503SOL    HW216875   1.744   4.807  -0.006  1.5742 -1.5632 -0.7558
 5504SOL     OW16876   2.503   5.295   5.891 -0.0250  0.5901  0.5280
 5504SOL    HW116877   2.463   5.238   5.826 -0.1602  0.8145  0.4106
 5504SOL    HW216878   2.471   5.263   5.975  0.3550  0.1390  0.5018
 5505SOL     OW16879   3.021   2.105   4.823 -0.7626  0.1728 -0.2565
 5505SOL    HW116880   3.066   2.126   4.741 -0.9538 -1.0296 -0.6910
 5505SOL    HW216881   3.091   2.086   4.885 -0.6338 -0.2812 -0.5356
 5506SOL     OW16882   5.839   4.102   3.021 -0.2709 -0.1638  0.0089
 5506SOL    HW116883   5.796   4.054   2.951 -0.3047  0.1170 -0.1628
 5506SOL    HW216884   5.881   4.034   3.074  1.1353 -0.2753 -1.1935
 5507SOL     OW16885   1.331   6.481   3.877 -0.3951  0.5439  0.4103
 5507SOL    HW116886   1.258   6.468   3.937  0.9230  0.7847  2.1191
 5507SOL    HW216887   1.317   6.416   3.808 -1.9923  0.3224  0.9051
 5508SOL     OW16888   3.198   2.249   0.594 -0.1201  0.1916 -0.6708
 5508SOL    HW116889   3.192   2.163   0.635  0.8510 -0.1021 -1.1118
 5508SOL    HW216890   3.276   2.244   0.540  0.5225  1.6927  0.0689
 5509SOL     OW16891   3.560   1.454   3.689 -0.3491 -0.2449 -0.6560
 5509SOL    HW116892   3.562   1.360   3.673  0.9328 -0.6274  1.3895
 5509SOL    HW216893   3.650   1.484   3.674 -0.4312  0.3876  0.0022
 5510SOL     OW16894   0.965   5.581   3.920  0.4511 -0.0857 -0.3954
 5510SOL    HW116895   1.060   5.590   3.913  0.4811 -0.5831 -0.6150
 5510SOL    HW216896   0.943   5.511   3.860 -0.1365  0.4566 -0.8281
 5511SOL     OW16897   3.207   5.602   3.796 -0.1863 -0.1385 -0.3600
 5511SOL    HW116898   3.262   5.564   3.864  0.1650 -2.0692 -1.6548
 5511SOL    HW216899   3.120   5.567   3.812  0.0783 -1.3439 -1.3834
 5512SOL     OW16900   4.730   0.144   5.170 -0.2032  0.3196 -0.5549
 5512SOL    HW116901   4.655   0.088   5.187  0.4462 -0.8819 -1.5105
 5512SOL    HW216902   4.787   0.133   5.246 -0.3408  0.1297 -0.4798
 5513SOL     OW16903   3.285   2.590   5.248 -0.5723  0.2085 -0.4662
 5513SOL    HW116904   3.198   2.616   5.279 -1.3236 -1.0557 -1.3968
 5513SOL    HW216905   3.325   2.671   5.217 -1.0391  0.9577  0.8128
 5514SOL     OW16906   5.930   1.249   0.761 -0.0807 -0.0897 -0.2761
 5514SOL    HW116907   5.884   1.287   0.685  2.9992  0.9537 -1.7781
 5514SOL    HW216908   5.988   1.183   0.722 -0.1806 -1.3029  1.5311
 5515SOL     OW16909   4.629   5.018   3.043 -0.5263 -0.5411  0.9467
 5515SOL    HW116910   4.613   5.083   2.974 -3.0989 -2.0077  0.0246
 5515SOL    HW216911   4.717   5.039   3.075  0.1008  1.2582 -1.5999
 5516SOL     OW16912   5.475   3.869   6.761 -0.4332 -0.2235  0.0667
 5516SOL    HW116913   5.531   3.797   6.787  0.8617  0.5935 -0.3731
 5516SOL    HW216914   5.516   3.947   6.798 -0.6605  0.5159 -1.1613
 5517SOL     OW16915   1.883   1.680   0.351 -0.3312  0.1447 -0.1067
 5517SOL    HW116916   1.850   1.592   0.334  1.5571 -0.4803 -0.7735
 5517SOL    HW216917   1.919   1.675   0.440  0.4721 -0.0011 -0.4308
 5518SOL     OW16918   4.370   5.882   6.483  0.1354 -0.1393 -0.4076
 5518SOL    HW116919   4.389   5.901   6.575  0.2267 -0.8184 -0.2786
 5518SOL    HW216920   4.286   5.836   6.485  0.1571 -0.1922 -0.6611
 5519SOL     OW16921   5.368   1.579   0.396 -0.7609 -0.3495  0.4224
 5519SOL    HW116922   5.355   1.602   0.488  0.8506  0.3771  0.4900
 5519SOL    HW216923   5.420   1.499   0.398 -0.2304 -0.0176  0.1567
 5520SOL     OW16924   1.484   1.538   0.724  0.0884 -0.1541 -0.4587
 5520SOL    HW116925   1.449   1.553   0.636  0.9286 -0.0574 -0.7916
 5520SOL    HW216926   1.408   1.519   0.778 -0.3583 -1.2211 -1.4190
 5521SOL     OW16927   0.473   3.790   4.833  0.4920  0.5656 -0.2032
 5521SOL    HW116928   0.383   3.810   4.857  0.6969  0.4802  0.6556
 5521SOL    HW216929   0.518   3.773   4.916  1.0783 -0.3236 -0.6776
 5522SOL     OW16930   5.692   1.176   2.029 -0.0588 -0.2275  0.1366
 5522SOL    HW116931   5.723   1.172   1.938  0.4517 -1.4523  0.3519
 5522SOL    HW216932   5.703   1.268   2.054  1.7457 -0.2709 -0.3747
 5523SOL     OW16933   6.202   3.765   2.537  0.1086  0.0704  0.7326
 5523SOL    HW116934   6.115   3.754   2.577 -0.1191  0.7698  0.4397
 5523SOL    HW216935   6.189   3.832   2.470  0.5976 -0.7465 -0.1954
 5524SOL     OW16936   1.077   1.808   3.605  0.1508  0.0284  0.4608
 5524SOL    HW116937   1.070   1.888   3.658  0.7577  0.2863  0.1594
 5524SOL    HW216938   1.158   1.819   3.556 -0.0661 -0.5128 -0.0263
 5525SOL     OW16939   4.986   5.072   1.368  0.4264 -0.2122 -0.5182
 5525SOL    HW116940   5.027   5.011   1.429 -2.8444  0.0886  2.2713
 5525SOL    HW216941   5.011   5.159   1.400 -3.2588  0.0709  2.3914
 5526SOL     OW16942   5.853   4.319   4.847 -1.3284  0.7421  0.4945
 5526SOL    HW116943   5.820   4.327   4.937  0.1986 -0.1003  1.1680
 5526SOL    HW216944   5.936   4.366   4.848 -0.6392 -0.4158 -0.0989
 5527SOL     OW16945   5.810   6.157   3.623  0.0181 -0.0928  0.3278
 5527SOL    HW116946   5.887   6.210   3.643 -0.6725  0.1705  2.6341
 5527SOL    HW216947   5.815   6.084   3.686 -0.7618 -0.9658 -0.5907
 5528SOL     OW16948   1.148   5.875   4.367 -0.4202 -0.4518  0.1995
 5528SOL    HW116949   1.094   5.800   4.393 -0.1725 -0.8567 -0.4559
 5528SOL    HW216950   1.177   5.855   4.278 -1.7831  1.2110 -0.6813
 5529SOL     OW16951   1.280   6.271   6.770  0.9102 -0.2002  0.1584
 5529SOL    HW116952   1.298   6.287   6.863  0.2391  0.7590  0.1436
 5529SOL    HW216953   1.299   6.354   6.727  1.0772 -0.5940 -0.5490
 5530SOL     OW16954   1.314   6.571   1.793 -0.0608  0.1210 -0.5709
 5530SOL    HW116955   1.370   6.573   1.715 -0.7070 -1.1551 -1.0918
 5530SOL    HW216956   1.369   6.531   1.860 -0.1519 -0.6298 -0.9341
 5531SOL     OW16957   1.249   0.593   1.119  0.0129  0.1097 -0.3021
 5531SOL    HW116958   1.215   0.556   1.201  2.1782  1.2707  1.2127
 5531SOL    HW216959   1.183   0.571   1.054 -1.2159 -1.9460  1.4952
 5532SOL     OW16960   2.331   5.673   1.249  0.5161  0.5805  0.0062
 5532SOL    HW116961   2.330   5.680   1.153  0.7064 -0.3964 -0.0716
 5532SOL    HW216962   2.418   5.705   1.274 -0.1946  2.6820  0.0328
 5533SOL     OW16963   2.453   4.768   5.224  0.3625  0.1227  0.1398
 5533SOL    HW116964   2.472   4.694   5.166 -1.0779  0.3136 -0.6188
 5533SOL    HW216965   2.487   4.742   5.309  0.7576 -0.9887 -0.3480
 5534SOL     OW16966   1.008   2.536   6.333  0.2849 -0.2307 -0.4862
 5534SOL    HW116967   0.961   2.609   6.293  1.1126  0.0533 -0.9455
 5534SOL    HW216968   0.938   2.479   6.367 -0.4750 -0.5640 -2.4433
 5535SOL     OW16969   6.745   6.512   1.109  0.1199  0.0942 -0.0947
 5535SOL    HW116970   6.650   6.504   1.114  0.1035  0.7778  2.1733
 5535SOL    HW216971   6.768   6.478   1.023 -2.0310 -1.4817 -0.1402
 5536SOL     OW16972   4.952   0.432   0.549 -0.0971  0.1404 -0.0261
 5536SOL    HW116973   4.904   0.482   0.483  1.4846  0.3120 -1.1318
 5536SOL    HW216974   5.043   0.459   0.536  0.9453 -3.3372 -1.0585
 5537SOL     OW16975   2.102   1.087   4.275  0.1369 -0.2576 -0.5298
 5537SOL    HW116976   2.108   1.013   4.335  1.2518 -1.9779 -2.5894
 5537SOL    HW216977   2.175   1.074   4.214  0.0063  2.2432 -1.3435
 5538SOL     OW16978   0.628   1.965   3.921  0.4541 -0.0720  0.0496
 5538SOL    HW116979   0.703   1.922   3.881  2.2248  0.6993  2.3558
 5538SOL    HW216980   0.631   2.055   3.887 -0.6289 -0.5129 -1.3272
 5539SOL     OW16981   0.581   0.236   0.980 -0.2406  0.2074 -0.5764
 5539SOL    HW116982   0.672   0.260   0.961  0.0759  0.6514  1.2669
 5539SOL    HW216983   0.536   0.319   0.991 -0.3144  0.0171  0.7810
 5540SOL     OW16984   5.126   6.301   1.060 -0.5524  0.2834  0.0860
 5540SOL    HW116985   5.078   6.332   0.983 -1.2861 -2.6250 -0.7764
 5540SOL    HW216986   5.059   6.294   1.128 -0.7068 -0.5905 -0.1352
 5541SOL     OW16987   5.116   2.192   3.779  0.1262 -0.1210 -0.0526
 5541SOL    HW116988   5.150   2.240   3.704 -1.8170  1.6675  0.1162
 5541SOL    HW216989   5.043   2.141   3.744  0.0828 -0.3540  0.3727
 5542SOL     OW16990   6.424   4.413   1.389 -0.2476  0.4999  0.3469
 5542SOL    HW116991   6.469   4.362   1.456 -0.1100  0.4239  0.1975
 5542SOL    HW216992   6.454   4.503   1.404 -0.9424  0.6335  0.9812
 5543SOL     OW16993   1.849   3.031   2.499  0.4074 -0.6133  0.6442
 5543SOL    HW116994   1.764   3.061   2.531 -0.3116 -3.2333  1.5024
 5543SOL    HW216995   1.897   3.006   2.579  1.7367  0.1883  0.1271
 5544SOL     OW16996   1.691   5.470   2.263  0.4640  0.0804  0.7355
 5544SOL    HW116997   1.710   5.406   2.332  1.0908 -0.1813  0.3330
 5544SOL    HW216998   1.768   5.527   2.262  1.2088 -0.8782 -0.8050
 5545SOL     OW16999   2.631   2.592   0.159 -0.2664 -0.2459 -0.3028
 5545SOL    HW117000   2.539   2.618   0.146 -0.1093  0.1253 -0.7145
 5545SOL    HW217001   2.651   2.619   0.249 -0.2454  0.6701 -0.5663
 5546SOL     OW17002   3.407   2.117   1.552 -0.5198  0.2610 -0.4156
 5546SOL    HW117003   3.489   2.153   1.587  0.3991  0.0668 -2.2322
 5546SOL    HW217004   3.435   2.065   1.476 -2.2574 -0.5929 -0.5075
 5547SOL     OW17005   5.899   3.079   5.387 -0.1844  0.1995 -0.1449
 5547SOL    HW117006   5.900   3.169   5.352  0.6483 -0.4433 -1.9474
 5547SOL    HW217007   5.897   3.024   5.308  0.6588 -1.3680  0.8969
 5548SOL     OW17008   6.403   6.195   3.111 -0.5750 -0.1279 -0.2851
 5548SOL    HW117009   6.359   6.215   3.029 -2.0057 -0.3303  0.4027
 5548SOL    HW217010   6.493   6.225   3.098 -0.7016 -0.3648 -1.9945
 5549SOL     OW17011   4.027   5.969   5.013 -0.3497  0.5536  0.1025
 5549SOL    HW117012   4.089   5.978   4.941  0.4250  1.4490  0.8486
 5549SOL    HW217013   4.035   5.878   5.041  0.1570  0.4971 -0.2318
 5550SOL     OW17014   1.776   3.540   2.543 -0.0773 -0.2490 -0.1057
 5550SOL    HW117015   1.700   3.543   2.600  1.1319 -0.6102  1.6182
 5550SOL    HW217016   1.772   3.621   2.492 -0.6843  0.5903  1.2233
 5551SOL     OW17017   1.138   3.933   2.387 -0.5052 -0.5713  0.4712
 5551SOL    HW117018   1.184   4.005   2.430 -0.4712  0.0809 -0.6249
 5551SOL    HW217019   1.162   3.856   2.438  0.9606 -0.0808  0.5846
 5552SOL     OW17020   1.353   2.772   0.850 -0.6620 -0.0825  0.5465
 5552SOL    HW117021   1.373   2.693   0.800 -1.4369  1.1471 -1.8513
 5552SOL    HW217022   1.423   2.834   0.827 -1.9690  1.0844 -0.4579
 5553SOL     OW17023   5.735   6.243   3.925  0.4796  0.0044  0.3786
 5553SOL    HW117024   5.799   6.307   3.956  2.1920 -0.4266 -1.9676
 5553SOL    HW217025   5.765   6.160   3.963 -0.2701  0.1855  1.3981
 5554SOL     OW17026   2.913   5.987   4.169 -0.0359 -0.4295  0.5609
 5554SOL    HW117027   2.976   5.991   4.241 -0.9852 -3.9316  1.7905
 5554SOL    HW217028   2.828   5.979   4.213 -1.1928  2.0212 -1.0431
 5555SOL     OW17029   3.235   4.449   1.983  0.3396 -0.2553  0.6722
 5555SOL    HW117030   3.238   4.519   2.048  0.0943  0.0431  0.3685
 5555SOL    HW217031   3.293   4.479   1.913  1.3838 -1.0264  1.1846
 5556SOL     OW17032   0.322   6.048   1.700  0.4129  0.0067 -0.0111
 5556SOL    HW117033   0.378   6.083   1.770 -2.6016  1.0246  2.0679
 5556SOL    HW217034   0.294   6.125   1.651  0.8276 -0.5012 -1.0692
 5557SOL     OW17035   3.151   0.213   4.278 -0.3056 -0.1065  0.2829
 5557SOL    HW117036   3.075   0.242   4.330 -0.0817  1.1362 -0.0543
 5557SOL    HW217037   3.203   0.161   4.339 -1.1323 -0.4748  0.6855
 5558SOL     OW17038   0.416   6.288   3.602 -0.0290  0.1090  0.4005
 5558SOL    HW117039   0.342   6.272   3.662 -0.1804 -0.5020  0.0619
 5558SOL    HW217040   0.464   6.360   3.643 -1.4787  1.3564  0.0198
 5559SOL     OW17041   2.252   4.877   6.564  0.4434 -0.2529  0.3707
 5559SOL    HW117042   2.223   4.958   6.606  0.0608 -0.4460  0.4778
 5559SOL    HW217043   2.259   4.900   6.471  3.4123  0.8012  0.7632
 5560SOL     OW17044   3.032   3.499   2.412  0.7581  0.3582  0.3123
 5560SOL    HW117045   3.022   3.432   2.479  2.3014  0.6463  0.8782
 5560SOL    HW217046   2.945   3.508   2.373 -0.0088 -0.3021  1.7979
 5561SOL     OW17047   0.510   0.528   5.433  0.0329  0.0815  0.1706
 5561SOL    HW117048   0.523   0.441   5.395 -0.3621 -0.5638  1.4643
 5561SOL    HW217049   0.415   0.537   5.440  0.1014 -0.3177  2.0654
 5562SOL     OW17050   0.619   4.104   0.847  0.3396  0.3049 -0.0714
 5562SOL    HW117051   0.589   4.036   0.787 -0.1618 -1.5537  2.1601
 5562SOL    HW217052   0.710   4.082   0.865 -0.2659 -0.8144  1.8905
 5563SOL     OW17053   0.021   3.298   2.449  0.0097  0.2642 -0.1552
 5563SOL    HW117054   0.106   3.255   2.449 -0.4377 -0.6555 -0.0787
 5563SOL    HW217055   0.040   3.389   2.471  0.8613 -0.1571  0.9617
 5564SOL     OW17056   5.253   5.141   0.991  0.0144 -0.5921 -0.4694
 5564SOL    HW117057   5.305   5.178   0.920  0.5784  0.9633  0.6874
 5564SOL    HW217058   5.316   5.094   1.045  0.2010  0.8705  0.6571
 5565SOL     OW17059   2.939   0.340   6.147 -0.0326  0.3691  0.7388
 5565SOL    HW117060   2.992   0.366   6.072  0.0272 -1.8824 -0.0669
 5565SOL    HW217061   2.854   0.380   6.132  0.2553  0.7065 -0.0317
 5566SOL     OW17062   2.955   1.875   1.576  0.0028  0.0092  0.3038
 5566SOL    HW117063   3.014   1.831   1.638  1.2170  1.8216  0.5219
 5566SOL    HW217064   2.872   1.881   1.622  0.3362 -0.4105  0.9879
 5567SOL     OW17065   3.970   0.349   3.959  0.1929  0.1109 -0.1252
 5567SOL    HW117066   3.979   0.362   3.864 -0.2351 -0.1345 -0.2067
 5567SOL    HW217067   4.059   0.356   3.993  0.1341  2.1631 -0.2816
 5568SOL     OW17068   4.773   4.466   1.286  0.1016 -0.2519  0.5704
 5568SOL    HW117069   4.684   4.464   1.250 -0.8721 -0.0089  2.7401
 5568SOL    HW217070   4.800   4.557   1.276 -0.7159  0.1333  1.6159
 5569SOL     OW17071   6.715   3.376   1.093 -0.1306  0.0593  0.3730
 5569SOL    HW117072   6.733   3.442   1.160  0.1947  0.9756 -0.5830
 5569SOL    HW217073   6.796   3.328   1.084 -0.1722 -0.0596  0.6305
 5570SOL     OW17074   2.509   4.119   4.090 -0.3909 -0.0178  0.2500
 5570SOL    HW117075   2.529   4.176   4.163  0.2758  0.6184 -0.4095
 5570SOL    HW217076   2.522   4.030   4.123 -0.7568  0.2343  1.0799
 5571SOL     OW17077   2.251   2.908   2.224 -0.4704 -0.3965  0.6054
 5571SOL    HW117078   2.309   2.931   2.151 -1.7292 -0.6173 -0.4980
 5571SOL    HW217079   2.180   2.859   2.184 -1.3856 -0.2192  1.9454
 5572SOL     OW17080   5.157   3.107   3.553  0.3252 -0.3952  0.2763
 5572SOL    HW117081   5.176   3.111   3.459  1.6432  1.0333  0.5513
 5572SOL    HW217082   5.076   3.056   3.560 -0.4298  0.4443 -1.7299
 5573SOL     OW17083   0.238   2.008   3.577  0.2171 -0.2872 -0.1053
 5573SOL    HW117084   0.300   2.067   3.620 -1.3551  0.7478  0.8276
 5573SOL    HW217085   0.291   1.933   3.551  2.1077  1.1248 -0.5276
 5574SOL     OW17086   5.658   0.560   5.596 -0.0286 -0.0127  0.3040
 5574SOL    HW117087   5.620   0.642   5.629 -0.6398 -0.0097 -0.3584
 5574SOL    HW217088   5.585   0.517   5.552  0.5484 -0.4016 -0.2909
 5575SOL     OW17089   3.285   1.963   0.387  0.1300 -0.1728 -0.5758
 5575SOL    HW117090   3.202   1.922   0.411  0.4823  1.1518  3.8947
 5575SOL    HW217091   3.263   2.054   0.367  0.4411  0.1735  0.5813
 5576SOL     OW17092   5.034   3.161   5.038  0.1156  0.1560  0.2695
 5576SOL    HW117093   4.989   3.193   4.960 -0.1537 -0.8709 -0.0239
 5576SOL    HW217094   5.108   3.221   5.050 -0.8212  1.3475  0.2493
 5577SOL     OW17095   6.124   5.302   3.237  0.0486 -0.1762 -0.1209
 5577SOL    HW117096   6.032   5.293   3.210 -0.3762  0.9760  0.8308
 5577SOL    HW217097   6.128   5.260   3.323  0.1046  0.7963  0.3731
 5578SOL     OW17098   4.638   5.221   2.854 -0.4239 -0.0825  0.1025
 5578SOL    HW117099   4.696   5.260   2.920  0.0250 -0.7463  0.1058
 5578SOL    HW217100   4.696   5.202   2.780 -0.7994  0.0237 -0.2201
 5579SOL     OW17101   2.290   0.545   5.959  0.3870  0.1355  0.0485
 5579SOL    HW117102   2.364   0.484   5.967  0.5010  0.2376 -0.2096
 5579SOL    HW217103   2.215   0.495   5.990  0.4322 -0.2348 -0.4122
 5580SOL     OW17104   2.603   3.379   1.449 -0.9189  0.5498  0.1859
 5580SOL    HW117105   2.534   3.427   1.495  0.5989  2.8860  0.1636
 5580SOL    HW217106   2.684   3.418   1.480  0.3496 -0.9967 -1.0232
 5581SOL     OW17107   5.068   5.722   6.208 -0.2903  0.5745 -0.3573
 5581SOL    HW117108   5.067   5.676   6.125 -2.1220  0.8053 -0.5146
 5581SOL    HW217109   5.069   5.815   6.184 -3.5575  0.7516 -0.3060
 5582SOL     OW17110   3.969   3.317   6.301  0.4618 -0.2884 -0.1183
 5582SOL    HW117111   3.972   3.402   6.345  0.4376 -0.6376  0.5858
 5582SOL    HW217112   4.041   3.318   6.239  1.1144 -0.1481  0.6349
 5583SOL     OW17113   2.966   5.807   3.082 -0.2202 -0.2122 -0.4273
 5583SOL    HW117114   2.960   5.761   3.166  1.1674  0.4286  0.0501
 5583SOL    HW217115   3.028   5.756   3.031 -0.8528 -0.4469 -0.9698
 5584SOL     OW17116   5.399   1.747   1.041 -0.0881 -0.0967 -0.2788
 5584SOL    HW117117   5.335   1.692   1.087  0.6705 -0.9463 -0.2052
 5584SOL    HW217118   5.346   1.804   0.986 -0.9495 -0.1601  0.4534
 5585SOL     OW17119   4.538   1.350   3.053  0.0324 -0.0815 -0.2027
 5585SOL    HW117120   4.586   1.267   3.054 -2.4596 -1.6127  1.3346
 5585SOL    HW217121   4.586   1.406   3.113  1.2581 -0.6951 -0.5764
 5586SOL     OW17122   3.865   2.415   5.601 -0.2209  0.2435  0.2782
 5586SOL    HW117123   3.855   2.456   5.515 -0.6004  1.4342  0.8653
 5586SOL    HW217124   3.820   2.475   5.661  1.6681  0.4292  1.5859
 5587SOL     OW17125   0.708   0.252   0.328 -0.5050  0.4019  0.0173
 5587SOL    HW117126   0.785   0.262   0.384 -1.6817 -1.4045  2.1755
 5587SOL    HW217127   0.639   0.301   0.373 -0.9119  1.0758 -1.2887
 5588SOL     OW17128   0.207   0.598   4.895 -0.2945  0.2100 -0.2646
 5588SOL    HW117129   0.140   0.654   4.934 -1.7792 -1.2448 -0.6090
 5588SOL    HW217130   0.245   0.551   4.969 -0.8686 -0.2035 -0.2244
 5589SOL     OW17131   1.674   5.010   4.755 -0.4096  0.0687  0.1199
 5589SOL    HW117132   1.605   5.002   4.689 -0.9107  0.7952  0.5324
 5589SOL    HW217133   1.747   4.960   4.721 -0.6514  0.4619 -1.0000
 5590SOL     OW17134   5.560   0.568   4.551 -0.5743  0.7640  0.1863
 5590SOL    HW117135   5.607   0.518   4.618 -1.2400 -0.7401 -0.4138
 5590SOL    HW217136   5.470   0.536   4.557 -0.9513  1.7004 -0.4204
 5591SOL     OW17137   2.230   1.370   5.832  0.3991 -0.2820  0.0224
 5591SOL    HW117138   2.153   1.326   5.868 -0.1994  0.1983 -0.6205
 5591SOL    HW217139   2.230   1.346   5.739 -0.0457  1.1571 -0.3860
 5592SOL     OW17140   6.548   3.268   6.311  0.4914  0.2132  0.0723
 5592SOL    HW117141   6.460   3.252   6.279 -0.5330  1.3708  2.1217
 5592SOL    HW217142   6.602   3.273   6.231 -1.5637  1.1238 -1.3497
 5593SOL     OW17143   5.192   5.976   3.250 -0.1639 -0.4854  0.4784
 5593SOL    HW117144   5.165   6.055   3.203 -2.8994 -1.9424 -0.6685
 5593SOL    HW217145   5.187   5.907   3.184  1.5332 -1.7367  1.5932
 5594SOL     OW17146   4.867   4.675   1.522  0.5775 -0.2805 -0.3348
 5594SOL    HW117147   4.842   4.599   1.574  0.8739  1.7764  3.1438
 5594SOL    HW217148   4.963   4.673   1.519  0.5561 -1.1693 -2.2758
 5595SOL     OW17149   2.193   5.056   6.318 -0.2082 -0.0942  0.1577
 5595SOL    HW117150   2.232   5.057   6.231 -0.3914  3.5616 -0.0446
 5595SOL    HW217151   2.100   5.071   6.304 -0.4435 -0.7246  0.9450
 5596SOL     OW17152   4.414   0.328   5.944  0.3782  0.3263  0.4127
 5596SOL    HW117153   4.463   0.400   5.904  0.4470  0.5800  0.9335
 5596SOL    HW217154   4.457   0.314   6.028  2.4916 -2.5857 -0.9986
 5597SOL     OW17155   6.649   0.145   4.130  0.3339 -0.0604 -0.4154
 5597SOL    HW117156   6.739   0.176   4.129  1.1953 -2.3531  0.2996
 5597SOL    HW217157   6.638   0.104   4.216 -1.2478 -0.2602 -0.6788
 5598SOL     OW17158   3.080   2.955   5.156 -0.0142  0.4500  0.4490
 5598SOL    HW117159   3.036   3.039   5.167 -1.2509 -0.3499  1.8391
 5598SOL    HW217160   3.032   2.912   5.086  0.3727  0.7163  0.0099
 5599SOL     OW17161   0.266   3.493   5.713  0.5578  0.3156  0.0650
 5599SOL    HW117162   0.319   3.555   5.661  1.2626  1.4528  2.0466
 5599SOL    HW217163   0.324   3.419   5.727 -0.1883 -0.7733 -2.0601
 5600SOL     OW17164   5.066   3.505   6.753 -0.0301 -0.5856 -0.1811
 5600SOL    HW117165   5.055   3.468   6.841  2.3589 -1.6050 -0.2120
 5600SOL    HW217166   5.048   3.598   6.763  0.5294 -0.6329  1.4796
 5601SOL     OW17167   2.604   6.168   5.947  0.0019  0.3370 -0.4285
 5601SOL    HW117168   2.684   6.221   5.937 -0.7628  1.8516  1.1270
 5601SOL    HW217169   2.579   6.146   5.857  2.5405 -0.8222 -0.9513
 5602SOL     OW17170   3.719   5.282   2.362  0.1808 -0.1757 -0.7988
 5602SOL    HW117171   3.786   5.345   2.386 -0.0207 -0.1359 -0.3338
 5602SOL    HW217172   3.761   5.197   2.373  0.2031 -0.1458 -0.6495
 5603SOL     OW17173   2.067   6.532   6.554  0.7733  0.1439  0.3655
 5603SOL    HW117174   2.074   6.541   6.649  0.3198  0.5897  0.3617
 5603SOL    HW217175   2.097   6.616   6.520  0.1301  0.2929  0.1543
 5604SOL     OW17176   0.577   5.145   6.045  0.2722  0.3070  0.1365
 5604SOL    HW117177   0.552   5.211   6.110 -1.7883 -1.0855  0.8556
 5604SOL    HW217178   0.498   5.133   5.992  0.7625 -1.2080 -0.2976
 5605SOL     OW17179   4.691   3.077   2.124 -0.8350 -0.0164  0.1140
 5605SOL    HW117180   4.760   3.051   2.185 -1.0173  1.5542  1.0607
 5605SOL    HW217181   4.675   2.999   2.072  3.0446  0.0545 -1.5426
 5606SOL     OW17182   6.761   1.582   6.016 -0.3166  0.5376 -0.1858
 5606SOL    HW117183   6.829   1.519   6.040 -1.0129 -0.7879 -1.5033
 5606SOL    HW217184   6.799   1.630   5.942 -0.9020 -0.4652 -1.1735
 5607SOL     OW17185   0.081   5.389   2.729  0.0991  0.2318 -0.7059
 5607SOL    HW117186   0.014   5.455   2.748 -1.4785 -1.9400  2.1479
 5607SOL    HW217187   0.146   5.401   2.798 -0.0547 -0.9502 -0.3364
 5608SOL     OW17188   4.476   2.501   4.921 -0.0858  0.0825 -0.4306
 5608SOL    HW117189   4.447   2.583   4.882 -0.9776 -0.2661 -0.5214
 5608SOL    HW217190   4.541   2.527   4.986  0.9632  0.7118 -1.6903
 5609SOL     OW17191   3.708   0.335   3.852  0.2652  0.1531 -0.1143
 5609SOL    HW117192   3.661   0.418   3.845  0.5251  0.1792 -2.5296
 5609SOL    HW217193   3.790   0.358   3.897 -0.4710  0.7997  0.9490
 5610SOL     OW17194   0.204   4.176   5.285  0.4768  0.2257  0.3444
 5610SOL    HW117195   0.140   4.127   5.232 -0.0977  0.7439  0.5485
 5610SOL    HW217196   0.270   4.204   5.222  0.3217 -0.0207  0.0675
 5611SOL     OW17197   0.407   1.387   0.035  0.5467  0.4769 -0.3567
 5611SOL    HW117198   0.334   1.366   0.093  1.4931 -0.0493  0.6895
 5611SOL    HW217199   0.445   1.466   0.074  2.6460 -1.1885  1.2469
 5612SOL     OW17200   3.429   3.087   0.981  0.1295 -0.0686 -0.1268
 5612SOL    HW117201   3.346   3.054   1.015 -0.9823  1.8349 -0.7950
 5612SOL    HW217202   3.434   3.052   0.892 -0.2419  0.2614 -0.2787
 5613SOL     OW17203   1.243   6.352   2.986 -0.0539 -0.3763  0.2948
 5613SOL    HW117204   1.172   6.366   2.923 -1.2754 -0.0393  1.6822
 5613SOL    HW217205   1.202   6.367   3.071  1.1842 -2.2667  1.2812
 5614SOL     OW17206   1.919   2.087   2.515 -0.2752  0.3955  0.7342
 5614SOL    HW117207   1.931   2.181   2.498 -0.6786 -0.0887 -3.2955
 5614SOL    HW217208   1.825   2.073   2.504  0.0890 -0.7897 -1.2976
 5615SOL     OW17209   2.006   0.140   6.458 -0.1835 -0.4743  0.3102
 5615SOL    HW117210   2.040   0.208   6.517 -0.2186  0.0681 -0.2791
 5615SOL    HW217211   1.918   0.122   6.491 -1.8186  2.6722 -1.7995
 5616SOL     OW17212   6.433   1.297   4.750 -0.1654  0.1538 -0.2848
 5616SOL    HW117213   6.454   1.229   4.813  2.0455 -0.1006 -1.1953
 5616SOL    HW217214   6.398   1.250   4.674 -0.7086  0.2569 -0.1041
 5617SOL     OW17215   1.305   1.327   1.722 -0.1242  0.3507 -0.5305
 5617SOL    HW117216   1.279   1.329   1.629  0.0387 -0.7354 -0.6155
 5617SOL    HW217217   1.262   1.249   1.757  0.3476  0.3879  0.1498
 5618SOL     OW17218   3.705   3.342   6.158 -0.1426 -0.0406 -0.6591
 5618SOL    HW117219   3.798   3.333   6.180  0.8909  3.1316 -3.0722
 5618SOL    HW217220   3.671   3.404   6.223  0.0487  0.6520 -1.2174
 5619SOL     OW17221   2.790   3.537   1.880  0.0590 -0.0931  0.0134
 5619SOL    HW117222   2.760   3.449   1.857 -0.2948 -0.3063  1.2085
 5619SOL    HW217223   2.724   3.569   1.942  0.8982  0.4902  0.6229
 5620SOL     OW17224   4.142   6.564   4.951  0.0323 -0.0334  0.1295
 5620SOL    HW117225   4.195   6.515   4.887 -1.5671 -1.3632 -0.2546
 5620SOL    HW217226   4.082   6.499   4.986 -1.3003  1.4051  0.5955
 5621SOL     OW17227   2.416   4.668   4.160 -0.2958  0.1359  0.2857
 5621SOL    HW117228   2.501   4.640   4.193 -0.8388 -1.4858  0.4049
 5621SOL    HW217229   2.355   4.599   4.188 -1.3044  0.2391 -1.4686
 5622SOL     OW17230   6.318   3.664   5.868 -0.2143  0.4793  0.3102
 5622SOL    HW117231   6.346   3.601   5.935  0.9444  1.8227  1.1546
 5622SOL    HW217232   6.393   3.671   5.809  0.9171  3.1503  1.8645
 5623SOL     OW17233   4.360   3.762   5.817  0.1167  0.5943 -0.2304
 5623SOL    HW117234   4.308   3.685   5.797  1.6732 -0.0412 -2.1712
 5623SOL    HW217235   4.370   3.808   5.733  1.6203  1.3229  0.2946
 5624SOL     OW17236   3.256   4.254   3.292  0.4134  0.0453  0.3368
 5624SOL    HW117237   3.276   4.227   3.381 -0.1226 -1.2708  0.0948
 5624SOL    HW217238   3.200   4.331   3.302 -0.0458 -0.3767  1.1690
 5625SOL     OW17239   0.068   3.727   6.172  0.0141  0.6979 -0.4575
 5625SOL    HW117240   0.081   3.781   6.250  1.0073  0.4113 -0.4157
 5625SOL    HW217241   0.023   3.649   6.205 -3.9718  2.5603 -0.9094
 5626SOL     OW17242   2.500   4.183   3.587  0.0683 -0.7912 -0.0868
 5626SOL    HW117243   2.421   4.129   3.585  0.0705 -0.7975 -0.0299
 5626SOL    HW217244   2.539   4.165   3.673 -1.1334  1.0060  0.8955
 5627SOL     OW17245   1.337   4.969   1.827  0.2265  0.1067 -0.5182
 5627SOL    HW117246   1.415   4.998   1.780 -0.3674 -1.8760 -2.9330
 5627SOL    HW217247   1.369   4.903   1.889  0.8020  1.5493  0.7820
 5628SOL     OW17248   5.829   2.045   6.194  0.1476  0.1419 -0.2718
 5628SOL    HW117249   5.908   2.063   6.245 -1.5019  2.1478  1.8196
 5628SOL    HW217250   5.861   2.027   6.106  2.9582  0.0778  0.6572
 5629SOL     OW17251   5.619   5.250   5.321  0.3328  0.6740  0.2488
 5629SOL    HW117252   5.646   5.194   5.394 -0.6637 -0.7365 -0.4304
 5629SOL    HW217253   5.525   5.234   5.311  0.6263  0.0409 -1.9881
 5630SOL     OW17254   2.582   2.236   3.925 -0.0769 -0.1687 -0.3155
 5630SOL    HW117255   2.541   2.197   4.003  0.7408  1.9054  1.2542
 5630SOL    HW217256   2.522   2.306   3.899  1.2855  1.4478  0.6635
 5631SOL     OW17257   6.566   5.328   3.346 -0.5031  0.4020 -0.0795
 5631SOL    HW117258   6.557   5.421   3.322  1.4533  1.0689  1.4948
 5631SOL    HW217259   6.525   5.322   3.432 -0.3863 -0.1363 -0.0628
 5632SOL     OW17260   4.734   0.139   3.259 -0.2115  0.0232 -0.7183
 5632SOL    HW117261   4.807   0.090   3.296  0.1844 -0.3949 -1.9759
 5632SOL    HW217262   4.689   0.076   3.203 -0.7859  0.6111 -0.9387
 5633SOL     OW17263   1.587   1.445   6.658 -0.1058 -0.9076  0.0577
 5633SOL    HW117264   1.520   1.415   6.720 -0.0128 -0.6068  0.3103
 5633SOL    HW217265   1.539   1.499   6.595  0.0205 -0.0055  0.7208
 5634SOL     OW17266   5.802   5.948   5.376 -0.4064  0.2605  0.2223
 5634SOL    HW117267   5.718   5.958   5.332 -0.2286 -1.0180 -0.4585
 5634SOL    HW217268   5.833   5.862   5.349  0.9834  0.5814  0.7078
 5635SOL     OW17269   0.361   0.930   2.996  0.2461  0.0407 -0.7357
 5635SOL    HW117270   0.397   0.949   3.083  1.1497 -2.4343 -0.4903
 5635SOL    HW217271   0.309   1.007   2.974 -2.0397 -0.1875  3.0424
 5636SOL     OW17272   3.677   1.220   3.216  0.1302  0.4633 -0.0419
 5636SOL    HW117273   3.601   1.202   3.161 -0.6524  1.7657  0.5655
 5636SOL    HW217274   3.735   1.272   3.160  0.2804  0.0192 -0.2992
 5637SOL     OW17275   2.576   5.517   1.725  0.1778 -0.2219 -0.1637
 5637SOL    HW117276   2.491   5.531   1.684  0.5322  0.5083 -0.6574
 5637SOL    HW217277   2.568   5.432   1.768 -0.4543 -0.6328 -1.0797
 5638SOL     OW17278   0.572   4.270   3.286 -0.4788 -0.1496  0.9889
 5638SOL    HW117279   0.604   4.248   3.199 -0.4929 -1.2096  1.2420
 5638SOL    HW217280   0.648   4.257   3.343 -0.9046 -1.1219  1.3638
 5639SOL     OW17281   6.021   2.369   6.537 -0.3448 -0.2432 -0.2122
 5639SOL    HW117282   6.109   2.401   6.558 -0.5405  0.3293 -0.2500
 5639SOL    HW217283   5.978   2.443   6.496 -0.2432 -1.0977 -1.9347
 5640SOL     OW17284   4.800   1.802   2.826  0.0972 -0.1487 -0.2851
 5640SOL    HW117285   4.833   1.881   2.783  1.2523  0.7910  2.1573
 5640SOL    HW217286   4.872   1.740   2.821  1.7097  1.1879  3.2023
 5641SOL     OW17287   6.644   0.602   5.853 -0.4325  0.0614 -0.3544
 5641SOL    HW117288   6.619   0.694   5.844 -2.6652 -0.4838 -0.3600
 5641SOL    HW217289   6.655   0.589   5.947  1.8288  0.7480 -0.4742
 5642SOL     OW17290   3.074   6.474   1.101 -0.0251 -0.1554 -0.9466
 5642SOL    HW117291   3.142   6.539   1.116  0.1403 -0.2877 -1.1211
 5642SOL    HW217292   3.054   6.439   1.188  0.2498 -0.2383 -0.9160
 5643SOL     OW17293   5.941   6.750   4.017 -0.4838 -0.0448 -0.5032
 5643SOL    HW117294   5.932   6.802   4.097 -1.8809 -1.8565  0.5771
 5643SOL    HW217295   5.880   6.790   3.955  0.6543  1.4074 -0.7398
 5644SOL     OW17296   1.974   4.608   0.924  0.1366  0.1892 -0.2520
 5644SOL    HW117297   1.904   4.651   0.875 -0.3080 -0.2553 -0.0109
 5644SOL    HW217298   1.989   4.526   0.877 -0.7723 -0.5698  0.7303
 5645SOL     OW17299   3.519   2.424   4.402 -0.0862  0.0720 -0.0365
 5645SOL    HW117300   3.543   2.432   4.309 -0.3713 -0.4168 -0.1541
 5645SOL    HW217301   3.545   2.508   4.440  0.4804  0.0968 -0.4587
 5646SOL     OW17302   3.316   4.365   2.805  0.0014  0.1418  0.3285
 5646SOL    HW117303   3.279   4.441   2.761 -1.6026 -1.0984 -0.5799
 5646SOL    HW217304   3.408   4.365   2.779 -0.6086  0.1425 -2.1255
 5647SOL     OW17305   3.581   1.354   6.352  0.4204  0.4308 -0.2013
 5647SOL    HW117306   3.602   1.387   6.265  2.1759  1.1920  0.4575
 5647SOL    HW217307   3.570   1.259   6.340  0.2003  0.5879 -1.3064
 5648SOL     OW17308   3.251   4.431   4.426 -0.6214  0.1264  0.9513
 5648SOL    HW117309   3.235   4.337   4.420 -1.7435  0.2576  1.6248
 5648SOL    HW217310   3.268   4.446   4.519  3.0050  0.1046  0.4373
 5649SOL     OW17311   2.936   6.389   0.170 -0.4358 -0.2516 -0.2670
 5649SOL    HW117312   2.925   6.370   0.263 -1.3927 -0.9578 -0.5172
 5649SOL    HW217313   2.963   6.306   0.131 -0.3690 -0.0388 -0.6796
 5650SOL     OW17314   3.922   0.882   1.630  0.2194  0.1200  0.4640
 5650SOL    HW117315   4.014   0.908   1.639  0.4163 -0.0308 -0.8223
 5650SOL    HW217316   3.886   0.946   1.568 -0.3980 -0.1608  0.5297
 5651SOL     OW17317   3.334   4.004   2.783 -0.0369  0.5688 -0.5012
 5651SOL    HW117318   3.316   4.094   2.758 -3.2148 -0.3381 -1.9201
 5651SOL    HW217319   3.345   3.958   2.700 -0.7576 -0.7428  0.1032
 5652SOL     OW17320   5.107   0.868   3.989 -0.1142 -0.6570 -0.3617
 5652SOL    HW117321   5.025   0.895   4.030 -0.2087  1.7334 -1.9411
 5652SOL    HW217322   5.174   0.884   4.056 -0.8510 -2.5445  0.9072
 5653SOL     OW17323   4.732   4.157   2.957  0.1162  0.2463 -0.1188
 5653SOL    HW117324   4.767   4.174   2.869 -1.2948  0.9516 -0.5654
 5653SOL    HW217325   4.716   4.063   2.959 -1.8829  0.5034 -1.4419
 5654SOL     OW17326   2.236   6.731   6.779  0.4778 -0.1895  0.7421
 5654SOL    HW117327   2.200   6.805   6.829  0.4560  0.7081 -0.5514
 5654SOL    HW217328   2.318   6.710   6.824  1.8052  2.3365 -0.3279
 5655SOL     OW17329   5.801   5.262   1.784 -0.3176  1.1581 -0.2252
 5655SOL    HW117330   5.853   5.343   1.786 -1.1478  1.6849  1.2345
 5655SOL    HW217331   5.865   5.193   1.805  0.1209  1.6101 -0.0285
 5656SOL     OW17332   3.545   4.011   3.682  0.2122  0.0232  0.2601
 5656SOL    HW117333   3.584   3.951   3.619 -0.8284 -0.2677 -0.1224
 5656SOL    HW217334   3.531   3.958   3.760 -1.4319 -0.4608 -0.3386
 5657SOL     OW17335   3.623   1.257   0.633  0.0265 -0.2084 -0.2610
 5657SOL    HW117336   3.576   1.237   0.714  2.0352 -0.5659  0.9057
 5657SOL    HW217337   3.598   1.187   0.573  0.2807 -1.3062  0.8638
 5658SOL     OW17338   2.210   3.367   5.047 -0.0270 -0.1663 -0.0939
 5658SOL    HW117339   2.268   3.432   5.086 -1.3650  0.0050  1.7469
 5658SOL    HW217340   2.136   3.417   5.012  0.4834 -0.4496 -1.6586
 5659SOL     OW17341   0.889   1.385   5.179 -0.0786  0.2148  0.3456
 5659SOL    HW117342   0.848   1.305   5.211  0.5184  0.1933  1.0872
 5659SOL    HW217343   0.824   1.424   5.121 -0.9251 -0.1020  1.0572
 5660SOL     OW17344   6.784   4.909   5.511 -0.4052  0.2173 -0.3008
 5660SOL    HW117345   6.816   4.819   5.520 -2.3923 -0.6467 -1.2854
 5660SOL    HW217346   6.858   4.957   5.474  0.4145 -1.2318 -0.6260
 5661SOL     OW17347   0.247   0.586   1.481 -0.9791 -0.6260  0.1243
 5661SOL    HW117348   0.277   0.503   1.518 -0.6624  0.1079  1.6222
 5661SOL    HW217349   0.196   0.626   1.552  1.0103  1.5890  0.4395
 5662SOL     OW17350   3.475   0.170   0.029 -0.2204  0.2610  0.2726
 5662SOL    HW117351   3.486   0.263   0.049  0.2601  0.5254 -1.1054
 5662SOL    HW217352   3.407   0.167  -0.038 -0.2014 -0.3780  0.2701
 5663SOL     OW17353   3.843   4.802   0.048  0.6479 -0.4136  0.4703
 5663SOL    HW117354   3.834   4.712   0.078  0.8232 -0.1210  1.4108
 5663SOL    HW217355   3.800   4.855   0.115 -0.2227  0.1514 -0.5015
 5664SOL     OW17356   0.929   1.611   3.464  0.5243  0.1294  0.7076
 5664SOL    HW117357   1.001   1.659   3.507  1.3041  0.8905 -1.3224
 5664SOL    HW217358   0.973   1.542   3.416 -0.0995  0.5276 -0.4593
 5665SOL     OW17359   6.419   0.781   5.359 -0.2775 -0.0041 -0.1022
 5665SOL    HW117360   6.457   0.776   5.446 -0.2628  0.6250 -0.0648
 5665SOL    HW217361   6.326   0.765   5.372 -0.1905 -0.4737 -0.0498
 5666SOL     OW17362   0.531   2.742   5.471 -0.7244 -0.8896 -0.1357
 5666SOL    HW117363   0.560   2.794   5.396  1.2994 -1.3934  0.2397
 5666SOL    HW217364   0.437   2.760   5.477 -0.5257  0.9164 -1.4018
 5667SOL     OW17365   6.348   2.277   3.148  0.3623  0.3057  0.3842
 5667SOL    HW117366   6.376   2.281   3.057 -0.1051  1.5384  0.2873
 5667SOL    HW217367   6.261   2.237   3.144 -0.1029  1.3078  0.1735
 5668SOL     OW17368   2.394   1.238   4.222  0.3570  0.2540  0.4886
 5668SOL    HW117369   2.451   1.251   4.146  0.6904 -1.4500  0.4053
 5668SOL    HW217370   2.377   1.144   4.223 -3.2182  0.7569 -0.0096
 5669SOL     OW17371   0.772   4.910   0.850 -0.3840  0.2152  0.2520
 5669SOL    HW117372   0.714   4.858   0.794  1.4108 -3.2518  1.3007
 5669SOL    HW217373   0.736   4.899   0.938 -0.4602  1.5773  0.4097
 5670SOL     OW17374   2.972   3.092   2.948  0.4145  0.1400 -0.0011
 5670SOL    HW117375   2.955   3.161   3.012 -1.0888 -1.1223  1.0598
 5670SOL    HW217376   2.887   3.052   2.932  0.8892 -0.1079 -2.2330
 5671SOL     OW17377   1.698   0.577   1.493 -0.7129  0.7179  0.5901
 5671SOL    HW117378   1.672   0.592   1.402  0.2132  1.0048  0.3637
 5671SOL    HW217379   1.759   0.648   1.513  0.5400 -0.3782  0.8339
 5672SOL     OW17380   5.504   1.019   1.514  0.5998  0.2163  0.1730
 5672SOL    HW117381   5.523   0.995   1.604  0.0208  0.5717  0.3929
 5672SOL    HW217382   5.569   1.086   1.492  0.3320  0.6045  0.5466
 5673SOL     OW17383   1.005   6.797   5.454 -0.5938 -0.1151 -0.7713
 5673SOL    HW117384   1.096   6.823   5.440 -0.5067 -0.0121 -0.0570
 5673SOL    HW217385   1.005   6.702   5.438 -0.1545 -0.2820  0.1785
 5674SOL     OW17386   6.337   3.476   4.633 -0.3452 -0.4674  0.3010
 5674SOL    HW117387   6.413   3.449   4.582 -0.4362 -0.8271  0.3597
 5674SOL    HW217388   6.269   3.413   4.611  0.0393 -1.5219  1.9700
 5675SOL     OW17389   3.694   6.139   5.264  0.1974  0.0029 -0.0251
 5675SOL    HW117390   3.625   6.203   5.283  1.7791  1.4119  1.3565
 5675SOL    HW217391   3.707   6.144   5.170 -1.3391 -0.0628 -0.2599
 5676SOL     OW17392   2.905   0.699   4.726  0.0281 -0.1207  0.6914
 5676SOL    HW117393   2.965   0.676   4.654 -0.6889 -0.5699  0.2302
 5676SOL    HW217394   2.962   0.738   4.792  0.7365  0.1216 -0.0350
 5677SOL     OW17395   0.727   3.863   3.620  0.1363 -0.1164 -0.3843
 5677SOL    HW117396   0.792   3.799   3.649  0.6366  1.1457  1.4496
 5677SOL    HW217397   0.763   3.948   3.648 -1.4669  0.7699 -0.9171
 5678SOL     OW17398   4.774   4.734   1.274 -0.1261 -0.4828 -0.1860
 5678SOL    HW117399   4.814   4.740   1.361 -0.5091 -1.3099  0.0603
 5678SOL    HW217400   4.833   4.784   1.218  0.0940  0.1176  0.5568
 5679SOL     OW17401   4.837   6.046   6.303 -0.7664 -0.0175 -0.0659
 5679SOL    HW117402   4.790   5.972   6.265 -0.7696  1.0285 -2.3023
 5679SOL    HW217403   4.773   6.089   6.359 -1.2008 -0.8898  0.1171
 5680SOL     OW17404   6.789   3.105   6.138  0.3269  0.0524 -0.5768
 5680SOL    HW117405   6.843   3.178   6.107 -2.3225  3.0007  1.2044
 5680SOL    HW217406   6.722   3.096   6.070  0.6710 -0.8144 -0.8106
 5681SOL     OW17407   6.455   0.391   1.788 -0.4019  0.1401  0.1353
 5681SOL    HW117408   6.483   0.466   1.840 -2.6103  1.2600 -0.1929
 5681SOL    HW217409   6.457   0.423   1.697 -2.8443  0.3808  0.1078
 5682SOL     OW17410   5.779   6.743   3.627 -0.0402 -0.6384 -0.0951
 5682SOL    HW117411   5.695   6.753   3.582  0.0412 -0.0868 -0.1322
 5682SOL    HW217412   5.827   6.678   3.575 -0.7543 -1.5812  0.3957
 5683SOL     OW17413   1.656   3.941   4.313  0.0851 -0.0999 -0.7410
 5683SOL    HW117414   1.714   4.016   4.299 -0.3311  0.3054 -0.3611
 5683SOL    HW217415   1.589   3.950   4.246 -0.6754  0.6002  0.0798
 5684SOL     OW17416   1.246   0.044   2.669 -0.5849 -0.5210 -0.7186
 5684SOL    HW117417   1.235  -0.024   2.601 -0.8374 -0.7709 -0.4336
 5684SOL    HW217418   1.245   0.126   2.620  1.4464 -0.7773 -1.2654
 5685SOL     OW17419   1.013   3.289   3.002 -0.3329 -0.3818 -0.0001
 5685SOL    HW117420   1.085   3.255   2.950 -0.0470  0.6419 -0.2917
 5685SOL    HW217421   0.956   3.213   3.017  0.4030 -1.0263 -0.4267
 5686SOL     OW17422   2.446   0.324   5.875 -0.7788  0.1858  0.6481
 5686SOL    HW117423   2.404   0.240   5.891  1.1753 -0.9750  0.0986
 5686SOL    HW217424   2.444   0.335   5.780 -2.1109  1.4184  0.7718
 5687SOL     OW17425   0.843   5.223   0.974 -0.8630 -0.0556 -0.4888
 5687SOL    HW117426   0.805   5.144   0.936 -0.6647 -0.1465 -0.5043
 5687SOL    HW217427   0.897   5.191   1.047 -0.6072  0.0425 -0.6334
 5688SOL     OW17428   1.096   3.603   2.858  0.0088  0.0521 -0.1241
 5688SOL    HW117429   1.093   3.595   2.953 -0.0087 -0.5257 -0.1750
 5688SOL    HW217430   1.024   3.663   2.837 -0.5418 -0.5066  0.1502
 5689SOL     OW17431   5.094   0.213   2.505 -0.0293  0.6864  0.0494
 5689SOL    HW117432   5.063   0.303   2.499  0.1301  0.7175 -0.3613
 5689SOL    HW217433   5.188   0.219   2.488  0.2349  0.6081  1.3927
 5690SOL     OW17434   0.281   3.225   6.683 -0.0805  0.1005  0.0537
 5690SOL    HW117435   0.318   3.310   6.662  0.6035 -0.3149 -0.4752
 5690SOL    HW217436   0.286   3.175   6.602 -2.1361  0.1234 -0.1368
 5691SOL     OW17437   0.299   0.939   5.521  0.1659  0.2955 -0.1382
 5691SOL    HW117438   0.269   0.957   5.610  0.9214  2.9329 -0.3369
 5691SOL    HW217439   0.254   1.003   5.467  0.8534 -0.2977 -1.4668
 5692SOL     OW17440   1.619   0.179   0.866  0.1205  0.2356 -0.1432
 5692SOL    HW117441   1.641   0.086   0.862 -0.3867  0.1405 -0.8824
 5692SOL    HW217442   1.701   0.221   0.894  0.0944 -0.5091  1.1456
 5693SOL     OW17443   4.491   0.136   5.570  0.3110 -0.5252 -0.1945
 5693SOL    HW117444   4.425   0.090   5.623 -0.4677  1.8034  1.0064
 5693SOL    HW217445   4.487   0.094   5.484 -2.7118 -0.5365 -0.1440
 5694SOL     OW17446   6.466   5.283   3.619 -0.3346  0.2425 -0.3475
 5694SOL    HW117447   6.424   5.360   3.657 -0.3170 -0.3356  0.9038
 5694SOL    HW217448   6.416   5.209   3.654  1.5693 -0.4666  1.0750
 5695SOL     OW17449   6.769   3.561   1.283 -0.1747  0.3053  0.2961
 5695SOL    HW117450   6.836   3.622   1.312 -1.0055  1.0754  0.6725
 5695SOL    HW217451   6.696   3.576   1.344 -1.4540  0.9668 -1.3308
 5696SOL     OW17452   4.126   5.373   4.582  0.0595 -0.2588 -0.0002
 5696SOL    HW117453   4.191   5.423   4.632  3.0107 -2.5822 -1.1881
 5696SOL    HW217454   4.119   5.290   4.629 -2.2585 -0.0226  0.1588
 5697SOL     OW17455   5.879   0.319   4.056 -0.3288 -0.1988  0.0779
 5697SOL    HW117456   5.853   0.264   3.982 -0.2974  1.3727 -1.1502
 5697SOL    HW217457   5.874   0.409   4.023  0.8739  0.4959  1.6285
 5698SOL     OW17458   3.970   6.627   5.762 -0.2145 -0.8665 -0.0074
 5698SOL    HW117459   3.893   6.624   5.706  0.2457  2.1404 -0.9459
 5698SOL    HW217460   3.940   6.591   5.846 -2.4851 -0.2627 -0.5019
 5699SOL     OW17461   1.289   2.485   1.214 -0.0242  0.0761 -0.3500
 5699SOL    HW117462   1.281   2.492   1.119 -1.0087  0.2806 -0.2559
 5699SOL    HW217463   1.360   2.545   1.237  2.4434 -2.2728 -1.2759
 5700SOL     OW17464   4.878   5.699   5.847 -0.3815  0.6030  0.2118
 5700SOL    HW117465   4.802   5.735   5.801 -0.8310  1.4005  1.5105
 5700SOL    HW217466   4.929   5.776   5.872  0.8209  0.0785 -0.5376
 5701SOL     OW17467   3.838   3.901   1.557 -0.1571  0.1842 -0.1609
 5701SOL    HW117468   3.771   3.925   1.621 -2.1804 -0.6193 -1.8436
 5701SOL    HW217469   3.816   3.810   1.533  1.4869 -0.0659 -0.8553
 5702SOL     OW17470   3.922   6.645   0.210  0.1060  0.3573 -0.6957
 5702SOL    HW117471   3.960   6.632   0.296 -1.7162  1.5196  0.3559
 5702SOL    HW217472   3.987   6.696   0.162 -0.3038  2.9780  1.2867
 5703SOL     OW17473   4.577   1.261   1.166 -0.0814  0.0858 -0.4723
 5703SOL    HW117474   4.654   1.279   1.113 -0.2156 -0.1378 -0.7473
 5703SOL    HW217475   4.505   1.254   1.103 -0.1414 -0.7709 -0.3257
 5704SOL     OW17476   1.963   1.158   6.187 -0.3524  0.1079 -0.1748
 5704SOL    HW117477   1.977   1.068   6.216  0.5365 -0.1372 -1.2860
 5704SOL    HW217478   1.995   1.212   6.260  1.0905 -0.4873 -0.3334
 5705SOL     OW17479   6.039   4.804   5.510  0.4772 -0.3888 -0.5513
 5705SOL    HW117480   5.983   4.740   5.467 -0.5104  1.4028 -2.0684
 5705SOL    HW217481   6.080   4.853   5.439  0.3544  1.3727  0.5137
 5706SOL     OW17482   0.522   2.363   2.786  0.4402  0.8727  0.8322
 5706SOL    HW117483   0.612   2.382   2.813  0.9246 -0.1153 -0.0244
 5706SOL    HW217484   0.510   2.270   2.808 -0.2839  0.9290  0.6978
 5707SOL     OW17485   5.673   3.381   3.089 -0.1740 -0.2728  0.1015
 5707SOL    HW117486   5.653   3.473   3.075 -0.1376 -0.3033 -0.1542
 5707SOL    HW217487   5.606   3.334   3.039 -0.2365 -0.3860  0.2896
 5708SOL     OW17488   5.721   5.071   5.516  0.6479  0.4029 -0.1270
 5708SOL    HW117489   5.795   5.094   5.460  0.4157  1.5837  0.0198
 5708SOL    HW217490   5.758   5.010   5.581  0.4364 -2.8601 -2.8109
 5709SOL     OW17491   0.786   6.515   3.652  0.2807 -0.5766 -0.4900
 5709SOL    HW117492   0.882   6.523   3.655  0.2878 -0.8243  0.8591
 5709SOL    HW217493   0.762   6.486   3.741 -0.8886 -2.2556 -1.2869
 5710SOL     OW17494   2.231   1.349   4.731  0.5085  0.5270 -0.5378
 5710SOL    HW117495   2.244   1.394   4.814 -0.1280  1.5912 -0.9889
 5710SOL    HW217496   2.137   1.354   4.715  0.5560 -0.1214 -1.0717
 5711SOL     OW17497   1.220   4.655   3.695 -0.0412 -0.3083  0.1181
 5711SOL    HW117498   1.281   4.602   3.747  1.0922  2.0540  1.3492
 5711SOL    HW217499   1.250   4.646   3.605  2.3474  0.9252  0.7092
 5712SOL     OW17500   2.997   1.645   4.300  0.1171 -0.2265  0.3067
 5712SOL    HW117501   3.020   1.633   4.393  0.6514  1.0144  0.3477
 5712SOL    HW217502   3.008   1.557   4.262 -0.5457 -0.8525  1.4951
 5713SOL     OW17503   1.170   2.896   2.510  0.3298  0.3565  0.1738
 5713SOL    HW117504   1.244   2.860   2.560 -0.2403 -0.8971  0.1392
 5713SOL    HW217505   1.130   2.960   2.570  1.7810  1.5029 -0.0318
 5714SOL     OW17506   0.495   2.034   6.166 -0.8410  0.3372  0.3658
 5714SOL    HW117507   0.539   2.053   6.083 -0.5360  1.6533  0.8004
 5714SOL    HW217508   0.505   1.939   6.177  1.1034  0.4459 -0.0065
 5715SOL     OW17509   6.648   2.153   0.320  0.4865  0.4744  0.3508
 5715SOL    HW117510   6.571   2.205   0.343  0.9392  0.5959  1.7024
 5715SOL    HW217511   6.612   2.070   0.287 -0.2209  0.9261 -0.0291
 5716SOL     OW17512   2.470   4.936   4.206 -0.0337 -1.0773  0.6178
 5716SOL    HW117513   2.418   4.857   4.223  0.4208 -1.5192 -0.0268
 5716SOL    HW217514   2.513   4.920   4.122  0.6345 -0.4380  0.8263
 5717SOL     OW17515   4.550   0.734   0.045  0.2058  0.2163  0.5546
 5717SOL    HW117516   4.499   0.788   0.104  0.7333  0.2433  0.9952
 5717SOL    HW217517   4.638   0.772   0.046  1.3330 -2.1317  2.9397
 5718SOL     OW17518   3.081   2.049   6.408 -0.0376  0.3992 -0.4582
 5718SOL    HW117519   3.087   2.109   6.481 -1.2778 -1.1336  0.9827
 5718SOL    HW217520   3.163   2.001   6.409 -0.8045 -0.9728  1.2357
 5719SOL     OW17521   1.969   5.946   3.508  0.1790 -0.1547 -0.5592
 5719SOL    HW117522   2.050   5.971   3.466  1.6219 -0.2380  1.9638
 5719SOL    HW217523   1.953   6.015   3.573 -1.9350 -0.0021 -1.1774
 5720SOL     OW17524   6.049   6.528   4.558 -0.0768  0.6862 -0.1806
 5720SOL    HW117525   6.143   6.513   4.549  0.1174  0.4210  1.9202
 5720SOL    HW217526   6.027   6.583   4.483  1.6861  0.5650 -0.8516
 5721SOL     OW17527   6.444   6.459   0.917 -0.2191 -0.0495 -0.4866
 5721SOL    HW117528   6.432   6.472   1.011 -2.3402 -1.4790 -0.4659
 5721SOL    HW217529   6.504   6.385   0.910 -1.8156 -1.4619 -0.1096
 5722SOL     OW17530   4.412   6.757   1.858  0.3132 -0.0327  0.1542
 5722SOL    HW117531   4.378   6.807   1.932 -1.9468 -0.6622 -0.3752
 5722SOL    HW217532   4.457   6.821   1.804  2.8083  0.2985  2.4280
 5723SOL     OW17533   3.369   5.598   2.370  0.2094  0.3319 -0.1465
 5723SOL    HW117534   3.456   5.631   2.394  0.2084 -0.2827  0.7383
 5723SOL    HW217535   3.378   5.503   2.372 -0.2852  0.2614 -0.8454
 5724SOL     OW17536   2.966   4.380   5.164 -0.0656 -0.2439  0.0872
 5724SOL    HW117537   3.028   4.312   5.190  1.3462  0.5458 -1.0389
 5724SOL    HW217538   2.970   4.444   5.234  1.1772  0.2605 -0.4005
 5725SOL     OW17539   4.238   6.189   3.206 -0.4434  0.5815  0.1735
 5725SOL    HW117540   4.219   6.280   3.226 -1.2479  0.5753 -0.4833
 5725SOL    HW217541   4.181   6.169   3.132 -0.4654 -0.5286  0.4769
 5726SOL     OW17542   6.589   1.329   3.014 -0.1415 -0.4824  0.4595
 5726SOL    HW117543   6.567   1.246   3.054  2.0662 -0.8905  0.9735
 5726SOL    HW217544   6.638   1.376   3.082 -0.1659  0.6718 -0.2899
 5727SOL     OW17545   5.480   6.303   3.295  0.4092  0.1754  0.1746
 5727SOL    HW117546   5.466   6.337   3.383 -1.1222  2.5370 -0.8812
 5727SOL    HW217547   5.393   6.277   3.265  0.5917  1.1155 -1.2714
 5728SOL     OW17548   0.901   0.435   3.498 -0.5332 -0.0416  0.3479
 5728SOL    HW117549   0.963   0.464   3.564 -0.2526 -1.1894  0.6067
 5728SOL    HW217550   0.917   0.491   3.422  0.3106  0.1520  0.6694
 5729SOL     OW17551   1.469   6.604   5.102  0.3996  0.0967  0.3751
 5729SOL    HW117552   1.435   6.542   5.038  1.4299 -0.3994  0.2949
 5729SOL    HW217553   1.420   6.685   5.084  2.5290  0.8627 -2.9390
 5730SOL     OW17554   5.941   1.717   1.992 -0.3691  0.3053 -0.0787
 5730SOL    HW117555   5.860   1.700   2.040 -0.0489  0.8534  0.6855
 5730SOL    HW217556   5.912   1.745   1.905 -0.9770 -0.1048 -0.0161
 5731SOL     OW17557   5.761   4.489   6.431  0.3576 -0.4317 -0.0661
 5731SOL    HW117558   5.680   4.500   6.381 -0.2855 -2.1798  0.5147
 5731SOL    HW217559   5.791   4.401   6.409  1.3105 -0.3589  0.8536
 5732SOL     OW17560   3.985   6.185   5.304 -0.1706  0.4522 -0.1437
 5732SOL    HW117561   3.981   6.259   5.365 -1.4114  1.4436 -1.3546
 5732SOL    HW217562   3.899   6.185   5.261  0.7694 -0.0086 -2.1232
 5733SOL     OW17563   1.282   4.933   3.625  0.2812  0.1125  0.7543
 5733SOL    HW117564   1.292   4.929   3.529 -0.9651  1.8498  0.5061
 5733SOL    HW217565   1.265   4.842   3.650  1.9822 -0.6020 -0.4807
 5734SOL     OW17566   2.425   5.485   5.309  0.6934  0.2549 -0.3545
 5734SOL    HW117567   2.483   5.554   5.278 -0.0400 -0.1385 -2.8746
 5734SOL    HW217568   2.484   5.417   5.341  1.4367  1.7471  1.6452
 5735SOL     OW17569   1.292   2.343   2.230 -0.1960 -0.0281 -0.0742
 5735SOL    HW117570   1.205   2.342   2.271 -0.6822 -0.3586 -1.0926
 5735SOL    HW217571   1.276   2.368   2.139  0.5906 -1.5545 -0.6674
 5736SOL     OW17572   4.910   2.996   2.275  0.4732  0.2189  0.1222
 5736SOL    HW117573   4.893   2.904   2.297  1.0185  0.5289  2.0877
 5736SOL    HW217574   4.991   3.016   2.321  1.0242  1.3601 -1.3065
 5737SOL     OW17575   4.555   1.488   5.285  0.4522  0.6594  0.3628
 5737SOL    HW117576   4.509   1.572   5.293 -0.1802  0.5706 -1.7410
 5737SOL    HW217577   4.485   1.423   5.289  0.5407  0.4339 -1.2716
 5738SOL     OW17578   1.999   2.085   1.231 -0.2514 -0.1099 -0.0521
 5738SOL    HW117579   1.937   2.027   1.187  0.6101 -0.9693 -0.1914
 5738SOL    HW217580   1.950   2.126   1.301 -1.0417 -0.5460 -0.3420
 5739SOL     OW17581   0.333   1.236   0.883  0.3968 -0.5957  0.1997
 5739SOL    HW117582   0.259   1.279   0.840  0.5716 -1.0709 -0.6093
 5739SOL    HW217583   0.355   1.163   0.825  0.5184 -1.3862  1.2032
 5740SOL     OW17584   6.079   5.970   4.341  0.3620 -0.1761  0.1396
 5740SOL    HW117585   6.119   5.896   4.388 -0.4808  0.1531  1.4374
 5740SOL    HW217586   6.015   5.929   4.283  0.2831 -0.5188  0.4586
 5741SOL     OW17587   1.293   6.017   6.091  0.2120  0.0080 -0.1109
 5741SOL    HW117588   1.205   5.982   6.075  1.3212 -3.0658 -0.0855
 5741SOL    HW217589   1.326   6.039   6.003 -0.6704  1.6167 -0.0843
 5742SOL     OW17590   1.672   0.858   4.810  0.6601 -0.3238  0.1421
 5742SOL    HW117591   1.738   0.913   4.852  2.0128 -1.4289 -0.4391
 5742SOL    HW217592   1.657   0.898   4.725  0.3766  0.0714  0.3737
 5743SOL     OW17593   1.392   1.208   2.620  0.1781  0.2893 -0.1195
 5743SOL    HW117594   1.300   1.189   2.598 -0.0561  0.4836  0.6566
 5743SOL    HW217595   1.441   1.134   2.585 -0.0187  1.1675 -2.3725
 5744SOL     OW17596   6.263   4.249   6.470 -0.6663  0.2087 -0.5035
 5744SOL    HW117597   6.220   4.334   6.461 -0.8564  0.1150 -0.4834
 5744SOL    HW217598   6.357   4.269   6.464 -0.7326  0.3229 -1.3688
 5745SOL     OW17599   3.494   6.607   5.059  0.7710  0.2704 -0.2984
 5745SOL    HW117600   3.532   6.524   5.089 -0.2803 -0.5880 -1.2706
 5745SOL    HW217601   3.567   6.652   5.015  1.2616 -0.2808 -0.0654
 5746SOL     OW17602   3.797   0.348   1.950 -0.2105 -0.0489  0.3799
 5746SOL    HW117603   3.718   0.402   1.951  0.3805  0.9765  3.7678
 5746SOL    HW217604   3.849   0.384   1.878 -1.8280  0.7224 -0.4798
 5747SOL     OW17605   0.572   0.681   4.620 -0.2342  0.2872 -0.0893
 5747SOL    HW117606   0.541   0.770   4.606 -1.7476 -0.1848  0.1429
 5747SOL    HW217607   0.628   0.662   4.545  0.0497  1.3977 -0.1684
 5748SOL     OW17608   4.323   0.420   1.996  0.0841  0.0951 -0.2326
 5748SOL    HW117609   4.371   0.354   2.047 -1.6114 -0.4942  0.6620
 5748SOL    HW217610   4.245   0.438   2.048 -0.9099  0.6930 -1.8660
 5749SOL     OW17611   4.095   1.480   4.389 -0.3699 -0.4201 -0.3853
 5749SOL    HW117612   4.110   1.391   4.421 -0.7792 -0.4105 -0.1782
 5749SOL    HW217613   4.008   1.477   4.349 -1.5722  0.5493  1.9717
 5750SOL     OW17614   4.273   6.267   2.539  0.0764 -0.4544 -0.6342
 5750SOL    HW117615   4.202   6.287   2.600  1.4405 -0.9618  1.2086
 5750SOL    HW217616   4.238   6.198   2.483 -1.2683  0.1461 -0.5754
 5751SOL     OW17617   4.911   0.404   4.016 -0.3074 -0.2037 -0.7426
 5751SOL    HW117618   4.862   0.359   4.086  3.6213 -0.8312  1.9418
 5751SOL    HW217619   4.894   0.352   3.938 -1.9754 -1.7610  0.5635
 5752SOL     OW17620   3.505   3.028   0.495  0.1019  1.0527  0.2046
 5752SOL    HW117621   3.472   2.992   0.577  1.1499  0.1598  0.2617
 5752SOL    HW217622   3.427   3.056   0.447 -0.5334  1.4050  1.4183
 5753SOL     OW17623   6.784   4.267   2.936 -0.6512  0.7472  0.2478
 5753SOL    HW117624   6.808   4.182   2.973 -0.8398  1.0445  1.0705
 5753SOL    HW217625   6.690   4.260   2.919 -0.7217  0.8957  0.5856
 5754SOL     OW17626   1.149   6.209   3.823 -0.2713  0.0616  0.5387
 5754SOL    HW117627   1.186   6.225   3.736 -0.0243  0.0888  0.6483
 5754SOL    HW217628   1.055   6.203   3.808 -0.1273 -1.3504  0.0608
 5755SOL     OW17629   6.583   4.854   4.597 -0.0925  0.0872  0.0374
 5755SOL    HW117630   6.538   4.811   4.670  0.0121 -1.7656 -0.9331
 5755SOL    HW217631   6.530   4.933   4.580 -1.5002 -0.7000  0.5795
 5756SOL     OW17632   5.572   4.891   1.564  0.0698 -0.3083 -0.1231
 5756SOL    HW117633   5.659   4.865   1.592 -0.2403 -1.5950 -0.2703
 5756SOL    HW217634   5.560   4.848   1.479  0.2186  1.8630 -1.3147
 5757SOL     OW17635   5.219   1.052   1.607  0.2905  0.1756  0.8841
 5757SOL    HW117636   5.165   0.975   1.592  0.3912  0.6397 -2.5411
 5757SOL    HW217637   5.309   1.019   1.608  0.2148 -0.0234  1.9172
 5758SOL     OW17638   0.473   3.652   1.380 -0.1718  0.2403 -0.0892
 5758SOL    HW117639   0.506   3.740   1.397  1.2139 -0.2868  0.0651
 5758SOL    HW217640   0.494   3.603   1.460 -0.9111 -0.2458 -0.1812
 5759SOL     OW17641   0.689   4.821   4.355 -0.4037  0.2426 -0.3408
 5759SOL    HW117642   0.707   4.877   4.431  1.1881 -0.8397  0.1205
 5759SOL    HW217643   0.597   4.794   4.366 -0.4997  0.9328  0.6335
 5760SOL     OW17644   3.582   2.250   4.604  0.1060 -0.0266  0.0277
 5760SOL    HW117645   3.653   2.270   4.665  1.2777 -1.3010 -0.8692
 5760SOL    HW217646   3.603   2.299   4.525 -1.3386  1.5108  0.5189
 5761SOL     OW17647   5.190   5.652   2.605  0.2362  0.7242  0.4511
 5761SOL    HW117648   5.110   5.662   2.657 -1.1475  3.0859 -1.8980
 5761SOL    HW217649   5.255   5.706   2.651 -0.3204  1.0248  0.9008
 5762SOL     OW17650   4.385   6.380   3.452  0.3456  0.3658 -0.4220
 5762SOL    HW117651   4.397   6.366   3.546  1.7546  1.4251 -0.4143
 5762SOL    HW217652   4.396   6.293   3.414  0.6192  0.0652  0.3148
 5763SOL     OW17653   4.007   5.635   1.695  0.3638  0.3286 -0.2210
 5763SOL    HW117654   3.989   5.723   1.728 -0.4167  0.8854 -2.0659
 5763SOL    HW217655   3.923   5.602   1.666  0.6157 -1.1348  0.6029
 5764SOL     OW17656   3.984   1.460   5.950 -0.1067 -0.0962 -0.4538
 5764SOL    HW117657   3.920   1.494   5.887 -0.1504 -1.0755 -0.9549
 5764SOL    HW217658   4.064   1.450   5.899  0.3420  0.7072  0.0677
 5765SOL     OW17659   4.808   4.601   3.028  0.4053 -0.5234 -0.5286
 5765SOL    HW117660   4.773   4.642   3.107 -2.0870 -1.9733 -0.7875
 5765SOL    HW217661   4.872   4.664   2.995 -2.3105  2.6219 -0.2541
 5766SOL     OW17662   5.722   2.611   3.116  0.5344 -0.1545 -0.1893
 5766SOL    HW117663   5.790   2.635   3.178  0.1529 -1.8202  0.9619
 5766SOL    HW217664   5.656   2.680   3.124  2.1286  1.6137 -1.5119
 5767SOL     OW17665   1.663   2.829   1.664 -0.0919  0.4341  0.2600
 5767SOL    HW117666   1.753   2.820   1.697  1.1436  2.1311 -2.2540
 5767SOL    HW217667   1.668   2.902   1.601 -2.9595 -0.2483 -0.9231
 5768SOL     OW17668   1.612   1.875   5.921  0.2547 -0.3765 -0.3402
 5768SOL    HW117669   1.564   1.905   5.844  0.1784 -0.4499 -0.3219
 5768SOL    HW217670   1.694   1.924   5.919  0.0667 -0.0515 -0.2255
 5769SOL     OW17671   6.739   1.069   0.615  0.2327 -0.3115  0.0848
 5769SOL    HW117672   6.731   1.067   0.519 -1.4808 -1.7471  0.2047
 5769SOL    HW217673   6.772   0.983   0.638  2.0678  0.5232  0.7374
 5770SOL     OW17674   5.216   2.322   2.611  0.4326  0.3733  0.1324
 5770SOL    HW117675   5.156   2.294   2.542  1.0546  0.0734 -0.3000
 5770SOL    HW217676   5.240   2.241   2.656 -0.8635  0.6866  1.4670
 5771SOL     OW17677   0.675   0.508   6.707  0.1426  0.3877  0.4914
 5771SOL    HW117678   0.680   0.468   6.620 -1.3278  0.0573  0.5321
 5771SOL    HW217679   0.722   0.447   6.764 -0.2777 -0.2158  0.1965
 5772SOL     OW17680   2.985   5.466   2.760  0.0603  0.2141  0.1309
 5772SOL    HW117681   2.904   5.423   2.730  0.0199 -0.1218  0.7208
 5772SOL    HW217682   2.979   5.465   2.855 -0.2066  2.0223  0.1773
 5773SOL     OW17683   5.484   1.569   4.400  0.0194  0.0542  0.0033
 5773SOL    HW117684   5.469   1.515   4.477  0.2879 -0.1053 -0.0552
 5773SOL    HW217685   5.513   1.654   4.434 -1.9746  0.7236  0.1710
 5774SOL     OW17686   6.752   0.855   6.000 -0.6347  0.0408  0.0911
 5774SOL    HW117687   6.830   0.826   5.952 -0.3534 -0.4293  0.8154
 5774SOL    HW217688   6.781   0.932   6.048 -0.5495 -0.2644  0.5351
 5775SOL     OW17689   5.779   4.269   5.123  0.3556  0.4483  0.1388
 5775SOL    HW117690   5.814   4.180   5.123 -0.4899  0.1033  0.5501
 5775SOL    HW217691   5.847   4.322   5.164  0.9333  0.0294 -0.2618
 5776SOL     OW17692   2.778   5.505   5.969  0.7931  0.6299 -0.1334
 5776SOL    HW117693   2.720   5.581   5.976  1.7810  1.3288  0.7691
 5776SOL    HW217694   2.780   5.485   5.876 -1.4891  0.1026 -0.1247
 5777SOL     OW17695   4.125   4.433   2.226 -0.4605  0.0456 -0.2145
 5777SOL    HW117696   4.181   4.452   2.301 -2.4432  0.6560  1.1793
 5777SOL    HW217697   4.099   4.519   2.192  0.7523 -0.2102 -1.9306
 5778SOL     OW17698   5.416   4.035   0.226 -0.1769 -0.1224 -0.1638
 5778SOL    HW117699   5.352   3.970   0.256 -0.3065  0.3060  0.5021
 5778SOL    HW217700   5.501   3.999   0.249 -0.0758 -1.1901 -1.9847
 5779SOL     OW17701   1.029   2.879   0.740 -0.0967  0.3245 -0.0306
 5779SOL    HW117702   1.019   2.907   0.831 -1.5179  1.6417 -0.5497
 5779SOL    HW217703   1.122   2.891   0.721  0.0859  0.7067  1.0426
 5780SOL     OW17704   5.970   3.828   4.463 -0.1385  0.9305 -0.0385
 5780SOL    HW117705   5.889   3.879   4.476  1.1282  3.1539 -0.3750
 5780SOL    HW217706   5.995   3.846   4.373  1.0696  0.7872  0.2605
 5781SOL     OW17707   2.885   3.290   5.825  0.0581 -0.0744 -0.2453
 5781SOL    HW117708   2.844   3.229   5.886  0.7636  0.1696  0.5014
 5781SOL    HW217709   2.898   3.369   5.876 -0.8440  0.7218 -1.2020
 5782SOL     OW17710   3.063   5.972   4.400 -0.5690 -0.2262  0.2531
 5782SOL    HW117711   3.147   5.935   4.374 -0.6298  1.2814 -2.4634
 5782SOL    HW217712   3.023   5.905   4.455  1.1325 -2.2700 -0.8678
 5783SOL     OW17713   4.477   1.467   4.491 -0.1414 -0.4152  0.1130
 5783SOL    HW117714   4.550   1.521   4.459 -1.0885  0.1991 -1.0611
 5783SOL    HW217715   4.404   1.488   4.433 -0.8865 -2.0536  0.4086
 5784SOL     OW17716   5.109   2.413   5.339 -0.1068  0.1300  0.3183
 5784SOL    HW117717   5.029   2.465   5.332  0.5378  1.1921  0.6757
 5784SOL    HW217718   5.152   2.425   5.254  1.1285  2.0447  1.1517
 5785SOL     OW17719   1.937   0.738   0.981  0.2081 -0.0879  0.1989
 5785SOL    HW117720   1.978   0.739   1.067 -0.6714  0.9206  0.6358
 5785SOL    HW217721   1.920   0.830   0.961  1.1302 -0.2359 -1.4318
 5786SOL     OW17722   5.819   4.717   6.614 -0.4048  0.0953  0.7666
 5786SOL    HW117723   5.731   4.717   6.651 -0.1699  0.0832  1.3419
 5786SOL    HW217724   5.821   4.641   6.556 -0.6901 -0.0602  0.9598
 5787SOL     OW17725   3.143   5.094   0.983 -0.3662 -0.7217  0.0772
 5787SOL    HW117726   3.227   5.138   0.984 -1.3431  1.2329 -0.2651
 5787SOL    HW217727   3.116   5.094   0.891 -0.0630 -2.7807 -0.0684
 5788SOL     OW17728   2.088   0.839   0.051  0.2642 -0.0920  0.4578
 5788SOL    HW117729   2.011   0.892   0.031  1.1543  1.6535  1.3844
 5788SOL    HW217730   2.155   0.869  -0.010  0.5135 -0.8584  0.3447
 5789SOL     OW17731   6.664   4.650   5.875 -0.1287 -0.0118  0.1280
 5789SOL    HW117732   6.655   4.655   5.970  1.8277 -1.0768  0.4098
 5789SOL    HW217733   6.706   4.566   5.859 -0.8096 -0.0447 -1.7283
 5790SOL     OW17734   1.643   0.622   1.928 -0.5420  0.0686 -0.0085
 5790SOL    HW117735   1.654   0.652   2.018  0.3232 -2.5083  0.8638
 5790SOL    HW217736   1.647   0.526   1.934 -0.8572 -0.2170 -2.7479
 5791SOL     OW17737   3.189   4.116   4.718 -0.1194 -0.0209 -0.1129
 5791SOL    HW117738   3.125   4.187   4.726 -0.3449 -0.3163  0.8175
 5791SOL    HW217739   3.251   4.132   4.790  0.8955  0.2914 -1.0258
 5792SOL     OW17740   1.926   3.079   0.262 -0.1847  0.2583  0.1878
 5792SOL    HW117741   1.841   3.113   0.289 -0.1953  0.1585  0.2801
 5792SOL    HW217742   1.976   3.071   0.344 -0.9544 -2.1570  0.5136
 5793SOL     OW17743   1.140   2.390   3.973  0.5545  0.3880  0.1395
 5793SOL    HW117744   1.192   2.449   3.918 -0.5994  0.8442 -0.4847
 5793SOL    HW217745   1.155   2.303   3.936  0.1069  0.6412 -0.6592
 5794SOL     OW17746   6.501   6.784   4.937 -0.0081 -0.2151 -0.3061
 5794SOL    HW117747   6.421   6.753   4.980  0.6054 -0.0758  0.9967
 5794SOL    HW217748   6.517   6.870   4.975  0.4268  0.0289 -1.0202
 5795SOL     OW17749   0.399   0.109   0.173  0.7421  1.1024  0.4528
 5795SOL    HW117750   0.401   0.018   0.202  1.6049  1.4446  1.5180
 5795SOL    HW217751   0.454   0.110   0.095  1.9872  0.9804  1.3064
 5796SOL     OW17752   6.272   1.962   5.870  0.9702 -0.4544  0.2169
 5796SOL    HW117753   6.320   1.937   5.949 -2.2681  0.4423  2.6840
 5796SOL    HW217754   6.306   2.049   5.848  0.2580  0.3684  2.1739
 5797SOL     OW17755   2.643   2.383   4.729  0.6655  0.7378  0.1102
 5797SOL    HW117756   2.638   2.332   4.648  0.0141 -2.4072  1.9864
 5797SOL    HW217757   2.568   2.443   4.724  0.3412  0.2559 -1.3415
 5798SOL     OW17758   4.215   3.599   3.545 -0.2190  0.3079  0.1942
 5798SOL    HW117759   4.188   3.691   3.551  1.5561  0.8851 -0.0154
 5798SOL    HW217760   4.215   3.580   3.452  0.6257  0.5037  0.1455
 5799SOL     OW17761   6.259   6.303   2.887  0.5544 -0.0274 -0.5145
 5799SOL    HW117762   6.177   6.323   2.842  0.3587  0.7876  0.1865
 5799SOL    HW217763   6.324   6.297   2.817 -0.0900 -0.6566 -1.0702
 5800SOL     OW17764   3.311   0.989   3.478 -0.0212 -0.0450 -0.5600
 5800SOL    HW117765   3.379   1.007   3.414 -0.4688 -0.0338 -1.0419
 5800SOL    HW217766   3.283   1.076   3.508  0.5619 -0.0646  0.0575
 5801SOL     OW17767   4.844   3.356   3.023 -0.4122 -0.0589 -0.2261
 5801SOL    HW117768   4.812   3.265   3.027 -0.3401 -0.1525 -1.4370
 5801SOL    HW217769   4.912   3.354   2.955  0.2094  0.7222  0.3651
 5802SOL     OW17770   6.006   2.208   2.276 -0.0970  0.3614  0.0455
 5802SOL    HW117771   6.095   2.216   2.309 -0.1920  1.0777  0.1384
 5802SOL    HW217772   5.971   2.130   2.321 -0.2820  1.4088  1.8382
 5803SOL     OW17773   3.137   0.168   2.889 -0.2517 -0.0446 -0.0468
 5803SOL    HW117774   3.101   0.088   2.851  0.0462 -0.9737  1.5568
 5803SOL    HW217775   3.121   0.235   2.822 -1.1600 -1.2738 -1.1189
 5804SOL     OW17776   3.629   2.862   5.701 -0.2237 -0.3212  0.2174
 5804SOL    HW117777   3.707   2.839   5.752  0.3220  1.4376  0.2353
 5804SOL    HW217778   3.659   2.926   5.637 -1.6893  0.5324  0.3333
 5805SOL     OW17779   3.304   6.268   6.229  0.0517 -0.1318  0.4799
 5805SOL    HW117780   3.253   6.318   6.164  0.1936 -1.6012 -0.8174
 5805SOL    HW217781   3.386   6.246   6.184  2.2540  2.7294  2.7428
 5806SOL     OW17782   0.487   4.247   2.186  0.4081 -0.4249  0.0224
 5806SOL    HW117783   0.510   4.294   2.106  3.3072 -1.1286  0.3191
 5806SOL    HW217784   0.406   4.288   2.216  0.3254  1.1944 -2.1793
 5807SOL     OW17785   1.034   2.983   6.621  0.0472 -0.4644  0.2051
 5807SOL    HW117786   1.093   2.995   6.695 -1.2877 -0.2101  1.2794
 5807SOL    HW217787   1.016   3.072   6.590 -1.5288 -0.3118  1.3813
 5808SOL     OW17788   1.870   6.659   3.245 -0.2107 -0.2948 -0.9182
 5808SOL    HW117789   1.792   6.714   3.244  0.3245  0.4977 -0.7032
 5808SOL    HW217790   1.915   6.680   3.163  0.5711  0.4782 -0.3251
 5809SOL     OW17791   5.608   4.962   6.590  0.0408 -0.3490 -0.1938
 5809SOL    HW117792   5.699   4.977   6.565  0.1278 -0.3987  0.0911
 5809SOL    HW217793   5.582   5.042   6.635  0.5911 -1.1347  1.5768
 5810SOL     OW17794   4.789   4.107   0.891 -0.1480  0.4118  0.0633
 5810SOL    HW117795   4.801   4.170   0.820  3.8437  0.7305  0.8231
 5810SOL    HW217796   4.784   4.160   0.970 -2.4255 -0.0690  0.3304
 5811SOL     OW17797   2.634   4.814   2.489  0.2335  0.4260  0.1079
 5811SOL    HW117798   2.597   4.900   2.511  0.6655  0.9405 -1.1189
 5811SOL    HW217799   2.725   4.831   2.466 -0.3719  0.1450 -3.0041
 5812SOL     OW17800   1.595   1.261   2.351 -0.4399  0.0786 -0.0150
 5812SOL    HW117801   1.624   1.210   2.427 -0.5846 -0.3244 -0.2216
 5812SOL    HW217802   1.500   1.245   2.348 -0.6225  1.0413  0.4123
 5813SOL     OW17803   5.910   5.471   6.497  0.1161  0.3933  0.1194
 5813SOL    HW117804   5.891   5.536   6.565  1.0916  1.5974 -0.7147
 5813SOL    HW217805   6.005   5.468   6.493  0.0940 -1.1001  0.1121
 5814SOL     OW17806   3.175   0.882   4.461  0.1400 -0.7016  0.3189
 5814SOL    HW117807   3.183   0.847   4.550 -0.0292 -1.3315  0.0967
 5814SOL    HW217808   3.083   0.869   4.438  0.5611 -2.3730 -0.6524
 5815SOL     OW17809   4.039   1.853   2.886 -0.1594  0.2050  0.3288
 5815SOL    HW117810   4.092   1.824   2.960  1.3504 -0.3825 -0.9036
 5815SOL    HW217811   3.980   1.780   2.868  0.5444 -0.2915  0.0044
 5816SOL     OW17812   2.769   2.157   2.138  0.1345  0.1537  0.1534
 5816SOL    HW117813   2.700   2.153   2.205  0.4094  0.3433  0.4567
 5816SOL    HW217814   2.832   2.221   2.174 -1.2199  2.7169 -1.6824
 5817SOL     OW17815   0.495   3.129   0.993  0.2629 -0.4273  0.1393
 5817SOL    HW117816   0.501   3.110   1.086  0.9781  0.1614  0.2221
 5817SOL    HW217817   0.474   3.222   0.988 -2.4682 -0.9775 -0.2712
 5818SOL     OW17818   4.810   1.227   5.127  0.3083  0.0910 -0.1591
 5818SOL    HW117819   4.870   1.156   5.148 -0.3644 -0.5565 -0.4158
 5818SOL    HW217820   4.724   1.196   5.155  0.0932  1.0531  0.3010
 5819SOL     OW17821   2.355   0.536   0.152 -0.2329 -0.2717 -0.3233
 5819SOL    HW117822   2.414   0.543   0.077  0.0923  0.0086 -0.0459
 5819SOL    HW217823   2.366   0.618   0.199 -2.4711  0.7378 -1.4140
 5820SOL     OW17824   5.888   2.138   6.636  0.6490  0.9254  0.2429
 5820SOL    HW117825   5.794   2.155   6.634  0.4630 -0.0420  0.3546
 5820SOL    HW217826   5.928   2.221   6.609 -0.1913  1.6518  1.1506
 5821SOL     OW17827   4.068   2.567   4.551  0.0277 -0.4052  0.1970
 5821SOL    HW117828   4.068   2.580   4.646 -0.3594  0.4806  0.0900
 5821SOL    HW217829   4.140   2.507   4.535  1.1045  0.6519  0.9042
 5822SOL     OW17830   5.267   5.067   3.625 -0.1028 -0.4804 -0.2861
 5822SOL    HW117831   5.250   5.080   3.718  0.2416  0.3015 -0.3206
 5822SOL    HW217832   5.208   4.996   3.599  0.3282 -1.2227  0.6885
 5823SOL     OW17833   1.497   1.519   2.326  0.1836  0.1313  0.6067
 5823SOL    HW117834   1.544   1.440   2.302  2.6706  1.4843  0.7451
 5823SOL    HW217835   1.432   1.530   2.257  2.0719 -0.2185 -1.3250
 5824SOL     OW17836   6.690   1.742   6.689  0.6099  0.5348  0.0865
 5824SOL    HW117837   6.648   1.663   6.656 -1.8345  1.1773  1.4143
 5824SOL    HW217838   6.771   1.711   6.729  1.5589 -0.7668 -2.6097
 5825SOL     OW17839   4.227   3.627   0.631  0.6766 -0.1062  0.2886
 5825SOL    HW117840   4.229   3.546   0.682  1.7145  0.3426  0.9962
 5825SOL    HW217841   4.305   3.675   0.659  0.4506  0.8362 -0.6238
 5826SOL     OW17842   3.045   5.044   1.216  0.8120  0.0384  0.2118
 5826SOL    HW117843   3.076   5.080   1.132  0.8465  0.0216  0.2172
 5826SOL    HW217844   2.992   4.968   1.191  0.7816  0.0626  0.2027
 5827SOL     OW17845   4.122   2.265   1.341 -0.3863 -0.8772  0.3896
 5827SOL    HW117846   4.203   2.220   1.314 -0.1466  0.2449 -0.9155
 5827SOL    HW217847   4.071   2.198   1.385  0.9418 -1.8156  0.5808
 5828SOL     OW17848   0.760   2.999   2.472  0.0868  0.0924 -0.0045
 5828SOL    HW117849   0.700   3.037   2.408  1.8752  1.5243 -0.9354
 5828SOL    HW217850   0.796   2.922   2.428  1.1518  0.9532 -0.6937
 5829SOL     OW17851   1.426   2.027   0.867 -0.0955  0.1181 -0.2849
 5829SOL    HW117852   1.463   1.941   0.848  0.8968  0.5687 -0.4443
 5829SOL    HW217853   1.484   2.089   0.822 -0.2019  0.9349  0.6561
 5830SOL     OW17854   3.586   3.878   6.026  0.3979  0.6563 -0.5500
 5830SOL    HW117855   3.582   3.899   5.933 -0.2139 -0.3093 -0.7588
 5830SOL    HW217856   3.669   3.832   6.038 -0.2970 -0.7876 -0.9905
 5831SOL     OW17857   3.904   5.728   1.290 -0.1879  0.4083  0.5609
 5831SOL    HW117858   3.914   5.633   1.295  0.3343  0.4796  0.9577
 5831SOL    HW217859   3.980   5.762   1.336 -0.6975  1.0168  0.9602
 5832SOL     OW17860   1.828   5.372   1.287  0.5551 -0.0613  0.1623
 5832SOL    HW117861   1.883   5.432   1.236  0.5850 -1.1011 -1.0776
 5832SOL    HW217862   1.778   5.430   1.345  2.3299  0.9621  0.7353
 5833SOL     OW17863   4.646   1.250   5.593  0.3531 -0.0928  0.2311
 5833SOL    HW117864   4.710   1.215   5.655  0.5814  0.4503  0.3064
 5833SOL    HW217865   4.582   1.296   5.648 -0.1793 -0.7282  0.1679
 5834SOL     OW17866   1.726   2.606   4.795  0.0758  0.7012 -0.2661
 5834SOL    HW117867   1.640   2.619   4.835 -0.4790 -2.1408 -0.3228
 5834SOL    HW217868   1.708   2.572   4.708  1.2744  1.0515 -0.6729
 5835SOL     OW17869   4.160   4.787   2.687 -0.1501  0.3615  0.3346
 5835SOL    HW117870   4.225   4.781   2.617  0.8396  0.1888  1.2407
 5835SOL    HW217871   4.109   4.865   2.666 -0.7554 -0.4257 -1.2860
 5836SOL     OW17872   1.679   3.937   0.384 -0.1874 -0.8019 -0.2876
 5836SOL    HW117873   1.667   3.842   0.380 -1.2271 -0.7120  0.3473
 5836SOL    HW217874   1.628   3.971   0.311  1.0617 -0.7933 -1.1683
 5837SOL     OW17875   2.941   3.943   4.083  0.1870  0.3280 -0.6041
 5837SOL    HW117876   3.000   3.881   4.039  0.1208  0.3385 -0.7069
 5837SOL    HW217877   2.865   3.890   4.108  0.2415  0.3141 -0.4690
 5838SOL     OW17878   0.371   6.396   5.123 -0.2455 -0.2831  0.0634
 5838SOL    HW117879   0.342   6.317   5.169  0.2650 -0.2906  0.3830
 5838SOL    HW217880   0.390   6.366   5.034 -2.1101 -0.0918 -0.4446
 5839SOL     OW17881   5.733   3.656   6.011 -0.1690  0.1598  0.6011
 5839SOL    HW117882   5.726   3.650   6.106  2.6601 -0.8007  0.8518
 5839SOL    HW217883   5.709   3.569   5.979  0.7561 -0.1368  0.6598
 5840SOL     OW17884   2.458   6.719   0.142  0.0546 -0.3315 -0.1759
 5840SOL    HW117885   2.526   6.654   0.156  0.1387 -0.3211 -0.5247
 5840SOL    HW217886   2.503   6.803   0.156  0.3667 -0.2778 -1.3465
 5841SOL     OW17887   6.027   0.962   0.906  0.4466 -0.0868  0.1239
 5841SOL    HW117888   5.965   1.032   0.886  0.1962 -0.7993 -1.7402
 5841SOL    HW217889   6.092   0.965   0.836 -0.1849 -2.3779 -0.6730
 5842SOL     OW17890   2.741   1.036   3.145  0.4433  0.1023  0.6008
 5842SOL    HW117891   2.726   1.048   3.238  0.1516 -0.2598  0.6018
 5842SOL    HW217892   2.827   0.993   3.139  0.4566  0.1165  0.6997
 5843SOL     OW17893   4.330   3.164   0.338 -0.1939  0.3654 -0.4098
 5843SOL    HW117894   4.336   3.229   0.408  0.7295 -0.8342  0.6659
 5843SOL    HW217895   4.369   3.084   0.376 -2.7598 -1.3204 -1.0825
 5844SOL     OW17896   5.880   4.606   0.990 -0.4363  0.5621 -0.3461
 5844SOL    HW117897   5.844   4.596   0.902  1.6219 -1.3509 -1.0795
 5844SOL    HW217898   5.812   4.573   1.049 -0.9758 -0.2706 -1.4158
 5845SOL     OW17899   0.074   6.003   3.108  0.2586  0.0084 -0.1581
 5845SOL    HW117900   0.008   5.968   3.167 -1.3228 -0.4043 -2.0764
 5845SOL    HW217901   0.087   5.935   3.042 -0.6096  1.7042 -2.2150
 5846SOL     OW17902   2.351   6.163   4.619  0.1574  0.4518  0.1434
 5846SOL    HW117903   2.357   6.256   4.596 -0.6630  0.5830  0.4464
 5846SOL    HW217904   2.304   6.161   4.702  0.0882 -0.2381  0.0951
 5847SOL     OW17905   4.555   0.788   1.671  0.2432  0.0370  0.0610
 5847SOL    HW117906   4.486   0.850   1.649  1.3993  1.8054  1.1519
 5847SOL    HW217907   4.602   0.773   1.589  1.0751  2.1298  0.0927
 5848SOL     OW17908   0.549   2.490   2.079  0.1485 -0.4381  0.4798
 5848SOL    HW117909   0.540   2.492   2.174 -1.0740  2.5373  0.4126
 5848SOL    HW217910   0.582   2.576   2.055 -1.8818 -0.1827 -1.9157
 5849SOL     OW17911   4.860   4.402   2.043 -0.4536 -0.0291 -0.1309
 5849SOL    HW117912   4.800   4.357   2.103 -0.7175  0.2980 -0.1498
 5849SOL    HW217913   4.888   4.480   2.090  1.3001 -1.0119  0.5689
 5850SOL     OW17914   1.891   5.035   4.513 -0.5168 -0.3837  0.4279
 5850SOL    HW117915   1.827   5.104   4.496  0.5660  0.7077  0.6031
 5850SOL    HW217916   1.861   4.961   4.461  0.0553  1.2705 -2.4720
 5851SOL     OW17917   0.867   5.808   6.648  0.0862  0.5696 -0.5782
 5851SOL    HW117918   0.782   5.820   6.607 -0.5041  1.1490  0.7703
 5851SOL    HW217919   0.930   5.843   6.584 -0.5434 -0.9291 -2.0877
 5852SOL     OW17920   2.261   6.077   2.047 -0.1549  0.2761  0.5426
 5852SOL    HW117921   2.229   6.097   1.959 -0.8811 -1.7550  0.2920
 5852SOL    HW217922   2.314   6.153   2.071  0.4527  0.6949 -1.8422
 5853SOL     OW17923   3.847   5.608   3.428  0.1500 -0.6243 -0.3542
 5853SOL    HW117924   3.870   5.545   3.360 -0.6153  0.3284 -1.5386
 5853SOL    HW217925   3.926   5.614   3.482  0.4965 -2.0059 -0.6564
 5854SOL     OW17926   0.258   1.720   5.692 -0.2123  0.3511 -0.3120
 5854SOL    HW117927   0.243   1.718   5.598  1.6167 -2.2754 -0.6533
 5854SOL    HW217928   0.328   1.656   5.707  0.6161  1.7856  2.6672
 5855SOL     OW17929   1.569   5.600   1.904 -0.9434  0.0132  0.0216
 5855SOL    HW117930   1.631   5.529   1.889 -0.0564  0.8509 -0.4032
 5855SOL    HW217931   1.617   5.663   1.958 -0.8674  1.3998 -1.5872
 5856SOL     OW17932   1.790   4.860   1.910  0.0905  0.2345  0.6381
 5856SOL    HW117933   1.705   4.826   1.939  0.9360 -1.1629  1.6571
 5856SOL    HW217934   1.853   4.815   1.967  1.4378  2.1391  0.7208
 5857SOL     OW17935   3.134   2.596   6.597 -0.3695  0.4364  0.3226
 5857SOL    HW117936   3.096   2.648   6.668  0.8845  0.4272  1.0249
 5857SOL    HW217937   3.225   2.583   6.623 -0.6710 -2.3584  0.3014
 5858SOL     OW17938   3.003   5.514   3.051 -0.0836  0.0937  0.1670
 5858SOL    HW117939   2.938   5.445   3.062  1.5850 -1.6293 -0.2408
 5858SOL    HW217940   2.999   5.563   3.133 -1.3080 -0.4830  0.4786
 5859SOL     OW17941   0.400   5.459   5.533 -0.2531  0.2262 -0.6540
 5859SOL    HW117942   0.465   5.513   5.578 -0.4875 -0.3378  0.4001
 5859SOL    HW217943   0.316   5.484   5.572 -0.4944 -0.1012 -0.9472
 5860SOL     OW17944   3.431   1.946   5.256 -0.4677  0.7099 -0.3205
 5860SOL    HW117945   3.449   1.937   5.163 -1.3213  0.6310 -0.4843
 5860SOL    HW217946   3.481   2.024   5.282 -0.9299  1.2599 -1.0403
 5861SOL     OW17947   6.793   6.007   6.161 -0.5785  0.5798  0.1458
 5861SOL    HW117948   6.827   5.919   6.148  1.8151  1.4377 -0.0024
 5861SOL    HW217949   6.841   6.040   6.238 -2.3996  1.3120  1.0217
 5862SOL     OW17950   0.274   0.112   5.703  0.0034  0.0013  0.2173
 5862SOL    HW117951   0.208   0.042   5.708 -3.3158  2.9563  2.9062
 5862SOL    HW217952   0.263   0.149   5.615  0.1460 -1.3098 -0.3793
 5863SOL     OW17953   0.230   4.070   0.668 -0.1992 -0.1771  0.1933
 5863SOL    HW117954   0.296   4.005   0.646  0.6453  0.6340  0.2498
 5863SOL    HW217955   0.276   4.132   0.725 -0.7657  0.8650 -0.4480
 5864SOL     OW17956   2.532   5.782   2.183 -0.3262 -0.4884 -0.4280
 5864SOL    HW117957   2.501   5.795   2.093 -1.3486 -0.0695 -0.0321
 5864SOL    HW217958   2.528   5.870   2.222  0.1219 -0.6673  0.0169
 5865SOL     OW17959   2.336   3.292   4.217 -0.1608 -0.3101 -0.2891
 5865SOL    HW117960   2.281   3.341   4.155 -1.3636 -0.8665  0.2985
 5865SOL    HW217961   2.317   3.200   4.199 -0.5372 -0.4812  0.8881
 5866SOL     OW17962   6.547   6.717   2.136 -0.0790 -0.6397  0.4853
 5866SOL    HW117963   6.513   6.631   2.110 -1.5513 -0.4288  1.6221
 5866SOL    HW217964   6.560   6.763   2.053  2.2131 -2.4270 -0.2717
 5867SOL     OW17965   1.695   3.511   4.736 -0.1524 -0.6272 -0.0214
 5867SOL    HW117966   1.699   3.579   4.669  2.8507 -1.1922 -0.5919
 5867SOL    HW217967   1.603   3.486   4.740 -1.0520  2.1576 -1.0831
 5868SOL     OW17968   0.758   0.200   3.486 -0.0794 -0.1334  0.3162
 5868SOL    HW117969   0.674   0.242   3.505 -0.5818 -0.3806 -1.2017
 5868SOL    HW217970   0.819   0.273   3.474 -0.5022  0.1266 -0.3481
 5869SOL     OW17971   3.359   1.580   4.843 -0.3235 -0.6114  0.9082
 5869SOL    HW117972   3.431   1.573   4.905 -0.6953 -1.8643  1.2333
 5869SOL    HW217973   3.285   1.537   4.887 -0.9439 -0.4077  0.1031
 5870SOL     OW17974   4.334   5.521   4.698 -0.1522 -0.1816 -0.3118
 5870SOL    HW117975   4.406   5.528   4.636 -0.2178  1.5761 -0.2533
 5870SOL    HW217976   4.375   5.506   4.783  0.0177 -1.2107 -0.5727
 5871SOL     OW17977   2.908   1.878   2.426  0.5843  0.0994 -0.1268
 5871SOL    HW117978   2.829   1.927   2.448  0.9176 -0.8302  3.8471
 5871SOL    HW217979   2.875   1.790   2.405  0.4031  0.4492 -1.3627
 5872SOL     OW17980   5.283   6.475   5.494 -0.2578  0.2269  0.0925
 5872SOL    HW117981   5.218   6.478   5.563 -1.1286 -0.8805 -0.6341
 5872SOL    HW217982   5.365   6.452   5.538 -0.9054 -1.0002  0.7010
 5873SOL     OW17983   5.419   6.008   2.432  0.4130 -0.1931  0.2747
 5873SOL    HW117984   5.495   5.954   2.451  1.9620  1.6954 -0.2306
 5873SOL    HW217985   5.351   5.945   2.405  1.2986 -2.0372  2.0788
 5874SOL     OW17986   3.110   0.698   2.904  0.1984  0.0844  0.2686
 5874SOL    HW117987   3.175   0.644   2.860 -0.4608 -0.9866  0.5731
 5874SOL    HW217988   3.068   0.748   2.834  2.3681  2.0022  0.2121
 5875SOL     OW17989   6.486   2.211   3.829  1.1354 -0.2201  0.2290
 5875SOL    HW117990   6.483   2.118   3.809 -0.4954 -0.8882  2.9608
 5875SOL    HW217991   6.555   2.220   3.894  0.3755  0.1844  1.0119
 5876SOL     OW17992   2.585   1.765   5.431 -0.0650 -0.0912  0.1514
 5876SOL    HW117993   2.541   1.720   5.359  0.7077  2.3544 -1.9965
 5876SOL    HW217994   2.603   1.696   5.495 -3.2014 -1.9038 -0.7064
 5877SOL     OW17995   2.307   0.268   2.450 -0.0247 -0.0624 -0.1375
 5877SOL    HW117996   2.380   0.205   2.449 -1.2682 -1.5672  0.1438
 5877SOL    HW217997   2.263   0.254   2.367 -0.1256  0.6878 -0.2103
 5878SOL     OW17998   5.913   1.990   5.948 -0.6146  0.0566  0.5945
 5878SOL    HW117999   5.941   1.911   5.902 -1.5758 -0.2125  0.4649
 5878SOL    HW218000   5.979   2.056   5.924 -0.5131 -0.3604 -0.3083
 5879SOL     OW18001   0.325   4.890   5.308 -0.4090 -0.2594  0.1527
 5879SOL    HW118002   0.336   4.802   5.344  0.1258 -0.3357 -0.1894
 5879SOL    HW218003   0.339   4.948   5.383 -0.8118 -0.4590  0.3911
 5880SOL     OW18004   1.184   3.339   4.869  0.1850 -0.5018  0.9091
 5880SOL    HW118005   1.166   3.254   4.910 -1.3815 -0.9310 -0.5477
 5880SOL    HW218006   1.098   3.374   4.846  0.9123 -0.1487 -1.6593
 5881SOL     OW18007   5.632   1.219   0.101 -0.2634 -0.0841  0.3546
 5881SOL    HW118008   5.607   1.227   0.009  1.0951 -1.1621 -0.1507
 5881SOL    HW218009   5.564   1.164   0.139 -0.8450  0.3800  0.0142
 5882SOL     OW18010   1.442   4.568   4.098  0.1034 -0.1191 -0.7742
 5882SOL    HW118011   1.511   4.503   4.102  2.2947  2.1269  1.1254
 5882SOL    HW218012   1.374   4.535   4.156  1.1358 -0.7454  0.1082
 5883SOL     OW18013   1.464   4.467   6.131  0.0962 -0.1261  0.1632
 5883SOL    HW118014   1.409   4.445   6.206  0.0418 -1.1920 -0.1656
 5883SOL    HW218015   1.535   4.519   6.168 -1.9068  2.6800  0.3697
 5884SOL     OW18016   0.197   0.059   3.895  0.2598 -0.3699  0.3779
 5884SOL    HW118017   0.133   0.131   3.895  0.6392 -0.0159 -0.6698
 5884SOL    HW218018   0.232   0.058   3.984  0.5136  0.9837  0.3070
 5885SOL     OW18019   4.293   0.333   2.355 -0.5492  0.7230 -0.6971
 5885SOL    HW118020   4.367   0.274   2.370 -1.1329  0.5096  1.7463
 5885SOL    HW218021   4.228   0.279   2.310  0.1924  0.5147 -1.5639
 5886SOL     OW18022   4.852   4.228   1.139 -0.0159  0.6006  0.0412
 5886SOL    HW118023   4.924   4.186   1.186  1.0741  1.5305 -0.7382
 5886SOL    HW218024   4.817   4.292   1.201 -0.1189  0.2083  0.3922
 5887SOL     OW18025   6.033   1.533   1.579 -0.2245  0.3768  0.4380
 5887SOL    HW118026   5.937   1.528   1.578 -0.1398 -2.5265 -0.1093
 5887SOL    HW218027   6.058   1.504   1.667  0.1787 -0.0596  0.1834
 5888SOL     OW18028   1.506   4.020   0.921  0.3925  0.3462  0.5159
 5888SOL    HW118029   1.456   4.099   0.937  0.0079 -0.0706  1.4642
 5888SOL    HW218030   1.593   4.051   0.896 -0.6836  1.1174 -2.7204
 5889SOL     OW18031   5.904   4.135   0.902  0.0872 -0.0174  0.3850
 5889SOL    HW118032   5.864   4.220   0.886 -1.1062 -0.2729  1.8532
 5889SOL    HW218033   5.993   4.144   0.867 -0.8211  0.9265 -1.9175
 5890SOL     OW18034   3.188   6.473   3.358  0.4370 -0.0359 -0.2760
 5890SOL    HW118035   3.193   6.476   3.263 -1.8920  1.3861 -0.4360
 5890SOL    HW218036   3.095   6.459   3.377  0.7918  0.0140  1.7929
 5891SOL     OW18037   3.592   3.352   2.316  0.5853  0.3624  0.1829
 5891SOL    HW118038   3.553   3.376   2.401 -2.4946  0.5015 -1.1450
 5891SOL    HW218039   3.558   3.417   2.255  1.1483 -0.8848 -1.5241
 5892SOL     OW18040   6.436   4.371   2.596 -0.1780 -0.6522 -0.0285
 5892SOL    HW118041   6.402   4.315   2.527 -0.5070 -1.6883  0.9545
 5892SOL    HW218042   6.522   4.335   2.617  1.9293  2.1966 -2.7957
 5893SOL     OW18043   6.655   2.642   5.449  0.3168 -0.3835  0.6088
 5893SOL    HW118044   6.561   2.626   5.446  0.2138  0.2314  0.1986
 5893SOL    HW218045   6.667   2.696   5.527  0.0218  1.2379 -0.4020
 5894SOL     OW18046   2.955   2.539   1.974 -0.4445  0.0959 -0.1952
 5894SOL    HW118047   3.013   2.581   2.038  0.2309  0.5272 -1.0626
 5894SOL    HW218048   2.891   2.606   1.951 -1.6325 -0.5381  1.1348
 5895SOL     OW18049   2.712   3.386   3.600 -0.0086  0.3505 -0.3726
 5895SOL    HW118050   2.785   3.325   3.586  0.5896  0.6708  1.1284
 5895SOL    HW218051   2.636   3.330   3.617  0.4649 -0.0157  0.6392
 5896SOL     OW18052   1.332   4.169   0.140  0.2333 -0.2325  0.2210
 5896SOL    HW118053   1.259   4.125   0.097 -0.8278  1.3329  0.3336
 5896SOL    HW218054   1.304   4.182   0.230  0.6278  0.3751  0.2668
 5897SOL     OW18055   4.604   0.156   0.164 -0.0509 -0.1523  0.7301
 5897SOL    HW118056   4.577   0.201   0.084 -0.4968  2.3846  2.2002
 5897SOL    HW218057   4.699   0.159   0.162 -0.0803  1.5346  1.1280
 5898SOL     OW18058   3.003   1.941   0.564  0.0411 -0.0923 -0.6694
 5898SOL    HW118059   3.070   1.946   0.632 -0.2695 -1.4193 -0.2357
 5898SOL    HW218060   2.932   1.997   0.597  0.8323  1.1613 -1.0444
 5899SOL     OW18061   1.849   6.637   6.224 -0.3956  0.4773  0.1100
 5899SOL    HW118062   1.809   6.615   6.308 -0.4652  1.8496  0.4637
 5899SOL    HW218063   1.943   6.646   6.244 -0.6050  2.3699  0.4196
 5900SOL     OW18064   2.170   4.051   4.643  0.2970  0.6547  0.1546
 5900SOL    HW118065   2.111   3.976   4.656  1.2298  0.1925  2.0001
 5900SOL    HW218066   2.219   4.029   4.564 -1.8723  1.0164 -1.3925
 5901SOL     OW18067   0.803   0.027   2.186 -0.0220 -0.1497  0.0587
 5901SOL    HW118068   0.768  -0.009   2.267  0.5174 -0.7417  0.0361
 5901SOL    HW218069   0.766  -0.028   2.116  0.4094 -0.3563 -0.0115
 5902SOL     OW18070   1.243   3.582   1.488 -0.1619  0.5426 -0.1867
 5902SOL    HW118071   1.295   3.579   1.407 -0.4515  1.4807 -0.4146
 5902SOL    HW218072   1.164   3.533   1.467  0.1389  0.0437 -0.1865
 5903SOL     OW18073   3.050   1.578   4.901 -0.8930  0.3387  0.0587
 5903SOL    HW118074   3.033   1.487   4.875 -0.0934  0.3713 -0.6338
 5903SOL    HW218075   2.992   1.630   4.846 -0.5818  0.2992 -0.3130
 5904SOL     OW18076   4.384   5.552   1.202  0.4867 -0.3253 -0.2964
 5904SOL    HW118077   4.378   5.463   1.237  1.3146 -0.4454 -0.4355
 5904SOL    HW218078   4.452   5.594   1.254 -0.8214  0.6732  0.6719
 5905SOL     OW18079   1.401   4.029   5.161  0.0277  0.2913  0.0670
 5905SOL    HW118080   1.426   3.980   5.239 -0.4908  1.0856  0.7538
 5905SOL    HW218081   1.311   4.001   5.142  0.0540  0.3013 -0.0727
 5906SOL     OW18082   1.791   5.557   2.639 -0.6130  0.0455 -0.6087
 5906SOL    HW118083   1.847   5.634   2.635 -1.1496  0.5221  0.5965
 5906SOL    HW218084   1.840   5.494   2.691 -1.1446  0.4376  0.3868
 5907SOL     OW18085   4.576   5.807   5.841 -0.2377 -0.0401  0.3627
 5907SOL    HW118086   4.501   5.751   5.858 -0.8398  0.6731  0.0859
 5907SOL    HW218087   4.617   5.818   5.927 -0.8742  0.1578  0.6466
 5908SOL     OW18088   5.018   6.618   0.667  0.5859 -0.2807 -1.5083
 5908SOL    HW118089   5.091   6.602   0.726 -0.9493  1.0995  0.9579
 5908SOL    HW218090   5.015   6.714   0.658 -1.9351 -0.1158  0.0182
 5909SOL     OW18091   3.696   5.281   5.841 -0.1443 -0.1829  0.3168
 5909SOL    HW118092   3.684   5.346   5.910  1.1858  0.6789 -0.2324
 5909SOL    HW218093   3.730   5.331   5.767 -1.8865 -1.0224 -1.1157
 5910SOL     OW18094   1.557   5.010   3.235 -0.0894  0.0731  0.3953
 5910SOL    HW118095   1.545   5.098   3.271  1.1710  0.1551  0.6798
 5910SOL    HW218096   1.616   4.967   3.297  1.8512  0.0896 -1.3278
 5911SOL     OW18097   5.534   2.824   3.137  0.1489 -0.6015  0.3541
 5911SOL    HW118098   5.527   2.883   3.212  0.8162 -1.6726  1.3084
 5911SOL    HW218099   5.575   2.876   3.068 -2.4366  1.0615 -0.0573
 5912SOL     OW18100   3.745   3.927   2.969 -0.2732 -0.4808 -0.1054
 5912SOL    HW118101   3.775   3.920   3.060  0.6859  1.0061 -0.2778
 5912SOL    HW218102   3.655   3.960   2.976  0.2850  1.0262  0.2969
 5913SOL     OW18103   5.127   4.399   1.154 -0.0911 -0.5309 -0.0832
 5913SOL    HW118104   5.127   4.394   1.059  0.4884 -1.9821 -0.0322
 5913SOL    HW218105   5.207   4.354   1.181 -0.4661 -0.5276  1.1055
 5914SOL     OW18106   0.248   3.983   3.526  0.7063  0.2111 -0.2584
 5914SOL    HW118107   0.323   3.923   3.526  0.4267 -0.2964 -2.9437
 5914SOL    HW218108   0.173   3.927   3.546  0.6595 -0.0058 -1.0065
 5915SOL     OW18109   1.728   0.620   4.626 -0.3591  0.3279 -0.3096
 5915SOL    HW118110   1.736   0.675   4.704 -0.5496 -0.5535  0.3521
 5915SOL    HW218111   1.667   0.666   4.570 -1.0425  0.4658  0.5266
 5916SOL     OW18112   1.542   4.419   4.893  0.1964 -0.0830 -0.0424
 5916SOL    HW118113   1.469   4.474   4.921  1.2780  2.2995 -1.5736
 5916SOL    HW218114   1.551   4.354   4.962 -1.2176  1.6243  1.8696
 5917SOL     OW18115   4.457   4.965   5.069 -0.3580  0.0324 -0.0499
 5917SOL    HW118116   4.524   4.909   5.029  1.0740  0.6958  1.3084
 5917SOL    HW218117   4.480   5.054   5.039 -0.1310  0.3555  1.0343
 5918SOL     OW18118   0.745   3.679   5.821 -0.4872 -0.2705 -0.0062
 5918SOL    HW118119   0.745   3.595   5.867 -2.0244 -0.1850  0.2131
 5918SOL    HW218120   0.741   3.655   5.728  1.4830 -0.4283 -0.0953
 5919SOL     OW18121   5.578   6.552   5.316  0.3960 -0.1627  1.1395
 5919SOL    HW118122   5.497   6.564   5.267 -0.3610 -0.9518  2.1644
 5919SOL    HW218123   5.589   6.457   5.322  0.3021 -0.0933  2.7398
 5920SOL     OW18124   1.442   5.508   3.249  0.2988  0.1578 -0.2125
 5920SOL    HW118125   1.529   5.474   3.271  0.1392 -0.1206 -0.0138
 5920SOL    HW218126   1.408   5.446   3.185 -0.7046 -1.0736  1.4274
 5921SOL     OW18127   0.822   0.034   6.763  0.1671  0.1284 -0.1865
 5921SOL    HW118128   0.856   0.013   6.849 -0.0417 -2.2343 -0.6100
 5921SOL    HW218129   0.797   0.126   6.768  0.9868  0.2733  1.9730
 5922SOL     OW18130   6.571   1.953   5.040  0.5634  0.1329  0.9312
 5922SOL    HW118131   6.562   1.876   5.097 -1.4357 -0.8189 -0.5403
 5922SOL    HW218132   6.510   2.017   5.075 -1.3936 -0.8017 -0.5289
 5923SOL     OW18133   2.004   0.478   5.676 -0.2399  0.0178 -0.2521
 5923SOL    HW118134   1.938   0.534   5.719  1.5510  1.5146  0.6876
 5923SOL    HW218135   1.957   0.439   5.603 -1.8399  2.0850 -0.4363
 5924SOL     OW18136   3.948   2.440   1.186  0.0540  0.1488  0.2513
 5924SOL    HW118137   4.004   2.367   1.210  0.8568  0.1302 -1.5303
 5924SOL    HW218138   3.883   2.403   1.126  0.0676  0.7699 -0.1592
 5925SOL     OW18139   2.748   3.554   1.606 -0.4506  0.3386 -0.5446
 5925SOL    HW118140   2.828   3.606   1.616  0.0640 -0.7113  1.3060
 5925SOL    HW218141   2.694   3.579   1.680 -0.9036 -0.5181 -0.5701
 5926SOL     OW18142   1.163   0.344   1.791 -0.5411  0.1105 -0.5867
 5926SOL    HW118143   1.141   0.279   1.724 -2.9231  0.8974 -0.6604
 5926SOL    HW218144   1.124   0.309   1.872  0.5153  0.1725 -0.0321
 5927SOL     OW18145   3.932   1.965   1.870 -0.0841 -0.0548 -0.2447
 5927SOL    HW118146   3.856   1.993   1.821 -0.1532 -0.1093 -0.1688
 5927SOL    HW218147   3.897   1.936   1.954  0.2007  1.8410  0.5946
 5928SOL     OW18148   3.689   2.279   4.096 -0.1109 -0.4454 -0.2323
 5928SOL    HW118149   3.659   2.207   4.152  2.0726 -1.4294 -0.2229
 5928SOL    HW218150   3.700   2.239   4.010  0.1071  0.1513 -0.4837
 5929SOL     OW18151   3.573   1.191   6.794 -0.1699 -0.2522  0.0686
 5929SOL    HW118152   3.554   1.259   6.730 -0.3323  0.2031  0.5882
 5929SOL    HW218153   3.630   1.235   6.858 -1.8671 -0.0087  1.4781
 5930SOL     OW18154   4.166   3.089   1.338 -0.5156  0.2705 -0.2701
 5930SOL    HW118155   4.124   3.003   1.350  0.2181 -0.1775 -0.8365
 5930SOL    HW218156   4.098   3.152   1.362 -2.0777 -0.3749 -2.6543
 5931SOL     OW18157   3.335   2.320   5.354 -0.5656  0.7327  0.1990
 5931SOL    HW118158   3.381   2.260   5.296 -0.7286  0.2858  0.5212
 5931SOL    HW218159   3.331   2.403   5.306 -1.2040  0.2194 -0.6574
 5932SOL     OW18160   1.351   0.218   3.571 -0.1873  0.7897 -0.3898
 5932SOL    HW118161   1.418   0.189   3.509  0.1899  0.4839  0.1500
 5932SOL    HW218162   1.398   0.225   3.655 -0.2909  2.7852 -0.4396
 5933SOL     OW18163   6.219   3.947   5.416 -0.2117  0.2779  0.2265
 5933SOL    HW118164   6.241   3.928   5.325 -0.7128 -0.9390  0.3328
 5933SOL    HW218165   6.300   3.979   5.455  0.2864 -0.2199 -0.3838
 5934SOL     OW18166   3.606   2.280   0.255  0.5216  0.3067  0.4850
 5934SOL    HW118167   3.672   2.249   0.193  0.9930  0.0599  1.0975
 5934SOL    HW218168   3.591   2.372   0.230 -1.4560 -0.5227 -1.8428
 5935SOL     OW18169   0.264   1.543   3.259 -0.0998 -0.4736  0.1723
 5935SOL    HW118170   0.200   1.613   3.247  0.2202 -0.3728 -1.0502
 5935SOL    HW218171   0.276   1.538   3.354 -1.0564  0.2780  0.3518
 5936SOL     OW18172   6.372   4.989   4.805 -0.2360 -0.3421 -0.0448
 5936SOL    HW118173   6.357   5.080   4.778  0.9534 -0.5295 -1.3884
 5936SOL    HW218174   6.466   4.983   4.820 -0.3784 -1.2225  0.6105
 5937SOL     OW18175   2.556   5.846   0.309 -0.6872  0.1633  0.2997
 5937SOL    HW118176   2.542   5.861   0.215 -0.8320 -2.4704 -0.1729
 5937SOL    HW218177   2.481   5.889   0.351 -0.2986  1.9189 -0.6989
 5938SOL     OW18178   4.441   0.398   1.358 -0.1134 -0.4851 -0.9820
 5938SOL    HW118179   4.508   0.419   1.423 -0.3411  2.3612 -1.5580
 5938SOL    HW218180   4.483   0.415   1.274 -1.0603 -0.1710 -1.4089
 5939SOL     OW18181   6.665   6.136   5.665  0.0317  0.1549  0.0327
 5939SOL    HW118182   6.703   6.099   5.585  0.3263  1.2915 -0.3742
 5939SOL    HW218183   6.738   6.142   5.726  0.2793  1.1833 -0.3300
 5940SOL     OW18184   0.706   6.110   4.675 -0.3099 -0.4076 -0.2378
 5940SOL    HW118185   0.761   6.177   4.716 -1.1080  1.1255 -1.5616
 5940SOL    HW218186   0.634   6.097   4.737 -0.3169  0.2061 -0.1078
 5941SOL     OW18187   3.685   5.102   1.412 -0.2178  0.0147  0.1334
 5941SOL    HW118188   3.711   5.020   1.454 -0.4316 -0.2253 -0.1907
 5941SOL    HW218189   3.632   5.147   1.477 -0.4259 -0.2884  0.1788
 5942SOL     OW18190   2.896   4.530   2.806 -0.4677  0.1979 -0.5545
 5942SOL    HW118191   2.883   4.599   2.741 -1.3334  0.9343  0.3709
 5942SOL    HW218192   2.814   4.481   2.807 -0.5476  0.3451  0.1635
 5943SOL     OW18193   5.638   2.546   4.104 -0.1656 -0.3502 -0.1770
 5943SOL    HW118194   5.575   2.494   4.054  0.1243  0.1569 -1.0893
 5943SOL    HW218195   5.602   2.550   4.193 -1.5538  0.1535 -0.7467
 5944SOL     OW18196   1.146   1.396   0.295 -0.6071 -0.5466  0.0167
 5944SOL    HW118197   1.176   1.377   0.384  3.7263  1.1181 -0.8305
 5944SOL    HW218198   1.099   1.479   0.302 -0.8319 -0.7352  0.8258
 5945SOL     OW18199   6.065   5.322   1.540  0.4080  0.1067 -0.5671
 5945SOL    HW118200   5.978   5.306   1.502  0.4760  0.1358 -0.7385
 5945SOL    HW218201   6.053   5.400   1.594 -0.3967 -1.5995  1.8722
 5946SOL     OW18202   0.017   0.187   1.139  0.3011  0.0396  0.1793
 5946SOL    HW118203  -0.031   0.120   1.188 -0.4589  1.3647  1.3322
 5946SOL    HW218204   0.107   0.181   1.172  1.1104 -2.6362 -2.1842
 5947SOL     OW18205   5.453   4.266   3.728  0.0129 -0.2599 -0.0644
 5947SOL    HW118206   5.517   4.198   3.706 -0.3281 -0.2584 -1.1377
 5947SOL    HW218207   5.382   4.218   3.770 -0.1456 -0.5487 -0.6524
 5948SOL     OW18208   0.513   2.943   2.323  0.4358 -0.7593 -0.3098
 5948SOL    HW118209   0.537   3.020   2.271  0.2235  0.0541  0.7426
 5948SOL    HW218210   0.443   2.901   2.273  1.1937 -0.7959 -1.3564
 5949SOL     OW18211   2.626   5.277   0.606  0.4505  0.2270  0.6427
 5949SOL    HW118212   2.715   5.243   0.619 -0.1626 -2.4175 -1.1299
 5949SOL    HW218213   2.571   5.224   0.664 -0.3132 -0.4331 -0.6361
 5950SOL     OW18214   4.131   3.295   1.975  0.0937 -0.1882 -0.5400
 5950SOL    HW118215   4.047   3.326   2.009  0.7546  1.6354 -0.4338
 5950SOL    HW218216   4.167   3.242   2.045 -1.5154 -2.1731 -1.1009
 5951SOL     OW18217   1.014   4.184   0.571  0.2284  0.4934  0.7683
 5951SOL    HW118218   0.938   4.130   0.591  0.0070  0.3409 -0.4052
 5951SOL    HW218219   1.002   4.209   0.479  1.3902  0.7989  0.6834
 5952SOL     OW18220   5.485   2.250   5.107  0.3305 -0.3296  0.0715
 5952SOL    HW118221   5.428   2.224   5.179  0.0806 -1.2437 -0.4389
 5952SOL    HW218222   5.541   2.174   5.092  0.7303  0.0457 -0.3591
 5953SOL     OW18223   0.591   3.813   2.802 -0.6140 -0.0590 -0.0305
 5953SOL    HW118224   0.543   3.732   2.820 -0.3329 -0.0850  0.6291
 5953SOL    HW218225   0.529   3.882   2.825 -0.5805 -0.0912  0.1592
 5954SOL     OW18226   5.526   5.632   4.362 -0.3832 -0.3259 -0.1043
 5954SOL    HW118227   5.547   5.719   4.327  0.3571 -0.1139  0.8213
 5954SOL    HW218228   5.491   5.584   4.288 -0.6952  0.7306 -0.6679
 5955SOL     OW18229   3.355   0.138   1.741  0.1195  0.2749  0.5916
 5955SOL    HW118230   3.381   0.046   1.730  1.3827  0.7311 -0.5227
 5955SOL    HW218231   3.406   0.167   1.817  0.3931  0.2799  0.4099
 5956SOL     OW18232   1.375   5.783   2.243 -0.2972 -0.5708 -0.3100
 5956SOL    HW118233   1.434   5.723   2.289  0.3484  1.2510  1.3773
 5956SOL    HW218234   1.434   5.841   2.195 -0.6795  0.9856  1.0310
 5957SOL     OW18235   0.706   4.051   6.493 -0.0451  0.0654  0.0876
 5957SOL    HW118236   0.621   4.089   6.516 -0.9318 -0.4305 -2.1464
 5957SOL    HW218237   0.754   4.124   6.453  0.5312  0.2801  1.1247
 5958SOL     OW18238   4.421   0.277   0.680 -0.2958 -0.4067 -0.1077
 5958SOL    HW118239   4.334   0.278   0.720 -0.2354 -0.9035  0.0416
 5958SOL    HW218240   4.456   0.190   0.701 -0.0016 -0.4306 -0.6792
 5959SOL     OW18241   4.384   5.760   3.379  0.8909 -0.5157  0.1269
 5959SOL    HW118242   4.356   5.703   3.451 -0.4778  0.7771  0.6899
 5959SOL    HW218243   4.470   5.792   3.404 -0.2570  1.2864  2.1508
 5960SOL     OW18244   3.790   2.221   1.004  0.4162  0.6987 -0.3311
 5960SOL    HW118245   3.748   2.207   0.919 -1.1193  2.0699  0.1333
 5960SOL    HW218246   3.717   2.219   1.066  1.5544 -0.5847  0.9996
 5961SOL     OW18247   2.185   3.953   1.763 -0.3645 -0.3542  0.6293
 5961SOL    HW118248   2.175   3.953   1.668  0.1454 -2.4756  0.5286
 5961SOL    HW218249   2.271   3.994   1.777 -0.3428 -0.2285  0.1580
 5962SOL     OW18250   1.000   3.131   2.567 -0.2244  0.0063 -0.1901
 5962SOL    HW118251   1.003   3.159   2.659 -0.0604  2.1644 -0.8108
 5962SOL    HW218252   0.915   3.088   2.558 -1.3665  2.0068  0.4063
 5963SOL     OW18253   6.193   6.673   6.310 -0.3223 -1.2688  0.4234
 5963SOL    HW118254   6.284   6.655   6.330  0.2104  0.4839 -0.2019
 5963SOL    HW218255   6.149   6.675   6.395  0.7511  0.4302  0.9750
 5964SOL     OW18256   1.400   0.928   2.149  0.1139  0.1824  0.2071
 5964SOL    HW118257   1.335   0.858   2.157 -0.9734  0.9825 -1.0425
 5964SOL    HW218258   1.395   0.954   2.057  2.5848 -0.0342 -0.0589
 5965SOL     OW18259   1.516   0.488   1.236 -0.2790  0.2800  0.1766
 5965SOL    HW118260   1.502   0.573   1.276 -1.2962 -0.1782  0.8505
 5965SOL    HW218261   1.455   0.429   1.283  1.2180 -1.0527  0.5374
 5966SOL     OW18262   5.731   5.423   2.063  0.1750 -0.2837 -0.0694
 5966SOL    HW118263   5.748   5.511   2.031  1.6489 -0.6493 -0.3583
 5966SOL    HW218264   5.640   5.406   2.039 -0.2105  1.2257  0.2059
 5967SOL     OW18265   1.805   6.492   4.486 -0.4279 -0.4183  0.2208
 5967SOL    HW118266   1.818   6.399   4.506  1.4878 -0.7283 -1.9110
 5967SOL    HW218267   1.753   6.492   4.405 -3.3548  0.5561  1.9614
 5968SOL     OW18268   3.646   0.131   3.284 -0.2537  0.3617  0.2773
 5968SOL    HW118269   3.611   0.063   3.341  0.8356  0.3626  0.9821
 5968SOL    HW218270   3.712   0.086   3.230 -0.4532  0.5972 -0.1692
 5969SOL     OW18271   0.722   5.350   1.286  0.9948 -0.4685  0.8825
 5969SOL    HW118272   0.791   5.416   1.294  0.2432  0.3433  0.8256
 5969SOL    HW218273   0.665   5.383   1.217  0.8981 -1.4616  0.4652
 5970SOL     OW18274   4.689   5.301   2.218  0.3505 -0.1212 -0.3466
 5970SOL    HW118275   4.783   5.287   2.230  0.2935  0.6310  1.2219
 5970SOL    HW218276   4.649   5.263   2.296 -0.5226  0.7946 -0.3271
 5971SOL     OW18277   1.336   5.593   1.751  0.0491  0.3998 -0.2616
 5971SOL    HW118278   1.418   5.579   1.797 -0.8406  0.8868  1.5571
 5971SOL    HW218279   1.303   5.505   1.733  1.3720  0.1873 -1.8531
 5972SOL     OW18280   0.482   4.924   2.465  0.1633  0.1234 -0.3240
 5972SOL    HW118281   0.412   4.883   2.414  0.2792 -0.6741  0.1491
 5972SOL    HW218282   0.446   4.934   2.553 -0.0772  1.6061 -0.5646
 5973SOL     OW18283   4.636   1.264   2.244 -0.3303  0.0963  0.0805
 5973SOL    HW118284   4.730   1.276   2.253 -0.1845  0.5735 -1.6760
 5973SOL    HW218285   4.615   1.192   2.303  0.7140  1.4523  2.2337
 5974SOL     OW18286   0.910   5.271   4.108  0.0929  0.1054 -0.5141
 5974SOL    HW118287   0.951   5.262   4.194 -1.6757  0.7191  0.4539
 5974SOL    HW218288   0.983   5.269   4.046  1.3317 -1.3543  0.9037
 5975SOL     OW18289   1.132   5.047   2.828  0.7788  0.1521 -0.9450
 5975SOL    HW118290   1.162   4.996   2.903 -0.0410  0.9924 -0.0394
 5975SOL    HW218291   1.078   4.985   2.778  1.7323 -0.5552 -1.1501
 5976SOL     OW18292   1.922   4.976   6.165 -0.1578  0.0478  0.3412
 5976SOL    HW118293   1.942   4.908   6.229  1.7575  0.0550 -0.1653
 5976SOL    HW218294   1.957   4.943   6.083 -0.3168  1.1093 -0.1746
 5977SOL     OW18295   4.253   2.933   5.199  0.4729 -0.0639 -0.2425
 5977SOL    HW118296   4.288   3.022   5.190  2.6352 -0.8303  0.1201
 5977SOL    HW218297   4.298   2.897   5.275  0.1620 -1.7030 -0.7929
 5978SOL     OW18298   2.722   0.290   4.122  0.0641 -0.2976 -0.6594
 5978SOL    HW118299   2.704   0.223   4.187  1.7042  1.7480  2.1659
 5978SOL    HW218300   2.636   0.321   4.094 -0.7174 -1.0589  0.7932
 5979SOL     OW18301   1.734   6.001   2.444 -0.1705 -0.1715  0.3854
 5979SOL    HW118302   1.787   5.981   2.367  0.7960 -1.3200  1.3011
 5979SOL    HW218303   1.704   6.091   2.431 -0.1573 -0.3985 -1.3823
 5980SOL     OW18304   1.000   1.999   3.795 -0.8634 -0.2070  0.2998
 5980SOL    HW118305   1.067   2.067   3.795 -0.9815 -0.0889  0.7951
 5980SOL    HW218306   0.921   2.043   3.825 -0.6761 -0.8124  1.7949
 5981SOL     OW18307   3.572   5.822   3.051 -0.3852 -0.0739  0.2681
 5981SOL    HW118308   3.510   5.817   2.978 -0.1625  2.6936 -0.2242
 5981SOL    HW218309   3.517   5.809   3.129 -0.6747 -2.7438 -0.2973
 5982SOL     OW18310   5.971   6.680   4.330  0.5406  0.2400  0.6590
 5982SOL    HW118311   5.963   6.772   4.305  0.7516  0.0335 -0.1785
 5982SOL    HW218312   6.014   6.638   4.256  1.7182 -0.2764  1.5976
 5983SOL     OW18313   4.751   2.183   3.741  0.5743 -0.3594 -0.6553
 5983SOL    HW118314   4.725   2.176   3.833  1.0246 -0.9125 -0.5627
 5983SOL    HW218315   4.824   2.121   3.732  0.5407 -0.3022 -1.3823
 5984SOL     OW18316   5.931   5.779   3.723  0.3688  0.1581  0.0002
 5984SOL    HW118317   5.843   5.773   3.687 -0.5798  1.1278  1.9717
 5984SOL    HW218318   5.980   5.708   3.681 -1.4821 -0.7097 -0.7757
 5985SOL     OW18319   0.866   1.730   1.632  0.9160 -0.0070  0.4967
 5985SOL    HW118320   0.961   1.722   1.635  0.7607 -2.1570  1.2787
 5985SOL    HW218321   0.844   1.785   1.707  1.4411 -1.1149  1.4929
 5986SOL     OW18322   6.782   6.558   0.358 -0.2340  0.0193 -0.6184
 5986SOL    HW118323   6.802   6.481   0.306  1.0954  1.1235 -1.8309
 5986SOL    HW218324   6.728   6.612   0.301 -0.6518  0.2512 -0.0081
 5987SOL     OW18325   5.616   2.855   6.265 -0.5203  0.0657  0.5674
 5987SOL    HW118326   5.595   2.794   6.335 -0.0179  0.1142  0.7655
 5987SOL    HW218327   5.616   2.941   6.307  0.5679  0.0144  0.6873
 5988SOL     OW18328   3.334   2.056   4.391 -0.0573  0.2894 -0.9871
 5988SOL    HW118329   3.276   1.981   4.402  2.0374 -1.2768 -0.1316
 5988SOL    HW218330   3.343   2.065   4.297  1.4347 -2.0254 -1.1303
 5989SOL     OW18331   1.493   3.320   5.291  0.0243  0.4776  0.1483
 5989SOL    HW118332   1.398   3.330   5.295 -0.2675 -2.1073  2.0853
 5989SOL    HW218333   1.526   3.379   5.359  0.0458  2.5778 -1.5572
 5990SOL     OW18334   6.640   6.047   0.479  0.1770  0.2828  0.1839
 5990SOL    HW118335   6.571   6.060   0.543  0.4577  0.3332  0.4783
 5990SOL    HW218336   6.621   6.111   0.410  0.6538  1.1926  0.8719
 5991SOL     OW18337   0.221   6.586   6.328 -0.6617 -0.0153  0.7331
 5991SOL    HW118338   0.199   6.496   6.307  0.2286 -0.2668  0.8365
 5991SOL    HW218339   0.146   6.637   6.298 -0.2652 -0.5587 -1.3158
 5992SOL     OW18340   4.911   1.329   2.292 -0.3088 -0.7369  0.0706
 5992SOL    HW118341   4.952   1.415   2.286 -0.4386 -0.7004 -0.3902
 5992SOL    HW218342   4.975   1.270   2.252 -0.7911 -0.6441 -0.8699
 5993SOL     OW18343   1.861   6.344   0.194 -0.2301 -0.2591 -0.4592
 5993SOL    HW118344   1.793   6.283   0.164  0.1249 -0.1362 -1.5389
 5993SOL    HW218345   1.865   6.329   0.288 -0.5689 -1.4845 -0.6138
 5994SOL     OW18346   5.553   5.526   4.920 -0.2218  0.0698  0.4686
 5994SOL    HW118347   5.542   5.439   4.957  2.0647 -0.5730 -0.1628
 5994SOL    HW218348   5.585   5.580   4.993  0.9222 -0.3242  0.2829
 5995SOL     OW18349   3.632   1.627   0.473  0.1622  0.2936  0.0434
 5995SOL    HW118350   3.626   1.538   0.438  0.0437  0.5053 -0.4894
 5995SOL    HW218351   3.541   1.657   0.479  0.0966 -0.1036  1.5274
 5996SOL     OW18352   5.073   0.506   5.964 -0.6057 -0.2144  0.1096
 5996SOL    HW118353   5.062   0.593   5.928 -0.7172 -0.4119 -0.3443
 5996SOL    HW218354   5.035   0.447   5.898  0.4026 -0.6792 -0.0835
 5997SOL     OW18355   1.562   0.395   1.685  0.3288 -0.0388 -0.0982
 5997SOL    HW118356   1.583   0.369   1.775 -0.5363 -0.7845 -0.1027
 5997SOL    HW218357   1.587   0.487   1.681 -0.5863  0.2967  1.2185
 5998SOL     OW18358   2.650   4.360   6.139  0.0572 -0.0902  0.7545
 5998SOL    HW118359   2.671   4.409   6.219 -0.4753 -0.2990  1.0267
 5998SOL    HW218360   2.619   4.275   6.170 -1.1808  0.2115  0.3697
 5999SOL     OW18361   0.120   4.883   6.771  0.6732 -0.0231 -0.1230
 5999SOL    HW118362   0.080   4.835   6.698 -1.1499  1.9924 -0.5628
 5999SOL    HW218363   0.160   4.960   6.729  4.0634 -1.3155  0.4757
 6000SOL     OW18364   5.213   6.708   1.235  0.0976  0.0746  0.0878
 6000SOL    HW118365   5.126   6.741   1.215  0.7398  1.3140 -0.8367
 6000SOL    HW218366   5.252   6.775   1.291 -0.0164 -1.1444  1.6997
 6001SOL     OW18367   6.767   1.270   2.810  0.0776  0.6065  0.2885
 6001SOL    HW118368   6.773   1.357   2.770 -0.8593  0.0393 -1.1447
 6001SOL    HW218369   6.677   1.264   2.840 -0.2482 -0.3720 -0.8421
 6002SOL     OW18370   0.734   2.267   0.478  0.0845 -0.0492 -0.4489
 6002SOL    HW118371   0.678   2.299   0.407 -0.4709  0.6163  0.2718
 6002SOL    HW218372   0.817   2.247   0.436  0.5878  2.6572 -0.9300
 6003SOL     OW18373   6.454   6.244   0.592  0.2425  0.0091 -0.6297
 6003SOL    HW118374   6.538   6.250   0.638  0.9158  0.1213 -1.8043
 6003SOL    HW218375   6.401   6.314   0.630  0.6743 -0.0659  0.1378
 6004SOL     OW18376   0.029   2.913   4.525 -0.3314  0.0335  0.3517
 6004SOL    HW118377   0.005   2.917   4.433  1.4544  2.9394 -0.1472
 6004SOL    HW218378   0.020   3.003   4.556 -0.2693 -0.7403  2.8661
 6005SOL     OW18379   3.985   6.647   4.030  0.9214 -0.5599 -0.0442
 6005SOL    HW118380   3.957   6.738   4.025 -0.0499 -0.5696  3.0916
 6005SOL    HW218381   4.064   6.643   3.976  0.7592  2.0365 -0.5989
 6006SOL     OW18382   1.351   2.891   1.123 -0.9641 -0.8773  0.2945
 6006SOL    HW118383   1.257   2.903   1.141 -0.4814  0.2166  2.4808
 6006SOL    HW218384   1.359   2.906   1.029 -2.7666  0.7010  0.3133
 6007SOL     OW18385   3.267   5.895   2.983  0.2740 -0.0016  0.3709
 6007SOL    HW118386   3.322   5.915   2.907  2.4122 -0.8289  1.5972
 6007SOL    HW218387   3.212   5.822   2.956 -0.1301  0.7365 -0.8503
 6008SOL     OW18388   5.613   6.279   0.551 -0.2349 -0.3698 -0.0934
 6008SOL    HW118389   5.699   6.320   0.549 -0.2189 -0.4348 -1.0753
 6008SOL    HW218390   5.586   6.274   0.459 -1.5356  0.1729  0.2284
 6009SOL     OW18391   0.099   5.955   0.493  0.4973  0.3798  0.1186
 6009SOL    HW118392   0.143   6.014   0.431 -2.1965 -0.4662 -2.8473
 6009SOL    HW218393   0.009   5.985   0.496 -0.1054 -1.3555  1.4904
 6010SOL     OW18394   6.206   2.237   6.796 -0.0360  0.0532 -0.1897
 6010SOL    HW118395   6.232   2.213   6.707  0.1875  2.4010 -0.8231
 6010SOL    HW218396   6.149   2.165   6.825  1.2534 -1.6011 -1.5383
 6011SOL     OW18397   2.445   1.015   3.142  0.1015  0.4332  0.1050
 6011SOL    HW118398   2.464   0.953   3.071 -1.0970 -0.7968  0.8287
 6011SOL    HW218399   2.522   1.011   3.198 -0.2191 -0.9059  0.4840
 6012SOL     OW18400   0.700   5.851   2.599 -0.0700  0.0149 -0.4860
 6012SOL    HW118401   0.608   5.833   2.619  0.2922 -0.2367  1.1386
 6012SOL    HW218402   0.738   5.765   2.581 -0.3760  0.2353 -2.2854
 6013SOL     OW18403   0.001   0.286   3.877  0.1363  0.4000 -0.1515
 6013SOL    HW118404  -0.025   0.289   3.785 -0.0160  0.7246 -0.1001
 6013SOL    HW218405   0.040   0.372   3.894  1.9212 -0.3151 -0.4151
 6014SOL     OW18406   3.948   4.290   2.577 -0.5232  0.0994  0.2484
 6014SOL    HW118407   3.862   4.251   2.559  0.0281 -0.2684 -1.8425
 6014SOL    HW218408   3.942   4.377   2.538  0.8102 -0.8172 -2.2197
 6015SOL     OW18409   6.197   4.755   0.057 -0.0464  0.2225 -0.4646
 6015SOL    HW118410   6.178   4.837   0.013  2.3753 -0.0352 -2.1664
 6015SOL    HW218411   6.238   4.781   0.140  1.1822  0.7848 -1.2195
 6016SOL     OW18412   4.023   3.856   2.517  0.5048  0.6440  0.9097
 6016SOL    HW118413   4.070   3.881   2.597 -0.5332  0.8900  1.4551
 6016SOL    HW218414   4.084   3.875   2.446  1.1178  1.2334  1.5835
 6017SOL     OW18415   6.603   0.775   4.533 -0.4548 -0.1476 -0.0661
 6017SOL    HW118416   6.641   0.824   4.460 -0.8758 -0.8169 -0.7523
 6017SOL    HW218417   6.518   0.745   4.501 -0.8923  0.0153  0.9036
 6018SOL     OW18418   5.821   2.535   6.053  0.0007  0.1526  0.1820
 6018SOL    HW118419   5.819   2.554   5.959  0.2622  0.3602  0.2177
 6018SOL    HW218420   5.841   2.619   6.094  0.4062 -0.0390  0.3888
 6019SOL     OW18421   6.754   1.407   5.767  0.3531 -0.3299  0.4325
 6019SOL    HW118422   6.843   1.429   5.740 -0.2893  0.2458 -1.3378
 6019SOL    HW218423   6.765   1.333   5.826  1.9833 -0.4786 -0.0007
 6020SOL     OW18424   5.220   6.339   6.457  0.5408  0.4033 -0.3301
 6020SOL    HW118425   5.213   6.391   6.537 -1.5126  1.4446 -1.0910
 6020SOL    HW218426   5.176   6.257   6.477 -2.1066  1.5541 -0.9682
 6021SOL     OW18427   6.520   4.416   4.528  0.1015  0.2246 -0.3471
 6021SOL    HW118428   6.428   4.390   4.516  0.2180 -1.5147  1.9614
 6021SOL    HW218429   6.520   4.510   4.510 -2.3249  0.4645  0.4880
 6022SOL     OW18430   5.768   0.174   2.563 -0.9024  0.6362 -0.7035
 6022SOL    HW118431   5.675   0.197   2.556 -1.7266 -1.5926  1.5334
 6022SOL    HW218432   5.788   0.184   2.656  1.6078  2.5615 -1.3371
 6023SOL     OW18433   2.840   3.813   6.461  0.3284  0.2925 -0.5953
 6023SOL    HW118434   2.814   3.724   6.485  0.5193  0.1466 -0.9330
 6023SOL    HW218435   2.833   3.862   6.543 -0.5247  0.1435 -0.5707
 6024SOL     OW18436   3.493   3.408   1.280 -0.4779  0.3124  0.6977
 6024SOL    HW118437   3.455   3.496   1.284 -0.1822  0.4734  0.0775
 6024SOL    HW218438   3.555   3.412   1.207 -1.0858 -0.6445  0.0961
 6025SOL     OW18439   2.960   4.765   0.225  0.2521 -0.2154 -0.4231
 6025SOL    HW118440   3.020   4.775   0.150  0.1902  1.0502 -0.3372
 6025SOL    HW218441   2.977   4.678   0.259  2.4432  0.2983 -0.0759
 6026SOL     OW18442   5.883   3.065   6.060  0.2592  0.2570 -0.1825
 6026SOL    HW118443   5.800   3.109   6.080  0.5279 -0.2428  2.2836
 6026SOL    HW218444   5.941   3.088   6.132  1.7267 -0.8025 -0.9712
 6027SOL     OW18445   0.489   5.704   4.175  0.2785 -0.4475 -0.4273
 6027SOL    HW118446   0.401   5.683   4.207 -0.5892  3.1586  0.0539
 6027SOL    HW218447   0.548   5.667   4.240 -0.9646 -1.3945  0.2078
 6028SOL     OW18448   0.045   6.077   5.452  0.2424 -0.1794  0.3361
 6028SOL    HW118449  -0.006   6.073   5.371  0.9885 -0.9282 -0.1218
 6028SOL    HW218450   0.039   5.989   5.489 -0.8939  0.4116  1.6326
 6029SOL     OW18451   4.346   5.377   5.732  0.0695 -0.0782 -0.4059
 6029SOL    HW118452   4.258   5.349   5.705  1.1079 -2.1845 -1.8838
 6029SOL    HW218453   4.403   5.350   5.660  1.9831  0.9878  0.6358
 6030SOL     OW18454   2.993   3.047   4.324 -0.7188  0.5427 -0.1525
 6030SOL    HW118455   2.936   2.980   4.286  1.1522 -0.6484 -1.0189
 6030SOL    HW218456   3.057   3.065   4.255  0.1320  1.6022  0.8872
 6031SOL     OW18457   3.976   5.634   3.892 -0.0388 -0.8540  0.3156
 6031SOL    HW118458   3.909   5.652   3.959  1.6845 -2.7440  2.7247
 6031SOL    HW218459   3.945   5.555   3.848  0.0227 -1.0080  0.5514
 6032SOL     OW18460   0.979   0.103   0.735  0.1884 -0.6654 -0.6412
 6032SOL    HW118461   1.049   0.143   0.788 -0.7353  1.0670 -0.6509
 6032SOL    HW218462   1.022   0.077   0.654  1.0215 -0.4862 -0.2677
 6033SOL     OW18463   0.743   5.402   2.234 -0.1091 -0.3321 -1.1415
 6033SOL    HW118464   0.670   5.447   2.276  0.9751  1.2750 -0.8951
 6033SOL    HW218465   0.801   5.377   2.306 -0.4252 -1.6952 -1.3251
 6034SOL     OW18466   1.251   0.715   4.070  0.3925 -0.2094  0.4733
 6034SOL    HW118467   1.303   0.772   4.127  0.3444 -0.3485  0.6565
 6034SOL    HW218468   1.297   0.631   4.072  0.6560 -0.0859 -0.0692
 6035SOL     OW18469   2.085   0.510   0.088  0.8402 -0.0173 -0.2819
 6035SOL    HW118470   2.078   0.596   0.046  0.7147 -0.0135 -0.2549
 6035SOL    HW218471   2.174   0.507   0.123  0.1426  1.0938  1.8157
 6036SOL     OW18472   3.811   2.239   0.054  0.0832  0.3698  0.0826
 6036SOL    HW118473   3.878   2.254  -0.013  0.3860 -0.4871  0.1745
 6036SOL    HW218474   3.841   2.160   0.100 -1.6792 -0.8719 -0.7708
 6037SOL     OW18475   4.833   4.160   2.657 -1.0269 -0.7175  0.2415
 6037SOL    HW118476   4.889   4.130   2.585  0.5385 -0.1205  1.1478
 6037SOL    HW218477   4.744   4.143   2.627 -0.3611 -2.1581 -1.0761
 6038SOL     OW18478   3.964   2.217   5.035 -0.0022  0.0434 -0.0963
 6038SOL    HW118479   4.040   2.168   5.066  0.3135 -0.8114 -2.1030
 6038SOL    HW218480   3.893   2.188   5.093  0.0648 -3.2202 -1.4247
 6039SOL     OW18481   4.138   6.590   6.179  0.3415  0.1493 -0.5062
 6039SOL    HW118482   4.114   6.498   6.176  0.4918  0.0922  0.0729
 6039SOL    HW218483   4.229   6.590   6.206  0.5305  0.4408 -1.1353
 6040SOL     OW18484   4.133   5.275   0.613 -0.0240 -0.4241  0.0246
 6040SOL    HW118485   4.213   5.229   0.590 -0.0026  0.0842 -1.0037
 6040SOL    HW218486   4.093   5.296   0.529  0.5454  2.4252  0.3701
 6041SOL     OW18487   3.939   0.325   1.515 -0.2228  0.6163 -0.3937
 6041SOL    HW118488   3.924   0.297   1.425  0.5851  4.0531 -1.7338
 6041SOL    HW218489   4.017   0.380   1.511  0.7786 -0.3258  2.7350
 6042SOL     OW18490   3.080   4.573   4.272 -0.1371  0.7371 -0.3023
 6042SOL    HW118491   3.153   4.537   4.322  0.0035  2.7507  1.1038
 6042SOL    HW218492   3.017   4.502   4.266  1.1332 -0.4756  0.1097
 6043SOL     OW18493   4.367   4.607   5.285  0.2338 -0.4035 -0.3863
 6043SOL    HW118494   4.291   4.564   5.245 -0.2986 -0.4745  0.6602
 6043SOL    HW218495   4.383   4.557   5.366  0.9398  0.0624 -0.2297
 6044SOL     OW18496   4.373   2.073   0.227 -0.1400 -0.3737  0.2955
 6044SOL    HW118497   4.466   2.076   0.204 -0.6800 -0.9575 -2.2668
 6044SOL    HW218498   4.339   2.159   0.200 -0.2099  0.1833  2.0627
 6045SOL     OW18499   6.347   6.435   4.031 -0.3629  0.4799  0.0480
 6045SOL    HW118500   6.288   6.508   4.011 -1.6227 -0.8318 -1.2682
 6045SOL    HW218501   6.373   6.401   3.946 -1.6899 -2.0438  0.5549
 6046SOL     OW18502   1.790   4.628   4.318  0.3034 -0.4564  0.5335
 6046SOL    HW118503   1.796   4.532   4.314 -2.6903 -0.8025  1.4477
 6046SOL    HW218504   1.759   4.645   4.407 -0.1440  1.2822  0.0713
 6047SOL     OW18505   2.594   1.336   3.211 -0.1831 -0.2018 -0.7766
 6047SOL    HW118506   2.598   1.248   3.173 -0.9508 -0.3498 -0.5300
 6047SOL    HW218507   2.514   1.374   3.174 -0.0451  0.2605 -0.6010
 6048SOL     OW18508   1.310   4.326   5.354  0.0510  0.0864 -0.7513
 6048SOL    HW118509   1.326   4.289   5.267  0.2368  0.2960 -0.8065
 6048SOL    HW218510   1.234   4.384   5.342  0.1139  0.1615 -0.7875
 6049SOL     OW18511   4.550   0.469   1.081 -0.8270  0.3113  0.5033
 6049SOL    HW118512   4.612   0.540   1.098 -1.7793  1.1741  0.4873
 6049SOL    HW218513   4.578   0.433   0.997  1.2147 -1.0494  1.6966
 6050SOL     OW18514   3.682   3.820   0.660  0.4719 -0.1460  0.2055
 6050SOL    HW118515   3.691   3.815   0.756 -2.5393  0.7571  0.6440
 6050SOL    HW218516   3.644   3.736   0.635  1.2477 -0.3777 -0.2088
 6051SOL     OW18517   1.467   2.282   3.174  0.0645 -0.1241  0.0814
 6051SOL    HW118518   1.425   2.198   3.193 -0.6168  0.0392 -0.6580
 6051SOL    HW218519   1.442   2.302   3.084 -0.5231  1.3109  0.5368
 6052SOL     OW18520   6.105   1.917   0.263  0.3327 -0.7713  0.8343
 6052SOL    HW118521   6.101   1.966   0.180 -0.3759  1.3269  2.0203
 6052SOL    HW218522   6.090   1.826   0.238  0.2580 -0.2160 -1.3480
 6053SOL     OW18523   6.455   6.671   6.347 -0.5555  0.2568  0.1804
 6053SOL    HW118524   6.431   6.579   6.352 -0.7477  0.2237 -1.1493
 6053SOL    HW218525   6.550   6.670   6.332  0.0747  0.3633  3.3912
 6054SOL     OW18526   5.451   6.610   2.809 -0.3054 -0.0044  0.3176
 6054SOL    HW118527   5.462   6.704   2.797 -1.8568  0.1015 -0.6179
 6054SOL    HW218528   5.540   6.576   2.819  0.3680  1.4119 -0.5499
 6055SOL     OW18529   5.248   4.286   0.651  0.9135 -0.6312  0.1730
 6055SOL    HW118530   5.288   4.365   0.614  0.0986 -0.1021  0.3938
 6055SOL    HW218531   5.167   4.317   0.691  0.4322 -1.6331  0.0003
 6056SOL     OW18532   5.884   0.661   3.295 -0.4788 -0.2761  0.4483
 6056SOL    HW118533   5.892   0.755   3.308  0.4342  0.0430 -1.8735
 6056SOL    HW218534   5.840   0.652   3.211 -1.4964 -1.9610  1.1096
 6057SOL     OW18535   0.927   3.258   4.091  0.1356  0.2388  0.5152
 6057SOL    HW118536   0.883   3.330   4.137  0.0429 -0.5729  1.7520
 6057SOL    HW218537   0.859   3.217   4.038 -0.2781 -0.1155  1.3044
 6058SOL     OW18538   5.791   2.842   4.661  0.1617 -0.1263  0.0855
 6058SOL    HW118539   5.847   2.838   4.583  1.0006 -0.8864  0.7023
 6058SOL    HW218540   5.826   2.775   4.719 -0.5414  0.3298  1.0671
 6059SOL     OW18541   4.584   5.898   4.105 -0.1822  0.0956  0.2843
 6059SOL    HW118542   4.508   5.944   4.140 -0.4469 -1.1289  1.3574
 6059SOL    HW218543   4.547   5.821   4.061  0.4275 -0.5908  0.9491
 6060SOL     OW18544   4.592   5.238   2.463  0.4524  0.3778  0.1988
 6060SOL    HW118545   4.548   5.167   2.510 -0.7303  0.9572 -0.0005
 6060SOL    HW218546   4.682   5.236   2.496  0.6525 -1.6735 -0.3341
 6061SOL     OW18547   6.335   6.680   5.110  0.1419 -0.0432 -0.5087
 6061SOL    HW118548   6.247   6.719   5.115 -0.2363 -0.8312 -0.9162
 6061SOL    HW218549   6.359   6.664   5.201  0.4458  1.4235 -0.2967
 6062SOL     OW18550   0.166   5.895   2.023 -0.0818 -0.2916 -0.7066
 6062SOL    HW118551   0.237   5.956   2.044  0.7133 -1.2461 -0.5491
 6062SOL    HW218552   0.202   5.840   1.953 -0.2733 -1.4774  0.1123
 6063SOL     OW18553   4.460   3.644   2.366 -0.1495 -0.1269 -0.2046
 6063SOL    HW118554   4.507   3.706   2.422  2.5133 -0.7862 -1.5623
 6063SOL    HW218555   4.486   3.668   2.277 -1.2960 -1.4494 -0.9267
 6064SOL     OW18556   5.562   6.206   4.178  0.1379  0.2096 -0.0030
 6064SOL    HW118557   5.520   6.189   4.262  1.1444 -0.6903  0.3410
 6064SOL    HW218558   5.539   6.296   4.157 -2.5539 -0.4424 -0.1969
 6065SOL     OW18559   5.146   0.626   0.254  0.5056 -0.3597 -0.4970
 6065SOL    HW118560   5.202   0.594   0.184  0.9091 -0.1266 -0.2834
 6065SOL    HW218561   5.148   0.721   0.245  1.3571 -0.2752  0.4326
 6066SOL     OW18562   2.968   5.520   4.741 -1.2104  0.2229  0.5664
 6066SOL    HW118563   2.896   5.475   4.697 -0.9224 -1.0988  1.3889
 6066SOL    HW218564   3.047   5.478   4.707 -0.8413  1.4217 -0.0697
 6067SOL     OW18565   3.016   1.470   4.033  0.6573 -0.2122 -0.0717
 6067SOL    HW118566   2.990   1.545   3.979 -0.4037  0.0470  0.7809
 6067SOL    HW218567   3.104   1.493   4.063  0.1008  1.0109  0.7166
 6068SOL     OW18568   3.245   0.857   5.856  0.0759  0.3110 -0.1136
 6068SOL    HW118569   3.191   0.899   5.789  0.8574 -0.3436 -1.1722
 6068SOL    HW218570   3.252   0.766   5.828  0.5934  0.0735  0.7498
 6069SOL     OW18571   0.756   4.325   6.789  0.4058 -0.4090  0.4151
 6069SOL    HW118572   0.676   4.318   6.841  0.9144  2.7609  1.8647
 6069SOL    HW218573   0.728   4.361   6.705  0.2252 -0.0378  0.6342
 6070SOL     OW18574   3.568   5.231   2.096  0.2088 -0.4363 -0.5090
 6070SOL    HW118575   3.557   5.248   2.189 -1.0779 -2.6278 -0.1680
 6070SOL    HW218576   3.656   5.194   2.088  0.1536 -0.6643 -0.0756
 6071SOL     OW18577   5.131   3.409   0.815 -0.4248  0.2823  0.3397
 6071SOL    HW118578   5.158   3.393   0.906  0.6350  2.1650  0.4144
 6071SOL    HW218579   5.046   3.453   0.823  0.1414  1.3717  0.4878
 6072SOL     OW18580   3.443   4.953   5.514  0.4741 -0.0291 -0.3615
 6072SOL    HW118581   3.516   5.011   5.538 -0.4131  1.4673 -1.1454
 6072SOL    HW218582   3.424   4.904   5.595  0.5539  1.5497  0.6618
 6073SOL     OW18583   1.747   1.561   5.769  0.2531 -0.5789 -0.1520
 6073SOL    HW118584   1.669   1.615   5.784  1.8793  2.0717 -0.6120
 6073SOL    HW218585   1.714   1.471   5.770 -2.7482  0.4028 -0.0682
 6074SOL     OW18586   0.791   4.272   6.357  0.1071 -0.2390  0.5110
 6074SOL    HW118587   0.725   4.305   6.297  0.5168  1.6183  1.0381
 6074SOL    HW218588   0.865   4.331   6.348  1.4402 -1.8306  0.5004
 6075SOL     OW18589   2.221   1.504   5.550 -0.2623  0.7871 -0.5924
 6075SOL    HW118590   2.217   1.595   5.520  0.6162  1.3243  0.8208
 6075SOL    HW218591   2.135   1.486   5.588 -0.0666  1.4159  0.1612
 6076SOL     OW18592   0.646   5.311   4.048 -0.3113 -0.0805 -0.4794
 6076SOL    HW118593   0.642   5.283   3.957 -0.9078  0.5415 -0.6587
 6076SOL    HW218594   0.737   5.297   4.074 -0.3476 -1.1398 -0.8751
 6077SOL     OW18595   3.928   6.317   4.055 -0.1873  0.3329  0.1039
 6077SOL    HW118596   3.887   6.390   4.102 -0.7321  0.6060 -0.7682
 6077SOL    HW218597   3.866   6.245   4.064 -0.1129  0.2735  0.1333
 6078SOL     OW18598   3.615   6.532   4.002 -0.2159 -0.1649  0.7620
 6078SOL    HW118599   3.628   6.438   4.010 -0.6405 -0.2157  0.8873
 6078SOL    HW218600   3.549   6.541   3.933 -0.8040 -0.0002  1.3418
 6079SOL     OW18601   2.832   3.466   5.108 -0.2471 -0.1984 -0.4754
 6079SOL    HW118602   2.743   3.432   5.099 -1.4277  2.5985 -0.5097
 6079SOL    HW218603   2.832   3.508   5.194 -0.1012  2.6737 -1.7699
 6080SOL     OW18604   0.450   5.337   0.520 -0.1111 -0.0579 -0.3963
 6080SOL    HW118605   0.508   5.410   0.544 -0.2370 -0.2402  0.5238
 6080SOL    HW218606   0.366   5.379   0.500  0.1245  0.1425 -0.9587
 6081SOL     OW18607   5.638   2.752   0.126  0.8097 -0.3843 -0.0219
 6081SOL    HW118608   5.588   2.752   0.208  0.0610 -1.7660 -0.4480
 6081SOL    HW218609   5.678   2.839   0.123 -2.3884  1.2302 -0.1456
 6082SOL     OW18610   6.766   4.215   2.038  0.2075 -0.1637 -0.4160
 6082SOL    HW118611   6.693   4.244   2.093  1.0412  0.9745  0.1056
 6082SOL    HW218612   6.824   4.167   2.097  0.6636  0.2851 -0.4969
 6083SOL     OW18613   5.303   6.208   1.933 -0.0184  0.2894 -0.6771
 6083SOL    HW118614   5.267   6.186   2.019  0.4350  0.1615 -0.5182
 6083SOL    HW218615   5.296   6.304   1.928 -2.9454  0.1167 -1.7864
 6084SOL     OW18616   5.932   4.605   2.258  0.7097  0.1693  0.1424
 6084SOL    HW118617   5.862   4.546   2.230  0.2687  0.2222  1.0799
 6084SOL    HW218618   6.008   4.579   2.206 -0.2239  0.7488 -1.5994
 6085SOL     OW18619   2.075   2.178   4.088 -0.1889 -0.6593 -0.2379
 6085SOL    HW118620   2.016   2.174   4.163  0.3170 -0.9928  0.1529
 6085SOL    HW218621   2.067   2.267   4.055  0.2574 -0.2222  0.7754
 6086SOL     OW18622   1.358   4.044   3.329  0.3371  0.0366  0.1858
 6086SOL    HW118623   1.335   4.073   3.241  2.8748  1.7532  0.0020
 6086SOL    HW218624   1.453   4.036   3.328  0.4310  0.0363  2.7598
 6087SOL     OW18625   5.799   5.138   4.043 -0.1477 -0.0490 -0.1815
 6087SOL    HW118626   5.726   5.087   4.008 -0.3648 -0.3100  0.6315
 6087SOL    HW218627   5.864   5.138   3.973 -1.1683  0.7184 -1.1636
 6088SOL     OW18628   5.215   5.092   2.197 -0.2078 -0.0906 -0.1118
 6088SOL    HW118629   5.220   5.098   2.292  0.9434  0.6026 -0.1945
 6088SOL    HW218630   5.178   5.006   2.180 -2.9404  0.7794  0.9887
 6089SOL     OW18631   4.374   3.076   5.912  0.2993 -0.2224  0.2275
 6089SOL    HW118632   4.312   3.090   5.983 -1.0093 -1.6389 -0.5796
 6089SOL    HW218633   4.333   3.118   5.836  0.1823 -1.3499 -0.3610
 6090SOL     OW18634   1.790   6.101   4.253 -0.1942  0.0604  0.6390
 6090SOL    HW118635   1.807   6.019   4.206 -1.4063  0.0221  0.2228
 6090SOL    HW218636   1.750   6.073   4.336  0.6091  0.1861  1.0738
 6091SOL     OW18637   2.674   3.462   6.353  0.4521  0.7372  0.3384
 6091SOL    HW118638   2.611   3.528   6.382  0.8709  1.2268  0.1602
 6091SOL    HW218639   2.754   3.482   6.402  1.4746  2.1746 -1.7538
 6092SOL     OW18640   3.348   0.119   0.304  0.5346 -0.6730 -0.1586
 6092SOL    HW118641   3.408   0.138   0.232  1.2990  1.8217  1.0360
 6092SOL    HW218642   3.404   0.115   0.382 -0.5300 -1.1042  0.6136
 6093SOL     OW18643   3.871   1.869   1.120 -0.0436  0.2578 -0.3019
 6093SOL    HW118644   3.896   1.777   1.119 -0.7984 -0.0367 -3.4458
 6093SOL    HW218645   3.775   1.868   1.114 -0.0042  1.1864 -1.5516
 6094SOL     OW18646   6.266   3.855   0.581  0.0853  0.3004 -0.4852
 6094SOL    HW118647   6.178   3.825   0.602  0.1234  0.3413 -0.2657
 6094SOL    HW218648   6.258   3.951   0.576  0.0068  0.2704 -0.9829
 6095SOL     OW18649   0.397   3.973   2.422  0.7223  0.5178 -0.4249
 6095SOL    HW118650   0.479   3.965   2.470  0.9581 -0.0446 -0.9084
 6095SOL    HW218651   0.422   3.964   2.330  0.0028 -0.5833 -0.5299
 6096SOL     OW18652   1.355   1.354   0.007 -0.2407 -0.0608  0.1510
 6096SOL    HW118653   1.332   1.314  -0.077 -0.4220 -0.3038  0.3151
 6096SOL    HW218654   1.275   1.400   0.034  0.1549  0.9402 -0.3348
 6097SOL     OW18655   0.971   0.912   5.119 -0.0796 -0.1292  0.0810
 6097SOL    HW118656   1.033   0.842   5.138  0.3003  0.1633 -0.0639
 6097SOL    HW218657   0.910   0.874   5.056  0.6078 -0.0886 -0.6277
 6098SOL     OW18658   3.677   4.530   3.561  0.3160 -0.2368  0.3350
 6098SOL    HW118659   3.650   4.451   3.515 -0.6875  0.9451 -1.2154
 6098SOL    HW218660   3.731   4.577   3.498  1.3293  0.1090  1.4192
 6099SOL     OW18661   2.138   1.178   5.349 -0.4153 -0.0524  0.0320
 6099SOL    HW118662   2.131   1.096   5.299  2.6598 -0.8366  0.7224
 6099SOL    HW218663   2.169   1.151   5.435  0.7861  1.8456  0.2436
 6100SOL     OW18664   2.810   6.760   5.971  0.0054  0.3023  0.2563
 6100SOL    HW118665   2.780   6.750   6.061  0.8628  1.0202  0.6374
 6100SOL    HW218666   2.899   6.795   5.979 -0.2477  1.2697 -0.8793
 6101SOL     OW18667   5.060   3.936   6.492  0.2125  0.1218  0.4055
 6101SOL    HW118668   5.116   3.985   6.431  0.5455  1.1357  1.4680
 6101SOL    HW218669   4.989   3.902   6.438  0.2839  1.3130 -0.4973
 6102SOL     OW18670   0.691   3.026   4.303 -0.1196  0.1991 -0.4096
 6102SOL    HW118671   0.759   2.959   4.306 -1.7952 -1.6289 -0.7613
 6102SOL    HW218672   0.729   3.102   4.347  2.5181 -0.3307 -1.6052
 6103SOL     OW18673   3.193   4.809   6.562  0.1134 -0.3037 -0.9311
 6103SOL    HW118674   3.204   4.789   6.469 -1.7402  0.5704 -1.3891
 6103SOL    HW218675   3.170   4.902   6.564  1.6617  0.1033  0.5594
 6104SOL     OW18676   2.815   6.157   3.612  0.2372  0.1583  0.3427
 6104SOL    HW118677   2.835   6.067   3.588  0.6581  0.5931 -0.9858
 6104SOL    HW218678   2.826   6.159   3.707 -1.2660 -1.5561  0.6044
 6105SOL     OW18679   0.488   3.047   1.799 -0.1243  0.3885  0.0438
 6105SOL    HW118680   0.507   2.954   1.790 -1.9175 -0.1112  0.9820
 6105SOL    HW218681   0.416   3.051   1.861 -0.0934  2.4176  0.0204
 6106SOL     OW18682   4.078   5.418   4.115  0.7485 -0.3410 -0.1698
 6106SOL    HW118683   4.132   5.358   4.166  0.9388  0.1801  0.2548
 6106SOL    HW218684   4.101   5.399   4.024  1.8482  0.0320  0.0033
 6107SOL     OW18685   0.039   5.527   3.727  0.4373  0.0642  0.4959
 6107SOL    HW118686  -0.008   5.451   3.692  0.7415 -0.1289  0.5042
 6107SOL    HW218687   0.045   5.510   3.821 -2.6041  1.7585  1.1343
 6108SOL     OW18688   0.721   0.394   1.489 -0.3617 -0.5145 -0.0351
 6108SOL    HW118689   0.636   0.351   1.492 -1.4710  1.1677 -3.0863
 6108SOL    HW218690   0.755   0.373   1.402  1.2272  0.8500  0.2178
 6109SOL     OW18691   4.312   1.134   1.036 -0.5497  0.1431  0.3518
 6109SOL    HW118692   4.311   1.040   1.051 -0.4564  0.2923  1.3963
 6109SOL    HW218693   4.257   1.147   0.959 -1.3248 -0.6829  0.7483
 6110SOL     OW18694   1.348   0.320   5.281 -0.3053 -0.0098  0.6838
 6110SOL    HW118695   1.378   0.384   5.216 -1.5880  0.9759  1.0205
 6110SOL    HW218696   1.377   0.356   5.365 -2.9981  1.3953  1.1010
 6111SOL     OW18697   0.909   6.286   5.073  0.2473 -0.3973  0.8052
 6111SOL    HW118698   0.895   6.358   5.011  1.3354 -1.2599 -0.5094
 6111SOL    HW218699   0.992   6.247   5.046 -1.2755 -3.4641  0.1123
 6112SOL     OW18700   6.425   5.236   1.031 -0.3931  0.2081  0.1887
 6112SOL    HW118701   6.476   5.316   1.047  1.8572 -1.3699  1.5404
 6112SOL    HW218702   6.446   5.212   0.941  1.1721 -0.2748  0.6388
 6113SOL     OW18703   3.407   0.773   0.390  0.5034  0.1446 -0.1753
 6113SOL    HW118704   3.337   0.775   0.325  0.0166  1.2993  0.3617
 6113SOL    HW218705   3.440   0.683   0.388  0.1582  0.0348 -1.6470
 6114SOL     OW18706   3.915   5.014   4.618  0.3972  0.5423 -0.0247
 6114SOL    HW118707   3.940   5.016   4.710 -1.4091  0.7770  0.4862
 6114SOL    HW218708   3.886   5.103   4.599 -0.1169  0.2676 -0.5593
 6115SOL     OW18709   1.109   2.131   6.380  0.0000 -0.0737  0.1249
 6115SOL    HW118710   1.037   2.153   6.440  0.7364  1.0185  0.6599
 6115SOL    HW218711   1.157   2.062   6.425 -0.2072 -0.1885  0.1729
 6116SOL     OW18712   3.426   0.116   1.138 -0.1237  0.0904 -0.4884
 6116SOL    HW118713   3.460   0.184   1.196 -1.1988  0.7195 -0.5696
 6116SOL    HW218714   3.466   0.134   1.053 -0.5100  0.7044 -0.5404
 6117SOL     OW18715   6.523   6.219   2.413 -0.1635  0.1384  0.1724
 6117SOL    HW118716   6.544   6.220   2.320 -0.8659 -0.3384 -0.0037
 6117SOL    HW218717   6.537   6.310   2.442 -0.8377  0.5077 -0.6138
 6118SOL     OW18718   1.065   2.012   5.400 -0.1949 -0.5353 -0.1710
 6118SOL    HW118719   1.119   1.972   5.469 -1.2521  1.2869  1.8328
 6118SOL    HW218720   1.127   2.058   5.344  0.4995 -0.0002  1.0203
 6119SOL     OW18721   1.214   5.722   6.612 -0.0816 -0.1838  0.4445
 6119SOL    HW118722   1.193   5.801   6.662 -2.1059 -1.1538  1.2347
 6119SOL    HW218723   1.273   5.672   6.669  1.1863  0.6854 -0.0484
 6120SOL     OW18724   1.921   3.643   3.057 -0.0582  0.8192  0.2208
 6120SOL    HW118725   1.947   3.655   2.966 -3.3579 -1.7658 -1.2924
 6120SOL    HW218726   1.991   3.592   3.097  0.3779 -0.0805 -1.6160
 6121SOL     OW18727   1.720   3.898   5.735 -0.2500  0.3735  0.4267
 6121SOL    HW118728   1.760   3.984   5.730  1.5802 -0.3727  1.1941
 6121SOL    HW218729   1.641   3.905   5.683  2.1361  1.2325 -3.4772
 6122SOL     OW18730   1.348   2.698   3.068 -0.1464  0.0914 -0.0753
 6122SOL    HW118731   1.404   2.768   3.034 -2.1740  2.0642  0.3581
 6122SOL    HW218732   1.347   2.632   2.999 -0.0531  1.6053 -1.5945
 6123SOL     OW18733   4.533   4.741   0.312 -0.2255  0.1415  0.3585
 6123SOL    HW118734   4.606   4.754   0.251 -1.3921  1.5883 -0.7947
 6123SOL    HW218735   4.473   4.682   0.267 -1.3895  1.7004 -0.2457
 6124SOL     OW18736   6.404   4.214   0.847  0.2725  0.1603 -0.3222
 6124SOL    HW118737   6.448   4.151   0.790  1.3414  0.2465  0.3754
 6124SOL    HW218738   6.381   4.163   0.925  0.9356  0.5735  0.1491
 6125SOL     OW18739   5.788   4.307   5.431  0.2601 -0.2285 -0.1484
 6125SOL    HW118740   5.766   4.390   5.473 -1.1335 -0.1315 -0.9901
 6125SOL    HW218741   5.714   4.250   5.449  1.2518 -1.3620  0.5171
 6126SOL     OW18742   4.190   0.759   5.339  0.3637 -0.1972 -0.0534
 6126SOL    HW118743   4.190   0.833   5.278  0.3268  0.3010  0.5386
 6126SOL    HW218744   4.147   0.794   5.417  1.2327 -0.5516  0.5819
 6127SOL     OW18745   3.338   6.241   3.154 -0.2251  0.3749 -0.5300
 6127SOL    HW118746   3.363   6.284   3.235 -0.5843  2.1042 -1.3073
 6127SOL    HW218747   3.312   6.153   3.181 -0.8740  1.0890  1.3070
 6128SOL     OW18748   5.385   3.482   0.021 -0.3433  0.0692 -0.3121
 6128SOL    HW118749   5.318   3.477   0.089 -1.9248 -0.8982 -1.8509
 6128SOL    HW218750   5.341   3.453  -0.058  1.7718 -0.0691 -1.5214
 6129SOL     OW18751   5.978   5.053   1.847  0.0062  0.1901 -0.0264
 6129SOL    HW118752   6.024   5.083   1.926  0.2927  0.3859 -0.2642
 6129SOL    HW218753   5.999   4.960   1.841 -1.7364 -0.3461  1.3009
 6130SOL     OW18754   1.863   6.641   2.704  0.6309 -0.0682 -0.5771
 6130SOL    HW118755   1.905   6.625   2.789 -0.7306  2.8027  0.8166
 6130SOL    HW218756   1.932   6.681   2.650  0.9071  0.3189  0.0476
 6131SOL     OW18757   3.125   2.718   0.957 -0.8362 -0.5980 -0.0188
 6131SOL    HW118758   3.197   2.664   0.926 -0.2098  0.2495 -0.0515
 6131SOL    HW218759   3.108   2.780   0.886 -1.2361 -0.4459  0.2050
 6132SOL     OW18760   0.553   0.600   2.651 -0.8022  0.1562 -0.4769
 6132SOL    HW118761   0.535   0.623   2.742  0.0022 -0.9614 -0.0095
 6132SOL    HW218762   0.591   0.512   2.656  1.2165  0.8939 -1.6965
 6133SOL     OW18763   1.167   1.073   0.045  0.0818 -0.1582  0.1619
 6133SOL    HW118764   1.183   1.007   0.112 -0.7703 -1.1416 -0.5831
 6133SOL    HW218765   1.212   1.040  -0.033 -1.6630 -0.6814 -0.6647
 6134SOL     OW18766   4.423   1.047   4.755  0.3284 -0.0410 -0.3847
 6134SOL    HW118767   4.347   0.989   4.746 -1.0776  1.5099  0.8337
 6134SOL    HW218768   4.390   1.133   4.730  1.3671  0.8630  1.2016
 6135SOL     OW18769   5.523   0.534   0.274  0.2101  0.1666  0.5158
 6135SOL    HW118770   5.502   0.602   0.210  0.0764 -0.7894 -0.4912
 6135SOL    HW218771   5.618   0.539   0.286  0.2967  0.0603 -0.1082
 6136SOL     OW18772   1.156   4.518   1.965 -0.0979  0.2302 -0.0847
 6136SOL    HW118773   1.168   4.425   1.987 -0.4456  0.3638  0.6964
 6136SOL    HW218774   1.242   4.557   1.978 -0.3460  0.3523  1.3216
 6137SOL     OW18775   0.256   0.475   6.605  0.1989  0.5267 -0.5041
 6137SOL    HW118776   0.189   0.481   6.673  0.0461  0.4228 -0.6456
 6137SOL    HW218777   0.216   0.421   6.537 -0.0870  1.5965 -1.2049
 6138SOL     OW18778   1.191   5.128   5.200 -0.6710  0.0696 -0.6532
 6138SOL    HW118779   1.176   5.222   5.188  0.8937  0.5358  0.6783
 6138SOL    HW218780   1.222   5.098   5.115  0.6258  1.1778 -0.6036
 6139SOL     OW18781   4.420   6.783   5.945  0.1423  0.1665 -0.1860
 6139SOL    HW118782   4.483   6.831   5.891  1.7755 -1.2332  0.3817
 6139SOL    HW218783   4.352   6.847   5.966  1.3104  1.7105 -0.9380
 6140SOL     OW18784   3.510   5.712   0.606  0.3537  0.2582  1.0146
 6140SOL    HW118785   3.591   5.736   0.650  1.5093  1.9508 -1.7737
 6140SOL    HW218786   3.533   5.636   0.552  0.5247  1.5406 -0.7912
 6141SOL     OW18787   5.289   3.633   6.493 -0.0541  0.4413 -0.6530
 6141SOL    HW118788   5.203   3.658   6.458 -0.3869  1.2717  0.6654
 6141SOL    HW218789   5.280   3.541   6.516 -0.8239  0.6806  0.0699
 6142SOL     OW18790   4.074   1.032   4.782 -0.2378 -0.0382  0.0932
 6142SOL    HW118791   3.994   0.983   4.802 -0.4463 -0.7003 -2.1150
 6142SOL    HW218792   4.143   0.966   4.780 -0.4591 -0.3207 -2.5273
 6143SOL     OW18793   6.054   1.822   5.761  0.5334 -0.3705 -0.8369
 6143SOL    HW118794   6.065   1.728   5.773  1.0357 -0.1703  0.4158
 6143SOL    HW218795   6.124   1.861   5.813 -1.2441  0.7594  0.8249
 6144SOL     OW18796   0.618   3.771   1.690  0.5512 -0.2609  0.5932
 6144SOL    HW118797   0.594   3.862   1.707  0.3111 -0.3542  0.7646
 6144SOL    HW218798   0.668   3.745   1.768  2.0856  0.2352 -0.1972
 6145SOL     OW18799   3.340   0.416   4.202  0.1112 -0.0320 -0.2179
 6145SOL    HW118800   3.325   0.323   4.218  0.9741 -0.0082  0.8333
 6145SOL    HW218801   3.285   0.461   4.266 -1.6413  0.2617 -1.8385
 6146SOL     OW18802   2.281   0.096   5.891 -0.3336  0.3520 -0.0178
 6146SOL    HW118803   2.189   0.116   5.874 -0.5363 -0.3948  0.1580
 6146SOL    HW218804   2.279   0.018   5.947  0.3866  0.8908  0.7905
 6147SOL     OW18805   6.780   5.126   6.617  0.5581 -0.0621  0.0488
 6147SOL    HW118806   6.875   5.121   6.626  0.5406  1.6180  1.5486
 6147SOL    HW218807   6.760   5.064   6.546  2.8337  0.1679 -0.8828
 6148SOL     OW18808   5.920   4.705   4.242  0.2031  0.6810  0.1655
 6148SOL    HW118809   5.873   4.650   4.304 -1.1102  0.8741 -0.6243
 6148SOL    HW218810   5.897   4.670   4.156  0.4790  1.5782 -0.2925
 6149SOL     OW18811   5.022   3.034   3.171  0.1816 -0.3325  0.2363
 6149SOL    HW118812   4.932   3.059   3.188  0.2032  0.0345 -0.1816
 6149SOL    HW218813   5.028   2.944   3.205 -0.0229  0.0342  1.2875
 6150SOL     OW18814   4.057   5.613   4.487  0.2377 -0.3140 -0.0890
 6150SOL    HW118815   4.051   5.522   4.514  2.1297 -0.5315 -0.2804
 6150SOL    HW218816   4.060   5.663   4.568 -2.3656 -0.2133  0.0485
 6151SOL     OW18817   0.058   3.636   0.537 -0.2207 -0.3274 -0.1316
 6151SOL    HW118818   0.012   3.641   0.621 -1.0194 -0.9141 -0.5227
 6151SOL    HW218819  -0.010   3.618   0.473  0.3426  0.3869 -0.9550
 6152SOL     OW18820   0.820   3.782   4.094  0.0505  0.3676 -0.5631
 6152SOL    HW118821   0.765   3.799   4.170  0.5436 -0.1846 -0.0662
 6152SOL    HW218822   0.759   3.757   4.025 -0.2557 -1.8973  0.4424
 6153SOL     OW18823   3.589   3.670   4.595  0.5162  0.2212 -0.2819
 6153SOL    HW118824   3.672   3.695   4.554  1.7208 -2.0869  0.5784
 6153SOL    HW218825   3.582   3.576   4.581 -0.0242 -0.3290  2.9340
 6154SOL     OW18826   2.159   5.721   2.794  0.3864 -0.0008 -0.4297
 6154SOL    HW118827   2.189   5.665   2.722  0.2445  0.5516 -0.9275
 6154SOL    HW218828   2.063   5.715   2.790  0.3938 -0.7664  0.3591
 6155SOL     OW18829   6.567   0.685   3.081  0.4431  0.2690 -0.3223
 6155SOL    HW118830   6.574   0.612   3.020  0.5313  0.6719 -0.8049
 6155SOL    HW218831   6.541   0.645   3.164 -1.0074 -0.1562 -0.9464
 6156SOL     OW18832   5.662   3.618   6.276  0.3078 -0.3773 -0.1623
 6156SOL    HW118833   5.594   3.554   6.255  0.1085 -0.8401  1.7506
 6156SOL    HW218834   5.690   3.595   6.364  1.9086  0.7373 -0.3465
 6157SOL     OW18835   5.264   0.374   2.204  0.4253  0.1930  0.2713
 6157SOL    HW118836   5.208   0.452   2.207 -0.2068 -0.2381 -0.0989
 6157SOL    HW218837   5.217   0.313   2.147  0.6928 -0.6279  0.9145
 6158SOL     OW18838   5.643   1.881   0.996 -0.3300 -0.3311  0.0579
 6158SOL    HW118839   5.613   1.943   0.930 -0.4740 -0.7972 -0.3155
 6158SOL    HW218840   5.565   1.834   1.024 -0.1079 -0.8596 -0.1981
 6159SOL     OW18841   2.506   3.231   3.667 -0.1897  0.4106  0.0746
 6159SOL    HW118842   2.572   3.167   3.695 -0.3360 -0.5455 -1.6759
 6159SOL    HW218843   2.436   3.223   3.733 -0.5475 -1.7995 -0.4914
 6160SOL     OW18844   5.614   3.179   1.521  0.0952 -0.0882  0.8223
 6160SOL    HW118845   5.531   3.173   1.473  0.2388  0.7873  0.4404
 6160SOL    HW218846   5.599   3.128   1.601 -0.3304 -1.0905  0.1162
 6161SOL     OW18847   1.489   0.825   0.124  0.5594 -0.8874  0.2384
 6161SOL    HW118848   1.419   0.774   0.083  2.0242 -1.2343 -2.0283
 6161SOL    HW218849   1.561   0.821   0.061  1.6017  1.9656  1.0901
 6162SOL     OW18850   4.454   3.613   1.203  0.5223 -0.4783 -0.1272
 6162SOL    HW118851   4.486   3.703   1.204 -1.0185  0.1143 -0.2944
 6162SOL    HW218852   4.515   3.566   1.146  0.2710  0.9148 -1.6086
 6163SOL     OW18853   5.138   5.125   2.458  0.2342  0.3902  0.4313
 6163SOL    HW118854   5.149   5.217   2.485 -3.9611  0.8008  1.4099
 6163SOL    HW218855   5.142   5.076   2.540 -2.6493  0.4645  0.7370
 6164SOL     OW18856   3.894   3.799   2.209 -0.0696  0.3902  0.0391
 6164SOL    HW118857   3.831   3.750   2.156  1.2579 -0.1035 -1.1633
 6164SOL    HW218858   3.935   3.733   2.264 -0.8696  0.7793  1.1456
 6165SOL     OW18859   1.474   6.374   0.648 -0.4452  0.0303 -0.3378
 6165SOL    HW118860   1.443   6.333   0.728  1.4195 -2.1390 -0.6332
 6165SOL    HW218861   1.446   6.316   0.578 -0.5639  0.9888 -1.1058
 6166SOL     OW18862   1.113   4.392   0.931  0.0584  1.1592  1.0045
 6166SOL    HW118863   1.198   4.413   0.892  0.8780  0.7524  2.5269
 6166SOL    HW218864   1.049   4.419   0.864  1.4168 -0.4042 -1.0348
 6167SOL     OW18865   1.461   6.652   2.578 -0.1847 -0.4718 -0.4411
 6167SOL    HW118866   1.478   6.730   2.631 -0.4294 -0.6640 -0.0797
 6167SOL    HW218867   1.519   6.661   2.503 -0.0706 -0.0369 -0.3012
 6168SOL     OW18868   2.058   0.938   3.882  0.4829  0.0306  0.1676
 6168SOL    HW118869   1.995   0.951   3.953  1.3518  0.1657  0.9379
 6168SOL    HW218870   2.024   0.991   3.810 -1.9251 -2.2447 -0.5525
 6169SOL     OW18871   2.663   2.491   2.244 -0.1801 -0.1969  0.0044
 6169SOL    HW118872   2.571   2.519   2.251  0.0622  0.6095 -0.0157
 6169SOL    HW218873   2.661   2.398   2.269 -1.0278 -0.2325 -0.1715
 6170SOL     OW18874   0.502   2.730   4.381 -0.2924 -0.5146 -0.3616
 6170SOL    HW118875   0.584   2.687   4.358 -1.2268 -2.5889 -0.0181
 6170SOL    HW218876   0.434   2.666   4.360 -1.6854  0.3277  1.3004
 6171SOL     OW18877   0.081   3.954   5.139 -0.2433  0.0203  0.3576
 6171SOL    HW118878   0.122   3.946   5.053  1.4627  3.4374  0.6533
 6171SOL    HW218879   0.002   4.004   5.123  0.3820  1.1897  0.7661
 6172SOL     OW18880   2.926   3.848   2.704 -0.0271 -0.2881  0.2545
 6172SOL    HW118881   2.852   3.828   2.760 -0.0946  1.8492  0.9867
 6172SOL    HW218882   3.000   3.857   2.764  0.2094  0.4902 -0.1378
 6173SOL     OW18883   5.977   0.794   6.036  0.3260 -0.3269 -0.4514
 6173SOL    HW118884   5.943   0.882   6.053 -0.4080 -0.8301  0.8747
 6173SOL    HW218885   6.003   0.762   6.123 -0.6081 -1.8904 -0.7139
 6174SOL     OW18886   4.149   1.916   2.617  0.0761  0.8485 -0.0845
 6174SOL    HW118887   4.113   1.932   2.704 -1.7691 -0.8584 -0.4663
 6174SOL    HW218888   4.215   1.849   2.629 -0.7164  0.0526 -0.0616
 6175SOL     OW18889   1.679   6.539   3.876 -0.2701 -0.0367  0.2620
 6175SOL    HW118890   1.610   6.603   3.856  0.0767  0.4332  0.5446
 6175SOL    HW218891   1.638   6.481   3.941 -0.8186 -0.5343 -0.5122
 6176SOL     OW18892   2.487   2.624   5.855 -0.0333 -0.0206 -0.3511
 6176SOL    HW118893   2.524   2.711   5.840  1.4524 -0.7581 -1.2649
 6176SOL    HW218894   2.552   2.579   5.909 -0.4303 -0.7978 -0.5059
 6177SOL     OW18895   3.954   3.380   5.651  0.2178 -0.6281  0.0810
 6177SOL    HW118896   3.983   3.408   5.738 -2.0828  0.5963  0.5446
 6177SOL    HW218897   3.874   3.329   5.668 -1.7708  1.7814 -1.3581
 6178SOL     OW18898   6.094   6.117   2.076 -0.6771 -0.0744 -0.2504
 6178SOL    HW118899   6.020   6.122   2.136  1.0357  1.1383  1.8734
 6178SOL    HW218900   6.165   6.079   2.128  0.4508 -0.4833 -1.9966
 6179SOL     OW18901   5.929   1.066   4.069  0.6439  0.3364 -0.1536
 6179SOL    HW118902   5.873   1.134   4.032  1.3848  0.6724 -0.6966
 6179SOL    HW218903   5.869   0.996   4.094 -0.1972  1.4110  0.9543
 6180SOL     OW18904   3.103   3.089   2.215  0.1171  0.0622  0.3397
 6180SOL    HW118905   3.070   3.068   2.303  1.4080 -0.9360  0.6165
 6180SOL    HW218906   3.046   3.038   2.157 -1.9672  2.1654  0.3892
 6181SOL     OW18907   2.496   0.028   1.312  0.0501 -0.1014 -1.0652
 6181SOL    HW118908   2.435   0.076   1.256 -0.0567 -0.0212 -0.8827
 6181SOL    HW218909   2.458  -0.060   1.319 -0.6913  0.2795  0.0173
 6182SOL     OW18910   0.542   2.782   1.823 -0.1725 -0.4276 -0.0607
 6182SOL    HW118911   0.633   2.755   1.815  0.2569  0.2705  1.8517
 6182SOL    HW218912   0.492   2.702   1.811  0.7453 -0.9874 -0.2360
 6183SOL     OW18913   5.039   1.825   3.135  0.4740  0.3451 -0.2906
 6183SOL    HW118914   5.059   1.868   3.052 -1.5379  2.4531  0.1932
 6183SOL    HW218915   5.104   1.858   3.196  0.4839  0.7105 -0.4983
 6184SOL     OW18916   6.767   0.413   3.409  0.2390 -0.2559 -1.0226
 6184SOL    HW118917   6.832   0.345   3.394  0.8792  0.5672 -2.1524
 6184SOL    HW218918   6.815   0.496   3.400 -0.5215  0.3645  0.2999
 6185SOL     OW18919   3.785   5.111   3.077  0.2782  0.3683 -0.0693
 6185SOL    HW118920   3.738   5.027   3.086  0.2870  0.3936  0.2266
 6185SOL    HW218921   3.718   5.172   3.045  0.0785  0.4253  0.4362
 6186SOL     OW18922   3.257   5.909   2.503 -0.2337 -0.3898  0.0466
 6186SOL    HW118923   3.238   5.842   2.569 -1.6743 -0.3596 -0.2968
 6186SOL    HW218924   3.246   5.863   2.420  2.7748 -0.7622 -0.2539
 6187SOL     OW18925   1.042   1.099   0.888 -0.1335  0.1146 -0.6331
 6187SOL    HW118926   1.035   1.080   0.982 -1.0858  0.4159 -0.6373
 6187SOL    HW218927   1.065   1.192   0.884  0.0051  0.0777 -0.7005
 6188SOL     OW18928   0.319   6.644   0.612 -0.9056  0.0531  0.0093
 6188SOL    HW118929   0.383   6.587   0.654 -1.8228 -0.2609  1.0466
 6188SOL    HW218930   0.370   6.714   0.573  0.1017 -0.5057  0.2991
 6189SOL     OW18931   2.126   0.813   4.903 -0.4882 -0.4738  0.4856
 6189SOL    HW118932   2.087   0.874   4.840 -0.0719 -1.2103 -0.4928
 6189SOL    HW218933   2.220   0.820   4.889 -0.3133  0.2581  1.8823
 6190SOL     OW18934   4.424   2.557   1.875 -0.1085 -0.0758 -0.0436
 6190SOL    HW118935   4.444   2.622   1.807 -0.9643 -1.0313 -1.2638
 6190SOL    HW218936   4.408   2.476   1.826  2.2359 -1.5901  1.4849
 6191SOL     OW18937   0.254   1.308   4.949  0.3215 -0.1787 -0.2167
 6191SOL    HW118938   0.309   1.261   5.012 -0.3285 -0.2979  0.2772
 6191SOL    HW218939   0.252   1.398   4.981  0.7114 -0.0418 -0.5707
 6192SOL     OW18940   1.149   2.830   5.353 -0.1252  0.0914 -0.1139
 6192SOL    HW118941   1.205   2.810   5.278  1.4104 -0.4255  1.1252
 6192SOL    HW218942   1.106   2.747   5.374 -1.3901  0.4769 -1.0352
 6193SOL     OW18943   6.045   3.172   0.475  0.4180  0.2145  0.3735
 6193SOL    HW118944   6.056   3.079   0.492 -0.6061  0.0006 -0.0651
 6193SOL    HW218945   5.956   3.180   0.440  0.0999  1.4976  1.3866
 6194SOL     OW18946   0.328   0.520   4.659 -0.1856  0.0417  0.4127
 6194SOL    HW118947   0.279   0.545   4.737 -0.6313 -0.9284  0.4679
 6194SOL    HW218948   0.398   0.584   4.653  1.0799 -1.0073  2.7544
 6195SOL     OW18949   1.129   1.326   5.354 -0.3545 -0.1249 -0.0706
 6195SOL    HW118950   1.135   1.257   5.420  0.2281  0.2871  0.3266
 6195SOL    HW218951   1.037   1.327   5.328 -0.3960 -0.9525  0.0177
 6196SOL     OW18952   0.180   1.479   5.440  0.1378 -0.1882 -0.1115
 6196SOL    HW118953   0.130   1.461   5.360  0.8173  0.8968 -0.7958
 6196SOL    HW218954   0.205   1.571   5.433 -0.5834  0.2044  1.8055
 6197SOL     OW18955   0.117   1.627   2.014  0.2876 -0.4413 -0.0656
 6197SOL    HW118956   0.198   1.666   1.980  0.4037 -0.0850  0.6097
 6197SOL    HW218957   0.090   1.686   2.085 -0.6484 -0.4721 -0.3852
 6198SOL     OW18958   2.027   2.792   5.331 -0.3331  0.1363  0.0753
 6198SOL    HW118959   2.087   2.789   5.257 -0.8856 -2.7976 -0.3844
 6198SOL    HW218960   2.081   2.763   5.406 -0.5569 -0.0957  0.1488
 6199SOL     OW18961   3.370   0.144   3.609  0.1002 -0.2553  1.0114
 6199SOL    HW118962   3.312   0.218   3.587  0.6039  0.1867  1.1560
 6199SOL    HW218963   3.342   0.074   3.551 -0.1241  0.1727  0.5943
 6200SOL     OW18964   4.828   3.330   0.115 -0.3663  0.3450 -0.2202
 6200SOL    HW118965   4.814   3.417   0.153 -0.3305 -0.3414  1.4351
 6200SOL    HW218966   4.739   3.298   0.097 -0.3538  1.0381 -1.6451
 6201SOL     OW18967   2.464   2.816   5.320 -0.0213  0.2104  0.1350
 6201SOL    HW118968   2.405   2.880   5.362  0.5482  1.4366 -0.8498
 6201SOL    HW218969   2.552   2.845   5.345  0.3185  0.7790 -1.5582
 6202SOL     OW18970   6.246   5.892   5.134 -0.1979  0.1512 -0.0183
 6202SOL    HW118971   6.195   5.948   5.075 -0.1695  0.7481  0.5149
 6202SOL    HW218972   6.217   5.917   5.222  0.9479  0.4398  0.2919
 6203SOL     OW18973   2.031   4.972   3.350 -0.7490  0.5437  0.7521
 6203SOL    HW118974   1.985   4.999   3.430  2.4457  1.7205  2.3854
 6203SOL    HW218975   2.014   5.043   3.288 -0.2048  1.5693  1.7339
 6204SOL     OW18976   4.383   5.956   2.833 -0.5307 -0.2121  0.0271
 6204SOL    HW118977   4.290   5.958   2.854 -0.5559 -0.3740 -0.0649
 6204SOL    HW218978   4.408   6.048   2.822 -0.5751 -0.1396  0.5098
 6205SOL     OW18979   4.157   3.371   3.860 -0.1564  0.0237  0.1091
 6205SOL    HW118980   4.179   3.341   3.949  1.2887  0.9563  0.1038
 6205SOL    HW218981   4.090   3.438   3.872 -0.0889  0.0235  0.4879
 6206SOL     OW18982   0.096   2.309   0.055 -0.3513 -0.0219 -0.7649
 6206SOL    HW118983   0.008   2.322   0.091 -0.4342 -0.0617 -0.9561
 6206SOL    HW218984   0.115   2.390   0.007  0.2641  0.5724  0.4097
 6207SOL     OW18985   2.006   6.059   3.774 -0.3042  0.6714 -0.2215
 6207SOL    HW118986   1.937   5.998   3.798  0.4616 -0.7523 -1.4892
 6207SOL    HW218987   2.060   6.067   3.853 -0.2651 -0.5277 -0.1053
 6208SOL     OW18988   1.901   6.249   2.186  0.4686 -0.2825  0.3015
 6208SOL    HW118989   1.982   6.299   2.177  0.4619 -0.3101  0.0911
 6208SOL    HW218990   1.833   6.316   2.195  0.5416 -0.2588  0.7515
 6209SOL     OW18991   2.672   5.604   5.473  0.3465 -0.3331 -0.4923
 6209SOL    HW118992   2.702   5.675   5.530 -0.5428  1.6319 -2.3302
 6209SOL    HW218993   2.751   5.570   5.433  0.7710 -0.3229  0.3092
 6210SOL     OW18994   1.871   4.587   2.323  0.2484 -0.0012 -0.3462
 6210SOL    HW118995   1.849   4.494   2.315 -0.6457  0.2345 -0.7968
 6210SOL    HW218996   1.790   4.628   2.356  0.7510  0.5589  0.2148
 6211SOL     OW18997   0.740   0.738   0.028  0.0480  0.0284  0.0538
 6211SOL    HW118998   0.662   0.747   0.083 -1.2028 -2.3584 -1.2059
 6211SOL    HW218999   0.735   0.649  -0.006  2.3762  0.4405 -1.5522
 6212SOL     OW19000   5.741   2.276   0.717  0.1049  0.5290 -0.2837
 6212SOL    HW119001   5.790   2.358   0.723 -0.8235  1.1330 -0.6119
 6212SOL    HW219002   5.808   2.209   0.706  0.8093  1.5535 -3.0326
 6213SOL     OW19003   0.440   4.980   4.194  0.6215 -0.2510 -0.0101
 6213SOL    HW119004   0.381   4.974   4.269 -0.1623 -0.0665 -0.5986
 6213SOL    HW219005   0.508   5.042   4.222 -0.0467  0.3570  0.3085
 6214SOL     OW19006   5.942   2.063   5.605  0.8182  0.0424  0.0862
 6214SOL    HW119007   5.968   1.990   5.661  0.0386 -0.9412 -0.8009
 6214SOL    HW219008   5.985   2.139   5.644  2.0133 -0.9416  0.7726
 6215SOL     OW19009   4.610   2.184   0.437 -0.0043 -0.2748  0.5393
 6215SOL    HW119010   4.660   2.180   0.355 -1.1056  0.2831 -0.1823
 6215SOL    HW219011   4.634   2.104   0.484 -0.1580 -1.1512 -0.8208
 6216SOL     OW19012   4.867   2.100   4.363  0.2846 -0.3862  0.0133
 6216SOL    HW119013   4.870   2.151   4.282 -1.4265  1.2548  0.9193
 6216SOL    HW219014   4.830   2.159   4.428  1.6674 -1.6342  2.0617
 6217SOL     OW19015   4.413   5.617   6.133 -0.4895  0.2403 -0.3206
 6217SOL    HW119016   4.462   5.559   6.191 -0.6671 -1.2573 -1.6232
 6217SOL    HW219017   4.438   5.705   6.161 -0.7072 -0.3914  2.1442
 6218SOL     OW19018   5.581   0.167   0.688  0.2894 -0.4667  0.3870
 6218SOL    HW119019   5.633   0.184   0.767  0.3227 -0.2595  0.3195
 6218SOL    HW219020   5.583   0.249   0.640  0.9031 -0.8132 -0.2047
 6219SOL     OW19021   2.914   5.244   5.084  0.5267 -0.1278  0.0500
 6219SOL    HW119022   3.001   5.224   5.050  1.3780 -0.4030  2.2438
 6219SOL    HW219023   2.892   5.329   5.046  1.3318 -0.4715 -1.2587
 6220SOL     OW19024   4.374   4.297   2.743  0.4417 -0.0702 -0.3897
 6220SOL    HW119025   4.367   4.392   2.750 -1.5394 -0.0885 -1.4627
 6220SOL    HW219026   4.352   4.264   2.830 -2.2098  0.3847 -0.8163
 6221SOL     OW19027   4.866   0.495   0.068  0.2993  0.0887  0.3736
 6221SOL    HW119028   4.869   0.401   0.086  2.3619  0.0795  0.2277
 6221SOL    HW219029   4.830   0.533   0.148 -2.2809 -0.9102 -0.2191
 6222SOL     OW19030   6.263   1.568   6.770 -0.5680  0.0672  0.2805
 6222SOL    HW119031   6.327   1.578   6.840 -0.1997  0.0858 -0.0590
 6222SOL    HW219032   6.285   1.484   6.729  0.8101  1.1967 -1.4183
 6223SOL     OW19033   2.207   5.652   1.941  0.5245 -0.1019  0.6334
 6223SOL    HW119034   2.115   5.635   1.965  0.5155 -0.4966  0.3303
 6223SOL    HW219035   2.214   5.620   1.851  0.4349  1.8214 -0.0941
 6224SOL     OW19036   5.678   0.442   6.098 -0.0627  0.1682  0.5766
 6224SOL    HW119037   5.737   0.429   6.024 -1.2137  1.2433 -0.5994
 6224SOL    HW219038   5.627   0.361   6.102  0.8324 -0.3775  0.9779
 6225SOL     OW19039   6.408   3.296   5.455 -0.0505 -0.5599  0.2218
 6225SOL    HW119040   6.439   3.278   5.366 -0.4330 -1.3292  0.2320
 6225SOL    HW219041   6.475   3.353   5.492  0.1814 -0.3409 -0.5153
 6226SOL     OW19042   2.158   6.321   1.854 -0.2381  0.6108  0.1874
 6226SOL    HW119043   2.098   6.386   1.891 -1.2721  0.7765 -1.6977
 6226SOL    HW219044   2.107   6.276   1.787  1.9171  1.2605 -2.0446
 6227SOL     OW19045   3.896   4.398   6.089 -0.5414 -0.0647  0.4917
 6227SOL    HW119046   3.942   4.366   6.167  0.4837  1.4369  0.5256
 6227SOL    HW219047   3.895   4.493   6.099  0.0559  0.1941 -1.5791
 6228SOL     OW19048   0.695   0.270   6.558  0.0696  0.2418  0.1346
 6228SOL    HW119049   0.659   0.324   6.488 -0.0570 -0.7204 -0.5572
 6228SOL    HW219050   0.772   0.228   6.519 -0.3357 -0.7536  0.3785
 6229SOL     OW19051   1.027   1.579   2.922 -1.0203 -0.1211 -0.0876
 6229SOL    HW119052   1.066   1.608   2.839  0.5785 -1.8737 -0.0080
 6229SOL    HW219053   1.101   1.560   2.979 -2.0746 -0.1450  1.3452
 6230SOL     OW19054   6.243   3.318   0.991 -0.1960 -0.4821  0.3632
 6230SOL    HW119055   6.233   3.358   0.905 -1.1819 -1.2310  0.1092
 6230SOL    HW219056   6.155   3.316   1.027  0.1007 -0.8391  1.0844
 6231SOL     OW19057   5.300   5.498   0.778  0.1524  0.0394 -0.3702
 6231SOL    HW119058   5.225   5.528   0.829 -0.7549 -1.8354 -0.5014
 6231SOL    HW219059   5.267   5.490   0.688  0.5899 -0.5030 -0.4926
 6232SOL     OW19060   4.022   4.973   6.757  0.1051 -0.2900 -0.7242
 6232SOL    HW119061   3.982   4.892   6.789  1.1299 -0.9659 -1.0957
 6232SOL    HW219062   4.079   5.001   6.828  0.6395 -0.5405 -1.0505
 6233SOL     OW19063   2.542   6.497   4.802 -0.2600  0.2921 -0.7710
 6233SOL    HW119064   2.622   6.549   4.808  1.4064 -2.2595  1.7106
 6233SOL    HW219065   2.487   6.544   4.739  3.3100  1.9796 -2.9559
 6234SOL     OW19066   1.040   3.273   6.568  0.2185 -0.1511  0.0374
 6234SOL    HW119067   0.970   3.286   6.632  1.4339  0.6801  1.2463
 6234SOL    HW219068   1.078   3.360   6.557 -0.0725 -0.2316 -1.9950
 6235SOL     OW19069   1.104   1.196   3.579 -0.0106  1.3511 -0.5105
 6235SOL    HW119070   1.017   1.172   3.612 -0.7141  1.9012 -1.8808
 6235SOL    HW219071   1.132   1.120   3.528  0.4866  1.0232  0.2476
 6236SOL     OW19072   5.587   6.642   0.498 -0.0822  0.2324 -0.1513
 6236SOL    HW119073   5.555   6.611   0.413  1.1588 -2.2433  0.1890
 6236SOL    HW219074   5.509   6.651   0.552 -0.6128 -1.9594 -0.4614
 6237SOL     OW19075   2.706   4.137   1.244 -1.0599  0.1993  0.2665
 6237SOL    HW119076   2.636   4.140   1.308 -0.4741 -0.2927  0.9458
 6237SOL    HW219077   2.662   4.149   1.160 -1.7393  1.7673  0.8023
 6238SOL     OW19078   2.690   0.293   1.918 -0.0860 -0.0985 -0.2586
 6238SOL    HW119079   2.749   0.251   1.855  1.1847  0.0844  0.7697
 6238SOL    HW219080   2.724   0.382   1.927  0.1136 -0.3015  1.1238
 6239SOL     OW19081   3.804   2.930   2.198  0.0393 -0.6919  0.1315
 6239SOL    HW119082   3.881   2.948   2.144  0.7265 -0.6356  1.1120
 6239SOL    HW219083   3.743   3.001   2.178  0.2793 -0.6710 -0.5605
 6240SOL     OW19084   3.575   2.585   0.663 -0.1888  0.3641 -0.1939
 6240SOL    HW119085   3.613   2.519   0.605  0.9543  0.2396  0.6476
 6240SOL    HW219086   3.651   2.627   0.704 -0.6884  4.0105 -2.5625
 6241SOL     OW19087   3.161   1.671   5.672 -0.1113 -0.2379 -0.2267
 6241SOL    HW119088   3.132   1.630   5.591 -0.4513  0.7891 -0.6328
 6241SOL    HW219089   3.202   1.599   5.721  1.7311 -0.5292 -2.0631
 6242SOL     OW19090   1.568   6.715   3.042  0.4060 -0.3237 -0.5888
 6242SOL    HW119091   1.575   6.634   3.094  0.2727 -0.6565 -1.0820
 6242SOL    HW219092   1.630   6.775   3.083 -1.2794  0.1892  1.3387
 6243SOL     OW19093   1.398   6.212   2.695  0.0955  0.1781  0.4722
 6243SOL    HW119094   1.379   6.211   2.788 -1.7321 -0.0126  0.1348
 6243SOL    HW219095   1.468   6.147   2.684 -0.7464 -0.9495  1.4996
 6244SOL     OW19096   0.872   3.885   5.952 -0.2421  0.1534  0.2324
 6244SOL    HW119097   0.835   3.821   5.892 -0.4343  1.5152 -1.1529
 6244SOL    HW219098   0.958   3.849   5.976  0.9494  0.6621 -2.8250
 6245SOL     OW19099   5.398   3.605   6.033  0.7494 -0.4265  0.3933
 6245SOL    HW119100   5.330   3.604   5.965 -0.9245 -2.5985  1.9706
 6245SOL    HW219101   5.480   3.612   5.984 -0.4900  1.4687 -1.6389
 6246SOL     OW19102   3.018   3.503   0.188 -0.0995  0.5109  0.5733
 6246SOL    HW119103   3.043   3.493   0.280 -0.8284 -0.7652  0.6518
 6246SOL    HW219104   3.071   3.440   0.141 -0.4917  0.4087  0.2600
 6247SOL     OW19105   4.306   2.821   1.397 -1.1688 -0.2013  0.0461
 6247SOL    HW119106   4.212   2.819   1.411 -1.0398  1.7087  1.6406
 6247SOL    HW219107   4.337   2.896   1.449  1.2012 -0.6569 -0.5657
 6248SOL     OW19108   5.685   0.098   5.422 -0.8894 -0.3329  0.4476
 6248SOL    HW119109   5.706   0.166   5.486 -1.1507  0.4611 -0.2938
 6248SOL    HW219110   5.663   0.021   5.475  1.4296 -0.4958  1.2911
 6249SOL     OW19111   4.371   5.853   1.868 -0.2348 -0.5430  0.2667
 6249SOL    HW119112   4.324   5.859   1.785 -0.3584  1.0744  0.4129
 6249SOL    HW219113   4.456   5.815   1.845  0.3546  1.3074 -0.9245
 6250SOL     OW19114   5.052   6.586   2.914  0.2038  0.2514 -0.1090
 6250SOL    HW119115   4.977   6.567   2.971  0.3188 -1.7178 -0.5503
 6250SOL    HW219116   5.015   6.588   2.826  0.2854  1.7937 -0.1396
 6251SOL     OW19117   4.447   2.606   2.384 -0.3434  0.9223  0.2303
 6251SOL    HW119118   4.495   2.562   2.315 -1.4346  1.4924 -0.9352
 6251SOL    HW219119   4.419   2.536   2.443 -1.3614  0.1239 -1.1492
 6252SOL     OW19120   0.447   2.490   1.111  0.0267 -0.2659 -0.6713
 6252SOL    HW119121   0.445   2.495   1.016  0.6609 -0.4187 -0.6963
 6252SOL    HW219122   0.521   2.433   1.131 -0.3220 -0.5299 -0.0963
 6253SOL     OW19123   1.735   6.550   0.366 -0.0110  0.1897  0.1129
 6253SOL    HW119124   1.716   6.519   0.277  2.6376 -1.0020 -0.1153
 6253SOL    HW219125   1.771   6.473   0.411  2.2384  1.7045  1.0464
 6254SOL     OW19126   6.183   0.732   5.773  0.2907  0.1908 -0.3854
 6254SOL    HW119127   6.179   0.816   5.818 -0.0199 -0.2895  0.4960
 6254SOL    HW219128   6.167   0.667   5.841  0.7466 -0.5994 -1.0137
 6255SOL     OW19129   4.107   0.071   6.589 -0.1174  0.5690 -0.1566
 6255SOL    HW119130   4.187   0.032   6.554 -1.7837 -1.1248 -2.3527
 6255SOL    HW219131   4.127   0.165   6.594  2.5954  0.0324  1.2537
 6256SOL     OW19132   4.032   0.774   3.000  0.0529 -0.1160 -0.0543
 6256SOL    HW119133   3.959   0.801   3.056  0.6737 -1.1104  1.2937
 6256SOL    HW219134   4.008   0.804   2.913 -1.0764  1.2658  0.6907
 6257SOL     OW19135   6.677   6.247   0.765 -0.2542  0.0576  0.2896
 6257SOL    HW119136   6.711   6.160   0.785  0.6985  0.3662  0.0770
 6257SOL    HW219137   6.746   6.306   0.793 -0.6092  0.7108 -0.1853
 6258SOL     OW19138   4.727   5.311   5.271  0.0988 -0.1527 -0.5691
 6258SOL    HW119139   4.729   5.242   5.205  1.5519 -1.6493  0.9408
 6258SOL    HW219140   4.819   5.326   5.293 -0.2246  1.8866 -0.4547
 6259SOL     OW19141   1.051   5.069   0.661  0.0879 -0.0256 -0.2229
 6259SOL    HW119142   1.098   5.111   0.733 -1.6715  1.3999  0.1826
 6259SOL    HW219143   1.021   4.986   0.698 -0.9046  0.7412  0.8087
 6260SOL     OW19144   3.729   2.876   0.892  0.2980 -0.6337 -1.4250
 6260SOL    HW119145   3.785   2.856   0.818  0.3136 -1.5534 -1.1832
 6260SOL    HW219146   3.726   2.794   0.943 -2.9864 -1.3700 -2.5469
 6261SOL     OW19147   2.178   3.633   1.523 -0.1067  0.1182 -0.1953
 6261SOL    HW119148   2.237   3.565   1.556 -0.9737 -0.0357  1.1100
 6261SOL    HW219149   2.231   3.713   1.525  0.8049 -0.4142 -1.3835
 6262SOL     OW19150   6.031   0.888   4.481  0.5884  0.4208 -0.4464
 6262SOL    HW119151   6.054   0.867   4.390 -1.1562  1.0997 -1.0899
 6262SOL    HW219152   6.020   0.803   4.523  2.9050  0.0792 -0.4209
 6263SOL     OW19153   4.005   4.894   1.708 -0.3549 -0.3568 -0.2310
 6263SOL    HW119154   3.994   4.988   1.726 -0.7959 -0.0532 -1.9405
 6263SOL    HW219155   3.923   4.867   1.666  0.0599 -1.3338 -0.4455
 6264SOL     OW19156   0.552   3.174   3.010  0.2683  0.1449 -0.2612
 6264SOL    HW119157   0.647   3.161   3.006  0.0904 -1.0279 -2.2492
 6264SOL    HW219158   0.532   3.178   3.103  2.1539 -0.5130  0.2239
 6265SOL     OW19159   0.677   3.557   0.455 -0.5157  0.2190  0.1061
 6265SOL    HW119160   0.684   3.508   0.373  0.5728 -0.0577  0.3415
 6265SOL    HW219161   0.662   3.491   0.522  1.1025  0.1450  0.4450
 6266SOL     OW19162   3.508   1.929   4.583  0.8812  0.4786  0.2764
 6266SOL    HW119163   3.448   1.987   4.537 -0.1169  1.0483  2.1737
 6266SOL    HW219164   3.581   1.985   4.610  0.1716  0.7737  1.6519
 6267SOL     OW19165   6.757   4.099   1.436  0.5901 -0.3125 -0.3791
 6267SOL    HW119166   6.849   4.119   1.418  0.3626  0.3954 -0.8322
 6267SOL    HW219167   6.717   4.185   1.448 -0.1292 -0.5883 -0.7734
 6268SOL     OW19168   2.261   6.547   2.804  0.6883 -0.0521  0.2370
 6268SOL    HW119169   2.246   6.566   2.712 -1.4430 -2.1826  0.0375
 6268SOL    HW219170   2.176   6.562   2.845  1.0094 -1.2747  1.4231
 6269SOL     OW19171   5.914   6.237   1.236  0.9394  0.0456 -0.4492
 6269SOL    HW119172   5.940   6.321   1.273 -1.8639  0.4747  0.8171
 6269SOL    HW219173   5.881   6.258   1.149  1.1123  0.1035 -0.5013
 6270SOL     OW19174   4.264   2.579   3.539  0.2872  0.4384  0.2193
 6270SOL    HW119175   4.197   2.590   3.472  0.9297 -1.6064 -0.8573
 6270SOL    HW219176   4.339   2.542   3.492  0.8139 -0.9071  2.0055
 6271SOL     OW19177   6.313   3.720   2.109 -0.0025  0.0932 -0.5782
 6271SOL    HW119178   6.369   3.793   2.083 -0.2154  0.7822  0.8302
 6271SOL    HW219179   6.366   3.669   2.170  0.5244 -1.5676 -2.3055
 6272SOL     OW19180   6.100   4.132   6.283  0.0718 -0.0100  0.1282
 6272SOL    HW119181   6.159   4.189   6.333 -0.3537  1.0430 -0.5400
 6272SOL    HW219182   6.075   4.185   6.207 -1.6520 -0.4628  0.3424
 6273SOL     OW19183   2.434   6.504   4.150 -0.3296  0.2913 -0.1226
 6273SOL    HW119184   2.476   6.427   4.187 -0.0218  0.8295  0.6842
 6273SOL    HW219185   2.354   6.471   4.109 -0.1362 -0.4662  0.0970
 6274SOL     OW19186   2.333   4.611   4.930 -0.1379  0.1977 -0.1618
 6274SOL    HW119187   2.373   4.601   5.017 -1.0817  0.8797  0.3599
 6274SOL    HW219188   2.388   4.556   4.873  1.4018  0.9086  0.5650
 6275SOL     OW19189   4.761   3.812   5.189 -0.1348  0.0472  0.1668
 6275SOL    HW119190   4.779   3.723   5.219 -0.7822 -0.5747 -1.2453
 6275SOL    HW219191   4.845   3.857   5.197  0.3680 -0.8792  0.2135
 6276SOL     OW19192   3.597   3.380   1.889  0.3840  0.4431  0.4910
 6276SOL    HW119193   3.526   3.340   1.839  0.3059  1.4228 -0.2230
 6276SOL    HW219194   3.553   3.423   1.963  0.4400 -0.5052  1.0948
 6277SOL     OW19195   0.823   3.540   6.438 -0.0703  0.1955 -0.2138
 6277SOL    HW119196   0.828   3.485   6.516 -1.3596  0.7567  0.3012
 6277SOL    HW219197   0.858   3.624   6.466  0.6711  0.0225 -0.6166
 6278SOL     OW19198   1.426   0.281   3.842  0.0814  0.1922  0.0021
 6278SOL    HW119199   1.331   0.288   3.844 -0.1182 -1.7496 -0.2715
 6278SOL    HW219200   1.456   0.328   3.920 -1.2365 -0.7239  1.1064
 6279SOL     OW19201   2.496   0.089   3.827 -0.1017  0.1560  0.1871
 6279SOL    HW119202   2.478   0.030   3.754 -1.3683  0.0984  0.5180
 6279SOL    HW219203   2.556   0.155   3.792  3.2077 -2.4657  0.3400
 6280SOL     OW19204   4.344   1.924   1.267 -0.0614 -0.5136  0.2645
 6280SOL    HW119205   4.404   1.995   1.289 -0.3214 -0.4748  0.8482
 6280SOL    HW219206   4.399   1.860   1.221 -0.1477  0.7877 -1.8106
 6281SOL     OW19207   0.706   4.206   4.664  0.2607  0.0918 -0.1017
 6281SOL    HW119208   0.638   4.140   4.674  0.3120  0.0146 -0.2563
 6281SOL    HW219209   0.677   4.279   4.718  1.3945 -0.9803  2.0543
 6282SOL     OW19210   5.157   0.682   3.022 -0.0606 -0.2562  0.0204
 6282SOL    HW119211   5.167   0.774   3.046 -2.1669 -0.3811  1.6382
 6282SOL    HW219212   5.196   0.676   2.934 -0.1039  2.2174 -0.2403
 6283SOL     OW19213   1.433   6.186   2.285 -0.0330  0.7108  0.3633
 6283SOL    HW119214   1.503   6.219   2.341 -1.6515  4.3469  0.5882
 6283SOL    HW219215   1.367   6.153   2.346  1.3591 -2.8509  0.1494
 6284SOL     OW19216   4.808   3.793   2.318 -0.1412  0.1902 -0.1880
 6284SOL    HW119217   4.832   3.770   2.228 -0.8546 -1.0034 -0.1001
 6284SOL    HW219218   4.818   3.711   2.367 -1.2282  0.4441  0.5027
 6285SOL     OW19219   2.766   5.632   4.162 -0.7866  0.1605 -0.3983
 6285SOL    HW119220   2.715   5.553   4.180 -1.8036  0.7851 -0.4530
 6285SOL    HW219221   2.701   5.695   4.128 -0.1164  1.2311  0.2627
 6286SOL     OW19222   0.897   2.446   0.267 -0.0191  0.2911  0.7979
 6286SOL    HW119223   0.810   2.442   0.227  0.0204 -1.0766  0.7952
 6286SOL    HW219224   0.879   2.455   0.361 -0.2529 -2.2934  1.0584
 6287SOL     OW19225   5.594   3.163   5.084 -0.3133  0.4233  0.2937
 6287SOL    HW119226   5.648   3.091   5.050 -1.0530 -0.0455  0.0932
 6287SOL    HW219227   5.558   3.205   5.005 -1.5430 -0.2812  0.4599
 6288SOL     OW19228   2.129   3.362   4.403  0.4718  0.3161  0.0279
 6288SOL    HW119229   2.125   3.390   4.495  0.0704 -0.3514  0.2139
 6288SOL    HW219230   2.219   3.382   4.377 -0.0546  2.7615 -0.1700
 6289SOL     OW19231   2.424   2.530   6.263 -0.2448 -0.8235 -0.2932
 6289SOL    HW119232   2.422   2.455   6.203 -1.2780 -1.9351  1.0564
 6289SOL    HW219233   2.452   2.493   6.347  0.3819  0.5431  0.1299
 6290SOL     OW19234   4.384   5.673   5.603  0.0744 -0.2027  0.3435
 6290SOL    HW119235   4.340   5.749   5.567  1.4742  0.2135 -0.5918
 6290SOL    HW219236   4.371   5.679   5.698  0.6462  1.5251  0.3384
 6291SOL     OW19237   4.615   0.802   3.457 -0.1022 -0.3395 -0.1141
 6291SOL    HW119238   4.699   0.774   3.420  1.0828  2.8677 -0.1928
 6291SOL    HW219239   4.631   0.803   3.551 -0.2114 -0.1776 -0.0985
 6292SOL     OW19240   6.070   2.433   0.878  0.2598  0.3475 -0.0543
 6292SOL    HW119241   6.141   2.486   0.841  0.6043  1.0022  1.4952
 6292SOL    HW219242   5.990   2.474   0.846  0.5307 -0.6624 -2.1908
 6293SOL     OW19243   0.609   1.416   2.672  0.8150 -0.1303  0.2731
 6293SOL    HW119244   0.590   1.508   2.655  1.3718  0.1221  0.9814
 6293SOL    HW219245   0.547   1.390   2.740  0.9282 -0.1742  0.3588
 6294SOL     OW19246   3.237   0.551   2.380  0.5417  0.3016  0.1533
 6294SOL    HW119247   3.249   0.611   2.453 -0.3217 -1.5803  1.9560
 6294SOL    HW219248   3.142   0.551   2.365  0.6365  0.1161 -0.4662
 6295SOL     OW19249   1.345   1.153   2.308 -0.0794  0.1977 -0.3906
 6295SOL    HW119250   1.379   1.089   2.246 -0.4368  0.1137 -0.4994
 6295SOL    HW219251   1.303   1.101   2.376 -1.9783  0.3428 -1.3954
 6296SOL     OW19252   0.415   5.846   5.959  0.2351 -0.4229 -0.4576
 6296SOL    HW119253   0.341   5.872   5.904  0.8471  1.1015 -0.6108
 6296SOL    HW219254   0.474   5.922   5.957 -0.1576  0.1561  3.0968
 6297SOL     OW19255   1.902   4.004   2.727 -0.2903 -0.2301  0.2150
 6297SOL    HW119256   1.918   4.063   2.800 -0.6713  2.1528 -1.4970
 6297SOL    HW219257   1.942   4.048   2.652 -1.7357 -1.5310 -1.3934
 6298SOL     OW19258   6.314   3.488   4.929 -0.2739  0.4264  0.2658
 6298SOL    HW119259   6.256   3.415   4.953  0.7951 -1.2390 -1.8326
 6298SOL    HW219260   6.332   3.474   4.836  0.9628  2.7151  0.1025
 6299SOL     OW19261   0.403   2.488   3.008  0.0165  0.5338 -0.3349
 6299SOL    HW119262   0.365   2.565   2.965 -0.8499  0.1179 -0.3461
 6299SOL    HW219263   0.419   2.427   2.936 -1.6557 -0.2555 -0.0907
 6300SOL     OW19264   3.051   3.478   1.013  0.2480  0.0800 -0.0064
 6300SOL    HW119265   3.124   3.417   1.006 -1.2991 -1.7569 -1.0104
 6300SOL    HW219266   3.004   3.451   1.091 -0.2418  0.2380 -0.2401
 6301SOL     OW19267   3.116   1.256   2.881  0.1710 -0.0889  0.0267
 6301SOL    HW119268   3.072   1.207   2.950 -0.6675 -0.9745 -1.0874
 6301SOL    HW219269   3.175   1.317   2.927 -1.0969  0.0571  1.5176
 6302SOL     OW19270   3.999   1.751   3.959  0.4799 -0.0328  0.2407
 6302SOL    HW119271   4.048   1.756   4.041 -1.3627 -0.2127  1.4058
 6302SOL    HW219272   3.997   1.657   3.939  0.4567 -0.0377  0.2673
 6303SOL     OW19273   1.938   6.486   1.773 -0.5387  0.1556  0.7435
 6303SOL    HW119274   1.888   6.450   1.700 -0.3747 -0.1729  0.7922
 6303SOL    HW219275   1.973   6.569   1.739 -0.5804  0.0731  0.4955
 6304SOL     OW19276   5.996   0.502   1.577  0.6846  0.5893  0.3866
 6304SOL    HW119277   5.915   0.553   1.577 -0.8019 -1.5530 -1.9831
 6304SOL    HW219278   6.035   0.521   1.492  0.4186 -1.6259 -0.2811
 6305SOL     OW19279   2.580   5.115   3.116 -0.1499  0.5962  0.7996
 6305SOL    HW119280   2.555   5.096   3.206  0.3456  0.3275  0.8835
 6305SOL    HW219281   2.550   5.205   3.101 -1.0225  0.3353  0.9413
 6306SOL     OW19282   3.646   4.983   1.818 -0.6182 -0.5228 -0.3278
 6306SOL    HW119283   3.739   4.984   1.796 -0.8549 -1.0904 -1.4211
 6306SOL    HW219284   3.644   4.972   1.913  0.4321  1.1395 -0.0760
 6307SOL     OW19285   0.625   6.023   0.008 -0.3250  0.0506  0.1409
 6307SOL    HW119286   0.700   6.056  -0.041 -0.5726  0.0034 -0.2744
 6307SOL    HW219287   0.647   6.040   0.100  0.2797 -0.1477  0.0379
 6308SOL     OW19288   3.758   4.197   4.724  0.0795 -0.4395  0.1134
 6308SOL    HW119289   3.670   4.227   4.702 -0.0080 -0.7352  0.0516
 6308SOL    HW219290   3.760   4.197   4.820 -0.2596 -1.1889  0.1308
 6309SOL     OW19291   5.925   2.961   2.848  0.3662 -0.2042  0.4256
 6309SOL    HW119292   5.981   2.974   2.772 -0.4074  0.5080 -0.0543
 6309SOL    HW219293   5.924   2.867   2.863  1.5249 -0.2376  0.3372
 6310SOL     OW19294   1.732   1.267   6.062  0.0719  1.0332  0.2558
 6310SOL    HW119295   1.810   1.240   6.110  0.3115 -0.4699 -0.8841
 6310SOL    HW219296   1.765   1.314   5.986  0.2566 -2.4791 -2.1077
 6311SOL     OW19297   3.370   2.739   1.151  0.0818  0.3488 -0.5780
 6311SOL    HW119298   3.291   2.699   1.114  0.5760 -1.3781  0.1378
 6311SOL    HW219299   3.391   2.811   1.091 -1.7410  0.5248 -1.0454
 6312SOL     OW19300   4.677   6.244   2.986  0.1726 -0.5723  0.1067
 6312SOL    HW119301   4.631   6.253   3.069 -1.2831  0.0206 -0.7174
 6312SOL    HW219302   4.722   6.160   2.992 -1.2967 -1.3477  0.8569
 6313SOL     OW19303   1.655   5.858   6.683 -0.5454  0.5008  0.1850
 6313SOL    HW119304   1.615   5.785   6.637  2.0367 -1.0192  0.1234
 6313SOL    HW219305   1.710   5.901   6.617  0.5269  0.4041  0.9802
 6314SOL     OW19306   2.217   2.024   4.839  1.0572  0.1074  0.4775
 6314SOL    HW119307   2.291   1.963   4.841 -0.0245 -1.4292 -1.7324
 6314SOL    HW219308   2.255   2.110   4.857  2.8632 -0.9939  2.3061
 6315SOL     OW19309   0.301   6.764   0.950  0.1699 -0.3334 -0.5371
 6315SOL    HW119310   0.206   6.751   0.954  0.2863 -0.8393  2.3975
 6315SOL    HW219311   0.312   6.838   0.890 -2.1422  0.3312 -0.2623
 6316SOL     OW19312   0.968   0.920   2.662  0.1757 -0.0676  0.3253
 6316SOL    HW119313   1.007   0.833   2.654 -0.8181 -0.7683  2.4002
 6316SOL    HW219314   0.933   0.922   2.751  0.1401  2.4603  0.3072
 6317SOL     OW19315   3.907   6.507   2.424  0.1057 -0.3537  0.2294
 6317SOL    HW119316   3.936   6.422   2.389  0.2823 -0.8709  1.5655
 6317SOL    HW219317   3.812   6.500   2.429  0.1574 -0.6872  0.8369
 6318SOL     OW19318   3.481   3.789   0.069 -0.1169  0.3508  0.1621
 6318SOL    HW119319   3.530   3.717   0.030 -2.5262 -0.4905 -1.5737
 6318SOL    HW219320   3.501   3.785   0.162  1.5125 -1.1675 -0.2085
 6319SOL     OW19321   5.325   5.277   4.786 -0.0032  0.1754 -0.0482
 6319SOL    HW119322   5.299   5.337   4.716  0.5463 -0.0583 -0.4615
 6319SOL    HW219323   5.348   5.196   4.741  0.4212  0.0430  0.3948
 6320SOL     OW19324   2.739   5.377   4.712 -0.1058 -0.2260 -0.0281
 6320SOL    HW119325   2.681   5.342   4.645 -0.0692 -0.4437  0.0526
 6320SOL    HW219326   2.762   5.301   4.766 -0.8861  0.1174  0.7941
 6321SOL     OW19327   2.718   1.077   6.706  0.7062  0.0612  0.2093
 6321SOL    HW119328   2.692   1.010   6.768  0.9598 -0.1003  0.1383
 6321SOL    HW219329   2.760   1.030   6.634  0.4371  0.2468 -0.0760
 6322SOL     OW19330   4.981   3.747   3.642 -0.2476 -0.2612  0.4010
 6322SOL    HW119331   4.967   3.802   3.719  1.0774  0.4676  0.1545
 6322SOL    HW219332   5.007   3.662   3.678 -1.8983 -0.6400  0.7743
 6323SOL     OW19333   0.640   4.599   3.545  0.4009 -0.0004  0.5117
 6323SOL    HW119334   0.591   4.654   3.607 -0.3385 -0.4270  0.3169
 6323SOL    HW219335   0.606   4.511   3.559  0.0010 -0.0645 -0.6952
 6324SOL     OW19336   2.248   2.965   1.143 -0.2122 -0.6897  0.1375
 6324SOL    HW119337   2.201   3.049   1.142 -0.8945 -1.0568  0.2739
 6324SOL    HW219338   2.179   2.899   1.132  0.5038 -1.1704 -2.1143
 6325SOL     OW19339   4.426   3.684   1.836 -0.1595  0.1967  0.5018
 6325SOL    HW119340   4.377   3.668   1.755 -1.2182  0.2032  1.1200
 6325SOL    HW219341   4.490   3.613   1.840 -0.0328  0.2420 -0.3707
 6326SOL     OW19342   0.232   0.707   1.754 -0.1428  0.2859 -0.0817
 6326SOL    HW119343   0.327   0.690   1.757 -0.0316  0.6242 -1.3475
 6326SOL    HW219344   0.225   0.801   1.739 -0.7034  0.3859  0.7366
 6327SOL     OW19345   0.793   5.651   4.446 -0.0852 -0.2482 -0.5509
 6327SOL    HW119346   0.820   5.652   4.353 -0.4744 -2.4148 -0.7547
 6327SOL    HW219347   0.749   5.734   4.460 -0.4467 -0.0736 -2.4669
 6328SOL     OW19348   2.505   5.500   0.494  0.3230 -0.1717  0.1301
 6328SOL    HW119349   2.444   5.443   0.447  0.0761  0.6969 -0.6249
 6328SOL    HW219350   2.550   5.441   0.555 -0.3965 -1.0470 -0.1591
 6329SOL     OW19351   2.909   5.537   5.350 -0.0055 -0.2039 -0.3309
 6329SOL    HW119352   3.001   5.510   5.358  0.0176  0.3340  1.8186
 6329SOL    HW219353   2.907   5.593   5.272  1.7606  0.7894  0.2924
 6330SOL     OW19354   4.281   5.284   0.065  0.2779  0.0614  1.1510
 6330SOL    HW119355   4.279   5.271  -0.030  0.2841  1.9897  0.8455
 6330SOL    HW219356   4.375   5.290   0.086  0.2899  3.0925  0.6695
 6331SOL     OW19357   2.464   4.351   6.375  0.1400  0.1750  0.0184
 6331SOL    HW119358   2.418   4.435   6.368 -1.2558 -0.3949  1.6300
 6331SOL    HW219359   2.531   4.367   6.441  0.4831  0.2497 -0.3416
 6332SOL     OW19360   0.156   5.778   2.966  0.0976 -0.5478  0.6174
 6332SOL    HW119361   0.108   5.703   2.933  0.7928 -1.3999  1.4981
 6332SOL    HW219362   0.219   5.742   3.028  0.4207  0.7579  1.0963
 6333SOL     OW19363   5.950   3.261   6.344  0.1401 -0.8481  0.4540
 6333SOL    HW119364   5.973   3.320   6.273  1.7365 -1.7448  0.1674
 6333SOL    HW219365   5.860   3.284   6.367 -0.8193 -1.1552 -2.5157
 6334SOL     OW19366   0.119   2.077   5.548  0.2167  0.2391 -0.4934
 6334SOL    HW119367   0.213   2.093   5.543  0.1323  1.0989  0.3812
 6334SOL    HW219368   0.082   2.132   5.479  0.2707  0.7205 -0.1426
 6335SOL     OW19369   2.615   2.589   5.572 -0.1551  0.5207 -0.3403
 6335SOL    HW119370   2.656   2.562   5.654  1.6360 -0.2689 -1.4164
 6335SOL    HW219371   2.565   2.667   5.594  0.6610  0.6016  1.3948
 6336SOL     OW19372   4.102   5.449   5.128 -0.1446  0.6547  0.2182
 6336SOL    HW119373   4.059   5.386   5.186  1.8860  0.4757  1.6706
 6336SOL    HW219374   4.195   5.424   5.132  0.4727  2.6884 -0.5121
 6337SOL     OW19375   4.095   1.363   5.575 -0.3080  0.1792 -0.3459
 6337SOL    HW119376   4.143   1.338   5.496  0.7959  1.1821 -0.0161
 6337SOL    HW219377   4.158   1.352   5.646 -0.7998  0.8229  0.2023
 6338SOL     OW19378   0.271   3.458   0.622  0.4708  0.0824 -0.2969
 6338SOL    HW119379   0.224   3.375   0.613  0.2548 -0.0528  1.6593
 6338SOL    HW219380   0.203   3.523   0.641  0.4112  1.1362 -3.5578
 6339SOL     OW19381   5.323   4.895   5.967 -0.4386  0.2232  0.3228
 6339SOL    HW119382   5.261   4.831   5.933 -1.4247  1.3164  0.0351
 6339SOL    HW219383   5.270   4.969   5.996  0.6841  0.9829  0.5354
 6340SOL     OW19384   1.182   6.515   3.227  0.1231 -0.1854  0.0824
 6340SOL    HW119385   1.087   6.514   3.228  0.1073 -1.0191 -0.8017
 6340SOL    HW219386   1.205   6.599   3.187 -0.2638 -0.3208 -0.4396
 6341SOL     OW19387   1.663   3.695   4.078 -0.4681 -0.5690  0.3434
 6341SOL    HW119388   1.609   3.770   4.103  0.2565 -0.1983  0.8207
 6341SOL    HW219389   1.704   3.667   4.160  1.3378  0.1759 -0.2519
 6342SOL     OW19390   5.086   4.775   0.292  0.4897 -0.6089 -0.1900
 6342SOL    HW119391   5.151   4.722   0.247 -0.8152 -1.1867 -1.4783
 6342SOL    HW219392   5.066   4.727   0.372  0.6830 -1.1033 -0.4378
 6343SOL     OW19393   3.033   2.378   5.751 -0.5165 -0.3701  0.3079
 6343SOL    HW119394   3.091   2.428   5.694 -0.5606 -1.5271 -0.7742
 6343SOL    HW219395   3.091   2.344   5.820 -0.0414 -0.8671 -0.3271
 6344SOL     OW19396   3.745   5.941   5.660 -0.3074  0.0264 -0.5130
 6344SOL    HW119397   3.720   5.924   5.751 -0.6951 -1.8087 -0.9335
 6344SOL    HW219398   3.675   5.997   5.626 -1.9069 -1.9332 -0.5831
 6345SOL     OW19399   3.410   4.577   6.582  0.0861  0.0337  0.2231
 6345SOL    HW119400   3.435   4.506   6.522  1.8449  1.0019 -0.2370
 6345SOL    HW219401   3.317   4.561   6.600 -0.7177  0.0347 -3.2608
 6346SOL     OW19402   3.458   6.023   3.414  0.6388  0.3398 -0.1277
 6346SOL    HW119403   3.459   5.959   3.485  2.0899 -0.5386 -0.8710
 6346SOL    HW219404   3.381   6.000   3.362  1.2730 -1.0399 -0.5318
 6347SOL     OW19405   4.583   3.688   0.705  0.1359 -0.2606 -0.2431
 6347SOL    HW119406   4.664   3.731   0.734  0.2237 -1.3540  1.2362
 6347SOL    HW219407   4.587   3.692   0.610  1.8908 -0.1858 -0.2072
 6348SOL     OW19408   2.349   6.148   4.076  0.6759 -0.6426 -0.4409
 6348SOL    HW119409   2.431   6.132   4.028  0.9762  0.5371 -0.3628
 6348SOL    HW219410   2.376   6.153   4.167  0.8414  1.5517 -0.5680
 6349SOL     OW19411   2.509   4.112   6.195  0.6707  0.6631  0.5006
 6349SOL    HW119412   2.490   4.141   6.284 -1.1297  0.9280  0.0707
 6349SOL    HW219413   2.568   4.038   6.205 -1.7523 -1.1837  2.0925
 6350SOL     OW19414   4.412   2.010   5.445 -0.3636  0.3222  0.1729
 6350SOL    HW119415   4.482   2.012   5.510 -0.3503 -0.2152  0.1792
 6350SOL    HW219416   4.331   2.017   5.496 -0.2930  1.8600  0.1006
 6351SOL     OW19417   6.624   5.042   4.902 -0.7712 -0.1053 -0.0057
 6351SOL    HW119418   6.669   4.961   4.877 -1.9480 -0.9531  0.5278
 6351SOL    HW219419   6.665   5.110   4.849 -1.2837 -1.4037 -2.1750
 6352SOL     OW19420   3.156   3.842   5.777 -0.0097  0.2808  0.8521
 6352SOL    HW119421   3.170   3.803   5.863  4.1494  1.7283  1.0213
 6352SOL    HW219422   3.219   3.798   5.720  0.1566  2.1258 -0.4695
 6353SOL     OW19423   3.600   6.320   4.301  0.2673  0.1855 -0.0528
 6353SOL    HW119424   3.511   6.348   4.322  0.6816  1.5667 -0.0558
 6353SOL    HW219425   3.617   6.247   4.360 -1.2672 -0.8640 -0.8472
 6354SOL     OW19426   0.307   3.568   1.824  0.1364 -0.0689 -0.3968
 6354SOL    HW119427   0.350   3.638   1.874 -1.1797 -0.2203  1.0514
 6354SOL    HW219428   0.214   3.578   1.845 -0.0719 -2.4237  0.0726
 6355SOL     OW19429   0.009   6.422   5.231 -0.1799  0.0093 -0.6894
 6355SOL    HW119430   0.078   6.433   5.296 -0.2723 -0.6717 -0.4668
 6355SOL    HW219431   0.003   6.507   5.187  1.9588 -0.3659 -1.8525
 6356SOL     OW19432   6.312   6.303   1.277  0.2099  0.0221  0.2743
 6356SOL    HW119433   6.237   6.299   1.218  0.7879  0.9913 -0.5768
 6356SOL    HW219434   6.298   6.383   1.328 -0.0102 -0.5211  1.0746
 6357SOL     OW19435   2.269   0.378   4.350  0.2093  0.0128 -0.3982
 6357SOL    HW119436   2.364   0.370   4.349  0.3886  1.6504  0.7026
 6357SOL    HW219437   2.241   0.319   4.420  0.7457  1.8977  1.5145
 6358SOL     OW19438   0.910   5.048   4.811 -0.0069 -0.0407  0.0817
 6358SOL    HW119439   0.879   5.073   4.898 -0.5390  0.3851 -0.2275
 6358SOL    HW219440   0.915   4.953   4.814 -4.0923 -0.4508 -0.7293
 6359SOL     OW19441   5.091   3.907   1.863  0.2301  0.0023 -0.2038
 6359SOL    HW119442   5.022   3.864   1.913 -0.3856 -0.4284 -1.3856
 6359SOL    HW219443   5.147   3.948   1.929 -0.2169 -1.0427  0.8520
 6360SOL     OW19444   3.815   3.928   3.980 -0.5169  0.5323 -0.0196
 6360SOL    HW119445   3.741   3.890   4.027 -0.6013  0.2477 -0.3739
 6360SOL    HW219446   3.858   3.985   4.044 -0.6807  0.2219  0.3722
 6361SOL     OW19447   4.679   0.653   3.962  0.2062 -0.5918 -1.0599
 6361SOL    HW119448   4.643   0.711   3.896 -0.4556  0.1739 -0.0635
 6361SOL    HW219449   4.758   0.697   3.993 -0.7350  0.2416  0.2783
 6362SOL     OW19450   1.064   3.941   3.360  0.2759  0.2342 -0.0246
 6362SOL    HW119451   1.104   3.978   3.439  2.8331 -0.2623 -0.9929
 6362SOL    HW219452   1.068   4.012   3.295  0.8264 -0.2287 -0.5119
 6363SOL     OW19453   5.247   1.242   0.112  0.0365  0.4392  0.0610
 6363SOL    HW119454   5.277   1.193   0.036  2.0256 -1.0117  1.6829
 6363SOL    HW219455   5.302   1.320   0.114  0.4917  0.1133  0.4042
 6364SOL     OW19456   2.266   3.478   0.515 -0.3933  0.2251  0.0199
 6364SOL    HW119457   2.277   3.527   0.434 -2.4723  3.5747  1.5349
 6364SOL    HW219458   2.344   3.500   0.566  1.5159 -2.8286 -1.3097
 6365SOL     OW19459   4.879   5.740   6.408 -0.3677  0.4552 -0.3275
 6365SOL    HW119460   4.947   5.742   6.341  1.2404  0.9814  1.2650
 6365SOL    HW219461   4.802   5.704   6.363  1.0332 -0.4824 -2.0834
 6366SOL     OW19462   0.683   4.949   2.863  0.2992  0.0282  0.2398
 6366SOL    HW119463   0.629   4.988   2.794  0.7321 -0.1089 -0.1806
 6366SOL    HW219464   0.772   4.952   2.829  0.4574 -0.4886  0.5868
 6367SOL     OW19465   3.284   3.267   6.491  0.0036 -0.4334  0.5366
 6367SOL    HW119466   3.273   3.172   6.498 -0.8481 -0.3896 -0.0423
 6367SOL    HW219467   3.200   3.303   6.516  0.5250  0.2199  1.4039
 6368SOL     OW19468   1.461   6.762   5.731 -0.1597 -0.0139  0.3283
 6368SOL    HW119469   1.384   6.805   5.769 -0.3883 -0.5078  0.4347
 6368SOL    HW219470   1.424   6.693   5.676  0.2137 -0.4462  0.6144
 6369SOL     OW19471   2.749   1.310   3.926  0.3364 -0.1365  0.0210
 6369SOL    HW119472   2.749   1.368   4.003 -1.1238 -1.1991  0.8734
 6369SOL    HW219473   2.746   1.369   3.851  2.8873  0.9798  0.6818
 6370SOL     OW19474   5.585   2.864   0.420 -0.1692 -0.6609  0.4388
 6370SOL    HW119475   5.490   2.868   0.429 -0.1856 -1.6716  0.9037
 6370SOL    HW219476   5.619   2.903   0.500 -0.1482  1.3129 -0.4870
 6371SOL     OW19477   5.582   6.551   1.044  0.2754  0.1361  0.4801
 6371SOL    HW119478   5.487   6.555   1.055  0.0117 -1.0942 -0.9271
 6371SOL    HW219479   5.611   6.485   1.107  0.1600  0.3169  0.7229
 6372SOL     OW19480   3.752   5.282   4.834  0.6642 -0.0392  0.2822
 6372SOL    HW119481   3.797   5.362   4.863  0.8873 -0.7531  2.0011
 6372SOL    HW219482   3.781   5.271   4.743  0.2796  2.0563 -0.1478
 6373SOL     OW19483   4.388   6.650   0.495 -0.8037  0.0585  0.0834
 6373SOL    HW119484   4.473   6.646   0.451 -0.1770  0.5686  1.2216
 6373SOL    HW219485   4.401   6.712   0.567 -1.3815 -1.8380  1.9068
 6374SOL     OW19486   1.750   5.147   6.042  0.2007  0.0655  0.2493
 6374SOL    HW119487   1.788   5.184   5.963  0.3353  1.8284  1.1023
 6374SOL    HW219488   1.823   5.105   6.087  0.7439  1.5118  0.7885
 6375SOL     OW19489   2.842   5.865   5.743 -0.0973  0.6261  0.4328
 6375SOL    HW119490   2.824   5.786   5.794 -1.5601  0.4680 -0.2899
 6375SOL    HW219491   2.898   5.918   5.800 -0.1106 -0.3813  1.4226
 6376SOL     OW19492   4.369   5.024   6.678 -0.4563 -0.4936 -0.1383
 6376SOL    HW119493   4.392   5.017   6.585  0.6833 -1.0643  0.1605
 6376SOL    HW219494   4.387   5.115   6.700 -0.7299 -0.3556 -0.4752
 6377SOL     OW19495   1.585   5.748   2.516  0.2027  0.0170  0.6753
 6377SOL    HW119496   1.638   5.818   2.479 -0.1491 -0.9631 -1.8612
 6377SOL    HW219497   1.646   5.699   2.571  1.6443 -0.3197 -1.1330
 6378SOL     OW19498   5.389   6.781   0.678 -0.1146  0.0334 -0.3694
 6378SOL    HW119499   5.467   6.834   0.658  0.4017 -0.3626  0.5112
 6378SOL    HW219500   5.391   6.771   0.773  0.6038 -2.7317 -0.5974
 6379SOL     OW19501   0.581   3.015   3.753  0.6480  0.3310 -0.3470
 6379SOL    HW119502   0.490   3.045   3.743  0.9610  0.9828 -1.3470
 6379SOL    HW219503   0.620   3.025   3.666  1.5681 -0.3348 -0.0257
 6380SOL     OW19504   0.495   1.563   0.242  0.2658  0.9193  0.3185
 6380SOL    HW119505   0.567   1.625   0.253 -0.1671  1.7019 -1.0139
 6380SOL    HW219506   0.428   1.593   0.304  0.3618  1.3334  0.2274
 6381SOL     OW19507   6.450   4.656   5.652 -0.0720  0.1327  0.0937
 6381SOL    HW119508   6.398   4.612   5.719 -0.9900 -2.5659 -2.2064
 6381SOL    HW219509   6.498   4.724   5.700 -2.0665 -0.3874  3.1143
 6382SOL     OW19510   6.048   3.389   6.772 -0.0472  0.3364 -0.1764
 6382SOL    HW119511   5.994   3.373   6.849  0.4263 -2.8970 -0.3542
 6382SOL    HW219512   5.988   3.428   6.708 -0.8873  1.3711  1.1719
 6383SOL     OW19513   1.190   0.938   5.791 -0.4304 -0.0093  0.0963
 6383SOL    HW119514   1.159   1.029   5.788  1.6751  0.8854  2.1724
 6383SOL    HW219515   1.110   0.886   5.785 -1.6270  1.8990 -2.3069
 6384SOL     OW19516   4.744   1.322   2.753 -0.3338  0.3414 -0.1606
 6384SOL    HW119517   4.746   1.381   2.678  2.1653 -2.6338 -2.7019
 6384SOL    HW219518   4.652   1.300   2.764 -0.7278  0.1435 -3.0601
 6385SOL     OW19519   4.843   0.198   1.379 -0.4757 -0.5327  0.2791
 6385SOL    HW119520   4.815   0.265   1.317 -1.9684 -1.7954 -0.4749
 6385SOL    HW219521   4.859   0.247   1.460 -0.4399  0.8766 -0.5374
 6386SOL     OW19522   3.515   6.014   0.562 -0.8348  0.0184  0.3241
 6386SOL    HW119523   3.580   5.994   0.495 -0.5652 -0.2060  0.6470
 6386SOL    HW219524   3.471   5.931   0.579 -1.4249  0.2326 -0.1123
 6387SOL     OW19525   2.467   4.244   0.131 -0.0836 -0.4522  0.0045
 6387SOL    HW119526   2.553   4.276   0.159  0.5768 -0.8278 -1.5173
 6387SOL    HW219527   2.420   4.323   0.103 -0.3267 -0.2208  1.0298
 6388SOL     OW19528   0.335   1.672   6.698 -0.0730 -0.0283  0.1061
 6388SOL    HW119529   0.410   1.728   6.677  0.2339 -0.2580  0.5814
 6388SOL    HW219530   0.329   1.611   6.624  1.2078 -1.0434  0.8020
 6389SOL     OW19531   2.301   0.314   1.638 -0.2806 -0.2615  0.2441
 6389SOL    HW119532   2.362   0.338   1.708 -0.0522  1.3225 -0.4674
 6389SOL    HW219533   2.221   0.364   1.657 -0.0691  0.5193 -0.8461
 6390SOL     OW19534   1.100   1.996   0.190  0.0406  0.7873  0.2402
 6390SOL    HW119535   1.038   2.030   0.125  0.7969  1.3113 -0.2448
 6390SOL    HW219536   1.115   1.905   0.164  0.2742  0.9689 -0.2957
 6391SOL     OW19537   5.835   0.347   1.284 -0.6643 -0.4739 -0.6515
 6391SOL    HW119538   5.800   0.427   1.324  1.1894 -0.4652  1.0875
 6391SOL    HW219539   5.757   0.293   1.269 -1.8549  1.2369 -0.9541
 6392SOL     OW19540   3.740   0.185   4.664  0.0608  0.4043  0.2988
 6392SOL    HW119541   3.657   0.214   4.628 -1.4214 -0.8047  2.4801
 6392SOL    HW219542   3.738   0.089   4.654  1.0761  0.3374  0.6097
 6393SOL     OW19543   2.975   1.363   6.345  0.1415  0.5298  0.3247
 6393SOL    HW119544   2.940   1.274   6.338 -1.1867  0.9290  1.3899
 6393SOL    HW219545   2.933   1.411   6.274 -0.3633  0.6666  0.7117
 6394SOL     OW19546   5.284   4.567   0.262  0.4399 -0.0382  0.3053
 6394SOL    HW119547   5.356   4.627   0.245 -0.0981  0.2594 -1.0868
 6394SOL    HW219548   5.314   4.513   0.335  2.2018 -0.1309 -0.4401
 6395SOL     OW19549   3.942   2.093   1.486  0.4700 -0.1311 -0.3848
 6395SOL    HW119550   4.017   2.040   1.512  1.8058  1.1600 -1.4062
 6395SOL    HW219551   3.916   2.140   1.565  1.6640  0.4490 -0.3068
 6396SOL     OW19552   6.749   5.817   3.389 -0.5040  0.0217 -0.3467
 6396SOL    HW119553   6.672   5.801   3.335  0.4073  0.2705 -1.7563
 6396SOL    HW219554   6.790   5.731   3.398 -0.2877  0.0974 -0.6182
 6397SOL     OW19555   2.903   4.088   3.833 -0.2126  0.0309 -1.0208
 6397SOL    HW119556   2.910   4.041   3.917  0.0109 -0.1491 -1.1392
 6397SOL    HW219557   2.815   4.125   3.834 -0.7404 -1.1675 -1.3249
 6398SOL     OW19558   3.472   3.330   0.162  0.3165  0.1861 -0.2152
 6398SOL    HW119559   3.510   3.243   0.153 -2.5501 -1.2529  0.2514
 6398SOL    HW219560   3.486   3.353   0.254 -0.9751 -0.9314  0.3030
 6399SOL     OW19561   1.458   1.016   3.969 -0.5938  0.1989 -0.0794
 6399SOL    HW119562   1.378   1.068   3.976 -0.0888  0.8821  0.8367
 6399SOL    HW219563   1.476   1.012   3.875 -2.1193 -0.6409 -0.3640
 6400SOL     OW19564   6.081   0.655   5.001  0.3672  0.7068  0.4970
 6400SOL    HW119565   6.148   0.676   4.936 -0.5030 -0.9324 -1.0381
 6400SOL    HW219566   6.130   0.622   5.076  1.3257 -0.4872 -0.6080
 6401SOL     OW19567   4.909   5.308   4.732 -0.6020 -0.2080 -0.6749
 6401SOL    HW119568   4.907   5.213   4.727  0.9443 -0.2981  0.0026
 6401SOL    HW219569   4.848   5.329   4.804  1.8275 -0.9884  1.7801
 6402SOL     OW19570   5.535   5.091   3.100  0.1360  0.3463 -0.3471
 6402SOL    HW119571   5.497   5.086   3.188 -0.1923 -1.9610 -0.5372
 6402SOL    HW219572   5.624   5.121   3.114 -0.1987  0.9209  0.6585
 6403SOL     OW19573   3.656   5.937   6.142  0.0589  0.4159 -0.0850
 6403SOL    HW119574   3.637   5.869   6.078  0.9566  0.8984 -0.8959
 6403SOL    HW219575   3.605   6.013   6.113  1.3859  1.0117 -0.9705
 6404SOL     OW19576   1.861   5.473   6.756 -0.5121 -0.4866  0.1967
 6404SOL    HW119577   1.858   5.565   6.784 -1.9256 -0.6401  0.6140
 6404SOL    HW219578   1.770   5.451   6.735 -0.2728 -1.9207  0.5532
 6405SOL     OW19579   6.790   4.587   3.838  0.2260  0.4313  0.3246
 6405SOL    HW119580   6.720   4.532   3.803 -0.0115  1.7545 -1.4010
 6405SOL    HW219581   6.790   4.569   3.932 -2.5478  0.5013  0.4189
 6406SOL     OW19582   1.758   5.147   5.157  0.5330 -0.0260  0.1893
 6406SOL    HW119583   1.780   5.194   5.076  1.1506 -1.4691 -0.5081
 6406SOL    HW219584   1.825   5.080   5.165 -0.6799 -1.2113  0.8180
 6407SOL     OW19585   3.131   3.050   1.737 -0.0332 -0.1616 -0.1405
 6407SOL    HW119586   3.068   3.030   1.806 -1.5477  1.6988 -0.8966
 6407SOL    HW219587   3.077   3.075   1.662  1.4479 -3.6884 -2.6644
 6408SOL     OW19588   3.130   1.340   0.025  0.5881 -0.4911  0.2606
 6408SOL    HW119589   3.182   1.261   0.040 -1.0498 -1.6392  0.2939
 6408SOL    HW219590   3.190   1.412   0.038  2.2828 -1.7428 -0.2518
 6409SOL     OW19591   4.831   3.414   1.118  0.0013  0.5399 -0.0844
 6409SOL    HW119592   4.789   3.486   1.071 -1.8674 -0.2663  0.2577
 6409SOL    HW219593   4.842   3.447   1.208  0.6422  0.9615 -0.3166
 6410SOL     OW19594   5.912   3.633   0.085 -0.3684  0.4275  0.0960
 6410SOL    HW119595   5.909   3.688   0.163  0.3394  0.2057  0.2818
 6410SOL    HW219596   5.939   3.547   0.118  0.3365  0.4349 -0.4491
 6411SOL     OW19597   6.074   4.331   0.083  0.1247 -0.7069  0.0268
 6411SOL    HW119598   6.041   4.272   0.015  0.1052 -0.6770  0.0105
 6411SOL    HW219599   6.050   4.419   0.052  0.0642 -0.6979  0.1006
 6412SOL     OW19600   6.272   5.353   5.852 -0.1619 -0.6332 -0.2423
 6412SOL    HW119601   6.274   5.438   5.808  1.0049 -2.0242 -3.1624
 6412SOL    HW219602   6.251   5.373   5.943 -1.5150  2.6025 -1.1393
 6413SOL     OW19603   6.376   3.850   6.674 -0.0513 -0.5202  0.0336
 6413SOL    HW119604   6.401   3.915   6.740  1.0275 -1.8196  0.9421
 6413SOL    HW219605   6.304   3.801   6.715  1.0409 -1.7444  0.5500
 6414SOL     OW19606   1.945   5.141   1.346  0.4709  0.1357 -0.3229
 6414SOL    HW119607   2.013   5.184   1.294 -0.0563  1.9911  0.4661
 6414SOL    HW219608   1.869   5.198   1.339 -0.8649 -1.5762 -0.6661
 6415SOL     OW19609   0.386   2.586   1.768 -0.5079 -0.1836  0.0475
 6415SOL    HW119610   0.422   2.561   1.683 -0.5124  2.4378 -0.8083
 6415SOL    HW219611   0.292   2.599   1.750 -0.2000  2.2171 -0.0710
 6416SOL     OW19612   0.373   3.804   4.137 -0.3734  0.1720 -0.4220
 6416SOL    HW119613   0.396   3.833   4.049 -0.9736  0.4847 -0.4785
 6416SOL    HW219614   0.379   3.883   4.191 -1.7549  0.3773 -0.5261
 6417SOL     OW19615   5.342   0.144   1.410  0.0640  0.5036 -0.0383
 6417SOL    HW119616   5.302   0.136   1.497 -0.6643 -1.9910 -0.5115
 6417SOL    HW219617   5.282   0.200   1.361 -0.6793  0.1536  0.4502
 6418SOL     OW19618   3.585   3.649   4.975 -0.4292  0.3160 -0.7705
 6418SOL    HW119619   3.606   3.656   5.069 -0.2851  0.9204 -0.8434
 6418SOL    HW219620   3.523   3.720   4.959 -1.8534 -0.8973 -0.7589
 6419SOL     OW19621   3.047   2.734   0.008  0.3016  0.4131  0.4010
 6419SOL    HW119622   3.069   2.675   0.080  0.0302 -0.9364 -0.5862
 6419SOL    HW219623   2.965   2.774   0.035  1.0448  1.2320  1.5820
 6420SOL     OW19624   3.676   2.420   1.970  0.4939  0.6154  0.2408
 6420SOL    HW119625   3.718   2.459   1.894 -0.9171  2.1670  0.1885
 6420SOL    HW219626   3.720   2.460   2.045 -0.2062  1.5113  0.1918
 6421SOL     OW19627   6.256   6.088   4.918  0.0591  0.0402 -0.0602
 6421SOL    HW119628   6.347   6.118   4.918 -0.0869  0.4990 -1.2153
 6421SOL    HW219629   6.253   6.019   4.851  0.3765 -2.6483  2.4713
 6422SOL     OW19630   0.662   6.494   0.077  0.7618 -0.1916 -0.0029
 6422SOL    HW119631   0.582   6.443   0.093 -1.3165  2.7730 -0.1104
 6422SOL    HW219632   0.656   6.521  -0.014  1.0784  1.2875  0.3856
 6423SOL     OW19633   6.438   5.612   1.463  0.4496 -0.0099 -0.1523
 6423SOL    HW119634   6.470   5.693   1.501  1.0785 -0.4020  0.1755
 6423SOL    HW219635   6.348   5.631   1.436  0.8201  0.9951 -0.7156
 6424SOL     OW19636   5.803   5.072   2.758 -0.2348  0.1814  0.1756
 6424SOL    HW119637   5.716   5.038   2.780  0.4102 -0.3288  2.1336
 6424SOL    HW219638   5.788   5.164   2.735 -1.3277 -0.0017  0.1014
 6425SOL     OW19639   1.635   6.145   1.126  0.2055 -0.0780 -0.1303
 6425SOL    HW119640   1.695   6.182   1.060 -1.2554  2.1335 -0.3342
 6425SOL    HW219641   1.665   6.183   1.209  0.0318 -0.2025 -0.0110
 6426SOL     OW19642   3.389   6.310   5.787  0.2756 -0.5403  0.3140
 6426SOL    HW119643   3.435   6.240   5.832  1.0026  0.2823  0.8708
 6426SOL    HW219644   3.355   6.366   5.857  2.5317  1.4743 -0.0784
 6427SOL     OW19645   3.937   3.250   4.438 -0.2311 -0.5063  0.3034
 6427SOL    HW119646   3.943   3.172   4.383  0.6673 -0.4559  0.3246
 6427SOL    HW219647   4.005   3.238   4.504 -1.6911 -0.8823  1.8277
 6428SOL     OW19648   1.631   6.131   1.687  0.0859  0.8457 -0.0883
 6428SOL    HW119649   1.685   6.090   1.754 -1.1993 -2.7852 -1.0109
 6428SOL    HW219650   1.545   6.141   1.728 -0.2342  0.3080 -0.6144
 6429SOL     OW19651   1.040   0.938   4.646  0.1242 -0.1370 -0.5310
 6429SOL    HW119652   1.026   1.027   4.613 -0.9290 -0.0661  0.0692
 6429SOL    HW219653   1.083   0.950   4.731 -0.1035 -0.1924 -0.4066
 6430SOL     OW19654   5.874   5.772   4.493 -0.1325  0.4299  0.4673
 6430SOL    HW119655   5.851   5.742   4.581  0.9653  0.7589  0.8709
 6430SOL    HW219656   5.824   5.714   4.435  0.3578 -0.8464  1.2718
 6431SOL     OW19657   5.095   6.547   3.280 -0.1179  0.2752 -0.5817
 6431SOL    HW119658   5.159   6.506   3.222 -1.7511 -0.8329 -1.6903
 6431SOL    HW219659   5.146   6.578   3.355  1.8347  0.3886 -1.8956
 6432SOL     OW19660   6.707   0.621   3.980 -0.2179  0.0513  0.3880
 6432SOL    HW119661   6.647   0.548   3.990 -0.6168  0.2863 -0.1842
 6432SOL    HW219662   6.702   0.643   3.887  0.4799  0.3111  0.4052
 6433SOL     OW19663   0.202   6.501   5.417 -0.1967  0.1062 -0.1775
 6433SOL    HW119664   0.218   6.421   5.467  0.9306 -0.3844 -1.2737
 6433SOL    HW219665   0.283   6.552   5.428 -0.1736  0.2547 -1.0007
 6434SOL     OW19666   0.421   0.252   4.625 -0.0586 -0.7514 -0.7412
 6434SOL    HW119667   0.340   0.228   4.580  1.0764  0.0590 -3.4189
 6434SOL    HW219668   0.399   0.330   4.675 -1.0654 -0.8775 -0.9788
 6435SOL     OW19669   6.706   2.450   1.782 -0.2110 -0.0910  0.1951
 6435SOL    HW119670   6.730   2.366   1.743 -0.6621 -0.5011  0.7723
 6435SOL    HW219671   6.610   2.449   1.783 -0.2177 -0.3254  1.7559
 6436SOL     OW19672   1.486   4.332   0.003 -0.1586 -0.9206  1.0471
 6436SOL    HW119673   1.434   4.412   0.001  0.9706 -0.0521  3.3479
 6436SOL    HW219674   1.426   4.266   0.037 -0.5292 -0.6058  1.0191
 6437SOL     OW19675   3.440   6.615   3.791 -0.1594 -0.3858  0.1119
 6437SOL    HW119676   3.439   6.592   3.698  0.8910 -1.3863  0.3320
 6437SOL    HW219677   3.348   6.611   3.818 -0.3450 -1.2322 -0.6125
 6438SOL     OW19678   5.769   5.006   3.541 -0.2950  0.0584  0.3767
 6438SOL    HW119679   5.860   4.989   3.519  0.1580  0.9309  1.4273
 6438SOL    HW219680   5.752   4.950   3.617 -0.8363 -0.5606 -0.1909
 6439SOL     OW19681   0.862   3.291   1.938  0.6796 -0.3321 -0.1469
 6439SOL    HW119682   0.815   3.283   1.856 -0.8912 -0.3436  0.7149
 6439SOL    HW219683   0.920   3.215   1.941  1.5912  0.2577 -1.7175
 6440SOL     OW19684   1.769   3.432   2.876  0.3542 -0.6361 -0.1909
 6440SOL    HW119685   1.829   3.506   2.880 -0.4022 -0.0830  2.3472
 6440SOL    HW219686   1.697   3.462   2.822  1.1907 -0.4511 -1.2432
 6441SOL     OW19687   6.178   5.053   2.046  0.2219  0.0378 -0.1833
 6441SOL    HW119688   6.134   5.073   2.128 -1.4476 -0.8267 -0.8268
 6441SOL    HW219689   6.247   5.119   2.040  0.4497  0.0654  1.9308
 6442SOL     OW19690   4.643   0.456   2.222  0.3872  0.3661  0.4972
 6442SOL    HW119691   4.612   0.386   2.280  1.2956 -1.1593 -0.7665
 6442SOL    HW219692   4.722   0.489   2.264  0.6351 -0.2165  0.4918
 6443SOL     OW19693   1.304   6.518   6.667  0.2698  0.5718 -0.0319
 6443SOL    HW119694   1.264   6.594   6.624  0.5568  0.3598 -0.6837
 6443SOL    HW219695   1.347   6.555   6.744  0.7691  1.1422 -0.5701
 6444SOL     OW19696   1.979   5.122   0.730 -0.6432  0.6646  0.0305
 6444SOL    HW119697   1.951   5.112   0.820 -0.7889  1.6218  0.1003
 6444SOL    HW219698   2.059   5.174   0.735 -0.4329  0.3887 -0.3646
 6445SOL     OW19699   6.171   0.062   4.887 -0.8266  0.0367  0.5803
 6445SOL    HW119700   6.151   0.022   4.972  1.1417  1.2458  1.6973
 6445SOL    HW219701   6.203   0.150   4.909  0.1246  0.2262 -1.3890
 6446SOL     OW19702   2.194   0.755   3.603  0.2944  0.0085  0.3013
 6446SOL    HW119703   2.113   0.709   3.627  0.3654 -1.4520 -1.9638
 6446SOL    HW219704   2.242   0.763   3.686 -1.6944 -0.0090  1.5157
 6447SOL     OW19705   4.612   6.027   5.645 -0.2524 -0.0758 -0.0605
 6447SOL    HW119706   4.632   6.088   5.716  1.7415 -0.5982 -0.1022
 6447SOL    HW219707   4.584   5.947   5.688 -1.3956  0.3535  0.0332
 6448SOL     OW19708   1.030   5.999   0.315  0.4033  0.6762 -0.4773
 6448SOL    HW119709   0.997   5.992   0.226 -0.7633  1.6340 -0.1341
 6448SOL    HW219710   1.126   6.000   0.305  0.3354 -0.8639 -1.5740
 6449SOL     OW19711   3.947   5.944   6.592 -0.2980 -0.5936  0.6929
 6449SOL    HW119712   3.922   5.855   6.565  0.8390 -0.3797 -1.2416
 6449SOL    HW219713   3.950   5.994   6.510  0.9004  0.7685  1.5221
 6450SOL     OW19714   4.336   1.502   0.313  0.1806 -0.0695  0.3372
 6450SOL    HW119715   4.374   1.590   0.313  1.1455 -0.4714  0.8078
 6450SOL    HW219716   4.385   1.454   0.247 -0.5583 -0.1867 -0.1465
 6451SOL     OW19717   1.162   4.065   0.764 -0.4369 -0.4363 -0.2756
 6451SOL    HW119718   1.114   4.123   0.705 -0.2012 -0.8011 -0.8320
 6451SOL    HW219719   1.249   4.058   0.724 -0.5804 -1.4775 -0.4237
 6452SOL     OW19720   1.968   3.745   4.474  0.7737 -0.0947 -0.1716
 6452SOL    HW119721   2.009   3.754   4.560  1.0421  1.2291 -0.4154
 6452SOL    HW219722   1.948   3.835   4.447  0.8898 -0.4675 -1.5904
 6453SOL     OW19723   1.197   0.570   1.943 -0.0398 -0.4551  0.3339
 6453SOL    HW119724   1.182   0.501   1.878  1.4311 -0.4252 -0.0605
 6453SOL    HW219725   1.174   0.651   1.897  0.0814 -0.5138  0.1688
 6454SOL     OW19726   6.062   1.753   3.088  0.0394 -0.3651 -0.1748
 6454SOL    HW119727   6.131   1.802   3.043 -0.2307  1.7097  1.5090
 6454SOL    HW219728   6.096   1.739   3.177 -1.1711 -0.4636  0.2970
 6455SOL     OW19729   0.391   3.084   5.980 -0.0065  0.0496 -0.0891
 6455SOL    HW119730   0.412   3.128   5.898 -0.2479 -1.2832 -0.8946
 6455SOL    HW219731   0.447   3.127   6.045  0.7010  0.6612 -1.0715
 6456SOL     OW19732   4.343   3.924   4.066 -0.7351 -0.0682  0.4618
 6456SOL    HW119733   4.430   3.960   4.083 -1.0910  1.3054 -0.4954
 6456SOL    HW219734   4.360   3.838   4.027  0.1634 -0.1584  1.0095
 6457SOL     OW19735   3.106   0.223   3.133 -0.5451 -0.2952  0.1693
 6457SOL    HW119736   3.093   0.202   3.041 -3.0310 -1.1721  0.6498
 6457SOL    HW219737   3.183   0.173   3.159  1.1129  1.1134 -1.7317
 6458SOL     OW19738   2.093   5.007   5.617  0.0881 -0.4276 -0.6267
 6458SOL    HW119739   2.056   5.093   5.601  0.2290 -0.1473  0.4913
 6458SOL    HW219740   2.113   4.973   5.530  0.3666  0.8166 -1.0635
 6459SOL     OW19741   2.882   4.474   5.404  0.2620  0.0733 -0.1676
 6459SOL    HW119742   2.844   4.388   5.424  1.5511 -0.4572  0.1225
 6459SOL    HW219743   2.878   4.521   5.488 -0.8620  0.4867 -0.4341
 6460SOL     OW19744   6.134   6.500   5.251 -0.0056 -0.3122  0.1963
 6460SOL    HW119745   6.095   6.423   5.292 -1.1641  1.3034  2.3774
 6460SOL    HW219746   6.225   6.500   5.280  0.3993 -1.5536 -0.9795
 6461SOL     OW19747   6.415   0.790   6.532 -0.3323  0.2747 -0.1053
 6461SOL    HW119748   6.391   0.821   6.620  0.1253 -0.1871  0.1919
 6461SOL    HW219749   6.394   0.696   6.533 -0.7072  0.3495 -0.6311
 6462SOL     OW19750   0.440   5.790   6.222  0.5455 -0.4797 -0.4442
 6462SOL    HW119751   0.363   5.762   6.271 -0.0269  1.0664 -0.4075
 6462SOL    HW219752   0.405   5.834   6.144  1.3538  0.5911 -0.2326
 6463SOL     OW19753   1.975   5.528   0.825 -0.3589  0.3375 -0.0761
 6463SOL    HW119754   1.952   5.520   0.918  1.2853  1.3225  0.4414
 6463SOL    HW219755   2.061   5.569   0.824  0.4834 -1.2998 -1.9974
 6464SOL     OW19756   2.572   1.686   0.460 -0.1209 -0.0952 -0.2967
 6464SOL    HW119757   2.634   1.626   0.501 -1.2440 -1.9104 -1.1231
 6464SOL    HW219758   2.626   1.747   0.410  1.0703 -0.1651  0.8647
 6465SOL     OW19759   0.074   3.593   4.953  0.4911  0.1732  0.0036
 6465SOL    HW119760   0.156   3.591   4.904  0.0992  1.1745 -0.7447
 6465SOL    HW219761   0.046   3.685   4.948 -0.8306 -0.2063 -0.0532
 6466SOL     OW19762   5.023   5.209   3.483  0.0671 -0.1254 -0.6702
 6466SOL    HW119763   4.944   5.260   3.465  0.6270  0.6220 -1.0269
 6466SOL    HW219764   4.993   5.138   3.541 -0.5004  1.3069  0.8736
 6467SOL     OW19765   3.561   1.285   5.132  0.2781 -0.5838 -0.2219
 6467SOL    HW119766   3.559   1.372   5.092  0.3739  0.2980  1.5848
 6467SOL    HW219767   3.489   1.286   5.195 -1.0371 -2.5716 -1.5565
 6468SOL     OW19768   0.157   0.827   0.621  0.1883  0.0532  0.3792
 6468SOL    HW119769   0.227   0.784   0.573 -1.7820 -1.5887 -1.2061
 6468SOL    HW219770   0.168   0.797   0.711  1.2494 -0.5455  0.0656
 6469SOL     OW19771   4.496   5.773   2.596 -0.4030 -0.6042  0.4071
 6469SOL    HW119772   4.495   5.677   2.593 -0.5420 -0.5951  0.1476
 6469SOL    HW219773   4.412   5.796   2.637 -0.0018 -0.6182  1.2600
 6470SOL     OW19774   6.451   0.296   3.183  0.1413  0.1813 -0.3286
 6470SOL    HW119775   6.450   0.201   3.193 -0.9582 -0.1275 -2.8227
 6470SOL    HW219776   6.533   0.314   3.137  1.0150  0.6596  1.3073
 6471SOL     OW19777   5.774   6.405   5.971  0.2670 -0.2563  0.5242
 6471SOL    HW119778   5.804   6.316   5.988  0.6279  0.3254  3.6335
 6471SOL    HW219779   5.850   6.450   5.935  0.6856 -0.7249  0.8122
 6472SOL     OW19780   0.264   4.307   3.183  0.2570  0.2192 -0.0657
 6472SOL    HW119781   0.270   4.213   3.195 -0.0947  0.0230 -1.2892
 6472SOL    HW219782   0.255   4.342   3.271 -0.8826 -0.9894  0.3284
 6473SOL     OW19783   5.681   5.247   0.889 -0.7649 -0.3064 -0.5953
 6473SOL    HW119784   5.776   5.248   0.878 -0.5932  2.4951  0.3126
 6473SOL    HW219785   5.668   5.229   0.982 -1.0374  0.5754 -0.4535
 6474SOL     OW19786   3.757   6.541   1.891  0.0048 -0.1318  0.2768
 6474SOL    HW119787   3.806   6.620   1.917  0.0959 -0.1675  0.2140
 6474SOL    HW219788   3.819   6.469   1.905  0.6319  0.0032 -1.5568
 6475SOL     OW19789   6.647   5.552   3.206 -0.3078 -0.1205  0.3210
 6475SOL    HW119790   6.636   5.602   3.126 -3.8196 -2.0490 -0.6424
 6475SOL    HW219791   6.697   5.475   3.180 -1.7777 -0.9399 -0.2379
 6476SOL     OW19792   3.676   6.498   3.612  0.4336  0.0398  0.1873
 6476SOL    HW119793   3.764   6.523   3.641  1.2002  0.5454 -2.3392
 6476SOL    HW219794   3.661   6.413   3.652  1.7095  0.3291  1.3473
 6477SOL     OW19795   1.315   1.756   6.015 -0.2768 -0.1909 -0.3742
 6477SOL    HW119796   1.249   1.742   6.084  1.1210 -1.0495  0.8605
 6477SOL    HW219797   1.362   1.834   6.043 -0.1238 -0.1635 -0.7109
 6478SOL     OW19798   5.199   0.523   0.512 -0.1193  0.2858  0.6439
 6478SOL    HW119799   5.176   0.564   0.428 -1.6266 -0.9519  0.3947
 6478SOL    HW219800   5.270   0.576   0.546 -0.7887  2.0170 -0.4941
 6479SOL     OW19801   6.620   0.934   1.643 -0.1492  0.4777  0.0571
 6479SOL    HW119802   6.549   0.893   1.593  1.7135 -0.4329 -2.0228
 6479SOL    HW219803   6.613   1.027   1.623  1.1108  0.0578 -2.8772
 6480SOL     OW19804   6.430   3.601   1.768  0.0496 -0.1322  0.0070
 6480SOL    HW119805   6.372   3.554   1.828 -0.3547  0.1807 -0.1390
 6480SOL    HW219806   6.393   3.689   1.762 -0.3242 -0.3606 -1.2587
 6481SOL     OW19807   2.049   6.349   1.328  0.6193  0.1319 -0.0864
 6481SOL    HW119808   2.127   6.370   1.278  0.9283  0.3697  0.4923
 6481SOL    HW219809   2.041   6.418   1.393 -0.4108  0.4407 -0.5118
 6482SOL     OW19810   5.120   4.375   4.447  0.2778 -0.2356  0.4269
 6482SOL    HW119811   5.210   4.394   4.420 -0.6531  1.3859 -1.8167
 6482SOL    HW219812   5.112   4.417   4.533  1.9387 -1.3301  1.1548
 6483SOL     OW19813   3.626   5.016   5.921 -0.1997  0.2492  0.3417
 6483SOL    HW119814   3.681   5.081   5.879 -0.9338  0.1671 -0.7973
 6483SOL    HW219815   3.562   5.067   5.971  2.0932  0.3573  3.4324
 6484SOL     OW19816   0.867   5.338   5.629  0.4170 -0.0069  0.2085
 6484SOL    HW119817   0.850   5.292   5.710  0.0377 -0.2609 -0.0150
 6484SOL    HW219818   0.893   5.426   5.656  1.3197 -0.3914  0.6441
 6485SOL     OW19819   3.575   6.184   5.632  0.0316 -0.0200  0.6218
 6485SOL    HW119820   3.505   6.228   5.680 -0.0712 -0.0341  0.4877
 6485SOL    HW219821   3.592   6.241   5.556 -1.6914 -1.3054 -0.8196
 6486SOL     OW19822   6.695   3.704   0.773  0.3729  0.0640 -0.3268
 6486SOL    HW119823   6.739   3.789   0.776 -3.0502  1.9806  0.7642
 6486SOL    HW219824   6.716   3.664   0.857 -0.5256  1.3164  0.5337
 6487SOL     OW19825   2.470   0.702   1.652  0.4251  0.2785  0.0765
 6487SOL    HW119826   2.390   0.676   1.607  0.3083  0.8176 -0.0350
 6487SOL    HW219827   2.477   0.796   1.636  0.4148  0.4744  1.1388
 6488SOL     OW19828   1.022   4.544   6.689 -0.3840  0.1072  0.2145
 6488SOL    HW119829   0.935   4.580   6.678 -0.6354 -0.5685 -0.0355
 6488SOL    HW219830   1.037   4.546   6.783  0.1432  2.0920  0.1220
 6489SOL     OW19831   4.150   1.279   6.362  0.3629  0.2084  0.3758
 6489SOL    HW119832   4.154   1.355   6.304 -0.8960  0.7194  0.9111
 6489SOL    HW219833   4.156   1.316   6.450 -1.0481 -0.2149  0.6699
 6490SOL     OW19834   2.775   5.335   2.639  0.0322 -0.3334  0.7955
 6490SOL    HW119835   2.740   5.421   2.617  0.9780 -0.2388 -0.4635
 6490SOL    HW219836   2.744   5.277   2.570  0.8392 -0.6250  0.6677
 6491SOL     OW19837   5.118   2.979   2.494  0.3399  0.0535 -0.1199
 6491SOL    HW119838   5.172   2.900   2.482  1.4751  0.9616 -1.2074
 6491SOL    HW219839   5.179   3.052   2.483 -0.6415  1.1107  1.1322
 6492SOL     OW19840   1.651   2.185   1.016 -0.1941 -0.4069 -0.5086
 6492SOL    HW119841   1.563   2.181   0.979 -0.8820 -0.9293  1.1115
 6492SOL    HW219842   1.666   2.277   1.034  0.0588 -0.1736 -1.7980
 6493SOL     OW19843   1.194   4.637   4.241  0.0294  0.1943 -0.0848
 6493SOL    HW119844   1.241   4.700   4.296  0.1022 -0.7441  0.9575
 6493SOL    HW219845   1.121   4.608   4.296 -1.1293  0.7718 -1.2566
 6494SOL     OW19846   3.357   3.963   6.155 -0.4525 -0.1980 -0.4443
 6494SOL    HW119847   3.443   3.952   6.114  0.8059  2.8727  1.0013
 6494SOL    HW219848   3.313   4.030   6.103 -1.4861 -0.8836 -0.4724
 6495SOL     OW19849   4.855   4.786   0.601  0.0522  0.7586  0.2089
 6495SOL    HW119850   4.781   4.825   0.554 -0.5711 -1.9018 -1.2197
 6495SOL    HW219851   4.820   4.766   0.689 -0.2434  1.4771  0.2587
 6496SOL     OW19852   4.624   1.738   4.868  0.5701 -0.1153  0.1477
 6496SOL    HW119853   4.678   1.670   4.829  0.8950  0.8332 -1.1092
 6496SOL    HW219854   4.605   1.798   4.796 -1.3631  0.0893  0.7658
 6497SOL     OW19855   4.987   4.378   1.408 -0.5604  0.0466  0.2916
 6497SOL    HW119856   5.051   4.372   1.337 -0.7089  1.9204 -0.0562
 6497SOL    HW219857   4.908   4.414   1.366 -1.0936 -0.1008  1.1508
 6498SOL     OW19858   0.384   1.788   3.501 -0.2745 -0.2148 -0.1129
 6498SOL    HW119859   0.476   1.788   3.530 -0.3987  0.5506  0.3031
 6498SOL    HW219860   0.387   1.751   3.412  0.2859 -1.2865  0.3319
 6499SOL     OW19861   0.738   3.022   4.823  0.4401 -0.6597  0.4675
 6499SOL    HW119862   0.736   2.971   4.742  1.5529 -1.8635  1.1641
 6499SOL    HW219863   0.813   2.986   4.872 -0.8205 -0.6749  2.4770
 6500SOL     OW19864   3.570   0.884   3.874  0.3323 -0.1389 -0.1704
 6500SOL    HW119865   3.489   0.931   3.895  0.1236 -0.0421 -1.1718
 6500SOL    HW219866   3.616   0.941   3.813  1.6914  0.3127  1.2126
 6501SOL     OW19867   5.731   4.494   0.150  0.0125  0.1594  0.2641
 6501SOL    HW119868   5.653   4.440   0.161  0.8272 -0.7955  1.7765
 6501SOL    HW219869   5.738   4.509   0.056 -2.5055  1.0849  0.1466
 6502SOL     OW19870   6.024   1.609   5.090 -0.3954  0.2973  0.2757
 6502SOL    HW119871   5.987   1.693   5.066 -1.1259  0.8776  3.0884
 6502SOL    HW219872   6.106   1.630   5.135  0.6388 -0.6872 -1.0310
 6503SOL     OW19873   3.545   6.372   3.316  0.1152  0.4231 -0.1930
 6503SOL    HW119874   3.486   6.434   3.359 -0.3481  0.0223 -0.2415
 6503SOL    HW219875   3.588   6.423   3.247 -0.1195  0.7326 -0.1108
 6504SOL     OW19876   1.081   0.124   3.030  0.0084 -0.4266 -0.4260
 6504SOL    HW119877   1.129   0.048   3.063 -1.8536 -0.8442  1.5405
 6504SOL    HW219878   1.086   0.188   3.101  0.1831  0.6762 -1.4096
 6505SOL     OW19879   6.444   2.781   2.188 -0.1698 -0.0195  0.4859
 6505SOL    HW119880   6.356   2.744   2.200 -0.9694  1.2985 -1.0164
 6505SOL    HW219881   6.472   2.750   2.102 -0.6300  2.2398 -0.5726
 6506SOL     OW19882   3.881   0.398   4.543 -0.4296  0.1790  0.3740
 6506SOL    HW119883   3.851   0.315   4.581 -1.3197 -0.1744 -1.0260
 6506SOL    HW219884   3.895   0.378   4.450  0.8730  1.2147  0.3271
 6507SOL     OW19885   0.133   1.407   6.109 -0.1334 -0.1917 -1.0711
 6507SOL    HW119886   0.133   1.449   6.194  0.2134  1.4908 -1.8693
 6507SOL    HW219887   0.208   1.347   6.111 -1.6110 -2.1229  0.6711
 6508SOL     OW19888   2.840   5.025   2.111  0.4880 -0.0788 -0.1547
 6508SOL    HW119889   2.855   5.119   2.119  1.6167 -0.2153 -0.3618
 6508SOL    HW219890   2.768   5.017   2.049  1.9673  0.6388 -2.0905
 6509SOL     OW19891   0.823   0.011   3.890  0.1791  0.2031  0.0747
 6509SOL    HW119892   0.915  -0.014   3.895 -0.2202 -1.2047  1.1049
 6509SOL    HW219893   0.795   0.021   3.981 -0.8805 -0.2111 -0.1833
 6510SOL     OW19894   6.446   3.272   0.344  0.0466 -0.3796 -0.0108
 6510SOL    HW119895   6.483   3.243   0.261  1.5817  1.3059  0.0421
 6510SOL    HW219896   6.383   3.340   0.320  0.2308 -0.1413  0.1706
 6511SOL     OW19897   0.240   5.245   4.352  0.1610  0.2835 -0.5805
 6511SOL    HW119898   0.299   5.209   4.418  1.2742  2.1972 -0.4536
 6511SOL    HW219899   0.298   5.273   4.281 -0.7717  0.6904 -1.1981
 6512SOL     OW19900   0.910   1.917   2.087 -0.3324 -0.0565  0.8107
 6512SOL    HW119901   0.880   1.826   2.095 -0.1894 -0.0970  0.8857
 6512SOL    HW219902   0.919   1.931   1.993  0.5058 -0.3998  0.8332
 6513SOL     OW19903   4.227   1.033   5.924 -0.4550  0.0999  0.0477
 6513SOL    HW119904   4.204   0.967   5.989  0.6464  1.1764  1.6149
 6513SOL    HW219905   4.152   1.092   5.922 -0.6969 -0.2116 -0.0206
 6514SOL     OW19906   5.852   1.053   1.551  0.2259  0.3471  0.6666
 6514SOL    HW119907   5.839   0.960   1.534  1.3708  0.2582  0.1613
 6514SOL    HW219908   5.946   1.060   1.571  0.0462  1.3160  1.2355
 6515SOL     OW19909   6.470   6.329   3.807  0.2947 -0.6849 -0.0122
 6515SOL    HW119910   6.469   6.289   3.721 -1.1765 -2.7715  0.8956
 6515SOL    HW219911   6.560   6.319   3.837  1.7569  3.0400 -2.4692
 6516SOL     OW19912   2.567   0.001   1.818  0.9607  0.0219  0.1477
 6516SOL    HW119913   2.610   0.070   1.868  1.7082 -0.4409  0.1587
 6516SOL    HW219914   2.479   0.034   1.802  1.0704  0.6544  0.8059
 6517SOL     OW19915   0.487   6.449   1.925 -0.3888 -0.0454  0.1783
 6517SOL    HW119916   0.437   6.464   1.845 -1.8210 -0.8292  0.8956
 6517SOL    HW219917   0.430   6.480   1.995  1.4780  2.1444  0.8623
 6518SOL     OW19918   4.739   2.899   3.736  0.2343 -0.1855 -0.0177
 6518SOL    HW119919   4.724   2.804   3.730 -0.0581 -0.0830 -1.1408
 6518SOL    HW219920   4.651   2.937   3.727  0.2930  0.1878  0.8828
 6519SOL     OW19921   3.397   2.855   5.142  0.2397  0.1274  0.0084
 6519SOL    HW119922   3.475   2.872   5.089 -0.5497 -0.2812 -1.3245
 6519SOL    HW219923   3.325   2.890   5.090 -0.6718 -1.2668  0.2979
 6520SOL     OW19924   6.486   4.070   0.440 -0.3885  0.1792  0.7700
 6520SOL    HW119925   6.516   3.981   0.426 -1.5295 -0.0680 -0.2361
 6520SOL    HW219926   6.564   4.124   0.424 -0.4536 -0.4146 -2.1151
 6521SOL     OW19927   4.532   2.449   4.040 -0.0172 -0.2656 -0.4829
 6521SOL    HW119928   4.480   2.498   3.976  1.0908 -0.5089 -1.5892
 6521SOL    HW219929   4.594   2.513   4.076 -1.4558  0.2025  1.3544
 6522SOL     OW19930   0.329   1.737   5.402  0.2465  0.0235 -0.4459
 6522SOL    HW119931   0.283   1.747   5.318 -1.1300 -0.5961  0.2109
 6522SOL    HW219932   0.422   1.730   5.377  0.0011  1.0830 -1.8194
 6523SOL     OW19933   6.518   1.759   2.617 -0.2115 -0.0993 -0.2157
 6523SOL    HW119934   6.458   1.741   2.690 -0.2329 -0.1940 -0.2568
 6523SOL    HW219935   6.594   1.800   2.659 -0.5544  0.5567 -0.2393
 6524SOL     OW19936   0.094   5.073   1.068 -0.1195  0.4772 -0.0414
 6524SOL    HW119937   0.013   5.106   1.107  0.0935  1.7344 -0.6244
 6524SOL    HW219938   0.137   5.025   1.139 -1.6298 -0.6962  0.1191
 6525SOL     OW19939   5.154   6.571   3.565  0.2835  0.5634  0.0622
 6525SOL    HW119940   5.093   6.644   3.568  0.2652  0.6265 -1.2517
 6525SOL    HW219941   5.143   6.526   3.649  0.7985  2.4599  1.2072
 6526SOL     OW19942   5.583   3.888   6.219  0.4373  0.2983  0.3653
 6526SOL    HW119943   5.521   3.878   6.292  1.0983  0.0430  0.9005
 6526SOL    HW219944   5.634   3.807   6.219 -0.8280 -0.5657 -1.6180
 6527SOL     OW19945   5.571   1.639   0.001 -0.0179 -0.3460  0.4468
 6527SOL    HW119946   5.547   1.590  -0.078 -0.4755  0.6001 -0.0268
 6527SOL    HW219947   5.490   1.642   0.052 -0.1894  0.5377  0.1276
 6528SOL     OW19948   6.314   1.262   0.676 -0.8703 -0.3652 -0.3107
 6528SOL    HW119949   6.353   1.323   0.613  0.3338  0.7012  1.3755
 6528SOL    HW219950   6.252   1.210   0.625  0.0656  0.4387 -2.3538
 6529SOL     OW19951   4.151   3.921   3.273  0.3247  0.0507  0.3283
 6529SOL    HW119952   4.211   3.855   3.237  0.1619  1.3153 -2.4365
 6529SOL    HW219953   4.208   3.994   3.298  0.0526  1.2226 -2.2304
 6530SOL     OW19954   0.499   0.221   1.515 -0.1862 -0.2234 -0.1647
 6530SOL    HW119955   0.513   0.131   1.484 -0.1244 -0.5189  0.6782
 6530SOL    HW219956   0.469   0.210   1.606  2.2430  0.6436  0.8313
 6531SOL     OW19957   0.680   0.030   5.142 -0.1658 -0.3838  0.1998
 6531SOL    HW119958   0.649  -0.061   5.147 -0.5974 -0.2378  0.2096
 6531SOL    HW219959   0.663   0.066   5.229  3.4265 -1.3570  1.4960
 6532SOL     OW19960   2.401   3.090   2.030  0.2040 -0.4013 -0.4161
 6532SOL    HW119961   2.316   3.132   2.042 -0.5791 -1.7170 -1.1103
 6532SOL    HW219962   2.433   3.124   1.946  0.5395  0.3784  0.0265
 6533SOL     OW19963   5.807   0.743   1.829 -0.6813  0.6970  0.2780
 6533SOL    HW119964   5.761   0.659   1.824 -0.3960  0.5848 -0.8217
 6533SOL    HW219965   5.827   0.754   1.921  2.1180 -2.0347  0.1692
 6534SOL     OW19966   0.089   2.700   5.288 -0.5498  0.4275 -0.7376
 6534SOL    HW119967   0.102   2.794   5.300 -2.7227  0.4916  1.8515
 6534SOL    HW219968  -0.001   2.684   5.315 -0.3971 -2.3751 -1.5445
 6535SOL     OW19969   1.690   1.978   1.874 -0.0315 -0.0575 -0.2195
 6535SOL    HW119970   1.764   2.036   1.891 -0.5919  0.9097 -1.0334
 6535SOL    HW219971   1.715   1.930   1.795 -0.5681  0.8064 -0.9306
 6536SOL     OW19972   6.781   5.791   3.802  0.0221 -0.1723  0.2936
 6536SOL    HW119973   6.822   5.863   3.754  0.6877 -0.0828  0.9817
 6536SOL    HW219974   6.850   5.725   3.811 -0.3679 -0.5867  0.3174
 6537SOL     OW19975   0.974   4.221   4.585 -0.5843  0.2411 -0.5704
 6537SOL    HW119976   0.976   4.144   4.529 -0.0671  0.2428 -0.5558
 6537SOL    HW219977   0.882   4.228   4.613 -0.9224  0.4456 -1.6921
 6538SOL     OW19978   0.166   2.711   4.911 -0.3634 -0.6897  0.3413
 6538SOL    HW119979   0.125   2.636   4.866  0.4848 -1.3528  0.6461
 6538SOL    HW219980   0.108   2.730   4.984 -2.0732  0.7678 -1.3069
 6539SOL     OW19981   3.674   4.847   0.525 -0.3196  0.3248  0.5145
 6539SOL    HW119982   3.713   4.761   0.509 -1.5669 -0.2039  0.2056
 6539SOL    HW219983   3.720   4.880   0.603 -0.4577 -1.0183  1.1856
 6540SOL     OW19984   3.535   4.321   6.724  0.7283 -0.1225 -0.1567
 6540SOL    HW119985   3.548   4.265   6.801  1.2003  0.0433 -0.1084
 6540SOL    HW219986   3.471   4.386   6.751  0.4614 -0.4147 -0.0891
 6541SOL     OW19987   5.651   3.280   1.030 -0.4172 -0.5464  0.5514
 6541SOL    HW119988   5.600   3.205   1.062 -1.5257 -0.1572 -0.2212
 6541SOL    HW219989   5.643   3.276   0.935  0.0244  0.2071  0.4739
 6542SOL     OW19990   1.200   4.621   1.324  0.4594 -0.4941 -0.0187
 6542SOL    HW119991   1.267   4.560   1.355 -0.1260 -0.8493  0.5649
 6542SOL    HW219992   1.212   4.699   1.378 -0.8727 -1.2872  1.5114
 6543SOL     OW19993   3.385   6.222   1.368 -0.3012 -0.0468 -0.1681
 6543SOL    HW119994   3.415   6.133   1.387 -0.7586 -0.3193 -0.6764
 6543SOL    HW219995   3.289   6.216   1.371 -0.3474  0.2991 -0.7498
 6544SOL     OW19996   2.203   0.888   4.462 -0.1073 -0.2490 -0.1789
 6544SOL    HW119997   2.295   0.916   4.466 -0.6844  1.6154  1.1766
 6544SOL    HW219998   2.205   0.811   4.405  2.4439 -0.8919  0.6184
 6545SOL     OW19999   4.642   3.375   0.846  0.2014 -0.6146  0.3861
 6545SOL    HW120000   4.667   3.420   0.926 -0.6010 -0.4821  0.5742
 6545SOL    HW220001   4.564   3.325   0.870 -1.4914  1.2587 -0.8559
 6546SOL     OW20002   1.836   1.346   0.018  0.3620  0.2024 -0.0849
 6546SOL    HW120003   1.852   1.252   0.017  2.2163  0.4555 -2.1777
 6546SOL    HW220004   1.763   1.359  -0.043  1.2895  0.2228 -1.2379
 6547SOL     OW20005   6.023   0.732   6.294 -0.2676  0.3927  0.1439
 6547SOL    HW120006   6.015   0.646   6.337  1.9099 -0.4108 -0.9040
 6547SOL    HW220007   6.050   0.791   6.365 -1.0977  0.0701  0.7454
 6548SOL     OW20008   4.970   2.443   6.298  0.5948 -0.3981 -0.4818
 6548SOL    HW120009   5.045   2.385   6.287  1.7147  0.7643  0.7782
 6548SOL    HW220010   5.008   2.527   6.322 -1.1035  0.2703 -0.0238
 6549SOL     OW20011   2.677   6.044   2.801 -0.1046  0.1566  0.3023
 6549SOL    HW120012   2.739   6.046   2.874  2.9037  1.2909 -2.0935
 6549SOL    HW220013   2.660   6.136   2.782 -0.0730 -0.0957 -1.0120
 6550SOL     OW20014   6.741   0.944   6.757  0.2199  0.2575  0.4689
 6550SOL    HW120015   6.742   0.967   6.664  1.2133  0.7431  0.5896
 6550SOL    HW220016   6.816   0.886   6.768 -0.4933 -0.6429  0.7826
 6551SOL     OW20017   0.710   5.642   0.984  0.6024  0.2566  0.4421
 6551SOL    HW120018   0.632   5.605   0.942 -0.2400  0.5226  1.7357
 6551SOL    HW220019   0.727   5.585   1.058 -0.2622  1.9504  2.0178
 6552SOL     OW20020   0.989   4.630   1.538 -0.2371 -0.2826 -0.6197
 6552SOL    HW120021   1.050   4.678   1.481 -0.1021  0.8722  0.4684
 6552SOL    HW220022   0.905   4.674   1.524 -0.1424  0.1958  0.2789
 6553SOL     OW20023   3.668   3.186   4.492  0.6187  0.7456  0.6080
 6553SOL    HW120024   3.761   3.183   4.470  0.1336 -0.0016 -1.5802
 6553SOL    HW220025   3.625   3.139   4.421 -1.6006  2.5548  0.6209
 6554SOL     OW20026   6.261   3.752   4.291 -0.2618  0.1829  0.2571
 6554SOL    HW120027   6.309   3.755   4.208  0.9957 -0.1121  0.9353
 6554SOL    HW220028   6.238   3.843   4.309  0.3232  0.3751  0.0551
 6555SOL     OW20029   3.780   5.868   1.115 -0.3642  0.3469  0.1572
 6555SOL    HW120030   3.838   5.813   1.168 -1.2829 -0.8326 -0.0336
 6555SOL    HW220031   3.708   5.810   1.091 -2.1692  2.0433  1.2269
 6556SOL     OW20032   1.782   6.656   6.786  0.3915  0.0022  0.0271
 6556SOL    HW120033   1.851   6.601   6.748  1.7589  0.4325  1.7302
 6556SOL    HW220034   1.714   6.594   6.811  0.3890 -0.5073 -1.1881
 6557SOL     OW20035   3.907   6.217   1.857  0.0457 -0.0113 -0.1182
 6557SOL    HW120036   3.990   6.260   1.835 -0.6421  0.7203 -1.4563
 6557SOL    HW220037   3.874   6.185   1.773 -1.2072  0.0350  0.3335
 6558SOL     OW20038   6.734   1.781   1.222 -0.6954  0.6609  0.1144
 6558SOL    HW120039   6.663   1.777   1.158 -0.8001 -1.1279  0.2934
 6558SOL    HW220040   6.813   1.758   1.172 -0.8278 -1.0672  0.6714
 6559SOL     OW20041   1.808   0.751   2.416 -0.1818 -0.4977 -0.1341
 6559SOL    HW120042   1.735   0.715   2.466 -1.2227  1.9394  0.2402
 6559SOL    HW220043   1.886   0.716   2.459 -1.0933 -1.6926  0.6110
 6560SOL     OW20044   6.168   6.167   1.632 -0.1190 -0.0865 -0.2873
 6560SOL    HW120045   6.074   6.185   1.625 -0.2707 -0.6383  0.2748
 6560SOL    HW220046   6.208   6.253   1.646 -0.2631  0.5177 -2.9895
 6561SOL     OW20047   1.094   3.033   1.694 -0.4945  0.7845 -0.0541
 6561SOL    HW120048   1.116   3.045   1.786  1.1440  2.1558 -0.5782
 6561SOL    HW220049   1.158   2.969   1.662 -1.2344  0.0997 -0.1950
 6562SOL     OW20050   0.149   2.735   3.482 -0.0161 -0.6682  0.1262
 6562SOL    HW120051   0.116   2.824   3.492  0.2103 -0.5394 -0.2767
 6562SOL    HW220052   0.130   2.693   3.567 -1.0871 -0.5592 -0.0422
 6563SOL     OW20053   4.235   0.040   1.082 -0.1167 -0.6157 -0.2031
 6563SOL    HW120054   4.237   0.076   1.171 -0.0466 -1.3844  0.1167
 6563SOL    HW220055   4.293  -0.036   1.086  0.2870 -0.3671 -1.0420
 6564SOL     OW20056   1.224   3.343   5.367  0.5192  0.2206 -0.6829
 6564SOL    HW120057   1.179   3.264   5.395  0.0897  1.2605  1.7474
 6564SOL    HW220058   1.159   3.393   5.318 -0.5613  0.9634  1.4112
 6565SOL     OW20059   6.554   6.554   4.597 -0.4956  0.2521 -0.3017
 6565SOL    HW120060   6.637   6.510   4.581 -0.6424 -0.5493  0.9824
 6565SOL    HW220061   6.517   6.508   4.672 -2.1077  0.5938 -0.8537
 6566SOL     OW20062   6.763   1.803   2.784  0.5454 -0.2268  0.0663
 6566SOL    HW120063   6.762   1.709   2.800 -0.7314 -0.3250 -0.4501
 6566SOL    HW220064   6.854   1.823   2.762  0.8318 -1.3366  0.1854
 6567SOL     OW20065   1.103   6.382   1.716  0.2332  0.0008  0.2589
 6567SOL    HW120066   1.074   6.333   1.793  0.4587  1.1231  1.0963
 6567SOL    HW220067   1.170   6.442   1.749 -0.2538  1.0946 -0.6399
 6568SOL     OW20068   3.266   3.307   2.111 -0.6280  0.2446 -0.1541
 6568SOL    HW120069   3.231   3.219   2.121 -0.5654  0.2568  0.2186
 6568SOL    HW220070   3.283   3.316   2.018  1.8901 -1.1424  0.0669
 6569SOL     OW20071   0.869   4.028   0.916 -0.1270  0.1184  0.4840
 6569SOL    HW120072   0.937   4.037   0.849 -1.2106  1.2360 -0.5037
 6569SOL    HW220073   0.879   3.938   0.947  1.2821  0.0079 -0.1959
 6570SOL     OW20074   1.330   0.710   2.451  0.0327 -0.1323 -0.0527
 6570SOL    HW120075   1.295   0.700   2.363 -1.6202 -2.2286  0.7768
 6570SOL    HW220076   1.364   0.624   2.474  1.7513  0.7348  0.8796
 6571SOL     OW20077   6.611   0.302   4.586 -0.9378 -0.3213  0.1288
 6571SOL    HW120078   6.673   0.250   4.638 -1.3596  0.4477  1.4433
 6571SOL    HW220079   6.526   0.264   4.606 -1.1105  0.0312  0.0677
 6572SOL     OW20080   1.550   4.498   3.039  0.5948 -0.0509  0.0339
 6572SOL    HW120081   1.628   4.468   2.991  0.3745 -1.7203  0.6549
 6572SOL    HW220082   1.492   4.422   3.041 -1.6351  1.5058 -1.4747
 6573SOL     OW20083   4.395   3.553   6.678 -0.4055 -0.0402 -0.4538
 6573SOL    HW120084   4.386   3.518   6.767  1.4437 -0.9722 -0.5843
 6573SOL    HW220085   4.321   3.516   6.630  0.0935 -1.7874  0.0510
 6574SOL     OW20086   2.482   2.006   1.295  0.3479 -0.6938 -0.4659
 6574SOL    HW120087   2.559   1.973   1.249 -0.6099 -1.0443 -1.8898
 6574SOL    HW220088   2.465   2.092   1.255 -0.9332 -1.3261 -1.3395
 6575SOL     OW20089   5.052   3.308   3.964 -0.0703 -0.3069 -0.3425
 6575SOL    HW120090   5.142   3.275   3.966  0.0666  0.0347 -0.7876
 6575SOL    HW220091   4.999   3.229   3.954  0.0343 -0.7306  1.8258
 6576SOL     OW20092   6.655   4.262   3.951  0.1879 -0.1333  0.2435
 6576SOL    HW120093   6.694   4.316   4.020  1.6079 -2.1987  1.1606
 6576SOL    HW220094   6.613   4.325   3.892  1.5816  1.9305  1.3213
 6577SOL     OW20095   4.220   5.764   2.432  0.6583  0.6932  0.1644
 6577SOL    HW120096   4.201   5.712   2.510  2.0350 -0.3043 -0.1394
 6577SOL    HW220097   4.308   5.738   2.406 -0.1437  0.1754 -2.3510
 6578SOL     OW20098   3.450   3.930   2.533  0.5414  0.0567 -0.2873
 6578SOL    HW120099   3.434   3.993   2.463  0.9039  1.4504  0.8316
 6578SOL    HW220100   3.543   3.909   2.526  0.7670  0.8371  0.2692
 6579SOL     OW20101   6.062   6.160   4.072  0.1933 -0.0200 -0.3659
 6579SOL    HW120102   5.992   6.100   4.046 -2.0819  1.9216  0.8254
 6579SOL    HW220103   6.102   6.187   3.990 -0.3839 -1.2597 -1.0838
 6580SOL     OW20104   5.698   2.210   5.904 -0.1956  0.1595 -0.0399
 6580SOL    HW120105   5.658   2.215   5.990 -0.7042 -0.9633 -0.2039
 6580SOL    HW220106   5.792   2.198   5.922 -0.1773  0.8134  0.3402
 6581SOL     OW20107   5.628   1.932   3.902  0.2595  0.7667  0.0112
 6581SOL    HW120108   5.550   1.975   3.867 -0.6302 -0.4077  0.4623
 6581SOL    HW220109   5.656   1.873   3.832  0.6396  1.0432 -0.0741
 6582SOL     OW20110   2.698   0.399   6.473 -0.1048 -0.6170 -0.4728
 6582SOL    HW120111   2.643   0.340   6.525 -0.5428 -0.4626 -0.7474
 6582SOL    HW220112   2.662   0.486   6.490  0.7651 -0.3778  0.2082
 6583SOL     OW20113   2.296   1.889   0.741 -0.5951  0.3955  0.0968
 6583SOL    HW120114   2.242   1.968   0.739  0.8398  1.4300  0.4192
 6583SOL    HW220115   2.233   1.818   0.754 -2.0962  1.2821 -1.8089
 6584SOL     OW20116   0.404   2.928   0.127  0.3827 -0.4432 -0.4164
 6584SOL    HW120117   0.437   3.012   0.158 -0.1720 -0.2007 -0.4824
 6584SOL    HW220118   0.351   2.895   0.199  2.5084 -1.8832  0.6200
 6585SOL     OW20119   3.061   6.634   6.236  0.6525  0.2791  0.6405
 6585SOL    HW120120   3.073   6.722   6.201 -0.1113  0.1707  0.0984
 6585SOL    HW220121   3.051   6.647   6.331 -0.3320  0.8652  0.4670
 6586SOL     OW20122   3.147   0.432   1.981  0.2594  0.2921  0.3851
 6586SOL    HW120123   3.095   0.378   1.921  0.9726  0.4693 -0.4106
 6586SOL    HW220124   3.213   0.473   1.925  1.8732 -0.6734  1.5006
 6587SOL     OW20125   1.179   4.355   4.449  0.1424 -0.1094 -0.3424
 6587SOL    HW120126   1.123   4.298   4.502  2.2514 -0.4623  1.7129
 6587SOL    HW220127   1.119   4.406   4.396 -2.0586 -1.0470  1.1047
 6588SOL     OW20128   3.499   4.616   0.312  0.2591 -0.1063 -0.0900
 6588SOL    HW120129   3.483   4.635   0.404  0.7025 -0.3300  0.0326
 6588SOL    HW220130   3.529   4.526   0.311 -2.9652 -1.3342 -0.7688
 6589SOL     OW20131   1.969   1.081   5.817 -0.0119 -0.4960  0.0732
 6589SOL    HW120132   1.958   1.170   5.853 -3.1807 -0.7505  0.0611
 6589SOL    HW220133   1.990   1.095   5.725  0.5958  0.2238  0.3082
 6590SOL     OW20134   0.966   4.467   6.306  0.3623 -0.2945  0.1437
 6590SOL    HW120135   0.993   4.426   6.224 -0.5581  1.4725 -1.0855
 6590SOL    HW220136   0.968   4.561   6.289 -1.3675  0.0775  1.6425
 6591SOL     OW20137   1.912   6.532   5.920 -0.0725 -0.4765  0.2181
 6591SOL    HW120138   1.899   6.505   5.830 -0.3202 -1.2301  0.4741
 6591SOL    HW220139   1.832   6.579   5.943 -0.9851 -2.1819  0.7200
 6592SOL     OW20140   6.612   0.001   5.757  0.2721  0.2514  0.3238
 6592SOL    HW120141   6.695  -0.007   5.803  1.0878  3.6057 -0.2595
 6592SOL    HW220142   6.584   0.091   5.774 -0.4643  1.0308 -3.8146
 6593SOL     OW20143   0.014   1.982   6.213  0.5711  0.3542  0.0757
 6593SOL    HW120144  -0.043   2.058   6.226  0.0691  0.3566 -1.7301
 6593SOL    HW220145   0.089   2.016   6.165  0.2747 -0.2749 -0.8836
 6594SOL     OW20146   5.435   3.120   3.011  0.1223  0.3354  0.0113
 6594SOL    HW120147   5.418   3.186   2.943 -0.6469 -0.8658 -1.0112
 6594SOL    HW220148   5.527   3.097   3.000 -0.1908 -0.4497 -1.2266
 6595SOL     OW20149   4.826   2.709   1.825 -0.0413 -0.5393  0.0156
 6595SOL    HW120150   4.868   2.646   1.883 -1.9195 -0.5958  1.4172
 6595SOL    HW220151   4.897   2.763   1.791  1.3339 -1.8425  0.7245
 6596SOL     OW20152   2.922   0.778   2.304 -0.0717  0.0620 -0.2419
 6596SOL    HW120153   2.921   0.705   2.242 -0.3207 -0.8959  0.8551
 6596SOL    HW220154   3.001   0.827   2.281  1.3762 -1.8315  0.4012
 6597SOL     OW20155   2.958   3.194   1.959  0.8018 -0.7352  0.1956
 6597SOL    HW120156   2.947   3.103   1.988 -1.4740 -0.3617  0.7003
 6597SOL    HW220157   2.925   3.246   2.033 -0.8968  0.3740 -1.2762
 6598SOL     OW20158   2.655   4.219   4.844  0.2048 -0.3596  0.1099
 6598SOL    HW120159   2.599   4.293   4.819  0.5698 -0.0610  0.1537
 6598SOL    HW220160   2.667   4.229   4.939  2.5576  1.2120 -0.2468
 6599SOL     OW20161   6.040   1.748   5.487 -0.1643  0.4687 -0.1137
 6599SOL    HW120162   6.039   1.763   5.582 -2.4638 -1.5092  0.2809
 6599SOL    HW220163   5.947   1.743   5.463  0.3518 -1.9655 -1.9206
 6600SOL     OW20164   2.380   0.766   5.540 -0.7129 -0.0995 -0.2064
 6600SOL    HW120165   2.442   0.696   5.559 -0.3824  0.4913  1.0277
 6600SOL    HW220166   2.429   0.847   5.560 -2.0445  0.3578  1.4260
 6601SOL     OW20167   2.653   2.523   6.051  0.0388 -0.0937  0.2282
 6601SOL    HW120168   2.700   2.454   6.098  2.4926  2.2251  1.4450
 6601SOL    HW220169   2.653   2.597   6.111  0.3785  1.9572 -2.1537
 6602SOL     OW20170   3.868   4.650   4.904  0.1134 -0.0145 -0.1075
 6602SOL    HW120171   3.945   4.637   4.959 -0.3582 -1.3948  0.2621
 6602SOL    HW220172   3.826   4.729   4.939 -0.0070 -0.6883  1.3206
 6603SOL     OW20173   1.198   2.077   5.767 -0.8258  0.4584  0.4637
 6603SOL    HW120174   1.293   2.085   5.770 -0.7937  1.2369 -1.0620
 6603SOL    HW220175   1.182   1.988   5.736 -0.4894  0.9659 -1.2940
 6604SOL     OW20176   6.332   3.052   4.299  0.7609  0.2469 -0.1141
 6604SOL    HW120177   6.370   3.006   4.374 -2.5034 -0.8117  1.0410
 6604SOL    HW220178   6.328   3.144   4.327 -1.1418 -0.2519  1.4270
 6605SOL     OW20179   3.947   1.536   5.285  0.4637  0.2072 -0.1751
 6605SOL    HW120180   3.908   1.458   5.326  0.9737  0.7623  1.4457
 6605SOL    HW220181   3.976   1.506   5.199 -0.8508 -0.9608 -0.2487
 6606SOL     OW20182   1.526   3.658   3.373  0.8880 -1.0782  0.2011
 6606SOL    HW120183   1.456   3.651   3.308 -0.2145  1.1336  1.0484
 6606SOL    HW220184   1.484   3.696   3.450  3.1630  1.3383  0.4054
 6607SOL     OW20185   4.702   5.117   5.640  0.2147  0.2912  0.6800
 6607SOL    HW120186   4.738   5.196   5.679  0.2944 -0.2346  1.7085
 6607SOL    HW220187   4.643   5.148   5.572  3.8724  1.2395 -2.4688
 6608SOL     OW20188   0.142   4.538   4.452 -0.6535  0.0744  0.0444
 6608SOL    HW120189   0.102   4.479   4.516 -0.8020  0.3023  0.1634
 6608SOL    HW220190   0.092   4.620   4.460  0.9537  0.9852  1.4588
 6609SOL     OW20191   0.520   0.670   1.734 -0.6219 -0.2738  0.5536
 6609SOL    HW120192   0.588   0.611   1.701  0.0504  0.3749  0.7648
 6609SOL    HW220193   0.557   0.757   1.726 -2.0634  0.2599 -0.8808
 6610SOL     OW20194   0.924   4.620   1.813  0.6292  0.2701 -0.2441
 6610SOL    HW120195   1.006   4.607   1.861  1.1171  4.0921  0.2615
 6610SOL    HW220196   0.948   4.611   1.721  1.6416  1.2934 -0.0989
 6611SOL     OW20197   0.804   1.229   6.671  0.4394  0.2998 -0.2568
 6611SOL    HW120198   0.887   1.262   6.706  1.6412 -0.5566 -2.1266
 6611SOL    HW220199   0.799   1.139   6.702  0.3980  0.2406 -0.4323
 6612SOL     OW20200   0.432   4.977   5.584 -0.0705  0.0284  0.1493
 6612SOL    HW120201   0.491   4.907   5.557 -0.0664  0.4772 -1.0448
 6612SOL    HW220202   0.486   5.056   5.583 -0.4964  0.3178 -0.1868
 6613SOL     OW20203   5.727   3.980   4.505 -0.5901  0.0471 -0.1081
 6613SOL    HW120204   5.664   3.937   4.564 -2.6049  0.8429 -1.5503
 6613SOL    HW220205   5.721   4.073   4.527 -1.0949  0.3069 -1.2699
 6614SOL     OW20206   0.884   0.395   6.058  0.4174  0.1751  0.0470
 6614SOL    HW120207   0.890   0.490   6.068  0.5609  0.3739 -1.6669
 6614SOL    HW220208   0.836   0.382   5.977 -0.2804 -1.2441  0.6544
 6615SOL     OW20209   2.415   5.955   5.356 -0.2509 -0.4021 -0.6297
 6615SOL    HW120210   2.426   6.049   5.343  0.8788 -0.3956  0.1501
 6615SOL    HW220211   2.323   5.943   5.376 -0.1336  0.7480  0.7324
 6616SOL     OW20212   4.827   4.373   3.246 -0.3853  0.2715 -0.1023
 6616SOL    HW120213   4.873   4.296   3.281  1.7431  0.7360 -1.6985
 6616SOL    HW220214   4.887   4.409   3.181 -2.0356  2.3696 -0.5504
 6617SOL     OW20215   3.910   0.933   2.249 -0.3799 -0.6330 -1.2125
 6617SOL    HW120216   3.829   0.941   2.299  0.0951  0.4902 -0.5944
 6617SOL    HW220217   3.890   0.970   2.163 -1.0098 -1.9694 -1.6689
 6618SOL     OW20218   6.545   0.914   1.187 -0.1667 -0.0912  0.1171
 6618SOL    HW120219   6.571   0.859   1.113  0.7450  1.0889 -0.4599
 6618SOL    HW220220   6.622   0.914   1.245  0.0411  0.9744 -0.1389
 6619SOL     OW20221   0.605   4.832   6.704 -0.1165  0.5047 -0.4303
 6619SOL    HW120222   0.550   4.774   6.758 -1.0558  2.0435  0.3239
 6619SOL    HW220223   0.610   4.913   6.753 -0.5125  1.7710 -2.3699
 6620SOL     OW20224   4.705   6.355   2.142 -0.3377 -0.1436 -0.0682
 6620SOL    HW120225   4.718   6.262   2.160 -0.0774 -0.2115 -0.5820
 6620SOL    HW220226   4.612   6.371   2.163 -0.6556 -0.7592 -0.9613
 6621SOL     OW20227   3.411   0.369   3.377  0.5218 -0.1860  0.1916
 6621SOL    HW120228   3.352   0.423   3.430 -0.4203 -0.6059 -0.3981
 6621SOL    HW220229   3.479   0.430   3.348 -0.0787  0.5050  0.1969
 6622SOL     OW20230   3.944   6.246   2.387  0.0319  0.3191 -0.0815
 6622SOL    HW120231   3.947   6.169   2.330  1.3245  1.0564 -1.0719
 6622SOL    HW220232   3.963   6.211   2.474  0.6327 -0.4911 -0.5175
 6623SOL     OW20233   5.350   4.101   6.415 -0.2766 -0.1512  0.2130
 6623SOL    HW120234   5.362   4.006   6.415  0.1790 -0.1089 -0.8426
 6623SOL    HW220235   5.435   4.136   6.445 -0.1721 -0.0625 -0.1755
 6624SOL     OW20236   4.630   5.647   6.349  0.4079 -0.2483  0.3495
 6624SOL    HW120237   4.630   5.573   6.410  0.6815 -0.1281  0.4959
 6624SOL    HW220238   4.596   5.720   6.399 -2.0434 -0.7655 -0.4119
 6625SOL     OW20239   1.986   5.463   3.970  0.3084 -0.2294  0.1898
 6625SOL    HW120240   2.018   5.475   3.880 -0.7108 -0.5494 -0.2283
 6625SOL    HW220241   2.037   5.390   4.004  0.2094 -0.5711 -0.3826
 6626SOL     OW20242   4.540   0.337   6.388 -0.0663  0.3786  0.0072
 6626SOL    HW120243   4.477   0.409   6.384 -3.1508 -2.1428 -0.2864
 6626SOL    HW220244   4.564   0.332   6.481  0.5907  1.9961 -0.0315
 6627SOL     OW20245   1.506   3.699   3.731  0.2436  0.1205  0.5950
 6627SOL    HW120246   1.518   3.791   3.756 -0.0808  0.2507  0.2653
 6627SOL    HW220247   1.419   3.695   3.692  0.0766 -0.4147  1.0012
 6628SOL     OW20248   3.881   5.836   4.491 -0.0194  0.4872 -1.0036
 6628SOL    HW120249   3.836   5.786   4.559 -1.9775  2.3684 -0.7761
 6628SOL    HW220250   3.882   5.779   4.414  1.6049 -1.4110  0.3462
 6629SOL     OW20251   5.162   6.191   2.794  0.1621  0.2962  0.5898
 6629SOL    HW120252   5.234   6.166   2.735  0.3810  1.1571  0.4721
 6629SOL    HW220253   5.088   6.139   2.765  0.7673 -0.7048  0.7916
 6630SOL     OW20254   5.404   4.838   0.497  0.4882  1.0326 -0.3567
 6630SOL    HW120255   5.476   4.898   0.513  3.3444 -2.4321  1.3909
 6630SOL    HW220256   5.433   4.784   0.424 -0.3545 -0.3383  0.2699
 6631SOL     OW20257   1.210   2.162   1.492  0.6601 -0.1702  0.4804
 6631SOL    HW120258   1.267   2.222   1.540  1.2396 -0.8489  0.6656
 6631SOL    HW220259   1.173   2.214   1.422  1.4455  0.3092  0.4139
 6632SOL     OW20260   4.430   6.134   3.880  0.4917  0.4421  0.4372
 6632SOL    HW120261   4.478   6.063   3.837  0.4358 -0.5258  1.9298
 6632SOL    HW220262   4.347   6.139   3.832  0.0475 -1.2401  0.9618
 6633SOL     OW20263   4.031   1.818   3.429 -0.1553 -0.0532 -0.3252
 6633SOL    HW120264   4.018   1.745   3.368 -1.0653 -2.6149  2.6951
 6633SOL    HW220265   4.120   1.807   3.462  0.2035  1.0947 -0.8538
 6634SOL     OW20266   5.273   1.924   2.615 -0.1571  0.0949 -0.8058
 6634SOL    HW120267   5.339   1.991   2.635  0.1330 -0.2053 -0.7495
 6634SOL    HW220268   5.243   1.946   2.527  1.6177 -1.0432 -1.7643
 6635SOL     OW20269   1.738   0.568   0.368  0.7887  0.2205  0.1430
 6635SOL    HW120270   1.732   0.485   0.414 -0.9082 -0.0814 -0.5203
 6635SOL    HW220271   1.648   0.586   0.340  1.3112  1.7093 -0.7185
 6636SOL     OW20272   5.766   5.678   1.965  0.1333  0.3957 -0.4434
 6636SOL    HW120273   5.715   5.711   1.891  1.5316 -0.9833 -2.1140
 6636SOL    HW220274   5.847   5.728   1.962 -0.2931  1.2411  1.0201
 6637SOL     OW20275   2.093   4.482   6.198  0.3469  0.2753 -0.3510
 6637SOL    HW120276   2.131   4.402   6.161 -1.1889 -0.2626 -0.8738
 6637SOL    HW220277   2.045   4.452   6.275 -0.2973  0.6763 -0.5891
 6638SOL     OW20278   6.445   5.218   2.832 -0.1354  0.3249  0.0248
 6638SOL    HW120279   6.475   5.258   2.751 -0.1754 -0.0375 -0.1706
 6638SOL    HW220280   6.411   5.133   2.806  1.0160 -0.3326  0.5882
 6639SOL     OW20281   4.435   5.541   0.906  0.3843 -0.3442 -0.0921
 6639SOL    HW120282   4.442   5.552   1.001  0.1055  0.5251 -0.1573
 6639SOL    HW220283   4.374   5.468   0.895 -0.3481  0.1760  0.4017
 6640SOL     OW20284   5.624   1.065   0.892 -0.3236 -0.0929 -0.2482
 6640SOL    HW120285   5.675   1.019   0.826  0.7126  0.7968 -0.0911
 6640SOL    HW220286   5.539   1.082   0.850  0.2410  0.2628 -1.2691
 6641SOL     OW20287   4.057   2.223   1.035 -0.2146  0.0360  0.1356
 6641SOL    HW120288   3.962   2.224   1.025 -0.2151 -1.2763 -0.0675
 6641SOL    HW220289   4.079   2.132   1.051  0.9955  0.3628  0.4376
 6642SOL     OW20290   4.048   4.206   1.281 -0.8847 -0.5520 -0.2222
 6642SOL    HW120291   4.094   4.280   1.242  0.7750 -0.7472  1.2244
 6642SOL    HW220292   3.969   4.196   1.228 -1.2325  2.3097 -0.4086
 6643SOL     OW20293   5.615   0.648   3.082 -0.2571 -0.4487  0.1153
 6643SOL    HW120294   5.600   0.698   3.002  0.6876 -1.6830 -0.8805
 6643SOL    HW220295   5.640   0.561   3.051  2.5724 -0.3102  1.6613
 6644SOL     OW20296   4.613   1.437   3.965  0.4242  0.1021 -0.1197
 6644SOL    HW120297   4.580   1.399   3.884 -0.3975 -1.0927  0.7422
 6644SOL    HW220298   4.555   1.513   3.981  0.4086  0.1710 -0.4994
 6645SOL     OW20299   6.608   6.021   1.780  0.2904  0.5255 -0.5680
 6645SOL    HW120300   6.528   6.012   1.832  1.2215  1.3090  1.0834
 6645SOL    HW220301   6.670   6.065   1.838  2.3741 -1.2115 -1.3189
 6646SOL     OW20302   1.941   6.111   1.410 -0.3974  0.0629 -0.2478
 6646SOL    HW120303   1.954   6.066   1.326 -0.8308  1.1592 -0.9310
 6646SOL    HW220304   1.977   6.199   1.395  0.3218  0.0078  1.0102
 6647SOL     OW20305   2.647   1.159   1.929  0.0354  0.0418 -0.4214
 6647SOL    HW120306   2.566   1.113   1.905 -0.0636  0.0291 -0.0773
 6647SOL    HW220307   2.697   1.164   1.848  0.7003 -1.9770 -0.1869
 6648SOL     OW20308   3.299   1.560   4.068 -0.0458 -0.0300  0.9187
 6648SOL    HW120309   3.339   1.485   4.112 -0.1853  0.5519  2.0946
 6648SOL    HW220310   3.365   1.588   4.004  0.2783 -0.7379  0.9318
 6649SOL     OW20311   0.143   0.055   4.180  0.2625  0.0306 -0.5229
 6649SOL    HW120312   0.169   0.014   4.262 -0.8938 -0.7073 -0.5038
 6649SOL    HW220313   0.129   0.147   4.203  2.2583  0.3440 -0.4288
 6650SOL     OW20314   5.863   1.244   0.276  0.4666 -0.0530 -0.1860
 6650SOL    HW120315   5.953   1.231   0.245  0.4666 -1.7242  0.3935
 6650SOL    HW220316   5.808   1.235   0.198  0.6831 -1.0488 -0.2406
 6651SOL     OW20317   3.904   0.677   3.796 -0.2184 -0.4620  0.0217
 6651SOL    HW120318   3.912   0.728   3.876 -1.2615  1.4734 -1.0365
 6651SOL    HW220319   3.812   0.682   3.773  0.1157 -0.6201 -1.5006
 6652SOL     OW20320   4.932   4.879   1.752  0.4651 -0.0874  0.0429
 6652SOL    HW120321   4.992   4.914   1.687 -2.1614  1.2853 -1.8286
 6652SOL    HW220322   4.931   4.944   1.822  1.7322 -0.5466  0.5136
 6653SOL     OW20323   5.149   5.276   1.436  0.8736  0.0462 -0.1341
 6653SOL    HW120324   5.081   5.339   1.412  0.7612 -0.6947 -1.9725
 6653SOL    HW220325   5.230   5.326   1.430  0.9143 -0.1837 -2.8290
 6654SOL     OW20326   1.346   2.800   5.585  0.1680 -0.2472 -0.9544
 6654SOL    HW120327   1.336   2.713   5.547  0.5311 -0.2064 -1.1457
 6654SOL    HW220328   1.303   2.859   5.523 -0.4929 -0.3341 -0.5969
 6655SOL     OW20329   1.727   3.018   2.863  0.3364  0.4233 -0.0627
 6655SOL    HW120330   1.796   2.976   2.811  0.0635  2.2658 -2.0565
 6655SOL    HW220331   1.773   3.050   2.940  1.2450 -0.3652 -0.2452
 6656SOL     OW20332   1.373   3.988   0.548 -0.3713 -0.3278 -0.2977
 6656SOL    HW120333   1.469   3.989   0.541 -0.1476 -2.5478  1.3203
 6656SOL    HW220334   1.351   3.896   0.560 -2.8499 -0.0002 -1.7002
 6657SOL     OW20335   1.595   4.574   2.637  0.2013 -0.2493 -0.4007
 6657SOL    HW120336   1.647   4.646   2.603 -0.8321  1.1950  0.9480
 6657SOL    HW220337   1.611   4.575   2.731 -1.3230 -0.5032 -0.1094
 6658SOL     OW20338   6.334   3.646   0.960 -0.0383  0.2306  0.3269
 6658SOL    HW120339   6.245   3.612   0.965  0.1879 -0.4127  0.1448
 6658SOL    HW220340   6.385   3.573   0.925  0.5438  0.6207  0.3501
 6659SOL     OW20341   4.813   3.632   0.504 -0.2377  0.0699 -0.3312
 6659SOL    HW120342   4.740   3.571   0.491 -0.2444  0.1662 -0.7626
 6659SOL    HW220343   4.793   3.706   0.446  0.4226 -0.0997 -0.7903
 6660SOL     OW20344   6.754   5.234   5.937  0.0968  0.1137  0.2319
 6660SOL    HW120345   6.812   5.309   5.927 -0.1799  0.3922  0.6802
 6660SOL    HW220346   6.677   5.255   5.885  1.0510 -0.9819 -1.7517
 6661SOL     OW20347   3.054   4.090   1.633  0.4108 -0.2631  0.2488
 6661SOL    HW120348   3.043   4.119   1.723  1.5227  0.3077  0.2222
 6661SOL    HW220349   2.989   4.139   1.583 -0.3733 -0.7665  0.7724
 6662SOL     OW20350   4.903   6.106   4.441 -0.0006 -0.0491  0.0662
 6662SOL    HW120351   4.832   6.097   4.505  1.7195  1.2733  2.2943
 6662SOL    HW220352   4.981   6.075   4.486  1.1228 -0.1012 -1.8045
 6663SOL     OW20353   0.788   2.371   4.009  0.7310 -0.6118 -0.1162
 6663SOL    HW120354   0.882   2.356   4.016  0.6684 -0.5229  1.2142
 6663SOL    HW220355   0.770   2.441   4.071 -0.1476 -0.2991 -0.7054
 6664SOL     OW20356   1.102   2.714   1.228  0.3907 -0.1814  0.4435
 6664SOL    HW120357   1.054   2.784   1.183 -0.7024 -0.7356  0.7165
 6664SOL    HW220358   1.118   2.648   1.161 -1.3546 -1.0674  0.8343
 6665SOL     OW20359   1.759   5.333   1.009 -0.0315  0.1104  0.3464
 6665SOL    HW120360   1.765   5.327   1.104  0.9545 -0.6751  0.2483
 6665SOL    HW220361   1.729   5.423   0.993  0.6506  0.5418  1.3592
 6666SOL     OW20362   3.488   4.607   3.138  0.1890  0.5889  0.3304
 6666SOL    HW120363   3.546   4.619   3.062 -0.8969  0.2499 -0.5707
 6666SOL    HW220364   3.466   4.514   3.137 -0.1928  0.6705  0.8144
 6667SOL     OW20365   0.750   6.796   3.324 -0.6132  0.0578 -0.8402
 6667SOL    HW120366   0.675   6.751   3.363 -0.3761 -0.3222 -0.8139
 6667SOL    HW220367   0.756   6.879   3.370 -0.6619 -0.1611 -0.4404
 6668SOL     OW20368   4.074   4.760   4.438 -0.1338 -0.5014  0.6820
 6668SOL    HW120369   4.009   4.810   4.388  0.2109  0.6102  1.3033
 6668SOL    HW220370   4.023   4.715   4.505 -0.1747  1.5977  2.1613
 6669SOL     OW20371   5.885   2.701   4.866 -0.1829  0.7628  0.9464
 6669SOL    HW120372   5.793   2.713   4.890  0.1471  0.4562  2.5164
 6669SOL    HW220373   5.904   2.609   4.888  0.2472  0.5348 -0.3051
 6670SOL     OW20374   6.162   5.898   4.751 -0.3837 -0.2531  0.1104
 6670SOL    HW120375   6.198   5.827   4.698  0.3380 -0.0445  0.2961
 6670SOL    HW220376   6.142   5.967   4.688 -0.8076 -0.5107 -0.0379
 6671SOL     OW20377   6.443   0.259   0.516  0.0122 -0.0755 -0.7979
 6671SOL    HW120378   6.418   0.299   0.600 -0.8821  1.8410 -1.9064
 6671SOL    HW220379   6.534   0.230   0.530 -0.7448 -1.6762  1.4269
 6672SOL     OW20380   2.569   1.618   5.683 -0.1566  0.3287  0.0777
 6672SOL    HW120381   2.656   1.631   5.720 -0.8140  2.3523  1.0556
 6672SOL    HW220382   2.552   1.524   5.693  0.7920  0.3437  2.4853
 6673SOL     OW20383   3.639   5.617   5.355  0.5250  0.3507  0.1216
 6673SOL    HW120384   3.644   5.592   5.263  2.4199 -0.3085  0.3601
 6673SOL    HW220385   3.704   5.686   5.366  0.4708  0.2819  0.9921
 6674SOL     OW20386   3.859   4.727   0.900  0.6772 -0.1520  0.3969
 6674SOL    HW120387   3.889   4.642   0.867 -2.6964 -1.1287 -0.6398
 6674SOL    HW220388   3.808   4.706   0.978  0.0486  0.9196  0.3012
 6675SOL     OW20389   6.717   5.568   2.845  0.4881 -0.1376 -0.4746
 6675SOL    HW120390   6.649   5.570   2.912  0.4986 -1.3961 -0.4050
 6675SOL    HW220391   6.689   5.631   2.779 -1.3671 -1.4639 -1.0286
 6676SOL     OW20392   2.140   0.718   2.504  0.1237 -0.2290 -0.4593
 6676SOL    HW120393   2.208   0.784   2.517 -1.5485  1.2711  1.2150
 6676SOL    HW220394   2.128   0.678   2.590 -1.9904  0.4889 -0.3569
 6677SOL     OW20395   0.679   3.006   6.512 -0.2883  0.0301 -0.0779
 6677SOL    HW120396   0.596   3.010   6.561  0.5718 -2.4632  1.7827
 6677SOL    HW220397   0.731   3.078   6.547 -0.6087 -0.1963  0.8898
 6678SOL     OW20398   1.323   4.967   5.395 -0.4331 -0.0822  0.5484
 6678SOL    HW120399   1.263   5.010   5.334  0.3669 -1.3399 -1.2169
 6678SOL    HW220400   1.409   5.003   5.372  0.1223 -1.8855 -0.3528
 6679SOL     OW20401   0.533   5.991   4.098  0.1681 -0.5621 -0.0222
 6679SOL    HW120402   0.515   5.904   4.134  0.2371 -0.1579  1.0197
 6679SOL    HW220403   0.510   5.983   4.005  0.4737 -1.7756 -0.0167
 6680SOL     OW20404   3.751   3.703   5.203 -0.3300 -0.5497 -0.5815
 6680SOL    HW120405   3.704   3.739   5.279  0.3705 -0.4727 -0.1749
 6680SOL    HW220406   3.780   3.780   5.154 -2.6708 -0.5754 -2.1627
 6681SOL     OW20407   0.453   5.578   3.704 -0.3751  0.6060 -0.3314
 6681SOL    HW120408   0.382   5.639   3.725 -0.4195  0.1587  0.9294
 6681SOL    HW220409   0.514   5.586   3.777  0.4640  0.3820 -0.9996
 6682SOL     OW20410   3.728   4.778   2.458 -0.0492  0.6216 -1.0156
 6682SOL    HW120411   3.783   4.840   2.410 -0.7100  1.1225 -1.1281
 6682SOL    HW220412   3.687   4.724   2.390 -1.6771  1.8990 -1.1116
 6683SOL     OW20413   5.547   4.775   3.213 -0.8497 -0.3441 -0.3138
 6683SOL    HW120414   5.578   4.694   3.172  1.5808  0.2469  0.2414
 6683SOL    HW220415   5.460   4.788   3.176 -0.4096 -2.0209 -2.1085
 6684SOL     OW20416   0.352   6.256   1.199 -0.7090 -0.1397 -0.5217
 6684SOL    HW120417   0.439   6.295   1.206  0.2854 -2.0565 -1.6804
 6684SOL    HW220418   0.296   6.316   1.248  1.5186  0.2539  1.7639
 6685SOL     OW20419   4.951   4.874   2.158 -0.5459  0.2762  0.1643
 6685SOL    HW120420   4.897   4.952   2.147  0.5399  1.0097 -0.2068
 6685SOL    HW220421   4.889   4.803   2.171 -1.6497  0.8553 -1.6181
 6686SOL     OW20422   5.083   4.865   3.580 -0.2084  0.2251 -0.0792
 6686SOL    HW120423   5.100   4.856   3.486 -1.3068  0.8110 -0.3542
 6686SOL    HW220424   4.988   4.875   3.586 -0.2883 -0.9711  1.1996
 6687SOL     OW20425   4.136   6.086   0.259 -0.1089 -0.1805  0.8726
 6687SOL    HW120426   4.045   6.111   0.244  0.3616  0.8591 -0.5203
 6687SOL    HW220427   4.178   6.167   0.289  1.0005  0.2919 -1.6624
 6688SOL     OW20428   6.270   3.090   1.633 -0.2303  0.0865 -0.0482
 6688SOL    HW120429   6.358   3.112   1.601 -0.5290  0.2171 -0.8112
 6688SOL    HW220430   6.234   3.173   1.664 -0.2535  0.1195 -0.1634
 6689SOL     OW20431   2.243   5.386   0.919 -0.3001  0.0432 -0.3352
 6689SOL    HW120432   2.266   5.317   0.856  0.7789  0.1273 -0.0572
 6689SOL    HW220433   2.159   5.357   0.956  0.0165 -1.0126 -0.3950
 6690SOL     OW20434   2.445   3.263   6.029  0.1267  0.0580  0.5285
 6690SOL    HW120435   2.358   3.242   5.996  1.1396  0.9706 -3.1529
 6690SOL    HW220436   2.438   3.354   6.058  0.0168  0.3772 -0.4743
 6691SOL     OW20437   5.940   2.298   0.135  0.0646  0.1182 -0.5558
 6691SOL    HW120438   6.003   2.291   0.063  0.1633  1.5038 -0.6307
 6691SOL    HW220439   5.867   2.347   0.098  0.3238  1.2718  0.3936
 6692SOL     OW20440   0.172   1.101   2.270  0.1484  0.1677  0.4257
 6692SOL    HW120441   0.212   1.182   2.303 -0.3799  1.2478 -1.4043
 6692SOL    HW220442   0.103   1.132   2.211 -0.7700 -1.6439  0.5075
 6693SOL     OW20443   3.461   5.348   2.445 -0.0418 -0.5933  0.4769
 6693SOL    HW120444   3.538   5.307   2.406 -2.3663 -3.3493 -1.6689
 6693SOL    HW220445   3.423   5.279   2.501 -0.8347  0.7886  1.7118
 6694SOL     OW20446   0.182   0.712   4.015  0.1753  0.1575  0.2508
 6694SOL    HW120447   0.222   0.670   3.939 -0.0617  1.9687 -0.9345
 6694SOL    HW220448   0.097   0.669   4.025 -0.6428  1.2037 -1.7701
 6695SOL     OW20449   2.955   5.040   5.733 -0.1222 -0.0966  0.5773
 6695SOL    HW120450   2.979   5.131   5.753 -1.3200  0.9761 -2.3422
 6695SOL    HW220451   2.907   5.010   5.811  0.2501  1.7752  1.5810
 6696SOL     OW20452   6.245   4.135   2.028  0.1421 -0.2198  0.1359
 6696SOL    HW120453   6.297   4.203   1.986  1.4981  0.3847  2.5755
 6696SOL    HW220454   6.308   4.067   2.051 -1.0181 -1.8296 -1.2423
 6697SOL     OW20455   3.710   3.207   0.442  0.2983  0.0446 -0.4552
 6697SOL    HW120456   3.675   3.118   0.451 -1.4555  0.7570  0.1002
 6697SOL    HW220457   3.804   3.194   0.429  0.1422 -1.8731  0.0282
 6698SOL     OW20458   4.574   1.865   5.122 -0.2731  0.9959  0.2549
 6698SOL    HW120459   4.624   1.850   5.041 -1.4975  2.1067 -0.7589
 6698SOL    HW220460   4.579   1.960   5.135 -2.5319  1.2232 -0.1927
 6699SOL     OW20461   5.488   6.359   3.872 -0.2900 -0.2608  0.0830
 6699SOL    HW120462   5.500   6.374   3.778 -0.6662 -1.7266 -0.2299
 6699SOL    HW220463   5.568   6.312   3.898 -0.2125  0.0940  0.4809
 6700SOL     OW20464   3.511   5.934   5.013  0.1694 -0.1101  0.3387
 6700SOL    HW120465   3.597   5.900   5.038  0.5464  0.2857 -0.3729
 6700SOL    HW220466   3.470   5.863   4.964 -0.5102 -0.8298  1.9078
 6701SOL     OW20467   5.740   1.641   0.807  0.4361 -0.0074 -0.5106
 6701SOL    HW120468   5.705   1.675   0.725  0.3783 -0.3524 -0.6317
 6701SOL    HW220469   5.675   1.576   0.835  0.1594  0.5325  0.1147
 6702SOL     OW20470   5.734   4.983   4.289  0.3893 -0.3086  0.2861
 6702SOL    HW120471   5.808   5.031   4.252  0.4208 -0.2152  0.4634
 6702SOL    HW220472   5.709   4.920   4.222  1.8026 -1.6155  0.9150
 6703SOL     OW20473   3.176   0.871   2.332 -0.2317  0.0428  0.8139
 6703SOL    HW120474   3.213   0.808   2.394  1.9447  0.3602 -0.0472
 6703SOL    HW220475   3.253   0.909   2.289 -1.6183  0.6660 -1.2505
 6704SOL     OW20476   5.730   0.919   0.669 -0.5022 -0.1087 -0.0402
 6704SOL    HW120477   5.780   0.849   0.711 -0.5876  1.9471  4.0608
 6704SOL    HW220478   5.795   0.967   0.618  1.0545  0.3863  2.2367
 6705SOL     OW20479   1.057   2.184   2.065 -0.0511  0.1356  0.0743
 6705SOL    HW120480   1.050   2.146   1.978  1.8073  1.0383 -0.5041
 6705SOL    HW220481   1.134   2.143   2.104 -0.1741  0.6050  0.8354
 6706SOL     OW20482   1.645   2.460   1.110 -0.0989  0.2708  0.7562
 6706SOL    HW120483   1.672   2.509   1.032 -2.5071  1.5659  0.6249
 6706SOL    HW220484   1.723   2.460   1.166  0.9583  1.4479 -0.6096
 6707SOL     OW20485   5.079   5.976   6.062  0.3253 -0.4744 -0.2944
 6707SOL    HW120486   4.999   6.002   6.018 -0.5998 -0.2831  1.3897
 6707SOL    HW220487   5.138   5.949   5.992 -0.1095  2.2170 -1.8455
 6708SOL     OW20488   3.819   4.659   5.780  0.1893 -0.6097  0.2001
 6708SOL    HW120489   3.891   4.597   5.769 -1.8803 -2.9291 -1.6563
 6708SOL    HW220490   3.811   4.671   5.874  1.5172 -2.1508  0.5508
 6709SOL     OW20491   2.055   1.614   3.613  0.2603 -0.3426  0.4241
 6709SOL    HW120492   2.055   1.578   3.702  0.3964  0.7630  0.8820
 6709SOL    HW220493   2.125   1.567   3.568  0.8521 -0.2137  1.1953
 6710SOL     OW20494   5.676   5.452   6.350 -0.2229 -0.0278 -0.4452
 6710SOL    HW120495   5.738   5.448   6.422  0.1622 -1.0948 -0.8240
 6710SOL    HW220496   5.689   5.540   6.312 -0.1312  0.3755  0.5030
 6711SOL     OW20497   3.115   0.058   5.301  0.1794 -0.0287 -0.4288
 6711SOL    HW120498   3.094   0.007   5.223 -3.2899 -0.3708  0.5709
 6711SOL    HW220499   3.040   0.117   5.313 -0.4580 -1.3172  3.6173
 6712SOL     OW20500   2.768   5.356   3.756 -0.7354  0.2323 -0.0938
 6712SOL    HW120501   2.810   5.274   3.785 -0.2612  0.7734  0.7960
 6712SOL    HW220502   2.833   5.396   3.697 -0.1013  0.9117  1.0278
 6713SOL     OW20503   3.964   3.173   4.061 -0.1813  0.1879  0.4452
 6713SOL    HW120504   4.044   3.122   4.053 -0.3125 -0.2403  1.7125
 6713SOL    HW220505   3.923   3.166   3.975  1.1673  0.4872 -0.2538
 6714SOL     OW20506   6.187   3.803   6.480  0.5245 -0.2740 -0.0543
 6714SOL    HW120507   6.256   3.812   6.545 -0.3588 -0.5580  0.9602
 6714SOL    HW220508   6.220   3.848   6.402  1.3953  0.5243  0.7611
 6715SOL     OW20509   4.407   4.718   3.660  0.1989 -0.6129 -0.3069
 6715SOL    HW120510   4.430   4.630   3.631  1.0587 -0.3435 -0.4614
 6715SOL    HW220511   4.379   4.707   3.751  1.3773 -0.8899  0.0319
 6716SOL     OW20512   1.397   4.890   0.299 -0.0627 -0.1022 -0.6835
 6716SOL    HW120513   1.343   4.957   0.340  1.7907  0.1058  1.6584
 6716SOL    HW220514   1.343   4.811   0.300 -1.8505  0.9868 -2.4479
 6717SOL     OW20515   5.998   0.208   5.319 -0.1646 -0.1749  0.2692
 6717SOL    HW120516   5.963   0.297   5.313  0.7534  0.1667 -0.2105
 6717SOL    HW220517   5.920   0.152   5.323 -0.7910  0.5063 -1.4493
 6718SOL     OW20518   4.087   4.697   0.291 -0.1424  0.7126 -0.1675
 6718SOL    HW120519   4.078   4.718   0.384 -3.9140 -2.3020  0.4194
 6718SOL    HW220520   3.998   4.705   0.257  0.3440 -2.1526 -2.4782
 6719SOL     OW20521   3.570   6.678   3.403 -0.4601 -0.3724 -0.6012
 6719SOL    HW120522   3.480   6.691   3.432 -0.5932  0.2191 -1.2549
 6719SOL    HW220523   3.614   6.640   3.479 -1.0956 -0.0140 -0.0392
 6720SOL     OW20524   1.095   2.849   4.568  0.0998  0.3167  0.0382
 6720SOL    HW120525   1.086   2.888   4.481 -1.2866  0.6764  0.3159
 6720SOL    HW220526   1.188   2.828   4.576  0.2684  0.4156 -1.4649
 6721SOL     OW20527   4.633   2.585   1.321  0.3482 -0.0552 -0.0838
 6721SOL    HW120528   4.573   2.630   1.261  0.3334  0.1542  0.0870
 6721SOL    HW220529   4.635   2.641   1.399 -1.0367 -1.2111  0.8386
 6722SOL     OW20530   3.348   4.884   4.428 -0.5750 -0.2557  0.4341
 6722SOL    HW120531   3.294   4.805   4.430 -2.2163  0.7807 -0.7222
 6722SOL    HW220532   3.372   4.893   4.336 -1.1130  1.0430  0.4082
 6723SOL     OW20533   4.367   2.265   6.271 -0.3141 -0.3461  0.0690
 6723SOL    HW120534   4.311   2.327   6.317  0.6710  2.2155 -1.9680
 6723SOL    HW220535   4.306   2.204   6.230 -1.3786  0.0909  0.9395
 6724SOL     OW20536   0.033   6.615   0.622  0.0076  0.2112 -0.2350
 6724SOL    HW120537   0.037   6.613   0.527  2.2065  1.6161 -0.2540
 6724SOL    HW220538   0.122   6.595   0.651 -0.3602  0.8150  1.4808
 6725SOL     OW20539   5.261   3.802   4.746  0.0685  0.1946  0.3730
 6725SOL    HW120540   5.349   3.826   4.717 -0.7487  1.2135 -1.4068
 6725SOL    HW220541   5.252   3.844   4.832  0.9552  0.9118  0.1340
 6726SOL     OW20542   1.837   6.498   5.616  0.4324  0.6299 -0.5985
 6726SOL    HW120543   1.782   6.444   5.559  1.1500 -0.0972 -0.6150
 6726SOL    HW220544   1.786   6.578   5.629 -0.3074  0.2725 -1.2057
 6727SOL     OW20545   0.319   0.407   4.068  0.0452  0.0971 -0.1568
 6727SOL    HW120546   0.384   0.455   4.119 -0.2248 -0.0504  0.3361
 6727SOL    HW220547   0.239   0.414   4.120  0.2632 -1.8937  0.5238
 6728SOL     OW20548   6.448   3.070   3.023  0.1414  0.2619  0.2706
 6728SOL    HW120549   6.406   2.984   3.031  1.8638 -0.5954  0.7389
 6728SOL    HW220550   6.463   3.098   3.113 -0.0069  0.8591  0.1140
 6729SOL     OW20551   3.444   4.935   2.822  0.0675  0.3433 -0.2974
 6729SOL    HW120552   3.436   4.981   2.739  1.2119  1.2408  0.0637
 6729SOL    HW220553   3.524   4.883   2.814  0.7179  1.1760  0.5597
 6730SOL     OW20554   1.968   4.790   3.783  0.3524  0.1306 -0.4625
 6730SOL    HW120555   1.966   4.879   3.817 -0.8512  1.0228 -2.7277
 6730SOL    HW220556   1.895   4.746   3.827  0.0709  0.6787 -0.3725
 6731SOL     OW20557   4.742   3.073   3.051  0.0948  0.8022  0.2746
 6731SOL    HW120558   4.647   3.065   3.039  0.2094  1.8824 -1.9691
 6731SOL    HW220559   4.776   2.987   3.028 -0.2328  0.9794 -0.9543
 6732SOL     OW20560   2.228   5.997   1.742 -0.5347  0.1954  0.1258
 6732SOL    HW120561   2.190   5.917   1.706  0.5537  0.6904 -2.3388
 6732SOL    HW220562   2.161   6.064   1.729 -0.6865  0.0856  0.3438
 6733SOL     OW20563   5.893   0.208   0.353 -0.5708 -0.0042  0.1557
 6733SOL    HW120564   5.815   0.180   0.402 -0.5256  0.3970  0.4609
 6733SOL    HW220565   5.860   0.232   0.267 -0.9747  1.2954  0.6495
 6734SOL     OW20566   3.866   3.065   3.830  0.2100 -0.2290 -0.1813
 6734SOL    HW120567   3.803   3.008   3.873  0.4633 -0.3902 -0.0180
 6734SOL    HW220568   3.831   3.079   3.742 -1.2026  1.4792  0.5861
 6735SOL     OW20569   4.891   0.453   1.856 -0.3429 -0.0446 -0.4388
 6735SOL    HW120570   4.851   0.532   1.894  0.2662  0.5998 -1.0980
 6735SOL    HW220571   4.875   0.385   1.921 -1.6804  0.4061 -0.2568
 6736SOL     OW20572   5.735   6.738   4.441  0.3336  0.2011 -0.2405
 6736SOL    HW120573   5.745   6.833   4.444  0.3461  0.1819  0.6748
 6736SOL    HW220574   5.822   6.706   4.417  0.2029  0.4342 -1.0600
 6737SOL     OW20575   5.148   5.095   5.996  0.7728  0.0392  0.0919
 6737SOL    HW120576   5.058   5.112   5.969  0.8709  0.5558  0.0770
 6737SOL    HW220577   5.168   5.165   6.059  2.1449  1.8012 -2.1119
 6738SOL     OW20578   2.127   1.876   6.450  0.3474  0.4210 -0.4594
 6738SOL    HW120579   2.084   1.958   6.426 -0.0816  0.2012 -0.4470
 6738SOL    HW220580   2.220   1.894   6.437  0.3215  1.1356  0.2187
 6739SOL     OW20581   6.388   0.446   0.293  0.3974  0.5617 -0.2783
 6739SOL    HW120582   6.376   0.436   0.199 -0.0227  0.9122 -0.2660
 6739SOL    HW220583   6.398   0.356   0.326  1.9597  0.5013 -0.8262
 6740SOL     OW20584   3.925   0.834   2.756  0.5139 -0.3338  0.4133
 6740SOL    HW120585   3.858   0.902   2.754  1.8331  1.0704  1.3776
 6740SOL    HW220586   3.886   0.760   2.709 -1.7385  0.3610  1.0773
 6741SOL     OW20587   6.000   4.718   3.279 -0.3167  0.0676 -0.1829
 6741SOL    HW120588   5.927   4.771   3.311 -1.2792 -0.5892 -1.2392
 6741SOL    HW220589   5.966   4.629   3.280 -0.1963 -0.0574 -2.4099
 6742SOL     OW20590   0.205   5.980   4.226 -0.1470  0.1689  0.5835
 6742SOL    HW120591   0.256   5.929   4.288 -0.9940 -1.7105 -0.1728
 6742SOL    HW220592   0.117   5.982   4.264 -0.2350  0.6636  0.3593
 6743SOL     OW20593   1.712   5.503   4.587  0.4249  0.3914  0.1973
 6743SOL    HW120594   1.687   5.510   4.680  2.2853  0.8783  0.6884
 6743SOL    HW220595   1.635   5.534   4.540 -0.8424 -0.5480  1.5397
 6744SOL     OW20596   1.218   4.616   6.493  0.1878  0.2961  0.0945
 6744SOL    HW120597   1.132   4.618   6.536 -0.1105  4.5203 -0.2449
 6744SOL    HW220598   1.202   4.574   6.408 -1.1345 -0.4826  0.7028
 6745SOL     OW20599   5.507   2.090   0.448  0.1303  0.2181  0.6854
 6745SOL    HW120600   5.465   2.173   0.470 -1.7291 -0.4555 -0.1111
 6745SOL    HW220601   5.440   2.024   0.466  0.9089 -0.9351 -0.5110
 6746SOL     OW20602   4.340   4.635   0.176 -0.5656 -0.1842 -0.6079
 6746SOL    HW120603   4.307   4.654   0.088 -0.8139 -1.2365 -0.7556
 6746SOL    HW220604   4.264   4.648   0.233 -0.9958 -1.5953 -0.8232
 6747SOL     OW20605   3.835   3.307   2.445 -0.5752 -0.7019 -0.4302
 6747SOL    HW120606   3.755   3.289   2.395 -0.8551  0.5298 -0.4548
 6747SOL    HW220607   3.828   3.400   2.468  0.5459 -0.7456  0.1199
 6748SOL     OW20608   6.372   0.098   4.420 -0.2338 -0.2117 -0.2324
 6748SOL    HW120609   6.451   0.045   4.405 -0.6562 -0.7465 -0.6203
 6748SOL    HW220610   6.305   0.055   4.367 -0.4852  0.9700 -0.8931
 6749SOL     OW20611   4.236   1.368   5.818  0.2690 -0.1224 -0.1328
 6749SOL    HW120612   4.256   1.342   5.908 -0.9742 -1.5751 -0.2298
 6749SOL    HW220613   4.320   1.367   5.773  0.5456 -2.4970  0.2973
 6750SOL     OW20614   1.550   2.313   3.553  0.2407 -0.0892 -0.3905
 6750SOL    HW120615   1.629   2.272   3.517  0.6789  1.0613 -0.7670
 6750SOL    HW220616   1.517   2.368   3.482 -0.6376 -0.1801 -0.0632
 6751SOL     OW20617   3.539   6.635   1.366  0.3416  0.5156  0.2207
 6751SOL    HW120618   3.533   6.655   1.460  2.1925  0.4358  0.3908
 6751SOL    HW220619   3.567   6.718   1.326  0.2887  0.3554 -0.1492
 6752SOL     OW20620   4.489   2.573   0.599 -0.5446  0.0109  0.2294
 6752SOL    HW120621   4.422   2.532   0.653 -1.8761  1.8821  0.0878
 6752SOL    HW220622   4.471   2.541   0.510 -0.4006 -0.5248  0.3911
 6753SOL     OW20623   4.944   2.815   2.633  0.7876 -0.3875  0.1209
 6753SOL    HW120624   4.866   2.869   2.640  0.7459 -0.6801  2.8788
 6753SOL    HW220625   5.012   2.876   2.602 -0.2172  0.1121 -1.2415
 6754SOL     OW20626   4.661   2.649   4.151 -0.4674  0.3969 -0.0218
 6754SOL    HW120627   4.734   2.705   4.126 -1.7756  2.6726  0.9642
 6754SOL    HW220628   4.683   2.620   4.240 -0.2041  0.0067 -0.2069
 6755SOL     OW20629   2.267   4.013   0.230 -0.1262 -0.2256  0.1273
 6755SOL    HW120630   2.245   4.090   0.282 -0.4901  0.0043 -0.3643
 6755SOL    HW220631   2.333   4.043   0.168 -1.9620  0.3201 -1.6671
 6756SOL     OW20632   3.562   2.768   6.484  0.8723  0.1274  0.1810
 6756SOL    HW120633   3.506   2.826   6.431  0.2864  0.1227  0.7810
 6756SOL    HW220634   3.524   2.681   6.470  0.2943  0.2108  1.1156
 6757SOL     OW20635   1.449   1.280   1.997  0.0763  0.0825 -0.3832
 6757SOL    HW120636   1.424   1.203   1.946 -0.5753 -1.1893  1.7351
 6757SOL    HW220637   1.371   1.336   1.995 -0.6538 -0.8414  0.7284
 6758SOL     OW20638   2.798   5.009   3.799  0.5888 -0.1679 -0.2245
 6758SOL    HW120639   2.799   5.051   3.713  0.4389  0.5038  0.0935
 6758SOL    HW220640   2.868   4.944   3.795 -0.2959 -1.0975 -1.3056
 6759SOL     OW20641   5.936   2.971   0.275  0.5180 -0.8816  0.2725
 6759SOL    HW120642   5.965   2.880   0.283  0.5774 -0.8747  0.1321
 6759SOL    HW220643   5.904   2.978   0.185  1.6548 -0.4267 -0.1054
 6760SOL     OW20644   4.376   4.649   3.940 -0.2053 -0.2235 -0.3095
 6760SOL    HW120645   4.321   4.643   4.018  0.3333  2.1390  0.3506
 6760SOL    HW220646   4.461   4.616   3.969  0.2316  1.4247  0.4432
 6761SOL     OW20647   1.158   1.880   3.988  0.5827 -0.0033 -0.1347
 6761SOL    HW120648   1.130   1.885   3.897 -0.8066 -0.5322  0.2301
 6761SOL    HW220649   1.090   1.828   4.031  2.4075 -1.7866  0.7558
 6762SOL     OW20650   2.695   2.909   4.424  0.1496 -0.4568 -0.2759
 6762SOL    HW120651   2.754   2.972   4.384 -0.4066 -0.5273 -1.2374
 6762SOL    HW220652   2.660   2.858   4.351 -1.3163 -0.2352  0.2360
 6763SOL     OW20653   4.770   4.706   2.278 -0.3428  0.1719  0.3544
 6763SOL    HW120654   4.743   4.632   2.333  0.2892 -0.2180  0.1523
 6763SOL    HW220655   4.697   4.720   2.218  0.4032 -1.7520 -1.0923
 6764SOL     OW20656   4.290   2.439   4.500 -0.2894 -0.6433  0.1527
 6764SOL    HW120657   4.380   2.472   4.506  0.0351 -1.0938 -1.5920
 6764SOL    HW220658   4.300   2.345   4.481 -1.0815 -0.5231 -0.9898
 6765SOL     OW20659   5.392   3.149   2.264  0.3544 -0.0146  0.4482
 6765SOL    HW120660   5.379   3.070   2.212  1.4126  0.3263 -0.3843
 6765SOL    HW220661   5.369   3.221   2.205  1.1829  0.3569  0.5573
 6766SOL     OW20662   4.211   3.900   4.797  0.2898  0.3005  0.0473
 6766SOL    HW120663   4.128   3.948   4.799 -0.3699 -0.7915  2.2888
 6766SOL    HW220664   4.248   3.913   4.884  0.8428 -1.8882  0.2002
 6767SOL     OW20665   3.605   5.917   6.721 -0.4881  0.1160 -0.3497
 6767SOL    HW120666   3.645   5.835   6.694  0.3918  0.4837 -0.2244
 6767SOL    HW220667   3.597   5.968   6.640 -0.3450  0.1828 -0.3234
 6768SOL     OW20668   1.982   4.146   0.459 -0.1047 -0.0907 -0.1135
 6768SOL    HW120669   1.905   4.194   0.427  0.1532  0.3006 -0.1512
 6768SOL    HW220670   1.971   4.058   0.423  0.1870  0.3431 -1.3361
 6769SOL     OW20671   1.744   4.293   0.440  0.2622 -0.2604 -0.0736
 6769SOL    HW120672   1.774   4.377   0.474  0.1612 -0.7565  1.2667
 6769SOL    HW220673   1.717   4.312   0.350  0.9016  0.9877 -0.0213
 6770SOL     OW20674   3.821   2.952   2.951  0.1795  0.7176  0.4136
 6770SOL    HW120675   3.888   2.961   2.883 -0.2431  1.1809  0.0560
 6770SOL    HW220676   3.764   3.028   2.940 -0.5493  0.2008  0.5588
 6771SOL     OW20677   2.818   5.143   3.521 -0.1768 -0.3274  0.0000
 6771SOL    HW120678   2.732   5.168   3.487  0.4380 -0.2168 -1.5147
 6771SOL    HW220679   2.869   5.224   3.521  0.1997 -0.5591  0.0780
 6772SOL     OW20680   4.870   3.114   3.912  0.3716  0.3537  0.0064
 6772SOL    HW120681   4.866   3.180   3.843  4.4500  1.3413  0.4723
 6772SOL    HW220682   4.895   3.033   3.867  2.0253  0.7642  0.1300
 6773SOL     OW20683   0.598   2.614   2.429  0.0611 -0.6016  0.0060
 6773SOL    HW120684   0.598   2.519   2.441 -0.4743 -0.6168 -0.0720
 6773SOL    HW220685   0.505   2.637   2.422  0.1764 -0.0465  0.2409
 6774SOL     OW20686   3.566   4.299   2.748  0.0702 -0.3006 -0.1678
 6774SOL    HW120687   3.596   4.267   2.663  0.5879  0.6108 -0.3513
 6774SOL    HW220688   3.644   4.340   2.786 -0.3508 -0.0309  0.4113
 6775SOL     OW20689   1.842   6.597   4.761  0.5754  0.4546 -0.0566
 6775SOL    HW120690   1.828   6.546   4.681  1.2286 -0.3773  0.3487
 6775SOL    HW220691   1.762   6.650   4.769  0.0543 -0.1988 -0.7042
 6776SOL     OW20692   2.445   0.988   1.267  0.0522  0.3735 -0.2187
 6776SOL    HW120693   2.382   1.046   1.308  0.0327  0.6162 -0.5876
 6776SOL    HW220694   2.395   0.908   1.248  0.4881 -0.4433  1.8313
 6777SOL     OW20695   1.050   3.401   1.353 -0.0290 -0.7050 -0.3284
 6777SOL    HW120696   1.072   3.375   1.442  1.0630  0.2218 -0.3026
 6777SOL    HW220697   1.074   3.325   1.300 -0.9359 -1.3640  0.1711
 6778SOL     OW20698   4.620   2.093   0.085 -0.2389  0.2497 -0.2165
 6778SOL    HW120699   4.683   2.116   0.017 -0.1370 -0.7930 -0.5012
 6778SOL    HW220700   4.574   2.016   0.051 -0.4468 -0.0691  0.7297
 6779SOL     OW20701   5.533   4.477   5.850  0.2228 -0.2264 -0.2433
 6779SOL    HW120702   5.568   4.562   5.877 -2.2732  1.1628 -1.0712
 6779SOL    HW220703   5.522   4.429   5.932 -1.1606  1.4455  0.6225
 6780SOL     OW20704   4.968   5.495   6.089 -0.0904  0.1053  0.9182
 6780SOL    HW120705   4.912   5.507   6.012  0.8838 -1.9290 -0.1960
 6780SOL    HW220706   4.926   5.423   6.137 -0.7205  1.3973  2.3570
 6781SOL     OW20707   4.298   0.405   3.540  0.8997 -0.1186 -0.0647
 6781SOL    HW120708   4.353   0.326   3.540 -0.4433 -1.1072  0.8663
 6781SOL    HW220709   4.357   0.475   3.514  2.2802 -1.3357 -0.3773
 6782SOL     OW20710   0.307   4.518   2.791 -0.3469 -0.1245 -0.0434
 6782SOL    HW120711   0.392   4.491   2.827  0.5604 -0.4572 -2.2846
 6782SOL    HW220712   0.246   4.505   2.864  1.5724  0.7104  1.8388
 6783SOL     OW20713   1.000   2.396   1.677 -0.0153  0.1454 -0.1849
 6783SOL    HW120714   0.972   2.444   1.599  3.3308  1.9626 -0.4399
 6783SOL    HW220715   1.071   2.448   1.713  1.8112 -3.0877  1.3230
 6784SOL     OW20716   2.882   6.368   2.069 -0.4157  0.3751  0.2669
 6784SOL    HW120717   2.892   6.274   2.085 -0.0804  0.4710  0.6407
 6784SOL    HW220718   2.917   6.381   1.981 -1.2921  0.0084 -0.1435
 6785SOL     OW20719   5.785   0.296   2.158  0.3311  0.2393  0.3543
 6785SOL    HW120720   5.694   0.324   2.170  0.2535 -0.3581  1.2396
 6785SOL    HW220721   5.778   0.209   2.120  0.5215 -0.1173  1.1297
 6786SOL     OW20722   4.915   5.917   0.580  0.4578  0.4447  0.2363
 6786SOL    HW120723   5.005   5.929   0.550  0.5259 -1.7447 -0.6681
 6786SOL    HW220724   4.873   5.869   0.509 -1.2013  0.7154  0.9994
 6787SOL     OW20725   1.376   1.880   4.823  0.2735  0.3411 -0.2155
 6787SOL    HW120726   1.319   1.803   4.826 -0.5138  0.9535  1.6768
 6787SOL    HW220727   1.368   1.912   4.733 -0.7259 -0.8006 -0.5529
 6788SOL     OW20728   3.460   1.433   0.279 -1.2257  0.1042  0.3015
 6788SOL    HW120729   3.398   1.448   0.208 -0.3534 -0.7325 -0.6763
 6788SOL    HW220730   3.546   1.430   0.235 -0.7114 -0.8579  1.3358
 6789SOL     OW20731   6.732   2.852   6.595 -0.4028  0.1993 -0.1348
 6789SOL    HW120732   6.730   2.937   6.550 -1.4813 -0.3951 -1.2539
 6789SOL    HW220733   6.690   2.791   6.534 -1.2883 -0.7944  1.4009
 6790SOL     OW20734   0.447   4.162   3.711  0.6692 -0.0252  0.6670
 6790SOL    HW120735   0.442   4.236   3.651 -0.7435 -1.0703 -0.5686
 6790SOL    HW220736   0.397   4.093   3.668  0.7133 -1.2351  2.4626
 6791SOL     OW20737   5.993   5.981   6.438 -0.4915  0.2635  0.7700
 6791SOL    HW120738   5.996   6.076   6.443 -1.8634  0.3852 -0.0959
 6791SOL    HW220739   6.084   5.953   6.439  0.1626  1.8246 -2.6633
 6792SOL     OW20740   2.049   2.963   0.049  0.2761  0.3874  0.1841
 6792SOL    HW120741   1.992   3.025   0.094  1.0995  0.9290  0.5204
 6792SOL    HW220742   2.065   2.894   0.113 -1.1029 -0.4993 -0.3837
 6793SOL     OW20743   5.227   6.398   3.077  0.7058 -0.4842  0.2630
 6793SOL    HW120744   5.289   6.332   3.047  0.6874 -0.0387 -0.7790
 6793SOL    HW220745   5.182   6.427   2.998  0.1322  0.1901  0.8216
 6794SOL     OW20746   4.456   5.417   4.917 -0.5489 -0.4503 -0.3208
 6794SOL    HW120747   4.546   5.425   4.948 -1.1985  2.3315  1.1323
 6794SOL    HW220748   4.402   5.431   4.995 -2.2162  2.8314 -1.8928
 6795SOL     OW20749   1.800   6.454   1.255 -0.2481  0.2787  0.3234
 6795SOL    HW120750   1.834   6.375   1.298 -1.8989 -0.4966  0.2433
 6795SOL    HW220751   1.855   6.525   1.290  2.4517 -1.0418 -0.9098
 6796SOL     OW20752   6.666   0.910   5.724 -0.2828 -0.0242 -0.0262
 6796SOL    HW120753   6.688   0.965   5.649  0.4537 -0.9707 -0.5150
 6796SOL    HW220754   6.650   0.973   5.795 -3.6964  1.1047 -1.5420
 6797SOL     OW20755   6.356   2.500   0.812 -0.2775 -0.0151 -0.2471
 6797SOL    HW120756   6.434   2.485   0.865 -0.5091 -0.6961 -0.0882
 6797SOL    HW220757   6.373   2.582   0.766  0.3947  0.0033  0.0312
 6798SOL     OW20758   3.936   3.407   2.142  0.1152 -0.0039 -0.3608
 6798SOL    HW120759   3.894   3.345   2.201 -0.6142 -0.2053 -1.0817
 6798SOL    HW220760   3.950   3.485   2.195  2.6429 -1.3028  1.0823
 6799SOL     OW20761   5.891   1.824   5.037 -0.0333 -0.3622 -0.0952
 6799SOL    HW120762   5.819   1.797   5.094  0.9855 -0.4591  1.1908
 6799SOL    HW220763   5.849   1.876   4.968 -1.1692  0.9316  1.4910
 6800SOL     OW20764   3.839   6.378   1.516  0.2173  0.4460 -0.2732
 6800SOL    HW120765   3.844   6.384   1.421 -0.6445 -1.5238 -0.4877
 6800SOL    HW220766   3.928   6.359   1.544  0.0390 -1.5227 -0.9495
 6801SOL     OW20767   0.982   1.163   3.018  0.0237  0.1704 -0.2884
 6801SOL    HW120768   1.021   1.170   2.930 -0.7499 -0.4125 -0.6935
 6801SOL    HW220769   0.894   1.200   3.008  0.0203  0.3255  0.3015
 6802SOL     OW20770   1.647   4.094   0.652 -0.0854 -0.4057  0.7316
 6802SOL    HW120771   1.669   4.146   0.574 -1.8849 -0.0538  0.4095
 6802SOL    HW220772   1.660   4.155   0.725 -2.1787  0.5767  0.3552
 6803SOL     OW20773   6.548   3.237   0.056 -0.4168  0.1370  0.4959
 6803SOL    HW120774   6.611   3.279  -0.003  0.5791  1.8154  2.6052
 6803SOL    HW220775   6.531   3.152   0.017  1.3080  0.6015 -1.4199
 6804SOL     OW20776   3.552   2.348   4.994 -0.1435 -0.2546 -0.3632
 6804SOL    HW120777   3.619   2.408   5.027 -0.4974 -0.5534  0.9821
 6804SOL    HW220778   3.483   2.406   4.960  0.6554  0.0545 -1.5042
 6805SOL     OW20779   6.412   1.644   3.191  0.1002  0.0922 -0.4738
 6805SOL    HW120780   6.457   1.656   3.107  1.0372 -1.1733 -0.1899
 6805SOL    HW220781   6.480   1.660   3.257 -0.3166 -0.0923  0.0071
 6806SOL     OW20782   3.294   1.783   4.687  0.5983 -0.1387  0.6531
 6806SOL    HW120783   3.332   1.705   4.728 -0.4442 -0.6302  0.7089
 6806SOL    HW220784   3.370   1.837   4.665  1.2882 -0.7589  1.4246
 6807SOL     OW20785   2.144   2.627   0.683 -0.1245 -0.1580 -0.2725
 6807SOL    HW120786   2.104   2.540   0.679 -1.5747  0.5099 -1.3906
 6807SOL    HW220787   2.186   2.638   0.598  1.3054 -0.2867  0.3813
 6808SOL     OW20788   1.024   3.937   3.924 -0.3256 -0.1374 -0.3245
 6808SOL    HW120789   0.961   3.895   3.982 -0.7964 -0.6162 -1.1663
 6808SOL    HW220790   0.997   4.029   3.922  0.3162  0.1041  1.0050
 6809SOL     OW20791   1.413   2.824   2.671  0.1933  0.1537  0.2802
 6809SOL    HW120792   1.362   2.752   2.709  1.5886 -0.6716  0.6517
 6809SOL    HW220793   1.466   2.856   2.743  1.0544  0.2157 -0.3623
 6810SOL     OW20794   2.040   2.673   4.495  0.0603 -0.1376 -0.0772
 6810SOL    HW120795   2.040   2.672   4.591 -1.1268 -1.5961 -0.0628
 6810SOL    HW220796   2.129   2.645   4.472  0.5507  0.8056  0.5578
 6811SOL     OW20797   5.403   3.331   0.388 -0.2698 -0.4035  0.5685
 6811SOL    HW120798   5.394   3.377   0.471  1.3520  2.8172 -0.8449
 6811SOL    HW220799   5.360   3.389   0.324 -0.5904 -2.2769 -1.0029
 6812SOL     OW20800   0.912   1.191   2.696 -0.1556 -0.0908 -0.4913
 6812SOL    HW120801   0.933   1.279   2.663 -0.2029  0.1541  0.1281
 6812SOL    HW220802   0.995   1.156   2.727 -0.1360 -0.2728 -0.7401
 6813SOL     OW20803   5.511   6.381   5.649  0.1948 -0.1512  0.5270
 6813SOL    HW120804   5.544   6.298   5.615 -0.6109 -0.0275 -0.6085
 6813SOL    HW220805   5.432   6.356   5.698 -0.1021 -0.0546  0.1038
 6814SOL     OW20806   3.178   5.777   5.643 -0.1544 -0.3842 -0.3075
 6814SOL    HW120807   3.227   5.818   5.714  1.4670 -1.0208 -1.0132
 6814SOL    HW220808   3.168   5.846   5.577 -1.0592  0.0124  0.2325
 6815SOL     OW20809   4.103   6.776   5.191  0.1596  0.0581 -0.1981
 6815SOL    HW120810   4.131   6.720   5.263  0.7175  1.0572  0.3742
 6815SOL    HW220811   4.120   6.724   5.112 -1.4204 -1.4594  0.4011
 6816SOL     OW20812   3.979   5.201   1.445 -0.1570  0.4354 -0.3266
 6816SOL    HW120813   4.037   5.124   1.444 -0.2530  0.3519  0.3176
 6816SOL    HW220814   3.894   5.166   1.417 -0.4435  0.0996  0.9198
 6817SOL     OW20815   6.282   1.353   5.325 -0.1007  0.1347 -0.0509
 6817SOL    HW120816   6.248   1.357   5.235  1.9720 -0.6250 -0.9333
 6817SOL    HW220817   6.235   1.279   5.365 -0.3596 -0.1403 -0.8373
 6818SOL     OW20818   3.766   0.676   1.466 -0.7783  0.8534 -0.6775
 6818SOL    HW120819   3.673   0.659   1.483 -1.1507  1.4437 -1.9991
 6818SOL    HW220820   3.775   0.771   1.473 -0.4923  0.8956 -1.4648
 6819SOL     OW20821   3.863   3.709   2.854  0.3309  0.1296  0.2874
 6819SOL    HW120822   3.825   3.793   2.880  2.0494  0.9860  0.1393
 6819SOL    HW220823   3.804   3.644   2.893 -2.9705  1.2614 -2.2697
 6820SOL     OW20824   3.165   1.961   1.342  0.1506 -0.7845 -0.5153
 6820SOL    HW120825   3.257   1.953   1.318  0.6841 -2.0443  1.6834
 6820SOL    HW220826   3.153   2.055   1.358  1.1168 -0.6472 -0.5345
 6821SOL     OW20827   2.021   6.611   5.468 -0.1869  0.7076  0.0924
 6821SOL    HW120828   1.980   6.608   5.382 -1.0551  0.6773  0.4947
 6821SOL    HW220829   1.965   6.557   5.524 -0.4741  1.9103  1.0130
 6822SOL     OW20830   2.296   2.966   3.884 -0.6561 -0.7385 -0.0251
 6822SOL    HW120831   2.201   2.971   3.873 -0.6074 -2.3912 -1.7566
 6822SOL    HW220832   2.327   3.054   3.865 -1.6541 -0.8121 -2.4112
 6823SOL     OW20833   1.976   5.137   3.152 -0.3097 -0.3246  0.1409
 6823SOL    HW120834   1.892   5.169   3.117  0.1353  0.3072 -0.3687
 6823SOL    HW220835   1.999   5.200   3.220 -0.8572 -1.1973  1.1541
 6824SOL     OW20836   0.467   1.324   2.001  0.6761 -0.1166  0.0435
 6824SOL    HW120837   0.516   1.247   2.027  0.5687 -0.2438 -0.1300
 6824SOL    HW220838   0.443   1.309   1.909  1.4197  0.5205 -0.2694
 6825SOL     OW20839   1.121   5.204   4.362  0.3104  0.1473  0.3669
 6825SOL    HW120840   1.085   5.203   4.451 -0.5032 -1.9029  0.0832
 6825SOL    HW220841   1.147   5.294   4.347  1.8970  0.2782  3.2569
 6826SOL     OW20842   5.051   1.396   5.362  0.2901 -0.3339  0.2235
 6826SOL    HW120843   4.955   1.398   5.357  0.3099 -0.6964 -0.4577
 6826SOL    HW220844   5.080   1.445   5.285  0.6706  1.6535  1.5564
 6827SOL     OW20845   0.616   0.243   5.393 -0.3815 -0.3258  0.1498
 6827SOL    HW120846   0.643   0.207   5.478  0.8742  1.5241  0.5870
 6827SOL    HW220847   0.521   0.229   5.391 -0.4252 -0.5016  1.8269
 6828SOL     OW20848   2.381   4.683   2.560 -0.5410  0.2058 -0.8551
 6828SOL    HW120849   2.465   4.728   2.571 -1.1657  0.9401  1.6451
 6828SOL    HW220850   2.318   4.753   2.545 -1.1798  0.0535  0.8203
 6829SOL     OW20851   0.502   2.732   5.017  0.1416 -0.2682  0.2786
 6829SOL    HW120852   0.450   2.789   4.960  0.3380 -0.3186  0.0462
 6829SOL    HW220853   0.538   2.791   5.083  0.5443 -0.0809 -0.1049
 6830SOL     OW20854   0.539   4.759   3.723 -0.1800 -0.4764  0.0454
 6830SOL    HW120855   0.585   4.707   3.789 -0.1891  0.0867  0.5037
 6830SOL    HW220856   0.541   4.849   3.757 -0.4718 -0.2327 -0.5623
 6831SOL     OW20857   5.671   5.693   5.085  0.3969  0.6172  0.4075
 6831SOL    HW120858   5.761   5.704   5.054  0.7135 -0.5774  0.8395
 6831SOL    HW220859   5.676   5.704   5.180  0.7354 -2.5257  0.8925
 6832SOL     OW20860   5.279   2.538   6.719 -0.6806  0.7268  0.6623
 6832SOL    HW120861   5.261   2.583   6.637 -1.1098  0.2682  0.4995
 6832SOL    HW220862   5.254   2.447   6.703 -1.4520  0.7641  1.5067
 6833SOL     OW20863   0.784   0.317   0.072  0.1545  0.0861  0.1722
 6833SOL    HW120864   0.876   0.304   0.098  0.1232 -2.4539 -0.6715
 6833SOL    HW220865   0.734   0.293   0.150  0.1873 -2.1889 -0.4376
 6834SOL     OW20866   0.485   2.904   6.274  0.0406 -0.0598 -0.5254
 6834SOL    HW120867   0.571   2.932   6.306  0.5481 -0.2537 -1.6741
 6834SOL    HW220868   0.479   2.942   6.186  0.5501 -3.0778 -1.9802
 6835SOL     OW20869   4.814   3.303   3.744  0.3524 -0.4903  0.0563
 6835SOL    HW120870   4.767   3.356   3.679  1.0154 -0.6286 -0.5448
 6835SOL    HW220871   4.906   3.320   3.727  0.5451  0.3073  1.6615
 6836SOL     OW20872   0.854   1.061   1.352 -0.7556  0.1161 -0.2636
 6836SOL    HW120873   0.776   1.010   1.332 -1.0373 -0.3425  1.7569
 6836SOL    HW220874   0.889   1.020   1.431 -0.0976  2.0888  0.5136
 6837SOL     OW20875   0.158   3.211   0.464 -0.0590 -0.2719 -0.3903
 6837SOL    HW120876   0.137   3.120   0.445  1.9212 -0.6156 -1.1396
 6837SOL    HW220877   0.113   3.260   0.395 -1.4087 -0.6141  0.2110
 6838SOL     OW20878   2.628   3.859   1.856  0.1234 -0.1514  0.2211
 6838SOL    HW120879   2.568   3.900   1.793 -0.5018 -1.3937 -0.0509
 6838SOL    HW220880   2.614   3.906   1.937 -0.2880  0.4166 -0.1707
 6839SOL     OW20881   2.238   1.849   4.461 -0.0475  0.1678 -0.2421
 6839SOL    HW120882   2.173   1.898   4.512 -0.4319  0.1931 -0.7484
 6839SOL    HW220883   2.196   1.835   4.376  0.1902 -0.7494 -0.2126
 6840SOL     OW20884   3.360   0.406   0.472  0.2836 -0.7692  0.0404
 6840SOL    HW120885   3.435   0.447   0.428 -0.1543  0.9147  0.7722
 6840SOL    HW220886   3.395   0.324   0.507  1.5121 -0.5149 -0.5075
 6841SOL     OW20887   5.301   4.895   4.436  0.1042  0.8845  0.0534
 6841SOL    HW120888   5.319   4.852   4.352 -0.3582  1.2241 -0.2215
 6841SOL    HW220889   5.223   4.851   4.470 -0.4901  1.6374 -0.3253
 6842SOL     OW20890   4.425   3.068   4.617  0.0979  0.0668  0.1580
 6842SOL    HW120891   4.495   3.114   4.571 -0.1631 -1.7843 -2.3543
 6842SOL    HW220892   4.460   3.053   4.705  2.7686 -0.4488 -0.8646
 6843SOL     OW20893   3.631   4.379   2.342  0.0552  0.1420  0.2357
 6843SOL    HW120894   3.659   4.366   2.433  1.5633 -0.0566 -0.2214
 6843SOL    HW220895   3.622   4.290   2.307 -1.0156  0.2078  0.3084
 6844SOL     OW20896   3.239   1.742   1.506 -0.0718 -0.4267 -0.1197
 6844SOL    HW120897   3.222   1.658   1.463  0.6096 -0.9006  0.4923
 6844SOL    HW220898   3.198   1.807   1.450  1.8519 -0.8695 -2.2056
 6845SOL     OW20899   5.238   0.572   0.001  0.0179  0.2071  0.0298
 6845SOL    HW120900   5.167   0.547  -0.058 -0.2053  1.3916 -0.2253
 6845SOL    HW220901   5.271   0.654  -0.034 -1.0682  1.7313  2.3184
 6846SOL     OW20902   5.516   0.408   0.566 -0.0729  1.3862  0.6498
 6846SOL    HW120903   5.465   0.419   0.486 -2.8147 -1.9049  1.6823
 6846SOL    HW220904   5.487   0.479   0.623 -1.3439  1.3032  0.1537
 6847SOL     OW20905   0.095   2.453   0.942 -0.4851  0.7160 -0.2939
 6847SOL    HW120906   0.113   2.526   0.882  1.6851 -0.1943 -0.8086
 6847SOL    HW220907   0.109   2.490   1.029 -3.4608  1.9931 -0.2252
 6848SOL     OW20908   0.896   1.581   1.870 -0.3506 -0.2197  0.4634
 6848SOL    HW120909   0.864   1.491   1.875  1.2238 -1.0837 -2.5027
 6848SOL    HW220910   0.849   1.619   1.795  0.7692  0.6075  0.1530
 6849SOL     OW20911   6.294   3.188   6.174 -0.5329  0.2320 -0.5776
 6849SOL    HW120912   6.320   3.099   6.147  1.8653  0.5904  0.2878
 6849SOL    HW220913   6.202   3.195   6.149 -0.0654 -1.5200 -3.1611
 6850SOL     OW20914   5.692   2.145   2.535 -0.5389  0.4189 -0.2425
 6850SOL    HW120915   5.710   2.092   2.457 -1.1586  0.2293 -0.2625
 6850SOL    HW220916   5.703   2.235   2.506  0.3937  0.3079 -0.2445
 6851SOL     OW20917   4.890   2.049   6.287  0.7032  0.0501  0.8151
 6851SOL    HW120918   4.819   2.100   6.248  1.5881  0.6765 -0.0280
 6851SOL    HW220919   4.929   2.002   6.213  0.3294 -1.3636  1.4741
 6852SOL     OW20920   1.874   3.980   4.029 -0.2174  0.4601 -0.4833
 6852SOL    HW120921   1.904   4.052   3.974  0.6237 -0.2094 -0.9293
 6852SOL    HW220922   1.840   3.915   3.968  2.7267 -1.2510 -0.4883
 6853SOL     OW20923   0.645   2.812   0.677 -0.3462  0.5081  0.3426
 6853SOL    HW120924   0.694   2.796   0.757  2.8145 -0.1458 -1.5270
 6853SOL    HW220925   0.608   2.900   0.688  1.1421  0.9766  1.9999
 6854SOL     OW20926   0.612   5.604   5.680  0.3896  0.2873  0.2058
 6854SOL    HW120927   0.695   5.644   5.706  0.9196  0.1010 -1.0843
 6854SOL    HW220928   0.596   5.536   5.746  0.5858  1.1789  1.1922
 6855SOL     OW20929   1.420   1.610   3.929 -0.2687 -0.0242 -0.2323
 6855SOL    HW120930   1.452   1.520   3.924  0.9911  0.2843  1.3462
 6855SOL    HW220931   1.377   1.616   4.014 -0.2984  0.8631 -0.2991
 6856SOL     OW20932   0.748   2.113   1.450  0.2344  0.1339  0.7176
 6856SOL    HW120933   0.719   2.026   1.476  2.2855 -0.3775  1.4885
 6856SOL    HW220934   0.694   2.135   1.374  0.4239 -2.2768 -0.1974
 6857SOL     OW20935   3.233   6.387   5.249 -0.0182  0.2134 -0.4880
 6857SOL    HW120936   3.183   6.306   5.261  0.0757  0.0497 -1.1741
 6857SOL    HW220937   3.254   6.416   5.338 -1.8025  0.5857 -0.1646
 6858SOL     OW20938   2.858   4.197   5.940 -0.0954 -0.2223  0.2386
 6858SOL    HW120939   2.787   4.171   6.000 -0.9111  1.5715  0.1139
 6858SOL    HW220940   2.926   4.233   5.997  0.2163 -0.8366  0.2627
 6859SOL     OW20941   4.043   5.769   2.247  0.3299  0.2039  0.1355
 6859SOL    HW120942   4.066   5.704   2.180 -1.0943  1.7976 -2.0812
 6859SOL    HW220943   4.113   5.764   2.311  2.2503 -0.8731 -1.9111
 6860SOL     OW20944   6.257   4.509   3.133  0.6091 -0.2616  0.1693
 6860SOL    HW120945   6.201   4.578   3.098  2.5121 -0.5730 -4.1219
 6860SOL    HW220946   6.202   4.430   3.131  0.0962  0.1041 -0.2800
 6861SOL     OW20947   2.153   5.586   5.207  0.0857 -0.2130  0.3527
 6861SOL    HW120948   2.227   5.528   5.222  0.9583  0.5169 -0.9124
 6861SOL    HW220949   2.193   5.671   5.187 -1.1330  0.5699  1.1160
 6862SOL     OW20950   6.751   2.271   5.919  0.5316 -0.1870 -0.5258
 6862SOL    HW120951   6.747   2.270   6.015  0.0661  1.9336 -0.4716
 6862SOL    HW220952   6.798   2.190   5.896  0.2896 -0.9496  1.4476
 6863SOL     OW20953   0.922   5.559   4.180  0.4157 -0.0255 -0.1080
 6863SOL    HW120954   0.935   5.542   4.087  0.7930  2.0854 -0.4806
 6863SOL    HW220955   0.828   5.549   4.193 -0.0415  2.0417 -1.3050
 6864SOL     OW20956   4.515   2.042   2.902  0.3170  0.1341  0.3563
 6864SOL    HW120957   4.477   1.982   2.839  0.5525 -0.5299  0.8300
 6864SOL    HW220958   4.488   2.129   2.873 -0.1375 -0.2108 -0.2629
 6865SOL     OW20959   0.309   3.923   4.538  0.1888  0.2503 -0.4473
 6865SOL    HW120960   0.223   3.959   4.562 -0.1770 -1.4823  1.0394
 6865SOL    HW220961   0.289   3.858   4.470  0.3306 -0.0623 -0.1916
 6866SOL     OW20962   2.475   5.615   0.138 -0.2830  0.1576 -0.1694
 6866SOL    HW120963   2.454   5.671   0.213 -0.0093  0.0449 -0.0074
 6866SOL    HW220964   2.407   5.548   0.139 -0.2147  0.0911  0.0456
 6867SOL     OW20965   3.927   4.871   5.488 -0.0317 -0.2169 -0.8088
 6867SOL    HW120966   3.861   4.868   5.558 -0.2686 -0.2013 -1.0302
 6867SOL    HW220967   4.008   4.843   5.531 -0.2496 -0.5613 -0.6082
 6868SOL     OW20968   0.643   3.774   2.002  0.6492 -0.2781  0.3741
 6868SOL    HW120969   0.591   3.835   2.054  0.3955 -0.9039  0.8605
 6868SOL    HW220970   0.734   3.795   2.024  0.5236 -1.4376  2.1233
 6869SOL     OW20971   5.095   0.056   6.284 -0.9861  0.0636 -0.1757
 6869SOL    HW120972   5.101   0.147   6.254  1.7229  0.0008 -0.0067
 6869SOL    HW220973   5.168   0.045   6.345 -1.5645 -2.0922  0.2122
 6870SOL     OW20974   2.784   3.776   3.418  0.0154  0.1422  0.1747
 6870SOL    HW120975   2.820   3.810   3.500 -2.6934  0.9794  1.1431
 6870SOL    HW220976   2.829   3.825   3.350  2.5899 -0.8134  1.0774
 6871SOL     OW20977   5.849   2.995   6.453  0.8146 -0.3942  0.0620
 6871SOL    HW120978   5.875   3.061   6.389  0.8659 -1.8578 -1.4847
 6871SOL    HW220979   5.756   3.009   6.467  0.1808 -1.6385 -2.3664
 6872SOL     OW20980   5.614   5.239   1.315 -0.2826 -0.0380 -0.0455
 6872SOL    HW120981   5.668   5.234   1.394  0.7305  0.1244 -0.7011
 6872SOL    HW220982   5.639   5.323   1.275 -0.6526 -0.2012 -0.6239
 6873SOL     OW20983   3.058   0.921   0.732  0.3709 -0.0562  0.2240
 6873SOL    HW120984   3.136   0.876   0.701 -0.8486 -0.6707 -2.2193
 6873SOL    HW220985   2.991   0.900   0.667 -1.5764  1.2403  1.7022
 6874SOL     OW20986   1.505   2.100   1.383 -0.2026  0.6738  0.0141
 6874SOL    HW120987   1.538   2.185   1.411 -0.8565  1.0177 -0.2498
 6874SOL    HW220988   1.410   2.107   1.390 -0.2173 -0.4422  1.1505
 6875SOL     OW20989   5.343   2.178   5.347  0.3109  0.0506 -0.2256
 6875SOL    HW120990   5.388   2.236   5.408  1.5795 -0.6669 -0.4492
 6875SOL    HW220991   5.300   2.113   5.402 -1.0291  1.0885  0.0214
 6876SOL     OW20992   6.571   4.457   3.734  0.1984 -0.1024 -0.5689
 6876SOL    HW120993   6.477   4.455   3.751 -0.0389  1.5859 -1.4755
 6876SOL    HW220994   6.579   4.440   3.640  0.9453 -1.8297 -0.2350
 6877SOL     OW20995   6.075   0.006   0.700 -0.1039  0.0168  0.0583
 6877SOL    HW120996   6.111  -0.034   0.621  0.9402 -1.2024  1.0943
 6877SOL    HW220997   5.987  -0.031   0.708  0.1990 -0.7352  0.0369
 6878SOL     OW20998   2.574   3.734   0.872  0.7247  0.1689 -0.3466
 6878SOL    HW120999   2.639   3.747   0.803  2.3095 -0.4692  0.9615
 6878SOL    HW221000   2.623   3.694   0.944 -0.8634  0.8196  1.1660
 6879SOL     OW21001   3.140   5.243   6.316 -0.3533 -0.1037  0.2226
 6879SOL    HW121002   3.044   5.250   6.312 -0.3410 -0.5424 -2.1230
 6879SOL    HW221003   3.170   5.279   6.233  1.6308  1.0092  1.3454
 6880SOL     OW21004   2.454   6.722   3.619 -0.1940 -0.0643  0.2202
 6880SOL    HW121005   2.473   6.631   3.641  0.8901  0.0489 -0.1520
 6880SOL    HW221006   2.522   6.745   3.555  0.4696  1.4382  1.4183
 6881SOL     OW21007   0.528   3.960   2.166 -0.3977 -0.6586  0.3651
 6881SOL    HW121008   0.518   4.055   2.159  0.3659 -0.5361  0.8161
 6881SOL    HW221009   0.618   3.948   2.197 -0.4462 -1.5353  0.1706
 6882SOL     OW21010   4.926   6.296   5.838 -0.6954 -0.0994 -0.2699
 6882SOL    HW121011   4.971   6.277   5.756 -1.0575  1.2402 -0.8093
 6882SOL    HW221012   4.994   6.288   5.905  1.1346  4.1026 -1.2715
 6883SOL     OW21013   4.090   6.733   0.760 -0.2225 -0.1653 -0.4862
 6883SOL    HW121014   4.074   6.704   0.849 -0.6820 -0.5606 -0.6906
 6883SOL    HW221015   4.009   6.712   0.713 -0.2443  0.6508 -0.8443
 6884SOL     OW21016   4.653   6.073   4.969 -0.1878 -0.5423  0.6211
 6884SOL    HW121017   4.736   6.034   4.939  1.1737  2.5779 -0.0376
 6884SOL    HW221018   4.602   6.084   4.889 -0.1062 -0.0054  0.6418
 6885SOL     OW21019   4.852   0.158   5.407 -0.5647 -0.2731  0.3491
 6885SOL    HW121020   4.789   0.190   5.471  0.2594  0.3570  0.8730
 6885SOL    HW221021   4.905   0.094   5.454  0.7978  1.0399  0.6785
 6886SOL     OW21022   5.007   0.881   3.742 -0.2777  0.2087  0.2966
 6886SOL    HW121023   5.044   0.880   3.831 -0.7593  3.6563  0.7019
 6886SOL    HW221024   5.058   0.949   3.697 -2.1674  0.8321 -1.0120
 6887SOL     OW21025   6.769   1.050   3.317  0.8614 -0.2579  0.4739
 6887SOL    HW121026   6.729   1.020   3.236 -1.0550  2.2789  0.3560
 6887SOL    HW221027   6.843   1.104   3.289  0.3994  0.3450  0.3840
 6888SOL     OW21028   3.507   1.483   5.841 -0.2969  0.2630  0.1887
 6888SOL    HW121029   3.476   1.433   5.765 -0.3364 -0.6632  0.7953
 6888SOL    HW221030   3.478   1.432   5.916  0.8918  0.4657  0.8076
 6889SOL     OW21031   2.286   5.711   2.301 -0.1516 -0.1371 -0.1984
 6889SOL    HW121032   2.380   5.703   2.314 -0.0849 -0.6984 -0.9110
 6889SOL    HW221033   2.247   5.658   2.370  0.0218  0.7507  0.5941
 6890SOL     OW21034   5.972   0.522   1.143 -0.0245 -0.2943  0.2600
 6890SOL    HW121035   5.933   0.450   1.193  0.6889 -0.5070  0.5160
 6890SOL    HW221036   6.004   0.583   1.209 -0.8531  0.3958  0.0439
 6891SOL     OW21037   0.603   4.131   5.340  0.2487  0.4208  0.0432
 6891SOL    HW121038   0.609   4.097   5.251  0.2866  1.0850 -0.2169
 6891SOL    HW221039   0.521   4.097   5.374 -1.2989  2.5435 -1.2977
 6892SOL     OW21040   2.801   4.593   6.028 -0.2045 -0.2223 -0.1615
 6892SOL    HW121041   2.752   4.610   5.948 -1.7596  1.2744  1.0227
 6892SOL    HW221042   2.749   4.527   6.074 -2.7073  3.1076  2.2383
 6893SOL     OW21043   5.269   2.454   1.771 -0.3526  0.4584  0.4208
 6893SOL    HW121044   5.352   2.476   1.814 -0.7142 -0.8723  1.8978
 6893SOL    HW221045   5.236   2.538   1.738  0.7766  1.2615  1.2466
 6894SOL     OW21046   5.853   6.752   1.586  0.0227  0.9637  0.3282
 6894SOL    HW121047   5.863   6.769   1.492  1.9591  0.4013  0.3919
 6894SOL    HW221048   5.770   6.794   1.609 -1.6363 -0.7689 -2.0555
 6895SOL     OW21049   5.639   4.710   2.904 -0.0939 -0.4172 -0.0292
 6895SOL    HW121050   5.591   4.695   2.823  0.4774 -0.9695 -0.2712
 6895SOL    HW221051   5.651   4.805   2.908 -1.5500 -0.2156  0.2411
 6896SOL     OW21052   3.464   5.698   2.718  0.1369 -0.4147  0.8037
 6896SOL    HW121053   3.429   5.786   2.731  1.6315  0.4804 -0.7821
 6896SOL    HW221054   3.505   5.701   2.632 -0.5119 -2.9429  0.3199
 6897SOL     OW21055   2.502   0.239   4.317 -0.0502 -0.1906  0.0931
 6897SOL    HW121056   2.570   0.172   4.325 -1.0216 -1.2000  0.2832
 6897SOL    HW221057   2.450   0.211   4.241  0.0110  0.8088 -0.3266
 6898SOL     OW21058   1.542   0.350   5.495  0.1600  0.2451 -0.1172
 6898SOL    HW121059   1.546   0.297   5.416 -0.4087  0.4331 -0.2755
 6898SOL    HW221060   1.609   0.417   5.483  0.4585 -0.0666 -0.1885
 6899SOL     OW21061   5.423   2.048   4.543  0.0979 -0.2981  0.8521
 6899SOL    HW121062   5.354   2.051   4.476 -0.5715 -0.0495  1.5323
 6899SOL    HW221063   5.463   1.962   4.534  0.4122 -0.0474 -0.2551
 6900SOL     OW21064   6.716   5.738   0.682  0.3566 -0.5364 -0.5780
 6900SOL    HW121065   6.683   5.748   0.592  1.9353  0.3884 -1.0961
 6900SOL    HW221066   6.771   5.815   0.696 -1.0675  0.1638  1.7712
 6901SOL     OW21067   6.079   6.241   6.474 -0.9746  0.5183  0.7281
 6901SOL    HW121068   6.000   6.291   6.454 -0.4642  1.3395  0.7138
 6901SOL    HW221069   6.120   6.289   6.546 -0.2619  0.3400  0.4467
 6902SOL     OW21070   3.756   6.623   5.590  0.2596  0.1165 -0.1269
 6902SOL    HW121071   3.767   6.671   5.507  0.3969 -0.3081 -0.3591
 6902SOL    HW221072   3.662   6.608   5.596  0.4462 -2.0152 -1.4736
 6903SOL     OW21073   0.166   1.192   1.693  0.1751  0.2363 -0.4541
 6903SOL    HW121074   0.096   1.256   1.683  0.0753 -0.0690 -2.0867
 6903SOL    HW221075   0.163   1.166   1.785  0.5098  2.8629  0.3589
 6904SOL     OW21076   1.257   6.112   2.473  0.2293 -0.1815  0.0236
 6904SOL    HW121077   1.258   6.017   2.484  2.1818 -0.0725  1.3156
 6904SOL    HW221078   1.275   6.146   2.560  0.9698  1.3305 -0.6888
 6905SOL     OW21079   0.772   6.221   1.010 -0.2098 -0.1445 -0.1902
 6905SOL    HW121080   0.717   6.201   1.086  1.2487 -1.4419  0.6024
 6905SOL    HW221081   0.736   6.168   0.939  0.2400 -1.3352  0.4399
 6906SOL     OW21082   5.155   2.044   1.123 -0.8105  0.4838  0.7882
 6906SOL    HW121083   5.120   1.973   1.177 -0.2263 -0.7537 -0.3903
 6906SOL    HW221084   5.081   2.104   1.112 -2.3216 -1.4863 -0.6809
 6907SOL     OW21085   3.566   6.624   6.252 -0.2142  0.2639 -0.8874
 6907SOL    HW121086   3.585   6.716   6.232 -1.2188  1.0798  1.5534
 6907SOL    HW221087   3.598   6.576   6.175  1.2905  2.5273 -1.7876
 6908SOL     OW21088   6.415   2.490   2.587  0.1131  0.2794  0.1355
 6908SOL    HW121089   6.400   2.503   2.493 -0.0597 -0.5945  0.0372
 6908SOL    HW221090   6.511   2.487   2.595  0.1252  0.2095 -0.0316
 6909SOL     OW21091   3.386   2.758   0.190  0.1502 -0.0491 -0.5669
 6909SOL    HW121092   3.334   2.710   0.254  1.8545 -1.0302  0.1572
 6909SOL    HW221093   3.336   2.837   0.171 -0.8060 -0.1652  1.3072
 6910SOL     OW21094   2.131   6.007   2.483  0.4941  0.0673  0.2689
 6910SOL    HW121095   2.219   6.023   2.517 -0.0247  1.0294  1.2130
 6910SOL    HW221096   2.144   5.992   2.389  1.5225  1.6005  0.1322
 6911SOL     OW21097   0.139   3.231   3.171  0.0664  0.6413 -0.0466
 6911SOL    HW121098   0.101   3.224   3.083 -0.1062  0.7248  0.0195
 6911SOL    HW221099   0.193   3.153   3.180 -0.0845  0.5225 -0.1494
 6912SOL     OW21100   5.475   2.614   5.509  0.5204  0.1454  0.1872
 6912SOL    HW121101   5.464   2.521   5.528 -1.8966  0.4173  0.4462
 6912SOL    HW221102   5.443   2.624   5.419 -0.1952  0.8491  0.5029
 6913SOL     OW21103   6.075   4.995   3.497  0.5171  0.4587  0.6379
 6913SOL    HW121104   6.115   4.939   3.563  0.8034 -0.1154 -0.0224
 6913SOL    HW221105   6.133   4.989   3.421 -0.4800  0.1120 -0.1086
 6914SOL     OW21106   3.708   6.232   6.401 -0.2583  0.5563 -0.1917
 6914SOL    HW121107   3.667   6.303   6.449  1.6382  0.9029  1.0054
 6914SOL    HW221108   3.650   6.157   6.415 -1.5818  1.5140 -0.3721
 6915SOL     OW21109   1.738   0.079   6.136 -0.0541  0.1568  0.5401
 6915SOL    HW121110   1.667   0.077   6.072  0.2406  1.5937  0.1429
 6915SOL    HW221111   1.772  -0.011   6.136  1.4348  0.5380 -3.0372
 6916SOL     OW21112   4.220   0.452   0.129 -0.0250 -0.1518 -0.2124
 6916SOL    HW121113   4.127   0.437   0.107 -0.1587 -1.6184  1.1636
 6916SOL    HW221114   4.254   0.365   0.149  0.7197  0.7133  2.7668
 6917SOL     OW21115   3.347   1.768   1.749 -0.3003  0.1387 -0.5225
 6917SOL    HW121116   3.438   1.779   1.723 -0.0283  0.2840  0.4232
 6917SOL    HW221117   3.300   1.753   1.668  0.4213  1.0424 -1.1303
 6918SOL     OW21118   0.608   6.425   2.861  0.1071  0.1410 -0.1894
 6918SOL    HW121119   0.613   6.371   2.940  0.8472 -1.6838 -1.4244
 6918SOL    HW221120   0.550   6.377   2.802 -0.3235  1.4018 -0.8307
 6919SOL     OW21121   4.361   3.479   5.594 -0.3745 -0.6430 -0.3845
 6919SOL    HW121122   4.451   3.511   5.590 -0.0155 -1.5143  0.3085
 6919SOL    HW221123   4.312   3.537   5.536  1.1711 -2.0763 -3.2943
 6920SOL     OW21124   2.811   6.101   0.177 -0.1980 -0.1092  0.0830
 6920SOL    HW121125   2.803   6.145   0.262 -2.7241  0.7847 -0.5366
 6920SOL    HW221126   2.873   6.029   0.193  1.6927  1.7727  1.9022
 6921SOL     OW21127   6.479   3.769   6.107 -0.1870 -0.3764 -0.0715
 6921SOL    HW121128   6.393   3.783   6.147 -0.1884 -1.9985  0.5913
 6921SOL    HW221129   6.470   3.685   6.060  1.3485 -1.2041  1.0238
 6922SOL     OW21130   4.532   0.526   2.553  0.1335  0.8019  0.2760
 6922SOL    HW121131   4.586   0.603   2.568  0.7052  0.5325 -0.3129
 6922SOL    HW221132   4.463   0.555   2.494  1.3520  0.4983 -1.3898
 6923SOL     OW21133   2.789   3.425   0.036  0.0004 -0.0889  0.2731
 6923SOL    HW121134   2.781   3.331   0.020 -0.4732 -0.1729  0.9779
 6923SOL    HW221135   2.870   3.434   0.086  0.9104  0.0625 -1.1694
 6924SOL     OW21136   4.278   4.784   2.407 -0.4453  0.5169  0.1353
 6924SOL    HW121137   4.322   4.779   2.322  0.3302 -0.1016  0.5626
 6924SOL    HW221138   4.349   4.796   2.470 -0.6519 -2.3914  1.0326
 6925SOL     OW21139   3.359   2.071   6.510  0.0934 -0.0080  0.2348
 6925SOL    HW121140   3.402   1.991   6.539 -0.1122 -0.2303 -0.0674
 6925SOL    HW221141   3.321   2.108   6.590  0.0838 -0.2767  0.3556
 6926SOL     OW21142   3.509   4.147   0.425  0.0417  0.1370  0.0218
 6926SOL    HW121143   3.481   4.080   0.487 -0.1743 -0.2387 -0.4794
 6926SOL    HW221144   3.475   4.229   0.461  0.8860  0.0723  0.9896
 6927SOL     OW21145   2.999   0.889   3.146  0.1966 -0.0825  0.4297
 6927SOL    HW121146   3.053   0.851   3.215  1.4890  0.6156 -0.1626
 6927SOL    HW221147   3.005   0.827   3.073 -0.2332 -0.2537  0.5343
 6928SOL     OW21148   0.914   6.409   0.078  0.0656  0.3463  0.5520
 6928SOL    HW121149   0.829   6.452   0.067 -0.1248 -0.0365  0.4955
 6928SOL    HW221150   0.948   6.445   0.160 -1.1549 -1.1027  1.7731
 6929SOL     OW21151   2.001   6.459   0.009  0.4361 -0.3321 -0.0727
 6929SOL    HW121152   1.970   6.419   0.091  0.7703  1.2466  0.8763
 6929SOL    HW221153   1.967   6.402  -0.060  0.5263 -1.9608  1.1747
 6930SOL     OW21154   4.015   2.655   0.095  0.2479  0.1137  0.0172
 6930SOL    HW121155   3.979   2.608   0.170 -0.1402  0.4103  0.0214
 6930SOL    HW221156   4.100   2.615   0.081 -0.9983 -2.2369 -1.4690
 6931SOL     OW21157   0.343   2.901   4.796 -0.0982 -0.2919 -0.1580
 6931SOL    HW121158   0.310   2.913   4.707 -0.3811 -1.2066 -0.1909
 6931SOL    HW221159   0.285   2.835   4.834  1.9866 -2.4026 -0.3953
 6932SOL     OW21160   2.620   6.302   1.009 -0.5061 -0.6987 -0.1473
 6932SOL    HW121161   2.686   6.298   0.940 -0.3631 -0.7652 -0.0083
 6932SOL    HW221162   2.604   6.395   1.022 -1.5357 -0.7123 -1.2151
 6933SOL     OW21163   5.283   4.703   3.455 -0.4878  0.6350 -0.6213
 6933SOL    HW121164   5.377   4.693   3.437 -0.2510 -4.0924  1.9077
 6933SOL    HW221165   5.240   4.662   3.380 -0.4595  0.6101 -0.6242
 6934SOL     OW21166   2.091   1.683   2.449 -0.6770 -0.5202  0.4809
 6934SOL    HW121167   2.055   1.636   2.374 -3.2198  1.1289  0.5365
 6934SOL    HW221168   2.026   1.671   2.518 -0.4657  1.3910  1.0720
 6935SOL     OW21169   0.460   0.659   6.541 -1.0769 -0.4108 -0.2688
 6935SOL    HW121170   0.391   0.592   6.539 -0.1223 -1.4093 -1.5127
 6935SOL    HW221171   0.526   0.624   6.601 -1.3110  0.1968  0.3490
 6936SOL     OW21172   6.054   3.710   3.783 -0.5400 -0.0562  0.2253
 6936SOL    HW121173   6.061   3.724   3.689  0.4868 -1.7185  0.0211
 6936SOL    HW221174   6.122   3.767   3.820 -1.5285  1.2801  0.0811
 6937SOL     OW21175   1.519   4.777   4.869 -0.0079 -0.0044  0.0432
 6937SOL    HW121176   1.607   4.743   4.850 -0.2223 -0.1085 -0.8099
 6937SOL    HW221177   1.509   4.766   4.963  1.5269  1.5098  0.4322
 6938SOL     OW21178   5.817   1.788   4.158 -0.7039 -0.6989 -0.1274
 6938SOL    HW121179   5.870   1.836   4.093 -0.0111 -0.4922  0.5733
 6938SOL    HW221180   5.731   1.829   4.153 -0.1238  0.6808  0.4755
 6939SOL     OW21181   1.527   5.968   2.118  0.7721  0.1673  0.1202
 6939SOL    HW121182   1.494   6.006   2.037  0.5267  0.1410  0.2084
 6939SOL    HW221183   1.525   6.041   2.181 -2.3421 -0.6038  1.0757
 6940SOL     OW21184   3.880   6.030   0.037  0.1621 -0.1843  0.1712
 6940SOL    HW121185   3.878   5.941   0.071 -3.0604 -0.4406 -0.3772
 6940SOL    HW221186   3.922   6.023  -0.049  0.1957 -1.1075  0.2603
 6941SOL     OW21187   5.751   2.461   5.757  0.2076  0.0458  0.0963
 6941SOL    HW121188   5.846   2.469   5.768  0.3188 -0.7263 -0.2591
 6941SOL    HW221189   5.732   2.369   5.774 -0.4666  0.1707  0.0469
 6942SOL     OW21190   1.880   5.984   2.212  0.0030 -0.7121  0.5671
 6942SOL    HW121191   1.969   5.961   2.187  0.1162 -1.5066  1.6178
 6942SOL    HW221192   1.879   6.080   2.210  1.0837 -0.6648  1.1481
 6943SOL     OW21193   2.249   1.471   5.240 -0.5404 -0.0548  0.3038
 6943SOL    HW121194   2.172   1.521   5.211  0.0438  0.2596 -0.7629
 6943SOL    HW221195   2.232   1.453   5.333 -2.6522 -1.4116 -0.2805
 6944SOL     OW21196   1.403   3.794   2.139 -0.3394 -0.2825  0.2053
 6944SOL    HW121197   1.477   3.795   2.078  0.1218 -1.8806  0.6794
 6944SOL    HW221198   1.353   3.716   2.114 -0.6714 -0.4219  1.2525
 6945SOL     OW21199   4.670   5.824   1.854  0.2753 -0.0403  0.2741
 6945SOL    HW121200   4.646   5.731   1.854 -1.1850  0.3061 -0.4813
 6945SOL    HW221201   4.739   5.830   1.788  1.9832 -0.9224  1.8888
 6946SOL     OW21202   4.732   4.803   0.851 -0.0254 -0.4509  0.0426
 6946SOL    HW121203   4.759   4.774   0.938 -0.8854 -2.6554 -0.3740
 6946SOL    HW221204   4.698   4.892   0.865  0.8145 -0.3525  1.7436
 6947SOL     OW21205   5.512   3.645   3.144  0.1148  0.0914 -0.5704
 6947SOL    HW121206   5.511   3.675   3.235 -0.5977 -0.9937 -0.2020
 6947SOL    HW221207   5.478   3.720   3.094  1.2694  0.9870 -0.0685
 6948SOL     OW21208   3.742   5.920   0.396  0.0450 -0.1850 -0.2110
 6948SOL    HW121209   3.798   5.854   0.355  0.1710 -0.4781  0.4248
 6948SOL    HW221210   3.709   5.972   0.323  0.4764 -0.5366 -0.6610
 6949SOL     OW21211   5.782   1.958   2.340 -0.1632  0.5544 -0.0830
 6949SOL    HW121212   5.865   1.918   2.367 -0.8764  0.4625  2.0724
 6949SOL    HW221213   5.760   1.913   2.258  0.9531 -0.7542  0.3043
 6950SOL     OW21214   5.141   5.482   3.895  0.3818  0.2722 -0.1943
 6950SOL    HW121215   5.103   5.396   3.912  0.8534 -0.1380 -1.1438
 6950SOL    HW221216   5.071   5.544   3.913  0.2236 -0.2549  1.1271
 6951SOL     OW21217   3.882   3.928   3.218  0.0202  0.2093 -0.0205
 6951SOL    HW121218   3.977   3.914   3.219  0.4299  2.2867 -2.0646
 6951SOL    HW221219   3.866   3.991   3.288 -0.1306 -1.2310  1.3047
 6952SOL     OW21220   0.508   4.050   0.567  0.0801  0.6766  0.1589
 6952SOL    HW121221   0.477   4.037   0.478  2.0832 -0.3215 -0.4550
 6952SOL    HW221222   0.517   4.145   0.577 -1.8643  0.9304 -0.0208
 6953SOL     OW21223   3.283   2.978   5.347  0.5388  0.4192 -0.5040
 6953SOL    HW121224   3.199   2.973   5.302  0.1619 -3.2794  0.3354
 6953SOL    HW221225   3.342   2.923   5.295  0.8530 -1.6038  1.7884
 6954SOL     OW21226   2.554   3.366   2.716 -0.2198 -0.4175 -0.4651
 6954SOL    HW121227   2.511   3.292   2.759 -2.1372  0.2047 -1.2084
 6954SOL    HW221228   2.533   3.441   2.770  0.8944 -0.2288 -0.2549
 6955SOL     OW21229   1.320   0.634   0.805  0.4489  0.1491  0.7009
 6955SOL    HW121230   1.230   0.619   0.833  0.0150  1.4037  0.0886
 6955SOL    HW221231   1.369   0.560   0.841 -0.6088  0.0404  2.0186
 6956SOL     OW21232   0.628   3.147   0.203  0.0153 -0.3356 -0.1818
 6956SOL    HW121233   0.671   3.093   0.269  0.3539 -0.6863 -0.6748
 6956SOL    HW221234   0.551   3.182   0.247  1.3180  1.1239  1.0348
 6957SOL     OW21235   6.660   5.665   2.240  0.3171 -0.1086 -0.0645
 6957SOL    HW121236   6.687   5.644   2.150 -1.7634 -0.5946 -0.6359
 6957SOL    HW221237   6.673   5.584   2.288  0.4001 -0.1738 -0.1946
 6958SOL     OW21238   3.520   4.623   6.032 -0.1009  0.3141  0.6921
 6958SOL    HW121239   3.595   4.678   6.055  1.6716 -0.5377 -2.4162
 6958SOL    HW221240   3.508   4.637   5.938 -2.3846 -1.3934  0.6347
 6959SOL     OW21241   5.641   2.099   4.286 -0.8787 -0.3773 -0.1809
 6959SOL    HW121242   5.660   2.137   4.200  2.2084 -0.0346  0.5540
 6959SOL    HW221243   5.627   2.006   4.269 -0.9520 -0.1985 -1.1308
 6960SOL     OW21244   2.054   0.253   5.818 -0.3973  0.2050 -0.0746
 6960SOL    HW121245   2.040   0.327   5.758  0.0549 -0.2128 -0.7094
 6960SOL    HW221246   2.106   0.290   5.890  0.0226  0.4554 -0.5021
 6961SOL     OW21247   3.636   0.082   2.145  0.2849  0.2945  0.0092
 6961SOL    HW121248   3.581   0.093   2.222 -0.6419  1.6554 -0.8037
 6961SOL    HW221249   3.614  -0.005   2.112 -0.8561  0.5288  0.1162
 6962SOL     OW21250   2.855   2.018   5.148  0.7454 -0.4080  0.1204
 6962SOL    HW121251   2.898   2.103   5.157  1.0828 -0.6858  1.2624
 6962SOL    HW221252   2.926   1.957   5.129  0.8746 -0.8486  1.8996
 6963SOL     OW21253   4.955   4.383   4.210  0.2676  1.2079  0.0491
 6963SOL    HW121254   4.910   4.331   4.142 -0.2759  0.3226  1.0566
 6963SOL    HW221255   5.020   4.434   4.162 -0.3696  0.8971 -1.1904
 6964SOL     OW21256   1.129   5.369   1.329  0.0582 -0.4465 -0.1991
 6964SOL    HW121257   1.169   5.378   1.416 -1.0774 -1.7542  0.5043
 6964SOL    HW221258   1.052   5.427   1.332 -0.3600 -0.9940 -0.0647
 6965SOL     OW21259   1.175   2.183   3.329  0.4738  0.3909  0.2111
 6965SOL    HW121260   1.083   2.166   3.351  0.4315  0.4838  0.1099
 6965SOL    HW221261   1.217   2.205   3.412  0.5873 -0.4687  0.3847
 6966SOL     OW21262   3.548   6.348   0.261  0.5464 -0.4602 -0.4093
 6966SOL    HW121263   3.457   6.325   0.241  1.1369 -1.1855 -2.6381
 6966SOL    HW221264   3.559   6.435   0.222  1.1721 -1.0013 -1.4806
 6967SOL     OW21265   5.828   5.149   3.082 -0.2089 -0.3793  0.3741
 6967SOL    HW121266   5.862   5.164   2.994 -0.7968  0.2524  0.2457
 6967SOL    HW221267   5.888   5.084   3.120 -0.5059 -1.4190 -0.8328
 6968SOL     OW21268   1.731   1.517   2.739  0.0300  0.1253  0.1058
 6968SOL    HW121269   1.721   1.503   2.833  2.2971 -0.3364  0.3448
 6968SOL    HW221270   1.643   1.508   2.703 -0.9884  0.9898  2.2475
 6969SOL     OW21271   4.024   3.382   1.063  0.4429 -0.8510  0.2969
 6969SOL    HW121272   4.085   3.308   1.065  1.1359 -0.2810  0.7085
 6969SOL    HW221273   3.939   3.344   1.087  0.2102 -2.0155 -2.0679
 6970SOL     OW21274   6.470   3.931   2.023  0.5510 -0.6641  0.1201
 6970SOL    HW121275   6.448   3.976   1.941 -0.5914 -2.0911 -0.3901
 6970SOL    HW221276   6.563   3.912   2.017  0.5162 -0.5684 -0.7486
 6971SOL     OW21277   6.715   3.806   2.056  0.2188  0.6320  0.2271
 6971SOL    HW121278   6.747   3.819   1.966  0.1781 -0.6345  0.0075
 6971SOL    HW221279   6.794   3.792   2.108  0.1683 -0.4175  0.0520
 6972SOL     OW21280   2.527   0.835   3.788 -0.3128 -0.3202 -0.2644
 6972SOL    HW121281   2.448   0.885   3.770  0.7275  1.5176  0.0907
 6972SOL    HW221282   2.598   0.886   3.750  0.8485 -1.3110  0.4759
 6973SOL     OW21283   2.481   1.320   3.475 -0.0799  0.1913  0.1693
 6973SOL    HW121284   2.522   1.391   3.525  1.7888 -1.6503  1.4608
 6973SOL    HW221285   2.550   1.290   3.416 -0.8636 -0.5042 -0.4179
 6974SOL     OW21286   1.191   5.636   4.572 -0.3793 -0.2470 -0.3283
 6974SOL    HW121287   1.240   5.587   4.638 -1.0426 -1.6361 -0.8295
 6974SOL    HW221288   1.158   5.713   4.619  0.8922 -0.1130  0.4138
 6975SOL     OW21289   5.490   1.853   0.702 -0.0773  0.0044 -0.4648
 6975SOL    HW121290   5.546   1.927   0.726 -0.4365  0.6522 -1.5610
 6975SOL    HW221291   5.455   1.821   0.785  1.1002  0.2357  0.1446
 6976SOL     OW21292   0.230   5.335   5.091 -0.5527  0.6849  0.5033
 6976SOL    HW121293   0.216   5.428   5.075 -1.5587  0.7085  1.3671
 6976SOL    HW221294   0.146   5.294   5.071 -0.7305  0.2492  1.9696
 6977SOL     OW21295   4.019   0.998   3.763 -0.7022 -0.2442  0.5487
 6977SOL    HW121296   4.044   0.924   3.708  0.3385 -0.8514  1.7939
 6977SOL    HW221297   4.052   0.976   3.850 -2.6916  0.4814  1.5451
 6978SOL     OW21298   3.237   5.304   5.505  0.4666 -0.4745  0.2980
 6978SOL    HW121299   3.236   5.314   5.410  1.4557 -0.1809  0.3097
 6978SOL    HW221300   3.160   5.250   5.524 -0.0682 -0.0545 -0.6025
 6979SOL     OW21301   1.269   5.623   6.084  0.1798 -0.4205  0.5650
 6979SOL    HW121302   1.342   5.582   6.037  0.6907  0.9812  0.0977
 6979SOL    HW221303   1.258   5.570   6.163  0.2021 -2.0064 -0.4398
 6980SOL     OW21304   3.355   5.843   4.051 -0.4723  0.1739  0.1865
 6980SOL    HW121305   3.275   5.833   4.000  0.5978 -2.3359 -1.1969
 6980SOL    HW221306   3.393   5.926   4.021 -1.1833  0.0288 -1.1865
 6981SOL     OW21307   2.995   0.797   1.156 -0.9550  0.7021 -0.3547
 6981SOL    HW121308   2.900   0.811   1.152 -1.3568 -0.1089  2.9398
 6981SOL    HW221309   3.032   0.869   1.106 -3.2716  0.1036 -3.1811
 6982SOL     OW21310   1.321   1.399   1.444 -0.3475  0.2172 -0.8602
 6982SOL    HW121311   1.320   1.490   1.414  1.1766  0.6634  0.2879
 6982SOL    HW221312   1.402   1.363   1.408 -0.5147 -0.4259 -0.6000
 6983SOL     OW21313   3.521   2.793   2.115  0.1228  0.6471  0.4660
 6983SOL    HW121314   3.513   2.753   2.201 -1.1379 -0.3397 -0.0659
 6983SOL    HW221315   3.492   2.883   2.127  0.1856  0.5818  1.1161
 6984SOL     OW21316   6.272   3.345   2.163 -0.1220  0.2560 -0.2623
 6984SOL    HW121317   6.195   3.398   2.186  0.6013  1.2552 -0.0683
 6984SOL    HW221318   6.256   3.260   2.204 -2.3960 -0.4887 -2.5085
 6985SOL     OW21319   3.600   6.238   0.700  0.7992  0.1346  0.0395
 6985SOL    HW121320   3.677   6.190   0.729  0.3130 -0.8103 -0.2095
 6985SOL    HW221321   3.557   6.180   0.637 -0.3470  0.4731  0.4910
 6986SOL     OW21322   2.984   1.108   5.134  0.2896  0.0747 -0.2862
 6986SOL    HW121323   3.053   1.070   5.079 -0.3599 -0.1093 -0.9914
 6986SOL    HW221324   2.902   1.081   5.091 -0.2174  0.3045  0.5274
 6987SOL     OW21325   5.206   0.906   4.230  0.0688  0.1407 -0.2605
 6987SOL    HW121326   5.275   0.915   4.296  0.0867  0.5945 -0.3370
 6987SOL    HW221327   5.125   0.927   4.277 -0.1095 -1.0193 -0.0055
 6988SOL     OW21328   5.195   1.493   1.684  0.2165 -0.2113 -0.1374
 6988SOL    HW121329   5.138   1.425   1.647 -0.1627  0.3433 -0.5904
 6988SOL    HW221330   5.183   1.568   1.626  0.8928  0.1341  0.1635
 6989SOL     OW21331   3.909   0.274   2.501 -0.0657 -0.2561  0.5647
 6989SOL    HW121332   3.992   0.305   2.536 -0.5130  0.9056  0.6378
 6989SOL    HW221333   3.930   0.245   2.412  0.3313  0.5058  0.4002
 6990SOL     OW21334   6.155   0.912   2.349  0.4413  0.1319  0.0624
 6990SOL    HW121335   6.225   0.975   2.336 -0.6177  1.1124 -1.2557
 6990SOL    HW221336   6.186   0.832   2.308  0.5141  0.7750 -1.1662
 6991SOL     OW21337   4.746   1.833   3.590 -0.4493 -0.6871 -0.0321
 6991SOL    HW121338   4.790   1.748   3.584  0.9320 -0.0576  0.6036
 6991SOL    HW221339   4.681   1.821   3.660 -1.9338 -1.8642 -1.5297
 6992SOL     OW21340   4.027   5.943   0.926  0.1581 -0.4224 -0.3522
 6992SOL    HW121341   4.105   5.904   0.887  0.7052 -0.4030  0.6869
 6992SOL    HW221342   3.954   5.906   0.877  0.7758 -1.1662 -0.7194
 6993SOL     OW21343   0.544   1.969   5.395 -0.3194 -0.3754  0.8340
 6993SOL    HW121344   0.554   1.905   5.325 -2.1236 -2.0426  1.9739
 6993SOL    HW221345   0.633   1.995   5.417  0.3075  0.2782 -2.0598
 6994SOL     OW21346   0.728   3.465   3.102  0.5190 -0.0542  0.0152
 6994SOL    HW121347   0.730   3.452   3.007  2.0232  1.2015 -0.1725
 6994SOL    HW221348   0.650   3.518   3.117  2.0069  2.6484 -1.0297
 6995SOL     OW21349   4.155   6.668   3.842  0.2465  0.6500 -0.9842
 6995SOL    HW121350   4.247   6.683   3.819  1.2435 -1.1909  1.3412
 6995SOL    HW221351   4.128   6.593   3.789  0.1659  1.0083 -1.4554
 6996SOL     OW21352   4.491   1.114   5.913  0.4320 -0.7049 -0.1719
 6996SOL    HW121353   4.409   1.066   5.902  0.3557 -0.9783  1.4285
 6996SOL    HW221354   4.470   1.183   5.976  1.4025 -0.6966  0.1495
 6997SOL     OW21355   0.453   6.654   5.470  0.6410 -0.0174 -0.5600
 6997SOL    HW121356   0.512   6.631   5.541 -1.8938 -0.4234  1.5845
 6997SOL    HW221357   0.500   6.629   5.390  3.0709 -0.8160  1.0241
 6998SOL     OW21358   6.083   0.628   4.537  0.1355 -0.1308  0.3703
 6998SOL    HW121359   6.050   0.568   4.470 -2.3362 -0.9663  2.2042
 6998SOL    HW221360   6.159   0.583   4.573 -0.5142 -1.2682  0.3723
 6999SOL     OW21361   6.772   2.418   5.567  0.1797 -0.0291  0.4724
 6999SOL    HW121362   6.796   2.343   5.513  2.4818  1.1409 -0.2848
 6999SOL    HW221363   6.719   2.473   5.510  2.2341  0.9867 -0.6020
 7000SOL     OW21364   5.975   4.969   5.128  0.5297  0.3432  0.1453
 7000SOL    HW121365   6.015   4.890   5.165 -2.0680 -0.5340  1.3317
 7000SOL    HW221366   5.980   5.034   5.198  2.2219  1.1636 -0.6623
 7001SOL     OW21367   3.440   4.744   5.010  0.0430  0.7574  0.2859
 7001SOL    HW121368   3.468   4.700   4.930  1.0021  2.5640 -0.4498
 7001SOL    HW221369   3.406   4.675   5.065  0.3082 -0.6948 -1.2841
 7002SOL     OW21370   3.879   2.747   5.866 -0.0581 -0.0493  0.3151
 7002SOL    HW121371   3.912   2.690   5.935 -1.1566  0.2339  1.1156
 7002SOL    HW221372   3.955   2.796   5.836  0.5139 -0.4639  1.0525
 7003SOL     OW21373   3.458   4.479   4.178 -0.0487 -0.2193 -0.0840
 7003SOL    HW121374   3.534   4.426   4.157  0.9234  1.4069 -0.8396
 7003SOL    HW221375   3.432   4.451   4.267  0.3000 -2.0227 -0.5136
 7004SOL     OW21376   5.946   4.339   1.140 -0.2355 -0.5107  0.1221
 7004SOL    HW121377   5.858   4.319   1.172 -0.5852 -1.7030 -1.4552
 7004SOL    HW221378   5.933   4.412   1.079  0.1358  0.4394  1.1573
 7005SOL     OW21379   4.246   5.333   1.387  0.7198  0.3224 -0.1788
 7005SOL    HW121380   4.218   5.270   1.321 -0.0501  1.4012 -0.9202
 7005SOL    HW221381   4.171   5.340   1.446  1.5857 -1.0080  1.1343
 7006SOL     OW21382   5.287   3.064   0.403  0.5773  0.1066 -0.0213
 7006SOL    HW121383   5.342   3.142   0.395  0.4981  0.1782  0.1226
 7006SOL    HW221384   5.317   3.022   0.483  2.2332 -1.2871 -1.2942
 7007SOL     OW21385   3.154   3.330   4.520 -0.3144  0.3270 -0.3627
 7007SOL    HW121386   3.196   3.415   4.507  0.0771  0.1480 -0.2590
 7007SOL    HW221387   3.066   3.352   4.551  0.2343  0.6849  1.0426
 7008SOL     OW21388   6.056   0.859   5.298  0.4144 -0.3829  0.0842
 7008SOL    HW121389   6.044   0.883   5.390  2.1972  0.9776  0.0191
 7008SOL    HW221390   6.099   0.773   5.301  2.1951  0.4828  0.6221
 7009SOL     OW21391   4.156   1.212   4.412 -0.0734  0.2998  0.6175
 7009SOL    HW121392   4.120   1.179   4.329 -0.0140 -0.4932  0.8998
 7009SOL    HW221393   4.081   1.219   4.470  0.0051  0.1052  0.7412
 7010SOL     OW21394   3.269   0.531   6.560  0.2471  0.2333  0.6884
 7010SOL    HW121395   3.241   0.527   6.651  1.4271  0.5004  1.0806
 7010SOL    HW221396   3.344   0.590   6.561 -0.7949  1.6707 -0.7366
 7011SOL     OW21397   3.826   4.415   1.657 -0.2331  0.0351  0.3704
 7011SOL    HW121398   3.819   4.367   1.574 -1.5127  1.3693 -0.3524
 7011SOL    HW221399   3.920   4.434   1.665 -0.0790 -0.1237 -0.7851
 7012SOL     OW21400   5.052   2.568   3.994  0.2644 -0.3943  0.5434
 7012SOL    HW121401   5.138   2.538   4.021  0.8313  1.7897  1.3169
 7012SOL    HW221402   4.998   2.563   4.073  0.3446  0.4548  0.6662
 7013SOL     OW21403   4.656   4.300   3.708  0.7201  0.2850 -0.5647
 7013SOL    HW121404   4.602   4.378   3.696  0.5014  0.3172  0.5404
 7013SOL    HW221405   4.616   4.234   3.651 -1.5916 -0.2259  1.4611
 7014SOL     OW21406   5.509   3.216   3.338 -0.0963 -0.1336  0.2620
 7014SOL    HW121407   5.547   3.255   3.259  1.7580 -0.4004  0.9775
 7014SOL    HW221408   5.420   3.193   3.312  0.1083  0.7753 -1.4200
 7015SOL     OW21409   2.786   4.937   0.361 -0.4189 -0.3020 -0.1097
 7015SOL    HW121410   2.766   5.021   0.402 -0.1868 -1.0565  1.6220
 7015SOL    HW221411   2.786   4.874   0.433 -1.8805 -2.0361 -1.5341
 7016SOL     OW21412   5.524   2.346   2.856 -0.2248 -0.2843 -0.3123
 7016SOL    HW121413   5.543   2.438   2.838  0.3602  0.0365  1.6494
 7016SOL    HW221414   5.589   2.321   2.923 -3.3974 -0.6167  2.9755
 7017SOL     OW21415   1.290   6.098   1.428  0.2710  0.2156  0.3352
 7017SOL    HW121416   1.352   6.114   1.356  2.3713 -0.0399  1.9868
 7017SOL    HW221417   1.285   6.003   1.434  0.9897  0.2236  1.2151
 7018SOL     OW21418   5.908   0.785   2.083 -0.2965  0.0568 -0.7287
 7018SOL    HW121419   5.971   0.713   2.080 -1.2355 -1.0535  2.2872
 7018SOL    HW221420   5.871   0.780   2.171 -0.8087  3.9559 -0.5680
 7019SOL     OW21421   6.596   5.709   2.633 -0.0609 -0.1105 -0.3343
 7019SOL    HW121422   6.523   5.728   2.692  0.9853  1.2929  0.5923
 7019SOL    HW221423   6.597   5.783   2.572 -0.2512 -0.8340 -1.2342
 7020SOL     OW21424   4.457   5.590   2.330  0.3193  0.4674 -0.7059
 7020SOL    HW121425   4.499   5.546   2.404  0.2453  2.0350  0.3204
 7020SOL    HW221426   4.377   5.540   2.315 -0.6725  1.2324  1.6146
 7021SOL     OW21427   2.122   1.428   1.842 -0.7553  0.3580 -0.1282
 7021SOL    HW121428   2.101   1.475   1.761  2.2875  3.1433  0.4764
 7021SOL    HW221429   2.101   1.489   1.912 -0.7234 -0.8999  1.0158
 7022SOL     OW21430   4.922   1.915   0.447 -0.0276  0.1318 -0.4587
 7022SOL    HW121431   4.921   1.965   0.528 -1.8933 -0.5909  0.0071
 7022SOL    HW221432   4.832   1.887   0.434  0.2990 -0.1184 -2.5884
 7023SOL     OW21433   2.328   2.907   5.715  0.2062  0.3387 -0.0478
 7023SOL    HW121434   2.318   2.912   5.810 -1.2302 -1.4528 -0.0530
 7023SOL    HW221435   2.362   2.993   5.690  0.2247  0.9896  2.0303
 7024SOL     OW21436   3.710   1.119   4.402 -0.4916 -0.5732  0.0931
 7024SOL    HW121437   3.737   1.074   4.322 -1.6830  0.9429 -1.2256
 7024SOL    HW221438   3.780   1.182   4.419  0.0570 -1.3115  0.6136
 7025SOL     OW21439   4.278   3.199   5.689 -0.2543  0.5175  0.5629
 7025SOL    HW121440   4.309   3.285   5.660 -0.9872  0.6624  0.1745
 7025SOL    HW221441   4.219   3.170   5.620  0.6477 -0.6991  0.2766
 7026SOL     OW21442   5.008   6.704   0.292 -0.0914 -0.1736 -0.1799
 7026SOL    HW121443   5.040   6.792   0.274 -0.9898  0.0747 -0.6437
 7026SOL    HW221444   5.002   6.662   0.206 -1.6873  0.0490 -0.2150
 7027SOL     OW21445   0.730   5.530   5.052 -0.0511 -0.1197  0.1414
 7027SOL    HW121446   0.704   5.438   5.063  0.3633 -0.2743 -0.1308
 7027SOL    HW221447   0.695   5.574   5.129  0.7339 -0.7268  0.8587
 7028SOL     OW21448   2.874   0.039   4.047 -0.0146  0.2433  0.1833
 7028SOL    HW121449   2.962   0.065   4.076 -0.1567  0.9685 -0.0258
 7028SOL    HW221450   2.822   0.119   4.053 -0.4251  0.0442 -0.6233
 7029SOL     OW21451   6.095   0.695   1.850  0.2311 -0.0632 -1.0985
 7029SOL    HW121452   6.123   0.778   1.810 -0.8618  1.1673  0.5552
 7029SOL    HW221453   6.007   0.681   1.817  0.6502 -0.9677 -1.8945
 7030SOL     OW21454   2.557   0.185   6.608  0.6145  0.0566 -0.3771
 7030SOL    HW121455   2.597   0.110   6.652  0.1711 -0.4091 -0.7557
 7030SOL    HW221456   2.489   0.215   6.667 -0.2881 -0.8542 -0.9239
 7031SOL     OW21457   4.420   4.912   4.296  0.3886 -0.2712  0.0115
 7031SOL    HW121458   4.488   4.878   4.237 -0.5472 -1.0085 -0.6624
 7031SOL    HW221459   4.439   5.005   4.303  0.9051 -0.2917 -0.9393
 7032SOL     OW21460   6.484   6.210   3.555  0.1176  0.4455  0.5421
 7032SOL    HW121461   6.495   6.115   3.561  0.2626  0.3648 -0.8390
 7032SOL    HW221462   6.414   6.223   3.491  1.8172  1.2965 -1.2426
 7033SOL     OW21463   2.720   3.674   6.740  0.1818  0.1672 -0.0734
 7033SOL    HW121464   2.745   3.595   6.787  2.1460  0.6658 -0.1925
 7033SOL    HW221465   2.647   3.710   6.790 -1.4677 -2.2045 -0.5912
 7034SOL     OW21466   2.048   0.942   5.235 -0.1159 -0.2526 -0.1729
 7034SOL    HW121467   2.134   0.919   5.199  0.4764 -1.4706  1.8765
 7034SOL    HW221468   2.023   0.868   5.290 -2.2341  0.3288 -0.2488
 7035SOL     OW21469   3.700   1.788   3.933  0.1883  0.2867 -0.3704
 7035SOL    HW121470   3.743   1.858   3.883 -0.0918  0.3691 -0.4984
 7035SOL    HW221471   3.771   1.748   3.984  0.1145  1.7078  0.9337
 7036SOL     OW21472   5.562   6.241   6.540  0.0813 -0.0397 -0.0178
 7036SOL    HW121473   5.506   6.317   6.552  0.2917 -0.1812  2.3147
 7036SOL    HW221474   5.502   6.169   6.522 -0.2825  0.3158 -0.2103
 7037SOL     OW21475   1.212   0.221   1.231 -0.0089  0.7915  0.9818
 7037SOL    HW121476   1.170   0.174   1.304  1.3950 -0.2565  1.1499
 7037SOL    HW221477   1.302   0.189   1.231 -0.5268 -1.3281 -2.8731
 7038SOL     OW21478   1.765   5.824   6.264  0.0878 -0.8911  0.3523
 7038SOL    HW121479   1.675   5.793   6.259 -0.0772 -0.4754  0.7261
 7038SOL    HW221480   1.761   5.902   6.319  0.1796  0.9228 -2.0247
 7039SOL     OW21481   5.193   0.914   6.788  0.3294 -0.0155  0.4109
 7039SOL    HW121482   5.228   0.975   6.723 -0.6814  1.1205  0.8944
 7039SOL    HW221483   5.111   0.883   6.750 -0.6301  1.2082  1.4192
 7040SOL     OW21484   6.312   5.818   5.559 -0.7967 -0.6509 -0.0505
 7040SOL    HW121485   6.390   5.808   5.615 -0.0439 -0.2430 -1.0027
 7040SOL    HW221486   6.246   5.762   5.601 -1.0735  1.4799  2.6596
 7041SOL     OW21487   0.119   5.537   2.391  0.6207  0.1442  0.1599
 7041SOL    HW121488   0.092   5.458   2.344 -1.3375 -0.7641  2.5883
 7041SOL    HW221489   0.129   5.603   2.323 -2.6064 -0.9143 -1.5422
 7042SOL     OW21490   4.305   6.505   5.241 -0.2160 -0.0484 -0.0398
 7042SOL    HW121491   4.293   6.416   5.207  0.8136 -0.4728  0.6187
 7042SOL    HW221492   4.392   6.530   5.212 -1.0075  1.2991 -1.3372
 7043SOL     OW21493   3.882   2.148   5.594  0.3654  1.2858 -0.0260
 7043SOL    HW121494   3.806   2.125   5.541  0.8185  0.7243 -0.4364
 7043SOL    HW221495   3.872   2.241   5.611  0.7143  1.7068 -1.9123
 7044SOL     OW21496   1.161   1.115   5.551  0.3184 -0.3687  0.1009
 7044SOL    HW121497   1.125   1.066   5.477  0.1753  0.5939 -0.4798
 7044SOL    HW221498   1.249   1.078   5.563  0.1236 -0.9334 -0.1655
 7045SOL     OW21499   2.269   3.626   6.350 -0.4966 -0.0353 -0.1376
 7045SOL    HW121500   2.181   3.589   6.341 -0.3548 -0.5782  0.6134
 7045SOL    HW221501   2.301   3.592   6.434  1.4691 -2.0766 -1.5859
 7046SOL     OW21502   1.360   0.055   0.745  0.2221 -0.1357 -0.5183
 7046SOL    HW121503   1.409   0.055   0.663  1.4465  0.0426  0.1915
 7046SOL    HW221504   1.424   0.081   0.811 -0.3592 -1.7177  0.7285
 7047SOL     OW21505   0.919   2.871   4.271  0.0770 -0.0507  0.3367
 7047SOL    HW121506   0.945   2.796   4.326  0.6428 -0.8826 -1.0196
 7047SOL    HW221507   0.984   2.938   4.291  0.9053 -0.7109 -0.0404
 7048SOL     OW21508   2.286   0.983   6.561 -0.7102 -0.0930  0.1442
 7048SOL    HW121509   2.304   0.985   6.655 -0.8390 -0.3782  0.1760
 7048SOL    HW221510   2.354   0.926   6.525 -0.8960 -0.2957  0.1161
 7049SOL     OW21511   5.365   3.171   6.006 -0.1559  0.0019  0.2833
 7049SOL    HW121512   5.325   3.090   6.038 -1.7435  0.7453  0.2794
 7049SOL    HW221513   5.455   3.168   6.039 -0.9707 -0.4950  2.6263
 7050SOL     OW21514   0.381   0.701   0.540  0.2418 -0.3886 -0.2864
 7050SOL    HW121515   0.398   0.654   0.622  0.5643 -1.8027 -1.1340
 7050SOL    HW221516   0.465   0.741   0.517  0.1917 -0.1252 -0.0150
 7051SOL     OW21517   5.188   6.160   4.165 -0.0709 -0.3324 -0.5527
 7051SOL    HW121518   5.100   6.159   4.128  0.1565  1.0280 -1.2013
 7051SOL    HW221519   5.242   6.200   4.096  0.7629  0.3028  0.4476
 7052SOL     OW21520   2.083   0.970   4.691 -0.1637  0.9794  0.4171
 7052SOL    HW121521   2.119   0.948   4.605  0.5351  0.9995  0.7005
 7052SOL    HW221522   1.990   0.984   4.675 -0.3942 -0.8376 -0.0258
 7053SOL     OW21523   1.630   6.410   1.668 -0.1882 -0.7051  0.1670
 7053SOL    HW121524   1.597   6.325   1.638  2.2219 -2.2639  1.5838
 7053SOL    HW221525   1.629   6.404   1.763  0.4841  0.6637  0.2871
 7054SOL     OW21526   1.324   4.404   3.264 -0.1589 -0.2267 -0.0272
 7054SOL    HW121527   1.231   4.425   3.254 -0.0069  1.0595  1.0470
 7054SOL    HW221528   1.344   4.351   3.187 -1.8771 -0.9160 -0.0625
 7055SOL     OW21529   0.180   4.406   3.460  0.1653  0.0537  0.3578
 7055SOL    HW121530   0.177   4.363   3.545 -3.3419 -1.2246 -0.2332
 7055SOL    HW221531   0.114   4.475   3.465  0.1432  0.1991 -1.2081
 7056SOL     OW21532   6.540   3.746   5.328  0.1874  0.0162  0.4093
 7056SOL    HW121533   6.493   3.663   5.316  0.8759 -0.1560 -1.4522
 7056SOL    HW221534   6.531   3.765   5.422 -1.3036 -1.3497  0.5937
 7057SOL     OW21535   5.592   6.644   1.360 -0.3886 -0.8070  0.2508
 7057SOL    HW121536   5.567   6.705   1.290 -0.1150 -1.5877 -0.5556
 7057SOL    HW221537   5.513   6.592   1.376 -0.9897  0.5193  1.7850
 7058SOL     OW21538   6.450   3.995   1.487  0.4747 -0.5123 -0.1340
 7058SOL    HW121539   6.507   4.055   1.440  0.6669 -0.3118  0.3440
 7058SOL    HW221540   6.431   3.925   1.425  0.2596  0.0378 -0.6937
 7059SOL     OW21541   3.829   1.657   2.844 -0.1293 -0.0113 -0.6938
 7059SOL    HW121542   3.827   1.600   2.921  1.3805  1.6480  0.6491
 7059SOL    HW221543   3.822   1.596   2.770  1.4026 -1.9587  0.6492
 7060SOL     OW21544   0.047   0.566   2.876 -0.2153  0.2953 -0.1626
 7060SOL    HW121545   0.096   0.647   2.860  1.6157 -0.8457 -0.6311
 7060SOL    HW221546   0.005   0.547   2.792 -0.6892  0.7678 -0.0380
 7061SOL     OW21547   2.171   4.070   0.635  0.1898  0.3856  0.2059
 7061SOL    HW121548   2.188   3.979   0.611  0.6623 -0.0724  2.0796
 7061SOL    HW221549   2.110   4.102   0.569  1.2506 -0.7804 -1.4107
 7062SOL     OW21550   6.485   2.637   3.976 -0.4586 -0.7328  0.0623
 7062SOL    HW121551   6.411   2.588   4.012 -0.1478  0.4765  2.6420
 7062SOL    HW221552   6.446   2.698   3.914 -1.1191 -2.5659 -1.4097
 7063SOL     OW21553   0.196   0.401   3.057 -0.0877 -0.1961 -0.2782
 7063SOL    HW121554   0.144   0.476   3.028 -0.6318 -1.1382 -1.8067
 7063SOL    HW221555   0.263   0.440   3.113 -1.8193  1.1488  0.9706
 7064SOL     OW21556   2.260   2.506   2.524 -0.3006 -0.3381 -0.0150
 7064SOL    HW121557   2.340   2.453   2.532  0.9328  1.5070  0.5593
 7064SOL    HW221558   2.289   2.588   2.484 -1.8909  0.4320  0.3129
 7065SOL     OW21559   4.503   0.873   3.227  0.1931 -0.2211  0.3443
 7065SOL    HW121560   4.562   0.807   3.190  0.6534  0.1311  0.4361
 7065SOL    HW221561   4.497   0.851   3.320  0.6778  0.1047  0.4571
 7066SOL     OW21562   0.934   6.383   2.316 -0.1955  0.2223 -0.6557
 7066SOL    HW121563   0.885   6.305   2.291 -1.6155  0.7846  0.2428
 7066SOL    HW221564   0.961   6.422   2.233 -1.7919  0.1988 -1.2255
 7067SOL     OW21565   3.837   6.063   0.645  0.5667 -0.0543  0.0992
 7067SOL    HW121566   3.820   6.006   0.570  0.8729  0.0929 -0.0856
 7067SOL    HW221567   3.852   6.149   0.607 -2.2355  0.7209  0.5008
 7068SOL     OW21568   2.968   5.591   2.405 -0.2309  0.3256  0.5558
 7068SOL    HW121569   2.873   5.600   2.410 -0.5789 -2.2082 -0.0656
 7068SOL    HW221570   2.990   5.609   2.313 -0.2989 -0.4183  0.3915
 7069SOL     OW21571   0.172   4.538   3.022 -0.1674 -0.3534  0.0878
 7069SOL    HW121572   0.203   4.474   3.086 -0.6927  0.5803  1.3194
 7069SOL    HW221573   0.088   4.568   3.057  0.1533  1.1290 -0.3614
 7070SOL     OW21574   4.286   3.608   4.458  0.6209  0.0071 -0.0093
 7070SOL    HW121575   4.255   3.687   4.414 -2.0653 -1.3343 -0.7532
 7070SOL    HW221576   4.346   3.568   4.396 -0.2795  0.0225 -0.9230
 7071SOL     OW21577   6.475   1.052   3.998  0.5471  0.1608  0.2022
 7071SOL    HW121578   6.558   1.005   4.004  0.6685  0.4705  1.0625
 7071SOL    HW221579   6.413   0.987   3.967  1.1405 -0.0309 -0.6259
 7072SOL     OW21580   6.175   4.924   6.138 -0.5511 -0.5095  0.4125
 7072SOL    HW121581   6.101   4.921   6.078 -1.1866  1.9661  0.9619
 7072SOL    HW221582   6.251   4.938   6.083 -0.8517 -0.3904  0.0255
 7073SOL     OW21583   6.025   6.006   0.179 -0.0522  0.3751 -0.4809
 7073SOL    HW121584   6.006   6.070   0.248 -0.1782  0.6717 -0.7863
 7073SOL    HW221585   5.959   6.024   0.112 -0.2542 -0.2551 -0.4502
 7074SOL     OW21586   1.757   0.840   2.927 -0.7609  0.5847  0.4255
 7074SOL    HW121587   1.707   0.773   2.880  1.2337  0.5223 -1.7968
 7074SOL    HW221588   1.823   0.792   2.976  0.7345  0.8026 -1.2459
 7075SOL     OW21589   3.368   2.453   4.127  0.5562 -0.2418 -0.0837
 7075SOL    HW121590   3.315   2.423   4.201  2.5111 -1.4463  0.9058
 7075SOL    HW221591   3.351   2.547   4.121 -2.2632 -0.6793 -0.3479
 7076SOL     OW21592   4.604   3.458   1.843 -0.0669 -0.8815  0.0629
 7076SOL    HW121593   4.685   3.411   1.865 -0.5531 -1.3640  0.8633
 7076SOL    HW221594   4.536   3.391   1.848 -0.5471 -0.4281 -0.3933
 7077SOL     OW21595   0.848   3.066   3.030  0.3307  0.4483 -0.5636
 7077SOL    HW121596   0.824   3.027   2.946 -2.3394  1.4217 -0.3393
 7077SOL    HW221597   0.893   2.995   3.077  3.0287  0.2252 -3.1468
 7078SOL     OW21598   1.152   3.276   3.976  0.2749 -0.0453  0.1487
 7078SOL    HW121599   1.125   3.232   3.895  1.4520  0.5587 -0.6106
 7078SOL    HW221600   1.072   3.286   4.027 -0.1646 -2.4438  0.0623
 7079SOL     OW21601   4.354   6.583   4.543 -0.1323  1.1865 -0.0056
 7079SOL    HW121602   4.261   6.563   4.527 -0.0943  0.9817  0.0209
 7079SOL    HW221603   4.353   6.668   4.586 -0.2165  1.8805 -1.3281
 7080SOL     OW21604   5.965   5.665   3.462  0.0934 -0.4486  0.0733
 7080SOL    HW121605   6.049   5.642   3.422 -1.3795 -0.9037 -3.0173
 7080SOL    HW221606   5.917   5.583   3.466 -1.5619  0.3463 -1.8128
 7081SOL     OW21607   1.637   4.570   0.868 -0.3168  0.3293 -0.4224
 7081SOL    HW121608   1.689   4.537   0.942 -0.9922 -1.4005 -0.6676
 7081SOL    HW221609   1.621   4.662   0.889 -0.0355  0.0181  1.3265
 7082SOL     OW21610   3.857   3.304   3.442  0.2183 -0.1282 -0.3922
 7082SOL    HW121611   3.948   3.282   3.421  0.0575 -2.5550  1.0195
 7082SOL    HW221612   3.862   3.353   3.523  0.2951  0.1725 -0.5784
 7083SOL     OW21613   4.808   1.164   3.280  0.2642  0.4230 -0.2609
 7083SOL    HW121614   4.826   1.116   3.199  0.8528 -0.8424  0.5960
 7083SOL    HW221615   4.828   1.102   3.350 -1.9577  0.8598  0.8573
 7084SOL     OW21616   4.142   1.393   6.615 -0.9372 -0.1738 -0.5300
 7084SOL    HW121617   4.208   1.451   6.654 -0.6636  0.4448 -1.8776
 7084SOL    HW221618   4.082   1.374   6.687 -0.6878  1.2853  0.0962
 7085SOL     OW21619   2.765   0.823   0.975 -0.5242  0.2919 -0.1590
 7085SOL    HW121620   2.688   0.880   0.972  0.1087  1.1725 -0.0267
 7085SOL    HW221621   2.746   0.753   0.912 -1.1707  0.8233 -0.5652
 7086SOL     OW21622   0.351   1.721   1.924 -0.1234  0.1286  0.4836
 7086SOL    HW121623   0.413   1.752   1.858  0.3118 -0.6036  0.5361
 7086SOL    HW221624   0.304   1.800   1.952 -0.6922  0.3761 -1.0795
 7087SOL     OW21625   0.360   3.172   0.261  0.2223 -0.1561 -0.2038
 7087SOL    HW121626   0.327   3.138   0.344  1.5044  3.0003  1.7913
 7087SOL    HW221627   0.312   3.254   0.247  2.0351  0.8464 -0.9752
 7088SOL     OW21628   4.234   0.193   1.318 -0.8812  0.1294  0.3158
 7088SOL    HW121629   4.206   0.160   1.404 -1.6355  0.0651  0.0505
 7088SOL    HW221630   4.298   0.261   1.339 -1.5092  0.5403  0.9573
 7089SOL     OW21631   1.431   3.494   0.363 -0.2085  0.3399 -0.3174
 7089SOL    HW121632   1.342   3.516   0.335 -0.0301  0.8249 -0.5024
 7089SOL    HW221633   1.472   3.578   0.382 -0.5899 -0.0053  2.3307
 7090SOL     OW21634   6.423   1.071   0.893 -0.6677 -0.1333 -0.1757
 7090SOL    HW121635   6.354   1.104   0.836 -0.8654  0.7716  0.5533
 7090SOL    HW221636   6.409   1.117   0.976 -0.1428 -1.1053  0.4745
 7091SOL     OW21637   0.928   2.123   1.642  0.0695  0.1882 -0.4600
 7091SOL    HW121638   0.858   2.108   1.579 -0.6810 -0.4453  0.4906
 7091SOL    HW221639   0.950   2.216   1.632 -0.0776  0.1124 -1.5945
 7092SOL     OW21640   6.664   3.881   1.160 -0.4637 -0.0201  0.1628
 7092SOL    HW121641   6.701   3.820   1.096 -0.6716 -0.5670  0.5607
 7092SOL    HW221642   6.725   3.955   1.161 -1.0488  0.5368 -1.5197
 7093SOL     OW21643   1.453   6.343   4.469  0.1754 -0.3172 -0.1646
 7093SOL    HW121644   1.513   6.314   4.538 -0.4375  0.6725  0.8164
 7093SOL    HW221645   1.459   6.275   4.403  3.3661  0.3315 -0.7459
 7094SOL     OW21646   1.311   1.878   3.498  0.2776 -0.8219 -0.1528
 7094SOL    HW121647   1.372   1.891   3.425 -0.0602  0.0992 -0.2911
 7094SOL    HW221648   1.352   1.923   3.571  0.0919 -0.7954 -0.0652
 7095SOL     OW21649   3.788   4.927   6.368 -0.0016  0.2000 -0.5221
 7095SOL    HW121650   3.718   4.930   6.433 -0.5269 -1.3735 -0.9816
 7095SOL    HW221651   3.775   5.007   6.316  1.1200  2.0998  1.9062
 7096SOL     OW21652   6.398   5.001   0.556 -0.1298 -0.6462 -0.4564
 7096SOL    HW121653   6.351   4.948   0.620 -0.9300 -0.2432 -0.6926
 7096SOL    HW221654   6.483   5.018   0.596 -0.1957 -1.3587 -0.0016
 7097SOL     OW21655   4.004   3.734   3.851 -0.4241 -0.1412 -0.2120
 7097SOL    HW121656   4.033   3.766   3.765 -0.6774 -0.7935 -0.5412
 7097SOL    HW221657   4.000   3.813   3.905 -1.8141  0.5226 -1.2346
 7098SOL     OW21658   0.236   6.760   1.394 -0.4228  0.0541 -0.2464
 7098SOL    HW121659   0.241   6.697   1.322  1.4068 -0.0400 -0.1060
 7098SOL    HW221660   0.254   6.845   1.352 -0.6205  0.1677 -0.0982
 7099SOL     OW21661   1.467   5.090   4.108 -0.3286 -0.6439  0.7339
 7099SOL    HW121662   1.413   5.012   4.091 -0.6927 -0.5570  1.4274
 7099SOL    HW221663   1.403   5.159   4.128  0.0306 -0.8245  2.7404
 7100SOL     OW21664   0.635   1.275   2.426  0.0381  0.0536  0.4045
 7100SOL    HW121665   0.685   1.194   2.438 -1.0100 -0.5079  1.1066
 7100SOL    HW221666   0.632   1.314   2.514  1.4578  1.4412 -0.1129
 7101SOL     OW21667   2.241   5.196   0.714  0.0538 -0.2469  0.3957
 7101SOL    HW121668   2.243   5.116   0.661 -0.3688 -0.4524  0.6887
 7101SOL    HW221669   2.294   5.259   0.664 -1.5545  0.0422 -1.0412
 7102SOL     OW21670   3.474   3.546   4.261 -0.2745 -0.1564  0.8047
 7102SOL    HW121671   3.446   3.455   4.265  1.4352 -0.6888  1.0836
 7102SOL    HW221672   3.417   3.591   4.323 -1.3689 -0.9363  0.4194
 7103SOL     OW21673   4.146   4.404   1.120 -0.3085 -0.2671  0.3966
 7103SOL    HW121674   4.224   4.371   1.077 -0.4577 -1.1999  0.8265
 7103SOL    HW221675   4.146   4.498   1.102  0.4605 -0.3997 -0.3041
 7104SOL     OW21676   3.998   5.094   4.042  0.4038  0.1826 -0.2204
 7104SOL    HW121677   3.945   5.079   3.964 -0.7957 -2.8264  1.0357
 7104SOL    HW221678   4.066   5.026   4.038  0.0932 -0.2819  1.4877
 7105SOL     OW21679   3.996   1.340   0.533 -0.7451  0.0993 -0.0179
 7105SOL    HW121680   4.038   1.257   0.512 -0.1969  0.5524 -0.7864
 7105SOL    HW221681   4.035   1.402   0.471  0.7295  1.4675  2.1212
 7106SOL     OW21682   1.904   0.689   3.305 -0.5573  0.0832  0.5640
 7106SOL    HW121683   1.906   0.661   3.213 -0.6647 -1.9379  1.1284
 7106SOL    HW221684   1.996   0.701   3.329 -0.5213  0.4662  0.2418
 7107SOL     OW21685   4.073   2.303   0.465 -0.0905 -0.6253  0.5474
 7107SOL    HW121686   4.155   2.259   0.488 -0.1604 -0.4644  1.1253
 7107SOL    HW221687   4.074   2.383   0.518  0.6570  0.7484 -1.4291
 7108SOL     OW21688   6.740   0.473   6.074 -0.3534 -0.0060  0.3685
 7108SOL    HW121689   6.670   0.427   6.119  2.0300 -1.8993  2.3879
 7108SOL    HW221690   6.752   0.425   5.992 -1.4231  0.3940 -0.0400
 7109SOL     OW21691   3.026   5.596   6.065 -0.6538  0.4371  0.1861
 7109SOL    HW121692   3.024   5.589   6.161 -0.6087 -0.8569  0.1095
 7109SOL    HW221693   2.947   5.551   6.036  0.2156 -0.7698 -0.4342
 7110SOL     OW21694   4.012   6.131   2.625  0.7851  0.1237 -0.3650
 7110SOL    HW121695   3.992   6.151   2.716  0.9015 -0.8981 -0.0939
 7110SOL    HW221696   4.065   6.051   2.629 -0.1334 -0.5692 -1.3820
 7111SOL     OW21697   6.311   4.490   3.749  0.1972  0.7086 -0.1044
 7111SOL    HW121698   6.231   4.523   3.791  0.5889 -1.2799  2.4394
 7111SOL    HW221699   6.283   4.464   3.661 -1.9668  0.0830  0.7102
 7112SOL     OW21700   6.270   5.898   6.445 -0.4607  0.0789  0.0214
 7112SOL    HW121701   6.272   5.844   6.524 -0.5140  2.4098  1.6939
 7112SOL    HW221702   6.355   5.882   6.403 -0.0821 -0.5670  0.9927
 7113SOL     OW21703   4.622   5.887   6.705  0.2071 -0.2365 -0.2955
 7113SOL    HW121704   4.716   5.876   6.698  0.1888 -2.7548  1.6779
 7113SOL    HW221705   4.610   5.965   6.759  1.2456 -0.8106  0.8046
 7114SOL     OW21706   1.874   3.275   3.067 -0.2473 -0.4949  0.1573
 7114SOL    HW121707   1.831   3.314   2.991 -1.2457 -1.8034  0.0061
 7114SOL    HW221708   1.902   3.188   3.036  0.8363 -0.3958  0.8123
 7115SOL     OW21709   6.430   5.492   5.216 -0.5696 -0.5416 -0.2872
 7115SOL    HW121710   6.428   5.565   5.154  1.6252  0.1295  0.3266
 7115SOL    HW221711   6.471   5.420   5.167  0.7366 -0.1538  0.1917
 7116SOL     OW21712   3.440   4.964   0.564 -0.1830 -0.1118 -0.0464
 7116SOL    HW121713   3.433   5.045   0.513  0.7755  1.8055  2.6431
 7116SOL    HW221714   3.528   4.932   0.545 -0.0722  0.2205 -0.1090
 7117SOL     OW21715   5.801   0.525   0.246  0.4001  0.4549  0.2359
 7117SOL    HW121716   5.814   0.431   0.234  0.9566  0.7100 -1.3198
 7117SOL    HW221717   5.802   0.561   0.158 -0.2110  1.8835  0.7861
 7118SOL     OW21718   5.821   2.031   4.491 -0.3581 -0.2350  0.8609
 7118SOL    HW121719   5.754   2.049   4.424  1.0964 -0.5168 -0.7436
 7118SOL    HW221720   5.823   1.935   4.496  1.2164 -0.3179 -0.5404
 7119SOL     OW21721   2.363   2.466   3.891 -0.2581  0.0035  0.2233
 7119SOL    HW121722   2.436   2.507   3.937  0.3359 -1.0708  0.2634
 7119SOL    HW221723   2.299   2.537   3.880  1.9990  1.7993 -2.5303
 7120SOL     OW21724   6.705   6.143   5.218  0.2141 -0.5907  0.4824
 7120SOL    HW121725   6.645   6.179   5.283 -0.7606 -0.0932 -0.6490
 7120SOL    HW221726   6.724   6.216   5.159  1.2883 -0.9560  0.3441
 7121SOL     OW21727   5.638   2.302   4.469 -0.1610  0.1618  0.4116
 7121SOL    HW121728   5.628   2.240   4.397 -0.7211 -0.2029  0.7918
 7121SOL    HW221729   5.715   2.353   4.446 -0.6939  0.4765 -0.7588
 7122SOL     OW21730   0.622   6.651   0.379  0.1329 -0.1698  0.5979
 7122SOL    HW121731   0.568   6.644   0.300 -0.0786  1.1181  0.6043
 7122SOL    HW221732   0.576   6.716   0.433  0.7490 -0.3811  1.3846
 7123SOL     OW21733   6.082   1.180   1.826 -0.1627  0.5595  0.3008
 7123SOL    HW121734   6.085   1.171   1.921 -2.3697 -2.7912  0.2054
 7123SOL    HW221735   5.994   1.212   1.807  0.4253  1.7105 -0.6568
 7124SOL     OW21736   1.766   0.973   3.586 -0.1388  0.7107 -0.3721
 7124SOL    HW121737   1.832   1.034   3.553  0.5551  0.3028  0.2303
 7124SOL    HW221738   1.754   0.910   3.515 -0.0901  0.9470 -0.5919
 7125SOL     OW21739   1.654   3.978   6.635 -0.0765 -0.2785  0.1909
 7125SOL    HW121740   1.655   4.073   6.621 -2.0329 -0.2154  0.2660
 7125SOL    HW221741   1.726   3.963   6.697  0.2040  1.1562  0.2599
 7126SOL     OW21742   0.619   1.226   3.709  0.0596  0.0424 -0.3167
 7126SOL    HW121743   0.549   1.273   3.756  0.3449 -0.1659  0.3272
 7126SOL    HW221744   0.594   1.233   3.617 -0.8692 -0.1152 -0.0944
 7127SOL     OW21745   6.029   6.507   3.231 -0.1310  0.2646  0.0854
 7127SOL    HW121746   6.035   6.412   3.230  0.6510  0.2951  0.8391
 7127SOL    HW221747   6.107   6.537   3.185  0.3443  0.5488  1.0506
 7128SOL     OW21748   2.814   1.854   0.379  0.0692 -0.3864  0.0487
 7128SOL    HW121749   2.867   1.899   0.444 -0.0925 -2.8253  2.0097
 7128SOL    HW221750   2.873   1.841   0.304  0.4352  1.9292 -0.1237
 7129SOL     OW21751   5.748   0.756   6.299 -0.0361  0.2231  0.7209
 7129SOL    HW121752   5.726   0.839   6.340 -0.1866  0.8536 -0.5745
 7129SOL    HW221753   5.840   0.742   6.321  0.7386  2.0056 -1.0576
 7130SOL     OW21754   1.110   4.967   0.300  0.0070  0.7000 -0.4842
 7130SOL    HW121755   1.019   4.941   0.312  0.0176  0.6980 -0.4090
 7130SOL    HW221756   1.106   5.040   0.239 -0.0444  0.6926 -0.4899
 7131SOL     OW21757   3.244   6.228   6.769  0.1406  0.0550 -0.4831
 7131SOL    HW121758   3.204   6.163   6.712  2.2107  0.6482 -2.8211
 7131SOL    HW221759   3.331   6.242   6.731  0.3354  3.0725  0.7951
 7132SOL     OW21760   2.388   5.856   1.935  0.3033 -0.5905  0.2874
 7132SOL    HW121761   2.346   5.935   1.971  1.8365  0.0676  0.7241
 7132SOL    HW221762   2.324   5.787   1.948 -0.2396  0.1677  1.8922
 7133SOL     OW21763   2.301   1.195   5.060 -0.0564  0.1718 -0.4925
 7133SOL    HW121764   2.231   1.165   5.001 -0.6651  1.2688 -0.3541
 7133SOL    HW221765   2.255   1.243   5.129  0.8779  1.5782 -0.8197
 7134SOL     OW21766   6.497   6.259   5.359 -0.5356 -0.0609 -0.5339
 7134SOL    HW121767   6.525   6.341   5.399 -1.1061  0.0486 -0.3448
 7134SOL    HW221768   6.478   6.201   5.433  0.6344 -0.6509 -0.6626
 7135SOL     OW21769   2.489   4.034   6.786 -0.1035  0.3392 -0.1323
 7135SOL    HW121770   2.464   4.083   6.708 -0.5604 -0.3952 -0.4497
 7135SOL    HW221771   2.494   4.101   6.855  0.4896  1.0175 -0.8158
 7136SOL     OW21772   5.159   0.900   4.805  0.1826  0.2044 -0.1422
 7136SOL    HW121773   5.137   0.813   4.771 -0.9391  0.8294 -1.0542
 7136SOL    HW221774   5.194   0.882   4.892 -1.0434 -1.0990  0.1333
 7137SOL     OW21775   2.458   4.434   0.890  0.0430  0.2851  0.2951
 7137SOL    HW121776   2.373   4.399   0.915 -0.1368  0.2224 -0.3697
 7137SOL    HW221777   2.468   4.408   0.798  0.7238  0.3957  0.3326
 7138SOL     OW21778   1.087   6.787   4.204 -0.0128 -0.2845  0.4278
 7138SOL    HW121779   0.997   6.800   4.235  0.2839  1.4882  0.6787
 7138SOL    HW221780   1.136   6.760   4.281  0.5251  3.1533  1.4626
 7139SOL     OW21781   1.252   5.132   1.366  0.3687 -0.1062  0.4298
 7139SOL    HW121782   1.185   5.200   1.355  0.5914  0.1512  0.6596
 7139SOL    HW221783   1.329   5.168   1.322 -0.1122 -1.1207 -1.3359
 7140SOL     OW21784   5.427   1.502   6.610 -0.0487  0.1556 -0.3818
 7140SOL    HW121785   5.350   1.534   6.657  0.5629  0.5794  0.3653
 7140SOL    HW221786   5.395   1.481   6.523 -1.1338 -0.2652  0.1015
 7141SOL     OW21787   5.699   0.198   2.846  0.2489 -0.7390  0.1909
 7141SOL    HW121788   5.709   0.139   2.920 -2.0156 -3.8762 -1.7398
 7141SOL    HW221789   5.685   0.284   2.886  1.2927 -1.8494  3.2540
 7142SOL     OW21790   2.031   1.885   2.020  0.0791 -0.1970  0.1209
 7142SOL    HW121791   1.975   1.897   2.096  2.1140  1.5987  1.4624
 7142SOL    HW221792   1.972   1.858   1.950 -2.2435  0.4840  1.7267
 7143SOL     OW21793   0.640   6.379   5.398 -0.6091  0.0251  0.7148
 7143SOL    HW121794   0.605   6.313   5.339  0.2447  0.3041 -0.1232
 7143SOL    HW221795   0.728   6.348   5.420 -0.1743  0.9037  0.2624
 7144SOL     OW21796   4.599   4.839   4.091 -0.3110  0.1445  0.0869
 7144SOL    HW121797   4.649   4.904   4.141 -2.0265 -1.0128  3.7177
 7144SOL    HW221798   4.644   4.756   4.106 -0.9936 -0.2712 -0.0917
 7145SOL     OW21799   0.945   0.226   3.744 -0.1972 -0.2639 -0.3001
 7145SOL    HW121800   0.896   0.151   3.777 -1.6545  1.0821  0.7925
 7145SOL    HW221801   0.895   0.256   3.668  0.3058 -0.3339 -0.6592
 7146SOL     OW21802   4.252   0.829   4.710 -0.2054 -0.0549  0.3312
 7146SOL    HW121803   4.224   0.769   4.779 -0.5620 -0.3124 -0.0294
 7146SOL    HW221804   4.206   0.798   4.632  0.1183  0.2931  0.0011
 7147SOL     OW21805   6.019   2.439   4.766 -0.2681 -0.2406 -0.5374
 7147SOL    HW121806   5.937   2.470   4.727  0.3579  0.3110 -1.4559
 7147SOL    HW221807   5.999   2.429   4.859 -0.8402  1.8841 -0.3620
 7148SOL     OW21808   4.360   6.785   6.434  0.5251 -0.5691 -0.0551
 7148SOL    HW121809   4.343   6.824   6.348 -0.3013 -2.4930 -0.8257
 7148SOL    HW221810   4.441   6.827   6.464  0.1410  1.0642 -1.1714
 7149SOL     OW21811   1.993   1.383   5.051 -0.8949 -0.0811  0.5043
 7149SOL    HW121812   2.049   1.305   5.054 -0.6417  0.0685 -0.1785
 7149SOL    HW221813   1.904   1.349   5.046 -0.8639 -0.3207  1.4082
 7150SOL     OW21814   3.867   6.497   1.063 -0.9134 -0.5781 -0.1555
 7150SOL    HW121815   3.875   6.593   1.058  1.7256 -0.7754 -2.2080
 7150SOL    HW221816   3.831   6.481   1.150 -0.7048  2.2576  0.5631
 7151SOL     OW21817   2.260   1.197   3.623 -0.0646 -0.7208  0.1845
 7151SOL    HW121818   2.336   1.234   3.578  0.1033 -0.7857  0.4177
 7151SOL    HW221819   2.230   1.268   3.680 -1.0318 -0.1862 -0.9342
 7152SOL     OW21820   5.779   1.464   1.614  0.1299 -0.4499  0.1267
 7152SOL    HW121821   5.728   1.521   1.671 -0.3937  0.7772 -1.4866
 7152SOL    HW221822   5.746   1.483   1.526  3.0035  0.0115 -0.9522
 7153SOL     OW21823   5.606   3.077   2.681  0.7458  0.6050 -0.5013
 7153SOL    HW121824   5.588   2.996   2.633  2.0175  0.3352 -0.5516
 7153SOL    HW221825   5.646   3.135   2.617 -1.0999  1.6895 -0.7313
 7154SOL     OW21826   6.026   2.287   6.269 -0.4881 -0.6792  0.6138
 7154SOL    HW121827   6.083   2.304   6.344 -1.0168 -1.6488  1.2462
 7154SOL    HW221828   5.951   2.344   6.282 -0.9677 -1.4543  1.2658
 7155SOL     OW21829   1.054   4.871   6.650 -0.1252 -0.1140  0.3517
 7155SOL    HW121830   1.115   4.818   6.700  0.2494  0.1357  0.1659
 7155SOL    HW221831   1.003   4.808   6.598  1.4511 -0.2172 -1.1555
 7156SOL     OW21832   3.782   2.264   4.795  0.2973  0.6706  0.2816
 7156SOL    HW121833   3.746   2.311   4.870  2.2477 -0.5731  2.1275
 7156SOL    HW221834   3.871   2.241   4.821 -0.6768 -4.9016  0.0777
 7157SOL     OW21835   0.881   0.882   6.467  0.0233 -0.3907 -0.1286
 7157SOL    HW121836   0.847   0.919   6.548 -1.4808 -0.4705 -0.6878
 7157SOL    HW221837   0.964   0.928   6.452 -0.9210  1.4752  0.1103
 7158SOL     OW21838   3.323   2.325   1.220 -0.1862 -0.5411 -0.0050
 7158SOL    HW121839   3.253   2.285   1.169 -0.8368 -1.2215  1.3718
 7158SOL    HW221840   3.361   2.252   1.269  0.8578 -0.0139 -0.0033
 7159SOL     OW21841   0.416   6.501   4.474 -0.1113  0.0806 -0.0953
 7159SOL    HW121842   0.446   6.436   4.410 -0.7200 -0.0629 -0.2396
 7159SOL    HW221843   0.418   6.456   4.558 -1.9464 -0.6138 -0.3848
 7160SOL     OW21844   6.201   4.950   1.043  0.2921  0.0733 -0.2600
 7160SOL    HW121845   6.194   4.995   1.127  2.1594  0.8816 -0.4703
 7160SOL    HW221846   6.112   4.925   1.021 -0.4232  1.1210  1.2735
 7161SOL     OW21847   4.137   3.239   0.139 -0.9321 -0.4148  0.3102
 7161SOL    HW121848   4.191   3.193   0.203 -1.7616 -0.1420  1.2233
 7161SOL    HW221849   4.052   3.250   0.182 -0.5746  2.6371  0.4665
 7162SOL     OW21850   6.257   3.471   6.551  0.8014 -0.3157 -0.7347
 7162SOL    HW121851   6.238   3.466   6.458  1.0265 -0.6257 -0.7661
 7162SOL    HW221852   6.344   3.511   6.555 -0.0895  1.7431 -0.5713
 7163SOL     OW21853   1.283   3.041   0.409 -0.0333 -0.5709 -0.4859
 7163SOL    HW121854   1.231   2.961   0.397  0.2451 -0.9955  0.9719
 7163SOL    HW221855   1.299   3.046   0.503 -0.6524  1.6161 -0.4513
 7164SOL     OW21856   3.384   2.281   6.308  0.1664 -0.2918  0.2926
 7164SOL    HW121857   3.382   2.231   6.389 -0.2759 -1.4431 -0.4096
 7164SOL    HW221858   3.432   2.226   6.246 -0.2599  0.1759 -0.4736
 7165SOL     OW21859   3.077   6.570   2.552  0.0367  0.5038 -0.1707
 7165SOL    HW121860   3.114   6.611   2.473 -1.7477  1.3987 -0.5710
 7165SOL    HW221861   2.994   6.615   2.566 -2.2078 -3.0464 -0.7769
 7166SOL     OW21862   6.040   0.963   3.856 -0.0819  0.2621  0.5081
 7166SOL    HW121863   6.037   1.019   3.779  0.0984  0.7701  0.8586
 7166SOL    HW221864   6.006   1.019   3.927 -0.3388 -0.2260  0.7740
 7167SOL     OW21865   2.058   4.901   3.036  0.3597 -0.7511 -0.4064
 7167SOL    HW121866   2.045   4.979   3.089 -0.0664 -0.2673 -1.2017
 7167SOL    HW221867   2.125   4.926   2.972  0.1166 -0.9826 -0.7567
 7168SOL     OW21868   5.978   2.461   2.725 -0.0335  0.3672 -0.0053
 7168SOL    HW121869   5.958   2.541   2.775  2.6706  1.2158 -0.1207
 7168SOL    HW221870   5.967   2.390   2.788  0.1150  1.0870  0.8500
 7169SOL     OW21871   0.735   0.478   6.338 -0.0396  0.5529  0.0089
 7169SOL    HW121872   0.807   0.524   6.295 -0.5396  0.1145 -1.3467
 7169SOL    HW221873   0.708   0.411   6.275 -0.0971 -0.8455  1.4461
 7170SOL     OW21874   1.319   5.873   1.656 -0.1444 -0.0715  0.1973
 7170SOL    HW121875   1.324   5.910   1.744  0.7597 -0.6829  0.4199
 7170SOL    HW221876   1.318   5.778   1.670  2.9774 -0.3097 -0.5023
 7171SOL     OW21877   1.716   4.098   1.918 -0.0720 -0.1467  0.1940
 7171SOL    HW121878   1.803   4.058   1.929 -0.4082 -0.5925  1.4508
 7171SOL    HW221879   1.733   4.179   1.870  0.7399 -1.3187 -1.5924
 7172SOL     OW21880   4.176   4.135   0.279 -0.0668 -0.1451  0.1408
 7172SOL    HW121881   4.172   4.226   0.309 -0.0699 -0.7203  2.0233
 7172SOL    HW221882   4.264   4.105   0.304  0.7790 -0.0622 -2.4587
 7173SOL     OW21883   2.969   3.902   2.391 -0.8744  0.2177 -0.1866
 7173SOL    HW121884   3.053   3.861   2.370 -0.9884  0.2774 -0.7671
 7173SOL    HW221885   2.968   3.906   2.487 -0.4617 -0.2952 -0.1545
 7174SOL     OW21886   0.019   2.530   1.466  0.9276  0.2237 -0.1384
 7174SOL    HW121887  -0.057   2.588   1.473 -0.0797 -0.9812 -0.7318
 7174SOL    HW221888   0.059   2.533   1.553  0.9728  1.8635 -0.1818
 7175SOL     OW21889   2.959   0.727   6.158  0.1993  0.5702  0.0259
 7175SOL    HW121890   2.866   0.745   6.171  0.3437  1.6933 -0.4191
 7175SOL    HW221891   2.992   0.711   6.247 -0.5392 -0.5881  0.1238
 7176SOL     OW21892   0.113   2.645   3.230 -0.0011  0.5283  0.0337
 7176SOL    HW121893   0.165   2.566   3.217  0.2604  0.6667  0.2136
 7176SOL    HW221894   0.135   2.673   3.319 -0.1608  0.7524  0.0029
 7177SOL     OW21895   1.344   4.115   2.553 -0.4034 -0.4581  0.3755
 7177SOL    HW121896   1.306   4.143   2.636  3.0201  1.4820  1.5202
 7177SOL    HW221897   1.427   4.073   2.578 -0.5824 -2.3934 -1.9755
 7178SOL     OW21898   1.960   5.390   4.655  0.4502 -0.1064 -0.6469
 7178SOL    HW121899   1.941   5.479   4.684 -1.2017  0.3582 -2.9128
 7178SOL    HW221900   1.876   5.355   4.628  1.1163 -2.2978 -0.0372
 7179SOL     OW21901   0.974   0.726   0.184 -0.2939  0.4697  0.0541
 7179SOL    HW121902   1.014   0.687   0.106 -1.4831 -0.7101 -0.0088
 7179SOL    HW221903   0.880   0.725   0.165 -0.8868 -2.1305  2.4094
 7180SOL     OW21904   4.477   2.841   4.174  0.7274  0.6225 -0.3973
 7180SOL    HW121905   4.557   2.789   4.179  0.5572  0.3079 -0.8356
 7180SOL    HW221906   4.406   2.779   4.191  0.4458  0.4403 -2.0027
 7181SOL     OW21907   1.600   6.057   0.475 -0.0204 -0.5386  0.4631
 7181SOL    HW121908   1.522   6.003   0.479 -1.8375  1.9126  0.4133
 7181SOL    HW221909   1.611   6.091   0.564  0.0111  0.3791  0.1225
 7182SOL     OW21910   5.575   4.986   6.040 -0.6233  0.3579 -0.1422
 7182SOL    HW121911   5.480   4.980   6.053 -0.4391 -2.3899  0.5923
 7182SOL    HW221912   5.589   4.966   5.948 -0.7509  0.4941 -0.1900
 7183SOL     OW21913   3.311   4.523   5.124 -0.0935  0.2751  0.1091
 7183SOL    HW121914   3.385   4.477   5.085 -1.7007 -1.8778 -0.6348
 7183SOL    HW221915   3.318   4.507   5.218  0.3081 -0.0498  0.0233
 7184SOL     OW21916   0.417   1.126   2.695 -0.2707 -0.1946 -0.2153
 7184SOL    HW121917   0.379   1.207   2.729 -0.5036  0.3122 -1.6231
 7184SOL    HW221918   0.347   1.061   2.707  0.7242 -0.8430  3.1219
 7185SOL     OW21919   2.364   6.027   2.616 -0.1650  0.0381 -0.1948
 7185SOL    HW121920   2.421   5.950   2.617 -1.3755 -0.8971  0.2667
 7185SOL    HW221921   2.422   6.100   2.634  0.8124 -0.9285  0.7530
 7186SOL     OW21922   2.719   1.092   2.872  0.2472  0.2073 -0.0753
 7186SOL    HW121923   2.749   1.072   2.961 -0.5580 -1.4112 -0.1242
 7186SOL    HW221924   2.641   1.145   2.884 -2.0369 -2.9528  0.4307
 7187SOL     OW21925   5.373   2.619   5.260  0.7518  0.0001  1.1374
 7187SOL    HW121926   5.324   2.548   5.217  2.1250 -0.4199  0.1891
 7187SOL    HW221927   5.309   2.689   5.271  0.0385 -0.3380 -0.5267
 7188SOL     OW21928   5.393   6.209   2.969  0.0574 -0.2311 -0.4488
 7188SOL    HW121929   5.339   6.206   2.890  0.5124  0.6972 -0.8147
 7188SOL    HW221930   5.459   6.140   2.955 -0.0541 -0.2819 -0.7368
 7189SOL     OW21931   5.062   5.448   2.459 -0.1271 -1.2299  0.1769
 7189SOL    HW121932   5.069   5.476   2.368 -0.9872 -0.1785  0.4132
 7189SOL    HW221933   5.133   5.495   2.504 -0.7962 -0.3689  0.3515
 7190SOL     OW21934   6.651   5.772   0.430 -0.1818  0.0271 -0.9058
 7190SOL    HW121935   6.632   5.864   0.410  3.5486  0.9802 -0.6874
 7190SOL    HW221936   6.710   5.744   0.360  1.1871 -1.2263  0.6785
 7191SOL     OW21937   5.314   1.317   2.644 -0.2262  0.1543  0.0772
 7191SOL    HW121938   5.219   1.312   2.659  0.0707  2.5790  4.3682
 7191SOL    HW221939   5.348   1.235   2.681 -0.5455 -0.9624 -1.9373
 7192SOL     OW21940   0.782   1.343   5.545  0.0041  0.1727  0.1452
 7192SOL    HW121941   0.707   1.343   5.603 -1.0631  1.0934 -1.1815
 7192SOL    HW221942   0.828   1.424   5.565 -0.2066  0.3518 -0.0926
 7193SOL     OW21943   3.321   6.526   6.364 -0.2322 -0.3275  0.6714
 7193SOL    HW121944   3.321   6.440   6.322  0.3743 -0.0865  0.1527
 7193SOL    HW221945   3.408   6.562   6.344 -1.2074  1.2802 -0.9593
 7194SOL     OW21946   5.463   5.078   1.170 -0.3639 -0.3755 -0.0710
 7194SOL    HW121947   5.388   5.064   1.229 -0.4371  0.9853  0.1908
 7194SOL    HW221948   5.515   5.145   1.214 -1.0147  1.5661 -2.0494
 7195SOL     OW21949   5.798   5.485   2.961  0.0039  0.0959 -0.4285
 7195SOL    HW121950   5.785   5.463   2.869  0.3589  0.7730 -0.6410
 7195SOL    HW221951   5.877   5.538   2.963  0.6305 -0.8239  0.4027
 7196SOL     OW21952   2.022   0.097   2.890 -0.5535 -0.1176 -0.3538
 7196SOL    HW121953   2.019   0.003   2.901 -1.2544 -0.5660 -3.3693
 7196SOL    HW221954   2.088   0.111   2.822  0.0677  1.6543  0.5444
 7197SOL     OW21955   6.788   4.631   5.207 -0.1628  0.5361  0.0765
 7197SOL    HW121956   6.814   4.721   5.191  0.6970  0.3238  0.2424
 7197SOL    HW221957   6.727   4.636   5.280 -0.2410  0.9973 -0.0192
 7198SOL     OW21958   6.720   4.472   4.134 -0.7473 -0.1568 -0.6212
 7198SOL    HW121959   6.629   4.462   4.160 -0.5243 -0.1319  0.2252
 7198SOL    HW221960   6.741   4.563   4.155 -0.6625 -0.0261 -1.2606
 7199SOL     OW21961   1.003   3.770   2.615  0.1094 -0.8255 -0.4493
 7199SOL    HW121962   0.952   3.689   2.616 -1.0576 -0.1679 -1.8284
 7199SOL    HW221963   0.938   3.840   2.617  1.0378  0.0721 -0.4321
 7200SOL     OW21964   0.526   3.826   6.396  0.0692 -0.0929  0.0290
 7200SOL    HW121965   0.526   3.778   6.313 -1.6704  4.0837 -2.7080
 7200SOL    HW221966   0.581   3.903   6.380 -0.9841  1.2960  2.4751
 7201SOL     OW21967   5.693   4.510   2.680 -0.0610 -0.0541  0.4724
 7201SOL    HW121968   5.706   4.596   2.640 -0.8422  0.1421  0.6137
 7201SOL    HW221969   5.779   4.485   2.714  0.0120  1.0439  1.1468
 7202SOL     OW21970   5.504   5.621   0.383 -0.0516 -0.4193  0.7685
 7202SOL    HW121971   5.566   5.575   0.327 -0.8739 -1.5677  0.7633
 7202SOL    HW221972   5.456   5.679   0.323  0.2953 -0.3047  0.6008
 7203SOL     OW21973   0.107   5.951   4.637  0.1183 -0.4573 -0.1487
 7203SOL    HW121974   0.014   5.937   4.616 -0.2393  1.2534  0.1919
 7203SOL    HW221975   0.106   6.021   4.702  1.7601  1.1020 -1.7172
 7204SOL     OW21976   6.600   1.298   0.768  0.2205 -0.0849 -0.1751
 7204SOL    HW121977   6.576   1.205   0.763  1.4441 -0.3815 -1.3165
 7204SOL    HW221978   6.547   1.341   0.702  0.4403 -0.1762 -0.4150
 7205SOL     OW21979   0.628   0.569   5.670 -0.0844  0.0823 -0.3084
 7205SOL    HW121980   0.581   0.549   5.589 -1.2686 -0.2875  0.4496
 7205SOL    HW221981   0.669   0.653   5.653 -1.2583  0.5567 -0.9037
 7206SOL     OW21982   2.705   4.823   0.873  0.0278 -0.1286 -0.7783
 7206SOL    HW121983   2.746   4.827   0.787  1.8780 -2.2963 -0.0628
 7206SOL    HW221984   2.646   4.748   0.868  1.7112 -1.5790  0.4381
 7207SOL     OW21985   1.461   2.704   1.771  0.1739 -0.0185 -0.1253
 7207SOL    HW121986   1.538   2.743   1.731 -1.2357  3.1212 -0.0436
 7207SOL    HW221987   1.464   2.734   1.862  1.2452 -3.8290  1.3334
 7208SOL     OW21988   2.813   6.595   4.809  0.5869  0.7400  0.0866
 7208SOL    HW121989   2.843   6.511   4.844  1.3675  1.2703  0.7351
 7208SOL    HW221990   2.858   6.660   4.862  0.3153  1.5759 -0.6825
 7209SOL     OW21991   6.553   2.981   6.759 -0.0364  0.1592  0.1192
 7209SOL    HW121992   6.485   2.915   6.744 -0.6610  0.5542  1.1169
 7209SOL    HW221993   6.627   2.951   6.708  0.1775 -2.0798  1.6215
 7210SOL     OW21994   0.569   5.867   0.563  0.2178  0.4728 -0.2508
 7210SOL    HW121995   0.625   5.866   0.486  1.1200  1.0004  0.3869
 7210SOL    HW221996   0.626   5.894   0.635  0.2607 -3.1220  1.2921
 7211SOL     OW21997   4.324   5.345   5.992  0.4327  0.8085  0.1380
 7211SOL    HW121998   4.339   5.338   5.897  0.7901  1.6197  0.1235
 7211SOL    HW221999   4.233   5.375   5.999 -0.3729 -1.4209  0.1434
 7212SOL     OW22000   0.759   4.796   1.532 -0.3581 -0.7292  0.0994
 7212SOL    HW122001   0.794   4.884   1.520  0.1771 -1.0645 -0.9029
 7212SOL    HW222002   0.705   4.802   1.611 -0.7242  0.6095 -0.2348
 7213SOL     OW22003   4.122   0.611   4.211  0.3006  0.6084  0.0822
 7213SOL    HW122004   4.165   0.546   4.156  1.9277  1.9272 -0.2792
 7213SOL    HW222005   4.029   0.604   4.189  0.1187 -2.7208  1.2837
 7214SOL     OW22006   6.022   1.779   4.738  0.4579  0.2542 -0.1760
 7214SOL    HW122007   5.959   1.845   4.768  0.1738 -0.9701  2.1739
 7214SOL    HW222008   6.101   1.798   4.789 -0.1100 -2.0600  1.7475
 7215SOL     OW22009   6.650   5.094   1.765 -0.1947 -0.5074 -0.6015
 7215SOL    HW122010   6.636   5.121   1.674 -0.8720 -0.5445 -0.5168
 7215SOL    HW222011   6.576   5.036   1.784  0.7987 -1.7745 -0.5254
 7216SOL     OW22012   4.089   5.871   4.210  0.6194  0.1431  0.0601
 7216SOL    HW122013   4.043   5.887   4.128  0.1141  1.7930  0.6239
 7216SOL    HW222014   4.052   5.789   4.243 -1.3132  0.9627  0.0603
 7217SOL     OW22015   5.886   4.723   0.233 -0.4319  0.0313 -0.2746
 7217SOL    HW122016   5.970   4.697   0.195 -0.1210 -1.1775  1.1104
 7217SOL    HW222017   5.828   4.649   0.217 -0.3669 -0.4026  1.2645
 7218SOL     OW22018   3.352   6.008   3.680 -0.1430 -0.0502 -0.1600
 7218SOL    HW122019   3.419   6.011   3.749 -0.5988 -0.4253  0.3009
 7218SOL    HW222020   3.294   6.081   3.701 -0.6353 -0.5474  0.2153
 7219SOL     OW22021   0.709   4.579   6.351  0.1392 -0.3305 -0.0841
 7219SOL    HW122022   0.633   4.574   6.294 -0.1164 -2.3648  0.3670
 7219SOL    HW222023   0.774   4.520   6.311 -0.3955 -2.6074  2.1125
 7220SOL     OW22024   1.619   6.457   0.023 -0.4442 -0.3492 -0.5883
 7220SOL    HW122025   1.570   6.416  -0.047 -0.0119 -0.9463 -0.5458
 7220SOL    HW222026   1.650   6.385   0.077 -1.0431  0.1151  0.4131
 7221SOL     OW22027   5.556   2.693   2.784  0.1681  0.2353 -0.2184
 7221SOL    HW122028   5.581   2.727   2.698  1.0739  1.6660  0.5754
 7221SOL    HW222029   5.473   2.737   2.804  0.2923  0.4055 -0.0780
 7222SOL     OW22030   3.881   5.770   0.180 -0.1985 -0.1233  0.2846
 7222SOL    HW122031   3.875   5.704   0.111 -0.8594 -0.0061  0.2275
 7222SOL    HW222032   3.967   5.755   0.220 -0.3933 -1.1053  0.3647
 7223SOL     OW22033   1.871   1.084   2.745 -0.2376 -0.0813 -0.0501
 7223SOL    HW122034   1.898   0.997   2.772 -1.2705  0.1339  1.7936
 7223SOL    HW222035   1.925   1.144   2.797 -0.2006  0.3906 -0.6101
 7224SOL     OW22036   6.251   5.815   1.938 -0.2237 -0.5863  0.1552
 7224SOL    HW122037   6.216   5.777   2.018 -2.2144  0.7325 -0.0105
 7224SOL    HW222038   6.325   5.759   1.914 -1.4999 -2.8394  1.2241
 7225SOL     OW22039   2.529   3.992   5.206  0.0265  0.1750  0.0640
 7225SOL    HW122040   2.518   4.014   5.298  0.1199 -0.4824  0.2378
 7225SOL    HW222041   2.619   3.959   5.200  0.1243  0.5050 -0.3233
 7226SOL     OW22042   2.837   0.158   3.078  0.8964  0.0581 -0.1210
 7226SOL    HW122043   2.906   0.207   3.125 -0.7678  0.3220  2.2466
 7226SOL    HW222044   2.767   0.149   3.143 -0.2425 -2.5448 -1.5817
 7227SOL     OW22045   1.483   2.840   2.008 -0.1514 -0.9321  0.2926
 7227SOL    HW122046   1.467   2.917   1.953  1.8859 -0.6160  0.0551
 7227SOL    HW222047   1.579   2.837   2.017 -0.2006 -3.2409  0.5833
 7228SOL     OW22048   0.440   6.179   1.913  0.3121  0.8049 -0.6798
 7228SOL    HW122049   0.508   6.114   1.934 -0.2261  0.5999  0.4939
 7228SOL    HW222050   0.484   6.263   1.923  0.4074  0.6727  0.0958
 7229SOL     OW22051   3.055   4.267   2.862 -0.3242  0.2781 -0.3748
 7229SOL    HW122052   3.147   4.293   2.850  0.0192 -0.3492  0.7563
 7229SOL    HW222053   3.016   4.280   2.776  0.3388  2.4214 -0.4254
 7230SOL     OW22054   3.074   6.751   5.590  0.1696  0.4024 -1.1351
 7230SOL    HW122055   3.140   6.788   5.531  4.0317  0.4860  2.7374
 7230SOL    HW222056   3.046   6.825   5.644 -0.4855 -0.2985 -0.4925
 7231SOL     OW22057   6.672   3.049   2.445 -0.2623  0.6056  0.2294
 7231SOL    HW122058   6.720   3.116   2.493 -0.7573  0.6890  0.6127
 7231SOL    HW222059   6.639   3.095   2.367  0.2641  0.5504 -0.0294
 7232SOL     OW22060   0.814   4.249   2.079 -0.0275 -1.1802  0.1917
 7232SOL    HW122061   0.833   4.204   2.161  2.0192 -1.0024 -0.1474
 7232SOL    HW222062   0.898   4.255   2.034 -0.6054  1.1005 -0.7391
 7233SOL     OW22063   3.837   5.189   2.065  0.2951 -0.1867  0.0406
 7233SOL    HW122064   3.895   5.250   2.112  0.2984 -0.2590  0.1303
 7233SOL    HW222065   3.852   5.105   2.108  0.0389 -0.1836  0.1371
 7234SOL     OW22066   5.911   0.024   4.730  0.0351  0.1797 -0.1676
 7234SOL    HW122067   5.931   0.027   4.637  0.7013  2.9538 -0.0094
 7234SOL    HW222068   5.990  -0.012   4.771  0.6690  1.1833 -0.4842
 7235SOL     OW22069   2.431   0.895   4.817  0.1287  0.1275  0.9360
 7235SOL    HW122070   2.523   0.894   4.790 -0.7456 -0.8553 -2.4707
 7235SOL    HW222071   2.387   0.948   4.751 -2.2115 -2.1463  0.5099
 7236SOL     OW22072   2.401   0.679   1.921  0.0801  0.3482 -0.4434
 7236SOL    HW122073   2.313   0.647   1.941  0.7987 -1.5338 -0.1708
 7236SOL    HW222074   2.409   0.669   1.826 -0.3346  1.4880 -0.6196
 7237SOL     OW22075   1.912   5.758   5.784  0.0744 -0.5073  0.5582
 7237SOL    HW122076   2.001   5.770   5.750  0.1408  0.8463  1.1196
 7237SOL    HW222077   1.873   5.845   5.778 -1.3705 -1.1742 -0.0537
 7238SOL     OW22078   0.173   3.879   5.726  0.2897 -1.2530 -0.0371
 7238SOL    HW122079   0.256   3.882   5.677  0.7318  1.3436  0.7276
 7238SOL    HW222080   0.143   3.970   5.727 -1.2157 -1.7136  1.9884
 7239SOL     OW22081   4.769   3.022   0.136 -0.2504 -0.6274  0.1492
 7239SOL    HW122082   4.674   3.012   0.131 -0.3102 -0.4085  0.7119
 7239SOL    HW222083   4.783   3.113   0.163  0.1756 -0.2386 -1.2896
 7240SOL     OW22084   6.772   0.898   1.361  0.1380 -0.2456 -0.6263
 7240SOL    HW122085   6.746   0.905   1.453  1.2242  0.6801 -0.3718
 7240SOL    HW222086   6.806   0.985   1.339  0.0605 -0.5125 -1.8541
 7241SOL     OW22087   6.222   3.851   1.707  0.4122  0.2138 -0.3782
 7241SOL    HW122088   6.165   3.925   1.683 -0.1639 -0.5590 -1.4874
 7241SOL    HW222089   6.210   3.788   1.635  1.7659 -0.4696 -0.0217
 7242SOL     OW22090   6.327   2.974   6.467 -0.0809 -0.1128 -0.4619
 7242SOL    HW122091   6.265   2.911   6.504 -0.7151  0.4989 -0.4618
 7242SOL    HW222092   6.309   3.056   6.514 -0.4846  0.5213 -1.6842
 7243SOL     OW22093   2.204   3.399   2.673 -0.1324  0.3620 -0.0365
 7243SOL    HW122094   2.247   3.484   2.662  1.2037 -0.3291 -0.3860
 7243SOL    HW222095   2.173   3.377   2.585 -1.2814  0.8734  0.2204
 7244SOL     OW22096   3.137   3.239   3.558  0.2458 -0.1184 -0.0398
 7244SOL    HW122097   3.215   3.187   3.538  0.6224 -0.0993  1.2886
 7244SOL    HW222098   3.150   3.321   3.512  1.2053  0.0240  0.4651
 7245SOL     OW22099   4.699   5.977   4.606  0.1840 -0.2541  0.5413
 7245SOL    HW122100   4.755   5.915   4.653  2.1905  0.6812 -0.4663
 7245SOL    HW222101   4.651   5.923   4.544  0.0379 -1.0808  1.3457
 7246SOL     OW22102   2.982   5.554   3.981  0.1616 -0.2079 -0.0810
 7246SOL    HW122103   2.920   5.590   4.044 -0.0282 -0.9374  0.1647
 7246SOL    HW222104   2.995   5.463   4.009  1.5442  0.0022  0.0190
 7247SOL     OW22105   5.988   5.502   0.651  0.5227 -0.3391  0.4143
 7247SOL    HW122106   5.981   5.593   0.681 -0.6150  0.6981 -2.6642
 7247SOL    HW222107   6.082   5.484   0.649  0.7955  0.9978  0.4170
 7248SOL     OW22108   1.855   2.706   4.296  0.1889 -0.1279 -0.0679
 7248SOL    HW122109   1.807   2.782   4.328 -0.3715  0.0389 -1.2146
 7248SOL    HW222110   1.926   2.693   4.358 -0.9609  0.0320  1.3164
 7249SOL     OW22111   1.529   5.772   6.119  0.1624 -0.2098 -0.2920
 7249SOL    HW122112   1.602   5.725   6.079  0.1331 -1.9422  1.5499
 7249SOL    HW222113   1.454   5.714   6.109 -0.5970  0.7987 -0.6443
 7250SOL     OW22114   6.408   4.607   4.058  0.3900  0.0733 -0.1482
 7250SOL    HW122115   6.405   4.631   3.966  2.2813 -0.5002 -0.4029
 7250SOL    HW222116   6.360   4.677   4.103  0.1610  0.8002 -1.4830
 7251SOL     OW22117   1.765   5.643   5.970  0.2149 -0.3459 -0.1433
 7251SOL    HW122118   1.756   5.549   5.952  0.7234 -0.8550  1.9641
 7251SOL    HW222119   1.832   5.673   5.908  0.5643 -1.5181 -0.3543
 7252SOL     OW22120   1.242   5.359   6.718  0.2639  0.2201 -0.2050
 7252SOL    HW122121   1.177   5.357   6.648 -0.5561 -0.1374  0.5561
 7252SOL    HW222122   1.242   5.450   6.748  0.1995  0.2424 -0.2718
 7253SOL     OW22123   6.065   0.969   1.223 -0.4929 -0.3533 -0.5272
 7253SOL    HW122124   6.096   0.972   1.132 -2.7512  0.1281 -1.3217
 7253SOL    HW222125   5.978   1.009   1.221 -0.3226  0.3158  1.9912
 7254SOL     OW22126   2.614   4.044   2.046 -0.1263  0.2666 -0.4065
 7254SOL    HW122127   2.599   4.122   1.992 -0.4889  0.6813  0.2743
 7254SOL    HW222128   2.573   4.065   2.130  1.8807  0.3329  0.6243
 7255SOL     OW22129   2.989   1.484   2.354 -0.9454  0.3398 -0.1054
 7255SOL    HW122130   2.985   1.433   2.273 -3.1566  0.8487 -0.3658
 7255SOL    HW222131   3.019   1.421   2.419 -2.1539 -0.9472 -0.7260
 7256SOL     OW22132   0.001   0.047   0.899 -0.0339  0.1433 -0.2305
 7256SOL    HW122133  -0.021   0.091   0.982 -1.6953  0.3903 -0.7873
 7256SOL    HW222134  -0.070  -0.014   0.884  0.8816 -0.7917 -0.8748
 7257SOL     OW22135   4.651   5.556   3.704  0.4434 -0.0036  0.0192
 7257SOL    HW122136   4.670   5.463   3.712 -2.1414 -1.1667 -4.2216
 7257SOL    HW222137   4.719   5.590   3.645  0.0417  0.2117 -0.3274
 7258SOL     OW22138   3.340   2.628   0.824  0.3799 -0.5576 -0.0649
 7258SOL    HW122139   3.428   2.639   0.788  0.3610  0.5741  0.2092
 7258SOL    HW222140   3.288   2.594   0.752  0.6398  0.4360 -0.7343
 7259SOL     OW22141   5.266   1.161   4.814 -0.3709 -0.4853 -0.2049
 7259SOL    HW122142   5.345   1.130   4.857  0.0807 -0.8290 -1.2724
 7259SOL    HW222143   5.221   1.082   4.786 -0.7157 -0.2656 -0.2800
 7260SOL     OW22144   6.015   0.493   6.451  0.1513 -0.1111 -0.0371
 7260SOL    HW122145   6.099   0.457   6.425  0.5668  1.8570 -1.7395
 7260SOL    HW222146   5.957   0.417   6.460  1.6300 -1.3541 -0.6349
 7261SOL     OW22147   5.412   4.575   5.426 -0.2850  0.0304  0.0831
 7261SOL    HW122148   5.463   4.639   5.377  4.2755 -1.1545  2.7343
 7261SOL    HW222149   5.404   4.613   5.514 -1.4721 -1.1468  0.5246
 7262SOL     OW22150   0.932   4.103   2.292  0.1978  0.2737  0.0816
 7262SOL    HW122151   0.988   4.162   2.343  0.4149  0.2335 -0.1079
 7262SOL    HW222152   0.966   4.015   2.310 -0.1086  0.2051  0.3425
 7263SOL     OW22153   1.518   5.252   6.552 -0.4755 -0.0608  0.5720
 7263SOL    HW122154   1.589   5.286   6.498  0.6446 -1.8464  0.8279
 7263SOL    HW222155   1.441   5.254   6.495 -0.1277  1.4285  0.1205
 7264SOL     OW22156   2.140   4.768   4.367 -0.1892  0.6858  0.2216
 7264SOL    HW122157   2.215   4.739   4.419  0.4614  3.7969  1.2886
 7264SOL    HW222158   2.067   4.714   4.397  1.1052 -0.6737  1.0626
 7265SOL     OW22159   4.836   2.387   5.600 -0.2115 -0.1315 -0.3623
 7265SOL    HW122160   4.921   2.358   5.569 -0.2973 -0.0340 -0.6865
 7265SOL    HW222161   4.840   2.375   5.695  0.4276  0.5668 -0.2957
 7266SOL     OW22162   2.461   1.377   6.549  0.0909 -0.5084 -0.0913
 7266SOL    HW122163   2.450   1.405   6.640 -3.0463 -1.8415  0.0591
 7266SOL    HW222164   2.552   1.347   6.544  0.4857  0.0218  2.4466
 7267SOL     OW22165   6.155   2.094   3.113  0.2359  0.1578  0.7812
 7267SOL    HW122166   6.198   2.018   3.072 -0.7676  0.8380 -1.7191
 7267SOL    HW222167   6.074   2.058   3.150  1.3991 -0.5629  2.8249
 7268SOL     OW22168   5.695   6.202   1.830 -0.0698 -0.0087 -0.3031
 7268SOL    HW122169   5.622   6.256   1.859 -1.1036 -0.2906 -2.2359
 7268SOL    HW222170   5.662   6.113   1.831  0.2263 -0.1411 -1.2081
 7269SOL     OW22171   2.528   5.878   1.527  0.2250  0.1792 -0.0336
 7269SOL    HW122172   2.448   5.927   1.510  0.7339  1.4080  0.9071
 7269SOL    HW222173   2.567   5.923   1.602  0.1189 -2.4172  1.7019
 7270SOL     OW22174   2.133   0.715   2.236  0.2508 -0.0964 -0.1369
 7270SOL    HW122175   2.043   0.711   2.203  0.6636  1.1570 -1.4891
 7270SOL    HW222176   2.123   0.730   2.330 -0.9491  0.2386 -0.3046
 7271SOL     OW22177   0.747   2.186   4.278  0.1442  0.1534  0.2638
 7271SOL    HW122178   0.796   2.159   4.200 -0.8312 -2.3677  0.4551
 7271SOL    HW222179   0.694   2.260   4.248  0.4451 -0.1957 -1.2110
 7272SOL     OW22180   0.196   6.526   5.999 -0.3216  1.1813 -0.3501
 7272SOL    HW122181   0.189   6.431   5.993  0.9383  0.9578  0.9644
 7272SOL    HW222182   0.184   6.545   6.092  0.9675  2.1276 -0.3493
 7273SOL     OW22183   0.390   3.993   5.457  0.4089  0.6298 -0.1783
 7273SOL    HW122184   0.310   4.039   5.431  0.2445  0.2884 -0.2915
 7273SOL    HW222185   0.364   3.901   5.458  0.6439  0.5692  0.3680
 7274SOL     OW22186   0.686   2.190   3.413  0.0110 -0.6052  0.0032
 7274SOL    HW122187   0.620   2.146   3.359 -1.5924 -0.0961  1.4356
 7274SOL    HW222188   0.645   2.273   3.437  1.5897  0.1497  0.1731
 7275SOL     OW22189   1.113   5.868   2.723 -0.0880  0.1863 -0.0186
 7275SOL    HW122190   1.048   5.939   2.724 -0.1257  0.1697 -0.8446
 7275SOL    HW222191   1.137   5.858   2.631  2.1696  1.1625  0.3932
 7276SOL     OW22192   1.236   4.148   5.571 -0.5313 -0.1789  0.0741
 7276SOL    HW122193   1.284   4.216   5.524 -0.0119  0.8932  2.0455
 7276SOL    HW222194   1.157   4.191   5.602 -0.8058 -0.8335  0.3020
 7277SOL     OW22195   4.888   5.139   1.079  0.0118  0.2243  0.6746
 7277SOL    HW122196   4.838   5.161   1.158  2.1438 -1.7288  2.7352
 7277SOL    HW222197   4.960   5.203   1.078  0.7398 -0.5600  1.1444
 7278SOL     OW22198   0.766   1.127   0.809  0.3609 -0.5775  0.2113
 7278SOL    HW122199   0.717   1.132   0.891  0.3393 -0.1493  0.1745
 7278SOL    HW222200   0.849   1.087   0.833  0.1732 -0.8832  0.3571
 7279SOL     OW22201   0.003   3.795   4.733  0.4571  0.3935 -0.6257
 7279SOL    HW122202  -0.073   3.758   4.778  1.6426 -0.1322  1.0253
 7279SOL    HW222203   0.024   3.731   4.665 -0.5400  0.5352 -1.0873
 7280SOL     OW22204   4.352   1.654   3.946 -0.1870  0.0624 -0.5743
 7280SOL    HW122205   4.362   1.670   4.040 -0.3154  2.3313 -0.9009
 7280SOL    HW222206   4.422   1.704   3.905 -2.1551  1.9592 -1.8563
 7281SOL     OW22207   6.471   1.224   6.402  0.1465  0.6499 -0.1383
 7281SOL    HW122208   6.563   1.237   6.380 -0.1323  0.9748 -1.1719
 7281SOL    HW222209   6.450   1.137   6.368 -0.0287  0.7411 -0.2657
 7282SOL     OW22210   3.383   3.293   4.729 -0.0624 -0.3820  0.4423
 7282SOL    HW122211   3.307   3.284   4.672  0.6588  0.6730 -0.7260
 7282SOL    HW222212   3.413   3.204   4.743 -0.2970 -0.6679 -0.7734
 7283SOL     OW22213   3.025   0.496   3.134 -0.1747  0.0526 -0.3082
 7283SOL    HW122214   3.062   0.408   3.136  1.8928  0.8549  2.2503
 7283SOL    HW222215   3.096   0.552   3.103 -0.6984  1.0807  0.2947
 7284SOL     OW22216   3.811   6.090   1.341 -0.3016  0.5392  0.0083
 7284SOL    HW122217   3.842   6.038   1.267  2.3867 -0.3740  1.6408
 7284SOL    HW222218   3.865   6.169   1.339  0.5573  0.0446  1.4986
 7285SOL     OW22219   5.600   0.096   6.770 -0.2398  0.1734 -0.0702
 7285SOL    HW122220   5.558   0.017   6.805  0.4181 -0.1014  0.1141
 7285SOL    HW222221   5.668   0.063   6.712 -1.5297  0.6215 -1.9088
 7286SOL     OW22222   0.846   4.512   3.048  0.0585  0.6235 -0.1315
 7286SOL    HW122223   0.798   4.575   2.996 -1.0167  1.3749  1.6637
 7286SOL    HW222224   0.815   4.526   3.138 -1.3359 -3.4068  0.2177
 7287SOL     OW22225   1.430   6.632   1.383 -0.1867  0.4406  0.6450
 7287SOL    HW122226   1.454   6.552   1.337  1.5490  2.1735 -1.6887
 7287SOL    HW222227   1.492   6.639   1.456 -0.3063 -0.2803  0.8181
 7288SOL     OW22228   3.535   0.367   4.598 -0.0481  0.0739  0.1275
 7288SOL    HW122229   3.594   0.442   4.603 -1.3266  1.1478 -0.2155
 7288SOL    HW222230   3.453   0.398   4.636  0.2243 -2.0891  2.7953
 7289SOL     OW22231   2.105   1.483   2.850  0.3372 -0.6895 -0.6801
 7289SOL    HW122232   2.060   1.492   2.767  0.6952 -0.3359 -0.8402
 7289SOL    HW222233   2.059   1.541   2.910  0.9771  0.1841 -1.0149
 7290SOL     OW22234   5.372   5.578   5.707 -1.0788  0.2926  0.0840
 7290SOL    HW122235   5.363   5.483   5.703  0.5732  0.1267 -0.1892
 7290SOL    HW222236   5.282   5.610   5.709 -1.6663 -1.2496 -0.2759
 7291SOL     OW22237   1.285   0.670   4.774  0.7788  0.2233  0.4872
 7291SOL    HW122238   1.273   0.758   4.811  0.8867  0.0470  0.9506
 7291SOL    HW222239   1.370   0.641   4.807  3.0024  1.7056 -3.2515
 7292SOL     OW22240   0.926   5.998   5.491  0.0958 -0.7479 -0.1651
 7292SOL    HW122241   0.997   5.934   5.482 -0.0753 -0.9681  0.0280
 7292SOL    HW222242   0.846   5.946   5.486 -0.0359 -0.6150  0.4487
 7293SOL     OW22243   0.292   0.419   2.799 -0.2290 -0.4958 -0.4561
 7293SOL    HW122244   0.231   0.408   2.872 -0.9868 -1.1108 -1.1685
 7293SOL    HW222245   0.355   0.484   2.830 -2.5255  1.9247 -0.5180
 7294SOL     OW22246   0.617   0.930   3.713 -0.3252  0.7811  0.2414
 7294SOL    HW122247   0.594   1.023   3.707  0.4567  1.0221  0.8421
 7294SOL    HW222248   0.533   0.884   3.712 -0.8597  1.6144  2.2382
 7295SOL     OW22249   6.005   5.614   3.124 -0.4974 -0.1851 -0.9812
 7295SOL    HW122250   6.032   5.631   3.034  0.2463  0.0220 -0.7285
 7295SOL    HW222251   6.084   5.584   3.168 -0.8463 -0.2701 -0.3911
 7296SOL     OW22252   6.365   0.524   6.562  0.0898 -0.0395  0.4991
 7296SOL    HW122253   6.389   0.483   6.645 -2.8232  1.5521  2.2769
 7296SOL    HW222254   6.311   0.458   6.518 -0.0569 -0.1360  0.8202
 7297SOL     OW22255   4.396   1.230   1.377  0.0659 -0.5651 -0.3506
 7297SOL    HW122256   4.353   1.314   1.368 -0.7515 -0.8896  0.4018
 7297SOL    HW222257   4.461   1.228   1.307  0.1658  0.7258 -0.3072
 7298SOL     OW22258   5.986   1.148   6.001  0.4860 -0.5121  0.4558
 7298SOL    HW122259   6.078   1.163   6.020 -0.0651  2.5908  1.1386
 7298SOL    HW222260   5.978   1.158   5.906  0.6470  0.7423  0.5629
 7299SOL     OW22261   0.121   3.038   0.047  0.8428 -0.4567  0.2056
 7299SOL    HW122262   0.200   3.025   0.100  1.1098 -0.3925 -0.1692
 7299SOL    HW222263   0.148   3.101  -0.020 -0.1367  1.3207  1.3941
 7300SOL     OW22264   3.609   3.209   0.727  0.0231 -0.0015 -0.8054
 7300SOL    HW122265   3.604   3.122   0.767  2.1341  0.2171  0.0837
 7300SOL    HW222266   3.608   3.193   0.633  2.8280 -1.2733 -0.7025
 7301SOL     OW22267   1.329   6.743   4.717 -0.2551  0.4383  0.5935
 7301SOL    HW122268   1.303   6.743   4.809 -0.2952 -0.0055  0.5836
 7301SOL    HW222269   1.259   6.789   4.672  0.1181  1.3089  0.8818
 7302SOL     OW22270   4.692   1.000   6.200 -1.2054 -0.0536  0.4337
 7302SOL    HW122271   4.701   0.977   6.107 -0.1568  0.8867  0.2849
 7302SOL    HW222272   4.629   0.936   6.234 -0.8457 -1.0578 -0.6930
 7303SOL     OW22273   2.848   4.487   4.873  0.1637  0.7139  0.1936
 7303SOL    HW122274   2.841   4.479   4.969 -0.3819  1.7392  0.2501
 7303SOL    HW222275   2.909   4.559   4.860  0.6004  0.2723 -0.2502
 7304SOL     OW22276   2.097   4.393   0.199 -0.1808  0.0677  0.4605
 7304SOL    HW122277   2.037   4.326   0.166  0.6001 -0.2282 -0.3977
 7304SOL    HW222278   2.148   4.419   0.122 -1.0827  2.3251  0.5466
 7305SOL     OW22279   1.742   4.325   2.258 -0.3137  0.0287 -0.0765
 7305SOL    HW122280   1.705   4.320   2.346  0.4171 -0.5563  0.2034
 7305SOL    HW222281   1.795   4.246   2.249  0.3666  0.5343 -0.6940
 7306SOL     OW22282   1.692   0.084   3.238  0.0059  0.3864 -0.1601
 7306SOL    HW122283   1.751   0.129   3.299  0.1270 -0.2991  0.2388
 7306SOL    HW222284   1.666   0.152   3.176  3.2274  0.2112 -1.9535
 7307SOL     OW22285   1.305   3.655   3.190  0.7266 -0.0507  0.4770
 7307SOL    HW122286   1.246   3.726   3.166 -1.0068 -2.1590 -2.1180
 7307SOL    HW222287   1.252   3.575   3.181  3.3762 -1.9200  0.1415
 7308SOL     OW22288   3.900   5.523   4.936 -0.2612 -0.1332  0.4097
 7308SOL    HW122289   3.945   5.460   4.992 -1.7044 -2.1817 -0.6299
 7308SOL    HW222290   3.971   5.578   4.901  0.7103  1.3426  4.1597
 7309SOL     OW22291   1.356   4.230   2.322  0.3258  0.1162 -0.0320
 7309SOL    HW122292   1.449   4.248   2.335 -0.2094  2.0521  1.6373
 7309SOL    HW222293   1.326   4.196   2.406 -0.4059 -0.9051 -0.6889
 7310SOL     OW22294   5.188   1.887   2.346  0.7035 -0.2952 -0.0518
 7310SOL    HW122295   5.235   1.806   2.326 -0.1435 -1.1563  1.3255
 7310SOL    HW222296   5.243   1.956   2.310  3.4089 -1.1938  2.0436
 7311SOL     OW22297   2.310   6.254   3.655  0.0434  0.4922  0.2223
 7311SOL    HW122298   2.318   6.160   3.675 -0.8144 -0.0131 -1.6083
 7311SOL    HW222299   2.217   6.272   3.662 -0.1447  0.5668 -1.9198
 7312SOL     OW22300   6.382   1.255   1.808 -0.6200  0.2930 -0.1370
 7312SOL    HW122301   6.401   1.295   1.892  0.5353 -2.3624  1.0070
 7312SOL    HW222302   6.293   1.220   1.816 -1.3574  1.9247 -0.8757
 7313SOL     OW22303   2.371   5.015   1.859 -0.7391  0.2028  0.1517
 7313SOL    HW122304   2.395   4.984   1.772  1.0712 -0.3384  0.8000
 7313SOL    HW222305   2.339   4.936   1.905 -1.2480  0.3957  0.1398
 7314SOL     OW22306   2.121   4.918   0.616  0.3788  0.6634 -0.0065
 7314SOL    HW122307   2.087   4.993   0.664 -0.4276 -0.0374  0.5357
 7314SOL    HW222308   2.214   4.917   0.636  0.9053  2.8395 -1.8217
 7315SOL     OW22309   2.209   3.775   2.540  0.2434  0.4768 -0.0481
 7315SOL    HW122310   2.134   3.724   2.508  0.4129  0.0826  0.1796
 7315SOL    HW222311   2.276   3.710   2.559  1.0344  0.8944 -1.2538
 7316SOL     OW22312   0.957   5.530   0.559  0.0707 -0.1556 -0.4375
 7316SOL    HW122313   0.940   5.438   0.537  1.6671 -0.1664 -1.8805
 7316SOL    HW222314   0.878   5.576   0.532 -0.2804 -0.9637 -0.8399
 7317SOL     OW22315   2.772   0.195   4.978 -0.6670 -0.0546 -0.0137
 7317SOL    HW122316   2.703   0.153   4.926 -0.7400  0.2684 -0.1793
 7317SOL    HW222317   2.738   0.193   5.068  0.3530 -2.5182  0.4109
 7318SOL     OW22318   4.146   5.110   5.854  1.0097  0.2572  0.0661
 7318SOL    HW122319   4.133   5.174   5.784  0.8493 -0.1631 -0.3036
 7318SOL    HW222320   4.238   5.085   5.847  1.3673  1.2748  0.9506
 7319SOL     OW22321   2.283   6.045   5.706 -0.3913  0.0913 -0.1237
 7319SOL    HW122322   2.371   6.011   5.689 -0.6894  0.0858 -1.7784
 7319SOL    HW222323   2.298   6.126   5.754  0.5147  0.0742 -0.3498
 7320SOL     OW22324   4.839   4.139   6.351 -0.0344 -0.7236 -0.3185
 7320SOL    HW122325   4.865   4.181   6.433 -2.7233 -0.8735  0.7027
 7320SOL    HW222326   4.886   4.056   6.351 -0.0166 -0.7345  1.0862
 7321SOL     OW22327   3.650   1.213   4.085 -0.1141 -0.3589 -0.1837
 7321SOL    HW122328   3.581   1.183   4.026  0.5632 -0.8780 -0.7193
 7321SOL    HW222329   3.730   1.212   4.032  0.4708 -0.6355  0.6825
 7322SOL     OW22330   2.241   0.237   1.299  0.0800  0.0814  0.1960
 7322SOL    HW122331   2.331   0.252   1.329  0.2438 -0.5485  0.0267
 7322SOL    HW222332   2.249   0.226   1.204 -0.1579 -0.1285  0.2011
 7323SOL     OW22333   5.885   2.643   2.046 -0.2594  0.2373 -0.5022
 7323SOL    HW122334   5.962   2.661   1.992  1.2778  1.0828  1.7966
 7323SOL    HW222335   5.919   2.590   2.118 -1.9502  0.1738  0.2875
 7324SOL     OW22336   6.432   4.699   1.360  0.0457 -0.3925  0.0075
 7324SOL    HW122337   6.401   4.780   1.319 -0.3876 -1.6515 -2.3218
 7324SOL    HW222338   6.525   4.696   1.338  0.0684 -0.5184  0.1229
 7325SOL     OW22339   4.435   1.725   6.391  0.3845  0.0940 -0.0163
 7325SOL    HW122340   4.343   1.714   6.414  0.3105  2.1003  0.8364
 7325SOL    HW222341   4.472   1.637   6.399 -1.6055 -0.9270 -1.2373
 7326SOL     OW22342   2.433   5.354   3.057 -0.0078 -0.1793  0.1725
 7326SOL    HW122343   2.475   5.358   2.970 -0.6166 -0.2883 -0.1289
 7326SOL    HW222344   2.376   5.431   3.059  1.1355  0.6806  1.0800
 7327SOL     OW22345   4.374   0.525   6.726 -0.1533 -0.0048  0.1519
 7327SOL    HW122346   4.328   0.512   6.809 -1.3740  1.1704 -0.2966
 7327SOL    HW222347   4.421   0.608   6.737 -0.4789  0.2579 -0.3742
 7328SOL     OW22348   3.447   0.933   2.180  0.5205  0.4040  0.4448
 7328SOL    HW122349   3.368   0.962   2.134  0.7837 -0.4455 -0.5926
 7328SOL    HW222350   3.519   0.961   2.123  0.9284  0.4771  0.9892
 7329SOL     OW22351   0.006   5.063   6.132 -0.7929  0.1217 -0.3310
 7329SOL    HW122352  -0.011   5.103   6.046 -0.8795  2.5488  0.7298
 7329SOL    HW222353   0.100   5.046   6.132 -0.6900  0.6472 -0.6976
 7330SOL     OW22354   4.063   1.735   2.386  0.4839 -0.3680 -0.0439
 7330SOL    HW122355   4.042   1.649   2.423  0.5952 -0.4251 -0.1140
 7330SOL    HW222356   4.139   1.765   2.435 -0.4360  0.3519  1.0148
 7331SOL     OW22357   2.300   2.777   4.688  0.3011 -0.4783 -0.3153
 7331SOL    HW122358   2.255   2.842   4.634  1.1091  0.5796  0.2723
 7331SOL    HW222359   2.359   2.827   4.743  0.5746 -1.6718  0.5181
 7332SOL     OW22360   2.674   4.650   0.320  0.0840 -0.1010  0.0749
 7332SOL    HW122361   2.604   4.621   0.379  0.0272 -0.5573 -0.2197
 7332SOL    HW222362   2.744   4.587   0.333  1.3022  1.5114  1.9382
 7333SOL     OW22363   1.364   3.316   2.711 -0.0149  0.4531 -0.3019
 7333SOL    HW122364   1.304   3.387   2.686  0.1866  0.6603 -0.1975
 7333SOL    HW222365   1.313   3.263   2.773 -0.8174 -0.5329 -1.7261
 7334SOL     OW22366   1.567   3.350   1.489  0.3289  0.4694  0.7972
 7334SOL    HW122367   1.520   3.356   1.572 -1.3392 -0.6980 -0.0020
 7334SOL    HW222368   1.512   3.396   1.426  1.2726  0.8261  0.1993
 7335SOL     OW22369   2.740   0.605   0.787  0.3834 -0.0326  0.0944
 7335SOL    HW122370   2.691   0.523   0.798 -1.0092  0.6170 -0.8459
 7335SOL    HW222371   2.793   0.591   0.708  0.7884 -0.3112  0.4129
 7336SOL     OW22372   2.198   5.830   6.605 -0.0276  0.0810  0.0642
 7336SOL    HW122373   2.272   5.878   6.569  0.5311 -0.6084  0.2589
 7336SOL    HW222374   2.168   5.774   6.533 -0.4629  0.4741 -0.0628
 7337SOL     OW22375   5.434   6.060   3.544  0.7703  0.7943 -0.1260
 7337SOL    HW122376   5.502   6.045   3.479  0.1471  0.6898 -0.7727
 7337SOL    HW222377   5.472   6.030   3.626  1.2747  0.1276 -0.5875
 7338SOL     OW22378   1.386   6.696   3.672 -0.0000  0.0626 -0.6090
 7338SOL    HW122379   1.353   6.619   3.718  1.4532 -0.5910 -0.6068
 7338SOL    HW222380   1.312   6.727   3.620 -0.3594 -1.8856 -1.3411
 7339SOL     OW22381   0.091   0.164   4.786  0.3353  0.2097 -0.2316
 7339SOL    HW122382   0.012   0.120   4.755  1.1513 -1.1439 -0.4803
 7339SOL    HW222383   0.120   0.215   4.711 -1.0498  1.8738  0.3032
 7340SOL     OW22384   1.736   3.505   1.729 -0.0194  0.7052 -0.2234
 7340SOL    HW122385   1.711   3.572   1.793 -1.4378  0.1006 -0.1137
 7340SOL    HW222386   1.686   3.527   1.650 -0.2466 -0.0230 -0.2916
 7341SOL     OW22387   0.297   5.328   2.211  0.2767 -0.0551  0.0028
 7341SOL    HW122388   0.204   5.310   2.197  0.1267  1.0159 -0.5032
 7341SOL    HW222389   0.306   5.333   2.306 -0.4782  1.1927  0.0331
 7342SOL     OW22390   5.264   4.516   6.397 -0.4261  0.4484 -0.1387
 7342SOL    HW122391   5.213   4.503   6.317 -0.4831  2.8095 -0.5776
 7342SOL    HW222392   5.230   4.452   6.458 -1.7017 -0.1581 -1.4218
 7343SOL     OW22393   2.357   3.741   5.299  0.1343  0.3181 -0.3433
 7343SOL    HW122394   2.364   3.836   5.295 -0.4657  0.3466 -0.6896
 7343SOL    HW222395   2.395   3.718   5.385  1.3631  0.7542 -0.7446
 7344SOL     OW22396   3.102   2.268   1.053 -0.4543  0.3428  0.4351
 7344SOL    HW122397   3.125   2.311   0.971  0.7981  0.1863  0.6794
 7344SOL    HW222398   3.007   2.255   1.048 -0.2098 -1.1598 -1.7103
 7345SOL     OW22399   3.808   6.152   4.989 -0.6723  0.1920  0.3598
 7345SOL    HW122400   3.771   6.113   4.910 -1.1800 -0.3722  0.8572
 7345SOL    HW222401   3.883   6.096   5.011 -2.1038 -1.2976  1.7407
 7346SOL     OW22402   3.051   3.119   4.709 -0.5193  0.0391  0.1184
 7346SOL    HW122403   3.015   3.161   4.787  2.2822  1.8531  0.5880
 7346SOL    HW222404   3.076   3.192   4.652  0.5975 -1.1239 -0.9476
 7347SOL     OW22405   0.050   6.455   3.105 -0.4123  1.2705 -0.0534
 7347SOL    HW122406   0.030   6.513   3.032 -0.1318  0.1547 -1.0451
 7347SOL    HW222407   0.143   6.434   3.094 -0.4191  0.9274  0.4989
 7348SOL     OW22408   2.460   5.950   0.071  0.0763 -0.2096 -0.0844
 7348SOL    HW122409   2.492   6.032   0.107 -1.8240  0.5472  0.0205
 7348SOL    HW222410   2.441   5.970  -0.021 -0.8401 -0.3807  0.0585
 7349SOL     OW22411   3.319   1.434   5.626  0.2953  0.1863 -0.0519
 7349SOL    HW122412   3.372   1.356   5.612  0.5018  0.5420 -1.4197
 7349SOL    HW222413   3.358   1.500   5.569 -1.5972  0.4676 -1.1277
 7350SOL     OW22414   3.192   2.864   4.412 -0.0145 -0.1850  0.0994
 7350SOL    HW122415   3.118   2.911   4.373  0.7536  2.0527  1.1140
 7350SOL    HW222416   3.189   2.889   4.505  2.7666  1.1756 -0.0804
 7351SOL     OW22417   6.026   1.991   2.835 -0.0164 -0.1087  0.3156
 7351SOL    HW122418   5.948   1.977   2.781 -0.1703 -0.0488  0.5229
 7351SOL    HW222419   5.993   2.028   2.917  0.4051  1.7913 -0.3231
 7352SOL     OW22420   0.521   2.423   4.241 -0.1863 -0.1119  0.3625
 7352SOL    HW122421   0.593   2.485   4.239 -0.7951  0.5982 -0.1968
 7352SOL    HW222422   0.443   2.477   4.255 -0.7048 -0.7726  0.1189
 7353SOL     OW22423   2.161   4.480   3.831  0.0919 -0.3613  0.0603
 7353SOL    HW122424   2.177   4.435   3.914  0.5519 -0.1462  0.0915
 7353SOL    HW222425   2.211   4.429   3.767 -1.9744 -1.8206 -0.4798
 7354SOL     OW22426   2.774   6.579   4.116  0.1456 -0.3042  0.3088
 7354SOL    HW122427   2.713   6.602   4.046  2.1318 -0.6951 -1.6520
 7354SOL    HW222428   2.828   6.658   4.128  1.4703 -1.0542 -0.4579
 7355SOL     OW22429   0.485   0.883   2.486 -0.7757 -0.3215 -0.1814
 7355SOL    HW122430   0.563   0.939   2.488 -0.1963 -1.1041  1.3807
 7355SOL    HW222431   0.432   0.915   2.559 -1.9062  0.1446 -1.1834
 7356SOL     OW22432   2.991   5.678   2.105  0.1119  0.7739  0.1436
 7356SOL    HW122433   2.903   5.645   2.087  0.7294 -2.1600  1.7558
 7356SOL    HW222434   3.029   5.694   2.019 -0.9758 -0.9692 -0.7326
 7357SOL     OW22435   6.458   6.503   0.094 -0.5750  0.7841  0.4227
 7357SOL    HW122436   6.554   6.509   0.087 -0.6100  1.2223  0.2683
 7357SOL    HW222437   6.429   6.594   0.088 -1.0931  0.5558 -0.7160
 7358SOL     OW22438   2.376   3.534   6.117 -0.0646  0.0394  0.4656
 7358SOL    HW122439   2.327   3.542   6.199 -0.4410  0.6459  0.1910
 7358SOL    HW222440   2.320   3.576   6.052  0.7330  0.5672  0.1053
 7359SOL     OW22441   2.989   5.610   6.611 -0.1776  0.5892  0.4479
 7359SOL    HW122442   3.052   5.679   6.633 -1.8426  2.9689 -1.6684
 7359SOL    HW222443   2.909   5.635   6.655 -0.5729 -0.5664  0.4357
 7360SOL     OW22444   0.049   3.814   3.578  0.2188  0.0142 -0.3390
 7360SOL    HW122445   0.090   3.731   3.553 -0.4586 -0.4583  0.0765
 7360SOL    HW222446  -0.019   3.790   3.641 -0.0581  0.8752 -0.2854
 7361SOL     OW22447   1.792   4.148   4.204 -0.7260  0.0772  0.0136
 7361SOL    HW122448   1.831   4.087   4.142  0.1069  1.4546 -0.8694
 7361SOL    HW222449   1.723   4.193   4.155  0.2209  1.4791 -0.0971
 7362SOL     OW22450   3.491   6.275   1.859 -0.7475 -0.3693  0.2111
 7362SOL    HW122451   3.530   6.265   1.772 -1.9367  0.1730 -0.4052
 7362SOL    HW222452   3.547   6.222   1.916 -0.1451 -1.0123 -0.9356
 7363SOL     OW22453   6.277   0.282   4.215 -0.1195  0.3007 -0.4370
 7363SOL    HW122454   6.323   0.258   4.134 -0.5848  1.1491 -0.9721
 7363SOL    HW222455   6.334   0.252   4.285  1.2741  1.3264 -1.0795
 7364SOL     OW22456   4.494   4.315   1.973  0.0003  0.8970  0.1479
 7364SOL    HW122457   4.588   4.307   1.958  0.2460  1.5908  1.1820
 7364SOL    HW222458   4.458   4.229   1.950  1.1639 -0.0149  1.5833
 7365SOL     OW22459   0.995   3.377   3.674 -0.3302 -0.4316  0.3966
 7365SOL    HW122460   1.050   3.402   3.600 -1.7868 -1.0422 -0.9274
 7365SOL    HW222461   1.025   3.289   3.698 -1.8801 -1.5632 -1.5420
 7366SOL     OW22462   5.860   6.424   0.524 -0.0517 -0.8744 -0.4860
 7366SOL    HW122463   5.939   6.431   0.472 -1.0648  0.3164 -1.9335
 7366SOL    HW222464   5.850   6.509   0.565  0.5393 -1.6849  1.4604
 7367SOL     OW22465   1.181   1.162   4.526 -0.6134 -0.0459  1.1294
 7367SOL    HW122466   1.252   1.164   4.590 -0.1317 -1.1684  0.6508
 7367SOL    HW222467   1.224   1.154   4.441 -1.2673  0.7057  0.7086
 7368SOL     OW22468   5.966   3.258   1.641 -0.3349  0.1269 -0.2047
 7368SOL    HW122469   6.046   3.306   1.660  1.2324 -2.4491  0.1526
 7368SOL    HW222470   5.969   3.182   1.699 -3.6548  0.4961  0.6587
 7369SOL     OW22471   5.190   4.578   2.739 -0.2269  0.5449  0.0925
 7369SOL    HW122472   5.111   4.574   2.685  0.0570 -1.2833 -0.2513
 7369SOL    HW222473   5.192   4.493   2.783  1.5909  0.5267  0.0164
 7370SOL     OW22474   0.337   0.201   1.756 -0.2039 -0.5342 -0.4018
 7370SOL    HW122475   0.248   0.173   1.776 -0.9674  2.1824  0.4059
 7370SOL    HW222476   0.390   0.161   1.826 -1.0821 -0.6258  0.2395
 7371SOL     OW22477   0.229   5.632   0.086  0.4305 -0.7196 -0.5978
 7371SOL    HW122478   0.171   5.706   0.068  0.6569  0.3395  2.4458
 7371SOL    HW222479   0.171   5.565   0.122  0.9381  0.7333  3.5102
 7372SOL     OW22480   5.522   5.934   5.283  0.2184  0.0721 -0.9443
 7372SOL    HW122481   5.459   6.004   5.264  0.7643  1.2718  1.2145
 7372SOL    HW222482   5.483   5.886   5.356  1.4586  0.4386  0.0067
 7373SOL     OW22483   0.460   1.980   4.256 -0.0126 -0.6698  0.1110
 7373SOL    HW122484   0.443   1.972   4.350  1.9160 -2.3636  0.4122
 7373SOL    HW222485   0.390   1.931   4.215 -1.2449  0.6287  0.5896
 7374SOL     OW22486   5.463   0.678   6.470 -0.0791 -0.0258 -0.0665
 7374SOL    HW122487   5.403   0.607   6.492  1.1467 -1.2000 -0.3446
 7374SOL    HW222488   5.546   0.633   6.451  0.2062  1.2913 -2.2711
 7375SOL     OW22489   1.666   0.963   2.063  0.1100 -0.4476 -0.4095
 7375SOL    HW122490   1.586   0.959   2.115 -0.5905 -3.5345 -1.4845
 7375SOL    HW222491   1.651   1.032   1.998 -1.7156 -0.9822 -0.5953
 7376SOL     OW22492   4.904   6.271   5.363 -0.5204 -0.0101  0.2738
 7376SOL    HW122493   4.837   6.294   5.299 -1.1132  0.0986  0.9236
 7376SOL    HW222494   4.986   6.301   5.323 -0.6875 -1.2131 -1.0569
 7377SOL     OW22495   1.260   2.607   0.451  0.3474 -0.4321  0.2450
 7377SOL    HW122496   1.261   2.571   0.362 -0.5076 -0.5490  0.2811
 7377SOL    HW222497   1.337   2.567   0.493  1.6286  0.7389 -0.8622
 7378SOL     OW22498   2.638   1.235   1.168 -0.1546 -0.5807  0.3643
 7378SOL    HW122499   2.722   1.236   1.122 -1.1313 -0.4184 -1.4896
 7378SOL    HW222500   2.643   1.310   1.228  0.9531 -0.4735  0.1578
 7379SOL     OW22501   4.900   4.901   5.693  0.2688 -0.1594  0.7304
 7379SOL    HW122502   4.847   4.981   5.691  1.0956  0.4135  1.2539
 7379SOL    HW222503   4.843   4.834   5.656  0.1770  1.0294 -1.4239
 7380SOL     OW22504   3.252   0.508   3.577 -0.0012  0.0024  0.2574
 7380SOL    HW122505   3.255   0.602   3.594  1.2222  0.0686 -0.2066
 7380SOL    HW222506   3.166   0.480   3.609 -0.3012  1.2376  0.5733
 7381SOL     OW22507   5.965   5.066   4.480  0.5686  0.0868  0.0622
 7381SOL    HW122508   5.885   5.056   4.428 -0.1836  0.5702  1.0706
 7381SOL    HW222509   5.934   5.063   4.571  1.5375  1.4922  0.4702
 7382SOL     OW22510   2.988   4.024   4.500  0.1053 -0.7569 -0.2685
 7382SOL    HW122511   2.935   3.966   4.444 -2.0296 -1.1156  1.9604
 7382SOL    HW222512   3.013   3.970   4.574  0.0615  0.5251  0.7224
 7383SOL     OW22513   2.489   4.911   1.615  0.3180 -0.2878 -0.3435
 7383SOL    HW122514   2.510   4.819   1.599  1.1119 -0.0982 -0.4455
 7383SOL    HW222515   2.574   4.956   1.612 -0.0930  0.4960 -0.6236
 7384SOL     OW22516   1.243   2.270   2.594 -0.7359 -0.2791  0.5463
 7384SOL    HW122517   1.161   2.318   2.580 -0.7533 -0.8852 -2.0505
 7384SOL    HW222518   1.230   2.224   2.677 -2.5848  0.4886  0.7415
 7385SOL     OW22519   6.267   4.733   4.789 -0.5573 -0.1909  0.0198
 7385SOL    HW122520   6.315   4.814   4.768  2.4698 -2.1208 -1.2496
 7385SOL    HW222521   6.271   4.727   4.884  1.5591 -0.0879 -0.0155
 7386SOL     OW22522   3.387   2.699   0.488  0.6266 -0.4421 -0.5643
 7386SOL    HW122523   3.313   2.645   0.460  0.8911 -1.7962  1.1609
 7386SOL    HW222524   3.460   2.638   0.493  1.2335  0.3259  0.2599
 7387SOL     OW22525   3.533   5.700   5.671  0.0780 -0.2740 -0.5187
 7387SOL    HW122526   3.616   5.727   5.710 -1.2276 -1.1608  3.3126
 7387SOL    HW222527   3.473   5.772   5.692 -0.5377 -0.3929 -1.7848
 7388SOL     OW22528   3.399   2.427   1.504 -0.4535 -0.2840  0.6859
 7388SOL    HW122529   3.432   2.476   1.428 -0.1189  0.7106  1.4543
 7388SOL    HW222530   3.454   2.456   1.577 -1.2204 -0.7107  1.4474
 7389SOL     OW22531   4.686   1.657   4.402  0.0377  0.2189 -0.3890
 7389SOL    HW122532   4.655   1.726   4.343  0.7126 -2.1362 -3.8215
 7389SOL    HW222533   4.781   1.664   4.399  0.0917 -0.3296 -0.1089
 7390SOL     OW22534   2.243   6.066   2.862  0.8708  0.4373  0.2275
 7390SOL    HW122535   2.284   6.152   2.869  0.3647  0.7610 -0.5897
 7390SOL    HW222536   2.251   6.043   2.769  0.3752 -0.0809  0.3044
 7391SOL     OW22537   1.103   1.985   4.341 -0.2815 -0.7298  0.1093
 7391SOL    HW122538   1.053   1.925   4.287 -2.4401  2.1220 -1.3550
 7391SOL    HW222539   1.191   1.985   4.303 -1.8149  1.5976 -4.1728
 7392SOL     OW22540   0.660   0.656   1.451 -0.3813 -0.0865  0.5753
 7392SOL    HW122541   0.628   0.641   1.362 -2.1742  1.0747  0.9873
 7392SOL    HW222542   0.706   0.575   1.473  0.7189 -0.1528 -1.6252
 7393SOL     OW22543   4.510   4.735   1.309  0.0737 -0.1335 -0.0918
 7393SOL    HW122544   4.538   4.769   1.394  1.0690  0.7294 -0.7414
 7393SOL    HW222545   4.591   4.715   1.263 -0.3506  1.4078 -1.6213
 7394SOL     OW22546   0.661   6.613   2.649  0.0978  0.2798  0.0728
 7394SOL    HW122547   0.635   6.563   2.726 -5.0833  0.4456 -1.1854
 7394SOL    HW222548   0.677   6.701   2.681 -0.2226 -0.0417  1.1412
 7395SOL     OW22549   5.006   1.482   4.605 -0.4748 -0.5564  0.2964
 7395SOL    HW122550   5.013   1.517   4.516  0.3145 -3.0847 -0.6959
 7395SOL    HW222551   4.913   1.460   4.615 -0.2560 -2.0340 -0.6624
 7396SOL     OW22552   6.095   2.596   0.537 -0.7436 -0.2730  0.3536
 7396SOL    HW122553   6.160   2.603   0.467 -1.9133  1.0112 -0.6621
 7396SOL    HW222554   6.090   2.502   0.555  0.4696 -0.5072 -0.4279
 7397SOL     OW22555   1.984   3.744   5.786  0.2472  0.0600 -0.1666
 7397SOL    HW122556   1.897   3.776   5.761 -0.1351 -0.2894  0.6989
 7397SOL    HW222557   1.974   3.715   5.877  1.5848  1.1940  0.3626
 7398SOL     OW22558   1.478   6.604   5.363 -0.3511 -0.2029 -1.2098
 7398SOL    HW122559   1.455   6.611   5.271  0.5505  1.0459 -1.3677
 7398SOL    HW222560   1.404   6.557   5.403 -1.7500  1.0795 -2.1870
 7399SOL     OW22561   5.159   5.118   3.204  0.0199 -0.4094 -0.1547
 7399SOL    HW122562   5.102   5.151   3.274 -1.0439 -1.5280 -0.4557
 7399SOL    HW222563   5.241   5.097   3.248 -0.2110  0.0661  0.5246
 7400SOL     OW22564   0.742   6.616   5.621 -0.3408  0.2603  0.3610
 7400SOL    HW122565   0.794   6.592   5.697  1.4899 -0.6847 -1.1221
 7400SOL    HW222566   0.733   6.535   5.571 -2.7134  0.5414  0.2138
 7401SOL     OW22567   4.343   5.939   0.125  0.1436  0.0616  0.1743
 7401SOL    HW122568   4.328   5.968   0.035 -3.7041 -1.5923  0.0873
 7401SOL    HW222569   4.279   5.988   0.176 -1.3476 -2.6891  1.1174
 7402SOL     OW22570   2.841   6.335   2.706 -0.0970  0.5533  0.3144
 7402SOL    HW122571   2.841   6.427   2.680  0.4885  0.7098  0.8215
 7402SOL    HW222572   2.917   6.297   2.660 -0.9954  0.0332 -0.8051
 7403SOL     OW22573   2.413   5.350   6.198  0.2474  0.7534  0.7561
 7403SOL    HW122574   2.485   5.389   6.247  0.6733  0.2735  0.5257
 7403SOL    HW222575   2.364   5.299   6.262  1.4252 -0.7528  0.5108
 7404SOL     OW22576   3.094   0.982   5.680  0.1713  0.0071 -0.6031
 7404SOL    HW122577   3.010   1.020   5.703  0.6637  0.1943  1.0342
 7404SOL    HW222578   3.085   0.955   5.589 -2.3651 -1.8759  0.0924
 7405SOL     OW22579   1.379   3.601   5.176  0.5064  0.1161  0.1807
 7405SOL    HW122580   1.460   3.568   5.137  0.6912  0.2089  0.4753
 7405SOL    HW222581   1.326   3.630   5.102  1.3902  1.4981  0.0480
 7406SOL     OW22582   5.351   0.669   3.899 -0.1300 -0.3125  0.1097
 7406SOL    HW122583   5.421   0.657   3.963  0.6335  1.8445 -0.2406
 7406SOL    HW222584   5.270   0.664   3.950  0.3979 -0.1746  0.9761
 7407SOL     OW22585   1.786   5.205   3.757 -0.4130 -0.1824  0.2889
 7407SOL    HW122586   1.715   5.146   3.783 -2.2247  0.9489 -1.8134
 7407SOL    HW222587   1.859   5.181   3.815 -0.9238 -4.5824 -0.5057
 7408SOL     OW22588   4.538   3.658   5.397 -0.3820 -0.2827  0.5342
 7408SOL    HW122589   4.606   3.592   5.412 -1.7960 -1.6015  1.4856
 7408SOL    HW222590   4.541   3.714   5.474  0.5772  0.5703 -0.1051
 7409SOL     OW22591   4.743   3.862   1.044 -0.7569  0.4269 -0.4425
 7409SOL    HW122592   4.768   3.928   0.979 -0.8483  1.2012  0.2888
 7409SOL    HW222593   4.826   3.835   1.084 -0.4946 -1.3611 -2.0665
 7410SOL     OW22594   6.550   1.563   6.162 -0.0046 -0.6238  0.9578
 7410SOL    HW122595   6.492   1.592   6.091  0.2864  0.6814  1.2268
 7410SOL    HW222596   6.638   1.569   6.125  0.0811 -0.9041  1.1152
 7411SOL     OW22597   1.455   1.328   0.288  0.2067  0.1351  0.5223
 7411SOL    HW122598   1.455   1.233   0.285  0.0370  0.1423  0.2450
 7411SOL    HW222599   1.406   1.355   0.210 -0.5917  0.4298  1.1070
 7412SOL     OW22600   0.277   5.709   1.842  0.2818  0.2447  0.0193
 7412SOL    HW122601   0.331   5.743   1.770 -0.8671  2.3437  0.0508
 7412SOL    HW222602   0.229   5.636   1.803 -0.7666  1.6965 -1.6067
 7413SOL     OW22603   1.114   4.683   2.983  0.3813  0.3465 -0.0332
 7413SOL    HW122604   1.021   4.690   2.963 -0.1419  0.6188  2.2253
 7413SOL    HW222605   1.129   4.748   3.051  2.0811 -0.1923  0.1604
 7414SOL     OW22606   2.460   4.502   3.690 -0.1959 -0.1818 -0.3432
 7414SOL    HW122607   2.450   4.546   3.606 -1.4602 -0.7100 -0.4904
 7414SOL    HW222608   2.410   4.421   3.681  3.2099 -2.4423 -0.5856
 7415SOL     OW22609   3.791   0.278   2.213 -0.3270  0.8120  0.3643
 7415SOL    HW122610   3.790   0.302   2.120 -1.4759  0.5062  0.2870
 7415SOL    HW222611   3.755   0.190   2.216  1.1207  0.2079  0.9604
 7416SOL     OW22612   0.744   4.228   1.807 -0.0247  0.4963  0.5359
 7416SOL    HW122613   0.820   4.275   1.772  0.0557 -0.5503 -0.7627
 7416SOL    HW222614   0.781   4.165   1.868  0.3889 -1.2147 -1.3779
 7417SOL     OW22615   1.080   1.226   4.092 -0.2054 -0.2880  0.1197
 7417SOL    HW122616   1.013   1.166   4.059  0.3654 -0.6477 -0.4282
 7417SOL    HW222617   1.045   1.313   4.075 -0.6286 -0.4750  0.0325
 7418SOL     OW22618   4.516   4.733   2.903 -0.2959 -0.2423  0.0241
 7418SOL    HW122619   4.585   4.682   2.861  1.3027  2.4422 -0.9002
 7418SOL    HW222620   4.558   4.770   2.981 -0.1885  2.3246 -1.1391
 7419SOL     OW22621   2.097   1.960   3.780 -0.3198  0.1319  0.1288
 7419SOL    HW122622   2.159   1.991   3.846 -1.6921 -0.3078  1.6647
 7419SOL    HW222623   2.152   1.941   3.703  1.5763 -0.9506  1.6682
 7420SOL     OW22624   6.478   2.780   1.643  0.1695  0.4124 -0.1503
 7420SOL    HW122625   6.520   2.829   1.572 -0.2316  0.0693 -0.6257
 7420SOL    HW222626   6.421   2.718   1.599  0.3872 -0.2314  0.4589
 7421SOL     OW22627   2.097   6.505   1.020  0.2463 -0.6719 -0.0846
 7421SOL    HW122628   2.087   6.570   1.089  1.2912  0.7901 -1.2565
 7421SOL    HW222629   2.007   6.477   1.001 -0.4768  2.0327 -1.0191
 7422SOL     OW22630   6.682   1.243   5.561  0.2589  0.4089 -0.1347
 7422SOL    HW122631   6.704   1.297   5.637  1.2640  0.3052 -0.3342
 7422SOL    HW222632   6.654   1.306   5.495  1.4687  0.7276 -0.3805
 7423SOL     OW22633   1.274   1.215   0.729  0.2280  0.2675 -0.1990
 7423SOL    HW122634   1.314   1.156   0.793  1.0801  1.5170  0.4508
 7423SOL    HW222635   1.319   1.195   0.647  0.0496 -0.4246 -0.1403
 7424SOL     OW22636   4.825   0.029   0.456  0.3072  0.4589 -0.5478
 7424SOL    HW122637   4.898  -0.011   0.409  0.2126  0.2964 -0.5548
 7424SOL    HW222638   4.862   0.052   0.542  0.1773 -0.2775 -0.2864
 7425SOL     OW22639   5.665   1.108   2.464  0.2294 -0.2097 -0.4895
 7425SOL    HW122640   5.605   1.037   2.489 -0.0012  0.3919  0.7543
 7425SOL    HW222641   5.741   1.063   2.426  0.6849 -1.2445  1.4907
 7426SOL     OW22642   3.902   5.180   6.621 -1.1080  0.2848  0.4292
 7426SOL    HW122643   3.961   5.117   6.663 -1.6185 -0.4928 -0.0006
 7426SOL    HW222644   3.873   5.137   6.541 -0.9945  1.3194 -0.1977
 7427SOL     OW22645   0.472   4.519   1.174  0.1476  0.6142 -0.3442
 7427SOL    HW122646   0.560   4.543   1.204  0.5492  1.1728 -1.8719
 7427SOL    HW222647   0.467   4.553   1.084 -1.0835 -0.7253 -0.8283
 7428SOL     OW22648   3.208   4.242   1.301  0.3052  0.0169  0.8313
 7428SOL    HW122649   3.113   4.247   1.313  0.5409  1.9806  2.2102
 7428SOL    HW222650   3.243   4.235   1.389  1.5057  0.0288  0.3733
 7429SOL     OW22651   6.100   3.075   5.905 -0.1145  0.0931  0.2877
 7429SOL    HW122652   6.120   3.154   5.855  0.4962 -0.3342 -0.1555
 7429SOL    HW222653   6.012   3.091   5.941 -0.8160  0.1845 -1.3758
 7430SOL     OW22654   0.221   4.447   3.762  0.3806  0.2379 -0.2568
 7430SOL    HW122655   0.238   4.367   3.812  0.4064  1.2973  1.5119
 7430SOL    HW222656   0.152   4.492   3.811  0.7694  1.5735 -0.8927
 7431SOL     OW22657   4.427   4.887   5.333  0.8401  0.2795 -0.2069
 7431SOL    HW122658   4.368   4.814   5.311  1.0020  0.0146  0.2257
 7431SOL    HW222659   4.441   4.932   5.249 -0.2764  0.5754 -0.2534
 7432SOL     OW22660   5.075   4.931   5.411  0.0324 -0.2432  0.2620
 7432SOL    HW122661   5.052   4.841   5.437 -2.1658  0.1368 -0.2013
 7432SOL    HW222662   5.074   4.980   5.493  1.9750 -0.7239  0.6305
 7433SOL     OW22663   3.791   4.845   5.251 -0.5602  0.0943 -0.4934
 7433SOL    HW122664   3.826   4.843   5.340  0.8867  1.7146 -0.9697
 7433SOL    HW222665   3.742   4.763   5.243  1.1049 -1.1465  1.0619
 7434SOL     OW22666   1.242   1.736   6.624 -0.3370  0.8987  0.4336
 7434SOL    HW122667   1.164   1.711   6.575 -0.7527  1.5862  0.7351
 7434SOL    HW222668   1.313   1.687   6.583 -0.3122  2.9101 -2.2192
 7435SOL     OW22669   2.259   4.683   4.674  0.7085  0.4265 -0.0097
 7435SOL    HW122670   2.293   4.674   4.763  1.0969  2.0203  0.0313
 7435SOL    HW222671   2.242   4.593   4.646 -1.1784 -0.0292  2.3255
 7436SOL     OW22672   3.457   1.638   6.167 -0.8187  0.7325  0.0599
 7436SOL    HW122673   3.506   1.692   6.229 -0.1569 -0.0839  0.2697
 7436SOL    HW222674   3.385   1.601   6.219  0.6781 -1.2791  0.8299
 7437SOL     OW22675   0.308   0.874   6.607  0.0138 -0.2646 -0.2423
 7437SOL    HW122676   0.386   0.819   6.597 -0.8816 -1.2482 -2.5811
 7437SOL    HW222677   0.340   0.964   6.599  0.9104 -0.6626 -1.4750
 7438SOL     OW22678   1.337   3.169   3.607  0.5066 -0.2834  0.1177
 7438SOL    HW122679   1.320   3.232   3.536  2.7515  1.9198  1.3746
 7438SOL    HW222680   1.407   3.114   3.574  2.3552  1.4656  0.8767
 7439SOL     OW22681   3.219   3.302   0.641 -0.0109 -0.1845  0.4160
 7439SOL    HW122682   3.127   3.314   0.616  0.1256  1.2937  0.5308
 7439SOL    HW222683   3.237   3.210   0.623 -1.3041 -0.3178 -0.3149
 7440SOL     OW22684   5.882   5.774   5.716 -0.2779 -0.2845 -0.8295
 7440SOL    HW122685   5.886   5.788   5.811  2.0524 -0.3912 -0.8494
 7440SOL    HW222686   5.797   5.810   5.690 -1.7476 -1.7647  1.4953
 7441SOL     OW22687   3.129   2.522   1.350  0.2664  0.2367  0.6175
 7441SOL    HW122688   3.196   2.574   1.396  0.5685  0.1215  0.3113
 7441SOL    HW222689   3.177   2.447   1.314 -0.1912 -0.3119  1.1464
 7442SOL     OW22690   1.417   0.107   3.318  0.0937 -0.3583 -0.5439
 7442SOL    HW122691   1.503   0.064   3.318  0.7546  0.5364  3.2776
 7442SOL    HW222692   1.430   0.186   3.265  1.4620 -0.6046 -0.6220
 7443SOL     OW22693   4.895   3.820   6.300  0.4098 -0.5068  0.3766
 7443SOL    HW122694   4.950   3.807   6.223 -2.0640 -0.1192 -1.5727
 7443SOL    HW222695   4.819   3.764   6.285 -0.5483  0.2391  2.1444
 7444SOL     OW22696   3.619   0.140   5.736 -0.2131 -0.2543 -0.3446
 7444SOL    HW122697   3.598   0.052   5.768 -1.4815 -0.2231 -1.0391
 7444SOL    HW222698   3.534   0.183   5.725  0.3713  0.9359 -0.3758
 7445SOL     OW22699   0.799   5.393   5.374  0.1350 -0.7127 -0.3664
 7445SOL    HW122700   0.708   5.363   5.375 -0.3223  0.5828 -0.0212
 7445SOL    HW222701   0.833   5.373   5.461 -0.0831 -0.4776 -0.2254
 7446SOL     OW22702   0.460   4.276   1.594 -0.1869 -0.5587 -0.4313
 7446SOL    HW122703   0.475   4.370   1.602 -1.7652 -0.3904  0.9694
 7446SOL    HW222704   0.495   4.253   1.507  1.2934  1.0696 -0.3057
 7447SOL     OW22705   1.487   0.511   2.990  0.1664 -0.1743  0.8941
 7447SOL    HW122706   1.569   0.545   3.025  0.8183 -1.3891  0.5886
 7447SOL    HW222707   1.422   0.577   3.015  1.1096  0.4853  1.7173
 7448SOL     OW22708   3.109   5.829   1.642 -0.0107 -0.2826  0.1855
 7448SOL    HW122709   3.170   5.805   1.572 -1.3120  1.0492 -1.5039
 7448SOL    HW222710   3.073   5.745   1.672  1.5204 -0.9710  0.2190
 7449SOL     OW22711   3.837   3.459   0.709  0.1865 -0.0101 -0.6346
 7449SOL    HW122712   3.787   3.480   0.631  1.1440  0.9152 -1.0234
 7449SOL    HW222713   3.786   3.391   0.753 -0.9643  0.3117 -1.4391
 7450SOL     OW22714   6.508   6.544   2.382  0.2619  0.4810 -0.6415
 7450SOL    HW122715   6.502   6.639   2.385 -0.9250  0.4014  0.3365
 7450SOL    HW222716   6.430   6.513   2.428 -0.2673 -1.0004 -2.4043
 7451SOL     OW22717   5.836   6.079   5.936 -0.5313 -0.1012  0.3585
 7451SOL    HW122718   5.866   6.002   5.985 -0.9409 -0.9725 -0.7339
 7451SOL    HW222719   5.742   6.083   5.953 -0.4134  0.5538  0.9235
 7452SOL     OW22720   3.263   3.318   0.933 -0.2185 -0.3417  0.5602
 7452SOL    HW122721   3.335   3.261   0.962  0.9345  1.0085  0.4979
 7452SOL    HW222722   3.276   3.326   0.839 -0.0639  0.3926  0.6364
 7453SOL     OW22723   5.464   2.557   4.346 -0.1493 -0.3848 -0.3571
 7453SOL    HW122724   5.446   2.481   4.402 -0.8605  1.8256  2.7389
 7453SOL    HW222725   5.512   2.617   4.403  0.2805  1.5362 -2.6132
 7454SOL     OW22726   2.793   6.589   2.637 -0.4515  0.1397 -0.3002
 7454SOL    HW122727   2.711   6.592   2.687 -0.4831 -1.5537 -0.2120
 7454SOL    HW222728   2.795   6.673   2.591 -2.4780  0.0263 -0.6960
 7455SOL     OW22729   5.217   4.808   5.171 -0.1844  0.2572  0.2884
 7455SOL    HW122730   5.164   4.856   5.236 -0.9133  0.3917 -0.3884
 7455SOL    HW222731   5.306   4.809   5.207  0.1729  3.4524 -0.3671
 7456SOL     OW22732   6.389   1.836   3.574 -0.1586 -0.4198  0.1818
 7456SOL    HW122733   6.297   1.854   3.593  0.5657  2.1270  1.6948
 7456SOL    HW222734   6.434   1.853   3.656  1.8892  0.2614 -1.0238
 7457SOL     OW22735   3.861   1.102   6.675 -0.0878 -0.0432  0.3727
 7457SOL    HW122736   3.914   1.172   6.713  0.7124  0.4703 -1.5619
 7457SOL    HW222737   3.773   1.117   6.709  0.4331  0.8316  1.3836
 7458SOL     OW22738   6.682   6.229   3.130 -0.0124  0.3492 -0.4567
 7458SOL    HW122739   6.740   6.159   3.103  0.0724  0.2721 -0.0761
 7458SOL    HW222740   6.734   6.309   3.122 -0.1702  0.3952 -1.0787
 7459SOL     OW22741   1.999   6.138   1.709  0.5095  0.5376 -0.1054
 7459SOL    HW122742   1.926   6.133   1.772  1.2159 -0.9218  0.6719
 7459SOL    HW222743   1.957   6.132   1.623 -0.4157  1.6451  0.2523
 7460SOL     OW22744   5.422   1.653   1.542 -0.9115  0.0467  0.1856
 7460SOL    HW122745   5.339   1.606   1.531 -0.3633 -1.1473  0.9347
 7460SOL    HW222746   5.466   1.642   1.457 -1.3093  0.2509 -0.0481
 7461SOL     OW22747   5.159   1.115   5.343 -0.5176 -0.1119  0.3981
 7461SOL    HW122748   5.110   1.196   5.356 -0.4174 -0.1270  0.9102
 7461SOL    HW222749   5.214   1.108   5.421  1.1291  0.4902 -0.6357
 7462SOL     OW22750   0.806   2.469   5.731  0.1755  0.4973  0.6324
 7462SOL    HW122751   0.766   2.537   5.675 -0.8352  0.2141  0.9916
 7462SOL    HW222752   0.878   2.514   5.775  1.6566  0.4869 -1.6208
 7463SOL     OW22753   4.433   0.023   3.667 -0.8948 -0.1464  0.0764
 7463SOL    HW122754   4.398   0.069   3.743 -2.2378 -0.8870 -0.0541
 7463SOL    HW222755   4.438   0.090   3.598 -3.9833 -0.3332 -0.4835
 7464SOL     OW22756   2.845   5.300   3.120  0.3411  0.2780  0.2727
 7464SOL    HW122757   2.800   5.234   3.067  2.3711 -2.8653  2.1731
 7464SOL    HW222758   2.775   5.353   3.157 -1.4196 -0.9484 -1.1146
 7465SOL     OW22759   0.441   4.923   5.085 -0.3079  0.0040  0.1256
 7465SOL    HW122760   0.365   4.943   5.030 -0.5202 -1.4874 -0.1765
 7465SOL    HW222761   0.404   4.904   5.171 -0.1447  0.5330  0.3170
 7466SOL     OW22762   1.919   2.526   4.991  0.0405 -0.4406 -0.2513
 7466SOL    HW122763   2.010   2.512   4.965  0.5551  0.4482  0.9865
 7466SOL    HW222764   1.875   2.557   4.912  1.4577  1.7999 -0.2283
 7467SOL     OW22765   1.108   4.910   1.697  0.1278  0.6639 -0.5394
 7467SOL    HW122766   1.039   4.947   1.753  0.1157 -0.9205  0.5618
 7467SOL    HW222767   1.189   4.936   1.741  0.1083 -1.1737  0.6949
 7468SOL     OW22768   1.351   3.936   6.294 -0.0867 -0.6307  0.4620
 7468SOL    HW122769   1.426   3.944   6.236 -0.9537  0.2213 -0.5888
 7468SOL    HW222770   1.328   3.843   6.291 -0.3553 -0.5385 -0.8994
 7469SOL     OW22771   1.085   0.325   3.221  0.6346 -0.2067  0.1789
 7469SOL    HW122772   1.158   0.333   3.283  1.1492  1.1383 -0.5738
 7469SOL    HW222773   1.032   0.403   3.235  0.4106 -0.2044 -0.6529
 7470SOL     OW22774   3.499   5.380   3.249 -0.3536 -0.1374 -0.3101
 7470SOL    HW122775   3.484   5.289   3.274 -0.2937 -0.6375 -1.9794
 7470SOL    HW222776   3.413   5.412   3.220 -0.0559 -0.2231 -1.3550
 7471SOL     OW22777   3.354   1.120   0.136  0.1440 -0.3352 -0.3091
 7471SOL    HW122778   3.441   1.130   0.098  0.5494 -1.7777  0.1452
 7471SOL    HW222779   3.362   1.154   0.225 -1.0267  3.8441 -1.5814
 7472SOL     OW22780   3.390   4.814   2.004  0.2149 -0.3987 -0.1697
 7472SOL    HW122781   3.349   4.769   2.078 -1.2424  3.2091  1.4672
 7472SOL    HW222782   3.476   4.841   2.036  0.5266 -0.7856 -0.6545
 7473SOL     OW22783   6.345   2.928   0.318 -0.6065  0.3661  0.2083
 7473SOL    HW122784   6.291   2.894   0.389 -0.7553 -2.1205 -0.9914
 7473SOL    HW222785   6.292   2.997   0.278 -1.6961 -0.1063  0.8097
 7474SOL     OW22786   5.458   2.364   6.423 -0.1175 -0.3526  0.0785
 7474SOL    HW122787   5.384   2.367   6.362 -0.6380  0.8438  0.7352
 7474SOL    HW222788   5.535   2.376   6.368 -0.6674  2.1418 -0.2485
 7475SOL     OW22789   0.665   0.391   2.876  0.0373  0.7337  0.8348
 7475SOL    HW122790   0.668   0.350   2.790 -0.0128  1.2330  0.5919
 7475SOL    HW222791   0.627   0.324   2.933  2.7558 -0.7170  1.1263
 7476SOL     OW22792   4.162   5.687   6.575  0.7488  0.2538  0.1879
 7476SOL    HW122793   4.205   5.636   6.507 -0.4182  0.5934 -0.8223
 7476SOL    HW222794   4.089   5.633   6.603 -0.0141  1.0122 -0.3161
 7477SOL     OW22795   2.947   3.008   1.187 -0.3854  0.2173  0.0916
 7477SOL    HW122796   2.909   2.939   1.242 -0.2995 -0.0203 -0.1521
 7477SOL    HW222797   2.900   3.002   1.104  0.5942 -0.4682 -0.4250
 7478SOL     OW22798   0.596   5.571   0.532 -0.2087  0.0883  0.2307
 7478SOL    HW122799   0.575   5.660   0.563  0.5768 -0.3575  2.1743
 7478SOL    HW222800   0.654   5.585   0.458 -0.3837  1.2081  0.2871
 7479SOL     OW22801   1.584   5.042   3.844 -0.3717 -0.4904 -0.1828
 7479SOL    HW122802   1.517   5.102   3.811 -1.3758 -2.2453 -1.5327
 7479SOL    HW222803   1.593   5.064   3.936 -3.5369 -0.7704  0.3019
 7480SOL     OW22804   6.720   6.167   6.566 -0.1605 -0.2785  0.3193
 7480SOL    HW122805   6.676   6.252   6.558 -0.5243 -0.3970  0.9803
 7480SOL    HW222806   6.654   6.103   6.538 -0.0832 -0.3859  0.3832
 7481SOL     OW22807   3.561   3.758   5.603 -0.8763 -0.3510 -0.0997
 7481SOL    HW122808   3.613   3.680   5.586 -2.3082 -1.4487  0.3074
 7481SOL    HW222809   3.495   3.729   5.667 -1.6100  1.1169 -0.1472
 7482SOL     OW22810   4.716   1.256   1.500  0.0177 -0.3730 -0.1302
 7482SOL    HW122811   4.753   1.305   1.428 -0.7276 -0.4203 -0.5615
 7482SOL    HW222812   4.791   1.229   1.553  0.6627 -1.0702 -1.3436
 7483SOL     OW22813   4.750   2.075   5.062 -0.3550 -0.4970  0.3250
 7483SOL    HW122814   4.689   2.133   5.017 -1.4527 -1.6328  0.2928
 7483SOL    HW222815   4.837   2.106   5.035 -0.9545 -0.0699 -1.2133
 7484SOL     OW22816   4.974   3.411   5.670 -0.0443  0.6312  0.5110
 7484SOL    HW122817   5.017   3.362   5.600 -0.5668  0.4246  0.3339
 7484SOL    HW222818   4.982   3.355   5.747 -2.4134 -0.7136 -0.1199
 7485SOL     OW22819   1.347   1.650   4.242  0.2183  0.1361  0.2718
 7485SOL    HW122820   1.289   1.617   4.312 -1.4253  1.1065 -0.5732
 7485SOL    HW222821   1.335   1.745   4.244  0.1480  0.1867 -1.3051
 7486SOL     OW22822   2.971   1.996   4.533 -0.5302 -0.2131  0.7473
 7486SOL    HW122823   2.940   2.087   4.531 -0.9419 -0.3549 -0.1413
 7486SOL    HW222824   3.033   1.991   4.461 -1.5286 -0.9674 -0.0863
 7487SOL     OW22825   1.740   5.939   5.490 -0.1597  0.5341 -0.3670
 7487SOL    HW122826   1.670   5.906   5.547 -0.1500  0.9296 -0.1251
 7487SOL    HW222827   1.795   5.992   5.547  0.7966 -0.4144 -0.3766
 7488SOL     OW22828   3.982   2.017   0.143  0.5495  0.0525 -0.0776
 7488SOL    HW122829   4.042   1.955   0.101 -0.3373 -0.7792 -0.1384
 7488SOL    HW222830   4.006   2.013   0.236  0.3419 -0.5642 -0.0470
 7489SOL     OW22831   4.123   5.921   2.962  0.0818  0.0695 -0.3711
 7489SOL    HW122832   4.066   5.967   3.025  1.2962  1.4908 -0.2601
 7489SOL    HW222833   4.171   5.858   3.015  1.0904  1.2505  0.1699
 7490SOL     OW22834   3.403   5.309   6.251  0.1263  0.3565 -0.6956
 7490SOL    HW122835   3.452   5.237   6.211  1.4674  0.1614  1.1821
 7490SOL    HW222836   3.333   5.267   6.300  0.8989  0.2807  0.3870
 7491SOL     OW22837   6.271   6.505   3.091 -0.6402 -0.8054 -0.1872
 7491SOL    HW122838   6.284   6.577   3.029  2.8266 -0.4780  0.6663
 7491SOL    HW222839   6.291   6.427   3.040 -0.1782 -0.7409 -0.1165
 7492SOL     OW22840   5.451   5.906   6.132  0.4020  0.7058  0.2358
 7492SOL    HW122841   5.531   5.900   6.184  1.1597  0.3480 -0.9157
 7492SOL    HW222842   5.463   5.841   6.063 -1.2639  0.0569  0.5192
 7493SOL     OW22843   4.952   5.433   3.280  0.2120  0.6866 -0.4692
 7493SOL    HW122844   4.997   5.484   3.347  0.9653 -1.4666  0.7476
 7493SOL    HW222845   4.891   5.377   3.328 -2.4338  2.1013 -1.9450
 7494SOL     OW22846   6.143   2.890   2.676 -0.4409 -0.1326 -0.2861
 7494SOL    HW122847   6.219   2.863   2.623  0.9515 -0.0680  1.5845
 7494SOL    HW222848   6.175   2.964   2.727 -1.4707 -0.7057  1.2362
 7495SOL     OW22849   5.981   2.446   1.818  0.1097 -0.2066 -0.3853
 7495SOL    HW122850   5.886   2.458   1.826 -0.2248 -1.8014 -1.5456
 7495SOL    HW222851   6.009   2.513   1.755 -0.2705  0.0727 -0.2636
 7496SOL     OW22852   4.858   5.341   1.554  0.1493 -1.2901 -0.5542
 7496SOL    HW122853   4.872   5.363   1.462  0.5892  1.1090  0.0012
 7496SOL    HW222854   4.765   5.318   1.559 -0.3629  0.4162 -1.3388
 7497SOL     OW22855   5.528   5.762   0.846 -0.2705  0.4680 -0.3673
 7497SOL    HW122856   5.520   5.672   0.878 -1.6445  0.0102 -1.9016
 7497SOL    HW222857   5.609   5.794   0.887  0.1506 -1.3864  0.3638
 7498SOL     OW22858   5.959   6.115   3.341 -0.5732  0.3579  0.3959
 7498SOL    HW122859   6.026   6.047   3.333  1.6163  2.4443 -0.5735
 7498SOL    HW222860   5.926   6.107   3.430  0.5281 -1.1724  0.7042
 7499SOL     OW22861   1.140   5.482   4.312  0.4730 -0.1792  0.3610
 7499SOL    HW122862   1.168   5.536   4.386 -0.0064 -0.9691  1.1378
 7499SOL    HW222863   1.058   5.523   4.283 -0.0848 -0.6936  1.1837
 7500SOL     OW22864   3.587   4.892   3.494  0.0355 -0.1650  0.0943
 7500SOL    HW122865   3.508   4.859   3.451  0.7780  0.0134 -1.4631
 7500SOL    HW222866   3.557   4.970   3.541 -0.6740  0.0560 -0.6952
 7501SOL     OW22867   3.515   0.835   3.089  0.1620  0.3533  0.7325
 7501SOL    HW122868   3.521   0.744   3.063  1.3175  1.0243 -1.6582
 7501SOL    HW222869   3.443   0.871   3.036 -0.0246  0.9124  1.3492
 7502SOL     OW22870   3.457   3.785   6.562 -0.3858  0.1891 -0.2882
 7502SOL    HW122871   3.471   3.814   6.652  0.6832  0.5640 -0.5598
 7502SOL    HW222872   3.545   3.781   6.524 -0.7978 -0.2213 -1.2427
 7503SOL     OW22873   3.723   5.511   2.970  0.6932 -0.7057 -0.0632
 7503SOL    HW122874   3.702   5.427   2.932  1.8702 -0.9968 -0.1311
 7503SOL    HW222875   3.710   5.574   2.899  1.0340 -1.0002 -0.3924
 7504SOL     OW22876   2.636   4.936   6.536  0.2177  0.1624  0.0287
 7504SOL    HW122877   2.629   4.974   6.624  0.1488  0.4112 -0.0815
 7504SOL    HW222878   2.571   4.985   6.484 -1.7723 -1.8685  0.4658
 7505SOL     OW22879   1.521   0.067   2.828  0.0590  0.0212 -0.6851
 7505SOL    HW122880   1.430   0.094   2.832  0.4114  1.4584 -1.5926
 7505SOL    HW222881   1.531   0.005   2.900 -1.9752 -1.2870 -1.4301
 7506SOL     OW22882   4.574   2.313   1.366 -0.4592 -0.0274 -0.1596
 7506SOL    HW122883   4.610   2.401   1.359  0.4414 -0.3755 -0.1269
 7506SOL    HW222884   4.514   2.306   1.291  0.5288  0.1422 -0.9923
 7507SOL     OW22885   5.190   2.093   4.388  0.2933 -0.0136 -0.1818
 7507SOL    HW122886   5.151   2.008   4.369  0.8484 -0.3835  0.3006
 7507SOL    HW222887   5.145   2.122   4.468  1.6494 -0.8943  0.9540
 7508SOL     OW22888   1.599   3.569   5.728 -0.0928 -0.3193 -0.2340
 7508SOL    HW122889   1.504   3.570   5.743  0.1557 -1.4740  1.7234
 7508SOL    HW222890   1.609   3.542   5.637 -1.6232 -1.3924 -0.1127
 7509SOL     OW22891   6.243   1.292   1.524 -0.0981  0.2785 -0.2054
 7509SOL    HW122892   6.176   1.348   1.563  0.1243 -1.7907  3.6405
 7509SOL    HW222893   6.323   1.313   1.572  0.2400 -2.3472  0.5304
 7510SOL     OW22894   1.277   3.572   4.721 -0.2945  0.0857 -0.1356
 7510SOL    HW122895   1.349   3.509   4.712  0.9879  1.6736 -1.8039
 7510SOL    HW222896   1.224   3.538   4.793  0.9602 -2.2598 -0.2221
 7511SOL     OW22897   0.608   0.995   2.827 -0.0093  0.1996  0.0925
 7511SOL    HW122898   0.563   1.050   2.764  0.8420  1.2514  0.3769
 7511SOL    HW222899   0.538   0.960   2.882 -0.6836 -0.1236 -0.9415
 7512SOL     OW22900   1.139   0.915   2.995  0.1819  0.4628  0.1080
 7512SOL    HW122901   1.048   0.904   2.968 -0.0547  2.1304  0.1458
 7512SOL    HW222902   1.134   0.958   3.080  0.9872 -2.0191  1.5274
 7513SOL     OW22903   4.137   2.190   2.590  0.1942  0.1697 -0.2081
 7513SOL    HW122904   4.135   2.095   2.587  1.5986  0.0481  1.2395
 7513SOL    HW222905   4.171   2.217   2.505  2.0909 -0.7773  0.2094
 7514SOL     OW22906   4.186   2.436   4.256  0.6935 -0.1040  0.3656
 7514SOL    HW122907   4.114   2.376   4.275  1.8367 -1.7948 -0.4118
 7514SOL    HW222908   4.229   2.450   4.340  1.0804 -1.3096  0.3911
 7515SOL     OW22909   3.443   3.175   3.777 -0.1177 -0.5701 -0.7179
 7515SOL    HW122910   3.465   3.267   3.791 -2.4422 -0.1807  0.8016
 7515SOL    HW222911   3.419   3.169   3.684  1.0862  0.0805 -1.0912
 7516SOL     OW22912   5.996   4.158   6.703  0.1894  0.6560  0.4005
 7516SOL    HW122913   6.057   4.096   6.744  0.5273  0.4207 -0.4375
 7516SOL    HW222914   5.976   4.119   6.618 -1.1317  0.7344  0.6605
 7517SOL     OW22915   5.499   0.903   2.574 -0.0881 -0.3127  0.4063
 7517SOL    HW122916   5.436   0.950   2.627 -0.6289  0.4692 -0.8711
 7517SOL    HW222917   5.445   0.847   2.517  0.4614 -1.0269  0.5776
 7518SOL     OW22918   3.624   6.010   0.165 -0.4587 -0.0648  0.3833
 7518SOL    HW122919   3.612   5.984   0.074  1.1426  0.1216  0.0835
 7518SOL    HW222920   3.537   6.004   0.204 -0.9543 -1.3347 -0.8429
 7519SOL     OW22921   0.795   2.574   1.872 -0.0916 -0.2822 -0.6381
 7519SOL    HW122922   0.795   2.483   1.844  0.9417 -0.2306 -0.8485
 7519SOL    HW222923   0.852   2.576   1.949 -0.5221  0.0965 -0.3225
 7520SOL     OW22924   4.482   3.823   1.497 -0.0900 -0.2869  0.3831
 7520SOL    HW122925   4.464   3.915   1.479 -1.5663 -0.4587  0.8707
 7520SOL    HW222926   4.565   3.823   1.545  0.7001  0.6532 -0.9232
 7521SOL     OW22927   5.166   5.455   1.892 -0.6292 -0.1270  0.0201
 7521SOL    HW122928   5.084   5.502   1.908 -0.6965 -1.1812  3.6469
 7521SOL    HW222929   5.145   5.393   1.822 -2.7809  0.0635  0.4305
 7522SOL     OW22930   0.800   1.510   0.055 -0.2194 -0.3033  0.6766
 7522SOL    HW122931   0.845   1.445   0.001  2.2224  0.5707  1.5212
 7522SOL    HW222932   0.759   1.459   0.125 -0.2078 -1.0813  0.1401
 7523SOL     OW22933   1.342   0.931   2.769 -0.0668  0.1076  0.5558
 7523SOL    HW122934   1.301   0.883   2.841 -1.3762 -0.0433 -0.2456
 7523SOL    HW222935   1.425   0.962   2.804 -0.8867  0.4565  2.2998
 7524SOL     OW22936   0.725   0.401   5.042  0.0421  0.6638  0.0460
 7524SOL    HW122937   0.764   0.434   4.961  0.4748 -1.2077 -0.5541
 7524SOL    HW222938   0.788   0.424   5.111  0.3462  1.0237 -0.3505
 7525SOL     OW22939   0.769   3.339   4.370  0.1757  0.2358  0.4021
 7525SOL    HW122940   0.753   3.301   4.457  0.4019  0.0325  0.3526
 7525SOL    HW222941   0.821   3.418   4.388  0.6995 -0.1084  0.4045
 7526SOL     OW22942   1.876   3.055   0.801 -0.0661  0.1220 -0.1301
 7526SOL    HW122943   1.967   3.071   0.773  0.7975 -2.2641  1.0695
 7526SOL    HW222944   1.845   3.141   0.829  2.0515  0.8989  0.0687
 7527SOL     OW22945   0.628   4.813   1.093  0.3020  0.7864  0.1810
 7527SOL    HW122946   0.616   4.776   1.180 -1.4785 -0.7509 -0.6629
 7527SOL    HW222947   0.542   4.849   1.069 -0.4524 -2.3011 -2.4297
 7528SOL     OW22948   5.901   0.681   0.950 -0.3686 -0.1379  0.1431
 7528SOL    HW122949   5.912   0.608   1.011 -1.4009  0.2119  0.7667
 7528SOL    HW222950   5.976   0.738   0.967 -0.7497  0.0550  1.2268
 7529SOL     OW22951   2.061   2.938   0.493 -0.1770 -0.5762  0.0590
 7529SOL    HW122952   2.076   2.977   0.579 -0.6153 -0.8750  0.2791
 7529SOL    HW222953   2.148   2.927   0.455 -0.0060 -0.1067  0.3174
 7530SOL     OW22954   3.833   0.819   4.779  0.9782  0.2080 -0.2576
 7530SOL    HW122955   3.864   0.759   4.710  1.7271 -0.6214  0.7683
 7530SOL    HW222956   3.822   0.763   4.856 -1.3392  0.8293 -0.0582
 7531SOL     OW22957   4.931   3.946   4.965 -0.3367  0.1839  0.1176
 7531SOL    HW122958   4.997   3.895   5.011  0.1636  1.7002  1.1122
 7531SOL    HW222959   4.895   3.884   4.900  2.5834 -0.4737 -1.0408
 7532SOL     OW22960   1.937   4.398   3.244 -0.7096  0.3145 -0.7508
 7532SOL    HW122961   1.882   4.330   3.203 -0.5709 -0.2357 -0.0340
 7532SOL    HW222962   1.955   4.460   3.173 -0.1542 -0.8263 -1.6382
 7533SOL     OW22963   2.772   5.285   5.407  0.7383 -0.0761  0.0136
 7533SOL    HW122964   2.827   5.210   5.385  2.2248  0.9599  0.0147
 7533SOL    HW222965   2.833   5.358   5.415 -0.1125  0.4629  3.5683
 7534SOL     OW22966   5.713   4.221   4.643  0.0866 -0.5592  0.5630
 7534SOL    HW122967   5.780   4.239   4.709  0.2269 -1.2521  0.6123
 7534SOL    HW222968   5.632   4.217   4.692  0.0123  0.1935  0.5156
 7535SOL     OW22969   0.609   6.025   5.876  0.2201  0.4511 -0.6610
 7535SOL    HW122970   0.647   6.086   5.940  0.5640 -0.2055 -0.2237
 7535SOL    HW222971   0.683   5.993   5.826  0.4937 -1.7837  1.0092
 7536SOL     OW22972   5.838   4.455   3.218  0.0772 -0.0313  0.0047
 7536SOL    HW122973   5.773   4.445   3.149 -1.2201  0.5644  1.0898
 7536SOL    HW222974   5.799   4.412   3.294  2.0602 -1.8836  0.0622
 7537SOL     OW22975   0.248   4.357   6.784 -0.2700  0.0670 -0.6956
 7537SOL    HW122976   0.185   4.351   6.712 -1.4182  3.9157 -0.2184
 7537SOL    HW222977   0.194   4.364   6.862  0.8619  0.1188  0.1076
 7538SOL     OW22978   2.820   2.213   0.969 -0.3198  0.0419  0.0535
 7538SOL    HW122979   2.848   2.123   0.950  1.0162  0.1290  1.3558
 7538SOL    HW222980   2.725   2.210   0.965 -0.3250 -1.5994  0.6701
 7539SOL     OW22981   5.640   2.406   4.961  0.0888 -0.0394  0.2898
 7539SOL    HW122982   5.638   2.333   4.900  0.6769 -0.6125  0.9458
 7539SOL    HW222983   5.569   2.389   5.022  0.6284 -0.4079  0.8244
 7540SOL     OW22984   5.049   3.192   0.179  0.4460  0.0307  0.2066
 7540SOL    HW122985   4.981   3.256   0.160  2.0633  3.1100  3.5919
 7540SOL    HW222986   5.003   3.121   0.224 -0.8991  0.6532 -0.1269
 7541SOL     OW22987   5.467   5.618   1.346  0.4668 -0.7558 -0.3339
 7541SOL    HW122988   5.460   5.633   1.440  0.9805  0.2832 -0.4482
 7541SOL    HW222989   5.526   5.687   1.315 -2.5967  1.3469 -2.0016
 7542SOL     OW22990   0.277   6.219   5.990  0.2243 -0.1797 -0.3323
 7542SOL    HW122991   0.354   6.243   6.041  0.1532 -2.4315  0.9940
 7542SOL    HW222992   0.309   6.210   5.901  1.1409  0.4834 -0.0859
 7543SOL     OW22993   5.028   4.991   0.606 -0.1510 -0.0055 -0.5480
 7543SOL    HW122994   4.964   4.921   0.616  0.4561 -0.2816  2.6663
 7543SOL    HW222995   5.041   4.999   0.512 -1.0884 -3.4191 -1.1090
 7544SOL     OW22996   3.836   4.385   5.351 -0.3743  0.3702 -0.3287
 7544SOL    HW122997   3.811   4.391   5.443 -3.2114 -0.0603 -0.9867
 7544SOL    HW222998   3.836   4.291   5.333  1.7138  0.3457 -0.4511
 7545SOL     OW22999   5.941   3.291   5.719 -0.2079  0.3497  0.1259
 7545SOL    HW123000   5.983   3.285   5.633 -0.5572 -0.2039 -0.0058
 7545SOL    HW223001   5.997   3.352   5.768  1.9691 -1.8274  0.6175
 7546SOL     OW23002   1.283   1.107   1.427  0.4057  0.2415 -0.5706
 7546SOL    HW123003   1.364   1.056   1.437  0.6376  0.9171  1.6737
 7546SOL    HW223004   1.314   1.195   1.405  0.2456  0.3058 -0.5350
 7547SOL     OW23005   6.630   6.692   4.374 -0.0139 -0.0348  0.1855
 7547SOL    HW123006   6.584   6.645   4.444 -1.2115  1.6928  0.6250
 7547SOL    HW223007   6.601   6.649   4.293  0.1973 -1.0643  0.6383
 7548SOL     OW23008   1.842   4.461   4.778  0.1338  0.0756  0.0412
 7548SOL    HW123009   1.755   4.465   4.818  0.3801 -0.8914  0.7144
 7548SOL    HW223010   1.900   4.433   4.850  1.0459  0.9355 -0.3308
 7549SOL     OW23011   0.737   5.067   5.382  0.2245  0.1035 -0.3564
 7549SOL    HW123012   0.713   5.159   5.387  0.6653  0.3388 -1.8954
 7549SOL    HW223013   0.827   5.068   5.349  0.1759 -0.8723 -0.5435
 7550SOL     OW23014   2.255   4.165   5.274  0.3147  0.4792 -0.2604
 7550SOL    HW123015   2.315   4.160   5.200 -0.2554 -0.1694 -0.6866
 7550SOL    HW223016   2.211   4.080   5.276 -1.2519  1.2378 -0.5299
 7551SOL     OW23017   2.441   1.422   0.003 -0.3329  0.4382 -0.5530
 7551SOL    HW123018   2.472   1.481   0.071  0.5774 -0.4741 -0.1624
 7551SOL    HW223019   2.419   1.341   0.049 -0.7362  0.1731 -1.1994
 7552SOL     OW23020   5.217   2.254   0.699 -0.0623  0.3584 -0.2647
 7552SOL    HW123021   5.229   2.278   0.791  0.4365 -0.9578  0.0485
 7552SOL    HW223022   5.300   2.275   0.657 -0.0728  0.3746 -0.2773
 7553SOL     OW23023   1.511   1.762   3.096 -0.1884  0.3020 -0.0901
 7553SOL    HW123024   1.452   1.807   3.157  1.1439  1.0352  0.6828
 7553SOL    HW223025   1.584   1.732   3.150  0.5199  0.0582 -1.1521
 7554SOL     OW23026   3.691   3.125   5.286  0.1403 -0.0872 -0.3089
 7554SOL    HW123027   3.717   3.071   5.211  0.9625  0.0408 -0.1320
 7554SOL    HW223028   3.736   3.208   5.271  1.5593 -0.5588  1.0876
 7555SOL     OW23029   5.134   3.606   3.464 -0.4691  0.1176 -0.1585
 7555SOL    HW123030   5.099   3.676   3.519  0.1402 -0.2216  0.6954
 7555SOL    HW223031   5.154   3.535   3.526 -1.4324 -0.9634 -1.0415
 7556SOL     OW23032   6.390   6.563   0.666  0.3588 -0.3233 -0.2043
 7556SOL    HW123033   6.417   6.535   0.754  1.3273 -1.8557 -0.9477
 7556SOL    HW223034   6.471   6.586   0.622  0.0977 -1.3364 -1.2682
 7557SOL     OW23035   0.211   4.514   1.214  0.3710  0.0352 -0.4658
 7557SOL    HW123036   0.304   4.526   1.235 -0.3975  2.2949  2.2264
 7557SOL    HW223037   0.194   4.579   1.145  0.7488 -0.3851 -0.9690
 7558SOL     OW23038   4.830   2.678   5.684  0.8640 -0.1617 -0.2098
 7558SOL    HW123039   4.885   2.617   5.733  0.7368  0.3058  0.5356
 7558SOL    HW223040   4.762   2.705   5.746  0.5857  0.2974 -0.7012
 7559SOL     OW23041   6.213   5.175   0.812 -0.0442  0.3679 -0.7492
 7559SOL    HW123042   6.298   5.202   0.779 -0.5647 -0.3264 -2.8381
 7559SOL    HW223043   6.232   5.113   0.882  1.1514  0.4424 -0.9954
 7560SOL     OW23044   1.997   2.057   5.192  0.2758  0.6446  0.0272
 7560SOL    HW123045   2.088   2.030   5.201  0.2054 -0.0219 -1.0441
 7560SOL    HW223046   1.993   2.143   5.234  1.0126 -0.0181  1.5184
 7561SOL     OW23047   6.790   2.439   2.044 -0.4835  0.3556  0.0871
 7561SOL    HW123048   6.825   2.350   2.049 -0.5430  0.3230 -0.0943
 7561SOL    HW223049   6.765   2.451   1.953  1.8509  1.4638 -0.4789
 7562SOL     OW23050   2.902   3.154   0.268 -0.0546  0.3813 -0.3258
 7562SOL    HW123051   2.998   3.151   0.259  0.0247 -0.2008  0.6291
 7562SOL    HW223052   2.887   3.213   0.342 -0.4573  0.7103 -0.6630
 7563SOL     OW23053   6.572   4.970   6.778  0.1057  0.0188 -0.6172
 7563SOL    HW123054   6.640   4.931   6.831 -0.2936 -0.7189 -0.6316
 7563SOL    HW223055   6.617   5.002   6.700  0.3876 -0.7518 -0.7737
 7564SOL     OW23056   5.503   6.577   0.202  0.4612 -0.7549 -0.0307
 7564SOL    HW123057   5.452   6.496   0.203 -0.2656 -0.3121 -0.0827
 7564SOL    HW223058   5.440   6.645   0.177  0.9049 -0.0780  0.6143
 7565SOL     OW23059   2.529   6.328   5.661 -0.2403 -0.0676  0.3059
 7565SOL    HW123060   2.581   6.409   5.651 -1.0418  0.4446  0.2123
 7565SOL    HW223061   2.455   6.354   5.716 -0.8489 -0.5896 -0.2524
 7566SOL     OW23062   5.393   3.616   2.318  0.5369  0.9035  0.5829
 7566SOL    HW123063   5.409   3.663   2.400  2.2740  0.8105  0.3419
 7566SOL    HW223064   5.314   3.565   2.335  0.0684  1.9444  1.7177
 7567SOL     OW23065   1.862   3.718   4.877  0.0011  0.0057 -0.3519
 7567SOL    HW123066   1.809   3.794   4.903  0.0497 -0.2402  0.4763
 7567SOL    HW223067   1.799   3.646   4.871 -0.1091  0.1832 -1.5157
 7568SOL     OW23068   4.036   3.923   1.060  0.0411 -0.3010 -0.1741
 7568SOL    HW123069   3.996   3.934   1.147 -0.5929 -0.3160 -0.4589
 7568SOL    HW223070   4.131   3.925   1.077 -0.0752 -0.1886  0.5024
 7569SOL     OW23071   1.816   1.883   2.842 -0.0734 -0.3421 -0.5891
 7569SOL    HW123072   1.731   1.927   2.847  0.6225  1.1137 -0.8451
 7569SOL    HW223073   1.820   1.849   2.753  0.0723  0.6143 -0.9615
 7570SOL     OW23074   4.556   4.069   6.309 -0.0284  0.3014 -0.4522
 7570SOL    HW123075   4.500   4.103   6.239 -0.5368  2.5097  0.9313
 7570SOL    HW223076   4.640   4.111   6.296 -0.5123  1.8313  0.9748
 7571SOL     OW23077   2.023   2.748   2.346 -0.0483 -0.2320  0.2408
 7571SOL    HW123078   1.933   2.780   2.339  0.1226 -0.0556 -2.0399
 7571SOL    HW223079   2.031   2.683   2.276  2.3039  1.7124 -1.5017
 7572SOL     OW23080   1.536   5.067   6.213  0.4477 -0.2040  0.1896
 7572SOL    HW123081   1.479   5.008   6.164  0.7280 -0.1505 -0.1993
 7572SOL    HW223082   1.597   5.102   6.148 -0.8498  1.9386  0.0574
 7573SOL     OW23083   3.380   0.937   5.568 -0.4889 -0.0362  0.6844
 7573SOL    HW123084   3.402   0.855   5.612 -0.4241 -0.9603 -0.9790
 7573SOL    HW223085   3.289   0.954   5.592 -0.1245  0.1082  2.0522
 7574SOL     OW23086   5.389   2.980   0.625  0.1561 -0.3410 -0.2407
 7574SOL    HW123087   5.330   2.907   0.644  1.2234 -1.8428 -2.3048
 7574SOL    HW223088   5.437   2.994   0.707  1.1279 -3.1458 -0.2211
 7575SOL     OW23089   2.157   5.580   4.250 -0.0588 -0.5213 -0.2050
 7575SOL    HW123090   2.118   5.647   4.194  0.7050 -0.1363 -0.2818
 7575SOL    HW223091   2.147   5.616   4.339  1.1935  0.1476 -0.3155
 7576SOL     OW23092   1.537   2.312   4.404 -0.3571  0.1845 -0.1160
 7576SOL    HW123093   1.583   2.228   4.417  2.9224  2.0252  1.3870
 7576SOL    HW223094   1.490   2.301   4.322  1.8480 -2.3821 -1.1973
 7577SOL     OW23095   4.321   4.520   5.594  0.0343 -0.0935 -0.4569
 7577SOL    HW123096   4.374   4.557   5.665 -0.6574  0.5727 -0.2793
 7577SOL    HW223097   4.244   4.576   5.589  0.6486  0.6479 -2.6075
 7578SOL     OW23098   3.379   6.707   2.713  0.1302 -0.0125 -0.0599
 7578SOL    HW123099   3.466   6.672   2.732  0.5313 -0.9388 -3.0970
 7578SOL    HW223100   3.394   6.801   2.700  0.0150  0.4616  2.6207
 7579SOL     OW23101   3.508   2.775   3.906  0.1537  0.4814  0.2036
 7579SOL    HW123102   3.561   2.695   3.905  0.4319  0.6383 -1.5334
 7579SOL    HW223103   3.423   2.748   3.941  0.3386 -0.5013 -0.0809
 7580SOL     OW23104   5.911   0.538   5.488 -0.3814 -0.1621  0.2391
 7580SOL    HW123105   5.840   0.579   5.537  0.0963 -0.6621  1.3842
 7580SOL    HW223106   5.876   0.529   5.399 -1.3766  0.4956  0.5421
 7581SOL     OW23107   5.283   4.049   2.892 -0.1090 -0.3632 -0.0114
 7581SOL    HW123108   5.334   4.127   2.915  0.3306 -0.9349  1.0125
 7581SOL    HW223109   5.295   4.039   2.798 -1.0473  1.4142 -0.3654
 7582SOL     OW23110   1.498   4.035   4.899 -0.4283  0.3963  0.0924
 7582SOL    HW123111   1.451   4.026   4.982  1.0585  0.3490  0.9682
 7582SOL    HW223112   1.523   4.127   4.896 -0.9739  0.5341 -0.6122
 7583SOL     OW23113   5.182   3.798   0.885 -0.0620  0.6193 -0.0664
 7583SOL    HW123114   5.151   3.812   0.796  0.1039  0.9517 -0.0739
 7583SOL    HW223115   5.102   3.789   0.937 -0.1545 -0.2149 -0.3461
 7584SOL     OW23116   6.226   6.203   5.220 -0.1519  0.8154  0.3708
 7584SOL    HW123117   6.309   6.215   5.265 -0.2027 -0.0217  0.7183
 7584SOL    HW223118   6.246   6.218   5.127  0.8134 -1.1315  0.2148
 7585SOL     OW23119   0.683   4.695   4.714 -0.1987 -0.1964  0.0561
 7585SOL    HW123120   0.754   4.734   4.662  1.0727 -1.1862  1.0013
 7585SOL    HW223121   0.686   4.742   4.797  0.7792 -1.6668  0.8853
 7586SOL     OW23122   3.428   2.658   3.583 -1.3569 -0.0441  0.5132
 7586SOL    HW123123   3.483   2.610   3.646  0.4023  0.5199 -0.5133
 7586SOL    HW223124   3.481   2.734   3.558 -2.3372  0.1623 -1.0575
 7587SOL     OW23125   6.629   1.603   3.995 -0.5289  0.2037 -0.6312
 7587SOL    HW123126   6.557   1.573   3.941 -1.6197  1.4977  0.0369
 7587SOL    HW223127   6.593   1.678   4.044  1.2747  0.9333 -0.3350
 7588SOL     OW23128   0.504   5.120   1.007  0.3280 -0.4626 -0.3726
 7588SOL    HW123129   0.506   5.145   0.915 -0.6963 -1.0103 -0.5687
 7588SOL    HW223130   0.465   5.033   1.007  1.4057 -0.9690  0.4929
 7589SOL     OW23131   2.210   5.561   4.785 -0.1316  0.7122 -0.3107
 7589SOL    HW123132   2.228   5.613   4.864 -0.4187  0.0753  0.1784
 7589SOL    HW223133   2.233   5.472   4.809 -1.2855  0.3313 -0.5800
 7590SOL     OW23134   4.615   0.471   5.817 -0.0567 -0.1154 -0.2176
 7590SOL    HW123135   4.679   0.541   5.811  1.4925 -1.3310  1.0547
 7590SOL    HW223136   4.655   0.398   5.770  0.0796 -1.2591  1.5713
 7591SOL     OW23137   3.135   2.433   5.072 -0.3265  0.1429 -0.2698
 7591SOL    HW123138   3.094   2.518   5.059 -1.8707 -0.2246  1.7239
 7591SOL    HW223139   3.198   2.448   5.143  1.1334  0.1059 -1.5114
 7592SOL     OW23140   0.072   4.649   3.501  0.0517  0.1803  0.6982
 7592SOL    HW123141   0.113   4.651   3.587  1.0837 -0.7527  0.2687
 7592SOL    HW223142   0.076   4.739   3.469  0.6934  0.3204  1.1708
 7593SOL     OW23143   1.104   4.596   3.289 -1.0798  0.2148 -0.1754
 7593SOL    HW123144   1.051   4.575   3.366  0.1039  2.0186  1.2073
 7593SOL    HW223145   1.043   4.639   3.229 -1.4446  1.3720  0.9742
 7594SOL     OW23146   4.816   5.842   1.610 -1.0092  0.5117  0.7208
 7594SOL    HW123147   4.820   5.838   1.514 -0.3423  1.6778  0.6765
 7594SOL    HW223148   4.831   5.752   1.638  0.9023  0.4573 -0.2394
 7595SOL     OW23149   1.122   1.717   6.215  0.1934  0.0302  0.0023
 7595SOL    HW123150   1.108   1.690   6.306 -1.1494 -1.1649 -0.5107
 7595SOL    HW223151   1.121   1.812   6.218  0.0241  0.0066  1.2317
 7596SOL     OW23152   0.515   2.736   3.344 -0.0050 -0.5742  0.4598
 7596SOL    HW123153   0.536   2.701   3.431 -1.4739 -1.5892  0.4370
 7596SOL    HW223154   0.595   2.722   3.293  1.1682  0.8032  1.8312
 7597SOL     OW23155   5.557   3.761   5.606  0.0242 -0.0697  0.0575
 7597SOL    HW123156   5.540   3.667   5.595 -1.5928  0.2255 -0.2091
 7597SOL    HW223157   5.580   3.792   5.519 -3.0125  0.4011 -0.7071
 7598SOL     OW23158   6.334   5.920   2.589 -0.1287  0.4632 -0.4319
 7598SOL    HW123159   6.254   5.970   2.602 -0.7189 -0.6663  0.4287
 7598SOL    HW223160   6.356   5.932   2.497 -1.0104  1.1668 -0.5606
 7599SOL     OW23161   0.732   0.733   4.118  0.6944 -0.3690  0.1937
 7599SOL    HW123162   0.738   0.810   4.061  0.5327  0.7744  1.6632
 7599SOL    HW223163   0.817   0.728   4.162  0.7981 -1.2039 -0.0808
 7600SOL     OW23164   1.325   3.350   0.795 -0.2262 -0.5117 -0.3683
 7600SOL    HW123165   1.296   3.438   0.819 -0.0466 -0.9723  1.7839
 7600SOL    HW223166   1.264   3.322   0.726 -2.2964  0.1302  1.1053
 7601SOL     OW23167   3.204   6.649   5.062  0.3693  0.4019  0.5891
 7601SOL    HW123168   3.237   6.588   5.129  1.5047 -1.2069 -1.3318
 7601SOL    HW223169   3.282   6.696   5.033 -0.3423  2.1311  1.3255
 7602SOL     OW23170   4.739   2.903   5.429  0.0420 -0.6633 -0.3909
 7602SOL    HW123171   4.799   2.914   5.356  2.3768 -1.7120  1.2354
 7602SOL    HW223172   4.723   2.809   5.432 -0.4921 -0.5595  0.0973
 7603SOL     OW23173   4.166   1.227   0.822 -0.2848  0.7073 -0.1090
 7603SOL    HW123174   4.125   1.313   0.820  0.3518  1.0644  1.3823
 7603SOL    HW223175   4.248   1.238   0.774 -0.9185  0.4941 -1.3108
 7604SOL     OW23176   2.007   0.853   5.949 -0.4705 -0.3288  0.3790
 7604SOL    HW123177   1.986   0.939   5.912 -0.4285 -0.8174 -0.8529
 7604SOL    HW223178   2.062   0.812   5.882 -2.1542 -2.0882 -0.0072
 7605SOL     OW23179   0.738   2.985   5.543  0.2873 -0.2248  0.2259
 7605SOL    HW123180   0.826   2.967   5.575  0.4285 -0.3861 -0.2467
 7605SOL    HW223181   0.713   3.066   5.587  0.8128  0.0153  0.0880
 7606SOL     OW23182   4.563   2.629   6.172 -0.0829 -0.5925  0.1666
 7606SOL    HW123183   4.487   2.595   6.219 -0.1899 -1.2290 -0.4527
 7606SOL    HW223184   4.531   2.711   6.133 -0.2100 -0.4454  0.5693
 7607SOL     OW23185   4.916   4.857   1.097 -0.1566  0.3711  0.0198
 7607SOL    HW123186   4.989   4.834   1.039 -0.0063 -0.3371  0.4753
 7607SOL    HW223187   4.909   4.952   1.090  0.3800  0.3778 -0.5386
 7608SOL     OW23188   5.675   1.932   1.617  0.2504 -0.3166 -0.2173
 7608SOL    HW123189   5.688   1.924   1.522 -0.2349 -0.2892 -0.2874
 7608SOL    HW223190   5.588   1.895   1.632 -0.2324  0.9021  0.0340
 7609SOL     OW23191   1.515   3.768   6.655  0.6879 -0.3747  0.6773
 7609SOL    HW123192   1.583   3.834   6.639  0.7260 -0.1823  1.6007
 7609SOL    HW223193   1.433   3.816   6.649  0.6956 -0.3306  0.9390
 7610SOL     OW23194   0.497   6.542   6.109  0.1447  0.3829 -0.0145
 7610SOL    HW123195   0.440   6.502   6.044  0.1445  0.3105  0.0307
 7610SOL    HW223196   0.464   6.632   6.117 -0.6460  0.0266  0.8045
 7611SOL     OW23197   3.285   1.494   3.676 -0.1562 -0.0618  0.3875
 7611SOL    HW123198   3.372   1.463   3.701 -1.0941 -1.8493  1.7732
 7611SOL    HW223199   3.301   1.570   3.620  2.2514  0.5919  1.7944
 7612SOL     OW23200   2.183   3.852   6.194  0.5587  0.1005  0.2258
 7612SOL    HW123201   2.204   3.813   6.279  1.7226  1.0372  0.3969
 7612SOL    HW223202   2.185   3.779   6.133 -0.1193 -0.5571  0.9722
 7613SOL     OW23203   5.276   4.882   6.600 -0.1820  0.2329  0.3212
 7613SOL    HW123204   5.297   4.974   6.617  0.4129  0.0540  0.6000
 7613SOL    HW223205   5.206   4.861   6.663 -0.4363  0.5381  0.1405
 7614SOL     OW23206   3.407   5.727   4.884 -0.4051 -0.3150 -0.1071
 7614SOL    HW123207   3.402   5.729   4.788 -0.3444 -1.1030 -0.1286
 7614SOL    HW223208   3.442   5.640   4.905  1.5767  0.5659  0.5479
 7615SOL     OW23209   0.885   3.682   5.416 -0.2071 -0.0562  0.5468
 7615SOL    HW123210   0.925   3.681   5.503  0.0426 -0.0714  0.4355
 7615SOL    HW223211   0.831   3.761   5.415  0.7895  0.6477  0.2843
 7616SOL     OW23212   5.373   3.946   5.623 -0.3883 -0.4482  0.2001
 7616SOL    HW123213   5.439   3.879   5.642  0.6606  0.4639 -0.1434
 7616SOL    HW223214   5.310   3.938   5.695  0.4500 -0.8846  0.9097
 7617SOL     OW23215   3.728   0.143   2.670  0.4745 -0.4303  0.3648
 7617SOL    HW123216   3.784   0.183   2.603  1.6144 -1.9653  0.3497
 7617SOL    HW223217   3.734   0.203   2.745  1.4627 -0.1310  0.0613
 7618SOL     OW23218   4.694   4.256   5.347  0.0676  0.0901  0.3588
 7618SOL    HW123219   4.699   4.169   5.386  0.6826 -0.5487 -1.0925
 7618SOL    HW223220   4.763   4.257   5.281 -0.0591  1.6147  0.2103
 7619SOL     OW23221   3.147   5.316   5.240 -0.3020  0.5317  0.6334
 7619SOL    HW123222   3.182   5.298   5.152 -2.5433  1.5622 -0.5415
 7619SOL    HW223223   3.062   5.272   5.241 -0.5825  1.0621  2.0873
 7620SOL     OW23224   0.362   5.467   2.544  0.4035 -0.2714 -0.0182
 7620SOL    HW123225   0.399   5.391   2.499  0.7130 -0.4078  0.4614
 7620SOL    HW223226   0.269   5.464   2.523  0.0019 -2.0279  1.7060
 7621SOL     OW23227   5.011   0.972   0.529  0.2504  0.0359  0.2429
 7621SOL    HW123228   5.097   0.969   0.487  0.4690 -0.5263  0.7118
 7621SOL    HW223229   5.020   1.040   0.596 -0.3449  1.4987 -1.1162
 7622SOL     OW23230   5.088   5.256   1.730  0.2697 -0.3877  0.3252
 7622SOL    HW123231   5.139   5.207   1.667 -0.4002 -0.6894  0.0006
 7622SOL    HW223232   5.012   5.288   1.680  0.6107  0.8499  0.5653
 7623SOL     OW23233   1.873   1.852   4.983  0.0397  0.2287  0.6124
 7623SOL    HW123234   1.795   1.907   4.971  0.1126  0.3454  0.6709
 7623SOL    HW223235   1.901   1.870   5.073  0.6828  0.9048  0.2941
 7624SOL     OW23236   5.802   1.177   4.865  0.0897  0.5330  0.2536
 7624SOL    HW123237   5.844   1.092   4.873  0.0268  0.4263 -0.5550
 7624SOL    HW223238   5.820   1.220   4.949  1.8880  0.5241 -0.0902
 7625SOL     OW23239   0.314   1.614   3.727  0.3974 -0.1582 -0.3198
 7625SOL    HW123240   0.351   1.644   3.810 -0.3168  0.5180 -0.2293
 7625SOL    HW223241   0.363   1.661   3.660 -0.6259  1.1837 -0.1826
 7626SOL     OW23242   0.818   3.490   1.242  0.7015 -0.3269 -0.3536
 7626SOL    HW123243   0.896   3.458   1.287  0.6703  0.1149  0.0219
 7626SOL    HW223244   0.813   3.583   1.266 -0.0471 -0.3973 -0.2225
 7627SOL     OW23245   6.699   4.281   2.656  0.3924 -0.1934 -0.1249
 7627SOL    HW123246   6.729   4.210   2.600  1.3482  0.0060  0.1061
 7627SOL    HW223247   6.763   4.283   2.728  0.6869  1.2274 -0.3996
 7628SOL     OW23248   4.092   3.096   5.495  0.1232 -0.4806  0.1925
 7628SOL    HW123249   4.094   3.018   5.439  0.3184 -0.2968 -0.0579
 7628SOL    HW223250   4.054   3.164   5.440  3.1610  0.5488 -0.8354
 7629SOL     OW23251   5.376   1.226   5.121  0.0246 -0.2815 -0.5079
 7629SOL    HW123252   5.396   1.158   5.057 -0.2651 -1.0868  0.2313
 7629SOL    HW223253   5.320   1.182   5.186 -0.2295  0.6824 -0.0537
 7630SOL     OW23254   0.278   0.670   5.489  0.2805  0.7020  0.0225
 7630SOL    HW123255   0.208   0.656   5.554  0.1138  0.9721 -0.0969
 7630SOL    HW223256   0.292   0.764   5.489  0.9368  0.6064  0.3407
 7631SOL     OW23257   6.594   5.403   1.367 -0.0556  0.1108 -0.2306
 7631SOL    HW123258   6.684   5.435   1.375  0.4779 -1.5113  1.0059
 7631SOL    HW223259   6.540   5.474   1.401  0.8339  0.7963 -0.2155
 7632SOL     OW23260   5.398   3.873   0.505  0.1791 -0.4546  0.0434
 7632SOL    HW123261   5.312   3.912   0.491  0.0245 -0.4533  0.9490
 7632SOL    HW223262   5.456   3.947   0.520  0.1415 -0.4986  0.4253
 7633SOL     OW23263   4.125   1.095   1.341 -0.1750 -0.0152  0.3886
 7633SOL    HW123264   4.120   1.097   1.436 -2.0969  0.0508  0.3168
 7633SOL    HW223265   4.208   1.139   1.320 -0.7347  1.9007  1.9325
 7634SOL     OW23266   3.189   5.648   2.608 -0.2238  0.3421 -0.5539
 7634SOL    HW123267   3.106   5.619   2.570  0.1611 -2.6017  0.5839
 7634SOL    HW223268   3.255   5.624   2.543 -0.0483  0.4146 -0.4039
 7635SOL     OW23269   2.480   5.745   3.153  0.2950 -0.0859  0.1979
 7635SOL    HW123270   2.488   5.822   3.096 -1.1912  0.2569  0.4313
 7635SOL    HW223271   2.475   5.671   3.092 -0.9931  0.2558 -0.1304
 7636SOL     OW23272   2.110   3.805   0.131 -0.3043 -0.1971  0.3968
 7636SOL    HW123273   2.159   3.865   0.187  1.7329  0.1538 -1.6403
 7636SOL    HW223274   2.137   3.827   0.042 -3.7474 -0.4136 -0.8677
 7637SOL     OW23275   6.092   5.272   0.094  0.1667 -0.2518 -0.3554
 7637SOL    HW123276   6.116   5.180   0.102 -1.7402 -0.6859  1.0142
 7637SOL    HW223277   6.124   5.312   0.175  0.8553  0.2738 -0.8785
 7638SOL     OW23278   0.354   0.732   4.289  0.0601  0.2788  0.1093
 7638SOL    HW123279   0.288   0.723   4.220 -0.9949 -1.2284  1.2475
 7638SOL    HW223280   0.339   0.820   4.324 -0.4782  0.4464 -0.5131
 7639SOL     OW23281   2.300   4.559   1.612  0.1672  0.3125 -0.5246
 7639SOL    HW123282   2.391   4.585   1.597  0.4171 -0.7067 -0.8531
 7639SOL    HW223283   2.254   4.590   1.535  0.4022  0.0767 -0.7638
 7640SOL     OW23284   6.582   4.970   3.973  0.5335 -0.2898  0.2906
 7640SOL    HW123285   6.577   4.890   3.921  0.3748 -0.7642  1.0320
 7640SOL    HW223286   6.512   4.962   4.037 -0.9291  1.4489 -0.9941
 7641SOL     OW23287   6.484   4.914   1.137 -0.2500 -0.2362  0.3755
 7641SOL    HW123288   6.503   4.840   1.079 -2.0419 -1.0812  0.8256
 7641SOL    HW223289   6.410   4.959   1.096  0.3462  0.8971  0.4978
 7642SOL     OW23290   0.685   5.092   4.276  0.2892 -0.0321 -0.0963
 7642SOL    HW123291   0.721   5.135   4.198  2.1317 -1.2666  0.0115
 7642SOL    HW223292   0.717   5.002   4.271  0.7425 -0.0638  2.2516
 7643SOL     OW23293   6.456   4.980   2.392 -0.2390 -0.4635  0.0722
 7643SOL    HW123294   6.550   4.962   2.393  0.3850  2.3295 -0.7230
 7643SOL    HW223295   6.450   5.075   2.400 -3.0676 -0.6474  1.0537
 7644SOL     OW23296   6.049   4.702   5.192 -0.0241  0.4771 -0.3070
 7644SOL    HW123297   5.970   4.688   5.244  0.4186 -0.2049  0.1999
 7644SOL    HW223298   6.118   4.658   5.241  0.8162  1.6710 -0.3857
 7645SOL     OW23299   4.102   6.784   0.056 -0.1158  0.1133 -0.2525
 7645SOL    HW123300   4.096   6.822  -0.032  0.8668  0.7687 -0.0513
 7645SOL    HW223301   4.181   6.729   0.052 -0.6024 -0.6180 -0.0516
 7646SOL     OW23302   4.781   4.889   6.737 -0.0512 -0.9170 -0.5006
 7646SOL    HW123303   4.706   4.842   6.700 -0.6306 -2.2640  2.0753
 7646SOL    HW223304   4.761   4.894   6.831  2.4608 -0.0751  0.0559
 7647SOL     OW23305   1.879   3.840   1.170  0.3491 -0.6068 -0.0646
 7647SOL    HW123306   1.900   3.761   1.221  0.2079 -1.2579 -0.9818
 7647SOL    HW223307   1.901   3.816   1.080 -0.2408  0.2068 -0.4346
 7648SOL     OW23308   4.617   3.505   5.765  0.4761 -0.6952 -0.2607
 7648SOL    HW123309   4.695   3.506   5.820  0.9923  0.6301 -0.9471
 7648SOL    HW223310   4.545   3.481   5.823  1.1925 -0.5241  0.7080
 7649SOL     OW23311   2.556   3.224   6.585 -0.1288  0.0820 -0.1842
 7649SOL    HW123312   2.621   3.230   6.654 -0.3359 -0.8909  0.1181
 7649SOL    HW223313   2.487   3.284   6.611 -0.1071 -0.1171  0.3482
 7650SOL     OW23314   5.869   2.893   3.494 -0.1377  0.1228  0.5653
 7650SOL    HW123315   5.795   2.909   3.435  1.0487  1.4918 -0.6271
 7650SOL    HW223316   5.843   2.934   3.577 -0.4183  1.2705 -0.0736
 7651SOL     OW23317   4.521   4.926   1.794 -0.0191 -0.2141  0.5433
 7651SOL    HW123318   4.432   4.960   1.788 -0.4329 -1.1589  0.9901
 7651SOL    HW223319   4.577   5.002   1.784 -0.8333  0.2196 -1.2281
 7652SOL     OW23320   0.290   3.506   4.827 -0.1059 -0.6593  0.1618
 7652SOL    HW123321   0.276   3.475   4.738  2.1993 -0.1402 -0.4566
 7652SOL    HW223322   0.300   3.427   4.880  0.7124 -0.9902 -0.4703
 7653SOL     OW23323   1.498   6.384   1.332  0.0236  0.4902 -0.0812
 7653SOL    HW123324   1.456   6.378   1.418  1.4230  0.2633  0.6009
 7653SOL    HW223325   1.569   6.321   1.335  0.6238  1.0869 -1.1154
 7654SOL     OW23326   2.163   2.783   0.240  0.2396  0.0544  0.5716
 7654SOL    HW123327   2.097   2.713   0.246 -0.6038  0.7759 -0.1016
 7654SOL    HW223328   2.231   2.757   0.302 -1.0684 -0.3059  1.9037
 7655SOL     OW23329   0.766   2.516   6.139  0.3592 -0.0094 -0.4184
 7655SOL    HW123330   0.773   2.430   6.098  1.1915  0.5314 -1.4492
 7655SOL    HW223331   0.775   2.498   6.233  1.6020 -0.9447 -0.6879
 7656SOL     OW23332   6.074   4.448   2.439  0.5557  0.2788  0.3713
 7656SOL    HW123333   6.033   4.529   2.406  0.0621 -0.9223 -2.2665
 7656SOL    HW223334   6.017   4.378   2.406  0.4171 -1.1942  3.4018
 7657SOL     OW23335   0.324   1.855   1.027  0.1886 -0.4488  0.1622
 7657SOL    HW123336   0.282   1.776   0.992  1.0532 -0.2244 -1.5027
 7657SOL    HW223337   0.255   1.922   1.024 -0.3569 -0.9629  0.9510
 7658SOL     OW23338   5.343   0.326   0.183  0.0366  0.4700 -0.6715
 7658SOL    HW123339   5.395   0.368   0.252 -1.0613  0.1149  0.4067
 7658SOL    HW223340   5.319   0.397   0.124 -1.1452  1.2557  0.7001
 7659SOL     OW23341   1.417   0.962   4.235  0.0625 -0.0455 -0.2173
 7659SOL    HW123342   1.448   0.964   4.144  1.8432  1.5402  0.3521
 7659SOL    HW223343   1.374   1.047   4.247 -0.1232 -0.2268  0.4321
 7660SOL     OW23344   2.586   4.907   3.955 -0.1130  0.3672  0.6843
 7660SOL    HW123345   2.661   4.915   3.897 -1.7061 -1.0287 -1.7832
 7660SOL    HW223346   2.547   4.994   3.958 -0.0220  0.4541 -0.4256
 7661SOL     OW23347   0.774   4.422   1.251  0.1401 -0.0900 -0.1260
 7661SOL    HW123348   0.769   4.343   1.198 -1.6924  0.6060 -1.0593
 7661SOL    HW223349   0.842   4.474   1.210 -0.7268  0.1069 -1.3583
 7662SOL     OW23350   5.570   5.552   3.151  0.3970  0.0418  0.0999
 7662SOL    HW123351   5.593   5.600   3.231  1.5927  2.2468 -1.4404
 7662SOL    HW223352   5.654   5.521   3.117 -0.2935 -2.8547  0.7574
 7663SOL     OW23353   0.944   0.795   1.019 -0.6593  0.2472  0.3734
 7663SOL    HW123354   0.863   0.807   0.970 -0.1963  0.6134 -0.3030
 7663SOL    HW223355   0.962   0.880   1.058 -0.9647 -0.0120  1.0980
 7664SOL     OW23356   1.566   3.255   0.680  0.1829  0.4174  0.3010
 7664SOL    HW123357   1.494   3.298   0.727  0.5140  1.0811  0.2067
 7664SOL    HW223358   1.636   3.320   0.678  0.7571 -0.1940  0.3105
 7665SOL     OW23359   0.351   0.466   5.813  0.4820  0.0718 -0.0387
 7665SOL    HW123360   0.349   0.529   5.885 -0.7055  0.4540 -0.3855
 7665SOL    HW223361   0.424   0.495   5.757  0.3324  0.7737  0.1258
 7666SOL     OW23362   3.346   6.461   3.575  0.5172 -0.9146 -0.0548
 7666SOL    HW123363   3.312   6.398   3.639  1.7781 -2.1685 -0.5634
 7666SOL    HW223364   3.291   6.450   3.498  0.5918 -1.2374 -0.0624
 7667SOL     OW23365   1.905   3.316   4.255 -0.1625 -0.4988  0.6510
 7667SOL    HW123366   1.991   3.323   4.296 -0.6327 -0.6184  1.6800
 7667SOL    HW223367   1.848   3.372   4.308 -0.4167  0.7971 -0.9172
 7668SOL     OW23368   5.053   2.397   4.549  0.1145 -0.2784  0.0084
 7668SOL    HW123369   5.061   2.488   4.520  0.4548 -0.4255 -0.3705
 7668SOL    HW223370   5.143   2.365   4.551  0.0492 -0.4223  0.7504
 7669SOL     OW23371   3.949   2.703   1.735 -0.0417  0.0528 -0.0141
 7669SOL    HW123372   3.898   2.781   1.757 -0.1539  0.4040 -1.4145
 7669SOL    HW223373   4.026   2.708   1.791 -0.3323  0.8527  0.3312
 7670SOL     OW23374   0.483   5.859   3.130  0.1021 -0.0516 -0.1434
 7670SOL    HW123375   0.462   5.945   3.166 -0.2152 -0.1306 -0.1333
 7670SOL    HW223376   0.528   5.878   3.047 -0.9293  0.1264 -0.6794
 7671SOL     OW23377   1.874   5.918   6.547 -0.5393  0.1085 -0.7430
 7671SOL    HW123378   1.956   5.947   6.507 -0.2306 -0.4883 -0.5669
 7671SOL    HW223379   1.897   5.835   6.590 -1.3802 -0.3982 -1.2356
 7672SOL     OW23380   1.233   5.044   0.991  0.0513  0.0262 -0.9844
 7672SOL    HW123381   1.144   5.041   1.028  0.2969  0.6064 -0.3354
 7672SOL    HW223382   1.275   4.964   1.022 -0.4200 -0.5531 -1.7820
 7673SOL     OW23383   4.865   4.041   5.425 -0.0351 -0.3270 -0.5433
 7673SOL    HW123384   4.929   4.097   5.470 -0.6945 -0.0567  0.0757
 7673SOL    HW223385   4.881   4.057   5.332  1.1921 -0.7178 -0.4120
 7674SOL     OW23386   4.784   5.280   3.412  0.0260  0.1129 -0.4376
 7674SOL    HW123387   4.777   5.202   3.468 -2.0041 -0.0373 -0.8186
 7674SOL    HW223388   4.693   5.308   3.398  0.5988  1.3907 -1.9457
 7675SOL     OW23389   0.493   2.322   6.286 -0.4287 -0.5026  0.1657
 7675SOL    HW123390   0.585   2.323   6.314 -0.2560  1.4074 -0.3838
 7675SOL    HW223391   0.483   2.237   6.243  1.8177  0.2041 -1.9913
 7676SOL     OW23392   3.896   1.289   2.402  0.5333  0.3064 -0.2857
 7676SOL    HW123393   3.891   1.273   2.308  0.4356 -2.5278  0.1137
 7676SOL    HW223394   3.984   1.322   2.417  0.2523  1.7092 -1.4187
 7677SOL     OW23395   4.937   5.752   3.012  0.8185  0.2479  0.6271
 7677SOL    HW123396   4.876   5.709   3.073  1.4174 -2.5532 -0.6302
 7677SOL    HW223397   4.908   5.843   3.011 -1.9418 -0.5050  1.7785
 7678SOL     OW23398   1.981   1.941   1.569 -0.0412  0.2025  0.7586
 7678SOL    HW123399   1.933   1.884   1.629 -0.3187  0.3354  0.6644
 7678SOL    HW223400   1.913   1.986   1.519  0.1415 -2.1468 -1.8347
 7679SOL     OW23401   0.984   3.614   1.786  0.0821 -0.4988  0.0167
 7679SOL    HW123402   0.951   3.595   1.874 -0.1770 -1.8150 -0.3367
 7679SOL    HW223403   1.035   3.694   1.796 -0.2837 -0.4007  1.2829
 7680SOL     OW23404   3.349   5.806   6.398  0.0858 -0.2608 -0.4173
 7680SOL    HW123405   3.332   5.853   6.317 -0.9065  0.5499  0.2386
 7680SOL    HW223406   3.355   5.714   6.372  1.2032  0.1107 -1.5920
 7681SOL     OW23407   0.493   1.779   3.181 -0.0584  0.1100 -0.0153
 7681SOL    HW123408   0.505   1.769   3.087 -2.8413  1.4612 -0.6028
 7681SOL    HW223409   0.507   1.873   3.198  2.6768 -0.4351  1.3971
 7682SOL     OW23410   2.806   4.998   0.060  0.1974 -0.2793 -0.2117
 7682SOL    HW123411   2.854   4.986  -0.022  0.4610  0.2381 -0.1398
 7682SOL    HW223412   2.728   5.046   0.035 -0.1269 -0.8330 -0.2785
 7683SOL     OW23413   6.569   1.260   3.833  0.0284  0.1526  0.1146
 7683SOL    HW123414   6.541   1.182   3.882  3.2196 -1.5019 -0.3753
 7683SOL    HW223415   6.634   1.301   3.890 -0.0174  1.1961 -0.5731
 7684SOL     OW23416   6.607   0.344   1.266  0.0473 -0.6466 -0.7071
 7684SOL    HW123417   6.632   0.435   1.250 -0.7712 -0.3968 -0.6517
 7684SOL    HW223418   6.657   0.293   1.202 -0.6044 -0.0061 -1.7614
 7685SOL     OW23419   6.390   0.455   5.406  0.2358 -0.5858 -0.1606
 7685SOL    HW123420   6.369   0.390   5.472 -0.5963  1.0683  1.2710
 7685SOL    HW223421   6.485   0.461   5.407  0.2147  1.5030  3.1204
 7686SOL     OW23422   1.260   2.854   4.952  0.4481  0.2095  0.0276
 7686SOL    HW123423   1.181   2.898   4.983  0.1605 -0.5084  0.3399
 7686SOL    HW223424   1.325   2.871   5.021  0.4200  0.3638  0.0176
 7687SOL     OW23425   0.988   0.788   4.212 -0.6085 -0.3577 -0.3859
 7687SOL    HW123426   1.057   0.810   4.150 -2.0433  0.4617 -1.7711
 7687SOL    HW223427   1.019   0.708   4.255  1.1073 -0.0924 -1.0560
 7688SOL     OW23428   2.507   2.243   4.533  0.5081 -0.5681  0.2069
 7688SOL    HW123429   2.425   2.282   4.505  0.0340 -0.9099  1.0915
 7688SOL    HW223430   2.484   2.156   4.565  1.1808 -0.6059  0.6214
 7689SOL     OW23431   5.045   4.851   4.757 -0.1757 -0.4002  0.0289
 7689SOL    HW123432   4.991   4.812   4.826 -0.4032 -1.8481 -0.9325
 7689SOL    HW223433   5.009   4.939   4.745 -0.0148 -0.0431  1.8577
 7690SOL     OW23434   2.339   0.618   5.109 -0.6287 -0.1433 -0.0055
 7690SOL    HW123435   2.407   0.678   5.138  0.4697 -1.2539 -0.2010
 7690SOL    HW223436   2.371   0.582   5.027 -1.6917 -0.3193 -0.3683
 7691SOL     OW23437   5.996   4.775   1.830  0.2848 -0.0587 -0.2681
 7691SOL    HW123438   5.929   4.707   1.842  1.4479 -0.9993  1.4260
 7691SOL    HW223439   6.048   4.772   1.911 -0.2775  3.6850  0.4111
 7692SOL     OW23440   2.035   5.814   4.819 -0.1652 -0.1347  0.2566
 7692SOL    HW123441   2.055   5.721   4.808 -1.8415 -0.5380  0.3284
 7692SOL    HW223442   2.035   5.849   4.729  0.7205 -0.1371  0.2515
 7693SOL     OW23443   4.791   0.854   0.431 -0.0506  0.0042 -0.2296
 7693SOL    HW123444   4.745   0.869   0.514 -1.9001  2.5925 -1.5526
 7693SOL    HW223445   4.879   0.891   0.445 -0.2423  0.1389  0.6753
 7694SOL     OW23446   1.894   0.352   5.439  0.1808 -0.6214  0.7428
 7694SOL    HW123447   1.816   0.297   5.434  0.9868 -1.7547  0.3343
 7694SOL    HW223448   1.913   0.375   5.348  1.4545 -2.0008  0.6314
 7695SOL     OW23449   6.448   2.288   1.413 -0.1131  0.3023  0.1348
 7695SOL    HW123450   6.540   2.276   1.436  0.5339  2.2574 -1.1961
 7695SOL    HW223451   6.442   2.258   1.322 -0.4513  1.4883 -0.2494
 7696SOL     OW23452   3.552   0.424   1.777  0.0554 -0.2422  0.2809
 7696SOL    HW123453   3.534   0.354   1.839  1.2844  0.9557  2.0844
 7696SOL    HW223454   3.590   0.380   1.701 -0.1520 -1.6098  0.9465
 7697SOL     OW23455   1.868   0.985   0.875 -0.2902  0.1412  0.5571
 7697SOL    HW123456   1.935   1.053   0.873 -1.6528  1.5892  1.6258
 7697SOL    HW223457   1.788   1.030   0.903 -1.4378 -1.7548  0.5493
 7698SOL     OW23458   5.333   1.571   3.220  0.5064  0.6481 -0.1001
 7698SOL    HW123459   5.321   1.536   3.132 -1.2872  0.5932  0.1261
 7698SOL    HW223460   5.342   1.494   3.277 -0.4400  0.6136  0.0161
 7699SOL     OW23461   1.896   5.837   1.614  0.0425 -0.1437  0.2898
 7699SOL    HW123462   1.874   5.829   1.706 -0.9640  1.4918  0.2433
 7699SOL    HW223463   1.991   5.834   1.611  0.1053  0.2828  1.4561
 7700SOL     OW23464   2.802   4.495   1.194  0.8849 -0.3400  0.1042
 7700SOL    HW123465   2.874   4.533   1.144 -1.6738  1.6209 -2.4682
 7700SOL    HW223466   2.784   4.412   1.151  2.0932 -1.2958  1.3481
 7701SOL     OW23467   2.571   6.639   3.940 -0.3767  0.4364 -0.0372
 7701SOL    HW123468   2.533   6.586   4.011 -1.3555 -1.2562 -1.7345
 7701SOL    HW223469   2.511   6.712   3.930 -2.2344 -1.1777 -1.3819
 7702SOL     OW23470   4.770   2.015   1.889 -0.1877  0.0222  0.3431
 7702SOL    HW123471   4.839   2.023   1.824 -1.2023  1.2720 -0.6268
 7702SOL    HW223472   4.741   1.924   1.883 -2.3977  0.7893 -3.2754
 7703SOL     OW23473   6.350   5.260   2.026  0.2208  0.2675 -0.2174
 7703SOL    HW123474   6.439   5.275   1.996 -0.0683  0.3783 -1.0455
 7703SOL    HW223475   6.295   5.297   1.957 -0.5014 -2.0879 -0.9952
 7704SOL     OW23476   0.237   4.289   6.477 -0.2641 -0.5497  0.4593
 7704SOL    HW123477   0.160   4.236   6.498  0.0862 -1.3534 -0.2291
 7704SOL    HW223478   0.203   4.378   6.468 -1.2456 -1.0051 -0.5555
 7705SOL     OW23479   0.412   0.506   2.392 -0.2704 -0.2158  0.2590
 7705SOL    HW123480   0.336   0.561   2.375 -0.7215 -0.0618  2.4665
 7705SOL    HW223481   0.454   0.546   2.468  0.6997 -1.6201  0.5029
 7706SOL     OW23482   4.127   0.974   2.660  0.0742 -0.4082 -0.4166
 7706SOL    HW123483   4.045   0.927   2.673 -0.8629  0.8833 -1.4190
 7706SOL    HW223484   4.107   1.064   2.683  0.6687  0.2816 -2.3475
 7707SOL     OW23485   1.417   5.244   3.763 -0.3051 -0.5253 -0.0900
 7707SOL    HW123486   1.406   5.334   3.796 -0.1993 -0.1121 -1.1282
 7707SOL    HW223487   1.336   5.226   3.716  0.1707 -0.4782 -0.9605
 7708SOL     OW23488   1.555   5.768   2.825 -0.2769 -0.4976  0.0066
 7708SOL    HW123489   1.487   5.749   2.889  0.2603 -0.3443  0.6416
 7708SOL    HW223490   1.628   5.711   2.851 -0.8554 -2.2378 -1.9124
 7709SOL     OW23491   4.186   5.680   1.090 -0.2541 -0.3840  0.1415
 7709SOL    HW123492   4.222   5.763   1.058  0.1868 -0.6741 -0.1238
 7709SOL    HW223493   4.257   5.640   1.140  0.3146 -1.5951 -1.5211
 7710SOL     OW23494   2.108   4.986   4.907  0.0422 -0.1933  0.3112
 7710SOL    HW123495   2.163   4.954   4.978 -0.7942 -0.9292  0.6528
 7710SOL    HW223496   2.162   4.977   4.828  0.3201 -1.1520  0.6008
 7711SOL     OW23497   4.762   3.749   2.813 -0.1683 -0.3190  0.2879
 7711SOL    HW123498   4.704   3.822   2.787 -0.0462 -1.0054 -2.2474
 7711SOL    HW223499   4.843   3.766   2.765 -0.1480 -2.0776 -0.3570
 7712SOL     OW23500   6.621   3.261   3.632  0.2914 -0.3560  0.1724
 7712SOL    HW123501   6.593   3.351   3.649  0.1074 -0.3886  0.0446
 7712SOL    HW223502   6.542   3.217   3.599  0.8542 -0.0462 -1.7228
 7713SOL     OW23503   2.719   3.335   4.686 -0.2715  0.0937 -0.0374
 7713SOL    HW123504   2.802   3.322   4.640 -0.0949 -0.1260  0.3396
 7713SOL    HW223505   2.694   3.425   4.665  0.2989  0.3173  0.2137
 7714SOL     OW23506   1.329   2.077   2.970  0.0866  0.5635 -0.1806
 7714SOL    HW123507   1.271   2.071   2.894 -0.0842  1.5280 -0.1458
 7714SOL    HW223508   1.360   2.168   2.968  1.1591  0.2178  0.1225
 7715SOL     OW23509   2.639   0.709   4.509  0.6403  0.2625  0.5235
 7715SOL    HW123510   2.595   0.668   4.583  0.8035 -1.0570 -0.0844
 7715SOL    HW223511   2.585   0.685   4.433  0.2784  1.8879  0.2403
 7716SOL     OW23512   4.936   3.660   0.210 -0.0562 -0.2386  0.2221
 7716SOL    HW123513   4.895   3.739   0.245 -0.5386 -0.6221  0.5341
 7716SOL    HW223514   4.968   3.613   0.287 -0.5913 -0.7912  0.1220
 7717SOL     OW23515   2.109   6.070   6.746 -0.5170  0.6043  0.1107
 7717SOL    HW123516   2.054   6.042   6.672  0.0017  1.2183 -0.5182
 7717SOL    HW223517   2.176   6.002   6.753  0.5138  1.4641 -1.1667
 7718SOL     OW23518   3.274   0.907   3.014 -0.2781 -0.2410 -1.0504
 7718SOL    HW123519   3.220   0.830   2.998 -0.2968 -0.1640 -1.3576
 7718SOL    HW223520   3.211   0.979   3.025 -0.2197  0.0020 -2.2238
 7719SOL     OW23521   0.085   1.726   3.216  0.0129  0.4261 -0.2209
 7719SOL    HW123522   0.116   1.809   3.252 -0.2217 -0.4101  2.1185
 7719SOL    HW223523  -0.007   1.722   3.244 -0.2596 -0.1865 -1.1764
 7720SOL     OW23524   4.153   3.537   5.267  0.4676  0.0478  0.2922
 7720SOL    HW123525   4.111   3.522   5.182  0.8117  0.7318 -0.0081
 7720SOL    HW223526   4.246   3.523   5.250  0.5504  0.3062  0.5249
 7721SOL     OW23527   1.149   6.189   4.990  0.7177 -0.5122 -0.6549
 7721SOL    HW123528   1.180   6.181   4.900 -0.0019  0.4194 -0.9976
 7721SOL    HW223529   1.131   6.099   5.017 -0.0632 -0.7220 -1.8088
 7722SOL     OW23530   2.177   1.152   3.166 -0.5478 -0.1711  0.0029
 7722SOL    HW123531   2.243   1.100   3.212 -1.6710 -2.3153 -0.6759
 7722SOL    HW223532   2.106   1.162   3.229 -0.2207  0.8212  0.2245
 7723SOL     OW23533   0.355   1.985   5.788  0.0086 -0.0789  0.1895
 7723SOL    HW123534   0.364   2.047   5.716 -2.1127  1.2141  0.9254
 7723SOL    HW223535   0.379   1.900   5.750  0.6281  0.8236 -1.5387
 7724SOL     OW23536   0.111   5.954   2.341  0.0200  0.5641  0.3144
 7724SOL    HW123537   0.133   6.033   2.292  1.9273 -0.0425  0.0860
 7724SOL    HW223538   0.074   5.895   2.276  0.0483  0.7176  0.1595
 7725SOL     OW23539   0.743   0.978   3.215  0.2025 -0.1690 -0.7654
 7725SOL    HW123540   0.821   0.974   3.270  0.4159  1.6179 -0.8640
 7725SOL    HW223541   0.777   0.997   3.127 -0.3284  1.1618 -0.7123
 7726SOL     OW23542   6.481   4.666   4.395  0.6891 -0.2801  0.0550
 7726SOL    HW123543   6.483   4.666   4.299 -1.4310 -0.1431 -0.0455
 7726SOL    HW223544   6.534   4.742   4.420  2.7217 -1.3173 -0.9053
 7727SOL     OW23545   3.351   5.324   0.478 -0.3323 -0.6693  0.2351
 7727SOL    HW123546   3.342   5.234   0.445  1.2987 -0.6934 -0.2651
 7727SOL    HW223547   3.299   5.325   0.558  0.4308 -2.3904  0.8160
 7728SOL     OW23548   1.642   6.059   3.683  0.0133  0.4263 -0.1625
 7728SOL    HW123549   1.599   5.999   3.623  1.1921  0.3008 -0.9038
 7728SOL    HW223550   1.709   6.103   3.630  0.6446  0.7840  0.8956
 7729SOL     OW23551   3.192   2.608   5.673 -0.0391 -0.3640  0.0276
 7729SOL    HW123552   3.146   2.634   5.753  0.9450  1.6118  0.0096
 7729SOL    HW223553   3.178   2.682   5.613  1.5823 -0.5475 -0.6148
 7730SOL     OW23554   5.529   4.597   1.254  0.1734 -0.0707 -0.7968
 7730SOL    HW123555   5.486   4.571   1.336  1.0369 -2.8335 -1.1362
 7730SOL    HW223556   5.614   4.631   1.282  0.1699 -0.2929 -0.5050
 7731SOL     OW23557   1.223   2.916   3.197 -0.3595 -0.1711  0.4672
 7731SOL    HW123558   1.310   2.946   3.225 -0.7958  2.0326 -0.3582
 7731SOL    HW223559   1.240   2.839   3.143  0.9348 -0.7855  1.6961
 7732SOL     OW23560   1.276   1.741   0.440 -0.0507 -0.1284  0.6501
 7732SOL    HW123561   1.291   1.740   0.346  1.5353  2.3906  0.7737
 7732SOL    HW223562   1.324   1.664   0.472  0.9316 -0.0132 -0.4505
 7733SOL     OW23563   0.626   1.612   1.065  0.2410 -0.3988  0.5094
 7733SOL    HW123564   0.574   1.532   1.072 -2.3116  1.0247 -0.9366
 7733SOL    HW223565   0.645   1.620   0.972 -1.0674  1.5188  0.3487
 7734SOL     OW23566   6.048   5.419   5.430 -0.1282  0.3289 -0.0841
 7734SOL    HW123567   6.021   5.505   5.461  1.0840  1.6065 -2.3259
 7734SOL    HW223568   6.143   5.418   5.443 -0.3455 -1.5493  1.8357
 7735SOL     OW23569   1.783   4.926   1.175  0.0690 -0.0898  0.1582
 7735SOL    HW123570   1.736   4.846   1.196  0.3318 -0.4594 -0.6376
 7735SOL    HW223571   1.855   4.929   1.238  0.5594 -0.9291 -0.3541
 7736SOL     OW23572   4.970   1.525   5.917 -0.3494 -0.2896  0.5179
 7736SOL    HW123573   4.986   1.576   5.997  0.9099  0.6039 -0.2756
 7736SOL    HW223574   4.984   1.434   5.944 -1.4627 -0.1497  1.6682
 7737SOL     OW23575   2.257   5.885   1.406 -0.8588  0.0820  0.0278
 7737SOL    HW123576   2.285   5.814   1.349  1.5793  1.1813 -0.2647
 7737SOL    HW223577   2.220   5.950   1.345  2.3720  1.5597 -0.5841
 7738SOL     OW23578   3.879   3.412   2.760  0.4119  0.1367  0.0375
 7738SOL    HW123579   3.806   3.358   2.731  1.4457 -0.6595 -1.1857
 7738SOL    HW223580   3.856   3.437   2.850 -1.5144  0.2275 -0.4408
 7739SOL     OW23581   2.479   6.599   1.999  0.3208  0.1658  0.1543
 7739SOL    HW123582   2.574   6.609   1.988  0.3609 -1.8211 -2.1158
 7739SOL    HW223583   2.441   6.651   1.928 -0.2055 -0.4328 -0.0077
 7740SOL     OW23584   3.755   6.114   4.086  0.0023 -0.3551  0.1199
 7740SOL    HW123585   3.730   6.139   4.175 -0.9879 -0.4224 -0.1276
 7740SOL    HW223586   3.758   6.019   4.088 -2.2227 -0.4929 -0.4466
 7741SOL     OW23587   6.461   2.652   4.924 -0.3507 -0.3103 -0.8947
 7741SOL    HW123588   6.457   2.607   5.008  0.0926  1.8490  0.3820
 7741SOL    HW223589   6.387   2.619   4.875 -0.2304 -2.1320  0.0557
 7742SOL     OW23590   2.028   6.322   3.718 -0.1976  0.0502 -0.0595
 7742SOL    HW123591   1.947   6.365   3.694 -0.4254  0.3111  1.1546
 7742SOL    HW223592   2.001   6.248   3.772  0.2022 -1.4756 -1.8308
 7743SOL     OW23593   4.606   0.431   0.802  0.0191  0.2970 -0.3554
 7743SOL    HW123594   4.547   0.375   0.752  1.7653 -0.2271 -1.9431
 7743SOL    HW223595   4.577   0.520   0.783 -2.0452  0.0427  1.2557
 7744SOL     OW23596   5.472   6.384   1.642  0.4992  0.4430  0.2023
 7744SOL    HW123597   5.437   6.298   1.664  2.5284 -0.9199 -1.5031
 7744SOL    HW223598   5.459   6.392   1.547  2.4616  0.9240 -0.0677
 7745SOL     OW23599   3.564   2.190   5.226  0.1292 -0.0679 -0.3901
 7745SOL    HW123600   3.549   2.220   5.136  1.7048 -0.8668 -0.9460
 7745SOL    HW223601   3.646   2.141   5.222  0.4555  0.2437  1.5735
 7746SOL     OW23602   0.730   6.114   0.248  1.0479  0.4699  0.4877
 7746SOL    HW123603   0.739   6.050   0.318  0.9567  0.6061  0.6228
 7746SOL    HW223604   0.740   6.199   0.290 -0.2420  0.6161  0.5552
 7747SOL     OW23605   2.214   4.129   3.055  0.3011  0.2053 -0.2923
 7747SOL    HW123606   2.204   4.034   3.048 -0.8273  0.2493  0.4677
 7747SOL    HW223607   2.253   4.155   2.972 -1.5998 -0.6540 -1.5366
 7748SOL     OW23608   5.453   4.982   5.474 -0.0583 -0.4879  0.0902
 7748SOL    HW123609   5.433   4.907   5.531 -1.6381 -0.4627 -0.3988
 7748SOL    HW223610   5.546   5.001   5.492 -0.3995 -0.6802  2.4092
 7749SOL     OW23611   6.082   6.302   2.669 -0.1126 -0.7123  0.0370
 7749SOL    HW123612   6.005   6.352   2.642 -0.2832 -1.7198 -1.4789
 7749SOL    HW223613   6.060   6.211   2.648  0.9650 -1.1960  0.8711
 7750SOL     OW23614   5.785   4.571   1.840  0.3040 -0.0596 -0.0282
 7750SOL    HW123615   5.785   4.571   1.744  0.8003  0.8736 -0.0375
 7750SOL    HW223616   5.708   4.519   1.864 -0.2290  0.2869 -0.9376
 7751SOL     OW23617   1.931   4.820   1.661  0.0597  0.5507  0.5789
 7751SOL    HW123618   1.878   4.847   1.736 -0.3821 -0.4744  0.6498
 7751SOL    HW223619   2.020   4.813   1.696 -0.4065 -1.6222  1.4954
 7752SOL     OW23620   5.973   4.506   2.684 -0.2553 -0.2414  0.8993
 7752SOL    HW123621   6.033   4.475   2.752  1.2338  1.5416  0.4620
 7752SOL    HW223622   6.024   4.505   2.604 -1.1352  0.3021  0.3147
 7753SOL     OW23623   0.555   4.234   2.485 -0.1220 -0.4263  0.4511
 7753SOL    HW123624   0.519   4.282   2.410 -1.7298 -1.6762  0.3732
 7753SOL    HW223625   0.604   4.162   2.447  0.3099 -0.2123  0.5954
 7754SOL     OW23626   3.241   2.936   4.671  0.2067 -0.1507  0.2401
 7754SOL    HW123627   3.178   3.001   4.702 -0.1533  1.7049 -3.7603
 7754SOL    HW223628   3.326   2.973   4.694 -0.0595  0.9352 -0.4066
 7755SOL     OW23629   5.107   3.571   6.273 -0.2173 -0.5519  0.2188
 7755SOL    HW123630   5.134   3.506   6.209  1.6464 -0.6631  1.0464
 7755SOL    HW223631   5.045   3.525   6.330 -2.0079 -0.4059 -1.5046
 7756SOL     OW23632   6.423   3.460   6.038  0.0850 -0.2652  0.4979
 7756SOL    HW123633   6.509   3.422   6.049 -1.2047 -3.4235  0.6834
 7756SOL    HW223634   6.363   3.386   6.043 -2.5959  1.6639 -0.5728
 7757SOL     OW23635   6.472   1.460   0.547  1.0547 -0.6811  0.1115
 7757SOL    HW123636   6.559   1.468   0.509  1.1040 -0.5525  0.2522
 7757SOL    HW223637   6.453   1.546   0.584 -0.3172  0.2107 -2.4172
 7758SOL     OW23638   4.763   4.154   5.758 -0.1657  0.7282  0.0517
 7758SOL    HW123639   4.679   4.157   5.804 -0.5999  0.1231 -0.6678
 7758SOL    HW223640   4.808   4.079   5.797  0.2214  1.2973  0.7193
 7759SOL     OW23641   2.786   4.761   4.102 -0.3505  0.0483  0.8025
 7759SOL    HW123642   2.726   4.819   4.056 -0.7239 -0.6610  0.3746
 7759SOL    HW223643   2.730   4.700   4.149  0.0345  0.0011  1.2031
 7760SOL     OW23644   5.841   2.773   6.176 -0.2940  0.1622 -0.4961
 7760SOL    HW123645   5.757   2.817   6.190  0.0093  0.0834  1.9516
 7760SOL    HW223646   5.896   2.839   6.134 -0.9495  0.9244 -0.1782
 7761SOL     OW23647   5.073   4.529   3.637  0.0578  1.0179  0.3869
 7761SOL    HW123648   5.054   4.442   3.672  0.8787  0.2160 -1.0522
 7761SOL    HW223649   4.987   4.568   3.620 -0.3117  0.5280  1.0880
 7762SOL     OW23650   5.853   3.057   5.659 -0.3991  0.3883 -0.0009
 7762SOL    HW123651   5.850   3.074   5.564  0.6536 -0.7121 -0.2478
 7762SOL    HW223652   5.857   3.144   5.698 -0.7820  0.8606 -0.9679
 7763SOL     OW23653   1.732   1.391   0.698 -0.2029 -0.2655 -0.2388
 7763SOL    HW123654   1.719   1.303   0.662  1.8440 -0.7754  0.1386
 7763SOL    HW223655   1.652   1.438   0.675 -1.0456 -2.0077 -1.0838
 7764SOL     OW23656   5.227   0.145   6.615  0.0475 -0.2268 -0.3887
 7764SOL    HW123657   5.287   0.113   6.548 -0.1657  0.0734 -0.7279
 7764SOL    HW223658   5.258   0.232   6.637 -0.2479 -0.0788 -0.5483
 7765SOL     OW23659   3.543   5.977   0.901 -0.0644  0.0135  0.0574
 7765SOL    HW123660   3.601   6.012   0.968 -0.2977  0.9256 -0.1962
 7765SOL    HW223661   3.526   6.051   0.843 -0.8515 -0.4393 -0.3107
 7766SOL     OW23662   5.741   4.841   4.675  0.2047  0.5220  0.6988
 7766SOL    HW123663   5.742   4.748   4.698 -2.4437  0.6986  1.8878
 7766SOL    HW223664   5.699   4.844   4.589 -0.7710  0.6545  1.1626
 7767SOL     OW23665   4.862   4.105   3.657  0.9449  0.5278 -0.0326
 7767SOL    HW123666   4.800   4.178   3.666  1.4470  1.2166 -1.7553
 7767SOL    HW223667   4.819   4.032   3.702 -1.0888  1.0165 -1.0510
 7768SOL     OW23668   4.106   4.309   4.163 -0.6018 -0.0356  0.8390
 7768SOL    HW123669   4.157   4.361   4.224 -1.3040  2.0044 -0.2188
 7768SOL    HW223670   4.167   4.291   4.091 -0.3076 -0.8771  1.2829
 7769SOL     OW23671   5.807   1.979   2.699 -0.1642  0.3166 -0.3953
 7769SOL    HW123672   5.773   2.048   2.642 -0.1490  0.6357 -0.0219
 7769SOL    HW223673   5.764   1.899   2.668  0.3611  0.3698 -1.3014
 7770SOL     OW23674   3.042   0.079   3.725  0.3838  0.0184 -0.0039
 7770SOL    HW123675   3.064   0.151   3.785  0.1285  0.4103 -0.3739
 7770SOL    HW223676   3.072   0.110   3.639  3.5648 -1.7538  0.3173
 7771SOL     OW23677   6.034   1.896   2.437  0.3765  0.3804 -0.3248
 7771SOL    HW123678   6.073   1.863   2.356  0.5921 -0.6745  0.2005
 7771SOL    HW223679   6.106   1.942   2.481  0.5775 -0.0894 -0.1621
 7772SOL     OW23680   5.727   3.749   3.514  0.2311 -0.1897  0.2506
 7772SOL    HW123681   5.658   3.773   3.575 -1.7701 -1.7195 -1.2832
 7772SOL    HW223682   5.726   3.653   3.514  1.9620 -0.2503 -0.3107
 7773SOL     OW23683   5.101   5.401   0.024  0.1553 -0.2841 -0.7102
 7773SOL    HW123684   5.052   5.434   0.099  0.5841  0.2589 -0.6619
 7773SOL    HW223685   5.135   5.317   0.052 -1.6293 -1.1815 -1.1129
 7774SOL     OW23686   3.310   0.089   4.949 -0.0269  0.2643  0.0901
 7774SOL    HW123687   3.373   0.079   5.021  0.1219 -2.7529 -0.3441
 7774SOL    HW223688   3.237   0.137   4.989  1.2656  1.2702  1.3989
 7775SOL     OW23689   5.874   5.680   5.324  0.3640  0.4306  0.4816
 7775SOL    HW123690   5.852   5.588   5.308  0.0214  0.7293 -0.8709
 7775SOL    HW223691   5.945   5.699   5.263 -0.0687  1.2665  0.2263
 7776SOL     OW23692   2.263   3.645   4.831  0.2717 -0.7352 -0.0136
 7776SOL    HW123693   2.318   3.679   4.761 -0.5623  0.7365 -0.0118
 7776SOL    HW223694   2.313   3.573   4.869  1.9450  0.2013 -0.3378
 7777SOL     OW23695   2.238   3.685   1.850  0.4767  1.3325 -0.0799
 7777SOL    HW123696   2.152   3.651   1.830  0.3016  1.9417 -0.3806
 7777SOL    HW223697   2.232   3.779   1.831  0.8862  1.5702  0.9167
 7778SOL     OW23698   6.020   1.470   4.308 -0.3418  0.3747 -0.1399
 7778SOL    HW123699   6.038   1.381   4.337  1.4551  0.5979 -0.4564
 7778SOL    HW223700   6.058   1.526   4.376  1.2933  0.8783 -1.3853
 7779SOL     OW23701   3.429   6.773   0.600  0.6649 -0.5751 -0.2061
 7779SOL    HW123702   3.341   6.775   0.564  0.2931 -0.8821  0.6424
 7779SOL    HW223703   3.432   6.849   0.659  0.9172 -0.6520 -0.1198
 7780SOL     OW23704   5.622   2.460   1.571  0.3647 -0.2978  0.0522
 7780SOL    HW123705   5.682   2.535   1.578  0.5986 -0.3634 -1.0043
 7780SOL    HW223706   5.666   2.400   1.511 -0.7645 -0.3390 -0.7628
 7781SOL     OW23707   0.585   1.761   5.229  0.7163 -0.0818  0.0605
 7781SOL    HW123708   0.564   1.730   5.140  0.6293 -0.3712  0.1805
 7781SOL    HW223709   0.680   1.774   5.228  0.8779 -1.1823  0.2621
 7782SOL     OW23710   3.928   5.232   4.287  0.4555 -0.3721 -0.1236
 7782SOL    HW123711   4.020   5.259   4.278  0.5337 -1.0054 -1.6835
 7782SOL    HW223712   3.907   5.193   4.202 -1.2603 -0.2702  0.2265
 7783SOL     OW23713   0.667   0.648   3.760  0.3963  0.3281 -0.0160
 7783SOL    HW123714   0.699   0.620   3.674 -1.5240 -1.0585 -0.3298
 7783SOL    HW223715   0.620   0.729   3.742 -1.3938 -0.7946 -0.5991
 7784SOL     OW23716   6.674   5.310   0.284  0.2519  0.1055 -0.5647
 7784SOL    HW123717   6.642   5.349   0.366  0.2112  1.8535 -1.3550
 7784SOL    HW223718   6.679   5.217   0.302 -2.3927  0.0950  0.5734
 7785SOL     OW23719   2.134   2.208   2.280 -0.1606  0.9715 -0.0314
 7785SOL    HW123720   2.119   2.136   2.342 -0.3079  2.0381  1.2242
 7785SOL    HW223721   2.105   2.286   2.328 -2.3512  1.6143 -2.2324
 7786SOL     OW23722   5.367   4.537   0.591 -0.0210  0.2968 -0.0694
 7786SOL    HW123723   5.320   4.561   0.671  1.7543 -1.2797  1.5644
 7786SOL    HW223724   5.399   4.619   0.556 -1.0537  1.0546  0.7002
 7787SOL     OW23725   4.516   2.156   1.598 -0.5089 -0.1470  0.1726
 7787SOL    HW123726   4.586   2.091   1.602  0.8276  1.2896  1.3328
 7787SOL    HW223727   4.527   2.198   1.513  0.5462  0.5633  0.6360
 7788SOL     OW23728   6.568   1.608   2.117  0.2861  0.2336 -0.4233
 7788SOL    HW123729   6.518   1.527   2.127 -0.6879  0.9237  0.7249
 7788SOL    HW223730   6.639   1.600   2.181 -1.4401  1.3857  1.8196
 7789SOL     OW23731   5.359   1.555   0.680  0.4904  0.2856  0.1758
 7789SOL    HW123732   5.294   1.486   0.671 -1.6461  1.9594  1.7114
 7789SOL    HW223733   5.419   1.523   0.747  1.4760 -1.3558 -1.3820
 7790SOL     OW23734   2.906   4.603   3.532  0.2799 -0.0484  0.3802
 7790SOL    HW123735   2.853   4.683   3.539  0.8672  0.3423  0.3574
 7790SOL    HW223736   2.966   4.607   3.606  0.0633 -0.6571  0.5952
 7791SOL     OW23737   4.518   5.891   1.048  0.3994  0.3781 -0.2489
 7791SOL    HW123738   4.513   5.878   0.953 -1.1431 -0.9884 -0.0272
 7791SOL    HW223739   4.602   5.854   1.073 -0.7920 -2.9403 -0.6415
 7792SOL     OW23740   5.951   0.579   2.698  0.1272 -0.0363 -0.1040
 7792SOL    HW123741   5.939   0.543   2.786 -0.4473 -0.4132 -0.3238
 7792SOL    HW223742   5.976   0.503   2.645 -1.1767 -0.1594 -0.5918
 7793SOL     OW23743   1.161   6.712   2.425 -0.3115  0.0602 -0.3789
 7793SOL    HW123744   1.232   6.648   2.416 -1.8874 -2.0734  1.2795
 7793SOL    HW223745   1.163   6.762   2.343  2.9154 -0.0353 -0.4664
 7794SOL     OW23746   3.991   4.622   1.362  0.1977  0.0133  0.0933
 7794SOL    HW123747   4.030   4.597   1.279 -0.8335 -2.0202  0.1463
 7794SOL    HW223748   3.902   4.650   1.339  0.2465  0.4509  0.4153
 7795SOL     OW23749   6.767   1.981   0.997 -0.0675  0.7026 -0.0031
 7795SOL    HW123750   6.781   1.906   0.939 -0.8458  0.7291 -0.2422
 7795SOL    HW223751   6.687   1.960   1.044 -1.4005  2.1923 -1.4571
 7796SOL     OW23752   5.482   4.347   2.638  0.7193  0.7347  0.0344
 7796SOL    HW123753   5.537   4.419   2.669 -0.5185  1.7504 -0.0510
 7796SOL    HW223754   5.432   4.385   2.566 -0.0288 -0.1868  0.0621
 7797SOL     OW23755   2.105   5.718   6.386 -0.1524  0.0812  0.1486
 7797SOL    HW123756   2.063   5.750   6.307  0.5994  1.4270  0.2685
 7797SOL    HW223757   2.049   5.646   6.416 -1.4223  0.7307 -0.5979
 7798SOL     OW23758   2.122   6.378   0.498  0.5288 -0.0836  0.2691
 7798SOL    HW123759   2.199   6.320   0.497  1.1234  0.6711 -1.0228
 7798SOL    HW223760   2.144   6.445   0.563  1.1653  0.3500 -0.3716
 7799SOL     OW23761   4.695   1.411   3.481 -0.0932 -0.3410  0.0161
 7799SOL    HW123762   4.644   1.464   3.420  1.7124  1.7996  0.2095
 7799SOL    HW223763   4.739   1.347   3.426  1.4513  1.5067 -1.0206
 7800SOL     OW23764   1.470   5.789   5.510  0.2244 -0.0803  0.2039
 7800SOL    HW123765   1.534   5.718   5.498 -0.6216 -1.0191  0.9910
 7800SOL    HW223766   1.417   5.786   5.431  0.7118  0.2341 -0.1381
 7801SOL     OW23767   3.661   0.936   2.388 -0.2182 -0.2786 -0.1691
 7801SOL    HW123768   3.595   0.928   2.320  0.6608  0.6890 -1.1852
 7801SOL    HW223769   3.629   1.005   2.445 -0.4736 -0.3774 -0.1948
 7802SOL     OW23770   2.978   6.243   4.099 -0.1780  0.1425 -0.2730
 7802SOL    HW123771   3.010   6.265   4.186 -0.5245 -1.0876  0.1842
 7802SOL    HW223772   2.931   6.160   4.110 -2.1971  1.0821 -1.1796
 7803SOL     OW23773   6.520   5.603   6.422 -0.4968 -0.2878 -0.3245
 7803SOL    HW123774   6.588   5.542   6.450  0.7140  1.0919 -0.1875
 7803SOL    HW223775   6.511   5.587   6.328  1.1620  0.5811 -0.6640
 7804SOL     OW23776   5.459   2.248   2.089 -0.3014 -0.0283 -0.0561
 7804SOL    HW123777   5.536   2.294   2.122 -0.2077 -0.1781 -0.0624
 7804SOL    HW223778   5.459   2.263   1.995 -0.0012 -0.4397 -0.1226
 7805SOL     OW23779   2.780   1.641   4.582 -0.2383 -0.0261  0.4114
 7805SOL    HW123780   2.875   1.656   4.583  0.1002 -1.8540 -0.1472
 7805SOL    HW223781   2.747   1.691   4.656  1.3400 -0.2604  1.3188
 7806SOL     OW23782   0.973   0.015   6.522 -0.2286  0.6392  1.0278
 7806SOL    HW123783   0.971  -0.077   6.549 -2.8333  0.3767  0.2240
 7806SOL    HW223784   0.933   0.062   6.595 -2.2969  0.6002  0.0034
 7807SOL     OW23785   3.540   4.187   2.083  0.2412 -0.1298  0.3624
 7807SOL    HW123786   3.573   4.152   2.000  2.1508  1.9967  0.1049
 7807SOL    HW223787   3.507   4.274   2.061 -0.0671  0.1129  1.6874
 7808SOL     OW23788   4.135   0.255   2.829  0.2179  0.1646 -0.1411
 7808SOL    HW123789   4.110   0.328   2.773 -3.6283 -1.0051 -0.2299
 7808SOL    HW223790   4.136   0.291   2.917 -1.9602  0.3671 -0.1444
 7809SOL     OW23791   5.892   4.306   4.210 -0.1646  0.6262 -0.1406
 7809SOL    HW123792   5.861   4.335   4.124 -1.3478 -0.9870 -0.2895
 7809SOL    HW223793   5.814   4.303   4.264 -0.8016 -4.7702 -0.8573
 7810SOL     OW23794   1.911   4.504   5.578  0.2292  0.3853 -0.6763
 7810SOL    HW123795   1.962   4.425   5.559 -1.0115 -0.1324 -2.1304
 7810SOL    HW223796   1.971   4.561   5.626  0.7694 -1.9499  1.6520
 7811SOL     OW23797   1.697   1.965   1.555 -0.6588  0.0051  0.3191
 7811SOL    HW123798   1.683   2.036   1.617 -1.9627  0.7808 -0.8076
 7811SOL    HW223799   1.645   1.989   1.478  0.7305 -1.0188 -1.0062
 7812SOL     OW23800   5.412   3.544   4.507 -0.1024 -0.0632  0.0406
 7812SOL    HW123801   5.487   3.496   4.472  1.2903  2.1684 -0.2383
 7812SOL    HW223802   5.448   3.629   4.533 -2.3959  0.7845  0.6843
 7813SOL     OW23803   3.244   6.127   1.047 -0.1589 -0.4395  0.0646
 7813SOL    HW123804   3.157   6.138   1.086 -0.7801  0.3471 -1.4572
 7813SOL    HW223805   3.304   6.137   1.121 -1.3265 -0.5067  1.0683
 7814SOL     OW23806   3.579   4.094   4.069  0.5049 -0.1908  0.3875
 7814SOL    HW123807   3.590   4.010   4.114  1.8393  0.0258  0.5021
 7814SOL    HW223808   3.611   4.159   4.132  0.1265  0.3430  0.0382
 7815SOL     OW23809   1.742   1.425   2.983 -0.2273  0.2295  0.6629
 7815SOL    HW123810   1.720   1.405   3.074  0.9551 -0.0210  0.9065
 7815SOL    HW223811   1.713   1.348   2.934 -0.4815  0.1869  0.8748
 7816SOL     OW23812   0.846   2.885   0.033 -0.2053 -0.2818 -0.5932
 7816SOL    HW123813   0.876   2.884  -0.058  2.9752  0.3784  0.3230
 7816SOL    HW223814   0.885   2.963   0.070 -1.7048 -0.3617  1.3124
 7817SOL     OW23815   6.152   2.205   4.797  0.3838  0.1171 -0.0413
 7817SOL    HW123816   6.105   2.262   4.736  1.1573 -0.5539 -1.3246
 7817SOL    HW223817   6.183   2.263   4.866 -2.4843  0.5499  0.9985
 7818SOL     OW23818   5.937   5.969   1.228  0.1317 -0.4900 -0.3131
 7818SOL    HW123819   5.928   5.997   1.137  0.4259 -0.2470 -0.2684
 7818SOL    HW223820   5.931   6.050   1.279  2.4789 -0.2774 -0.2694
 7819SOL     OW23821   4.951   3.846   3.233  0.2264  0.0927 -0.2767
 7819SOL    HW123822   4.958   3.752   3.250 -0.4540  0.5786  3.3713
 7819SOL    HW223823   4.945   3.852   3.137  1.2083 -3.4595 -0.7114
 7820SOL     OW23824   3.682   3.199   2.924  0.2880  0.2181  0.6851
 7820SOL    HW123825   3.646   3.201   2.835  1.1917  1.1254  0.3121
 7820SOL    HW223826   3.607   3.213   2.981 -0.2023  0.3745  0.0170
 7821SOL     OW23827   0.436   1.136   6.658 -0.5192  0.1841 -0.6120
 7821SOL    HW123828   0.494   1.127   6.734 -0.7530 -1.2829 -0.5644
 7821SOL    HW223829   0.369   1.198   6.686 -0.8800 -0.6967  0.5941
 7822SOL     OW23830   6.630   2.939   1.103 -0.0750  0.4107  0.1956
 7822SOL    HW123831   6.725   2.944   1.109 -0.0344 -0.1874  0.1021
 7822SOL    HW223832   6.608   2.986   1.023  0.1303  0.6526  0.2814
 7823SOL     OW23833   3.245   5.586   5.466  0.0885  0.0500  0.0627
 7823SOL    HW123834   3.264   5.501   5.506 -0.8787 -0.5032 -0.6033
 7823SOL    HW223835   3.226   5.644   5.540  1.5442 -0.0766  0.5748
 7824SOL     OW23836   6.349   6.616   5.391  0.0058  0.5131 -0.2860
 7824SOL    HW123837   6.438   6.589   5.413 -0.5359 -1.1374  0.0191
 7824SOL    HW223838   6.324   6.678   5.459  0.7657  0.6634 -0.1438
 7825SOL     OW23839   4.545   3.246   0.134  0.6908  0.1247 -0.2542
 7825SOL    HW123840   4.491   3.218   0.060 -1.8174 -0.0786  1.5110
 7825SOL    HW223841   4.530   3.341   0.139  0.7902  0.1276  0.0068
 7826SOL     OW23842   5.624   3.235   2.419  0.5703  0.5840 -0.0347
 7826SOL    HW123843   5.579   3.299   2.474  1.5700 -0.0458  1.6074
 7826SOL    HW223844   5.557   3.202   2.360 -0.3294  1.9765  0.1683
 7827SOL     OW23845   3.320   6.423   2.010  0.2008 -0.4098 -0.0422
 7827SOL    HW123846   3.382   6.387   1.947  0.8651  1.5610 -0.5589
 7827SOL    HW223847   3.336   6.372   2.090 -0.0778 -2.3718 -1.1803
 7828SOL     OW23848   1.927   0.173   1.851  0.3955 -0.0180 -0.1936
 7828SOL    HW123849   1.962   0.127   1.927  2.4244  0.1531 -0.9727
 7828SOL    HW223850   1.919   0.264   1.880 -1.2265 -0.3596  0.5529
 7829SOL     OW23851   3.645   5.136   5.592  0.6055  0.5062 -0.2397
 7829SOL    HW123852   3.739   5.132   5.571  0.8772  0.1456  0.9624
 7829SOL    HW223853   3.642   5.157   5.685 -0.4469 -1.5951  0.2762
 7830SOL     OW23854   2.611   5.578   0.888 -0.4438 -0.3547  0.1688
 7830SOL    HW123855   2.596   5.624   0.805 -0.7006  0.0957  0.4623
 7830SOL    HW223856   2.584   5.641   0.955  0.6119 -0.3855  0.6286
 7831SOL     OW23857   5.218   2.249   5.653  0.3091  0.2758  0.0454
 7831SOL    HW123858   5.194   2.189   5.724  0.7669 -0.4125 -0.3713
 7831SOL    HW223859   5.307   2.278   5.675  1.3306 -1.6107 -1.3089
 7832SOL     OW23860   0.100   1.593   0.055 -0.1651 -0.7482  0.0716
 7832SOL    HW123861   0.194   1.608   0.051 -0.1543  0.3169  2.4685
 7832SOL    HW223862   0.092   1.499   0.072  0.4750 -0.8174  0.0163
 7833SOL     OW23863   3.957   0.958   1.981  0.3024  0.1856 -0.0790
 7833SOL    HW123864   4.050   0.935   1.986  0.4420  0.6363 -0.5234
 7833SOL    HW223865   3.921   0.898   1.916  0.0442 -0.7285  0.8904
 7834SOL     OW23866   0.367   3.297   1.609 -0.0695  0.5295 -0.4258
 7834SOL    HW123867   0.428   3.367   1.634  1.3022 -0.2578 -1.4088
 7834SOL    HW223868   0.424   3.222   1.591 -1.4278 -0.5067 -0.4977
 7835SOL     OW23869   2.359   6.595   1.359 -0.0820  0.5486 -0.2812
 7835SOL    HW123870   2.278   6.584   1.408 -0.7573  0.0556 -1.4523
 7835SOL    HW223871   2.359   6.522   1.297  1.4703  0.2999 -0.0222
 7836SOL     OW23872   1.527   5.295   1.459  0.3157  0.3448 -0.4691
 7836SOL    HW123873   1.528   5.258   1.371 -0.9219 -0.4559 -0.1639
 7836SOL    HW223874   1.578   5.233   1.512 -0.5024 -0.1478 -0.2549
 7837SOL     OW23875   0.791   3.466   6.702 -0.2195  0.4395  0.0310
 7837SOL    HW123876   0.839   3.522   6.763  0.2317  2.6671 -2.2127
 7837SOL    HW223877   0.699   3.477   6.726 -0.3351  3.7124 -1.4037
 7838SOL     OW23878   5.102   1.854   6.713  0.2991 -0.0696 -0.1783
 7838SOL    HW123879   5.061   1.851   6.799  1.4298 -0.6997  0.3632
 7838SOL    HW223880   5.196   1.863   6.731  0.6685 -1.3074 -1.3090
 7839SOL     OW23881   2.682   1.528   4.108 -0.1489 -0.3995 -0.2703
 7839SOL    HW123882   2.718   1.617   4.110  0.0180 -0.4619 -0.4341
 7839SOL    HW223883   2.704   1.490   4.193 -1.4192  0.1838  0.3408
 7840SOL     OW23884   0.517   3.329   6.053 -0.0298  0.2713  0.2533
 7840SOL    HW123885   0.475   3.410   6.022 -3.4080 -1.2805  0.4782
 7840SOL    HW223886   0.503   3.328   6.147  1.9995  0.4083  0.6192
 7841SOL     OW23887   1.534   2.119   3.942 -0.1084 -0.3872  0.2293
 7841SOL    HW123888   1.585   2.060   3.997  1.0834  0.4044  0.0144
 7841SOL    HW223889   1.594   2.191   3.921 -0.9171 -0.0520 -1.0792
 7842SOL     OW23890   5.923   3.617   5.074 -0.4308  0.0792 -0.4109
 7842SOL    HW123891   5.984   3.612   5.147 -0.0176  1.1508 -0.6647
 7842SOL    HW223892   5.852   3.557   5.098 -0.0381  0.0049  0.6078
 7843SOL     OW23893   3.921   5.026   1.034  0.2018  0.0508  0.3360
 7843SOL    HW123894   3.872   5.076   0.969 -1.5463 -1.8771  0.0507
 7843SOL    HW223895   3.854   4.985   1.088  1.6086  1.4177  3.3177
 7844SOL     OW23896   3.362   6.061   2.287  0.4054 -0.2353 -0.3973
 7844SOL    HW123897   3.320   6.037   2.369  0.2581  1.2554 -0.0172
 7844SOL    HW223898   3.362   6.157   2.286  2.1141 -0.2000 -1.2554
 7845SOL     OW23899   4.817   0.404   3.305  0.1678  0.1791  0.2377
 7845SOL    HW123900   4.857   0.368   3.385  0.8132 -0.6021 -0.4225
 7845SOL    HW223901   4.783   0.328   3.259 -1.8723  0.7881  0.6196
 7846SOL     OW23902   0.210   4.730   1.763  0.1297  0.3440 -0.2002
 7846SOL    HW123903   0.282   4.767   1.813  0.5721 -0.4393 -0.2368
 7846SOL    HW223904   0.249   4.707   1.679 -0.2182  0.1328 -0.3041
 7847SOL     OW23905   2.055   0.806   0.462  0.3989 -0.2872 -0.1429
 7847SOL    HW123906   1.965   0.825   0.435  0.1546 -0.4873  0.5202
 7847SOL    HW223907   2.052   0.805   0.557  1.1370 -0.1472 -0.1127
 7848SOL     OW23908   0.638   4.486   2.738  0.5439 -0.0394  0.1365
 7848SOL    HW123909   0.620   4.514   2.827  1.8358 -0.7261  0.6477
 7848SOL    HW223910   0.607   4.396   2.734 -3.8174  1.3073 -1.5717
 7849SOL     OW23911   2.420   5.571   3.975 -0.4851 -0.2774 -0.0384
 7849SOL    HW123912   2.335   5.602   3.943 -1.0545  0.2130  1.7781
 7849SOL    HW223913   2.399   5.497   4.032  0.0168  1.0739  2.0449
 7850SOL     OW23914   1.700   0.885   3.944 -0.3239  0.2214 -0.4602
 7850SOL    HW123915   1.748   0.918   4.020  0.7975  0.4328 -1.2540
 7850SOL    HW223916   1.608   0.906   3.963  0.0223  0.9289  0.4939
 7851SOL     OW23917   2.066   3.654   5.070  0.2912 -0.4486 -0.4599
 7851SOL    HW123918   2.120   3.733   5.066 -1.9205  1.2476  1.0083
 7851SOL    HW223919   1.990   3.673   5.016 -1.3457 -0.5997  1.6409
 7852SOL     OW23920   3.777   2.182   2.294 -0.1377  0.5415 -0.0536
 7852SOL    HW123921   3.729   2.264   2.298 -2.3183 -0.7004  1.8922
 7852SOL    HW223922   3.847   2.191   2.358 -1.0312  0.5469  0.9472
 7853SOL     OW23923   3.918   0.308   4.300 -0.0529  0.4752  0.5610
 7853SOL    HW123924   3.861   0.240   4.263  0.4867  0.2656  0.0972
 7853SOL    HW223925   3.904   0.384   4.244 -0.2762  0.5903  0.7722
 7854SOL     OW23926   4.662   5.702   2.154 -0.5272 -0.3350 -0.3855
 7854SOL    HW123927   4.616   5.673   2.232  0.7975 -2.8902 -0.4529
 7854SOL    HW223928   4.729   5.762   2.186 -0.1765 -1.1488  0.4402
 7855SOL     OW23929   6.586   1.798   6.317 -1.0216  0.3036  0.5868
 7855SOL    HW123930   6.635   1.866   6.270  0.1050  1.3905  3.1257
 7855SOL    HW223931   6.587   1.723   6.257  0.5401  1.4718 -0.9994
 7856SOL     OW23932   3.993   1.543   1.482  0.6702  0.7662  0.0001
 7856SOL    HW123933   3.929   1.495   1.429 -0.0357  1.2736  0.3769
 7856SOL    HW223934   4.044   1.594   1.418  1.1415 -0.1472 -0.3588
 7857SOL     OW23935   6.580   4.162   2.330 -0.6559  0.0607  0.2610
 7857SOL    HW123936   6.588   4.067   2.343  0.1545  0.0821 -0.0705
 7857SOL    HW223937   6.489   4.181   2.355 -0.5084 -0.6271  1.4122
 7858SOL     OW23938   2.285   3.063   4.528 -0.6347 -0.5973 -0.2321
 7858SOL    HW123939   2.287   3.095   4.438 -2.1061  2.6703  0.7383
 7858SOL    HW223940   2.376   3.067   4.557 -0.3068 -0.5479 -1.2476
 7859SOL     OW23941   2.649   2.898   4.982 -0.2272 -0.3835  0.3062
 7859SOL    HW123942   2.629   2.944   5.064  1.9005  2.1660 -0.4764
 7859SOL    HW223943   2.567   2.902   4.932 -0.4635  1.5294  0.7845
 7860SOL     OW23944   0.216   6.617   2.791 -0.1968  0.3015 -0.0498
 7860SOL    HW123945   0.245   6.535   2.752  0.7461 -0.0856  1.3996
 7860SOL    HW223946   0.208   6.678   2.717 -0.1636 -0.8688 -1.0367
 7861SOL     OW23947   1.727   5.544   4.010  0.3232 -0.6919  0.0861
 7861SOL    HW123948   1.805   5.501   3.975  1.8297  1.2921  0.7762
 7861SOL    HW223949   1.747   5.557   4.103 -1.2893 -1.0335  0.5212
 7862SOL     OW23950   6.073   2.213   3.728  0.2107  0.1648  0.1523
 7862SOL    HW123951   6.138   2.284   3.728  2.1736 -1.4284  2.9071
 7862SOL    HW223952   6.045   2.207   3.819 -0.7688 -1.8509 -0.2411
 7863SOL     OW23953   5.566   4.636   3.450  0.0712  0.5172 -0.7988
 7863SOL    HW123954   5.571   4.707   3.386  1.3019  0.0375 -1.2491
 7863SOL    HW223955   5.555   4.557   3.398 -0.5705  0.2823 -0.3274
 7864SOL     OW23956   2.348   4.181   1.455 -0.6109 -0.2677  0.1556
 7864SOL    HW123957   2.425   4.130   1.429  1.6007  2.1251  1.5130
 7864SOL    HW223958   2.322   4.226   1.375  1.0375  0.8204  0.1859
 7865SOL     OW23959   6.060   3.364   6.103 -0.2027 -0.0858  0.1844
 7865SOL    HW123960   6.086   3.386   6.013 -1.4538  0.2441 -0.1130
 7865SOL    HW223961   6.062   3.447   6.150 -2.0958  0.2090 -0.2086
 7866SOL     OW23962   3.538   0.240   5.447  0.3493 -0.0663 -0.1450
 7866SOL    HW123963   3.610   0.276   5.499  1.3350  0.4142 -1.7508
 7866SOL    HW223964   3.541   0.146   5.463  1.1159 -0.0074  0.0924
 7867SOL     OW23965   1.008   4.817   0.801  0.3932  0.8271  0.0076
 7867SOL    HW123966   1.051   4.802   0.885  0.2151 -1.4909 -0.2544
 7867SOL    HW223967   0.918   4.840   0.824 -0.1886 -1.6509  0.5143
 7868SOL     OW23968   4.807   4.980   4.191  0.0073 -0.1708  0.2930
 7868SOL    HW123969   4.901   4.964   4.191  0.1241  0.4851 -0.0815
 7868SOL    HW223970   4.789   5.026   4.273  0.2032  0.7220 -0.1502
 7869SOL     OW23971   5.341   3.640   1.864  0.0413 -0.1760  0.0579
 7869SOL    HW123972   5.315   3.672   1.950  0.5116  0.2758  0.0354
 7869SOL    HW223973   5.399   3.708   1.830  0.9598 -1.0017 -0.0377
 7870SOL     OW23974   5.620   2.226   4.742  0.2730  0.4264  0.0319
 7870SOL    HW123975   5.662   2.288   4.682 -2.4302  2.0740 -0.3293
 7870SOL    HW223976   5.569   2.168   4.685 -0.9388  0.9022  0.5957
 7871SOL     OW23977   4.916   0.572   1.470 -0.2259  0.4391  0.4841
 7871SOL    HW123978   4.994   0.628   1.464  1.0874 -1.4002 -0.4156
 7871SOL    HW223979   4.845   0.633   1.489  1.1666  2.3823 -0.2062
 7872SOL     OW23980   4.384   3.326   0.546 -0.1333 -0.1660  0.0229
 7872SOL    HW123981   4.447   3.269   0.591  1.0541  0.7762 -0.3969
 7872SOL    HW223982   4.318   3.346   0.612 -0.1859 -1.4457  0.3790
 7873SOL     OW23983   0.010   0.925   4.702  0.5781 -0.6640  0.0973
 7873SOL    HW123984  -0.032   0.851   4.658  0.3510 -0.7207  0.4094
 7873SOL    HW223985   0.025   0.989   4.632 -1.5724  0.0766  0.2373
 7874SOL     OW23986   1.311   4.721   6.108  0.1320 -0.1712 -0.0264
 7874SOL    HW123987   1.405   4.716   6.124  0.1958  0.1268 -0.3070
 7874SOL    HW223988   1.272   4.667   6.176  0.4373  0.5854  0.7553
 7875SOL     OW23989   3.732   5.421   4.252 -0.3850 -0.1575 -0.7829
 7875SOL    HW123990   3.804   5.359   4.259  0.3498  0.6776 -0.8578
 7875SOL    HW223991   3.733   5.449   4.161 -0.9496 -0.3051 -0.8378
 7876SOL     OW23992   4.502   6.358   6.535 -0.1531  0.2873 -0.3299
 7876SOL    HW123993   4.562   6.382   6.605  0.1084 -0.4038 -0.3193
 7876SOL    HW223994   4.419   6.399   6.561 -0.4405 -1.0998  1.1104
 7877SOL     OW23995   6.360   5.504   0.709  0.1626  0.3262  0.3144
 7877SOL    HW123996   6.333   5.500   0.800  2.6004 -2.8561  1.1044
 7877SOL    HW223997   6.368   5.597   0.689  1.5901  1.1562  4.0544
 7878SOL     OW23998   0.168   6.008   3.871 -0.1246 -0.7254 -0.4529
 7878SOL    HW123999   0.187   6.035   3.961 -2.9475 -0.3079  0.1114
 7878SOL    HW224000   0.183   6.087   3.819  2.2866 -1.1729 -0.5550
 7879SOL     OW24001   0.495   4.325   1.918  0.9371  0.1749 -0.5094
 7879SOL    HW124002   0.430   4.274   1.869  1.7032 -1.2281 -0.0983
 7879SOL    HW224003   0.579   4.297   1.884  1.4193  0.4364  0.4286
 7880SOL     OW24004   3.622   3.560   0.010 -0.5302 -0.2666  0.3411
 7880SOL    HW124005   3.597   3.513  -0.070 -1.9575 -0.2514  0.7470
 7880SOL    HW224006   3.613   3.496   0.080 -0.6899  0.1090  0.6685
 7881SOL     OW24007   6.167   0.635   5.398  0.1436 -0.3299  0.6062
 7881SOL    HW124008   6.231   0.569   5.421  0.5759  0.2664  1.1600
 7881SOL    HW224009   6.084   0.602   5.432  0.3524 -0.5833  0.8673
 7882SOL     OW24010   2.190   1.669   5.920  0.0113 -0.3274 -0.4498
 7882SOL    HW124011   2.106   1.696   5.881 -0.2268 -0.5436 -0.0968
 7882SOL    HW224012   2.200   1.577   5.894  0.8479  0.0916 -1.6944
 7883SOL     OW24013   4.897   6.763   3.568 -0.0510 -0.2470  0.0857
 7883SOL    HW124014   4.898   6.668   3.557  1.8275 -0.3278  0.5139
 7883SOL    HW224015   4.927   6.797   3.484 -0.4086 -0.0435  0.0380
 7884SOL     OW24016   5.981   6.311   4.338 -0.2978 -0.1828  0.0443
 7884SOL    HW124017   5.928   6.339   4.412  0.2368  0.8168  0.0655
 7884SOL    HW224018   5.970   6.381   4.273  0.5137 -0.2459 -0.1776
 7885SOL     OW24019   0.930   3.550   2.040  0.4461 -0.0737  0.0935
 7885SOL    HW124020   0.990   3.525   2.110  0.0195 -0.8004  0.2083
 7885SOL    HW224021   0.861   3.483   2.041  0.4645 -0.1374 -1.0594
 7886SOL     OW24022   3.830   6.783   6.602 -0.2205  0.2104  0.2668
 7886SOL    HW124023   3.907   6.836   6.584 -0.2982  0.2584  0.0661
 7886SOL    HW224024   3.756   6.837   6.573 -0.2395 -0.3931 -0.8645
 7887SOL     OW24025   6.193   4.884   3.734  0.0529  0.0387  0.2899
 7887SOL    HW124026   6.190   4.856   3.826  1.1083  0.7788  0.5648
 7887SOL    HW224027   6.221   4.806   3.686 -1.0821 -0.5244  0.4986
 7888SOL     OW24028   2.959   4.969   6.067  0.2509  0.1965 -0.5058
 7888SOL    HW124029   2.895   4.946   6.134 -1.7380 -0.6337 -2.5805
 7888SOL    HW224030   2.992   4.885   6.035  2.4109  0.5997  0.4499
 7889SOL     OW24031   4.837   5.204   3.950 -0.2124 -0.1546  0.3691
 7889SOL    HW124032   4.916   5.208   4.004 -0.4392  1.5782  0.6114
 7889SOL    HW224033   4.769   5.174   4.010 -0.6883  2.7482  1.4126
 7890SOL     OW24034   1.810   2.119   0.795  0.3575  0.6785  0.5533
 7890SOL    HW124035   1.794   2.198   0.743  0.0835  0.7507  0.7455
 7890SOL    HW224036   1.753   2.128   0.871  1.3445  0.9654  1.2807
 7891SOL     OW24037   6.513   5.831   3.085 -0.4745  0.0248  0.4046
 7891SOL    HW124038   6.535   5.898   3.019  0.3769 -1.4498 -0.8911
 7891SOL    HW224039   6.472   5.761   3.035  0.0213 -1.0610  1.4634
 7892SOL     OW24040   3.966   0.890   0.597 -0.1017 -0.3116  0.3712
 7892SOL    HW124041   3.971   0.795   0.606  0.7083 -0.3292 -0.1544
 7892SOL    HW224042   3.894   0.905   0.535  3.0640 -0.9315 -3.9402
 7893SOL     OW24043   6.113   1.965   5.111 -0.6096 -0.2925 -0.1999
 7893SOL    HW124044   6.033   1.922   5.079 -0.5940  0.5268 -1.3999
 7893SOL    HW224045   6.167   1.977   5.033  0.0166  0.5909  0.3476
 7894SOL     OW24046   0.667   5.480   4.243 -0.3621  0.3969 -0.6209
 7894SOL    HW124047   0.650   5.456   4.334 -1.6730  0.3023 -0.8837
 7894SOL    HW224048   0.611   5.422   4.191  1.4345 -0.5735 -1.5862
 7895SOL     OW24049   1.393   0.845   5.083 -0.4450  0.2589  0.5352
 7895SOL    HW124050   1.480   0.815   5.110 -0.5468 -1.1521 -0.5750
 7895SOL    HW224051   1.334   0.813   5.151 -0.4241 -1.2822 -0.1408
 7896SOL     OW24052   0.103   0.390   0.908 -0.7551 -0.5937 -0.1333
 7896SOL    HW124053   0.110   0.314   0.966  0.4062 -0.1325  0.3852
 7896SOL    HW224054   0.170   0.376   0.841 -1.0126 -0.3656 -0.4425
 7897SOL     OW24055   5.908   0.972   2.426 -0.1256  0.1368  0.0139
 7897SOL    HW124056   5.874   0.894   2.469  0.7196 -0.7411 -0.8500
 7897SOL    HW224057   6.002   0.955   2.417  0.2000  1.5791  0.4696
 7898SOL     OW24058   4.575   0.330   6.736 -0.4120 -0.3371 -0.3150
 7898SOL    HW124059   4.631   0.407   6.725  0.0516 -0.2737  1.9405
 7898SOL    HW224060   4.486   0.364   6.727 -0.2587  0.7163  1.5357
 7899SOL     OW24061   4.340   3.670   4.808 -0.2042 -0.1782 -0.5369
 7899SOL    HW124062   4.289   3.602   4.764  0.4634  0.0499 -1.7303
 7899SOL    HW224063   4.297   3.752   4.783 -0.3999 -0.1011  0.0510
 7900SOL     OW24064   2.889   2.137   4.019 -0.3853  0.1417 -0.2687
 7900SOL    HW124065   2.830   2.158   3.946 -0.4153  0.7127 -0.0831
 7900SOL    HW224066   2.838   2.157   4.097 -0.4081 -0.6178 -0.0782
 7901SOL     OW24067   1.437   5.753   4.941 -0.7792  0.0658  0.2394
 7901SOL    HW124068   1.437   5.829   4.998 -0.2345 -0.0142  0.3524
 7901SOL    HW224069   1.481   5.783   4.861  0.8789 -0.5440  0.8726
 7902SOL     OW24070   1.761   2.609   3.850 -0.3387  0.2461  0.4450
 7902SOL    HW124071   1.854   2.584   3.848 -0.6464 -0.9778  0.7777
 7902SOL    HW224072   1.714   2.527   3.835 -1.3806  0.8014  0.6328
 7903SOL     OW24073   0.870   2.060   0.060  0.3984 -0.2903  0.3910
 7903SOL    HW124074   0.847   1.967   0.055  1.4000 -0.4936 -1.1577
 7903SOL    HW224075   0.797   2.105   0.019 -0.5605 -0.2651  2.0318
 7904SOL     OW24076   1.439   3.058   5.415 -0.3101 -0.0651  0.5332
 7904SOL    HW124077   1.486   3.141   5.406 -0.9612  0.3614  0.9707
 7904SOL    HW224078   1.494   3.005   5.472 -0.2472  0.3516  0.8682
 7905SOL     OW24079   0.213   6.050   0.144 -0.7182 -0.3505 -0.1033
 7905SOL    HW124080   0.149   5.980   0.153  0.0032 -0.9847  0.1395
 7905SOL    HW224081   0.205   6.079   0.053  0.4134 -2.1552 -0.8141
 7906SOL     OW24082   1.868   5.470   0.596  0.3191 -0.1192  0.0568
 7906SOL    HW124083   1.898   5.479   0.686  0.5960 -0.8627  0.0457
 7906SOL    HW224084   1.778   5.437   0.603  0.5632 -0.8058  0.0645
 7907SOL     OW24085   5.435   5.649   5.965 -0.5121 -0.4349 -0.3609
 7907SOL    HW124086   5.525   5.681   5.955 -0.2333 -0.2849  2.0922
 7907SOL    HW224087   5.418   5.600   5.885  1.4961  0.1387 -1.1930
 7908SOL     OW24088   5.983   3.205   1.133 -0.3736  0.1080  0.6515
 7908SOL    HW124089   6.051   3.148   1.169  0.2670  1.0165  0.9322
 7908SOL    HW224090   5.946   3.248   1.210  0.2282  1.2239  0.3439
 7909SOL     OW24091   3.288   5.821   4.317 -0.9921  0.9766 -0.2799
 7909SOL    HW124092   3.327   5.853   4.236  0.4273  0.5854  0.2121
 7909SOL    HW224093   3.254   5.735   4.295 -0.3733  0.7597 -0.4077
 7910SOL     OW24094   0.598   2.771   4.005 -0.0136  0.4425  0.3098
 7910SOL    HW124095   0.534   2.842   4.011 -2.3897 -1.5443  0.5269
 7910SOL    HW224096   0.682   2.814   3.991 -1.0567  3.3469  2.0625
 7911SOL     OW24097   3.890   0.540   5.577 -0.3770  0.1255 -0.0282
 7911SOL    HW124098   3.832   0.563   5.650 -2.3441 -0.1718 -1.4312
 7911SOL    HW224099   3.875   0.447   5.562  0.7892 -0.0561 -0.1826
 7912SOL     OW24100   5.507   6.394   0.777 -0.1521 -0.3904 -0.0735
 7912SOL    HW124101   5.579   6.367   0.721 -0.9350  0.5743 -1.6238
 7912SOL    HW224102   5.532   6.365   0.865  1.9514 -0.3461 -0.6163
 7913SOL     OW24103   0.580   0.414   0.533  0.4487  0.3793 -0.1562
 7913SOL    HW124104   0.492   0.393   0.500  1.4816  1.6708 -4.3017
 7913SOL    HW224105   0.596   0.347   0.600 -3.9736  0.6575  1.5343
 7914SOL     OW24106   0.625   2.417   6.687 -0.2751  0.1074 -0.9214
 7914SOL    HW124107   0.548   2.468   6.661 -1.9859 -0.8807  1.7503
 7914SOL    HW224108   0.643   2.446   6.777  2.3336  0.0608 -1.3615
 7915SOL     OW24109   2.434   3.529   1.622  0.7606 -0.2772  0.1062
 7915SOL    HW124110   2.462   3.595   1.686 -0.9548  0.4152  0.2030
 7915SOL    HW224111   2.374   3.473   1.671 -0.3588  0.0980 -0.8112
 7916SOL     OW24112   1.477   3.825   1.870  0.3671  0.8259  0.5053
 7916SOL    HW124113   1.408   3.794   1.811 -0.9072  2.6781  0.9288
 7916SOL    HW224114   1.556   3.780   1.840 -1.0381 -1.6920  0.2383
 7917SOL     OW24115   5.805   4.913   3.284 -0.6396  0.1596  0.5843
 7917SOL    HW124116   5.720   4.878   3.259 -1.6947  2.9550 -0.1057
 7917SOL    HW224117   5.790   4.957   3.367  0.5765 -0.7007  1.3030
 7918SOL     OW24118   0.031   5.155   2.606  0.1313 -0.2895 -0.0768
 7918SOL    HW124119   0.019   5.240   2.648 -2.8356 -0.5225 -0.2139
 7918SOL    HW224120   0.082   5.104   2.668  0.1804  0.9519  0.9390
 7919SOL     OW24121   0.654   4.384   3.841 -0.5172 -0.2395 -0.6359
 7919SOL    HW124122   0.582   4.355   3.898  1.0193 -0.6747  1.1920
 7919SOL    HW224123   0.668   4.476   3.866  0.3277 -0.5053 -0.0969
 7920SOL     OW24124   1.670   2.321   5.963  0.1861  0.4401 -0.3453
 7920SOL    HW124125   1.595   2.365   6.003 -0.2786  1.1240 -1.8927
 7920SOL    HW224126   1.741   2.385   5.966  0.3406  0.2617 -0.0667
 7921SOL     OW24127   3.943   2.576   6.577  0.2864  0.0891 -0.4472
 7921SOL    HW124128   4.028   2.548   6.610 -1.4249 -1.0820  3.6048
 7921SOL    HW224129   3.953   2.670   6.563  1.5801  0.6578  3.0536
 7922SOL     OW24130   2.134   3.597   3.824 -0.6078 -0.5942 -0.1044
 7922SOL    HW124131   2.114   3.507   3.798 -0.0060 -0.5420 -0.7576
 7922SOL    HW224132   2.137   3.646   3.742  0.0851 -0.1764  0.1617
 7923SOL     OW24133   3.714   5.448   0.943 -0.2450  0.1866 -0.1460
 7923SOL    HW124134   3.737   5.370   0.992 -0.0161 -0.6507 -1.5323
 7923SOL    HW224135   3.797   5.495   0.932 -0.2334  0.1879 -0.0555
 7924SOL     OW24136   5.347   5.764   2.794 -0.1621 -0.0549  0.7882
 7924SOL    HW124137   5.436   5.791   2.769  0.0964  0.0809  1.8046
 7924SOL    HW224138   5.358   5.673   2.824 -0.0827  0.4369  2.3208
 7925SOL     OW24139   4.602   6.334   0.915  0.4155  0.1090  0.0566
 7925SOL    HW124140   4.538   6.341   0.987 -1.6164  0.6836 -1.7000
 7925SOL    HW224141   4.561   6.275   0.852  2.0949 -0.2938 -0.7191
 7926SOL     OW24142   2.272   4.045   3.683 -0.1762  0.0899 -0.1806
 7926SOL    HW124143   2.189   4.011   3.650 -0.9008  0.7851  0.8787
 7926SOL    HW224144   2.272   4.022   3.776  0.4943  0.7184 -0.0171
 7927SOL     OW24145   3.675   0.418   3.270 -0.1674  0.0833  0.2924
 7927SOL    HW124146   3.754   0.428   3.324 -0.9911  1.6032  1.2723
 7927SOL    HW224147   3.654   0.325   3.275  0.8962 -0.1307  0.9711
 7928SOL     OW24148   4.465   5.771   4.710  0.4418 -0.7954  0.4084
 7928SOL    HW124149   4.429   5.836   4.649  1.0529 -0.2349  0.6334
 7928SOL    HW224150   4.397   5.705   4.718 -0.3973  0.0673  0.5533
 7929SOL     OW24151   1.570   3.159   2.627  0.3666  0.1197 -0.3005
 7929SOL    HW124152   1.631   3.161   2.701  2.1342  1.1395 -1.7142
 7929SOL    HW224153   1.489   3.197   2.662  0.5150 -1.1860  1.5950
 7930SOL     OW24154   2.902   2.276   1.912 -0.6050 -0.0358 -0.1340
 7930SOL    HW124155   2.860   2.220   1.977  2.8938 -0.9010  1.6335
 7930SOL    HW224156   2.918   2.358   1.958  0.5342 -0.1143 -0.3531
 7931SOL     OW24157   0.236   4.310   2.238 -0.0564  0.1837 -0.1065
 7931SOL    HW124158   0.187   4.229   2.224 -0.1911  0.0519  1.0939
 7931SOL    HW224159   0.179   4.363   2.293  0.2825  0.8719 -0.4091
 7932SOL     OW24160   1.617   4.990   1.716 -0.1787  0.3242 -0.0974
 7932SOL    HW124161   1.653   5.075   1.692 -1.7601  0.9815 -0.2471
 7932SOL    HW224162   1.682   4.952   1.775  0.6060  1.5789 -0.1178
 7933SOL     OW24163   1.245   4.419   6.304  0.2582 -0.0561 -0.1893
 7933SOL    HW124164   1.167   4.365   6.290 -0.1324  0.2039  0.8800
 7933SOL    HW224165   1.294   4.374   6.372  1.3016 -0.4664 -1.1822
 7934SOL     OW24166   1.931   5.546   6.494  0.2058  1.1550  0.3251
 7934SOL    HW124167   1.911   5.472   6.551 -0.9140  1.3479  0.2176
 7934SOL    HW224168   1.909   5.514   6.406  0.2570  1.4234  0.2151
 7935SOL     OW24169   3.231   3.057   0.451  0.6066 -0.0562 -0.1077
 7935SOL    HW124170   3.160   2.993   0.461  0.7359 -0.2911 -0.6460
 7935SOL    HW224171   3.208   3.106   0.372  0.8401  0.1322 -0.0585
 7936SOL     OW24172   1.683   0.697   3.723  0.5934 -0.4416  0.0908
 7936SOL    HW124173   1.668   0.757   3.796 -0.4993 -0.0658 -0.4295
 7936SOL    HW224174   1.709   0.754   3.650  1.0069 -0.7528 -0.0098
 7937SOL     OW24175   1.452   4.387   5.584  0.1992  0.0581  0.4336
 7937SOL    HW124176   1.545   4.367   5.596  0.1073 -0.4294  0.3504
 7937SOL    HW224177   1.429   4.346   5.501 -0.1030  0.1387  0.4748
 7938SOL     OW24178   5.982   5.686   6.255 -0.2990 -0.2321 -0.6920
 7938SOL    HW124179   5.969   5.743   6.331  2.6240  0.2369 -0.4419
 7938SOL    HW224180   5.928   5.609   6.274 -1.1589  0.7093  0.9001
 7939SOL     OW24181   5.111   1.346   6.053 -0.4159 -0.1861 -0.3843
 7939SOL    HW124182   5.110   1.334   6.148  0.5866 -0.5393 -0.4097
 7939SOL    HW224183   5.202   1.363   6.032 -0.8817  1.6147 -1.0939
 7940SOL     OW24184   2.022   0.694   1.253 -0.4202  0.4480  0.4941
 7940SOL    HW124185   1.996   0.606   1.280 -1.4548  0.3839 -0.6201
 7940SOL    HW224186   1.978   0.752   1.315 -0.0960  0.2009  0.9608
 7941SOL     OW24187   5.835   3.064   2.465  0.2524  0.1964  0.9291
 7941SOL    HW124188   5.761   3.117   2.434  0.2278  0.3445  1.2295
 7941SOL    HW224189   5.909   3.093   2.412 -0.1002 -0.6614 -0.0704
 7942SOL     OW24190   2.556   0.568   5.585 -0.1660  0.4879  0.3832
 7942SOL    HW124191   2.624   0.558   5.519  0.2296 -3.6416  1.1142
 7942SOL    HW224192   2.603   0.573   5.668 -0.7393  1.2552  0.6789
 7943SOL     OW24193   0.356   3.679   4.397  0.3872  0.0607  0.6181
 7943SOL    HW124194   0.383   3.692   4.307 -0.3735  2.8975  0.7069
 7943SOL    HW224195   0.383   3.589   4.418  1.4381 -0.3326 -2.0814
 7944SOL     OW24196   4.100   6.580   0.417  0.3929 -0.3420  0.2197
 7944SOL    HW124197   4.177   6.637   0.408  0.1438  0.0075  0.2761
 7944SOL    HW224198   4.064   6.601   0.503  0.0923 -0.3247  0.0911
 7945SOL     OW24199   1.668   3.287   1.895 -0.5004 -0.1047 -0.2277
 7945SOL    HW124200   1.611   3.353   1.935 -0.6657  0.2395 -1.0171
 7945SOL    HW224201   1.716   3.335   1.827 -0.1968 -0.6699 -0.4155
 7946SOL     OW24202   5.483   3.734   1.116 -0.1939  0.4812  0.5753
 7946SOL    HW124203   5.439   3.665   1.067  0.6381 -0.9741  1.7660
 7946SOL    HW224204   5.480   3.810   1.058 -1.4347 -0.4446 -0.6584
 7947SOL     OW24205   6.680   1.333   6.237  0.3973 -0.1168 -0.3509
 7947SOL    HW124206   6.735   1.317   6.161  0.0689 -0.7365 -0.4679
 7947SOL    HW224207   6.626   1.409   6.213  0.6912  0.0424 -0.5106
 7948SOL     OW24208   6.277   5.543   2.483  0.0420 -0.2918  0.0659
 7948SOL    HW124209   6.299   5.599   2.409  0.3598  1.0410  1.1260
 7948SOL    HW224210   6.242   5.463   2.443 -0.7759  0.7901 -1.5082
 7949SOL     OW24211   0.507   6.123   4.898  0.3909  0.2159 -0.0290
 7949SOL    HW124212   0.437   6.085   4.952  0.3770  0.4526  0.1188
 7949SOL    HW224213   0.467   6.198   4.855 -0.4441 -1.6044 -2.6334
 7950SOL     OW24214   0.393   0.825   1.439  0.1575  0.6607 -0.1034
 7950SOL    HW124215   0.479   0.802   1.473 -0.0735  0.4626  0.3613
 7950SOL    HW224216   0.341   0.745   1.448  0.3404  0.3294 -1.7859
 7951SOL     OW24217   5.149   4.543   3.272  0.1513 -0.0579 -0.2017
 7951SOL    HW124218   5.145   4.499   3.187 -0.2044 -0.2091 -0.1113
 7951SOL    HW224219   5.171   4.473   3.334 -0.5859 -0.1527 -0.0338
 7952SOL     OW24220   1.630   2.945   6.120  0.6285  0.2959 -0.3828
 7952SOL    HW124221   1.593   2.959   6.033 -2.2309  0.2691  0.7127
 7952SOL    HW224222   1.631   3.032   6.160  0.0923  0.0512  0.1847
 7953SOL     OW24223   4.319   2.873   5.728  0.3095 -0.4738  0.2951
 7953SOL    HW124224   4.335   2.947   5.787 -1.1627  0.4262 -0.3834
 7953SOL    HW224225   4.395   2.817   5.740 -0.2811 -0.8146  3.7278
 7954SOL     OW24226   5.334   4.787   6.357 -0.0345 -0.5801 -0.1283
 7954SOL    HW124227   5.285   4.705   6.365 -0.6092 -0.2396 -0.0549
 7954SOL    HW224228   5.322   4.830   6.441  0.8504 -0.7313  0.0794
 7955SOL     OW24229   1.142   5.733   0.831  0.2752  0.2161 -0.6242
 7955SOL    HW124230   1.072   5.797   0.815 -0.6947 -0.2131  1.5501
 7955SOL    HW224231   1.188   5.727   0.747  0.4818  3.8061 -0.8951
 7956SOL     OW24232   2.729   6.765   6.227 -0.1369 -0.3418  0.2382
 7956SOL    HW124233   2.758   6.845   6.272 -0.6082  0.0397 -0.1331
 7956SOL    HW224234   2.651   6.738   6.275  0.4086 -0.9744  0.7937
 7957SOL     OW24235   1.057   3.151   5.016 -0.1355  0.0019  0.2125
 7957SOL    HW124236   0.991   3.085   4.997 -1.5829  1.4424 -0.0112
 7957SOL    HW224237   1.107   3.115   5.090 -0.3228 -1.6751 -0.4388
 7958SOL     OW24238   1.529   5.872   0.120  0.5764 -0.3654  0.2970
 7958SOL    HW124239   1.553   5.805   0.184  1.9359  0.1627  0.3653
 7958SOL    HW224240   1.570   5.843   0.038 -0.2997 -0.5024 -0.1130
 7959SOL     OW24241   0.823   1.734   5.875 -0.0528  0.3353  0.0859
 7959SOL    HW124242   0.839   1.702   5.786  0.2139 -0.1369  0.3028
 7959SOL    HW224243   0.864   1.821   5.877 -2.9177  1.8803 -1.2816
 7960SOL     OW24244   0.114   6.572   2.252  0.1592 -0.4768 -0.2790
 7960SOL    HW124245   0.062   6.554   2.331 -0.5686  1.2964 -0.3105
 7960SOL    HW224246   0.053   6.561   2.180 -0.2798  1.7203 -0.3114
 7961SOL     OW24247   3.257   1.686   2.124 -0.5440 -0.3027  0.0314
 7961SOL    HW124248   3.208   1.736   2.190 -0.9766  1.8966 -1.7992
 7961SOL    HW224249   3.191   1.631   2.082 -0.6093 -0.4487  0.3258
 7962SOL     OW24250   3.352   5.827   0.788  0.5159 -0.2343 -0.1669
 7962SOL    HW124251   3.425   5.887   0.800 -0.1180  0.6720 -0.7464
 7962SOL    HW224252   3.385   5.759   0.730  0.7140  0.5304 -0.9687
 7963SOL     OW24253   0.341   2.958   5.402 -1.1128 -0.0723 -0.1900
 7963SOL    HW124254   0.260   2.975   5.355 -0.0254 -0.1176 -2.2048
 7963SOL    HW224255   0.350   3.031   5.463 -2.7576 -0.1950  0.2338
 7964SOL     OW24256   1.333   3.583   5.709  0.2223 -0.2436  0.4736
 7964SOL    HW124257   1.337   3.583   5.613  1.6910 -0.9827  0.5052
 7964SOL    HW224258   1.280   3.659   5.730  0.4099  0.3142 -0.9178
 7965SOL     OW24259   4.915   0.747   2.606 -0.3397 -0.4137  0.1787
 7965SOL    HW124260   4.855   0.794   2.664 -2.5296 -0.6190 -1.7573
 7965SOL    HW224261   4.910   0.656   2.636  2.0235  0.0759  2.3841
 7966SOL     OW24262   5.078   6.548   2.244 -0.2353 -0.4040  0.3602
 7966SOL    HW124263   5.133   6.620   2.277 -0.5862 -0.7297  1.7494
 7966SOL    HW224264   5.128   6.469   2.263 -0.6830 -0.6337  0.6059
 7967SOL     OW24265   4.499   1.112   1.843  0.1605 -0.0355 -0.4623
 7967SOL    HW124266   4.502   1.189   1.899  3.4749  0.2564 -0.8559
 7967SOL    HW224267   4.494   1.147   1.754  0.0565 -0.3244 -0.5703
 7968SOL     OW24268   5.830   3.746   3.910  0.5509  0.3543 -0.6233
 7968SOL    HW124269   5.910   3.734   3.858 -0.4948 -2.7015 -1.7415
 7968SOL    HW224270   5.861   3.749   4.000  2.0673  1.3527 -1.1270
 7969SOL     OW24271   2.683   0.810   5.965  0.0863 -0.0153 -0.3879
 7969SOL    HW124272   2.713   0.888   5.917  0.3866  0.1502  0.0639
 7969SOL    HW224273   2.703   0.737   5.907  0.5359  0.1756 -0.4774
 7970SOL     OW24274   4.849   0.228   2.043 -0.1317 -0.6934 -0.6046
 7970SOL    HW124275   4.823   0.144   2.006 -0.1103 -0.5300 -0.9910
 7970SOL    HW224276   4.816   0.226   2.133 -3.2353  0.2884 -1.5988
 7971SOL     OW24277   2.047   3.586   2.432 -0.1085 -0.2027  0.0317
 7971SOL    HW124278   2.068   3.544   2.349 -0.8492  0.7361 -0.6424
 7971SOL    HW224279   1.974   3.535   2.468 -0.8667  0.3569 -0.6830
 7972SOL     OW24280   5.197   2.303   4.215 -0.3780  0.0049  0.1076
 7972SOL    HW124281   5.202   2.228   4.274 -0.6008 -0.0322  0.0803
 7972SOL    HW224282   5.232   2.376   4.266  1.0620 -0.3719 -0.3082
 7973SOL     OW24283   1.883   2.787   4.034 -0.7044  0.0284  0.2944
 7973SOL    HW124284   1.822   2.739   3.979 -0.4727 -1.5011  1.2996
 7973SOL    HW224285   1.848   2.779   4.122 -0.4315  1.4021  0.5518
 7974SOL     OW24286   2.789   5.747   6.777  0.0012  0.1921 -0.3774
 7974SOL    HW124287   2.695   5.754   6.797 -0.3272  0.5522 -1.8574
 7974SOL    HW224288   2.823   5.835   6.790 -0.4499  0.7115 -2.2790
 7975SOL     OW24289   5.851   6.330   0.986 -0.4534 -0.2013 -0.1279
 7975SOL    HW124290   5.890   6.413   1.014  0.7202 -0.2978 -1.3947
 7975SOL    HW224291   5.865   6.327   0.891 -0.3436 -1.9140 -0.0931
 7976SOL     OW24292   0.316   5.330   3.641  0.4364  0.4942  0.3535
 7976SOL    HW124293   0.380   5.391   3.678  1.3019 -0.4709  0.4836
 7976SOL    HW224294   0.311   5.353   3.548 -1.5774  2.7834  0.9078
 7977SOL     OW24295   4.911   3.075   6.131  0.6521 -0.5215 -0.9138
 7977SOL    HW124296   4.847   3.093   6.062  1.4200  4.7186 -0.6849
 7977SOL    HW224297   4.859   3.078   6.212  0.5210 -0.9634 -0.9834
 7978SOL     OW24298   1.492   5.973   5.116 -0.2610 -0.2162  0.2315
 7978SOL    HW124299   1.584   5.967   5.142 -0.6469  0.5805  1.9521
 7978SOL    HW224300   1.480   6.064   5.089 -0.5245 -0.3341 -0.0616
 7979SOL     OW24301   1.058   3.290   1.619  0.3376 -0.3121 -0.1031
 7979SOL    HW124302   1.095   3.334   1.696  0.5870  0.7766 -0.8248
 7979SOL    HW224303   1.072   3.197   1.636  1.7035 -0.0174  0.5212
 7980SOL     OW24304   4.301   3.846   3.742  0.2021 -0.0435  0.0426
 7980SOL    HW124305   4.258   3.921   3.783  0.2232 -0.1424  0.2472
 7980SOL    HW224306   4.238   3.815   3.677  0.3196  0.3384 -0.2611
 7981SOL     OW24307   6.112   5.649   5.166 -0.4838  0.5815  0.3212
 7981SOL    HW124308   6.156   5.733   5.167 -1.6971  1.2493  0.1424
 7981SOL    HW224309   6.111   5.624   5.074  0.7222 -0.1109  0.4798
 7982SOL     OW24310   2.724   0.829   5.341  0.3338 -0.0899  0.1466
 7982SOL    HW124311   2.687   0.818   5.254  2.0403 -0.3168 -0.6016
 7982SOL    HW224312   2.722   0.741   5.379 -0.1627 -0.0424  0.2339
 7983SOL     OW24313   4.240   2.701   4.795 -0.0850  0.2203 -0.7777
 7983SOL    HW124314   4.274   2.748   4.870 -0.9089  0.4371 -0.5272
 7983SOL    HW224315   4.172   2.758   4.759 -0.0966 -0.1342 -1.3372
 7984SOL     OW24316   1.222   2.570   1.697  1.0063 -0.0309 -0.3614
 7984SOL    HW124317   1.170   2.632   1.647 -1.3099 -1.2276  0.4191
 7984SOL    HW224318   1.291   2.623   1.737  0.8341  1.5054 -1.9730
 7985SOL     OW24319   4.635   4.399   0.048 -0.5813  0.4881  0.2821
 7985SOL    HW124320   4.619   4.452  -0.031  0.3269  2.1683  1.1652
 7985SOL    HW224321   4.662   4.314   0.014  0.0274  1.2410 -1.2486
 7986SOL     OW24322   2.770   3.289   1.759 -0.1124  0.0636  0.2311
 7986SOL    HW124323   2.823   3.307   1.682 -0.2822  0.8635  0.2915
 7986SOL    HW224324   2.832   3.257   1.825  0.1104 -0.1026 -0.0613
 7987SOL     OW24325   6.729   0.733   1.053 -0.1390  0.8134  0.4195
 7987SOL    HW124326   6.818   0.763   1.070  0.4459 -0.1748 -0.7998
 7987SOL    HW224327   6.707   0.769   0.967 -0.8002  0.7621  0.5582
 7988SOL     OW24328   2.149   3.188   2.039 -0.0939  0.1623  0.1789
 7988SOL    HW124329   2.106   3.176   1.955 -2.5146  1.6435  1.0754
 7988SOL    HW224330   2.104   3.126   2.098  1.3305 -0.6196  0.4860
 7989SOL     OW24331   0.219   3.065   1.853  0.7589  0.5694 -0.5976
 7989SOL    HW124332   0.155   3.120   1.807 -1.0789 -0.2119  0.8787
 7989SOL    HW224333   0.190   3.066   1.944  1.7368 -1.3808 -0.2114
 7990SOL     OW24334   6.779   3.961   2.979  0.2765 -0.0173  0.8991
 7990SOL    HW124335   6.708   3.927   2.925  1.0079  2.5955 -1.9802
 7990SOL    HW224336   6.844   3.890   2.979  0.1781 -0.2238 -1.6541
 7991SOL     OW24337   6.164   0.947   1.730 -0.2147 -0.1224  0.0885
 7991SOL    HW124338   6.158   0.979   1.640 -2.2970  0.0289  0.2275
 7991SOL    HW224339   6.147   1.024   1.784  0.0204 -0.4165  0.5922
 7992SOL     OW24340   5.375   1.909   5.517  0.5295  0.5135 -0.1394
 7992SOL    HW124341   5.295   1.896   5.466  0.9087 -0.3681 -0.5307
 7992SOL    HW224342   5.348   1.899   5.608 -0.1249  1.9502 -0.1610
 7993SOL     OW24343   1.281   2.552   0.164 -0.4496  0.1953  0.0849
 7993SOL    HW124344   1.232   2.470   0.157  0.5468 -0.3455 -1.0496
 7993SOL    HW224345   1.226   2.616   0.119 -1.5571  0.3460  1.5729
 7994SOL     OW24346   2.339   6.234   0.616 -0.0307  0.4379 -0.0837
 7994SOL    HW124347   2.410   6.288   0.648 -0.0588 -0.2050  1.0997
 7994SOL    HW224348   2.373   6.145   0.619 -0.7538  0.1599  0.1449
 7995SOL     OW24349   2.795   5.868   2.556  0.2510 -0.0037 -0.2475
 7995SOL    HW124350   2.825   5.905   2.473 -0.3140  1.2033  0.0783
 7995SOL    HW224351   2.869   5.882   2.616 -0.0702  0.8826 -0.0486
 7996SOL     OW24352   3.636   5.446   1.370  0.1624 -0.0633 -0.4201
 7996SOL    HW124353   3.547   5.414   1.383  0.4826 -0.3763  1.1612
 7996SOL    HW224354   3.684   5.370   1.338  0.1199 -0.2134 -0.1331
 7997SOL     OW24355   5.972   5.416   2.178 -0.4327 -0.1042  0.3661
 7997SOL    HW124356   5.884   5.442   2.151  0.5637  2.3524 -0.7952
 7997SOL    HW224357   5.968   5.320   2.182 -2.1854 -0.3654 -3.3651
 7998SOL     OW24358   2.828   2.870   0.315  0.2835  0.5090 -0.3991
 7998SOL    HW124359   2.769   2.870   0.391  0.8639  0.7861  0.0623
 7998SOL    HW224360   2.842   2.962   0.297  1.9885  0.4845  0.6285
 7999SOL     OW24361   1.348   5.771   5.214 -0.3314  0.3646 -0.7010
 7999SOL    HW124362   1.405   5.842   5.183  1.6637 -1.7723 -2.3294
 7999SOL    HW224363   1.388   5.692   5.179 -1.7976 -1.7220  2.0025
 8000SOL     OW24364   0.242   6.639   5.086 -0.6154  0.7553  0.4224
 8000SOL    HW124365   0.180   6.667   5.154  1.1939 -0.0609  2.5094
 8000SOL    HW224366   0.290   6.567   5.126  2.3058  1.9311 -0.7481
 8001SOL     OW24367   2.985   6.136   6.548  0.5071  0.6052  0.5263
 8001SOL    HW124368   3.027   6.067   6.599  1.1491  1.3787  1.0723
 8001SOL    HW224369   2.901   6.150   6.591  1.1040  1.3476  1.4810
 8002SOL     OW24370   3.741   3.384   1.440 -0.1278 -0.5807 -0.1127
 8002SOL    HW124371   3.645   3.385   1.436 -0.1754  2.2117  0.2229
 8002SOL    HW224372   3.761   3.332   1.518 -1.4764  0.5763  1.0491
 8003SOL     OW24373   3.230   1.420   0.716  0.4212 -0.1985 -0.3891
 8003SOL    HW124374   3.244   1.478   0.791  2.8190  0.0753 -0.9986
 8003SOL    HW224375   3.200   1.478   0.646  2.0139  0.2176 -0.7572
 8004SOL     OW24376   6.417   3.896   1.011  0.6560  0.4823  0.4155
 8004SOL    HW124377   6.370   3.814   0.998 -0.3625  0.9370  1.1589
 8004SOL    HW224378   6.499   3.870   1.053  0.2134 -0.1261  0.9168
 8005SOL     OW24379   3.139   1.182   1.871 -0.3043  0.3189 -0.3380
 8005SOL    HW124380   3.229   1.213   1.857  0.5604 -0.7891  2.0555
 8005SOL    HW224381   3.119   1.131   1.793  2.3368 -1.8692  0.2433
 8006SOL     OW24382   0.598   2.056   1.736 -0.0856 -0.2900 -0.2113
 8006SOL    HW124383   0.510   2.088   1.758  0.0590 -0.8607  1.3587
 8006SOL    HW224384   0.586   2.007   1.655 -0.7982  1.4509 -1.1921
 8007SOL     OW24385   6.611   5.357   2.039 -0.2262  0.4743  0.0062
 8007SOL    HW124386   6.679   5.294   2.017 -0.3045  0.2090  0.5095
 8007SOL    HW224387   6.640   5.439   1.998  0.5041  0.4163  0.3932
 8008SOL     OW24388   2.639   3.074   5.268  0.4829  0.3925  0.1768
 8008SOL    HW124389   2.655   3.112   5.354  2.4709  0.9203 -0.3870
 8008SOL    HW224390   2.717   3.094   5.217 -0.8292  0.5175 -1.9280
 8009SOL     OW24391   5.516   3.894   5.201 -0.5683 -0.2238 -0.3188
 8009SOL    HW124392   5.536   3.936   5.117 -0.7337  0.9741  0.2297
 8009SOL    HW224393   5.456   3.955   5.244 -0.6367 -0.9283  0.5954
 8010SOL     OW24394   2.071   1.131   4.900 -0.0622 -0.3339  0.4875
 8010SOL    HW124395   1.987   1.086   4.904 -0.3657  0.2929  1.3892
 8010SOL    HW224396   2.115   1.092   4.825 -1.2440 -0.5086 -0.1355
 8011SOL     OW24397   3.798   4.242   6.628  0.0830  0.2358 -0.6121
 8011SOL    HW124398   3.706   4.254   6.653 -0.1617  0.4811 -1.6062
 8011SOL    HW224399   3.796   4.174   6.561  0.8803 -1.3910  0.9352
 8012SOL     OW24400   2.804   6.695   3.765  0.2647  0.0769  0.0606
 8012SOL    HW124401   2.725   6.702   3.819  0.0724  0.3165 -0.2510
 8012SOL    HW224402   2.859   6.768   3.794  0.5814 -0.3732  0.6135
 8013SOL     OW24403   6.484   4.964   4.238 -0.1812 -0.3667  0.5127
 8013SOL    HW124404   6.534   5.009   4.306 -0.2109  0.7875 -0.1915
 8013SOL    HW224405   6.409   5.021   4.223 -0.8060 -1.2239  0.3626
 8014SOL     OW24406   5.796   4.422   6.134  0.4798  0.8298 -0.1648
 8014SOL    HW124407   5.874   4.368   6.128  0.0623  0.3512 -1.6837
 8014SOL    HW224408   5.723   4.360   6.122 -0.3838  0.7518  3.8880
 8015SOL     OW24409   2.358   6.681   2.299  0.4436 -0.4834  0.7428
 8015SOL    HW124410   2.453   6.686   2.299  0.5776 -1.4741  3.1905
 8015SOL    HW224411   2.337   6.608   2.241  1.3486 -1.7309  1.9312
 8016SOL     OW24412   1.557   2.552   0.154 -0.5592 -0.2353  0.1206
 8016SOL    HW124413   1.584   2.560   0.062 -0.0816  3.7663  0.4182
 8016SOL    HW224414   1.463   2.565   0.153 -0.3757  1.2572  0.2486
 8017SOL     OW24415   3.278   6.581   1.432  0.1488  0.4478  0.3763
 8017SOL    HW124416   3.226   6.616   1.360 -0.3052  0.5594  0.7563
 8017SOL    HW224417   3.368   6.579   1.398 -0.3270 -1.4062 -0.9052
 8018SOL     OW24418   1.050   3.399   1.042  0.2667  0.1191 -0.4931
 8018SOL    HW124419   0.997   3.474   1.014 -0.3386  0.2433  0.9204
 8018SOL    HW224420   1.131   3.437   1.075  1.0841 -0.0429 -2.1752
 8019SOL     OW24421   5.244   0.978   1.947  0.4063 -0.5125 -0.0674
 8019SOL    HW124422   5.279   0.924   1.876 -0.1455 -0.7949 -0.1281
 8019SOL    HW224423   5.151   0.988   1.926  0.6787  1.3739 -0.6506
 8020SOL     OW24424   5.627   0.726   6.059  0.2517  0.0117  0.3925
 8020SOL    HW124425   5.683   0.733   6.136 -0.0445 -0.0103  0.6082
 8020SOL    HW224426   5.619   0.632   6.043  0.0696  0.0071  0.5115
 8021SOL     OW24427   1.002   5.095   1.891  0.2492  0.1580  0.0067
 8021SOL    HW124428   1.094   5.113   1.906 -0.3656  2.4037  1.6077
 8021SOL    HW224429   0.966   5.175   1.853 -0.7185 -1.3585 -2.5483
 8022SOL     OW24430   4.813   6.341   1.675  0.1515 -0.8493 -0.0793
 8022SOL    HW124431   4.781   6.393   1.601 -1.7463  1.0871  1.9481
 8022SOL    HW224432   4.770   6.256   1.665 -1.0573 -0.2051 -0.5938
 8023SOL     OW24433   3.423   4.638   3.600 -0.1578  0.1520  0.0994
 8023SOL    HW124434   3.369   4.559   3.595 -0.2134  0.0963  1.3960
 8023SOL    HW224435   3.511   4.608   3.579 -0.4429  0.0784 -1.1080
 8024SOL     OW24436   3.660   3.355   0.945 -0.0779 -0.0224 -0.1317
 8024SOL    HW124437   3.697   3.295   1.010  0.1022 -1.6760 -1.6505
 8024SOL    HW224438   3.616   3.297   0.883  0.5470  1.3993 -1.9766
 8025SOL     OW24439   0.728   2.535   0.597 -0.6361  0.0161 -0.1127
 8025SOL    HW124440   0.818   2.565   0.601 -0.2129 -1.1670 -0.5465
 8025SOL    HW224441   0.676   2.615   0.607  0.4342  0.6013  1.1735
 8026SOL     OW24442   6.706   1.001   2.558 -0.0207 -0.1863  0.1453
 8026SOL    HW124443   6.614   0.985   2.576  0.3151 -0.6924  1.5014
 8026SOL    HW224444   6.715   1.096   2.562 -0.7633 -0.0040 -1.5654
 8027SOL     OW24445   3.627   5.102   0.837  0.0112 -0.0167  0.2916
 8027SOL    HW124446   3.695   5.169   0.828 -0.1883  0.3836  1.6447
 8027SOL    HW224447   3.663   5.025   0.792 -0.9656  1.7541 -4.0869
 8028SOL     OW24448   3.206   3.861   0.104  0.1512 -0.3247 -0.2464
 8028SOL    HW124449   3.184   3.924   0.036 -0.4162 -0.4214 -0.1598
 8028SOL    HW224450   3.298   3.840   0.089  0.0276 -0.3513 -0.9894
 8029SOL     OW24451   4.655   6.589   3.399  0.1735  0.5706 -0.5216
 8029SOL    HW124452   4.636   6.683   3.409 -2.3705 -0.0211  1.1879
 8029SOL    HW224453   4.586   6.558   3.340  1.9680 -0.0155 -2.4238
 8030SOL     OW24454   1.824   1.772   1.736  0.4688 -0.1267 -0.1652
 8030SOL    HW124455   1.756   1.728   1.685 -1.2918 -0.8157  2.6000
 8030SOL    HW224456   1.864   1.702   1.788  2.0713  0.5769 -0.4023
 8031SOL     OW24457   4.963   3.984   2.437 -0.2906 -0.0516 -0.2294
 8031SOL    HW124458   5.025   4.024   2.376  2.7109 -2.7746  0.7501
 8031SOL    HW224459   4.916   3.918   2.386  0.1173 -0.3318 -0.2454
 8032SOL     OW24460   2.470   5.953   2.972  0.2272  0.2818  0.5191
 8032SOL    HW124461   2.395   5.999   2.933  1.0113  1.1595 -0.0047
 8032SOL    HW224462   2.545   5.985   2.923  1.2133  1.0499  2.4277
 8033SOL     OW24463   6.430   2.052   0.519 -0.2300 -0.2130 -0.4372
 8033SOL    HW124464   6.492   1.997   0.568  1.0553  1.9273  0.5164
 8033SOL    HW224465   6.411   2.124   0.578 -0.8826  1.0084 -2.0637
 8034SOL     OW24466   6.713   3.783   2.349 -0.3058  0.2553 -0.4870
 8034SOL    HW124467   6.703   3.755   2.258  0.6657  1.0079 -0.8406
 8034SOL    HW224468   6.628   3.822   2.372 -0.5865 -0.0219 -1.0371
 8035SOL     OW24469   3.858   0.170   0.321 -0.2605 -0.1383  0.1508
 8035SOL    HW124470   3.803   0.114   0.266  0.9054 -0.7998 -0.3806
 8035SOL    HW224471   3.944   0.166   0.280  0.6599 -0.6479  2.0421
 8036SOL     OW24472   4.412   2.620   3.854 -0.1799  0.1895 -0.5982
 8036SOL    HW124473   4.403   2.714   3.871 -0.4913  0.1702 -0.6522
 8036SOL    HW224474   4.488   2.613   3.796  1.4500  0.1880  1.4134
 8037SOL     OW24475   3.301   4.782   1.485  0.2876  0.0766  0.2846
 8037SOL    HW124476   3.354   4.803   1.561  0.3671 -0.1843  0.3017
 8037SOL    HW224477   3.225   4.840   1.492 -0.3563 -0.8327  1.2685
 8038SOL     OW24478   5.869   2.033   4.840  0.0127  0.0473  0.1013
 8038SOL    HW124479   5.851   2.077   4.757  0.2337  1.3707  0.7440
 8038SOL    HW224480   5.912   2.099   4.894  0.8280 -1.1120  0.9162
 8039SOL     OW24481   1.946   5.557   1.119 -0.0038 -0.5124  0.1892
 8039SOL    HW124482   2.024   5.526   1.166  0.2379  0.9765  0.8222
 8039SOL    HW224483   1.972   5.642   1.083 -1.1862 -0.2089  0.0138
 8040SOL     OW24484   0.082   6.569   4.267 -0.1844 -0.3126 -0.2650
 8040SOL    HW124485   0.136   6.570   4.189 -0.2975 -0.0403 -0.3391
 8040SOL    HW224486   0.032   6.650   4.264 -0.6412 -0.5864 -0.2291
 8041SOL     OW24487   1.034   5.806   1.547 -0.3085 -0.6029  0.4171
 8041SOL    HW124488   1.124   5.828   1.525  0.0691 -0.8537  1.6471
 8041SOL    HW224489   0.988   5.806   1.463  0.8660 -0.6314 -0.2457
 8042SOL     OW24490   2.618   0.470   3.228  0.2566  0.4226 -0.0087
 8042SOL    HW124491   2.683   0.515   3.175  1.3547  0.9951  1.7157
 8042SOL    HW224492   2.535   0.510   3.204  0.5921  0.1158 -1.8168
 8043SOL     OW24493   2.207   5.041   4.030  0.3167  0.1826  0.0083
 8043SOL    HW124494   2.236   4.950   4.026 -0.2452  0.0308 -0.8825
 8043SOL    HW224495   2.147   5.044   4.105 -3.1282 -1.2699 -2.4534
 8044SOL     OW24496   2.258   5.636   0.815 -0.2895  0.1140  0.8063
 8044SOL    HW124497   2.268   5.546   0.848  0.0519 -0.7108 -1.3576
 8044SOL    HW224498   2.339   5.654   0.768 -0.5904  1.3472  0.7204
 8045SOL     OW24499   1.073   3.491   5.198 -0.6446 -0.3604 -0.0236
 8045SOL    HW124500   1.158   3.476   5.156 -0.7366 -0.5457 -0.1446
 8045SOL    HW224501   1.057   3.585   5.186 -0.6454 -0.4013 -0.3554
 8046SOL     OW24502   1.014   0.231   4.888  0.5549  0.4721 -0.0554
 8046SOL    HW124503   1.010   0.326   4.897  0.7657  0.5595 -0.8897
 8046SOL    HW224504   0.922   0.204   4.880  0.5680  0.7502 -1.2627
 8047SOL     OW24505   0.755   2.712   5.623 -0.3330 -0.0626  0.5413
 8047SOL    HW124506   0.766   2.784   5.685 -1.1583  0.1796  0.4258
 8047SOL    HW224507   0.683   2.741   5.567  0.5300 -0.1877 -0.6576
 8048SOL     OW24508   4.145   3.204   3.646  0.2382 -0.1188 -0.2570
 8048SOL    HW124509   4.149   3.141   3.717  0.3748  0.8347  0.6107
 8048SOL    HW224510   4.148   3.289   3.690  0.9355  0.4879 -1.4328
 8049SOL     OW24511   6.348   3.745   4.624 -0.3819 -0.1193 -0.6163
 8049SOL    HW124512   6.338   3.650   4.617  0.4816 -0.4583  1.7498
 8049SOL    HW224513   6.263   3.775   4.658 -0.2486 -0.2374 -0.1662
 8050SOL     OW24514   2.569   5.035   2.041 -0.0613 -0.3157  0.0476
 8050SOL    HW124515   2.505   5.053   1.972  1.6737  0.3864 -1.4530
 8050SOL    HW224516   2.532   5.076   2.119 -1.2318  0.4837 -0.8842
 8051SOL     OW24517   2.450   1.639   2.173  0.0863 -0.5916 -0.7927
 8051SOL    HW124518   2.507   1.624   2.248  0.5543  0.1794 -0.9808
 8051SOL    HW224519   2.372   1.587   2.192  0.0738 -0.1915  0.3732
 8052SOL     OW24520   1.232   5.831   2.481 -0.1647 -0.2208 -0.4094
 8052SOL    HW124521   1.268   5.744   2.499  0.9869  0.2185 -0.5318
 8052SOL    HW224522   1.278   5.861   2.404 -0.2034  0.7006 -0.0865
 8053SOL     OW24523   4.716   3.390   4.997 -0.5510  0.9703  0.8481
 8053SOL    HW124524   4.797   3.422   5.038 -0.2605  0.1834  0.9061
 8053SOL    HW224525   4.747   3.338   4.923 -0.9850  0.3467  1.0964
 8054SOL     OW24526   4.380   3.843   6.776 -0.4941  0.1642  0.2765
 8054SOL    HW124527   4.455   3.889   6.736  0.1890  0.5653  1.9113
 8054SOL    HW224528   4.384   3.755   6.740  0.4706  0.3278 -0.0560
 8055SOL     OW24529   3.294   2.960   6.051 -0.4182 -0.3357 -0.1026
 8055SOL    HW124530   3.323   2.911   5.973  0.6837 -2.2645  1.4373
 8055SOL    HW224531   3.199   2.959   6.044 -0.3459 -0.0025 -1.6854
 8056SOL     OW24532   4.854   3.733   4.822  0.1277 -0.2043 -0.4292
 8056SOL    HW124533   4.899   3.652   4.848 -2.0621 -0.8135  1.8569
 8056SOL    HW224534   4.782   3.703   4.766 -0.2323  0.2352 -0.2072
 8057SOL     OW24535   4.175   5.774   3.185  0.0963 -0.1479  0.1366
 8057SOL    HW124536   4.139   5.687   3.170 -0.9666  0.4795 -1.2616
 8057SOL    HW224537   4.249   5.761   3.244 -0.4619 -1.8974  0.4784
 8058SOL     OW24538   1.705   1.131   0.640  0.0894  0.2620  0.2587
 8058SOL    HW124539   1.636   1.066   0.648 -2.0531  1.8387 -3.3094
 8058SOL    HW224540   1.786   1.080   0.633 -1.0485 -1.7800  1.3552
 8059SOL     OW24541   5.000   2.052   0.214 -0.8177 -0.1346  1.1949
 8059SOL    HW124542   5.030   2.128   0.264 -3.3954  1.1873  0.9113
 8059SOL    HW224543   4.970   1.990   0.281 -0.5845 -0.0593  1.3728
 8060SOL     OW24544   1.223   5.790   1.325 -0.1147 -0.3549  0.1769
 8060SOL    HW124545   1.296   5.792   1.263 -0.0537  2.2987  0.2291
 8060SOL    HW224546   1.146   5.813   1.273 -0.1392  1.4206  0.9177
 8061SOL     OW24547   3.487   4.058   3.267 -0.3030  0.0431 -0.7547
 8061SOL    HW124548   3.521   4.073   3.179 -1.0976  3.2669 -0.6276
 8061SOL    HW224549   3.392   4.071   3.259 -0.3036  1.2473  0.6799
 8062SOL     OW24550   2.741   3.710   2.575 -0.2987  0.2049 -0.2228
 8062SOL    HW124551   2.825   3.747   2.601 -0.1529  1.0308 -1.7333
 8062SOL    HW224552   2.691   3.706   2.656  1.2688 -0.5633  0.7562
 8063SOL     OW24553   2.095   3.385   6.266 -0.0995  0.1696 -0.0035
 8063SOL    HW124554   2.021   3.327   6.251 -0.2926  0.2611  0.5712
 8063SOL    HW224555   2.056   3.471   6.282  0.2184  0.6968 -1.8225
 8064SOL     OW24556   5.419   0.930   3.784 -0.4662 -0.2058 -0.2013
 8064SOL    HW124557   5.480   0.919   3.711 -0.4114 -0.0336 -0.1808
 8064SOL    HW224558   5.403   0.841   3.816  1.2385 -0.1236  1.0017
 8065SOL     OW24559   3.431   0.635   5.365 -0.1469  0.0949  0.0834
 8065SOL    HW124560   3.481   0.676   5.295  2.2634  1.4523  2.4316
 8065SOL    HW224561   3.382   0.564   5.321  3.4817 -1.1105 -2.5055
 8066SOL     OW24562   1.336   3.640   6.276  0.0597 -0.5786  0.1568
 8066SOL    HW124563   1.389   3.606   6.347  1.0078 -0.0024 -0.2605
 8066SOL    HW224564   1.320   3.564   6.219  2.0117 -0.4150 -0.6828
 8067SOL     OW24565   0.684   1.607   3.261 -0.0958  0.0270  0.1595
 8067SOL    HW124566   0.609   1.660   3.235  0.0257  0.8543  1.4058
 8067SOL    HW224567   0.706   1.557   3.183 -1.0747  0.7911 -0.6380
 8068SOL     OW24568   5.755   1.439   2.111 -0.2460  0.3447  0.1251
 8068SOL    HW124569   5.664   1.442   2.082 -0.3791  0.1781  0.5152
 8068SOL    HW224570   5.754   1.481   2.197  0.2650  1.5009 -0.4204
 8069SOL     OW24571   3.040   3.819   0.331 -0.0810 -0.2467  0.7517
 8069SOL    HW124572   2.946   3.831   0.318  0.1073  0.2864 -0.2118
 8069SOL    HW224573   3.076   3.817   0.242  0.8842  0.1032  1.1276
 8070SOL     OW24574   4.518   0.207   3.476  0.0482 -0.0120 -0.1270
 8070SOL    HW124575   4.542   0.234   3.388  0.0773 -0.5246 -0.2781
 8070SOL    HW224576   4.602   0.200   3.522  0.2084 -1.5392 -0.5803
 8071SOL     OW24577   5.508   4.309   0.169 -0.1062  0.0000  0.0691
 8071SOL    HW124578   5.466   4.224   0.155 -0.8049  0.6014 -1.8654
 8071SOL    HW224579   5.496   4.328   0.262 -1.7992 -1.0618  0.1014
 8072SOL     OW24580   6.718   6.475   2.821  0.0733 -0.5309  0.7629
 8072SOL    HW124581   6.622   6.469   2.823  0.0568 -0.2509  1.1146
 8072SOL    HW224582   6.737   6.551   2.876  0.5819 -1.5721  2.0875
 8073SOL     OW24583   1.437   6.192   2.009  0.0650 -0.0784 -0.1214
 8073SOL    HW124584   1.373   6.139   1.962  0.5093 -0.6118 -0.1308
 8073SOL    HW224585   1.414   6.181   2.102 -0.1869  0.1666 -0.1524
 8074SOL     OW24586   4.612   1.634   6.734  0.1188  0.0056 -0.0299
 8074SOL    HW124587   4.614   1.564   6.800  2.4515 -0.4273 -0.4718
 8074SOL    HW224588   4.696   1.678   6.743 -0.7846  1.9589 -0.6570
 8075SOL     OW24589   2.816   5.441   1.620 -0.8943 -0.5742  0.4220
 8075SOL    HW124590   2.807   5.363   1.676 -0.5845 -1.0822 -0.2213
 8075SOL    HW224591   2.740   5.495   1.642 -0.7562 -0.7449  1.3634
 8076SOL     OW24592   6.449   2.227   1.131 -0.0626  0.0828  0.8967
 8076SOL    HW124593   6.511   2.229   1.058 -0.3933  0.3401  0.6178
 8076SOL    HW224594   6.364   2.209   1.090 -0.1057 -0.7317  1.3284
 8077SOL     OW24595   2.588   0.163   5.205  0.0796 -0.1096  0.1884
 8077SOL    HW124596   2.584   0.207   5.290 -1.5421 -0.1141  0.1495
 8077SOL    HW224597   2.524   0.092   5.211  2.3680 -2.3383  0.1262
 8078SOL     OW24598   2.594   0.660   4.023 -0.6452  0.4306  0.6063
 8078SOL    HW124599   2.678   0.699   4.051 -0.4539  0.6693 -0.2870
 8078SOL    HW224600   2.562   0.719   3.955 -0.6631 -0.6216 -0.3255
 8079SOL     OW24601   4.492   0.192   4.864 -0.4679 -0.2179  0.2794
 8079SOL    HW124602   4.453   0.156   4.943  0.6840  0.9399  1.4359
 8079SOL    HW224603   4.439   0.270   4.844 -1.4240 -1.0939 -0.7666
 8080SOL     OW24604   5.205   5.823   3.006 -0.5790 -0.8524  0.5130
 8080SOL    HW124605   5.113   5.814   2.981 -0.2825 -0.0979 -0.9545
 8080SOL    HW224606   5.254   5.791   2.930  0.4017 -2.2800  1.6851
 8081SOL     OW24607   1.472   3.487   2.007 -0.0394 -0.0178  0.1935
 8081SOL    HW124608   1.445   3.481   2.099 -0.1354  2.7609  0.4270
 8081SOL    HW224609   1.394   3.463   1.957 -0.2174 -0.8087  0.8370
 8082SOL     OW24610   3.545   0.867   4.856  0.0645  0.0157 -0.0422
 8082SOL    HW124611   3.562   0.862   4.762  1.4940 -0.3550  0.2060
 8082SOL    HW224612   3.614   0.924   4.890 -1.3824  1.4793  0.5959
 8083SOL     OW24613   1.295   1.625   1.270  0.3794 -0.6098  0.0830
 8083SOL    HW124614   1.284   1.613   1.176  0.0231 -0.7113  0.1368
 8083SOL    HW224615   1.390   1.633   1.282  0.3496  0.6795 -0.4284
 8084SOL     OW24616   4.297   0.939   1.863  0.2392 -0.1856  0.4069
 8084SOL    HW124617   4.382   0.981   1.849  0.2392 -0.8111 -1.7403
 8084SOL    HW224618   4.317   0.863   1.918  1.4732 -1.5337 -1.7889
 8085SOL     OW24619   3.365   0.244   5.730 -0.1741  0.0072 -0.1992
 8085SOL    HW124620   3.295   0.229   5.794  0.8752  2.5835  1.7217
 8085SOL    HW224621   3.331   0.311   5.671  0.3728  0.7260  0.2871
 8086SOL     OW24622   4.261   0.415   1.716 -0.0600 -0.6253  0.3345
 8086SOL    HW124623   4.252   0.322   1.693  2.7120 -0.8972  0.0396
 8086SOL    HW224624   4.318   0.416   1.792  0.0753  0.8471  0.2437
 8087SOL     OW24625   0.411   6.419   0.356  0.2011  0.3728  0.3927
 8087SOL    HW124626   0.446   6.407   0.445  2.1212  0.7522 -0.2750
 8087SOL    HW224627   0.355   6.342   0.342  0.0421  0.1980  1.8395
 8088SOL     OW24628   1.668   6.146   6.373  0.2402 -0.0139  0.3738
 8088SOL    HW124629   1.593   6.200   6.398  0.0172 -0.5788  0.9410
 8088SOL    HW224630   1.728   6.153   6.447  1.1450  1.1240 -0.4282
 8089SOL     OW24631   2.830   4.874   1.100 -0.4924 -0.1120 -0.1829
 8089SOL    HW124632   2.878   4.791   1.103 -0.0854 -0.0324 -2.6035
 8089SOL    HW224633   2.776   4.867   1.021 -1.7870  1.2536  0.5284
 8090SOL     OW24634   1.647   6.185   3.909 -0.1645 -0.0788 -0.3088
 8090SOL    HW124635   1.639   6.126   3.834 -0.4052 -0.9209  0.3646
 8090SOL    HW224636   1.713   6.143   3.965  1.0841  1.2660 -0.6962
 8091SOL     OW24637   1.765   2.245   2.267 -0.0783 -0.7671 -0.0677
 8091SOL    HW124638   1.726   2.171   2.312 -0.9483  0.3434  1.0873
 8091SOL    HW224639   1.733   2.322   2.315  0.1262  0.3989 -1.7164
 8092SOL     OW24640   3.588   0.564   3.038  0.0300  0.1721  0.0464
 8092SOL    HW124641   3.600   0.502   2.966  1.2242  0.3364  0.0861
 8092SOL    HW224642   3.636   0.525   3.112  1.5387  1.5307 -0.1713
 8093SOL     OW24643   0.490   5.256   5.760 -0.2391 -0.1050 -0.2850
 8093SOL    HW124644   0.414   5.209   5.795  0.5584 -2.1687 -1.1532
 8093SOL    HW224645   0.457   5.302   5.683 -0.6334 -0.9792 -0.6486
 8094SOL     OW24646   1.126   2.058   2.786  0.4954 -0.3266 -0.3323
 8094SOL    HW124647   1.102   2.070   2.694  1.3760  0.9541 -0.4178
 8094SOL    HW224648   1.053   2.008   2.823  0.1424 -0.9108 -1.7206
 8095SOL     OW24649   0.622   2.283   5.262 -0.2063  0.0947 -0.2911
 8095SOL    HW124650   0.697   2.224   5.268 -1.4624 -1.6156 -0.6714
 8095SOL    HW224651   0.580   2.262   5.179 -1.0531  1.0986 -0.1464
 8096SOL     OW24652   5.386   2.467   1.172 -0.1709 -0.0112 -0.0464
 8096SOL    HW124653   5.325   2.465   1.246  2.6091 -0.0611  2.4008
 8096SOL    HW224654   5.402   2.560   1.156  0.0419 -0.0220  0.1091
 8097SOL     OW24655   2.342   5.244   0.046 -0.1642  1.1684 -0.2304
 8097SOL    HW124656   2.392   5.198   0.112 -0.4471 -0.2218 -0.9555
 8097SOL    HW224657   2.291   5.309   0.095  0.6990  1.1351  0.7326
 8098SOL     OW24658   1.792   6.370   3.021  0.2606 -0.1931 -0.2002
 8098SOL    HW124659   1.737   6.404   3.092  0.1239 -0.4397 -0.1864
 8098SOL    HW224660   1.850   6.442   2.999 -1.2968  0.7325 -1.4790
 8099SOL     OW24661   6.121   2.907   6.121  0.3782  0.2162  0.5819
 8099SOL    HW124662   6.097   2.951   6.040  0.9131  0.5276  0.5835
 8099SOL    HW224663   6.212   2.879   6.107 -0.0215 -1.0886  0.4975
 8100SOL     OW24664   2.749   1.050   1.626 -0.1302 -0.5506  0.3641
 8100SOL    HW124665   2.822   1.096   1.669 -2.3685  2.4325  1.2545
 8100SOL    HW224666   2.721   1.109   1.556 -2.0158 -1.3879  0.3579
 8101SOL     OW24667   3.277   1.086   6.338 -0.2474  0.5160  0.4629
 8101SOL    HW124668   3.264   1.137   6.418 -4.0697 -0.2696  0.5325
 8101SOL    HW224669   3.253   1.146   6.268  0.5096  0.3924  0.0892
 8102SOL     OW24670   0.034   0.378   2.364  0.2392  0.1644 -0.0822
 8102SOL    HW124671   0.079   0.463   2.361 -1.2172  0.9892  0.3568
 8102SOL    HW224672   0.007   0.363   2.273 -2.1376  1.7040  0.2923
 8103SOL     OW24673   4.640   0.004   2.553 -0.3288  0.2857 -0.6913
 8103SOL    HW124674   4.618  -0.088   2.564 -1.7659  0.6821  0.1683
 8103SOL    HW224675   4.735   0.006   2.545 -0.0904 -1.1336  1.1092
 8104SOL     OW24676   0.288   6.232   4.668  0.2757 -0.6310  0.3348
 8104SOL    HW124677   0.217   6.195   4.721 -0.8470  0.4877 -0.3349
 8104SOL    HW224678   0.259   6.218   4.578 -0.1602  1.7210  0.0519
 8105SOL     OW24679   5.256   4.237   6.098 -0.0801  0.1296 -0.5453
 8105SOL    HW124680   5.286   4.146   6.105  2.0297  0.8461  0.8261
 8105SOL    HW224681   5.336   4.288   6.088 -1.1370  1.9187 -0.3869
 8106SOL     OW24682   2.183   1.913   1.320 -0.1659  0.5198 -0.4630
 8106SOL    HW124683   2.132   1.968   1.262  0.8902  1.5892 -0.4157
 8106SOL    HW224684   2.155   1.937   1.408 -1.6965 -1.0317 -0.4758
 8107SOL     OW24685   2.438   0.656   6.538 -0.6858  0.7162  0.4912
 8107SOL    HW124686   2.349   0.623   6.533  0.1560 -1.6851 -0.1518
 8107SOL    HW224687   2.438   0.735   6.485 -1.9602 -0.4645 -1.3835
 8108SOL     OW24688   4.015   4.081   0.835 -0.3369 -0.1487  0.0441
 8108SOL    HW124689   3.948   4.048   0.774 -0.8671 -0.8281  0.9737
 8108SOL    HW224690   4.007   4.025   0.912  1.6621 -0.5690 -0.0152
 8109SOL     OW24691   5.022   4.744   2.917 -0.8270  0.3239 -0.2814
 8109SOL    HW124692   4.980   4.821   2.877  1.9867  2.5569  0.6948
 8109SOL    HW224693   5.070   4.703   2.846  0.8024  1.8538 -0.1472
 8110SOL     OW24694   1.552   4.558   3.744  0.0437  0.9974  0.3015
 8110SOL    HW124695   1.537   4.473   3.785 -0.0527 -0.1970 -2.0025
 8110SOL    HW224696   1.599   4.536   3.662  1.3195  3.3034  0.3362
 8111SOL     OW24697   3.043   5.222   3.312  0.2095 -0.5370 -0.1581
 8111SOL    HW124698   3.112   5.179   3.262 -0.9257 -1.7644 -0.7283
 8111SOL    HW224699   2.971   5.233   3.250  0.0501  1.2206  0.2750
 8112SOL     OW24700   0.119   4.901   4.739 -0.2289 -0.0207  0.1143
 8112SOL    HW124701   0.139   4.813   4.710  2.3477  0.7816 -0.8784
 8112SOL    HW224702   0.090   4.947   4.661  0.9272  0.6132  0.0247
 8113SOL     OW24703   5.792   1.546   5.952 -0.4014  0.6560 -0.2625
 8113SOL    HW124704   5.706   1.540   5.994  0.0653  1.5131  0.8646
 8113SOL    HW224705   5.773   1.563   5.860 -1.4335  1.4766  0.0850
 8114SOL     OW24706   4.730   5.760   2.760  0.4327  0.1124  0.0882
 8114SOL    HW124707   4.746   5.761   2.665 -2.1215  0.6547 -0.4000
 8114SOL    HW224708   4.635   5.770   2.769 -0.1461 -4.5723  2.5616
 8115SOL     OW24709   0.480   5.054   2.192  0.3058  0.3986 -0.1179
 8115SOL    HW124710   0.503   4.962   2.178 -0.3629  0.1629  0.2792
 8115SOL    HW224711   0.388   5.060   2.166 -0.0097  0.6787  1.0030
 8116SOL     OW24712   6.766   0.137   5.490 -0.3397 -1.2157  0.0947
 8116SOL    HW124713   6.804   0.207   5.543  0.4019 -1.4842 -0.0777
 8116SOL    HW224714   6.754   0.065   5.551  1.3870 -1.8497 -0.2733
 8117SOL     OW24715   2.877   4.493   3.070  0.0364  0.4487  0.4786
 8117SOL    HW124716   2.882   4.494   2.975  0.0189 -0.5675  0.4597
 8117SOL    HW224717   2.967   4.473   3.098 -0.8048 -4.4684  0.4913
 8118SOL     OW24718   6.387   1.921   2.454  0.4898 -0.0434  0.0640
 8118SOL    HW124719   6.433   1.858   2.510  0.5000 -0.0470  0.0515
 8118SOL    HW224720   6.317   1.956   2.510  0.0404 -0.5825 -0.1448
 8119SOL     OW24721   1.157   1.817   5.703  0.0412 -0.4280 -0.4118
 8119SOL    HW124722   1.224   1.780   5.645 -0.3900  0.1791 -1.3224
 8119SOL    HW224723   1.080   1.761   5.688 -0.4905  0.5403 -1.4942
 8120SOL     OW24724   4.288   0.366   4.021  0.5595  0.4770  0.2497
 8120SOL    HW124725   4.364   0.330   4.067  2.0171 -0.6293 -2.7667
 8120SOL    HW224726   4.321   0.447   3.981 -0.4237  1.0100  0.5019
 8121SOL     OW24727   3.472   4.982   6.489  0.3823  0.2976  0.3326
 8121SOL    HW124728   3.515   4.898   6.476 -2.3177 -0.7858 -2.6761
 8121SOL    HW224729   3.403   4.964   6.553 -0.9527 -0.1770 -1.1757
 8122SOL     OW24730   4.408   3.286   1.931 -0.0719  0.3464 -0.0383
 8122SOL    HW124731   4.313   3.282   1.932 -0.0348 -1.3740 -0.4882
 8122SOL    HW224732   4.431   3.344   2.004 -1.4698  1.7301 -0.6405
 8123SOL     OW24733   1.094   4.220   4.137 -0.3570 -0.2294 -0.6332
 8123SOL    HW124734   1.061   4.310   4.135 -0.3888 -0.1996  0.5613
 8123SOL    HW224735   1.031   4.173   4.192  1.3301 -0.2481  1.4035
 8124SOL     OW24736   2.548   2.708   1.281 -0.2307 -0.4562 -0.7606
 8124SOL    HW124737   2.629   2.748   1.313 -0.3980  0.3677 -1.3324
 8124SOL    HW224738   2.562   2.614   1.292 -0.4322 -0.2415  2.0628
 8125SOL     OW24739   5.843   0.625   0.694  0.1911  0.4309  0.1774
 8125SOL    HW124740   5.782   0.553   0.708 -0.7297  0.9779 -0.8202
 8125SOL    HW224741   5.874   0.649   0.781 -0.0891 -0.6610  0.5809
 8126SOL     OW24742   0.575   4.095   5.749  0.3609 -0.3896  0.3770
 8126SOL    HW124743   0.567   4.186   5.776 -1.5622 -0.0037 -1.2957
 8126SOL    HW224744   0.655   4.092   5.696  0.6695  0.2012  0.7998
 8127SOL     OW24745   2.961   6.266   0.969  0.3247 -0.4010  0.0985
 8127SOL    HW124746   3.003   6.331   1.025  2.2660 -1.0069 -0.5837
 8127SOL    HW224747   2.905   6.318   0.911 -2.7777  0.1620  3.2721
 8128SOL     OW24748   5.567   0.260   1.194 -0.1070  0.2608  0.2450
 8128SOL    HW124749   5.534   0.350   1.192 -0.5550  0.1009  0.2485
 8128SOL    HW224750   5.525   0.221   1.271 -0.9923 -0.3436 -0.5171
 8129SOL     OW24751   3.405   0.223   0.702 -0.7544  0.1071 -0.4563
 8129SOL    HW124752   3.492   0.241   0.667 -0.6890 -0.8743 -0.8418
 8129SOL    HW224753   3.401   0.272   0.784  1.1305 -1.7415  0.8658
 8130SOL     OW24754   3.941   4.151   3.671 -0.0868  0.1904 -0.2146
 8130SOL    HW124755   3.988   4.112   3.745 -1.1191 -2.0552 -0.6603
 8130SOL    HW224756   3.856   4.176   3.707 -0.3403 -0.2760 -0.4852
 8131SOL     OW24757   5.966   4.061   5.069 -0.1425 -0.1957 -0.5986
 8131SOL    HW124758   6.034   4.128   5.062 -0.4348  0.1550 -0.1767
 8131SOL    HW224759   6.005   3.983   5.030  0.3307  0.1253 -0.7819
 8132SOL     OW24760   2.032   1.736   3.931 -0.6435 -0.2373  0.4286
 8132SOL    HW124761   2.116   1.726   3.976 -1.0317 -0.8920  1.0247
 8132SOL    HW224762   2.050   1.798   3.860  0.7199 -1.5844 -0.4394
 8133SOL     OW24763   1.168   6.268   4.281 -0.5788 -0.8165  0.5556
 8133SOL    HW124764   1.221   6.218   4.220  1.5470  1.1356  0.6431
 8133SOL    HW224765   1.092   6.297   4.230 -0.0717 -1.2335 -0.4476
 8134SOL     OW24766   5.500   3.620   5.113  0.1445  0.4988  0.6317
 8134SOL    HW124767   5.518   3.706   5.151  0.8543  1.4710 -1.7723
 8134SOL    HW224768   5.574   3.565   5.140  0.6793  1.1804  0.5645
 8135SOL     OW24769   4.758   6.565   1.882  0.3746 -0.4221  0.7711
 8135SOL    HW124770   4.789   6.505   1.815  1.9824  0.3471  0.7835
 8135SOL    HW224771   4.717   6.509   1.948 -1.7066 -1.1592 -1.0298
 8136SOL     OW24772   0.378   6.389   4.851  0.0527  0.0175  0.4235
 8136SOL    HW124773   0.346   6.354   4.768 -1.7391  0.6747  0.7825
 8136SOL    HW224774   0.442   6.456   4.826 -0.0889 -0.1461 -0.4105
 8137SOL     OW24775   1.813   2.048   6.011 -0.3599 -0.7593  0.3912
 8137SOL    HW124776   1.796   2.142   6.002 -1.2199 -1.0166 -0.9332
 8137SOL    HW224777   1.904   2.043   6.042 -0.1486  0.4887  0.0292
 8138SOL     OW24778   1.662   5.389   6.347  0.1405 -0.0735  0.3103
 8138SOL    HW124779   1.710   5.452   6.293 -1.6040  0.2850 -0.9356
 8138SOL    HW224780   1.577   5.432   6.363 -0.1987 -1.1282  1.4554
 8139SOL     OW24781   5.493   0.435   2.483 -0.5186  0.0658 -0.1874
 8139SOL    HW124782   5.473   0.382   2.406 -0.4571  0.4333 -0.4599
 8139SOL    HW224783   5.466   0.381   2.557  0.2845 -0.6785 -0.4170
 8140SOL     OW24784   6.629   2.459   4.249 -0.4224 -0.2958 -0.6582
 8140SOL    HW124785   6.537   2.450   4.223 -0.6289  2.0972 -0.9944
 8140SOL    HW224786   6.636   2.407   4.330 -1.9246 -0.9133 -0.8938
 8141SOL     OW24787   2.773   0.047   3.518  0.4296 -0.0358  0.3898
 8141SOL    HW124788   2.779   0.005   3.604 -1.3701 -1.6548 -0.1682
 8141SOL    HW224789   2.846   0.011   3.468  0.9068  0.1488  0.9568
 8142SOL     OW24790   1.415   4.299   6.463  0.4348  0.1958  0.1391
 8142SOL    HW124791   1.363   4.316   6.542  0.7177 -0.0741  0.3880
 8142SOL    HW224792   1.506   4.302   6.494  0.5169 -2.9284  0.4747
 8143SOL     OW24793   4.006   2.864   5.305 -0.4284 -0.2279 -0.1328
 8143SOL    HW124794   3.986   2.795   5.368  0.0079 -0.1010  0.1446
 8143SOL    HW224795   4.102   2.870   5.305 -0.4759  0.6478  0.1404
 8144SOL     OW24796   3.366   5.447   3.984 -0.5576  0.5703  0.2867
 8144SOL    HW124797   3.354   5.371   4.039 -0.0635  1.1271  1.1789
 8144SOL    HW224798   3.448   5.432   3.937  1.2374  1.8919  2.7814
 8145SOL     OW24799   5.007   5.912   2.196  0.0211  0.1383  0.5423
 8145SOL    HW124800   5.095   5.948   2.196  0.4558 -0.8937  0.6404
 8145SOL    HW224801   4.992   5.883   2.286 -0.6489  0.8308  0.6668
 8146SOL     OW24802   6.303   4.450   2.278  0.0714  0.2683  0.3016
 8146SOL    HW124803   6.258   4.467   2.361  0.7533  1.2122  0.4926
 8146SOL    HW224804   6.381   4.506   2.281 -0.2276  0.8177 -1.2568
 8147SOL     OW24805   4.859   1.153   2.564  0.1175  0.5046 -0.1234
 8147SOL    HW124806   4.849   1.228   2.623  0.7609 -0.0012  0.6600
 8147SOL    HW224807   4.770   1.135   2.532  0.2096  2.8389 -1.9463
 8148SOL     OW24808   2.489   6.625   5.309 -0.0072  0.0179  0.4126
 8148SOL    HW124809   2.453   6.566   5.375 -0.1421 -0.3783 -0.0075
 8148SOL    HW224810   2.432   6.702   5.312  1.0835  0.8281  2.0499
 8149SOL     OW24811   5.619   1.317   5.621 -0.0398 -0.6793  0.1332
 8149SOL    HW124812   5.596   1.408   5.601 -1.5498 -0.7963  1.1824
 8149SOL    HW224813   5.707   1.307   5.586  1.1302  1.8992  2.0213
 8150SOL     OW24814   3.058   1.318   4.839  0.0209 -0.3220  0.9545
 8150SOL    HW124815   3.048   1.225   4.858 -0.6832 -0.5802 -0.5449
 8150SOL    HW224816   3.140   1.324   4.790 -0.8310 -0.4466 -0.5527
 8151SOL     OW24817   2.322   1.034   3.818 -0.5816 -0.8870  0.1119
 8151SOL    HW124818   2.307   1.088   3.741  0.4043  1.6598  1.5780
 8151SOL    HW224819   2.236   0.998   3.840 -1.3186  0.2365 -0.8489
 8152SOL     OW24820   1.896   4.393   3.778  0.2530 -0.3995 -0.0168
 8152SOL    HW124821   1.840   4.418   3.704  1.2192  2.2762  0.0375
 8152SOL    HW224822   1.982   4.429   3.755  0.7908 -0.2703  2.0162
 8153SOL     OW24823   3.319   6.771   5.998 -0.4100  0.4952  0.4363
 8153SOL    HW124824   3.399   6.774   5.946 -0.8961 -1.8809 -0.5764
 8153SOL    HW224825   3.347   6.793   6.086  1.0367  1.3781 -0.2082
 8154SOL     OW24826   5.409   1.066   4.032  0.1006  0.3313 -0.0551
 8154SOL    HW124827   5.416   1.016   3.951 -0.4117  0.9112 -0.4737
 8154SOL    HW224828   5.500   1.080   4.060  0.2570 -0.4845 -0.1374
 8155SOL     OW24829   6.760   0.533   2.621 -0.2400 -0.0539 -0.5560
 8155SOL    HW124830   6.777   0.472   2.549 -0.3711 -0.3942 -0.2966
 8155SOL    HW224831   6.683   0.583   2.591  0.0150  0.1536 -0.8727
 8156SOL     OW24832   2.648   4.772   4.963  0.0105 -0.5581  0.2097
 8156SOL    HW124833   2.711   4.714   5.007 -1.5860 -1.9529  0.7656
 8156SOL    HW224834   2.636   4.845   5.024  1.2283 -0.1538 -0.0053
 8157SOL     OW24835   0.999   4.864   2.364  0.3799 -0.5513  0.1158
 8157SOL    HW124836   0.929   4.845   2.426 -0.3309 -0.3652 -0.6218
 8157SOL    HW224837   0.983   4.804   2.291 -0.6621  1.3740 -1.3065
 8158SOL     OW24838   2.748   1.475   0.501  0.0198  0.0738 -0.1439
 8158SOL    HW124839   2.671   1.420   0.516 -1.0024  0.8252 -2.3071
 8158SOL    HW224840   2.822   1.419   0.526 -1.0136 -2.0469 -1.5174
 8159SOL     OW24841   0.018   2.578   1.186  0.2258 -0.5589  0.2636
 8159SOL    HW124842   0.105   2.615   1.203  1.4958 -2.4789 -1.5498
 8159SOL    HW224843   0.001   2.520   1.259  0.2981  0.0902  0.8033
 8160SOL     OW24844   1.546   3.725   1.549 -0.1782  0.7003 -0.1950
 8160SOL    HW124845   1.463   3.738   1.596 -1.0070  0.6561 -1.5784
 8160SOL    HW224846   1.601   3.798   1.578 -0.2078  0.0089  1.7218
 8161SOL     OW24847   2.241   4.091   6.347  0.2067 -0.6751 -0.1338
 8161SOL    HW124848   2.249   4.136   6.264  1.7145  0.7662  0.7274
 8161SOL    HW224849   2.207   4.004   6.325  1.0613 -0.5057 -2.2871
 8162SOL     OW24850   1.292   5.427   5.214  0.2824 -0.5549 -0.0753
 8162SOL    HW124851   1.292   5.409   5.308  0.2373  0.9006  0.2270
 8162SOL    HW224852   1.200   5.432   5.190  0.2790  0.1685  0.0503
 8163SOL     OW24853   0.916   6.091   4.047  0.0614  0.4855 -0.1368
 8163SOL    HW124854   0.900   6.052   3.962  0.4237  0.3224 -0.1329
 8163SOL    HW224855   1.012   6.094   4.055  0.0875  2.7043 -0.7514
 8164SOL     OW24856   5.922   1.548   3.515 -0.3153  0.7005 -0.2495
 8164SOL    HW124857   5.941   1.641   3.519 -0.6383  0.7270  0.9756
 8164SOL    HW224858   5.967   1.518   3.436 -1.4150  2.1453 -1.4820
 8165SOL     OW24859   6.083   5.611   4.048 -0.4169 -0.2791  0.1667
 8165SOL    HW124860   5.998   5.606   4.091 -0.8080  0.9997 -0.4305
 8165SOL    HW224861   6.125   5.527   4.069 -1.8121 -0.9290  0.4661
 8166SOL     OW24862   6.507   5.099   3.138 -0.0039  0.5729 -0.0885
 8166SOL    HW124863   6.591   5.070   3.172  0.6582  0.4933 -1.7054
 8166SOL    HW224864   6.482   5.173   3.193  0.1294 -0.6516  1.6811
 8167SOL     OW24865   0.860   2.466   5.154  0.0951 -0.1578 -0.5565
 8167SOL    HW124866   0.771   2.487   5.124  0.6008  1.4698 -1.0077
 8167SOL    HW224867   0.847   2.426   5.240 -0.9790  2.5253  0.6324
 8168SOL     OW24868   4.359   5.955   4.540  0.2667  1.2821 -0.0238
 8168SOL    HW124869   4.316   5.910   4.467  2.4537 -1.4927  0.2239
 8168SOL    HW224870   4.344   6.048   4.523  0.0486  0.7311 -3.5798
 8169SOL     OW24871   4.579   4.475   6.216  0.5578 -0.0562 -0.4365
 8169SOL    HW124872   4.540   4.432   6.293  0.0195  1.3818  0.1196
 8169SOL    HW224873   4.570   4.568   6.233  2.6599  0.3390 -1.1235
 8170SOL     OW24874   6.306   2.624   6.239 -0.2180 -0.1162  0.1146
 8170SOL    HW124875   6.240   2.665   6.295  0.3557  1.4363 -0.2881
 8170SOL    HW224876   6.296   2.667   6.154  0.0329 -1.2456 -0.5066
 8171SOL     OW24877   4.382   0.878   2.682 -0.4387 -0.5707  0.4638
 8171SOL    HW124878   4.404   0.897   2.773  1.1475  1.9916 -0.3742
 8171SOL    HW224879   4.300   0.925   2.667 -0.0230  0.0807  0.2224
 8172SOL     OW24880   5.359   4.332   5.686  0.1692  0.5891  0.1746
 8172SOL    HW124881   5.328   4.261   5.743  0.3397 -0.3473 -0.8695
 8172SOL    HW224882   5.426   4.377   5.738  0.1307 -0.0766  0.8171
 8173SOL     OW24883   6.430   6.790   3.797  0.4578 -0.2162 -0.1744
 8173SOL    HW124884   6.525   6.775   3.801  0.6227 -0.0938 -2.3571
 8173SOL    HW224885   6.400   6.732   3.726 -1.2175 -0.6690  0.8536
 8174SOL     OW24886   0.103   0.114   0.637  0.0881 -0.4327 -0.0811
 8174SOL    HW124887   0.068   0.093   0.723  0.5567 -0.9387 -0.0076
 8174SOL    HW224888   0.134   0.030   0.603 -2.1368 -0.6853 -1.7079
 8175SOL     OW24889   4.177   6.344   4.138  0.3370  0.3256  0.2149
 8175SOL    HW124890   4.087   6.334   4.106 -0.3289  2.1639  1.3242
 8175SOL    HW224891   4.228   6.363   4.059 -0.1599 -1.1093 -0.4784
 8176SOL     OW24892   5.251   3.833   5.058  0.3906 -0.2694  0.2143
 8176SOL    HW124893   5.194   3.859   5.130 -0.4738  3.3178 -1.5023
 8176SOL    HW224894   5.338   3.825   5.098 -0.7355 -3.0683  2.3671
 8177SOL     OW24895   3.658   3.164   6.646 -0.0789  0.4688 -0.0653
 8177SOL    HW124896   3.626   3.243   6.603 -0.5519 -0.9204 -2.4150
 8177SOL    HW224897   3.734   3.194   6.698  0.9497  2.1778 -2.3937
 8178SOL     OW24898   3.643   0.222   6.511 -0.0968  0.4255  0.1440
 8178SOL    HW124899   3.606   0.245   6.426  0.0420 -0.1328 -0.0735
 8178SOL    HW224900   3.647   0.304   6.559  1.2651  1.0199 -0.9466
 8179SOL     OW24901   1.405   2.697   4.442 -0.0854  0.2415  0.0615
 8179SOL    HW124902   1.497   2.709   4.467 -0.7964  1.3204  2.4555
 8179SOL    HW224903   1.385   2.773   4.388  0.4540 -0.1436 -0.7164
 8180SOL     OW24904   0.357   0.848   3.671  0.4249  0.6180  0.5531
 8180SOL    HW124905   0.355   0.835   3.577 -1.6172  4.2380 -0.0673
 8180SOL    HW224906   0.319   0.767   3.707 -3.3069  0.9445 -2.1030
 8181SOL     OW24907   1.081   2.413   3.620  0.8147 -0.3231 -0.6002
 8181SOL    HW124908   1.156   2.472   3.615  0.2930  0.3295 -0.9324
 8181SOL    HW224909   1.119   2.325   3.615  1.4739  0.0085 -1.8772
 8182SOL     OW24910   0.165   6.199   4.432 -0.3933 -0.5671  0.4015
 8182SOL    HW124911   0.208   6.208   4.347 -0.7938  0.0244  0.2532
 8182SOL    HW224912   0.097   6.132   4.418 -0.5363 -0.3852  0.2222
 8183SOL     OW24913   4.311   6.495   2.903  0.4318  0.4109  0.1633
 8183SOL    HW124914   4.302   6.585   2.934 -1.8520  0.7647 -1.3363
 8183SOL    HW224915   4.274   6.496   2.815 -1.2300 -2.3387  0.7286
 8184SOL     OW24916   6.060   3.384   4.973  0.4130 -0.0400  0.0950
 8184SOL    HW124917   6.023   3.470   4.993  1.0437  0.1901  0.3269
 8184SOL    HW224918   6.005   3.349   4.903 -1.4001 -0.5235  1.6692
 8185SOL     OW24919   6.343   6.428   6.375 -0.4572 -0.2007 -0.2152
 8185SOL    HW124920   6.319   6.355   6.318 -3.4472 -0.1275  0.7336
 8185SOL    HW224921   6.304   6.407   6.460 -2.9687  3.1094 -0.3167
 8186SOL     OW24922   3.639   1.202   6.000  0.5985  0.4560  0.0892
 8186SOL    HW124923   3.591   1.121   5.985  0.4280  0.7286 -0.8671
 8186SOL    HW224924   3.572   1.263   6.033  1.0143 -0.2064  2.3606
 8187SOL     OW24925   1.202   2.738   3.881  0.1705 -0.0413  0.3862
 8187SOL    HW124926   1.283   2.689   3.886  0.3869  0.4348  2.3781
 8187SOL    HW224927   1.185   2.747   3.787  0.5734 -3.0960 -0.0818
 8188SOL     OW24928   3.593   6.090   3.180  0.2442 -0.1423  0.0048
 8188SOL    HW124929   3.569   6.182   3.168  1.9221  0.3039 -0.2319
 8188SOL    HW224930   3.561   6.068   3.267 -0.5182  0.5496 -0.0876
 8189SOL     OW24931   6.736   1.889   5.461  0.0143  0.2021 -0.1014
 8189SOL    HW124932   6.765   1.851   5.379 -0.5024  0.6573 -0.5034
 8189SOL    HW224933   6.816   1.923   5.502  0.3051 -0.2564 -0.2884
 8190SOL     OW24934   6.727   1.954   1.524 -0.4942 -0.1980 -0.8016
 8190SOL    HW124935   6.678   1.884   1.480 -0.1731 -1.3792  0.6315
 8190SOL    HW224936   6.732   2.024   1.459 -3.2565 -0.3761 -1.3346
 8191SOL     OW24937   0.016   0.677   5.601  0.5734 -0.5628  0.1276
 8191SOL    HW124938  -0.004   0.725   5.682 -0.2871  1.0329 -0.9841
 8191SOL    HW224939  -0.046   0.710   5.537  0.9224 -2.1418 -1.0992
 8192SOL     OW24940   6.515   3.282   6.576  0.2099 -0.1749  0.1037
 8192SOL    HW124941   6.420   3.291   6.569  0.3259  0.6572 -0.6077
 8192SOL    HW224942   6.548   3.309   6.490  1.1441  0.4387  0.6392
 8193SOL     OW24943   1.499   5.851   6.443 -0.3145 -0.0567 -0.7622
 8193SOL    HW124944   1.439   5.870   6.371  1.2663  1.5128 -1.7522
 8193SOL    HW224945   1.465   5.903   6.516 -0.4096  0.4521 -1.1662
 8194SOL     OW24946   0.618   1.583   5.475 -0.1344 -0.3450 -0.1094
 8194SOL    HW124947   0.564   1.592   5.396 -0.8125  1.2948  0.4777
 8194SOL    HW224948   0.708   1.580   5.443 -0.3015  1.6191 -0.9427
 8195SOL     OW24949   1.971   0.011   3.702 -0.3391  0.0096 -0.1939
 8195SOL    HW124950   2.017   0.094   3.709 -1.0214  0.4840 -1.0611
 8195SOL    HW224951   2.038  -0.055   3.718  0.4367  0.7034 -0.4991
 8196SOL     OW24952   4.059   5.503   1.232 -0.0037  0.1088 -0.4855
 8196SOL    HW124953   4.036   5.426   1.179 -1.6793  0.7433 -0.7669
 8196SOL    HW224954   4.084   5.569   1.168 -3.1716  1.2566 -0.7054
 8197SOL     OW24955   4.078   0.452   0.948  0.1382 -0.0149  0.2709
 8197SOL    HW124956   4.084   0.366   0.907  0.1242  0.5866 -1.0659
 8197SOL    HW224957   4.144   0.450   1.018  3.1786  0.1923 -2.3176
 8198SOL     OW24958   4.971   4.156   3.333 -0.1596 -0.1423  0.2795
 8198SOL    HW124959   4.998   4.074   3.375 -0.4196 -0.5393 -0.3146
 8198SOL    HW224960   5.004   4.150   3.244 -1.6210 -0.3633 -0.2800
 8199SOL     OW24961   6.257   4.350   4.423  0.0774 -0.0224  0.2034
 8199SOL    HW124962   6.167   4.365   4.451  0.3663 -0.1910  1.2746
 8199SOL    HW224963   6.256   4.259   4.390 -0.2923  0.2215 -0.4948
 8200SOL     OW24964   5.990   1.116   4.627  0.4223 -0.0040 -0.4605
 8200SOL    HW124965   5.922   1.085   4.687 -0.9914  1.0297 -1.4802
 8200SOL    HW224966   6.013   1.038   4.575  1.6702 -0.9110  1.3494
 8201SOL     OW24967   2.657   0.399   0.211 -0.0636 -0.2686  0.4997
 8201SOL    HW124968   2.583   0.456   0.189  0.0805 -0.6217 -1.0049
 8201SOL    HW224969   2.731   0.458   0.220 -0.3265 -0.0133  1.0490
 8202SOL     OW24970   5.830   3.675   1.196 -0.0178  0.2562 -0.2199
 8202SOL    HW124971   5.737   3.672   1.171 -0.6420  0.1751  1.9475
 8202SOL    HW224972   5.832   3.644   1.286  2.1846 -0.0592 -0.3254
 8203SOL     OW24973   0.432   3.599   3.765 -0.4168 -0.1981 -0.1661
 8203SOL    HW124974   0.475   3.523   3.725 -1.5761 -1.5725  1.0590
 8203SOL    HW224975   0.345   3.566   3.790 -0.6629  1.3194  1.1235
 8204SOL     OW24976   4.887   4.257   2.321 -0.2998  0.5227 -0.4063
 8204SOL    HW124977   4.885   4.188   2.255 -1.9061 -0.3348  0.4776
 8204SOL    HW224978   4.795   4.272   2.344  0.0803  2.2722  0.1444
 8205SOL     OW24979   2.926   2.829   4.165 -0.5682  0.1067 -0.8730
 8205SOL    HW124980   2.931   2.736   4.184  0.8710 -0.0924 -2.0819
 8205SOL    HW224981   2.896   2.834   4.074 -0.3610  0.8187 -0.9091
 8206SOL     OW24982   4.937   4.596   6.635 -0.0831 -0.1274  0.5355
 8206SOL    HW124983   4.918   4.578   6.727  0.0957 -1.3573  0.3414
 8206SOL    HW224984   5.003   4.666   6.638 -0.9892  0.7283  1.2988
 8207SOL     OW24985   2.730   4.480   2.455 -0.2114 -0.2953 -0.4584
 8207SOL    HW124986   2.806   4.519   2.411  0.4407  0.4509  1.2376
 8207SOL    HW224987   2.656   4.502   2.400  0.4002  1.7251 -0.5413
 8208SOL     OW24988   3.260   2.460   3.494  0.0808 -0.5837  0.0185
 8208SOL    HW124989   3.340   2.497   3.531 -0.4509  1.1538 -0.4938
 8208SOL    HW224990   3.195   2.529   3.502 -1.4880 -2.0562  0.6973
 8209SOL     OW24991   3.956   4.147   2.945  0.2975  0.2695  0.0284
 8209SOL    HW124992   3.974   4.095   3.023  1.7932 -0.1013 -0.5325
 8209SOL    HW224993   3.872   4.113   2.913  0.6020 -0.9125  0.4145
 8210SOL     OW24994   5.004   4.077   6.783  0.0039 -0.3789 -0.6818
 8210SOL    HW124995   5.090   4.116   6.794  0.0901 -1.0688  1.5559
 8210SOL    HW224996   5.019   3.983   6.791 -0.9288 -0.5245 -0.5337
 8211SOL     OW24997   4.230   5.687   3.957  0.1837 -0.3620  0.2466
 8211SOL    HW124998   4.224   5.777   3.923  1.9801 -0.4430 -0.4290
 8211SOL    HW224999   4.145   5.648   3.937 -0.8849  1.3600  1.1424
 8212SOL     OW25000   4.802   4.565   4.679  0.1740  0.3504 -0.1011
 8212SOL    HW125001   4.794   4.470   4.692  0.9616  0.1048 -1.2635
 8212SOL    HW225002   4.717   4.591   4.643 -0.3509  0.2539  1.0132
 8213SOL     OW25003   1.671   1.224   1.746 -0.0649  0.3159 -0.1278
 8213SOL    HW125004   1.606   1.271   1.695 -1.1917 -0.0064  0.9745
 8213SOL    HW225005   1.652   1.246   1.837  0.5312 -0.8326  0.3029
 8214SOL     OW25006   5.380   0.907   4.454 -0.3576  0.2244 -0.3199
 8214SOL    HW125007   5.441   0.952   4.512  0.3805  1.0109 -1.6463
 8214SOL    HW225008   5.320   0.861   4.513 -0.1275  1.6122  1.0728
 8215SOL     OW25009   6.363   3.583   5.187  0.4077 -0.4539  0.3988
 8215SOL    HW125010   6.452   3.552   5.169  0.7560  1.1284 -0.7693
 8215SOL    HW225011   6.322   3.587   5.101 -0.9726 -1.5626  0.9641
 8216SOL     OW25012   2.565   1.502   3.672 -0.1911  0.6670  0.0278
 8216SOL    HW125013   2.526   1.505   3.759 -1.1547 -2.1061 -0.1993
 8216SOL    HW225014   2.635   1.567   3.675 -1.1989  1.7875  2.3136
 8217SOL     OW25015   4.607   3.981   5.338  0.3964  0.4505  0.3115
 8217SOL    HW125016   4.690   3.999   5.381  0.8543 -0.9928  0.1068
 8217SOL    HW225017   4.630   3.921   5.267 -0.9009 -0.5456  0.6944
 8218SOL     OW25018   5.647   4.930   0.450 -0.3854  0.0166  0.7365
 8218SOL    HW125019   5.649   5.006   0.392  0.0847 -0.9015 -0.4739
 8218SOL    HW225020   5.716   4.948   0.514  1.3290 -0.4137 -0.9056
 8219SOL     OW25021   3.832   4.314   4.098  0.0622  0.3563  0.8020
 8219SOL    HW125022   3.911   4.359   4.130  1.2856  0.0388 -1.5682
 8219SOL    HW225023   3.855   4.221   4.098  1.8524  0.4319 -4.6057
 8220SOL     OW25024   5.476   0.125   4.784  0.6076 -0.1736  0.7389
 8220SOL    HW125025   5.567   0.143   4.805  1.0161  0.1101 -1.1162
 8220SOL    HW225026   5.429   0.205   4.810  1.2059  0.4705 -0.1019
 8221SOL     OW25027   4.018   6.550   3.106 -0.3627 -0.0542 -0.0611
 8221SOL    HW125028   3.930   6.583   3.124 -1.1329 -0.8638 -2.0294
 8221SOL    HW225029   4.037   6.580   3.017  1.2096 -0.1963  0.1972
 8222SOL     OW25030   1.700   5.252   4.158  0.4283  0.3243 -0.4100
 8222SOL    HW125031   1.618   5.205   4.141  1.3562 -2.2941  1.6308
 8222SOL    HW225032   1.697   5.270   4.252  1.0073  2.7806 -0.7996
 8223SOL     OW25033   2.965   4.358   4.662 -0.1113  0.6450 -0.2391
 8223SOL    HW125034   3.050   4.399   4.678  0.4048 -0.3534 -0.3717
 8223SOL    HW225035   2.905   4.404   4.720  0.4168  1.6810 -0.4848
 8224SOL     OW25036   3.842   4.585   0.235  0.0017  0.5499 -0.0666
 8224SOL    HW125037   3.816   4.525   0.164 -0.1725  0.8413 -0.2532
 8224SOL    HW225038   3.775   4.572   0.302  1.5573 -1.6220  1.1773
 8225SOL     OW25039   1.918   5.073   3.551 -0.0835  0.8653 -0.2563
 8225SOL    HW125040   1.967   5.058   3.632  2.1278 -1.1909 -1.8297
 8225SOL    HW225041   1.888   5.164   3.557  0.5640  0.9626  2.5512
 8226SOL     OW25042   0.473   3.168   4.666  1.0331 -0.0146  0.3875
 8226SOL    HW125043   0.448   3.098   4.606  0.5337  0.3822  0.1225
 8226SOL    HW225044   0.422   3.243   4.637  1.9524  0.6042  0.3383
 8227SOL     OW25045   2.378   4.036   0.834 -0.0157  0.1017  0.5253
 8227SOL    HW125046   2.454   4.029   0.776  0.9970  2.1041  1.5249
 8227SOL    HW225047   2.316   4.090   0.785  1.3211  2.8457  1.6264
 8228SOL     OW25048   2.294   4.784   3.159 -0.8134  0.1913  0.1048
 8228SOL    HW125049   2.219   4.771   3.217 -1.2431 -1.5525 -0.7658
 8228SOL    HW225050   2.304   4.700   3.113 -1.1627  1.7237 -3.0888
 8229SOL     OW25051   4.062   6.061   1.166  0.4067  0.4845  0.1401
 8229SOL    HW125052   4.046   6.014   1.085 -0.3999 -0.4730  0.8329
 8229SOL    HW225053   4.157   6.058   1.178  0.4619  0.0284 -0.3982
 8230SOL     OW25054   3.658   1.732   3.204 -0.0364 -0.5473  0.6006
 8230SOL    HW125055   3.667   1.827   3.199 -1.0370 -0.4979 -0.8746
 8230SOL    HW225056   3.629   1.716   3.294 -1.9137  0.7787  0.3034
 8231SOL     OW25057   0.372   4.594   6.572  0.4101 -0.0222 -0.0345
 8231SOL    HW125058   0.303   4.531   6.591 -0.7951  1.0467 -0.7048
 8231SOL    HW225059   0.392   4.581   6.479  1.6055 -0.7698  0.3044
 8232SOL     OW25060   1.596   6.026   6.010 -0.1364  0.2614 -0.2264
 8232SOL    HW125061   1.574   5.950   6.064 -2.4007 -0.5408 -2.1170
 8232SOL    HW225062   1.525   6.032   5.947  0.6714  3.1750 -1.0206
 8233SOL     OW25063   2.012   2.497   4.106 -0.2065  0.1182  0.4388
 8233SOL    HW125064   1.920   2.471   4.110 -0.9775  2.3737 -1.2141
 8233SOL    HW225065   2.012   2.591   4.125  1.6947  0.2906 -0.1996
 8234SOL     OW25066   0.778   5.731   2.128  0.3765  0.7801  0.4284
 8234SOL    HW125067   0.696   5.682   2.130 -0.0455  1.4510  0.1329
 8234SOL    HW225068   0.786   5.761   2.038  0.3941  1.6180  0.6958
 8235SOL     OW25069   4.702   1.985   1.055 -0.1878 -0.4114 -0.5432
 8235SOL    HW125070   4.706   1.903   1.104 -0.0332  0.0625  0.2506
 8235SOL    HW225071   4.728   2.052   1.118 -2.4454  0.5311 -0.5114
 8236SOL     OW25072   3.125   1.240   3.378 -0.4136  0.1939 -0.6977
 8236SOL    HW125073   3.046   1.295   3.385  0.0044  0.8989 -1.4448
 8236SOL    HW225074   3.154   1.230   3.469 -0.1834  1.6799 -0.5827
 8237SOL     OW25075   3.057   6.691   0.906 -0.4448 -0.1333  0.3968
 8237SOL    HW125076   3.076   6.605   0.943  0.9743 -0.2866 -0.6119
 8237SOL    HW225077   3.098   6.690   0.820  1.0479  2.1370  0.9919
 8238SOL     OW25078   3.086   1.149   2.420 -0.1256  0.3220 -0.1803
 8238SOL    HW125079   3.142   1.167   2.496 -0.7729 -0.4319  0.4909
 8238SOL    HW225080   3.075   1.054   2.420 -1.5664  0.4726 -0.1921
 8239SOL     OW25081   0.413   2.525   6.573  0.1225  0.1445  0.2936
 8239SOL    HW125082   0.408   2.560   6.484  0.9370 -1.8900 -0.6080
 8239SOL    HW225083   0.326   2.543   6.611  0.2805  2.4295 -0.3129
 8240SOL     OW25084   1.870   3.909   0.020  0.5387  0.2770 -0.4799
 8240SOL    HW125085   1.912   3.887   0.103 -1.3714 -0.1955  0.4381
 8240SOL    HW225086   1.876   3.829  -0.033  1.0117  0.3003 -0.4598
 8241SOL     OW25087   3.194   0.244   1.325 -0.2205 -0.4165 -0.0545
 8241SOL    HW125088   3.254   0.234   1.399 -0.3714 -1.7984 -0.0888
 8241SOL    HW225089   3.237   0.308   1.268 -0.3068  0.9732  1.4048
 8242SOL     OW25090   1.010   6.263   1.918  0.3547  0.0409 -0.3480
 8242SOL    HW125091   0.917   6.282   1.928  0.3553 -0.9428  2.6515
 8242SOL    HW225092   1.015   6.167   1.923  1.4989  0.0558 -0.9401
 8243SOL     OW25093   0.821   3.909   5.040 -0.1642 -0.3268  0.2392
 8243SOL    HW125094   0.726   3.919   5.037 -0.1274 -0.0718 -0.3714
 8243SOL    HW225095   0.855   3.995   5.014  0.2105 -0.7588 -0.7593
 8244SOL     OW25096   0.890   2.347   5.395  0.4946 -0.3098 -0.3546
 8244SOL    HW125097   0.800   2.341   5.426  0.3171  0.0118 -0.7964
 8244SOL    HW225098   0.942   2.305   5.463 -0.1490 -1.9227 -0.8006
 8245SOL     OW25099   4.241   2.383   4.818 -0.2442 -0.3777 -0.2868
 8245SOL    HW125100   4.213   2.472   4.795 -0.2602 -0.3442 -0.1400
 8245SOL    HW225101   4.329   2.394   4.853  0.0653 -0.5194 -1.0146
 8246SOL     OW25102   4.057   0.403   3.360 -0.0708 -0.0978 -0.3118
 8246SOL    HW125103   3.983   0.436   3.411  0.0537  0.0979 -0.2562
 8246SOL    HW225104   4.118   0.367   3.425  0.4179  0.8030 -0.2535
 8247SOL     OW25105   3.039   5.146   0.255  0.4367  0.1449 -0.0687
 8247SOL    HW125106   3.003   5.091   0.324 -0.5732  2.3016  1.2588
 8247SOL    HW225107   2.969   5.149   0.189 -0.9317  2.2403  1.3207
 8248SOL     OW25108   4.868   4.149   5.142 -0.0040 -0.1910 -0.2459
 8248SOL    HW125109   4.879   4.077   5.079  0.0175  0.4073 -0.9429
 8248SOL    HW225110   4.848   4.225   5.088  0.1442  0.3705  0.4722
 8249SOL     OW25111   5.547   6.270   5.075  0.4357  0.5323 -0.2136
 8249SOL    HW125112   5.620   6.217   5.042 -1.1903 -1.1950 -1.2478
 8249SOL    HW225113   5.566   6.282   5.168  1.3726 -1.1120 -0.1481
 8250SOL     OW25114   4.445   0.486   4.414  0.2647  0.8263 -0.9208
 8250SOL    HW125115   4.450   0.558   4.476  0.2169  0.0279  0.0369
 8250SOL    HW225116   4.360   0.445   4.431  0.1536  0.7329 -1.6698
 8251SOL     OW25117   0.833   6.049   5.748 -0.3780 -0.5882 -0.6927
 8251SOL    HW125118   0.868   6.137   5.762 -0.9771 -0.5246  0.4900
 8251SOL    HW225119   0.888   6.013   5.678  0.3820  0.4343 -0.6552
 8252SOL     OW25120   2.665   1.417   1.661  0.1640 -0.5335  0.1744
 8252SOL    HW125121   2.610   1.495   1.672 -0.5092 -0.6391 -1.9135
 8252SOL    HW225122   2.605   1.343   1.667  0.0291 -0.6580 -1.9997
 8253SOL     OW25123   5.347   6.512   6.642 -0.3953 -0.0789 -0.2309
 8253SOL    HW125124   5.320   6.586   6.697 -0.5654  0.4615 -1.0274
 8253SOL    HW225125   5.409   6.550   6.579  1.1723 -1.0267  0.6742
 8254SOL     OW25126   2.694   4.692   3.116 -0.2015 -0.0743 -0.2369
 8254SOL    HW125127   2.663   4.692   3.026  0.5961  2.1824 -0.5899
 8254SOL    HW225128   2.773   4.638   3.115 -2.0416 -3.0126 -0.0425
 8255SOL     OW25129   4.552   4.828   3.441  0.4451  0.0991  0.1284
 8255SOL    HW125130   4.625   4.881   3.471  0.9984 -0.4241 -0.2827
 8255SOL    HW225131   4.520   4.785   3.520  0.3645  0.5768  0.3636
 8256SOL     OW25132   5.615   2.184   6.161 -0.0473  0.0401 -0.3481
 8256SOL    HW125133   5.662   2.239   6.224 -0.1433 -1.3309  0.9955
 8256SOL    HW225134   5.664   2.102   6.159 -1.8873 -1.1602  0.5310
 8257SOL     OW25135   5.547   1.273   3.286 -0.2274  0.3222  0.2286
 8257SOL    HW125136   5.569   1.337   3.353 -1.0155 -2.1607  3.0667
 8257SOL    HW225137   5.454   1.288   3.269 -0.6528 -0.5868  1.5969
 8258SOL     OW25138   2.774   2.521   5.798  0.8376 -0.1751 -0.4006
 8258SOL    HW125139   2.803   2.611   5.782  0.6799 -0.0942 -0.2408
 8258SOL    HW225140   2.738   2.523   5.887 -0.0928 -0.1608 -0.7600
 8259SOL     OW25141   2.738   2.104   3.745 -0.0591  0.1508  0.2302
 8259SOL    HW125142   2.690   2.022   3.760 -1.7188  0.6537 -1.9170
 8259SOL    HW225143   2.680   2.172   3.778 -0.1742  0.6653 -0.9863
 8260SOL     OW25144   4.451   2.215   5.157  0.4775  0.0766 -0.2133
 8260SOL    HW125145   4.392   2.288   5.175  0.4566  0.2556 -0.9872
 8260SOL    HW225146   4.464   2.173   5.242  0.9785  1.3429  0.3588
 8261SOL     OW25147   2.056   2.376   0.593 -0.0689 -0.0744  0.3759
 8261SOL    HW125148   2.040   2.411   0.506  0.8381 -2.0050 -0.6416
 8261SOL    HW225149   2.077   2.284   0.578  2.8367  0.1342  2.3765
 8262SOL     OW25150   1.448   5.989   4.050  0.2379 -0.4609  0.0342
 8262SOL    HW125151   1.481   5.901   4.030 -3.2194 -1.3807 -2.4638
 8262SOL    HW225152   1.482   6.044   3.980 -1.8741 -1.0674 -1.5764
 8263SOL     OW25153   5.095   4.206   5.862  0.2145  0.4749  0.1996
 8263SOL    HW125154   5.050   4.289   5.851  0.0380  0.5444  1.3402
 8263SOL    HW225155   5.151   4.219   5.939  1.6305  0.1572 -0.7437
 8264SOL     OW25156   4.556   1.803   4.186  0.2551 -0.5629 -0.1617
 8264SOL    HW125157   4.504   1.884   4.187  0.3190 -0.3571 -3.4840
 8264SOL    HW225158   4.617   1.814   4.114  2.0040 -2.6137  0.8914
 8265SOL     OW25159   5.852   1.585   3.094  0.6605 -0.4436  0.0916
 8265SOL    HW125160   5.924   1.640   3.063  0.3422 -0.0878 -0.0254
 8265SOL    HW225161   5.783   1.647   3.118 -0.3298 -0.8376 -1.5830
 8266SOL     OW25162   6.155   6.364   1.991  0.3348 -0.2923 -0.2641
 8266SOL    HW125163   6.089   6.408   1.938  0.6115  1.2833  0.6321
 8266SOL    HW225164   6.137   6.271   1.980  0.3128 -0.0550 -3.0114
 8267SOL     OW25165   5.820   5.898   0.574  0.0297  0.7172  0.8470
 8267SOL    HW125166   5.789   5.909   0.484  0.1501  1.6518  0.9118
 8267SOL    HW225167   5.760   5.832   0.611 -0.7502  1.1741  0.4320
 8268SOL     OW25168   3.083   4.031   5.016  0.0247  0.5029 -0.0986
 8268SOL    HW125169   3.026   4.024   5.092 -0.7209  1.3399 -0.5567
 8268SOL    HW225170   3.030   4.075   4.950 -0.8782 -3.7733 -2.6232
 8269SOL     OW25171   3.349   4.909   3.144 -0.0539  0.3780  0.6647
 8269SOL    HW125172   3.438   4.916   3.111 -0.3283  1.3538  0.0797
 8269SOL    HW225173   3.358   4.873   3.232  0.8410 -0.3794  0.2739
 8270SOL     OW25174   4.526   3.876   3.601 -0.3350 -0.0795 -0.1930
 8270SOL    HW125175   4.452   3.876   3.662 -1.0303  1.5179 -0.9603
 8270SOL    HW225176   4.522   3.962   3.559  1.3834 -0.3399 -0.9752
 8271SOL     OW25177   3.564   1.708   5.299 -0.5434  0.6296 -0.4806
 8271SOL    HW125178   3.502   1.778   5.320  0.4538  1.2549  0.5003
 8271SOL    HW225179   3.650   1.746   5.318  0.2516  0.1574 -2.8245
 8272SOL     OW25180   1.469   5.442   3.955 -0.3370  0.1883  0.1697
 8272SOL    HW125181   1.451   5.398   4.039  1.1473  0.5293  0.6962
 8272SOL    HW225182   1.559   5.473   3.964 -1.1667  2.9586 -0.3541
 8273SOL     OW25183   4.738   2.649   5.945  0.2373 -0.2465  0.3395
 8273SOL    HW125184   4.679   2.645   6.020 -2.5680 -0.1551 -1.7350
 8273SOL    HW225185   4.755   2.557   5.922 -1.0591 -0.3173 -0.4416
 8274SOL     OW25186   6.626   1.801   3.027  0.1351  0.2671 -0.3725
 8274SOL    HW125187   6.690   1.798   2.955  1.7256  2.3421  0.8109
 8274SOL    HW225188   6.566   1.871   3.001 -0.8698 -0.7650 -0.8598
 8275SOL     OW25189   2.032   2.940   1.529  0.9173 -0.6608 -0.1379
 8275SOL    HW125190   2.069   2.898   1.451  0.9776 -0.8005 -0.0347
 8275SOL    HW225191   2.012   2.868   1.588  1.8961 -0.4944  0.4174
 8276SOL     OW25192   2.561   3.690   1.413 -0.4095  0.4352  0.3834
 8276SOL    HW125193   2.483   3.634   1.413  0.3926 -0.7510  2.1632
 8276SOL    HW225194   2.629   3.637   1.455  1.0666  1.8528 -0.1342
 8277SOL     OW25195   3.988   0.750   0.188 -0.0353  0.2633  0.7212
 8277SOL    HW125196   4.010   0.843   0.184 -0.9734  0.4533 -1.7838
 8277SOL    HW225197   4.060   0.711   0.236  0.5269  2.2272  1.5913
 8278SOL     OW25198   1.412   3.774   4.418 -0.0982  0.2822 -0.1152
 8278SOL    HW125199   1.418   3.803   4.509  0.0766 -0.9350  0.2767
 8278SOL    HW225200   1.500   3.784   4.383 -0.2602  1.1659 -0.2944
 8279SOL     OW25201   1.484   3.224   0.390  0.2060  0.5929  0.3675
 8279SOL    HW125202   1.464   3.316   0.376  0.0598  0.5513  0.2932
 8279SOL    HW225203   1.404   3.188   0.429 -0.0883  0.2908 -0.5003
 8280SOL     OW25204   5.458   5.716   1.849  0.5713 -0.0599 -0.5207
 8280SOL    HW125205   5.481   5.626   1.873 -0.2083 -0.4762 -1.2733
 8280SOL    HW225206   5.477   5.721   1.755 -3.0106 -0.7272 -1.4605
 8281SOL     OW25207   3.995   6.350   0.474  0.4122 -0.0499 -0.1486
 8281SOL    HW125208   4.072   6.304   0.506 -0.0220 -0.3979  0.4351
 8281SOL    HW225209   4.025   6.439   0.456  0.9097 -0.1365  0.2329
 8282SOL     OW25210   2.388   4.415   2.644  0.0860 -0.2770  0.0092
 8282SOL    HW125211   2.347   4.495   2.612 -1.2567 -1.0117 -0.1691
 8282SOL    HW225212   2.411   4.366   2.565  2.0079  0.4221  0.0785
 8283SOL     OW25213   3.205   4.481   5.946 -0.0366  0.7689  0.0465
 8283SOL    HW125214   3.288   4.503   5.903  1.0770  0.9307  2.1258
 8283SOL    HW225215   3.163   4.566   5.960  0.1308  0.8152  0.2723
 8284SOL     OW25216   5.112   2.024   0.703  1.0250 -0.0429 -0.0005
 8284SOL    HW125217   5.025   2.038   0.741  1.1270 -0.3428  0.3451
 8284SOL    HW225218   5.148   2.112   0.692 -0.6061  0.3785 -3.2298
 8285SOL     OW25219   2.775   1.792   4.202 -0.2431  0.4185 -0.2492
 8285SOL    HW125220   2.851   1.756   4.248 -0.5408  0.3102  0.1641
 8285SOL    HW225221   2.739   1.857   4.264 -0.8931 -0.0264 -0.1537
 8286SOL     OW25222   6.006   4.390   1.850 -0.1876 -0.6060 -0.2015
 8286SOL    HW125223   5.946   4.465   1.854 -0.1715 -0.5424 -0.9152
 8286SOL    HW225224   6.084   4.419   1.897 -0.4365 -0.4164  0.0941
 8287SOL     OW25225   6.795   3.328   6.760 -0.1595  0.0151 -0.3214
 8287SOL    HW125226   6.875   3.341   6.811 -0.2765  2.1975 -0.5961
 8287SOL    HW225227   6.814   3.367   6.675 -1.6596  1.1030 -0.2091
 8288SOL     OW25228   0.290   5.653   6.421 -0.5180  0.3212 -0.1576
 8288SOL    HW125229   0.336   5.604   6.489 -1.9370  0.1450  0.7188
 8288SOL    HW225230   0.225   5.591   6.388 -1.3648  1.1416 -0.0570
 8289SOL     OW25231   0.084   6.685   1.611 -0.0767 -0.0963  0.4557
 8289SOL    HW125232   0.119   6.716   1.528  0.6103  1.8993  1.4118
 8289SOL    HW225233   0.006   6.635   1.588  1.1640 -1.2538 -1.4822
 8290SOL     OW25234   6.544   2.719   0.245  0.2323  0.0847 -0.0801
 8290SOL    HW125235   6.484   2.793   0.247 -0.3226 -0.2695 -1.7102
 8290SOL    HW225236   6.586   2.723   0.159  1.4827 -0.5149  0.4641
 8291SOL     OW25237   4.284   0.170   3.838  0.0121  0.2282 -0.2083
 8291SOL    HW125238   4.195   0.135   3.839 -0.1254  0.5610 -0.4327
 8291SOL    HW225239   4.274   0.260   3.870  0.5710 -0.3786  1.8714
 8292SOL     OW25240   5.349   6.343   0.191 -0.3392  0.2976 -0.4907
 8292SOL    HW125241   5.314   6.289   0.261 -0.0358  0.5411 -0.1464
 8292SOL    HW225242   5.276   6.354   0.130 -0.6748  0.2866 -0.0918
 8293SOL     OW25243   1.375   2.184   4.816  0.2865  0.3630  0.2461
 8293SOL    HW125244   1.283   2.210   4.817  0.6712  1.7877  0.4271
 8293SOL    HW225245   1.398   2.180   4.723 -0.1109 -0.6221  0.1793
 8294SOL     OW25246   4.442   1.588   2.957  0.2380  0.0236 -0.1719
 8294SOL    HW125247   4.488   1.618   2.879  1.4643  0.2039  0.6033
 8294SOL    HW225248   4.471   1.498   2.970  1.3621  0.5224  1.0085
 8295SOL     OW25249   4.328   2.661   0.350 -0.2529 -0.1792 -0.3346
 8295SOL    HW125250   4.374   2.740   0.378  1.9744 -1.4072 -0.3141
 8295SOL    HW225251   4.268   2.641   0.422 -1.2869  1.7465 -0.5874
 8296SOL     OW25252   3.622   4.251   6.316 -0.0276 -0.0852 -0.2052
 8296SOL    HW125253   3.616   4.284   6.226  0.6001  1.6604  0.3489
 8296SOL    HW225254   3.575   4.316   6.368  0.8286 -0.3149  0.8898
 8297SOL     OW25255   4.166   6.320   1.791  1.2154  0.2676  0.0362
 8297SOL    HW125256   4.156   6.254   1.722  2.4846 -0.3883  0.4445
 8297SOL    HW225257   4.225   6.279   1.854  0.8026  1.2160  1.0628
 8298SOL     OW25258   4.330   4.038   5.102  0.2826  0.2566  0.0699
 8298SOL    HW125259   4.377   3.956   5.115 -0.0750 -0.0177 -0.3415
 8298SOL    HW225260   4.398   4.102   5.083  0.3762 -0.6047 -2.9066
 8299SOL     OW25261   6.477   3.605   2.312  0.1085  0.6056 -0.1872
 8299SOL    HW125262   6.562   3.564   2.298 -0.3910 -0.0941 -1.3073
 8299SOL    HW225263   6.462   3.598   2.406  1.0503  0.2886 -0.0498
 8300SOL     OW25264   4.210   3.245   4.608 -0.8231 -0.5932  0.1022
 8300SOL    HW125265   4.276   3.180   4.633  0.1383 -0.1264 -1.1698
 8300SOL    HW225266   4.249   3.329   4.628 -0.6405 -0.2717 -1.5035
 8301SOL     OW25267   5.360   4.751   1.111 -0.0925 -0.0707  0.0333
 8301SOL    HW125268   5.418   4.683   1.146  0.3719  0.6901  0.7898
 8301SOL    HW225269   5.379   4.828   1.165 -0.0071  0.8967 -1.3383
 8302SOL     OW25270   3.483   0.285   1.964 -0.1233 -0.2227  0.2202
 8302SOL    HW125271   3.427   0.350   2.006 -0.0178 -1.2262  1.9725
 8302SOL    HW225272   3.513   0.229   2.035 -0.3323 -2.3093 -1.2482
 8303SOL     OW25273   5.696   5.691   1.656 -0.3083  0.3952  0.1813
 8303SOL    HW125274   5.669   5.603   1.680  0.6682  0.8055  3.1663
 8303SOL    HW225275   5.635   5.717   1.587 -3.2935 -1.0715  2.0856
 8304SOL     OW25276   3.591   4.072   1.263 -0.4640  0.4217 -0.1248
 8304SOL    HW125277   3.521   4.055   1.200 -1.8691  3.3010  0.4987
 8304SOL    HW225278   3.653   4.128   1.216  0.0013  0.1670  0.1767
 8305SOL     OW25279   5.172   4.153   3.963 -0.3084 -0.4788 -0.0346
 8305SOL    HW125280   5.085   4.114   3.961 -1.6079  2.1073  0.4959
 8305SOL    HW225281   5.187   4.173   4.056 -0.5945  1.8970 -0.4376
 8306SOL     OW25282   6.152   1.671   4.441  0.1260  0.4445 -0.0485
 8306SOL    HW125283   6.210   1.615   4.493  0.1331  0.7125  0.2362
 8306SOL    HW225284   6.098   1.717   4.506 -1.0800 -0.5112 -0.3457
 8307SOL     OW25285   6.032   1.483   1.833  0.0361  0.2661 -0.5814
 8307SOL    HW125286   5.948   1.491   1.877  0.4382  1.1468  0.0723
 8307SOL    HW225287   6.066   1.397   1.859 -0.5854 -0.0241 -0.7274
 8308SOL     OW25288   4.371   4.052   2.644 -0.0331 -0.6003 -0.3915
 8308SOL    HW125289   4.276   4.041   2.650  0.0351 -1.5187 -0.7155
 8308SOL    HW225290   4.388   4.139   2.680 -0.8005 -1.1872  1.5116
 8309SOL     OW25291   0.101   2.342   3.058 -0.2422  0.0621  0.4387
 8309SOL    HW125292   0.176   2.302   3.101  0.1139 -0.6429 -0.7792
 8309SOL    HW225293   0.040   2.363   3.129  2.2868  3.4573  1.9098
 8310SOL     OW25294   0.039   5.057   4.239  0.1646  0.0354 -0.0549
 8310SOL    HW125295   0.098   5.116   4.286 -0.8381  1.4105 -0.4460
 8310SOL    HW225296   0.071   5.058   4.149  0.5926 -0.6325  0.0819
 8311SOL     OW25297   0.321   2.158   0.484  0.5664 -0.3941 -0.4297
 8311SOL    HW125298   0.302   2.143   0.392  0.8902 -3.0987 -0.1458
 8311SOL    HW225299   0.371   2.081   0.511 -0.5581 -0.2976  2.2858
 8312SOL     OW25300   0.926   4.366   1.624  0.6125 -0.2422  0.2023
 8312SOL    HW125301   1.019   4.356   1.645  0.9283  2.3513  0.3582
 8312SOL    HW225302   0.920   4.453   1.585 -1.6191 -0.7645 -0.7386
 8313SOL     OW25303   5.039   0.418   6.634  0.0362 -0.3189 -0.2947
 8313SOL    HW125304   4.987   0.341   6.614 -2.5490  1.0430  0.7437
 8313SOL    HW225305   4.984   0.470   6.693  1.9745  1.9521 -0.3323
 8314SOL     OW25306   1.944   5.753   5.467  0.3072 -0.0743  0.3532
 8314SOL    HW125307   2.020   5.812   5.465  0.6277 -0.4211  1.5007
 8314SOL    HW225308   1.869   5.811   5.475  0.5476  0.2324  0.3989
 8315SOL     OW25309   1.450   6.249   0.909  0.8003  0.2457  0.5688
 8315SOL    HW125310   1.388   6.177   0.915  0.1345  0.5685 -1.6386
 8315SOL    HW225311   1.490   6.253   0.995 -1.1662 -0.9404  1.6117
 8316SOL     OW25312   4.070   2.254   4.650 -0.4159 -0.2219 -0.0753
 8316SOL    HW125313   4.109   2.166   4.660  1.0161  0.2700 -1.0069
 8316SOL    HW225314   4.130   2.311   4.698 -0.7097  0.3948 -0.4393
 8317SOL     OW25315   5.170   6.092   0.839 -0.7318 -0.4273 -0.2025
 8317SOL    HW125316   5.093   6.040   0.862  0.0148 -1.1759  0.7290
 8317SOL    HW225317   5.219   6.099   0.922 -1.1889  2.4638 -0.0760
 8318SOL     OW25318   3.883   2.988   5.087 -0.7199 -0.1272  0.1456
 8318SOL    HW125319   3.932   2.935   5.150 -0.2065 -1.2006 -1.1031
 8318SOL    HW225320   3.946   3.054   5.058 -0.4510 -0.5714 -0.3276
 8319SOL     OW25321   1.615   6.659   1.574  0.1465 -0.0670 -0.1424
 8319SOL    HW125322   1.634   6.577   1.618  0.9885 -0.5970 -1.4391
 8319SOL    HW225323   1.628   6.726   1.641  0.2260 -0.9245  0.7204
 8320SOL     OW25324   1.388   2.251   5.426 -0.4195  0.6660  0.3517
 8320SOL    HW125325   1.384   2.239   5.521  3.1065 -1.0024  0.4360
 8320SOL    HW225326   1.401   2.345   5.414 -0.4923  0.8426  1.5319
 8321SOL     OW25327   4.823   2.565   0.061 -0.1181 -0.0702 -0.6036
 8321SOL    HW125328   4.840   2.501   0.130 -2.0506 -0.5003 -0.4911
 8321SOL    HW225329   4.840   2.649   0.102 -1.2407 -0.3190  0.4321
 8322SOL     OW25330   4.465   6.293   1.744  0.0567 -0.1003  0.3571
 8322SOL    HW125331   4.478   6.207   1.784 -1.4928  0.0048  1.1445
 8322SOL    HW225332   4.517   6.352   1.799  1.6256 -0.5721 -0.5480
 8323SOL     OW25333   4.131   4.782   3.659  0.4633  0.4678  0.1766
 8323SOL    HW125334   4.223   4.755   3.659  1.6239  3.5067  3.6962
 8323SOL    HW225335   4.095   4.741   3.738 -0.6163  0.9175 -0.0737
 8324SOL     OW25336   6.589   6.185   4.220  0.0840  0.1796  0.6599
 8324SOL    HW125337   6.660   6.225   4.170  1.2779 -0.9303  1.4061
 8324SOL    HW225338   6.532   6.145   4.154  1.6990 -1.3573  0.1335
 8325SOL     OW25339   6.478   1.073   3.079  0.1136  0.4516  0.0045
 8325SOL    HW125340   6.392   1.097   3.043 -0.7908 -0.7154  1.3124
 8325SOL    HW225341   6.512   1.009   3.017  1.2021  2.6820 -1.8604
 8326SOL     OW25342   5.757   1.266   3.974 -0.2139 -0.3099 -0.1759
 8326SOL    HW125343   5.792   1.349   4.007 -1.8843  0.6246 -0.6186
 8326SOL    HW225344   5.698   1.235   4.043 -0.5776 -0.4640 -0.5481
 8327SOL     OW25345   6.470   3.555   4.379  0.7993  0.2688 -0.6317
 8327SOL    HW125346   6.383   3.595   4.377  0.6073 -0.1375 -0.7961
 8327SOL    HW225347   6.527   3.617   4.334  0.8058  1.0118  0.3931
 8328SOL     OW25348   1.571   1.793   0.829 -0.1426  0.0401  0.7915
 8328SOL    HW125349   1.538   1.710   0.794 -0.3134  0.6683 -0.6094
 8328SOL    HW225350   1.645   1.816   0.773 -1.0926  1.6136  0.1078
 8329SOL     OW25351   2.448   0.347   2.155  0.6541 -0.1134 -0.2088
 8329SOL    HW125352   2.511   0.415   2.131  1.9568 -0.8848  0.8219
 8329SOL    HW225353   2.484   0.310   2.236 -0.9638 -0.8302  0.2130
 8330SOL     OW25354   5.011   1.883   4.286 -0.2067  0.8038  0.1123
 8330SOL    HW125355   5.013   1.919   4.197  2.0552  1.0329  0.1914
 8330SOL    HW225356   4.968   1.951   4.338  0.6346  1.7647 -0.4058
 8331SOL     OW25357   2.278   3.039   4.155  0.4415  0.3473 -0.3128
 8331SOL    HW125358   2.230   2.959   4.177  0.3195  0.7717  1.0392
 8331SOL    HW225359   2.333   3.014   4.080 -0.7837 -0.5423 -0.9465
 8332SOL     OW25360   4.114   3.803   2.887  0.1470 -0.2939 -0.2650
 8332SOL    HW125361   4.182   3.736   2.878  0.3430  0.0773 -1.7945
 8332SOL    HW225362   4.032   3.753   2.888  0.3793 -0.6965  0.9634
 8333SOL     OW25363   4.477   0.421   5.156  0.0938 -0.2036 -0.2071
 8333SOL    HW125364   4.566   0.413   5.121  0.2375 -0.1754  0.1392
 8333SOL    HW225365   4.464   0.516   5.167 -0.0781 -0.1922 -0.5026
 8334SOL     OW25366   4.022   5.661   5.442 -0.3522 -0.6774 -0.1901
 8334SOL    HW125367   3.973   5.605   5.503  0.1242  0.3976  1.2325
 8334SOL    HW225368   3.993   5.750   5.463  2.3552  0.0337  0.9125
 8335SOL     OW25369   4.867   0.395   5.766 -0.1193  0.0175 -0.2495
 8335SOL    HW125370   4.839   0.346   5.689  1.3879 -0.2122 -0.6701
 8335SOL    HW225371   4.879   0.485   5.734  0.9173 -0.1626 -0.4056
 8336SOL     OW25372   4.431   6.256   6.139 -0.2231 -0.6341  0.0207
 8336SOL    HW125373   4.404   6.240   6.049 -2.3340 -1.3545  0.7348
 8336SOL    HW225374   4.472   6.342   6.137 -0.6154 -0.4651 -1.5415
 8337SOL     OW25375   1.258   3.779   4.206 -0.6597 -0.1363  0.0500
 8337SOL    HW125376   1.310   3.771   4.286  0.7727 -0.7765 -0.8847
 8337SOL    HW225377   1.189   3.842   4.227  0.5540  0.8200  1.3305
 8338SOL     OW25378   2.535   1.641   1.558 -0.8624  0.1959 -0.5090
 8338SOL    HW125379   2.460   1.696   1.576 -0.4530  0.0334  1.9806
 8338SOL    HW225380   2.611   1.698   1.572 -0.4675 -0.1400 -1.1888
 8339SOL     OW25381   0.975   3.395   4.702 -0.1811 -0.1818  0.1751
 8339SOL    HW125382   0.885   3.381   4.732  0.0744  1.1503  1.7370
 8339SOL    HW225383   0.967   3.423   4.611 -1.6532  2.8652  1.1047
 8340SOL     OW25384   5.155   0.165   2.030  0.0160  0.0056 -0.3837
 8340SOL    HW125385   5.151   0.083   1.981  1.8611 -0.8627  0.8257
 8340SOL    HW225386   5.064   0.189   2.043 -0.6489 -2.6809  0.5562
 8341SOL     OW25387   3.351   4.514   1.722 -0.1457  0.1932  0.1610
 8341SOL    HW125388   3.436   4.471   1.737 -0.5444 -1.8107 -2.4865
 8341SOL    HW225389   3.373   4.606   1.711  1.4257  0.0068  1.2877
 8342SOL     OW25390   1.294   5.368   1.567  0.2350 -0.2186 -0.4502
 8342SOL    HW125391   1.373   5.334   1.525 -0.7698 -0.3013 -2.3832
 8342SOL    HW225392   1.297   5.332   1.656  2.1287 -0.5766 -0.6215
 8343SOL     OW25393   4.271   4.509   5.982 -0.1080 -0.9022  0.4184
 8343SOL    HW125394   4.347   4.517   5.924  0.9531  0.9146  1.9555
 8343SOL    HW225395   4.275   4.587   6.037 -2.3032 -1.4923  1.4991
 8344SOL     OW25396   3.444   6.637   1.764  0.5202 -0.3834 -0.1518
 8344SOL    HW125397   3.506   6.604   1.699 -0.4635 -1.2558 -0.6718
 8344SOL    HW225398   3.365   6.586   1.750 -0.3144  0.6733  0.5283
 8345SOL     OW25399   2.507   6.643   0.527 -0.0261  0.3146  0.2011
 8345SOL    HW125400   2.447   6.654   0.453  0.3924  0.4988 -0.1202
 8345SOL    HW225401   2.593   6.661   0.490  0.2629 -0.2599  0.5823
 8346SOL     OW25402   0.977   4.724   6.227 -0.6442 -0.9782  0.1248
 8346SOL    HW125403   0.902   4.748   6.172 -0.0838 -1.1406 -0.7340
 8346SOL    HW225404   1.029   4.804   6.232 -0.8397 -0.8850  0.6620
 8347SOL     OW25405   1.611   1.331   5.427 -0.3749  0.4390  0.3973
 8347SOL    HW125406   1.618   1.327   5.522 -1.2130  0.6520  0.4759
 8347SOL    HW225407   1.696   1.301   5.395 -0.8367 -1.8926  1.1861
 8348SOL     OW25408   1.851   3.089   1.159  0.0838  0.1128  0.7412
 8348SOL    HW125409   1.919   3.116   1.221  1.1503 -0.4032 -0.1540
 8348SOL    HW225410   1.879   3.003   1.128 -0.3341  0.4099 -0.5412
 8349SOL     OW25411   2.472   5.169   3.986  0.0745 -0.2985  0.2839
 8349SOL    HW125412   2.381   5.162   3.958  0.5938 -0.2084 -1.5682
 8349SOL    HW225413   2.468   5.213   4.070 -1.5791 -0.0445  0.1061
 8350SOL     OW25414   2.311   6.014   6.069  0.6857  0.4337 -0.5391
 8350SOL    HW125415   2.300   5.920   6.055 -0.7740  0.6647 -1.1599
 8350SOL    HW225416   2.381   6.021   6.134 -2.2741 -1.3159  3.1980
 8351SOL     OW25417   3.390   1.309   3.319 -0.1642 -0.0905 -0.4109
 8351SOL    HW125418   3.303   1.268   3.316  0.8618 -2.3797 -1.3565
 8351SOL    HW225419   3.426   1.294   3.232  1.3930  0.3386  0.1328
 8352SOL     OW25420   6.432   0.989   2.648 -0.3722  0.4832  0.2889
 8352SOL    HW125421   6.411   0.897   2.658  0.1943  0.1679 -1.1741
 8352SOL    HW225422   6.350   1.035   2.668 -1.8311 -0.5573 -2.6875
 8353SOL     OW25423   4.374   3.462   3.689 -0.4414 -0.2186 -0.2672
 8353SOL    HW125424   4.334   3.509   3.616 -1.8951 -0.4611  0.3473
 8353SOL    HW225425   4.301   3.438   3.745  0.6708  0.1594  1.3998
 8354SOL     OW25426   6.448   0.347   2.458  0.7641 -0.2098 -0.0336
 8354SOL    HW125427   6.358   0.341   2.427  0.2114  2.3008  0.8733
 8354SOL    HW225428   6.501   0.313   2.386 -0.8629 -1.4663 -0.6848
 8355SOL     OW25429   6.415   0.172   3.989 -0.3384 -0.1615  0.3792
 8355SOL    HW125430   6.484   0.148   4.050 -0.6246 -3.0865 -0.2781
 8355SOL    HW225431   6.432   0.118   3.911 -1.7030  1.1986 -0.9468
 8356SOL     OW25432   5.951   6.457   3.819  0.2235  0.2626  0.4615
 8356SOL    HW125433   5.921   6.523   3.757 -0.8484 -0.3364  0.3199
 8356SOL    HW225434   5.992   6.390   3.765 -3.1480 -1.6444 -0.0280
 8357SOL     OW25435   0.386   5.105   4.543  0.0624 -0.6874 -0.0023
 8357SOL    HW125436   0.456   5.097   4.607  0.5885 -0.1682 -0.4994
 8357SOL    HW225437   0.373   5.015   4.511 -2.0950 -1.4775  2.7353
 8358SOL     OW25438   3.938   5.364   3.737 -0.3981 -0.1981 -0.5421
 8358SOL    HW125439   4.005   5.328   3.796 -0.4774 -2.2467 -1.6140
 8358SOL    HW225440   3.857   5.359   3.787 -0.5538 -2.3969 -0.9184
 8359SOL     OW25441   2.933   2.634   0.311  0.0390  0.4665  0.0131
 8359SOL    HW125442   2.865   2.580   0.351 -0.1216  0.8377  0.2487
 8359SOL    HW225443   2.893   2.721   0.304  0.3548  0.5948 -0.2017
 8360SOL     OW25444   4.092   1.015   6.531  0.1362  0.0159  0.1564
 8360SOL    HW125445   4.016   1.025   6.587 -0.2548 -0.4273 -0.2854
 8360SOL    HW225446   4.105   1.101   6.491 -0.9172 -0.2261 -0.7508
 8361SOL     OW25447   4.852   2.058   0.798 -0.3533 -0.3455  0.5170
 8361SOL    HW125448   4.794   2.076   0.872 -0.7036 -1.2144  0.4655
 8361SOL    HW225449   4.852   2.139   0.747 -1.4240 -0.2848  0.5950
 8362SOL     OW25450   1.301   1.826   4.528 -0.0837 -0.0406 -0.1813
 8362SOL    HW125451   1.230   1.764   4.519  0.3736 -0.8406  1.4962
 8362SOL    HW225452   1.258   1.912   4.534 -0.9890 -0.5907  1.7728
 8363SOL     OW25453   0.194   3.296   1.142 -0.4475  0.0644 -0.3862
 8363SOL    HW125454   0.278   3.323   1.178 -0.4426  0.3864 -0.6415
 8363SOL    HW225455   0.167   3.222   1.197  0.3747 -0.5533 -0.7859
 8364SOL     OW25456   3.802   1.503   2.095 -0.0457  0.1842  0.5031
 8364SOL    HW125457   3.714   1.515   2.130  0.2701  1.1586  1.0176
 8364SOL    HW225458   3.806   1.411   2.071 -1.5792  0.3663 -0.5953
 8365SOL     OW25459   3.008   3.290   6.685 -0.2560  0.3010 -0.0762
 8365SOL    HW125460   3.085   3.291   6.741  0.7736 -0.4897 -1.4149
 8365SOL    HW225461   2.944   3.237   6.732 -0.5801  2.1645  1.7259
 8366SOL     OW25462   1.215   0.777   5.278  0.0256  0.1821 -0.0018
 8366SOL    HW125463   1.269   0.704   5.309 -1.3681 -0.2128  1.6068
 8366SOL    HW225464   1.250   0.853   5.324  0.1630  0.1884 -0.1146
 8367SOL     OW25465   5.403   0.009   5.759 -0.7581  0.3904  0.0474
 8367SOL    HW125466   5.451  -0.043   5.694  0.2162  1.0004  0.2618
 8367SOL    HW225467   5.436   0.098   5.747 -0.3663  0.4660  1.5630
 8368SOL     OW25468   3.062   5.243   1.603 -0.3277  0.1318  0.6622
 8368SOL    HW125469   3.028   5.288   1.526 -2.1834 -1.4498  0.4896
 8368SOL    HW225470   2.989   5.241   1.664 -0.4109 -2.6908  0.6013
 8369SOL     OW25471   6.794   4.368   2.323 -0.1678 -0.1501  0.3458
 8369SOL    HW125472   6.758   4.281   2.304  1.1794 -0.1946 -2.5013
 8369SOL    HW225473   6.737   4.429   2.277  0.7014  0.1572 -0.3631
 8370SOL     OW25474   5.396   4.376   6.727  0.3805  0.5810 -0.2618
 8370SOL    HW125475   5.437   4.367   6.813  0.4663  1.0196 -0.2554
 8370SOL    HW225476   5.461   4.342   6.665  0.2963  0.2157 -0.1482
 8371SOL     OW25477   1.750   5.786   4.194 -0.5552  0.1547 -0.0500
 8371SOL    HW125478   1.666   5.751   4.224 -0.0031  0.4514  1.9871
 8371SOL    HW225479   1.814   5.751   4.255  0.7839  0.1976 -1.3775
 8372SOL     OW25480   3.062   0.593   5.943 -0.1029 -0.1453 -0.0288
 8372SOL    HW125481   3.014   0.645   5.878 -0.7370 -1.5350 -0.6991
 8372SOL    HW225482   3.034   0.629   6.027 -0.8204  0.3439 -0.4657
 8373SOL     OW25483   3.583   4.798   5.736  0.2136  0.1185 -0.7002
 8373SOL    HW125484   3.669   4.771   5.768 -0.1966 -0.7498 -0.2843
 8373SOL    HW225485   3.557   4.869   5.794  0.5613  0.2499 -0.7030
 8374SOL     OW25486   5.421   3.498   6.266  0.1359 -0.1248  0.3058
 8374SOL    HW125487   5.390   3.548   6.191 -0.5616 -1.2534 -0.1792
 8374SOL    HW225488   5.405   3.555   6.341 -0.7813  0.3309 -0.2185
 8375SOL     OW25489   1.548   2.860   3.713  0.0171  0.3738 -0.0665
 8375SOL    HW125490   1.640   2.836   3.726 -0.3934 -0.1822  2.1839
 8375SOL    HW225491   1.551   2.928   3.646  1.9646 -0.3074 -0.7540
 8376SOL     OW25492   3.896   1.954   5.822  0.2124  0.1125  0.6006
 8376SOL    HW125493   3.910   2.021   5.755  1.4176  0.0049  0.7167
 8376SOL    HW225494   3.853   1.882   5.775 -0.0476  0.5144  0.2183
 8377SOL     OW25495   3.205   1.229   6.113 -0.3396  0.1846  0.0681
 8377SOL    HW125496   3.180   1.137   6.104  0.3649  0.0776 -0.9919
 8377SOL    HW225497   3.128   1.278   6.085 -0.2798 -0.1079 -0.6283
 8378SOL     OW25498   3.958   2.035   0.504  0.5583  0.0973 -0.1199
 8378SOL    HW125499   3.892   2.031   0.434  1.8883 -0.2937 -1.4132
 8378SOL    HW225500   3.986   2.127   0.504 -1.3941  0.7730  1.8641
 8379SOL     OW25501   2.181   1.626   1.426  0.4317 -0.5658 -0.6736
 8379SOL    HW125502   2.195   1.683   1.350 -1.5227 -0.0580 -0.6979
 8379SOL    HW225503   2.201   1.682   1.501  2.9677 -1.2437 -0.7488
 8380SOL     OW25504   3.375   5.168   3.354  0.2349 -0.8204 -0.6363
 8380SOL    HW125505   3.324   5.165   3.435  0.4794  1.8053 -0.3009
 8380SOL    HW225506   3.312   5.145   3.286 -1.4132  1.7831 -0.1744
 8381SOL     OW25507   3.162   0.119   0.650  0.3263  0.8160 -0.1217
 8381SOL    HW125508   3.088   0.153   0.701 -0.0825 -1.0640  0.6006
 8381SOL    HW225509   3.234   0.179   0.670  0.2154  0.1052  2.8036
 8382SOL     OW25510   1.025   6.696   1.568 -0.3675  1.0155  0.5512
 8382SOL    HW125511   1.060   6.763   1.509  1.5952  0.7266  1.3028
 8382SOL    HW225512   1.095   6.632   1.575 -1.1301  0.2915  2.0275
 8383SOL     OW25513   6.429   0.079   0.752  0.3234 -0.1808 -0.3825
 8383SOL    HW125514   6.384   0.161   0.733 -1.7568 -0.1323  3.5273
 8383SOL    HW225515   6.496   0.071   0.685 -0.9089  3.4902 -2.3039
 8384SOL     OW25516   0.560   1.905   0.818  0.0314 -0.6342 -0.2349
 8384SOL    HW125517   0.584   1.816   0.792 -2.1970 -1.2657 -0.3735
 8384SOL    HW225518   0.493   1.893   0.886 -0.9799  0.8929 -0.8982
 8385SOL     OW25519   0.188   0.190   4.519  0.6321 -0.4646  0.2082
 8385SOL    HW125520   0.144   0.240   4.450 -2.1809 -1.9735  0.7632
 8385SOL    HW225521   0.223   0.113   4.474  1.3720 -0.0304  0.0243
 8386SOL     OW25522   0.284   4.809   2.331  0.3136 -0.0711  0.4064
 8386SOL    HW125523   0.252   4.746   2.395  0.3988  0.0317  0.5521
 8386SOL    HW225524   0.232   4.793   2.252 -0.5889  0.5768  0.8615
 8387SOL     OW25525   0.334   0.120   5.429  0.5197  0.0257 -0.0738
 8387SOL    HW125526   0.345   0.031   5.463 -0.5302 -0.1021 -0.0346
 8387SOL    HW225527   0.269   0.111   5.360 -0.0941  0.8625  0.3771
 8388SOL     OW25528   0.015   6.054   1.564  0.5971 -0.0369 -0.3837
 8388SOL    HW125529  -0.042   6.039   1.640  0.5043  1.5359 -0.1041
 8388SOL    HW225530   0.078   5.982   1.567 -1.1765 -1.6831 -0.5515
 8389SOL     OW25531   1.244   6.006   1.980  0.2255 -0.2728 -0.3017
 8389SOL    HW125532   1.164   6.045   2.017  1.2342  2.6771 -0.9746
 8389SOL    HW225533   1.244   5.916   2.014 -1.7849  0.5359  2.2052
 8390SOL     OW25534   3.531   3.707   3.689 -0.3034 -0.0863  0.3991
 8390SOL    HW125535   3.560   3.715   3.598 -1.7165 -2.0976 -0.2832
 8390SOL    HW225536   3.599   3.654   3.732 -0.5438 -0.6924  0.0376
 8391SOL     OW25537   4.948   0.064   1.695  0.1117  0.0735 -0.6599
 8391SOL    HW125538   4.904   0.145   1.670  1.4478  1.3024  0.7315
 8391SOL    HW225539   4.896   0.031   1.769  1.0596  1.1507  0.5306
 8392SOL     OW25540   6.114   1.790   1.504  0.0761  0.1670  0.0214
 8392SOL    HW125541   6.113   1.695   1.513 -1.4565  0.2596  0.9975
 8392SOL    HW225542   6.105   1.823   1.593 -1.7644  1.1980 -0.5024
 8393SOL     OW25543   4.056   5.576   3.591 -0.6179 -0.6476 -0.6474
 8393SOL    HW125544   4.029   5.494   3.634 -0.5650 -0.6043 -0.5311
 8393SOL    HW225545   4.151   5.570   3.586 -0.7580 -1.8215 -3.0745
 8394SOL     OW25546   1.870   2.133   2.026  0.6061  0.5077  0.3116
 8394SOL    HW125547   1.831   2.167   2.106  2.1343  2.3459  0.3565
 8394SOL    HW225548   1.959   2.107   2.051  0.1276 -1.7959 -0.1762
 8395SOL     OW25549   1.005   5.811   1.885  0.3097 -0.6712  0.0730
 8395SOL    HW125550   1.090   5.771   1.905  1.3655  0.4791 -1.8134
 8395SOL    HW225551   0.994   5.880   1.950  1.2033 -0.3342 -0.1212
 8396SOL     OW25552   0.613   5.389   1.037 -0.1034 -0.8721 -0.9808
 8396SOL    HW125553   0.530   5.391   0.989  0.8982 -0.9706 -2.7706
 8396SOL    HW225554   0.655   5.307   1.010  1.0619 -0.3047 -0.9483
 8397SOL     OW25555   1.932   0.586   3.602  0.0558 -0.2934 -0.0625
 8397SOL    HW125556   1.842   0.608   3.627 -0.5680 -1.8404 -0.8140
 8397SOL    HW225557   1.928   0.577   3.506  1.1371  0.1413 -0.1584
 8398SOL     OW25558   6.397   6.176   2.683  0.2547  0.4054 -0.0840
 8398SOL    HW125559   6.449   6.207   2.609  0.4904 -0.2472 -0.1954
 8398SOL    HW225560   6.377   6.085   2.662 -0.5785  0.5279  0.1611
 8399SOL     OW25561   4.582   4.093   4.666 -0.6028  0.1495 -0.4876
 8399SOL    HW125562   4.653   4.041   4.629 -0.3533  0.4434 -0.4279
 8399SOL    HW225563   4.573   4.061   4.756  1.5995  2.2122  0.5847
 8400SOL     OW25564   5.662   1.146   5.826  0.6825 -0.5046 -0.2354
 8400SOL    HW125565   5.748   1.176   5.796  0.4335  0.6317  0.1208
 8400SOL    HW225566   5.600   1.182   5.763  0.3153  0.3370  0.5823
 8401SOL     OW25567   6.519   2.505   5.882  0.5399  0.2632 -0.7880
 8401SOL    HW125568   6.573   2.523   5.959  0.2316  0.7022 -0.6756
 8401SOL    HW225569   6.453   2.575   5.881 -0.0709 -0.3013 -0.8877
 8402SOL     OW25570   4.787   4.706   5.548 -0.2418 -0.2394  0.0305
 8402SOL    HW125571   4.704   4.742   5.579 -0.2892  0.5105 -0.9176
 8402SOL    HW225572   4.767   4.615   5.526 -1.3852  0.4778 -2.1944
 8403SOL     OW25573   0.367   4.458   5.660  0.9875 -0.0798  0.0855
 8403SOL    HW125574   0.311   4.523   5.702  0.7238 -0.5794  0.5154
 8403SOL    HW225575   0.426   4.428   5.729  3.0184  1.7057 -0.7420
 8404SOL     OW25576   5.027   5.700   4.986  0.1872  0.1323  0.3935
 8404SOL    HW125577   5.081   5.627   4.956  0.3848  0.5683 -0.3498
 8404SOL    HW225578   4.939   5.664   4.993  0.2084 -0.0845 -0.3648
 8405SOL     OW25579   1.464   0.522   6.638  0.1656  0.4600 -0.0008
 8405SOL    HW125580   1.425   0.539   6.552  1.7986  1.4592 -0.5865
 8405SOL    HW225581   1.558   0.534   6.625  0.5117  0.0788  1.8092
 8406SOL     OW25582   2.175   3.121   0.697  0.5661 -0.2454 -0.4729
 8406SOL    HW125583   2.154   3.211   0.722 -1.1301 -0.8872  0.6147
 8406SOL    HW225584   2.270   3.114   0.709  0.5531  1.0487  0.6404
 8407SOL     OW25585   6.665   2.302   0.937 -0.2998 -0.0404 -0.4494
 8407SOL    HW125586   6.739   2.361   0.949 -1.2340  1.5117 -1.8078
 8407SOL    HW225587   6.684   2.255   0.856 -0.3456 -0.3570 -0.2773
 8408SOL     OW25588   1.667   2.736   6.471 -0.5212  0.8080 -0.8100
 8408SOL    HW125589   1.747   2.781   6.443 -1.1950  1.6700 -1.4008
 8408SOL    HW225590   1.596   2.788   6.433 -1.3998  0.6309  0.5248
 8409SOL     OW25591   4.313   5.792   4.312  0.3351 -0.4300 -0.2586
 8409SOL    HW125592   4.254   5.836   4.252  0.0609  0.9564  0.9830
 8409SOL    HW225593   4.315   5.701   4.281 -1.3710 -0.2085 -1.1375
 8410SOL     OW25594   1.160   0.906   3.520  0.0411  0.1013  0.2358
 8410SOL    HW125595   1.169   0.829   3.578  1.5221 -0.8208 -1.1383
 8410SOL    HW225596   1.246   0.915   3.480 -0.9133  0.7710 -1.7545
 8411SOL     OW25597   4.864   5.221   6.151 -0.3512 -0.7498  0.1374
 8411SOL    HW125598   4.893   5.161   6.082  1.7239  1.4928 -1.1183
 8411SOL    HW225599   4.782   5.258   6.117  0.4041 -0.0234 -1.0142
 8412SOL     OW25600   6.136   3.195   6.570  0.1446 -0.0722  0.2658
 8412SOL    HW125601   6.121   3.286   6.594 -0.0514  0.1366 -0.6019
 8412SOL    HW225602   6.071   3.177   6.502  0.2989 -0.8066  0.3009
 8413SOL     OW25603   0.826   1.337   6.270  0.2157 -0.2777  0.3671
 8413SOL    HW125604   0.828   1.387   6.352  0.2510  0.9932 -0.3743
 8413SOL    HW225605   0.733   1.330   6.249  0.2706  1.4135 -0.6254
 8414SOL     OW25606   6.713   1.157   5.896 -0.7107 -0.2301 -0.1708
 8414SOL    HW125607   6.723   1.140   5.990  2.5202  1.3935 -0.0587
 8414SOL    HW225608   6.801   1.143   5.860 -1.4547  0.8940 -2.6487
 8415SOL     OW25609   5.494   2.930   4.066  0.2190 -0.3509  0.2676
 8415SOL    HW125610   5.543   2.998   4.020  1.5078 -1.8188 -0.6283
 8415SOL    HW225611   5.449   2.976   4.136  0.0142  1.6150 -1.0679
 8416SOL     OW25612   3.276   0.151   6.651  0.1708  0.3283  0.7372
 8416SOL    HW125613   3.274   0.056   6.638  1.3360  0.4472 -0.4266
 8416SOL    HW225614   3.236   0.188   6.572  1.4514  0.8554  0.3172
 8417SOL     OW25615   1.776   3.774   2.180 -0.3743  0.2592  0.2377
 8417SOL    HW125616   1.869   3.772   2.157 -0.4081 -0.2086  0.1151
 8417SOL    HW225617   1.758   3.686   2.213 -0.4629  0.7610  1.5595
 8418SOL     OW25618   3.227   6.676   6.586 -0.3146 -0.2545  0.3260
 8418SOL    HW125619   3.255   6.614   6.519 -1.2790 -1.3628  0.9087
 8418SOL    HW225620   3.142   6.709   6.554 -1.5623 -1.9778  1.6883
 8419SOL     OW25621   6.052   0.043   1.112 -0.2081  0.6264  0.2472
 8419SOL    HW125622   6.109   0.010   1.043 -1.0150  1.0953 -0.6589
 8419SOL    HW225623   6.026   0.130   1.082 -1.7891  0.2360  0.3941
 8420SOL     OW25624   6.304   1.046   5.663 -0.2619  0.1164  0.4104
 8420SOL    HW125625   6.376   1.084   5.714  0.2853 -2.5239  1.7754
 8420SOL    HW225626   6.242   1.014   5.728 -0.6217 -1.3705 -0.5999
 8421SOL     OW25627   4.066   5.335   5.741  0.0974 -0.4861  1.0228
 8421SOL    HW125628   4.004   5.394   5.698  1.4933  0.0633 -0.3503
 8421SOL    HW225629   4.062   5.358   5.833 -0.9253  0.2914  0.8010
 8422SOL     OW25630   1.387   3.546   0.017 -0.0623 -0.1067 -0.1777
 8422SOL    HW125631   1.341   3.597   0.083 -0.9127 -0.3975 -0.5356
 8422SOL    HW225632   1.457   3.604  -0.014 -2.7120  2.0740 -2.6616
 8423SOL     OW25633   2.750   4.337   3.548  0.0293  0.3029 -0.2638
 8423SOL    HW125634   2.776   4.429   3.558  0.1911  0.3268 -0.8579
 8423SOL    HW225635   2.654   4.339   3.556 -0.0797  0.7008 -1.4108
 8424SOL     OW25636   0.959   0.240   1.952  0.6127 -0.2734  0.3673
 8424SOL    HW125637   0.943   0.240   2.047 -1.8172  0.3157  0.0188
 8424SOL    HW225638   0.902   0.308   1.918 -0.5989 -2.2387 -1.8338
 8425SOL     OW25639   1.167   4.666   5.876  0.2888 -0.1588 -0.6239
 8425SOL    HW125640   1.185   4.695   5.965 -1.2731 -0.7838 -0.0659
 8425SOL    HW225641   1.227   4.717   5.821  1.4024  0.0956  0.7863
 8426SOL     OW25642   3.932   1.080   5.956 -0.2408 -0.1737  0.0339
 8426SOL    HW125643   3.892   1.153   5.908 -1.5413 -1.0998 -0.3673
 8426SOL    HW225644   3.936   1.110   6.047 -0.7279  0.4231 -0.1368
 8427SOL     OW25645   1.002   4.514   1.151  0.3428 -0.8026  0.1419
 8427SOL    HW125646   1.050   4.500   1.069  0.6459  0.1762  0.1301
 8427SOL    HW225647   1.070   4.523   1.218  0.0780 -2.5875  0.7015
 8428SOL     OW25648   3.669   6.587   3.168  0.3612  0.1145  0.3844
 8428SOL    HW125649   3.672   6.648   3.094 -2.8733  0.6675  0.5733
 8428SOL    HW225650   3.633   6.639   3.240  2.1775 -0.7830  2.0361
 8429SOL     OW25651   0.781   3.441   5.979 -0.0470  0.2779 -0.0457
 8429SOL    HW125652   0.708   3.378   5.981  0.5813 -0.5672 -1.6604
 8429SOL    HW225653   0.823   3.432   6.065 -0.9717 -0.2746  0.3659
 8430SOL     OW25654   5.831   2.632   1.580  0.2834  0.1263  0.4332
 8430SOL    HW125655   5.924   2.610   1.579  0.8262  2.2124 -0.1680
 8430SOL    HW225656   5.818   2.686   1.502 -0.5552  2.9959  2.3865
 8431SOL     OW25657   1.202   1.068   1.720  0.4107  0.0858 -0.1350
 8431SOL    HW125658   1.190   1.065   1.625  0.8103 -3.6839 -0.2293
 8431SOL    HW225659   1.114   1.068   1.756  0.2600  0.7605 -0.4886
 8432SOL     OW25660   5.175   4.563   0.778  0.2320  0.0050  0.3281
 8432SOL    HW125661   5.156   4.640   0.830 -2.6017  1.4382 -2.5359
 8432SOL    HW225662   5.151   4.489   0.834 -2.0710  1.4264  1.3378
 8433SOL     OW25663   2.776   4.867   5.407 -0.1992  0.2917  0.1919
 8433SOL    HW125664   2.821   4.946   5.437  0.1449  0.7415 -1.4183
 8433SOL    HW225665   2.768   4.879   5.312  0.0540 -1.7165 -0.1130
 8434SOL     OW25666   2.096   3.425   3.128  0.2270 -0.0287  0.0283
 8434SOL    HW125667   2.038   3.349   3.126 -0.2455  0.3187 -1.7913
 8434SOL    HW225668   2.182   3.389   3.151  0.2053 -1.3110 -1.6452
 8435SOL     OW25669   1.139   0.916   0.288  0.1832 -0.5041 -0.0927
 8435SOL    HW125670   1.088   0.837   0.273 -0.3297 -0.4747  1.3635
 8435SOL    HW225671   1.187   0.898   0.369  0.2635  0.5709  0.1110
 8436SOL     OW25672   1.455   1.604   1.700 -0.3849  0.6268 -0.0719
 8436SOL    HW125673   1.465   1.649   1.617 -1.0049  0.7504 -0.0845
 8436SOL    HW225674   1.414   1.521   1.677 -1.0233  0.8739  0.1649
 8437SOL     OW25675   1.519   1.390   4.184 -0.1696  0.4209  0.0746
 8437SOL    HW125676   1.498   1.368   4.093  0.3643  0.5171 -0.0770
 8437SOL    HW225677   1.470   1.469   4.202  0.6401  1.0799 -0.5215
 8438SOL     OW25678   4.646   0.260   0.418 -0.6179  0.1121  0.8634
 8438SOL    HW125679   4.698   0.188   0.454  1.7653  2.1996  1.9556
 8438SOL    HW225680   4.620   0.231   0.331  0.1769 -2.0736  1.3024
 8439SOL     OW25681   1.049   0.766   1.737  0.3276  0.2449 -0.1871
 8439SOL    HW125682   0.975   0.707   1.749 -0.1207  1.1642  2.4326
 8439SOL    HW225683   1.022   0.847   1.782  2.5406  0.9215  0.0473
 8440SOL     OW25684   1.994   6.436   2.424  0.3452  0.1443 -0.0246
 8440SOL    HW125685   2.019   6.371   2.491  2.1461  1.4341  0.6321
 8440SOL    HW225686   1.899   6.442   2.431  0.4141 -0.3162  1.9240
 8441SOL     OW25687   2.545   5.106   5.448 -0.5705  0.0163 -0.0614
 8441SOL    HW125688   2.621   5.154   5.416  0.8410 -0.8348  1.7905
 8441SOL    HW225689   2.531   5.037   5.383 -0.7871  1.1324 -1.2294
 8442SOL     OW25690   4.954   6.299   3.950  0.3802 -0.3561 -0.0803
 8442SOL    HW125691   4.921   6.282   4.038  0.4900 -0.5877 -0.0825
 8442SOL    HW225692   4.883   6.272   3.892  0.6543 -1.0807 -0.0937
 8443SOL     OW25693   3.424   2.494   5.544  0.0957 -0.5580 -0.1362
 8443SOL    HW125694   3.357   2.544   5.589  1.0398  0.9848 -0.3562
 8443SOL    HW225695   3.376   2.429   5.493 -1.1061 -0.6645  1.0885
 8444SOL     OW25696   5.134   2.522   2.822 -0.0989  0.4710 -0.2206
 8444SOL    HW125697   5.173   2.474   2.749 -0.0908  0.7054 -0.3719
 8444SOL    HW225698   5.040   2.525   2.801 -0.4347 -1.2802  0.8136
 8445SOL     OW25699   6.074   4.926   0.596  0.1863  0.5459  0.1986
 8445SOL    HW125700   6.136   4.857   0.623  0.5916  0.5303 -0.7350
 8445SOL    HW225701   6.027   4.948   0.676 -1.9061 -2.7411  0.0558
 8446SOL     OW25702   0.596   3.780   3.356 -0.6838  0.3481  0.0216
 8446SOL    HW125703   0.544   3.766   3.435  0.3338  0.5624  0.7387
 8446SOL    HW225704   0.687   3.775   3.385 -0.2538 -1.2490 -1.4219
 8447SOL     OW25705   1.515   0.617   4.885  0.0121  0.1954  0.5126
 8447SOL    HW125706   1.565   0.547   4.841  0.4567 -0.2300  1.6618
 8447SOL    HW225707   1.571   0.694   4.879 -0.1540  0.2770 -0.0998
 8448SOL     OW25708   3.622   1.929   6.622  0.0997  0.1841  0.7162
 8448SOL    HW125709   3.591   2.020   6.628 -0.4696 -0.0393  1.3842
 8448SOL    HW225710   3.714   1.933   6.647  0.1148  0.5940  0.6062
 8449SOL     OW25711   5.246   3.115   6.621  0.7670 -0.7216  0.0457
 8449SOL    HW125712   5.299   3.036   6.611 -1.2115 -2.0406 -0.7820
 8449SOL    HW225713   5.164   3.084   6.659  0.5455  1.2426  1.3464
 8450SOL     OW25714   0.444   3.385   6.332 -0.4255  0.1694  0.1105
 8450SOL    HW125715   0.364   3.427   6.298 -2.2082 -2.9001  0.1540
 8450SOL    HW225716   0.453   3.420   6.421 -2.5078 -0.2932  0.5749
 8451SOL     OW25717   4.204   6.721   2.069  0.1260 -0.3657 -0.3695
 8451SOL    HW125718   4.139   6.779   2.029  1.2091 -1.1086 -3.4739
 8451SOL    HW225719   4.154   6.643   2.093 -0.7621  0.5601  0.9596
 8452SOL     OW25720   2.619   3.322   5.699  0.8911 -0.4360 -0.1522
 8452SOL    HW125721   2.704   3.303   5.740  0.6553 -1.3770 -0.0992
 8452SOL    HW225722   2.588   3.400   5.745  2.2916  0.6875 -1.0137
 8453SOL     OW25723   1.995   3.997   5.133  0.0317  0.7282  0.2304
 8453SOL    HW125724   2.008   4.067   5.069  2.4432 -0.0433 -0.2074
 8453SOL    HW225725   2.046   3.923   5.099  0.4609 -0.0722  2.4506
 8454SOL     OW25726   3.356   4.256   1.554 -0.0605 -0.0042 -0.1277
 8454SOL    HW125727   3.325   4.318   1.620 -1.2667 -0.1080 -0.5748
 8454SOL    HW225728   3.357   4.171   1.599  0.7615  0.1825  0.2320
 8455SOL     OW25729   3.957   2.960   2.730 -0.0622 -0.4351 -0.5414
 8455SOL    HW125730   4.018   2.900   2.687  0.7428  1.3062 -1.9228
 8455SOL    HW225731   3.966   3.042   2.682  0.1002  1.3285  2.3018
 8456SOL     OW25732   2.800   0.007   6.712 -0.0863  0.6611 -0.3019
 8456SOL    HW125733   2.824  -0.085   6.727 -0.4318  0.4707 -0.8718
 8456SOL    HW225734   2.758   0.034   6.793  1.7950  0.9275  0.6236
 8457SOL     OW25735   4.781   1.426   5.413  0.3562  0.0896  0.1847
 8457SOL    HW125736   4.746   1.363   5.476 -0.8236 -1.3681 -1.8002
 8457SOL    HW225737   4.704   1.459   5.366  1.1316  1.5894 -0.1037
 8458SOL     OW25738   4.487   4.155   0.828 -0.0871  0.5156 -0.0837
 8458SOL    HW125739   4.535   4.144   0.910 -0.0386 -1.2572 -0.3047
 8458SOL    HW225740   4.396   4.164   0.854  0.0338  0.9189  0.2042
 8459SOL     OW25741   6.124   5.145   5.774  0.2442  0.3433 -0.1059
 8459SOL    HW125742   6.185   5.216   5.792 -0.5054  1.0176 -0.1630
 8459SOL    HW225743   6.178   5.074   5.740  0.7670  1.7165 -2.3516
 8460SOL     OW25744   5.886   1.897   0.474  0.2452 -0.1276 -0.3029
 8460SOL    HW125745   5.887   1.993   0.478 -1.0296 -0.0179 -1.7986
 8460SOL    HW225746   5.967   1.875   0.427  1.4511  0.0570  1.5647
 8461SOL     OW25747   3.233   0.503   0.701 -0.0151 -0.3627  0.5334
 8461SOL    HW125748   3.271   0.464   0.622  0.7649  1.0662  0.1666
 8461SOL    HW225749   3.144   0.469   0.704 -0.9337  1.4344 -2.3829
 8462SOL     OW25750   4.875   5.785   0.112 -0.3325 -0.0784  0.1577
 8462SOL    HW125751   4.944   5.841   0.147 -1.5789  0.7841  1.3745
 8462SOL    HW225752   4.865   5.813   0.021 -0.6087  1.3969  0.6133
 8463SOL     OW25753   3.665   6.771   2.959  0.4152  0.2892 -0.3238
 8463SOL    HW125754   3.593   6.833   2.955  0.3104  0.0737 -2.7444
 8463SOL    HW225755   3.743   6.824   2.938  0.8509  0.2927  1.1770
 8464SOL     OW25756   4.787   3.016   2.768 -0.0552 -0.1655 -0.5614
 8464SOL    HW125757   4.725   3.086   2.789 -0.3797 -0.3252 -0.9959
 8464SOL    HW225758   4.873   3.057   2.780 -0.2412  0.2162 -0.5137
 8465SOL     OW25759   3.971   3.698   0.761  0.4082  0.0487  0.2478
 8465SOL    HW125760   4.017   3.714   0.678  0.3417  0.3852  0.2757
 8465SOL    HW225761   3.943   3.607   0.755  2.2057 -0.5900  0.7731
 8466SOL     OW25762   6.029   0.437   3.342  0.1199  0.3860  0.0631
 8466SOL    HW125763   5.974   0.370   3.384  0.7708 -0.8265 -0.9535
 8466SOL    HW225764   5.979   0.518   3.351 -1.3316 -0.4769  0.1416
 8467SOL     OW25765   1.035   5.736   3.149  0.2237 -0.3284 -0.1134
 8467SOL    HW125766   0.949   5.714   3.115 -1.2250  1.3770  2.1373
 8467SOL    HW225767   1.064   5.657   3.195  0.1458 -1.0863 -1.3242
 8468SOL     OW25768   0.886   1.074   5.980  0.4465 -0.6401 -0.1071
 8468SOL    HW125769   0.825   1.000   5.980 -0.6422  0.2507 -0.0749
 8468SOL    HW225770   0.895   1.098   5.888  0.6696 -0.6986 -0.1015
 8469SOL     OW25771   5.029   1.464   3.980 -0.0482 -0.1790 -0.2853
 8469SOL    HW125772   4.970   1.539   3.973 -0.1204  0.0866  2.2148
 8469SOL    HW225773   4.977   1.395   4.021  0.4219 -1.1747 -1.2735
 8470SOL     OW25774   2.229   4.324   0.986  0.4493  0.2068 -0.0425
 8470SOL    HW125775   2.174   4.303   0.911  1.9539 -1.0849 -0.8376
 8470SOL    HW225776   2.200   4.264   1.055  0.7067 -0.3405 -0.3999
 8471SOL     OW25777   5.178   6.467   4.143  0.1142  0.6079  0.2687
 8471SOL    HW125778   5.191   6.559   4.166 -0.0554  0.6557  0.1697
 8471SOL    HW225779   5.092   6.464   4.100 -0.0040  0.3606  0.5167
 8472SOL     OW25780   4.347   4.794   2.132 -0.1423  0.4206 -0.2039
 8472SOL    HW125781   4.372   4.885   2.144 -0.6502  0.2602  2.9228
 8472SOL    HW225782   4.252   4.796   2.117 -0.3875  0.3852  1.2201
 8473SOL     OW25783   2.145   0.898   1.828  0.6561 -0.0620 -0.2070
 8473SOL    HW125784   2.124   0.805   1.823  2.1101 -0.4022 -0.6759
 8473SOL    HW225785   2.180   0.910   1.916 -0.7629  0.3462  0.3228
 8474SOL     OW25786   1.441   3.845   4.671  0.2799  0.3081 -0.1692
 8474SOL    HW125787   1.408   3.774   4.726  1.4241 -1.8773 -2.0960
 8474SOL    HW225788   1.497   3.897   4.729 -1.7169  0.5740  1.6489
 8475SOL     OW25789   2.900   1.240   1.764  0.0220  0.3641 -0.2179
 8475SOL    HW125790   2.962   1.221   1.835 -1.1765  0.1620  0.8270
 8475SOL    HW225791   2.950   1.291   1.701  1.2246  0.2709  0.6238
 8476SOL     OW25792   0.307   6.657   3.727 -0.1701 -0.3959 -0.1422
 8476SOL    HW125793   0.232   6.680   3.781 -1.1014 -1.3880 -0.9599
 8476SOL    HW225794   0.383   6.693   3.773 -0.9267 -1.1279  1.7733
 8477SOL     OW25795   6.709   3.740   5.736 -0.3890 -0.1553  0.3666
 8477SOL    HW125796   6.802   3.754   5.717 -0.1305 -1.6516  0.3988
 8477SOL    HW225797   6.680   3.822   5.775  0.7460  0.5846 -0.2901
 8478SOL     OW25798   0.904   4.843   2.048 -0.1936  0.4664  0.0901
 8478SOL    HW125799   0.923   4.754   2.078  1.5376  0.1216 -1.7859
 8478SOL    HW225800   0.843   4.831   1.975 -0.3643  0.8571  0.1650
 8479SOL     OW25801   6.238   2.814   4.593 -0.0332  0.1032  0.3491
 8479SOL    HW125802   6.311   2.852   4.544 -0.0384 -1.4082 -0.9425
 8479SOL    HW225803   6.185   2.889   4.620  2.1513  1.2698  1.6620
 8480SOL     OW25804   0.780   2.246   2.820 -0.4653 -0.3225 -0.3791
 8480SOL    HW125805   0.770   2.259   2.914 -0.0241  0.4302 -0.4217
 8480SOL    HW225806   0.780   2.152   2.808 -1.0692 -0.4205  0.3142
 8481SOL     OW25807   2.901   4.380   4.216 -0.1206  0.4998 -0.5174
 8481SOL    HW125808   2.867   4.387   4.127  0.4213  2.4377 -0.6359
 8481SOL    HW225809   2.955   4.302   4.216 -1.3218 -0.3643 -1.4502
 8482SOL     OW25810   0.895   1.868   6.491  0.4797 -0.4918  0.7680
 8482SOL    HW125811   0.817   1.866   6.436  0.1526 -1.2124  1.2417
 8482SOL    HW225812   0.893   1.954   6.532 -1.2436 -1.2370  2.3914
 8483SOL     OW25813   5.536   1.859   4.138 -0.3587 -0.1903  0.2741
 8483SOL    HW125814   5.461   1.801   4.143 -0.6488  0.2081  0.6775
 8483SOL    HW225815   5.548   1.875   4.045 -2.5362  1.9682  0.2690
 8484SOL     OW25816   1.332   6.711   6.482  0.4099  0.2076 -0.6829
 8484SOL    HW125817   1.426   6.719   6.501  0.3537 -1.1609  0.3844
 8484SOL    HW225818   1.328   6.662   6.400  0.6384 -0.1859 -0.4634
 8485SOL     OW25819   5.281   5.667   3.713  0.4185 -0.1670 -0.1589
 8485SOL    HW125820   5.273   5.597   3.777  0.1590 -0.8078 -0.8778
 8485SOL    HW225821   5.346   5.636   3.650 -1.2870 -0.7753 -1.7178
 8486SOL     OW25822   3.852   6.736   5.344 -0.8594 -0.1254 -0.0045
 8486SOL    HW125823   3.883   6.710   5.257 -0.6262  0.5522 -0.1364
 8486SOL    HW225824   3.916   6.698   5.404 -0.9132 -0.4384 -0.1453
 8487SOL     OW25825   5.629   4.644   0.485  0.2814 -0.7145  0.4614
 8487SOL    HW125826   5.634   4.584   0.410 -2.7482  1.0961 -1.4388
 8487SOL    HW225827   5.631   4.731   0.445 -0.9579  0.3356  2.5473
 8488SOL     OW25828   4.343   3.738   3.120 -0.4100 -0.1642 -0.2228
 8488SOL    HW125829   4.414   3.689   3.163  1.3195  3.4747  1.4908
 8488SOL    HW225830   4.314   3.681   3.049  2.2445 -3.0582  0.7967
 8489SOL     OW25831   3.787   5.401   3.232  0.4433  0.4091  0.0255
 8489SOL    HW125832   3.726   5.335   3.264 -0.9597  1.8648  0.4846
 8489SOL    HW225833   3.740   5.444   3.161  1.9079 -0.0167 -1.2406
 8490SOL     OW25834   4.891   4.712   4.926 -0.2933  0.3377 -0.0405
 8490SOL    HW125835   4.918   4.676   5.011 -1.4216  1.1331  0.6824
 8490SOL    HW225836   4.916   4.644   4.863  1.4872  0.1541  0.7850
 8491SOL     OW25837   6.105   6.060   2.482  0.3267  0.4680 -0.8714
 8491SOL    HW125838   6.030   6.088   2.428 -1.2743 -2.7715 -0.5828
 8491SOL    HW225839   6.182   6.082   2.430 -0.9901  0.9023 -2.7343
 8492SOL     OW25840   1.905   1.817   1.150 -0.4667 -0.7207 -0.1653
 8492SOL    HW125841   1.839   1.783   1.090  0.0550 -3.1000  0.5090
 8492SOL    HW225842   1.986   1.772   1.126  0.5144  0.7329  0.2408
 8493SOL     OW25843   3.683   4.840   2.749  0.1902 -0.4443  0.2040
 8493SOL    HW125844   3.753   4.802   2.802  0.1542 -1.0566 -0.1783
 8493SOL    HW225845   3.713   4.831   2.659  0.0672  0.2173  0.0954
 8494SOL     OW25846   4.146   0.940   4.002 -0.3779 -0.2658 -0.4771
 8494SOL    HW125847   4.196   1.005   3.954  1.1953  1.3975  3.0288
 8494SOL    HW225848   4.209   0.901   4.063 -1.9264 -3.0985 -0.5082
 8495SOL     OW25849   4.832   6.556   1.142 -0.7244  0.0768  0.6803
 8495SOL    HW125850   4.778   6.522   1.071  0.0483 -0.1122  0.1594
 8495SOL    HW225851   4.870   6.478   1.183  1.3597  0.2350 -0.7603
 8496SOL     OW25852   4.738   4.460   6.503 -1.1913  0.0210  0.0964
 8496SOL    HW125853   4.793   4.537   6.520 -1.0657 -0.0346 -0.0518
 8496SOL    HW225854   4.795   4.386   6.523 -1.5240 -0.0301  0.8797
 8497SOL     OW25855   4.779   1.686   5.591 -0.1484 -0.3743  0.2504
 8497SOL    HW125856   4.687   1.666   5.608 -0.7914  1.3543 -0.8869
 8497SOL    HW225857   4.804   1.625   5.521 -0.2212 -1.2678  0.9842
 8498SOL     OW25858   1.985   0.532   4.213  0.0680  0.3978  0.0491
 8498SOL    HW125859   1.974   0.547   4.119  1.5133  1.0023 -0.0469
 8498SOL    HW225860   1.901   0.558   4.251 -0.5593  0.1018 -1.0617
 8499SOL     OW25861   6.542   2.018   2.865  0.4502  0.2138 -0.2496
 8499SOL    HW125862   6.634   2.028   2.844  0.6487  0.2406  0.5787
 8499SOL    HW225863   6.502   2.100   2.838  0.4597 -0.1995 -1.5966
 8500SOL     OW25864   1.749   0.030   5.088 -0.1492  0.4200  0.1669
 8500SOL    HW125865   1.778   0.054   5.000  0.3459 -1.3805 -0.2016
 8500SOL    HW225866   1.678  -0.033   5.073  1.0285 -1.1560  1.0273
 8501SOL     OW25867   0.130   6.112   4.856 -0.0216  0.0329  0.7249
 8501SOL    HW125868   0.072   6.044   4.889 -0.2898  0.6616  1.6049
 8501SOL    HW225869   0.167   6.152   4.934  1.9852 -0.6412  0.1869
 8502SOL     OW25870   1.081   1.433   5.660 -0.1101  0.1273  0.0937
 8502SOL    HW125871   1.114   1.496   5.723  0.3534 -0.3121  0.2924
 8502SOL    HW225872   1.090   1.348   5.703 -4.5894  0.1495  1.6006
 8503SOL     OW25873   4.850   4.732   3.694 -0.0754  0.3069  0.6578
 8503SOL    HW125874   4.805   4.673   3.634  1.5398  0.2058 -0.5356
 8503SOL    HW225875   4.827   4.820   3.665 -1.5363  0.3036  1.6981
 8504SOL     OW25876   5.226   1.399   6.314 -0.1782 -0.1391 -0.1021
 8504SOL    HW125877   5.267   1.313   6.311 -2.6914 -1.4545  0.6041
 8504SOL    HW225878   5.297   1.459   6.336  1.2657 -2.3236  1.5914
 8505SOL     OW25879   2.705   6.053   4.336  0.6591  0.0691  0.8384
 8505SOL    HW125880   2.692   6.037   4.429  0.4497 -0.8410  0.6608
 8505SOL    HW225881   2.666   6.140   4.321 -1.2971 -0.7012  1.1865
 8506SOL     OW25882   0.212   0.153   2.745 -0.5983  0.0761 -0.3510
 8506SOL    HW125883   0.189   0.145   2.838 -0.6833 -0.6096 -0.4292
 8506SOL    HW225884   0.241   0.244   2.736  3.6880 -0.8923  1.3215
 8507SOL     OW25885   3.304   5.530   6.387 -0.4177  0.3812 -0.2041
 8507SOL    HW125886   3.302   5.461   6.320 -0.3043  0.6219 -0.4620
 8507SOL    HW225887   3.213   5.556   6.397 -0.2847  1.5859 -1.5970
 8508SOL     OW25888   6.305   3.412   0.731  0.0575  0.1806 -0.0952
 8508SOL    HW125889   6.349   3.331   0.706  0.3042  0.2280  0.1803
 8508SOL    HW225890   6.369   3.481   0.714  0.1752  0.2308  0.5005
 8509SOL     OW25891   2.051   3.518   2.067  0.3875  0.0330  0.0612
 8509SOL    HW125892   1.975   3.471   2.102  0.7279  0.4077  1.3791
 8509SOL    HW225893   2.036   3.522   1.973 -1.3290  0.2732  0.3105
 8510SOL     OW25894   2.624   4.222   4.303 -0.0682 -0.6660  0.3197
 8510SOL    HW125895   2.693   4.233   4.237  0.1659 -0.5650  0.5757
 8510SOL    HW225896   2.672   4.216   4.386 -0.3145 -1.4427  0.4157
 8511SOL     OW25897   6.177   4.002   0.044 -0.0765  0.2626 -0.0344
 8511SOL    HW125898   6.192   3.987   0.137 -1.1428  0.6514  0.2153
 8511SOL    HW225899   6.169   3.914   0.006  1.1831  0.0840  0.0829
 8512SOL     OW25900   5.633   0.528   4.060  0.6624  0.3869 -0.0638
 8512SOL    HW125901   5.614   0.583   4.137  0.5770  1.3970 -0.7912
 8512SOL    HW225902   5.573   0.453   4.070  1.2098  0.0905  1.2611
 8513SOL     OW25903   4.506   3.243   3.089  0.2314  0.4870  0.0151
 8513SOL    HW125904   4.503   3.315   3.026  0.1605 -0.2324 -0.8289
 8513SOL    HW225905   4.491   3.164   3.036 -0.4037 -0.0912  1.0207
 8514SOL     OW25906   5.057   5.615   3.496 -0.2796 -0.3197 -0.0920
 8514SOL    HW125907   5.096   5.701   3.482 -0.2265 -0.3881 -0.3738
 8514SOL    HW225908   5.084   5.590   3.584 -0.1963 -0.1007 -0.0550
 8515SOL     OW25909   6.156   4.601   1.344 -0.3585 -0.0303  0.7333
 8515SOL    HW125910   6.248   4.616   1.365 -0.2589 -1.0137  1.0717
 8515SOL    HW225911   6.158   4.535   1.275 -0.7133  2.7113 -2.0808
 8516SOL     OW25912   1.838   2.246   1.373  0.3346  0.1629  0.0878
 8516SOL    HW125913   1.759   2.260   1.322 -0.1229  0.7385  0.9366
 8516SOL    HW225914   1.811   2.259   1.464  0.6454 -2.8658  0.7120
 8517SOL     OW25915   5.916   6.084   2.294  0.2867  0.2933  0.2389
 8517SOL    HW125916   5.826   6.102   2.266  0.7193  1.1487 -0.6438
 8517SOL    HW225917   5.934   5.996   2.262 -0.3890 -0.0772  0.8426
 8518SOL     OW25918   6.748   1.422   3.200  0.3952  0.5485 -0.2824
 8518SOL    HW125919   6.726   1.394   3.289  1.3242  0.8544  0.0578
 8518SOL    HW225920   6.841   1.403   3.191  0.9013  2.7397 -0.2998
 8519SOL     OW25921   4.276   5.320   2.502 -0.0349  0.2754 -0.0014
 8519SOL    HW125922   4.246   5.257   2.436 -0.1973 -0.2784  0.5956
 8519SOL    HW225923   4.350   5.276   2.544 -0.7515  0.0709  1.0707
 8520SOL     OW25924   4.741   3.459   5.443  0.1553  0.6695  0.3621
 8520SOL    HW125925   4.793   3.395   5.394  0.8994  2.4511 -1.3172
 8520SOL    HW225926   4.715   3.413   5.522 -0.9401 -2.3170 -1.5725
 8521SOL     OW25927   0.927   1.877   4.608  0.2208  0.2494  0.0160
 8521SOL    HW125928   0.869   1.938   4.563 -0.4681  1.2200  2.1314
 8521SOL    HW225929   1.008   1.879   4.556 -0.2788  1.8675 -0.7635
 8522SOL     OW25930   5.493   5.321   6.502 -0.0766  0.3499 -0.5266
 8522SOL    HW125931   5.526   5.396   6.452  1.1303  0.1246 -0.1136
 8522SOL    HW225932   5.510   5.245   6.446 -1.6419  0.3965 -1.1065
 8523SOL     OW25933   2.753   6.662   4.502 -0.0467 -0.5887 -0.4844
 8523SOL    HW125934   2.670   6.629   4.535  0.0481 -1.1809 -0.8148
 8523SOL    HW225935   2.790   6.711   4.574 -0.3374 -0.9589 -0.0771
 8524SOL     OW25936   5.012   4.057   1.331  0.0946 -1.2649 -0.0546
 8524SOL    HW125937   5.088   4.111   1.351  0.3514 -1.3315 -0.8175
 8524SOL    HW225938   4.985   4.020   1.415  0.7651 -1.0533  0.2532
 8525SOL     OW25939   6.160   1.240   3.706 -0.8984 -0.2941  0.1108
 8525SOL    HW125940   6.201   1.302   3.647  0.6844  0.1112  1.5512
 8525SOL    HW225941   6.079   1.284   3.735 -0.1895  0.7880  0.5047
 8526SOL     OW25942   4.408   6.795   1.498 -0.2988  0.1415  0.7921
 8526SOL    HW125943   4.383   6.703   1.492  1.9371 -0.6042  1.8652
 8526SOL    HW225944   4.440   6.817   1.411  1.0573 -0.7329  1.0476
 8527SOL     OW25945   4.474   1.240   2.778 -0.6729  0.2086  0.1425
 8527SOL    HW125946   4.418   1.292   2.836 -0.5769 -0.7854  1.1500
 8527SOL    HW225947   4.481   1.155   2.821  0.3126 -0.1963 -0.7801
 8528SOL     OW25948   1.572   1.056   2.962  0.2636 -0.0023 -0.0627
 8528SOL    HW125949   1.653   1.013   2.937  0.6215  0.6703 -0.0791
 8528SOL    HW225950   1.562   1.128   2.900  0.6975  1.1292  1.1410
 8529SOL     OW25951   3.632   4.132   5.525  0.1554  0.1160  0.1771
 8529SOL    HW125952   3.618   4.221   5.559 -0.4981 -0.1225  0.5410
 8529SOL    HW225953   3.597   4.075   5.593 -0.2900 -0.3962 -0.4755
 8530SOL     OW25954   6.594   1.246   5.170 -0.1910 -0.2198  0.4390
 8530SOL    HW125955   6.561   1.330   5.202  0.3839 -0.1902  0.9744
 8530SOL    HW225956   6.533   1.181   5.205 -1.3791  0.0600 -1.0321
 8531SOL     OW25957   6.111   0.953   3.565  0.1429  0.3277  0.1827
 8531SOL    HW125958   6.153   1.028   3.606 -0.3557 -0.5148  2.3588
 8531SOL    HW225959   6.019   0.960   3.591 -0.0149 -0.7199 -0.0467
 8532SOL     OW25960   5.239   5.068   5.691 -0.1455  0.4320  0.0584
 8532SOL    HW125961   5.223   5.045   5.783  0.6602  0.4445  0.2113
 8532SOL    HW225962   5.303   5.004   5.661 -0.9465 -0.0311 -0.7239
 8533SOL     OW25963   3.041   5.958   6.776 -0.1703  0.0996 -0.4750
 8533SOL    HW125964   3.090   5.878   6.758  3.8782  1.5768  2.5212
 8533SOL    HW225965   2.998   5.941   6.860  1.6972  1.3013  0.7966
 8534SOL     OW25966   5.918   4.033   6.477 -0.7182 -0.4286  0.5573
 8534SOL    HW125967   5.986   4.048   6.411  0.6175 -1.4425  1.6389
 8534SOL    HW225968   5.950   3.958   6.528 -2.8951 -1.2420  0.8264
 8535SOL     OW25969   0.391   5.576   5.946  0.1208  0.2201  0.3158
 8535SOL    HW125970   0.352   5.564   5.859  0.3880  0.2761  0.1850
 8535SOL    HW225971   0.401   5.671   5.955 -1.8853  0.3766  1.3031
 8536SOL     OW25972   5.306   3.117   5.659  0.1133  0.1498  0.0061
 8536SOL    HW125973   5.296   3.036   5.609  0.0820  1.0056 -1.4134
 8536SOL    HW225974   5.217   3.140   5.685  0.0216  0.1778 -0.3243
 8537SOL     OW25975   3.886   0.563   4.901 -0.3425  0.3906  0.3162
 8537SOL    HW125976   3.926   0.593   4.819  2.1098  1.4098  1.7512
 8537SOL    HW225977   3.907   0.470   4.906  1.9522  0.8838  0.9855
 8538SOL     OW25978   4.162   3.249   3.388  0.5888 -0.1110 -0.2748
 8538SOL    HW125979   4.151   3.226   3.480  0.1658  1.3100  0.0581
 8538SOL    HW225980   4.253   3.226   3.368  0.0705 -2.4528 -0.1453
 8539SOL     OW25981   1.733   4.719   3.909 -0.2078  0.1599  0.3185
 8539SOL    HW125982   1.668   4.697   3.843  0.2902  0.2048 -0.2005
 8539SOL    HW225983   1.744   4.639   3.959  0.4066 -0.3071 -0.5304
 8540SOL     OW25984   2.258   5.491   1.720 -0.2261 -0.0513 -0.0648
 8540SOL    HW125985   2.284   5.427   1.786  1.1335 -0.2658 -0.7728
 8540SOL    HW225986   2.235   5.439   1.644  0.6890  0.2900 -0.5799
 8541SOL     OW25987   0.800   4.334   5.215  0.0363 -0.5944 -0.4097
 8541SOL    HW125988   0.881   4.285   5.228 -0.1395 -0.6538  0.5242
 8541SOL    HW225989   0.752   4.324   5.297 -0.7711 -0.2835 -0.8315
 8542SOL     OW25990   6.711   1.523   0.438 -0.3869 -0.0224  0.0058
 8542SOL    HW125991   6.742   1.481   0.358  0.4127 -0.8511  0.7329
 8542SOL    HW225992   6.682   1.610   0.410  0.8014  0.0653 -1.0150
 8543SOL     OW25993   4.666   1.798   1.773  0.0498  0.2555  0.1246
 8543SOL    HW125994   4.575   1.825   1.761 -0.4787 -0.7443  1.5840
 8543SOL    HW225995   4.671   1.712   1.732  0.3736  0.3692 -0.0747
 8544SOL     OW25996   0.717   6.301   3.926  0.3045  0.2493 -0.0032
 8544SOL    HW125997   0.758   6.317   4.012 -1.5358 -0.1698  1.0146
 8544SOL    HW225998   0.771   6.232   3.887  1.7048  1.0541  0.4012
 8545SOL     OW25999   4.672   5.317   6.027  0.1978 -0.1215  0.3537
 8545SOL    HW126000   4.577   5.324   6.038  0.2806  0.3837  0.8119
 8545SOL    HW226001   4.686   5.321   5.933 -0.1709  0.7681  0.3295
 8546SOL     OW26002   6.629   2.018   1.867 -0.0319  0.2258  0.0614
 8546SOL    HW126003   6.536   2.009   1.846 -0.5054 -1.0588  2.3115
 8546SOL    HW226004   6.645   2.112   1.871 -1.3035  0.4583 -0.1445
 8547SOL     OW26005   0.719   0.568   4.801 -0.1166  0.8259 -0.0621
 8547SOL    HW126006   0.671   0.612   4.731  0.4187  0.4131 -0.7037
 8547SOL    HW226007   0.721   0.476   4.775 -0.1142  0.6263  0.6176
 8548SOL     OW26008   4.111   4.055   4.470  0.1279  0.2405 -0.1595
 8548SOL    HW126009   4.118   3.983   4.408 -2.2561 -0.1993 -0.0087
 8548SOL    HW226010   4.198   4.097   4.469  1.7643 -2.8651  0.1019
 8549SOL     OW26011   0.674   5.465   3.072  0.1138 -0.1936 -0.9996
 8549SOL    HW126012   0.721   5.388   3.039  0.9237 -0.2746  0.3066
 8549SOL    HW226013   0.616   5.430   3.140 -1.2848  0.0279 -2.0214
 8550SOL     OW26014   0.315   5.875   4.443  0.9291 -0.3337 -0.4744
 8550SOL    HW126015   0.262   5.909   4.515  1.1183  1.2572 -1.0474
 8550SOL    HW226016   0.315   5.780   4.456  1.8127 -0.0451  2.2286
 8551SOL     OW26017   3.938   1.239   1.826 -0.0841 -0.3833  0.0016
 8551SOL    HW126018   3.978   1.237   1.914 -0.3590  2.2505  0.2812
 8551SOL    HW226019   3.864   1.179   1.832  0.1498 -0.5768  1.4415
 8552SOL     OW26020   6.687   1.986   2.420  0.0147 -0.5333  0.2056
 8552SOL    HW126021   6.607   2.007   2.371 -0.1941 -1.1686  0.2550
 8552SOL    HW226022   6.694   1.890   2.414 -0.6426 -0.7692  2.3542
 8553SOL     OW26023   5.204   0.472   4.352 -0.2965 -0.1091  0.5282
 8553SOL    HW126024   5.134   0.409   4.370 -1.0135  0.8573  1.2364
 8553SOL    HW226025   5.161   0.541   4.301  0.6082 -0.4334 -0.7224
 8554SOL     OW26026   6.759   2.195   1.378 -0.0036 -0.2241 -0.3233
 8554SOL    HW126027   6.848   2.228   1.389  0.0505 -0.6069  0.5279
 8554SOL    HW226028   6.750   2.179   1.284  0.1606  1.6178 -0.6725
 8555SOL     OW26029   2.970   2.259   5.228 -0.3225 -0.2614 -0.0962
 8555SOL    HW126030   2.998   2.317   5.157 -0.6609 -0.7095 -0.6024
 8555SOL    HW226031   2.953   2.317   5.302  1.5234  0.0702  0.1037
 8556SOL     OW26032   2.870   0.039   2.539  0.6929  0.4453  0.8637
 8556SOL    HW126033   2.921   0.093   2.479 -0.2400  1.3793  0.8853
 8556SOL    HW226034   2.876   0.084   2.623 -1.8253  1.7469  0.4314
 8557SOL     OW26035   0.353   5.936   2.826 -0.4612 -0.2784  0.4793
 8557SOL    HW126036   0.295   5.881   2.880 -0.1184 -0.1718  0.9617
 8557SOL    HW226037   0.378   5.879   2.753 -3.0469  0.3808 -1.0741
 8558SOL     OW26038   1.191   3.052   2.228 -0.1263  0.1798  0.2227
 8558SOL    HW126039   1.160   2.980   2.283  1.6668 -1.6553 -1.0339
 8558SOL    HW226040   1.281   3.068   2.257 -0.8080  2.7282  1.1962
 8559SOL     OW26041   0.714   5.158   3.831 -0.4064  0.5436  0.0122
 8559SOL    HW126042   0.798   5.112   3.832 -0.6314  0.0825  1.5505
 8559SOL    HW226043   0.651   5.093   3.862 -1.1510  1.1775 -0.1422
 8560SOL     OW26044   0.009   2.101   3.640  0.1869 -0.0995  0.2563
 8560SOL    HW126045   0.087   2.047   3.627 -0.0769 -0.5296  0.4261
 8560SOL    HW226046   0.042   2.184   3.673  0.5265 -0.4926  0.9247
 8561SOL     OW26047   6.155   1.938   6.141 -0.4224 -0.1744 -0.0564
 8561SOL    HW126048   6.128   1.853   6.175  1.3324 -0.3913  0.8715
 8561SOL    HW226049   6.190   1.985   6.216 -2.6557  2.0036 -0.2044
 8562SOL     OW26050   1.598   1.086   5.884 -0.2514  0.5123  0.3186
 8562SOL    HW126051   1.632   1.147   5.950  0.3104  1.2484 -0.6237
 8562SOL    HW226052   1.506   1.111   5.875 -0.3710  0.3117  0.9163
 8563SOL     OW26053   0.747   0.852   5.615 -0.1312  0.1833 -0.3127
 8563SOL    HW126054   0.741   0.803   5.533 -3.3312 -0.0599 -0.0483
 8563SOL    HW226055   0.693   0.930   5.602  0.5168  0.9159  1.0797
 8564SOL     OW26056   3.370   0.828   1.211  0.2437  0.2004  0.8247
 8564SOL    HW126057   3.346   0.842   1.120  0.1277  1.0321  0.9790
 8564SOL    HW226058   3.443   0.888   1.226  0.0956  0.2565  1.3498
 8565SOL     OW26059   4.613   2.179   4.633 -0.1742  0.3647 -0.0501
 8565SOL    HW126060   4.670   2.256   4.630 -0.8762  0.8771 -0.4007
 8565SOL    HW226061   4.569   2.185   4.718  1.5844 -1.0052  1.0508
 8566SOL     OW26062   6.316   4.488   5.828 -0.6157 -0.4047  0.0696
 8566SOL    HW126063   6.319   4.393   5.820  0.8758 -0.4101  0.3642
 8566SOL    HW226064   6.248   4.504   5.894 -0.8982 -1.2473  0.0025
 8567SOL     OW26065   1.074   3.075   4.323  0.4103  0.8687  0.1518
 8567SOL    HW126066   1.081   3.123   4.405 -0.0647  0.2581  0.5623
 8567SOL    HW226067   1.117   3.131   4.258  2.7569  0.3998  1.2027
 8568SOL     OW26068   0.345   2.631   2.388  0.2414  0.8889  0.6965
 8568SOL    HW126069   0.280   2.575   2.345  0.8926 -0.8657  1.9074
 8568SOL    HW226070   0.337   2.715   2.342 -0.7578 -0.1662 -1.2032
 8569SOL     OW26071   3.749   1.059   2.747  0.0750 -0.0810 -0.0369
 8569SOL    HW126072   3.749   1.089   2.838 -0.0067  0.1722 -0.1193
 8569SOL    HW226073   3.731   1.138   2.696  2.3758  0.2451 -0.4350
 8570SOL     OW26074   6.572   2.676   1.132  0.2524  0.0311  0.0813
 8570SOL    HW126075   6.579   2.768   1.105 -0.0394  0.1994  0.5790
 8570SOL    HW226076   6.662   2.646   1.139  0.4155  0.8247  1.7609
 8571SOL     OW26077   6.183   3.946   0.310  0.0903  0.4952  0.0659
 8571SOL    HW126078   6.145   4.018   0.359 -1.2816 -0.5599  0.6129
 8571SOL    HW226079   6.233   3.896   0.374  2.2630  1.6884 -0.5827
 8572SOL     OW26080   5.433   0.279   6.123  0.3307 -0.0765  0.0734
 8572SOL    HW126081   5.347   0.241   6.108  0.7710 -1.0392 -0.1091
 8572SOL    HW226082   5.419   0.373   6.117 -0.5784 -0.2408 -0.6864
 8573SOL     OW26083   3.696   1.386   0.151 -1.0254  0.3029  0.2592
 8573SOL    HW126084   3.737   1.396   0.237  0.9546 -4.6000  0.2015
 8573SOL    HW226085   3.767   1.405   0.089 -1.6467  1.0326 -0.2448
 8574SOL     OW26086   2.311   1.419   2.694  0.1683 -0.1895  0.6935
 8574SOL    HW126087   2.238   1.445   2.752 -0.3882  1.4629 -0.6626
 8574SOL    HW226088   2.324   1.495   2.637  0.1246 -2.0414 -1.9309
 8575SOL     OW26089   6.171   1.034   2.697  0.2642 -0.6127 -0.1213
 8575SOL    HW126090   6.126   0.949   2.700  0.0348 -0.5786 -1.5627
 8575SOL    HW226091   6.123   1.083   2.631  0.7485  0.4414  0.3009
 8576SOL     OW26092   0.074   5.445   5.335  0.3418 -0.3307 -0.7540
 8576SOL    HW126093   0.083   5.401   5.420  1.9083  0.3253 -0.5543
 8576SOL    HW226094   0.081   5.538   5.356  2.7215 -0.2334 -1.8000
 8577SOL     OW26095   1.678   6.419   2.680  0.0632  0.2420 -0.6388
 8577SOL    HW126096   1.734   6.493   2.701 -0.8248  0.5110  0.8886
 8577SOL    HW226097   1.611   6.419   2.748 -0.3463 -1.5680 -0.9956
 8578SOL     OW26098   2.546   4.590   0.595  0.2791 -0.6616 -0.2242
 8578SOL    HW126099   2.640   4.574   0.590  0.8607 -1.1515  5.4482
 8578SOL    HW226100   2.508   4.504   0.614 -1.5133 -0.5300 -2.7267
 8579SOL     OW26101   6.104   3.886   2.179  0.7630 -0.4999  0.0166
 8579SOL    HW126102   6.042   3.863   2.110 -0.7385  0.7862  0.8500
 8579SOL    HW226103   6.186   3.846   2.153 -0.4065 -2.2680 -1.1653
 8580SOL     OW26104   4.830   5.034   4.768  0.3641  0.0804  0.5639
 8580SOL    HW126105   4.787   5.009   4.850 -1.1101  1.3840  0.2484
 8580SOL    HW226106   4.763   5.023   4.701  0.9342  0.9108 -0.1665
 8581SOL     OW26107   0.397   0.470   3.222 -0.0582  0.1142 -0.2211
 8581SOL    HW126108   0.471   0.411   3.205  0.4593  0.9603 -0.9416
 8581SOL    HW226109   0.436   0.557   3.228 -1.0109  0.5974 -0.7740
 8582SOL     OW26110   2.560   1.031   0.977 -0.6905 -0.3860 -0.7375
 8582SOL    HW126111   2.489   0.972   1.000  1.0015 -2.7050 -1.0309
 8582SOL    HW226112   2.570   1.088   1.054 -1.1556 -1.7984  0.4221
 8583SOL     OW26113   5.777   4.378   0.854 -0.2422 -0.1124  0.0633
 8583SOL    HW126114   5.784   4.426   0.772 -1.2527  1.4732  0.8564
 8583SOL    HW226115   5.686   4.390   0.881 -0.7577 -3.0434  0.0148
 8584SOL     OW26116   2.655   2.729   4.683 -0.1579 -0.6669 -0.1779
 8584SOL    HW126117   2.727   2.752   4.624 -0.0180 -0.0803  0.2177
 8584SOL    HW226118   2.696   2.720   4.769 -0.2024 -2.4284 -0.3004
 8585SOL     OW26119   1.627   0.341   3.563  0.4699  0.4842  0.1632
 8585SOL    HW126120   1.680   0.311   3.489  0.3654 -0.7554  0.5648
 8585SOL    HW226121   1.687   0.340   3.638  0.3271  0.7731  0.2817
 8586SOL     OW26122   5.419   0.092   4.494 -0.0344  0.0533  0.5219
 8586SOL    HW126123   5.421   0.123   4.584 -0.2157  1.8782 -0.0520
 8586SOL    HW226124   5.473   0.155   4.446  0.7015 -1.3219 -0.5325
 8587SOL     OW26125   3.588   6.700   0.346 -0.0366  0.4122  0.3883
 8587SOL    HW126126   3.676   6.700   0.308 -0.7089 -0.4676 -1.2682
 8587SOL    HW226127   3.596   6.650   0.427  0.8992 -0.0202  0.0366
 8588SOL     OW26128   2.494   6.515   6.622  0.6240  1.1445  0.5470
 8588SOL    HW126129   2.512   6.424   6.598 -1.1546  1.1015 -0.8344
 8588SOL    HW226130   2.521   6.521   6.714  2.8325 -0.1312  0.0663
 8589SOL     OW26131   4.564   1.219   6.607  0.0834 -0.6332  0.4241
 8589SOL    HW126132   4.566   1.179   6.694  1.8223 -0.5015  0.4836
 8589SOL    HW226133   4.633   1.173   6.558  1.0654  1.2070  0.0110
 8590SOL     OW26134   2.461   2.958   0.668  0.0598 -0.4238 -0.0748
 8590SOL    HW126135   2.412   2.909   0.733 -0.9889  1.0718  0.3184
 8590SOL    HW226136   2.484   3.040   0.711 -0.1377  0.3487 -1.3798
 8591SOL     OW26137   2.945   2.803   5.499 -0.3366 -0.5557 -0.7913
 8591SOL    HW126138   3.029   2.814   5.543 -0.6220 -1.2848 -0.0222
 8591SOL    HW226139   2.962   2.742   5.427 -0.0677 -0.1520 -1.0689
 8592SOL     OW26140   0.588   3.935   1.410  0.6376  0.6612 -0.2055
 8592SOL    HW126141   0.682   3.920   1.419  0.5818  0.3659 -0.0862
 8592SOL    HW226142   0.573   4.019   1.453  0.8842  0.8220 -0.4327
 8593SOL     OW26143   0.769   0.101   4.165 -0.0864  0.4445  0.5483
 8593SOL    HW126144   0.754   0.011   4.192  2.1596  0.1143  0.9074
 8593SOL    HW226145   0.712   0.153   4.222 -0.5232 -0.6551  1.1522
 8594SOL     OW26146   1.772   0.092   0.187  0.0336 -0.0773 -0.1425
 8594SOL    HW126147   1.748   0.007   0.151 -3.3234  0.4017  0.6376
 8594SOL    HW226148   1.811   0.071   0.273 -0.6142 -0.8388 -0.0256
 8595SOL     OW26149   0.347   5.049   1.398  0.5906  0.7134  0.0655
 8595SOL    HW126150   0.328   5.130   1.351 -2.2170 -0.6155 -1.3260
 8595SOL    HW226151   0.443   5.042   1.397  0.8378  3.2319 -1.0636
 8596SOL     OW26152   0.215   1.371   5.680 -0.0265  0.3029  0.6811
 8596SOL    HW126153   0.196   1.413   5.596  0.2048 -2.6292 -0.9852
 8596SOL    HW226154   0.303   1.401   5.703  0.6304 -0.1237 -1.0695
 8597SOL     OW26155   3.940   1.007   0.867  1.1864 -0.1220 -0.1534
 8597SOL    HW126156   4.008   1.072   0.882  0.2199  0.8781  0.0300
 8597SOL    HW226157   3.948   0.984   0.775 -0.2446  2.4033 -0.9927
 8598SOL     OW26158   0.410   2.869   0.985 -0.3898 -0.2555 -0.3799
 8598SOL    HW126159   0.464   2.811   1.039 -0.9441 -0.2645  0.1796
 8598SOL    HW226160   0.447   2.956   1.000 -1.2611 -0.0852  0.9718
 8599SOL     OW26161   1.169   3.036   5.852  0.0594 -0.5970  0.0857
 8599SOL    HW126162   1.123   3.103   5.904 -1.8826 -2.4531  0.9361
 8599SOL    HW226163   1.161   3.066   5.762 -0.2198  0.6312  0.4976
 8600SOL     OW26164   3.377   4.426   3.913 -0.6132  0.6432  0.5384
 8600SOL    HW126165   3.467   4.397   3.898 -0.1047  2.1240  0.5869
 8600SOL    HW226166   3.379   4.471   3.997 -1.8359 -0.9393  1.4745
 8601SOL     OW26167   4.786   2.563   4.382 -0.3838 -0.4529  0.2512
 8601SOL    HW126168   4.747   2.574   4.469 -0.1875  1.7115  0.1302
 8601SOL    HW226169   4.867   2.614   4.385  0.0495 -1.0109 -0.9646
 8602SOL     OW26170   0.890   6.569   1.302 -0.4689  0.2489 -0.3835
 8602SOL    HW126171   0.902   6.596   1.393  0.4590 -1.9742  0.2151
 8602SOL    HW226172   0.978   6.548   1.271 -0.8220  0.5954 -1.6812
 8603SOL     OW26173   1.702   1.460   3.710 -0.0396  0.1788  0.7544
 8603SOL    HW126174   1.654   1.543   3.705  0.7515  0.5811 -0.5439
 8603SOL    HW226175   1.774   1.478   3.771 -0.4319  0.1349  1.2401
 8604SOL     OW26176   0.490   6.793   4.696 -0.5223 -0.0065  0.1718
 8604SOL    HW126177   0.470   6.886   4.692 -0.1584  0.1070  0.8211
 8604SOL    HW226178   0.417   6.754   4.744 -1.7420 -0.4019 -1.8858
 8605SOL     OW26179   4.093   5.652   6.174  0.2606 -0.3456  0.1942
 8605SOL    HW126180   4.003   5.661   6.204 -0.6225 -0.4728 -2.2740
 8605SOL    HW226181   4.121   5.741   6.152  1.4096 -0.0369  2.5339
 8606SOL     OW26182   0.475   1.472   5.239 -0.6834 -0.4695 -0.0903
 8606SOL    HW126183   0.553   1.457   5.186 -0.8865 -0.3197 -0.4337
 8606SOL    HW226184   0.402   1.444   5.183 -1.0436  1.3000 -0.5588
 8607SOL     OW26185   4.722   3.444   6.394 -0.0097 -0.0842 -0.2074
 8607SOL    HW126186   4.713   3.412   6.304 -0.8851  0.5302 -0.3453
 8607SOL    HW226187   4.690   3.373   6.448  0.5757 -0.4818 -0.3673
 8608SOL     OW26188   0.334   1.041   0.661  0.0727 -0.0259 -0.7459
 8608SOL    HW126189   0.264   0.977   0.648 -1.8548  1.5862  0.9224
 8608SOL    HW226190   0.357   1.070   0.573  0.3275 -2.2518 -1.4795
 8609SOL     OW26191   2.606   2.411   5.195  0.0139 -0.1167  1.5388
 8609SOL    HW126192   2.618   2.481   5.130 -1.0173 -0.7820  0.6053
 8609SOL    HW226193   2.628   2.331   5.148 -1.9897 -0.7408  1.5891
 8610SOL     OW26194   5.393   2.497   2.517 -0.1758 -0.4657  0.1136
 8610SOL    HW126195   5.478   2.452   2.512  0.1516 -0.1700  2.1692
 8610SOL    HW226196   5.331   2.428   2.539  0.0159 -0.2545  1.3836
 8611SOL     OW26197   6.734   0.914   3.084  0.2241 -0.4759 -0.4931
 8611SOL    HW126198   6.716   0.954   2.999 -0.6491  0.0234 -0.0827
 8611SOL    HW226199   6.683   0.833   3.084 -0.1952 -0.2142 -0.2418
 8612SOL     OW26200   6.625   0.039   4.705 -0.2735  0.2470  0.1012
 8612SOL    HW126201   6.549   0.037   4.762 -0.3368 -2.4128  0.0795
 8612SOL    HW226202   6.637  -0.052   4.678  4.7121 -0.1714  2.5797
 8613SOL     OW26203   0.227   2.368   1.378 -0.8711  0.4649  0.0028
 8613SOL    HW126204   0.148   2.420   1.391 -0.4806  0.7328  1.5413
 8613SOL    HW226205   0.297   2.420   1.419  0.1497  0.3125 -1.4570
 8614SOL     OW26206   1.012   2.416   2.792 -0.7187 -1.1654 -0.2808
 8614SOL    HW126207   0.987   2.509   2.785  1.1382 -0.5504  0.5717
 8614SOL    HW226208   0.929   2.369   2.784 -1.5734  0.4722 -2.0723
 8615SOL     OW26209   6.563   5.209   6.187 -0.1986  0.2647 -0.1008
 8615SOL    HW126210   6.554   5.299   6.156  1.1146 -0.0491 -1.4853
 8615SOL    HW226211   6.642   5.176   6.144 -0.8695 -1.6864  0.0524
 8616SOL     OW26212   6.123   1.879   3.846 -0.4496  0.3016 -0.3265
 8616SOL    HW126213   6.034   1.891   3.879 -0.6101 -2.0492  0.2726
 8616SOL    HW226214   6.138   1.785   3.852  1.1874  0.3127 -2.7539
 8617SOL     OW26215   0.613   1.554   1.327 -0.3242 -0.4486  0.1175
 8617SOL    HW126216   0.621   1.467   1.287  0.2094 -0.1206 -0.4962
 8617SOL    HW226217   0.582   1.610   1.256 -0.5745 -0.1119  0.4873
 8618SOL     OW26218   3.688   4.590   1.065  0.1394  0.1473  0.1246
 8618SOL    HW126219   3.631   4.525   1.105  0.7011 -0.8213 -0.6019
 8618SOL    HW226220   3.660   4.592   0.973  0.2295  0.8376  0.1050
 8619SOL     OW26221   2.526   6.546   1.067  0.1141  0.2135 -0.2999
 8619SOL    HW126222   2.436   6.566   1.091  0.1202 -0.0261 -0.0704
 8619SOL    HW226223   2.529   6.558   0.972  0.3974  2.3490 -0.0565
 8620SOL     OW26224   1.440   3.035   1.792  0.6210  0.3609 -0.2436
 8620SOL    HW126225   1.505   2.986   1.742 -0.5229  1.2710 -2.7613
 8620SOL    HW226226   1.443   3.123   1.756 -1.3019  0.6787  0.2770
 8621SOL     OW26227   2.868   1.950   0.884 -0.2239  0.2534 -0.5160
 8621SOL    HW126228   2.825   1.864   0.877  3.2190 -1.6325 -0.4274
 8621SOL    HW226229   2.931   1.940   0.955  1.2295  2.4595 -1.3918
 8622SOL     OW26230   6.247   6.396   6.654 -0.0006 -0.4155 -0.3180
 8622SOL    HW126231   6.302   6.475   6.651  0.6962 -0.8522  0.5616
 8622SOL    HW226232   6.200   6.403   6.737  0.6595 -1.2974  0.1499
 8623SOL     OW26233   4.659   1.542   2.211 -0.3206  0.2081  0.4917
 8623SOL    HW126234   4.627   1.458   2.244 -1.4159  0.2340 -0.4833
 8623SOL    HW226235   4.698   1.521   2.126  0.2081  0.5559  0.6434
 8624SOL     OW26236   2.325   5.315   0.438 -0.1133 -0.0338 -0.1700
 8624SOL    HW126237   2.265   5.386   0.462 -0.6438  0.1276 -1.8467
 8624SOL    HW226238   2.270   5.252   0.391  0.4376 -1.3755  0.9237
 8625SOL     OW26239   3.374   3.214   5.903  0.1753 -0.0467 -0.4347
 8625SOL    HW126240   3.444   3.168   5.950 -0.3766  0.4240  0.8877
 8625SOL    HW226241   3.295   3.163   5.922 -0.1387  0.4288 -0.4614
 8626SOL     OW26242   6.162   4.922   0.342 -0.0221  0.0371  0.0231
 8626SOL    HW126243   6.251   4.956   0.347  1.1211 -2.8786  1.3032
 8626SOL    HW226244   6.122   4.947   0.425 -0.3383  1.0910 -0.4305
 8627SOL     OW26245   4.756   5.355   5.753 -0.7081  0.7668 -0.0391
 8627SOL    HW126246   4.703   5.417   5.702 -0.4118  1.2450  0.2314
 8627SOL    HW226247   4.841   5.355   5.710 -1.0428 -0.3503 -0.7554
 8628SOL     OW26248   4.491   4.533   3.304  0.1015 -0.1243  0.1356
 8628SOL    HW126249   4.507   4.444   3.273 -0.9057 -0.2007 -0.1940
 8628SOL    HW226250   4.556   4.587   3.258  1.0410 -0.7398  0.7027
 8629SOL     OW26251   1.337   5.774   3.259  0.3453  0.3349  0.3978
 8629SOL    HW126252   1.379   5.688   3.255 -0.7499 -0.2758  1.3023
 8629SOL    HW226253   1.300   5.787   3.171 -0.5431 -0.6936  0.6059
 8630SOL     OW26254   3.412   5.863   5.391 -0.3172  0.0511  0.2320
 8630SOL    HW126255   3.502   5.834   5.375 -0.3327 -0.6122  1.2904
 8630SOL    HW226256   3.367   5.787   5.426 -1.3113  0.3767 -0.2833
 8631SOL     OW26257   3.595   1.411   4.519 -0.2332  0.1221  0.5143
 8631SOL    HW126258   3.592   1.500   4.554  0.6293  0.1272  0.5913
 8631SOL    HW226259   3.638   1.420   4.434 -0.7697 -0.1320  0.2068
 8632SOL     OW26260   2.072   4.281   0.768  0.3028 -0.8780 -0.0815
 8632SOL    HW126261   2.098   4.205   0.716 -0.1044 -1.0785  0.0013
 8632SOL    HW226262   2.024   4.337   0.706 -1.5555 -1.8396  0.4027
 8633SOL     OW26263   1.375   4.317   2.068 -0.0879 -0.6924  0.8485
 8633SOL    HW126264   1.357   4.282   2.155  0.8006 -2.4235  0.3885
 8633SOL    HW226265   1.391   4.239   2.014  2.3467  0.4220 -0.1746
 8634SOL     OW26266   5.423   2.136   1.787  0.3638 -0.2685  0.7217
 8634SOL    HW126267   5.445   2.061   1.732 -0.8793  0.0564 -0.2621
 8634SOL    HW226268   5.342   2.170   1.750 -0.2297  0.2981  2.4518
 8635SOL     OW26269   2.585   6.136   2.043  0.3377 -0.0772  0.1057
 8635SOL    HW126270   2.544   6.221   2.025  0.7124  0.1331  0.2244
 8635SOL    HW226271   2.567   6.120   2.136  1.2827  0.4425  0.3882
 8636SOL     OW26272   4.994   3.499   4.938 -0.0009 -0.1887 -0.3568
 8636SOL    HW126273   5.089   3.497   4.923  0.0250 -3.2487 -0.3670
 8636SOL    HW226274   4.961   3.425   4.887 -2.3726  0.5717 -0.0173
 8637SOL     OW26275   5.490   6.274   6.208  0.1799 -0.7896 -0.3317
 8637SOL    HW126276   5.482   6.364   6.177  0.5514 -0.2035  1.1515
 8637SOL    HW226277   5.578   6.270   6.247  0.6276 -2.1438 -1.3870
 8638SOL     OW26278   0.709   5.217   3.556 -0.3500 -0.6400 -0.0669
 8638SOL    HW126279   0.693   5.311   3.543  0.2102 -0.5844 -0.3815
 8638SOL    HW226280   0.697   5.204   3.650 -2.6002 -0.6855 -0.3033
 8639SOL     OW26281   1.144   2.605   0.961  0.8876 -0.4423  0.2437
 8639SOL    HW126282   1.191   2.689   0.967  2.0426 -1.0441  0.0321
 8639SOL    HW226283   1.061   2.626   0.918  0.4243  0.8679  1.6854
 8640SOL     OW26284   5.005   5.092   5.197 -0.3322  0.2240  0.5360
 8640SOL    HW126285   5.027   5.025   5.262 -0.1233  0.2522  0.4950
 8640SOL    HW226286   5.071   5.082   5.129 -1.5316 -0.9135 -0.5043
 8641SOL     OW26287   6.534   2.817   6.351 -0.0670 -0.1065  0.0942
 8641SOL    HW126288   6.590   2.893   6.365  0.6713 -0.4988 -0.6048
 8641SOL    HW226289   6.450   2.840   6.391 -0.1462  1.4151 -0.8810
 8642SOL     OW26290   5.458   6.458   4.178 -0.2074  0.3607 -0.0157
 8642SOL    HW126291   5.456   6.513   4.256 -0.1278 -1.9348  1.7000
 8642SOL    HW226292   5.369   6.462   4.143  0.2464  3.0426 -1.1133
 8643SOL     OW26293   1.061   4.154   3.198  0.6781 -0.5602  0.0614
 8643SOL    HW126294   1.085   4.244   3.175  1.3260 -0.6029  0.5510
 8643SOL    HW226295   1.026   4.118   3.117  0.2665  0.1800 -0.1016
 8644SOL     OW26296   4.726   4.451   0.472 -0.3232  0.0368 -0.6225
 8644SOL    HW126297   4.718   4.534   0.425 -1.1470  0.4024  0.1321
 8644SOL    HW226298   4.690   4.469   0.559 -1.3532 -1.3267 -0.7173
 8645SOL     OW26299   5.560   4.135   5.523 -0.0394 -0.1508 -0.4661
 8645SOL    HW126300   5.615   4.176   5.589  1.0004 -1.4177 -0.5058
 8645SOL    HW226301   5.497   4.082   5.573 -0.0867 -0.0869 -0.4581
 8646SOL     OW26302   4.351   4.659   1.816  0.7567 -0.2770 -0.3316
 8646SOL    HW126303   4.266   4.674   1.856  0.6848 -0.9585 -0.2217
 8646SOL    HW226304   4.388   4.747   1.805 -1.1411  0.2869 -3.0390
 8647SOL     OW26305   4.803   0.637   5.640 -0.2151  0.0294  0.2437
 8647SOL    HW126306   4.897   0.638   5.621 -0.2418 -1.0442  0.0223
 8647SOL    HW226307   4.762   0.665   5.558 -0.0242  2.8224  1.0074
 8648SOL     OW26308   6.425   6.787   3.204 -0.0896 -0.6905  0.5786
 8648SOL    HW126309   6.427   6.764   3.111 -0.5228  0.1232  0.3556
 8648SOL    HW226310   6.507   6.753   3.239  0.7261  0.2095 -0.4029
 8649SOL     OW26311   6.274   4.915   5.709  0.2677  0.2481  0.1844
 8649SOL    HW126312   6.262   4.827   5.673  0.9743  0.3947 -0.4391
 8649SOL    HW226313   6.332   4.903   5.784  2.5523  0.4466 -1.4366
 8650SOL     OW26314   5.560   0.717   0.019  0.1852  0.1572  1.4118
 8650SOL    HW126315   5.613   0.792  -0.008 -1.4938  1.1235  0.6613
 8650SOL    HW226316   5.593   0.644  -0.033  0.8162  0.7169  1.0124
 8651SOL     OW26317   3.994   1.880   6.430 -0.2390 -0.1460 -0.3744
 8651SOL    HW126318   3.941   1.921   6.361  0.3954  1.0483 -0.1856
 8651SOL    HW226319   3.943   1.894   6.510  0.8028  2.0192 -0.0087
 8652SOL     OW26320   2.445   4.923   2.771  0.4829  0.1609 -0.2726
 8652SOL    HW126321   2.444   4.984   2.698 -0.8368 -0.5108 -0.8617
 8652SOL    HW226322   2.395   4.966   2.840  1.1918  0.5313  0.0185
 8653SOL     OW26323   5.819   5.446   3.483 -0.0298 -0.7393 -0.2104
 8653SOL    HW126324   5.825   5.430   3.389 -1.9374 -1.1833 -0.2996
 8653SOL    HW226325   5.830   5.360   3.523 -2.5965 -1.1774 -0.2694
 8654SOL     OW26326   4.032   3.391   0.418  0.1941  0.0503  0.5126
 8654SOL    HW126327   4.107   3.435   0.458  0.7614  0.4376 -0.8865
 8654SOL    HW226328   3.965   3.459   0.411  0.3933  0.2083  0.0767
 8655SOL     OW26329   5.687   3.539   0.352  0.0080 -0.4119  0.0568
 8655SOL    HW126330   5.657   3.451   0.373  0.9018 -0.7309  0.0010
 8655SOL    HW226331   5.606   3.589   0.338 -0.5527 -0.8765  1.4354
 8656SOL     OW26332   5.419   2.300   5.906  0.2317  0.2104  0.0853
 8656SOL    HW126333   5.509   2.268   5.902  0.4963  0.5983  1.8832
 8656SOL    HW226334   5.365   2.222   5.893  0.8559 -0.3953  0.9889
 8657SOL     OW26335   3.217   6.518   2.786 -0.3070  0.4092 -0.1037
 8657SOL    HW126336   3.278   6.588   2.764 -0.6271  0.1087 -2.1121
 8657SOL    HW226337   3.156   6.514   2.712 -1.3806 -0.8180  0.7840
 8658SOL     OW26338   4.935   3.660   5.534  1.0176  0.7595  0.6013
 8658SOL    HW126339   4.927   3.598   5.607  0.4100  1.9961  1.6312
 8658SOL    HW226340   4.916   3.608   5.456 -0.9742 -0.0739  1.5568
 8659SOL     OW26341   1.284   0.313   0.629  0.3905  0.1287 -0.2885
 8659SOL    HW126342   1.315   0.251   0.695  0.6412 -0.4974 -0.9765
 8659SOL    HW226343   1.359   0.369   0.610  1.2091 -1.4010 -1.9726
 8660SOL     OW26344   5.387   4.024   1.608 -0.0797  0.3732  0.1951
 8660SOL    HW126345   5.343   4.101   1.645 -2.6394 -0.7882 -0.1738
 8660SOL    HW226346   5.389   3.961   1.680  0.7403  0.2945  0.1097
 8661SOL     OW26347   3.005   0.178   5.729 -0.3524 -0.7414  0.3941
 8661SOL    HW126348   3.046   0.238   5.792  0.5536  0.3639 -1.1658
 8661SOL    HW226349   2.911   0.184   5.748 -0.2507  0.9394  0.5023
 8662SOL     OW26350   4.101   3.952   0.522  0.1744  0.0978 -0.3143
 8662SOL    HW126351   4.136   3.917   0.440  2.4252 -0.0551  0.6530
 8662SOL    HW226352   4.156   3.914   0.590 -0.8577  1.1912  1.2053
 8663SOL     OW26353   1.190   5.672   4.970  0.0162  0.0025  0.4553
 8663SOL    HW126354   1.283   5.694   4.959 -0.1798  1.3819  1.3073
 8663SOL    HW226355   1.183   5.582   4.940  1.6236 -0.0929  0.2840
 8664SOL     OW26356   0.104   0.110   6.389 -0.5429  0.1253  0.7164
 8664SOL    HW126357   0.072   0.200   6.377 -0.0884  0.3014  0.8108
 8664SOL    HW226358   0.032   0.055   6.357  0.1582  0.5359 -1.7312
 8665SOL     OW26359   2.915   4.122   1.880 -0.2272  0.1482  0.1946
 8665SOL    HW126360   2.823   4.142   1.894 -0.2476  0.4516 -0.3590
 8665SOL    HW226361   2.918   4.026   1.877 -0.3056  0.0889  1.6303
 8666SOL     OW26362   1.183   4.848   4.550  0.0005 -0.0731  0.5533
 8666SOL    HW126363   1.245   4.864   4.479 -1.0317  2.3414  0.0709
 8666SOL    HW226364   1.192   4.755   4.571  1.2574 -0.5530 -1.8422
 8667SOL     OW26365   5.589   2.009   0.162  0.8938 -0.5472  0.4561
 8667SOL    HW126366   5.517   1.965   0.117  0.1414  0.1881  0.9103
 8667SOL    HW226367   5.572   1.994   0.255 -0.3329  2.0460  0.7364
 8668SOL     OW26368   6.067   0.214   0.892 -0.2008 -0.6687  0.1859
 8668SOL    HW126369   6.099   0.151   0.827  1.2247  2.7942 -2.8145
 8668SOL    HW226370   6.146   0.242   0.939 -0.3501  0.6516 -0.3027
 8669SOL     OW26371   0.691   3.218   1.729 -0.4421  0.4801  0.7157
 8669SOL    HW126372   0.715   3.127   1.712 -0.6233  0.8410 -1.9059
 8669SOL    HW226373   0.607   3.214   1.774 -0.0949 -0.6434  1.2789
 8670SOL     OW26374   2.039   3.000   4.755 -0.3411  0.2508  0.1662
 8670SOL    HW126375   2.045   3.049   4.673 -0.6984 -3.9690 -2.7124
 8670SOL    HW226376   2.111   3.034   4.808  2.1467  0.9960 -3.2940
 8671SOL     OW26377   3.364   5.137   6.693  0.0202 -0.2398 -0.1009
 8671SOL    HW126378   3.439   5.128   6.752  0.2639  3.0920  0.2516
 8671SOL    HW226379   3.359   5.230   6.673 -2.3956 -0.7213 -2.3418
 8672SOL     OW26380   3.563   0.326   1.274  0.2082 -0.4810 -0.6473
 8672SOL    HW126381   3.599   0.349   1.360  0.2679 -1.3108 -0.4447
 8672SOL    HW226382   3.521   0.406   1.244  0.4428 -0.0938  0.0262
 8673SOL     OW26383   3.979   5.256   5.275  0.1545  0.6515  0.0966
 8673SOL    HW126384   4.052   5.198   5.254 -0.4435 -0.1800  0.2852
 8673SOL    HW226385   3.909   5.229   5.216  0.2435  1.9970 -0.6815
 8674SOL     OW26386   6.207   2.053   2.621 -0.0151 -0.0696  0.1788
 8674SOL    HW126387   6.264   2.111   2.672 -0.3113 -0.3469  0.8346
 8674SOL    HW226388   6.140   2.025   2.682 -0.3292 -0.4862 -0.3435
 8675SOL     OW26389   3.665   1.169   1.859  0.4295  0.1430 -0.0723
 8675SOL    HW126390   3.581   1.207   1.885  0.3503 -1.1870  1.7566
 8675SOL    HW226391   3.647   1.076   1.846  1.8293 -0.4373  1.6744
 8676SOL     OW26392   0.111   3.277   1.760  0.2310  0.3757  0.1142
 8676SOL    HW126393   0.091   3.359   1.806 -1.4303  0.1754 -0.1865
 8676SOL    HW226394   0.194   3.295   1.716 -0.8517  2.5175 -1.2712
 8677SOL     OW26395   2.560   0.166   2.381 -0.4427 -0.3335  0.4802
 8677SOL    HW126396   2.577   0.076   2.355  0.9819 -0.8335  2.8554
 8677SOL    HW226397   2.644   0.211   2.370 -0.8242  0.4050  0.4874
 8678SOL     OW26398   6.105   4.050   3.083 -0.8849 -0.0756 -0.2644
 8678SOL    HW126399   6.196   4.078   3.078 -0.8829  0.4854  1.7100
 8678SOL    HW226400   6.083   4.021   2.995  0.2009  2.8828 -1.6388
 8679SOL     OW26401   0.127   3.003   5.255 -0.2042  0.3473  0.3546
 8679SOL    HW126402   0.096   3.093   5.270  0.4788  0.8050 -0.8136
 8679SOL    HW226403   0.082   2.975   5.176 -0.6660 -0.4793  0.8996
 8680SOL     OW26404   0.257   3.161   2.428 -0.0427  0.0187 -0.1119
 8680SOL    HW126405   0.278   3.126   2.342 -1.4310 -1.1933  0.0055
 8680SOL    HW226406   0.290   3.096   2.490  1.8981  1.3740  0.3665
 8681SOL     OW26407   0.394   0.943   2.225 -0.2233 -0.2716  0.2631
 8681SOL    HW126408   0.413   0.899   2.308  0.3926  0.7763  0.6958
 8681SOL    HW226409   0.323   1.003   2.245 -1.2363 -1.2052 -0.3878
 8682SOL     OW26410   5.260   2.864   3.917  0.0625 -0.1155 -0.1929
 8682SOL    HW126411   5.267   2.947   3.870 -0.9195  0.2205  0.2245
 8682SOL    HW226412   5.345   2.853   3.960 -0.3550  1.5981  1.2289
 8683SOL     OW26413   3.310   3.792   0.463  0.7957 -0.2686  0.1148
 8683SOL    HW126414   3.258   3.836   0.396 -0.0945  0.3884  1.2246
 8683SOL    HW226415   3.295   3.699   0.447  0.3942 -0.1131 -0.4398
 8684SOL     OW26416   0.378   3.702   5.540 -0.0781  0.2002 -0.3231
 8684SOL    HW126417   0.445   3.702   5.473 -1.2665 -0.2771 -1.5561
 8684SOL    HW226418   0.420   3.743   5.616  0.8307  2.2370 -1.8269
 8685SOL     OW26419   0.867   6.558   1.955 -0.4955  0.2054 -0.6564
 8685SOL    HW126420   0.889   6.641   1.913 -1.4491  0.9887  0.3680
 8685SOL    HW226421   0.940   6.542   2.016 -0.7396  0.7345 -0.2209
 8686SOL     OW26422   2.901   0.177   4.410  0.2858  0.4974  0.0379
 8686SOL    HW126423   2.908   0.129   4.492  1.4742 -0.2373 -0.4573
 8686SOL    HW226424   2.851   0.255   4.431  0.2632  0.1422  1.3736
 8687SOL     OW26425   4.352   3.202   5.148 -0.4158  0.1569 -0.1953
 8687SOL    HW126426   4.400   3.262   5.205 -0.5155 -1.2918  1.5268
 8687SOL    HW226427   4.305   3.258   5.087  1.5917  1.6958 -0.4195
 8688SOL     OW26428   6.282   0.181   5.382  0.5837 -0.0635  0.0228
 8688SOL    HW126429   6.320   0.195   5.295  0.1907 -0.3313 -0.1936
 8688SOL    HW226430   6.188   0.176   5.367  0.2963  2.1724  0.7412
 8689SOL     OW26431   1.531   1.848   2.618  0.2154  0.3783  0.5798
 8689SOL    HW126432   1.460   1.786   2.602 -1.8351  2.5694  0.6225
 8689SOL    HW226433   1.530   1.862   2.713 -2.7053  3.9182  0.2815
 8690SOL     OW26434   2.862   4.630   5.633 -0.4582  0.5494  0.5795
 8690SOL    HW126435   2.801   4.596   5.698 -0.9535 -0.5784 -0.4239
 8690SOL    HW226436   2.807   4.678   5.571 -0.7135 -1.9375 -1.3099
 8691SOL     OW26437   4.503   4.171   1.094 -0.2051  0.3759  0.0564
 8691SOL    HW126438   4.507   4.150   1.188 -2.4869 -1.3109 -0.1433
 8691SOL    HW226439   4.416   4.141   1.066 -0.2153  2.2712 -2.2973
 8692SOL     OW26440   4.504   3.007   4.939 -0.0335  0.6563  0.0876
 8692SOL    HW126441   4.467   2.919   4.947  0.7174  0.2494 -0.7847
 8692SOL    HW226442   4.461   3.058   5.008 -1.6718  0.0227 -0.4420
 8693SOL     OW26443   1.779   3.301   0.999 -1.0255  0.2363  0.4241
 8693SOL    HW126444   1.688   3.321   1.020 -1.6229 -0.9923 -0.8543
 8693SOL    HW226445   1.803   3.232   1.061 -1.3734 -0.3100 -0.0424
 8694SOL     OW26446   0.495   4.966   3.898 -0.3005 -0.9609  0.1503
 8694SOL    HW126447   0.423   5.028   3.909 -0.1832 -0.8318  0.1880
 8694SOL    HW226448   0.489   4.909   3.975 -0.5868 -1.1806 -0.0302
 8695SOL     OW26449   6.690   2.349   3.985  0.2268 -0.2750 -0.0022
 8695SOL    HW126450   6.664   2.379   4.072  1.9638 -0.1645  0.5224
 8695SOL    HW226451   6.776   2.390   3.971 -0.2835  0.2172 -2.0408
 8696SOL     OW26452   2.306   3.009   5.423 -0.1144 -0.3370  0.0653
 8696SOL    HW126453   2.322   3.005   5.517 -0.4356 -2.1172  0.0830
 8696SOL    HW226454   2.240   3.077   5.412  1.1233  1.0740  0.9142
 8697SOL     OW26455   5.241   0.935   3.178 -0.0914 -0.4699  0.4943
 8697SOL    HW126456   5.176   0.991   3.220 -1.7506  0.0134 -2.4651
 8697SOL    HW226457   5.319   0.942   3.234 -1.3564  1.9983  2.0915
 8698SOL     OW26458   6.600   0.163   1.667 -0.8941 -0.3565  0.0344
 8698SOL    HW126459   6.639   0.243   1.631  0.3578 -1.1324 -0.3819
 8698SOL    HW226460   6.506   0.180   1.665 -0.7467  0.4705 -1.6000
 8699SOL     OW26461   1.802   1.342   4.473 -0.4014 -0.1181 -0.2985
 8699SOL    HW126462   1.885   1.302   4.499 -0.5376 -2.5850 -3.1152
 8699SOL    HW226463   1.827   1.422   4.428  0.5003 -0.8341 -1.1096
 8700SOL     OW26464   5.001   6.631   1.558  0.1996  0.4270  0.2201
 8700SOL    HW126465   4.952   6.712   1.576  1.6352  1.2687  0.5031
 8700SOL    HW226466   4.936   6.572   1.520 -0.8558  1.7715 -0.1637
 8701SOL     OW26467   5.965   4.132   2.011 -0.0475 -0.4564  0.3673
 8701SOL    HW126468   6.061   4.130   2.014 -0.0221 -0.4621 -0.2839
 8701SOL    HW226469   5.944   4.210   1.960 -0.3716 -0.7653  0.0138
 8702SOL     OW26470   6.307   6.550   1.426 -0.0721 -0.1400 -0.1985
 8702SOL    HW126471   6.289   6.642   1.443 -2.1003 -0.6824  0.9125
 8702SOL    HW226472   6.316   6.511   1.513  0.3620 -1.0744 -0.6483
 8703SOL     OW26473   0.342   6.598   1.189  0.0168 -0.2842  0.5154
 8703SOL    HW126474   0.338   6.650   1.109 -0.4227  1.6226  1.7093
 8703SOL    HW226475   0.435   6.591   1.208  0.0853  0.0322  0.3130
 8704SOL     OW26476   3.346   5.923   0.130 -0.6816  0.0154 -0.2735
 8704SOL    HW126477   3.329   5.969   0.048  1.2433  0.6100 -0.3706
 8704SOL    HW226478   3.297   5.972   0.195  0.1896  1.3619 -0.6068
 8705SOL     OW26479   5.687   3.036   2.155 -0.3494 -0.0657  0.4355
 8705SOL    HW126480   5.710   3.123   2.121 -0.7569  0.3477  1.2100
 8705SOL    HW226481   5.594   3.028   2.139 -0.2588 -0.4800  0.1121
 8706SOL     OW26482   5.280   0.315   1.800  0.0575 -0.0939  0.1581
 8706SOL    HW126483   5.239   0.305   1.886 -1.1286  0.6885 -0.2929
 8706SOL    HW226484   5.253   0.237   1.752  0.5896 -0.4538  0.4322
 8707SOL     OW26485   6.654   5.141   1.489  0.9756  0.4967  0.1703
 8707SOL    HW126486   6.651   5.233   1.463 -3.5754  0.1430 -1.5205
 8707SOL    HW226487   6.720   5.102   1.432  0.8135  2.2381 -1.2933
 8708SOL     OW26488   4.855   0.591   6.303 -0.3810 -0.4777  0.4787
 8708SOL    HW126489   4.843   0.501   6.271 -3.0033  0.4017 -1.3428
 8708SOL    HW226490   4.822   0.588   6.393 -0.9381 -1.2365  0.2657
 8709SOL     OW26491   1.348   2.918   4.285 -0.1792  0.1683 -0.1220
 8709SOL    HW126492   1.406   2.986   4.322 -1.7310  2.8640 -2.2863
 8709SOL    HW226493   1.310   2.959   4.208 -3.3569 -2.2368 -0.0123
 8710SOL     OW26494   0.737   0.471   3.973 -0.4277 -0.3729  0.1057
 8710SOL    HW126495   0.727   0.542   4.037 -1.4850 -1.0235  0.6853
 8710SOL    HW226496   0.722   0.514   3.888  1.3036  0.5609  0.2247
 8711SOL     OW26497   5.239   1.300   3.855 -0.1008 -0.0965 -0.0937
 8711SOL    HW126498   5.331   1.304   3.880 -0.2678 -0.1151  0.5448
 8711SOL    HW226499   5.192   1.341   3.928 -0.5634  0.3428 -0.6266
 8712SOL     OW26500   3.423   4.213   5.829 -0.0563  0.2251  1.1817
 8712SOL    HW126501   3.392   4.224   5.919  3.1067  2.0089  2.2036
 8712SOL    HW226502   3.492   4.148   5.835 -1.0691 -1.0729 -0.3836
 8713SOL     OW26503   0.949   1.990   5.935 -0.7929 -0.1759  0.3566
 8713SOL    HW126504   0.969   1.991   6.029  0.6768 -0.6554  0.0851
 8713SOL    HW226505   1.035   1.989   5.893 -1.4106 -1.7000 -0.9599
 8714SOL     OW26506   2.649   3.828   0.399  0.4095 -0.4739  0.4056
 8714SOL    HW126507   2.586   3.801   0.466 -2.7238  1.2033 -1.5862
 8714SOL    HW226508   2.688   3.746   0.368 -0.4292 -1.5468  2.0721
 8715SOL     OW26509   3.574   0.760   1.748  0.6149 -0.5835 -0.6496
 8715SOL    HW126510   3.526   0.692   1.796  0.3715  2.1664  3.5472
 8715SOL    HW226511   3.665   0.750   1.777  0.0038  3.1286  3.7302
 8716SOL     OW26512   4.680   1.803   5.844  0.3169 -0.1501  0.6914
 8716SOL    HW126513   4.720   1.770   5.764 -1.0790 -0.2822  0.0077
 8716SOL    HW226514   4.642   1.726   5.885 -1.8213  0.3237 -0.2435
 8717SOL     OW26515   5.247   3.615   1.427 -0.0313  0.1439 -0.0711
 8717SOL    HW126516   5.217   3.669   1.500 -0.1540 -0.4685  0.3467
 8717SOL    HW226517   5.332   3.652   1.403 -0.0682  0.4599  0.2744
 8718SOL     OW26518   0.089   5.487   6.359 -0.1075 -0.1762 -0.0448
 8718SOL    HW126519   0.071   5.501   6.267  1.1633  0.6042 -0.1964
 8718SOL    HW226520   0.003   5.471   6.398 -1.3453  4.0049 -0.5883
 8719SOL     OW26521   5.392   5.213   0.781  0.0704 -0.6455  0.4912
 8719SOL    HW126522   5.463   5.161   0.744 -1.3400 -1.3988 -1.3044
 8719SOL    HW226523   5.407   5.302   0.747  0.4075 -0.6928  0.5103
 8720SOL     OW26524   5.420   4.536   1.510 -0.1154 -0.3784 -0.1184
 8720SOL    HW126525   5.338   4.497   1.539  0.1630 -1.9831 -1.3483
 8720SOL    HW226526   5.454   4.581   1.587 -2.5211  1.0565  0.2130
 8721SOL     OW26527   6.767   4.833   2.915  0.5066  0.6785  0.0542
 8721SOL    HW126528   6.713   4.820   2.837  0.9201 -0.2213 -0.0997
 8721SOL    HW226529   6.759   4.751   2.964  2.6022  0.0318 -0.5473
 8722SOL     OW26530   4.878   4.618   6.023 -0.1921 -0.5374  0.0747
 8722SOL    HW126531   4.931   4.681   6.071  1.3687 -1.6489 -0.0784
 8722SOL    HW226532   4.894   4.535   6.068  0.3680 -1.3924 -1.6231
 8723SOL     OW26533   0.763   5.269   2.905 -0.5488  0.1642  0.2602
 8723SOL    HW126534   0.811   5.305   2.830  0.1017 -0.4319  0.3813
 8723SOL    HW226535   0.687   5.226   2.865 -0.6452  0.5616  0.0121
 8724SOL     OW26536   3.650   4.839   2.088 -0.0089 -0.5765 -0.4690
 8724SOL    HW126537   3.651   4.755   2.134 -0.9816  0.8145  2.2873
 8724SOL    HW226538   3.722   4.888   2.127  1.2277 -0.3857 -2.7867
 8725SOL     OW26539   1.995   5.373   1.882  0.0605  0.8321 -0.0024
 8725SOL    HW126540   1.997   5.279   1.895 -1.3568  0.8404  0.4345
 8725SOL    HW226541   2.048   5.388   1.803 -0.4555 -0.4277 -0.6038
 8726SOL     OW26542   3.884   3.861   5.962 -0.0360 -0.0414  0.1637
 8726SOL    HW126543   3.916   3.828   5.878 -0.8871 -0.6967  0.0800
 8726SOL    HW226544   3.933   3.941   5.976  2.4663 -1.5410  0.5967
 8727SOL     OW26545   4.391   5.311   3.584 -0.4716 -0.1994 -0.1329
 8727SOL    HW126546   4.433   5.228   3.606  1.1434  1.1070  1.9928
 8727SOL    HW226547   4.309   5.285   3.540  0.5861 -2.8556 -0.7287
 8728SOL     OW26548   4.933   0.026   1.175 -0.0526  0.2045  0.2437
 8728SOL    HW126549   4.898  -0.061   1.190 -1.8113  0.9195  0.4834
 8728SOL    HW226550   4.907   0.076   1.252  2.6218  0.5103  1.0665
 8729SOL     OW26551   4.472   1.285   1.637  0.2523 -0.0302  0.1878
 8729SOL    HW126552   4.549   1.298   1.581 -1.0491  0.8657 -1.4841
 8729SOL    HW226553   4.400   1.269   1.576 -1.3009  1.2508  1.5610
 8730SOL     OW26554   2.146   5.902   2.206 -0.2743  0.4778  0.3315
 8730SOL    HW126555   2.204   5.837   2.245  0.0019  2.3175  3.3056
 8730SOL    HW226556   2.198   5.941   2.135  0.0207 -1.5487 -0.6335
 8731SOL     OW26557   0.651   0.135   0.720  0.3501 -0.6095 -0.4218
 8731SOL    HW126558   0.742   0.111   0.739  0.4316 -1.3147 -1.6094
 8731SOL    HW226559   0.607   0.132   0.804  1.1285 -1.6119 -0.0372
 8732SOL     OW26560   6.387   3.803   4.047 -0.1516  0.7761 -0.7331
 8732SOL    HW126561   6.309   3.853   4.022 -0.7903  0.8119  1.1773
 8732SOL    HW226562   6.461   3.859   4.022 -0.7290  0.8604 -2.3035
 8733SOL     OW26563   0.875   0.789   3.551 -0.3343  0.3239  0.2845
 8733SOL    HW126564   0.903   0.875   3.520 -0.7525  0.9465  1.5594
 8733SOL    HW226565   0.826   0.808   3.631 -2.3457 -0.9297 -0.5978
 8734SOL     OW26566   2.245   1.471   4.257  0.2293  0.4263  0.4766
 8734SOL    HW126567   2.263   1.496   4.348  0.7762 -2.0429  1.1019
 8734SOL    HW226568   2.316   1.413   4.233 -1.6799 -1.7511 -0.3241
 8735SOL     OW26569   0.544   5.496   6.148 -0.2729 -0.0891  0.6018
 8735SOL    HW126570   0.597   5.574   6.163 -1.0185  0.0893  2.7011
 8735SOL    HW226571   0.477   5.524   6.086 -0.1622  0.7616  0.8603
 8736SOL     OW26572   0.517   5.131   3.320  0.2986 -0.0226 -0.5300
 8736SOL    HW126573   0.537   5.056   3.265  0.5269  0.4831 -1.1445
 8736SOL    HW226574   0.595   5.143   3.375  0.4177  0.0040 -0.7057
 8737SOL     OW26575   4.625   3.442   0.531  0.2005  0.0078  0.1731
 8737SOL    HW126576   4.546   3.394   0.509 -0.0031  0.7376 -0.7516
 8737SOL    HW226577   4.607   3.481   0.616 -0.2218 -0.2736  0.2139
 8738SOL     OW26578   3.437   3.356   5.652 -0.2736  0.3479  0.3603
 8738SOL    HW126579   3.441   3.292   5.723 -2.6245 -0.4521 -0.1086
 8738SOL    HW226580   3.446   3.304   5.572 -0.2599  0.8694  0.0159
 8739SOL     OW26581   4.358   2.315   1.757 -0.3322 -0.4145  0.8057
 8739SOL    HW126582   4.303   2.243   1.789  0.0406 -0.5681  1.1038
 8739SOL    HW226583   4.417   2.273   1.694 -1.0035 -0.1307 -0.0299
 8740SOL     OW26584   2.763   1.634   2.329  0.2575 -0.5708  0.4055
 8740SOL    HW126585   2.695   1.569   2.351 -0.8009  0.1676 -0.5822
 8740SOL    HW226586   2.837   1.581   2.298 -0.6785 -1.3388 -0.6319
 8741SOL     OW26587   1.400   1.003   3.201 -0.2495 -0.0494 -0.1185
 8741SOL    HW126588   1.326   1.061   3.185 -0.4635 -0.5409 -1.0156
 8741SOL    HW226589   1.461   1.023   3.129 -0.5906 -1.3257 -0.7905
 8742SOL     OW26590   4.449   2.685   4.636 -0.8583  0.1949 -0.0448
 8742SOL    HW126591   4.470   2.779   4.634 -2.3502  0.5806  1.0165
 8742SOL    HW226592   4.369   2.679   4.688  0.6438 -1.9782  2.2295
 8743SOL     OW26593   3.361   3.741   6.302  0.0033  0.4175 -0.0682
 8743SOL    HW126594   3.398   3.810   6.246  0.4515 -0.5197 -0.9459
 8743SOL    HW226595   3.393   3.763   6.390 -1.1181  2.1873 -0.0519
 8744SOL     OW26596   2.569   5.196   6.717  0.7006  0.3127  0.2315
 8744SOL    HW126597   2.591   5.289   6.705 -0.5937  0.4242 -1.8132
 8744SOL    HW226598   2.476   5.197   6.739 -0.3476 -0.5500 -3.5154
 8745SOL     OW26599   6.373   6.128   6.597 -0.4690 -0.4062  0.5698
 8745SOL    HW126600   6.313   6.201   6.585  0.7011  0.4726 -0.1230
 8745SOL    HW226601   6.340   6.059   6.539 -1.0648 -0.0973  0.5426
 8746SOL     OW26602   3.501   4.406   5.642 -0.0182  0.4754 -0.2768
 8746SOL    HW126603   3.469   4.339   5.703 -0.6321  0.1223 -0.9695
 8746SOL    HW226604   3.448   4.483   5.662 -0.7917  0.1146 -0.9124
 8747SOL     OW26605   3.532   1.536   2.208  0.3573  0.3847 -0.1521
 8747SOL    HW126606   3.534   1.605   2.274 -1.4615 -0.2482  0.6326
 8747SOL    HW226607   3.454   1.555   2.156  1.1674  0.2560 -1.4552
 8748SOL     OW26608   2.144   5.139   6.028 -0.1842 -0.4419 -0.3416
 8748SOL    HW126609   2.132   5.231   6.050 -1.3106 -0.5585 -0.3938
 8748SOL    HW226610   2.070   5.118   5.970  0.1499 -1.3339 -0.4704
 8749SOL     OW26611   0.067   6.772   6.653  0.1171  0.6108  0.1917
 8749SOL    HW126612   0.104   6.806   6.572  2.0131 -1.8983 -0.1202
 8749SOL    HW226613   0.119   6.812   6.723  0.4840  0.5073 -0.0190
 8750SOL     OW26614   5.661   3.713   2.058 -0.1905  0.1655  0.0285
 8750SOL    HW126615   5.751   3.728   2.029  0.2961 -0.4494  1.1407
 8750SOL    HW226616   5.637   3.630   2.018 -0.4473  0.5642 -0.6588
 8751SOL     OW26617   2.598   4.620   5.833 -0.1812  0.2365 -0.1937
 8751SOL    HW126618   2.546   4.548   5.795 -0.4605 -0.4336  1.3807
 8751SOL    HW226619   2.541   4.697   5.825 -0.4239  0.0087 -0.7040
 8752SOL     OW26620   3.061   1.710   4.563  0.1442 -0.5145 -0.7723
 8752SOL    HW126621   3.145   1.705   4.608  0.2506  0.4443 -0.8465
 8752SOL    HW226622   3.054   1.801   4.535 -0.3515 -0.8764 -1.8697
 8753SOL     OW26623   3.850   6.389   0.820  0.3369 -0.1045 -1.0951
 8753SOL    HW126624   3.832   6.296   0.833 -3.0564  0.0851 -3.1875
 8753SOL    HW226625   3.852   6.426   0.908  2.4722 -2.1590 -0.1723
 8754SOL     OW26626   1.367   2.329   5.704  0.0110 -0.4582  0.6988
 8754SOL    HW126627   1.442   2.384   5.725  0.3476 -0.8111  0.4191
 8754SOL    HW226628   1.295   2.391   5.690  0.3802 -0.0925  0.4076
 8755SOL     OW26629   5.866   1.788   1.230 -0.6492  0.5030  0.9457
 8755SOL    HW126630   5.884   1.697   1.208 -0.5938  0.7649 -0.1466
 8755SOL    HW226631   5.911   1.802   1.314  0.5311 -0.0840  0.4362
 8756SOL     OW26632   4.732   6.063   2.174 -0.0544  0.5525  0.1031
 8756SOL    HW126633   4.703   6.044   2.263  2.0034  1.5170  1.0597
 8756SOL    HW226634   4.802   6.000   2.159 -1.6378 -0.8808 -1.6238
 8757SOL     OW26635   3.799   1.568   5.790  0.0225  0.8830 -0.3569
 8757SOL    HW126636   3.721   1.598   5.836  0.4302  0.7332  0.4587
 8757SOL    HW226637   3.808   1.628   5.715 -0.3329  1.4953  0.0837
 8758SOL     OW26638   6.737   0.716   2.097 -0.3198 -0.2496 -0.4595
 8758SOL    HW126639   6.650   0.685   2.071  0.5275 -1.7795 -1.6203
 8758SOL    HW226640   6.734   0.718   2.193 -1.4878 -0.6820 -0.4719
 8759SOL     OW26641   5.651   1.866   5.769 -0.0893 -0.3985  0.0366
 8759SOL    HW126642   5.708   1.885   5.844  0.6622 -0.6456 -0.4568
 8759SOL    HW226643   5.622   1.951   5.739  0.4331 -0.2328 -0.0124
 8760SOL     OW26644   4.752   5.331   4.962  0.3140  0.0974  0.2013
 8760SOL    HW126645   4.760   5.249   5.011  0.7523 -0.5076 -0.8496
 8760SOL    HW226646   4.790   5.398   5.020 -0.1108 -0.4232  1.0916
 8761SOL     OW26647   0.418   4.670   5.434  0.2112 -0.4208  0.2604
 8761SOL    HW126648   0.463   4.607   5.491 -1.1002 -0.2426  1.5644
 8761SOL    HW226649   0.488   4.713   5.386  1.6107  0.4719  2.8614
 8762SOL     OW26650   4.230   2.749   6.666 -0.1207  0.7107  0.4372
 8762SOL    HW126651   4.170   2.824   6.672 -3.2745 -1.6301  1.2231
 8762SOL    HW226652   4.235   2.715   6.755  1.8241  0.3371  0.2278
 8763SOL     OW26653   2.211   0.742   5.773  0.3974 -0.4774  0.1525
 8763SOL    HW126654   2.255   0.746   5.688 -0.7254 -0.9406 -0.4643
 8763SOL    HW226655   2.256   0.672   5.820  1.1371 -0.1036  0.0201
 8764SOL     OW26656   6.005   4.588   6.794  0.2122  0.5586  0.6853
 8764SOL    HW126657   6.087   4.635   6.809  0.6619  0.5057 -1.2660
 8764SOL    HW226658   5.968   4.630   6.716 -1.3935  0.2723  1.2573
 8765SOL     OW26659   2.165   5.673   4.504  0.5307 -0.2115  0.2612
 8765SOL    HW126660   2.167   5.600   4.566  0.0710  1.1423  1.9460
 8765SOL    HW226661   2.220   5.740   4.544 -0.8359  1.2020 -0.1394
 8766SOL     OW26662   0.711   1.237   2.937 -0.3177 -0.4385 -0.2277
 8766SOL    HW126663   0.758   1.198   2.863 -0.0645 -1.8241  0.6179
 8766SOL    HW226664   0.646   1.171   2.961 -0.0576 -0.2425  1.0892
 8767SOL     OW26665   4.717   6.643   5.627  0.1346 -0.6847  0.2923
 8767SOL    HW126666   4.718   6.550   5.652  1.0777 -0.7233  0.1346
 8767SOL    HW226667   4.687   6.644   5.537 -1.6161 -0.6829  0.8409
 8768SOL     OW26668   5.269   1.253   2.282  0.8906 -0.7048  0.4083
 8768SOL    HW126669   5.359   1.238   2.253  1.0014  0.2814  0.2219
 8768SOL    HW226670   5.253   1.183   2.345  1.4594 -1.4580 -0.2616
 8769SOL     OW26671   2.270   0.358   3.732 -0.5098  0.6785  0.0068
 8769SOL    HW126672   2.317   0.296   3.677 -0.8701 -0.0940  0.5513
 8769SOL    HW226673   2.180   0.325   3.735 -0.1287 -0.4190  2.5380
 8770SOL     OW26674   4.544   5.015   4.657  0.6186 -0.1753 -0.3726
 8770SOL    HW126675   4.484   4.942   4.643 -1.5329  1.5509 -0.6803
 8770SOL    HW226676   4.494   5.077   4.712  2.3196  1.1050 -0.1847
 8771SOL     OW26677   2.026   4.680   2.660  0.3246 -0.2963 -0.4192
 8771SOL    HW126678   2.108   4.728   2.653  1.2914 -2.0081 -1.4240
 8771SOL    HW226679   1.992   4.676   2.570  0.5294 -1.8905 -0.4487
 8772SOL     OW26680   0.639   6.203   5.139  0.0680 -0.5007 -0.2264
 8772SOL    HW126681   0.628   6.161   5.054  1.8777 -3.2895  0.7838
 8772SOL    HW226682   0.719   6.254   5.130  0.8342 -1.6189  0.0410
 8773SOL     OW26683   0.002   1.164   1.316 -0.1034 -0.2934  0.1394
 8773SOL    HW126684   0.063   1.185   1.388  0.4687  1.2461 -0.7423
 8773SOL    HW226685  -0.075   1.217   1.335 -0.6612 -1.2204  0.5293
 8774SOL     OW26686   4.692   1.452   4.245  0.6814  0.1102 -0.5733
 8774SOL    HW126687   4.672   1.522   4.307 -2.4526 -0.0715 -1.2012
 8774SOL    HW226688   4.657   1.483   4.162  2.5371 -0.7196 -1.7242
 8775SOL     OW26689   2.037   6.040   0.353  0.1295 -0.7752  0.0881
 8775SOL    HW126690   2.046   5.945   0.362 -0.9870 -0.7251  2.5170
 8775SOL    HW226691   1.987   6.067   0.430 -1.6434  1.5131 -1.6971
 8776SOL     OW26692   3.025   4.724   1.372 -0.0665  0.1516  0.1025
 8776SOL    HW126693   3.102   4.689   1.416 -0.2200  0.3185  0.5135
 8776SOL    HW226694   2.990   4.789   1.433 -2.2678 -2.0206  1.4005
 8777SOL     OW26695   3.827   0.476   3.528  0.6534 -0.5436  0.2085
 8777SOL    HW126696   3.822   0.564   3.566  0.7531 -0.2523 -0.4346
 8777SOL    HW226697   3.757   0.428   3.571 -1.3233  0.6571 -1.4427
 8778SOL     OW26698   4.013   0.451   6.142  0.2465 -0.2846  0.0895
 8778SOL    HW126699   4.086   0.392   6.160  1.3859  0.8458 -0.7482
 8778SOL    HW226700   4.041   0.503   6.067 -2.0376 -0.8531 -1.2530
 8779SOL     OW26701   5.083   5.368   4.970 -0.0700  0.1282  0.2658
 8779SOL    HW126702   5.092   5.273   4.970 -0.8843  0.0342 -0.6007
 8779SOL    HW226703   5.106   5.395   4.882  4.3151  1.2447  1.5318
 8780SOL     OW26704   5.576   4.167   3.134  0.1865 -0.4948 -0.4254
 8780SOL    HW126705   5.660   4.157   3.089  0.0869  2.1704 -1.3792
 8780SOL    HW226706   5.514   4.192   3.065 -2.2198 -5.0665 -0.3121
 8781SOL     OW26707   1.302   3.771   1.670  0.7493 -0.8076  0.0908
 8781SOL    HW126708   1.228   3.831   1.670 -0.6106 -2.2991  2.3879
 8781SOL    HW226709   1.297   3.726   1.586  0.4474  0.6914 -0.7191
 8782SOL     OW26710   4.707   0.172   4.555 -0.0946 -0.2467 -0.4466
 8782SOL    HW126711   4.700   0.127   4.640  0.0488 -1.1100 -0.8778
 8782SOL    HW226712   4.691   0.103   4.491  1.4468  0.0450 -1.1707
 8783SOL     OW26713   1.654   1.142   1.008  0.1774 -0.8179  0.3720
 8783SOL    HW126714   1.620   1.231   1.006  0.2585 -0.8005 -1.4075
 8783SOL    HW226715   1.576   1.087   1.020  0.1248 -0.5485  1.4347
 8784SOL     OW26716   0.447   2.606   0.849 -0.3514  0.0198  0.0831
 8784SOL    HW126717   0.519   2.668   0.846  0.9744 -1.4639  0.1074
 8784SOL    HW226718   0.371   2.655   0.818  0.7226  1.5262 -0.2376
 8785SOL     OW26719   0.653   2.842   3.050 -0.3235 -0.1905 -0.1113
 8785SOL    HW126720   0.733   2.853   3.101  0.4571  0.5282 -1.4290
 8785SOL    HW226721   0.652   2.750   3.027 -0.4808 -0.4406  0.8571
 8786SOL     OW26722   3.258   3.424   1.613  0.1177 -0.8135 -0.1879
 8786SOL    HW126723   3.176   3.439   1.658  1.0035  0.8569  0.9701
 8786SOL    HW226724   3.283   3.510   1.579  1.1319 -1.3904 -0.9726
 8787SOL     OW26725   6.142   0.259   0.469 -0.0008  0.1801 -0.0871
 8787SOL    HW126726   6.117   0.205   0.545  0.2022  0.0077 -0.1435
 8787SOL    HW226727   6.059   0.277   0.425 -0.3158  1.5000  0.9824
 8788SOL     OW26728   6.679   2.484   2.567  0.1456  0.0906 -0.4634
 8788SOL    HW126729   6.717   2.534   2.495  2.4649 -1.3196 -0.3045
 8788SOL    HW226730   6.724   2.515   2.645  0.2797 -0.9437 -0.1177
 8789SOL     OW26731   3.961   1.206   2.093 -0.4397  0.0608 -0.6457
 8789SOL    HW126732   3.932   1.124   2.053  0.1897 -0.0490 -0.8825
 8789SOL    HW226733   4.054   1.194   2.109 -0.0254  1.2252 -1.9785
 8790SOL     OW26734   3.917   5.738   5.871  0.4300  0.2156  0.3666
 8790SOL    HW126735   3.983   5.775   5.812  1.7042 -1.9256  0.3422
 8790SOL    HW226736   3.885   5.660   5.825 -1.1649  0.4466  0.9988
 8791SOL     OW26737   6.023   5.660   2.849  0.0579  0.3622  0.0902
 8791SOL    HW126738   6.105   5.661   2.800  0.7273  2.1427  1.1751
 8791SOL    HW226739   5.971   5.731   2.811 -0.5616 -0.0470  0.1389
 8792SOL     OW26740   4.134   0.201   0.864  0.2724 -0.2848  0.0783
 8792SOL    HW126741   4.186   0.179   0.941  1.4938  0.9820 -0.3492
 8792SOL    HW226742   4.130   0.119   0.814  0.0310 -0.9396  1.1558
 8793SOL     OW26743   3.783   3.268   1.685 -0.7318 -0.5993  0.1070
 8793SOL    HW126744   3.708   3.304   1.733 -1.9743 -0.6713 -1.6994
 8793SOL    HW226745   3.831   3.218   1.751 -2.8297 -1.4004  1.1302
 8794SOL     OW26746   5.647   0.819   4.631 -0.1242  0.1790  0.0875
 8794SOL    HW126747   5.733   0.785   4.658  0.1761  1.3063  0.5851
 8794SOL    HW226748   5.616   0.756   4.565  0.8016 -0.5789  0.3584
 8795SOL     OW26749   1.980   1.318   0.605 -0.1434 -0.3208  0.3438
 8795SOL    HW126750   1.897   1.344   0.645 -0.2088  1.0913 -0.6174
 8795SOL    HW226751   1.973   1.223   0.594 -1.3298 -0.3188  0.9196
 8796SOL     OW26752   4.291   3.086   4.346  0.0546  0.0627 -0.8178
 8796SOL    HW126753   4.277   2.992   4.359  0.8698 -0.1704 -1.5168
 8796SOL    HW226754   4.255   3.126   4.425  2.5973 -1.1028  1.0825
 8797SOL     OW26755   6.343   0.486   5.717 -0.4980  0.0979  0.5526
 8797SOL    HW126756   6.338   0.581   5.705  0.1087 -0.1904 -2.9833
 8797SOL    HW226757   6.436   0.470   5.737 -0.1204  0.1250 -1.0620
 8798SOL     OW26758   0.932   6.783   1.834 -0.1964 -0.3067  0.3677
 8798SOL    HW126759   0.948   6.776   1.740  0.7951 -0.9476  0.5709
 8798SOL    HW226760   0.942   6.876   1.852  1.2491 -0.3847  0.0990
 8799SOL     OW26761   0.443   2.067   2.814 -0.2760 -0.9698  1.0116
 8799SOL    HW126762   0.386   2.036   2.885 -1.0847 -1.2879  0.2487
 8799SOL    HW226763   0.388   2.060   2.735  0.6421 -0.7437  0.3400
 8800SOL     OW26764   6.073   4.197   0.480 -0.0459  0.1508 -0.1641
 8800SOL    HW126765   5.994   4.221   0.432 -0.6870 -0.1348  0.7171
 8800SOL    HW226766   6.142   4.250   0.440 -0.5580 -0.0261 -1.3338
 8801SOL     OW26767   1.149   3.846   0.473 -0.0987 -0.3579 -0.0892
 8801SOL    HW126768   1.144   3.930   0.518 -1.8317  0.6368 -1.9968
 8801SOL    HW226769   1.062   3.808   0.483  0.0350 -0.9498 -1.0178
 8802SOL     OW26770   5.120   1.880   5.426  0.2252 -0.3678  0.5771
 8802SOL    HW126771   5.079   1.798   5.399 -0.2998 -0.2266  0.9377
 8802SOL    HW226772   5.071   1.907   5.503 -0.8195  1.2482 -0.5885
 8803SOL     OW26773   6.775   1.401   1.732 -0.4170 -0.3332 -0.1958
 8803SOL    HW126774   6.812   1.399   1.820 -0.0498  0.6515 -0.3086
 8803SOL    HW226775   6.744   1.491   1.721 -3.7634 -1.3329  0.2353
 8804SOL     OW26776   5.372   2.477   4.759 -0.0653  0.1893  0.4611
 8804SOL    HW126777   5.368   2.570   4.780 -0.4261  0.4620 -0.7248
 8804SOL    HW226778   5.465   2.460   4.742 -0.2395  0.9094 -1.5804
 8805SOL     OW26779   0.711   0.364   1.848 -0.0988  0.5449  0.3682
 8805SOL    HW126780   0.664   0.362   1.931 -1.0606  1.6262 -0.1248
 8805SOL    HW226781   0.700   0.276   1.812  0.3807  0.0452  1.3861
 8806SOL     OW26782   0.039   4.462   1.724 -0.0637  0.0107 -0.1439
 8806SOL    HW126783   0.091   4.528   1.770  2.0842 -0.4870 -1.6794
 8806SOL    HW226784   0.075   4.462   1.635 -2.4274 -0.7367 -1.1640
 8807SOL     OW26785   5.216   0.108   1.654 -0.7404  0.5828 -0.1769
 8807SOL    HW126786   5.245   0.017   1.663 -0.0625  0.7348 -0.7958
 8807SOL    HW226787   5.121   0.103   1.659 -0.8788 -0.4740 -2.7111
 8808SOL     OW26788   0.734   3.012   2.053  0.3246  0.5184 -0.2934
 8808SOL    HW126789   0.710   3.068   1.980 -1.8014  0.7237  0.4914
 8808SOL    HW226790   0.783   3.069   2.113 -0.7072  1.2321 -0.0977
 8809SOL     OW26791   1.318   0.566   6.420  0.3011  0.0919  0.4821
 8809SOL    HW126792   1.325   0.516   6.339 -0.8067 -0.0424  0.4540
 8809SOL    HW226793   1.233   0.540   6.457  0.3222  0.9361  1.1526
 8810SOL     OW26794   5.376   0.581   0.736  0.3866 -0.8640  0.1085
 8810SOL    HW126795   5.455   0.539   0.771  2.4307  0.3441 -2.6795
 8810SOL    HW226796   5.321   0.595   0.813  2.1041 -3.3113  1.9488
 8811SOL     OW26797   5.529   4.768   3.868 -0.1190  0.3269  0.0064
 8811SOL    HW126798   5.554   4.684   3.829 -0.6411 -0.9590  2.2708
 8811SOL    HW226799   5.467   4.745   3.937 -1.6604  2.7714 -0.4542
 8812SOL     OW26800   3.786   5.933   2.669  0.0750 -0.4252  0.3587
 8812SOL    HW126801   3.875   5.961   2.648 -0.2974  0.4019 -0.1993
 8812SOL    HW226802   3.731   5.979   2.605 -0.6229 -2.1845 -0.3468
 8813SOL     OW26803   0.216   0.665   5.212  0.5555  0.2402 -0.5211
 8813SOL    HW126804   0.301   0.660   5.168  1.1283  1.7933  0.3275
 8813SOL    HW226805   0.238   0.672   5.305 -0.5495 -0.5498 -0.1832
 8814SOL     OW26806   4.193   4.733   0.589 -0.0519 -0.2490 -0.1888
 8814SOL    HW126807   4.235   4.727   0.675 -1.3380 -0.3157  0.4630
 8814SOL    HW226808   4.195   4.644   0.555  0.7975 -0.1552 -0.4108
 8815SOL     OW26809   0.342   6.095   3.189 -0.0758 -0.3089  0.0356
 8815SOL    HW126810   0.257   6.075   3.149  0.8562 -1.1309 -1.6419
 8815SOL    HW226811   0.320   6.135   3.273 -2.1103 -1.5624  0.1705
 8816SOL     OW26812   6.667   2.971   4.781 -0.4316 -0.2365  0.0788
 8816SOL    HW126813   6.656   2.894   4.724 -1.0927 -0.2576  0.2280
 8816SOL    HW226814   6.606   3.036   4.745 -0.4116 -0.0414  0.3968
 8817SOL     OW26815   5.970   5.803   2.285 -0.6589  0.2600 -0.1799
 8817SOL    HW126816   5.884   5.764   2.269 -0.6351  0.4929 -0.9203
 8817SOL    HW226817   6.032   5.737   2.252 -0.5674  0.2390  0.0350
 8818SOL     OW26818   0.367   2.553   5.172 -0.7276  0.1530 -0.0496
 8818SOL    HW126819   0.416   2.580   5.094  0.0478  0.6163  0.5799
 8818SOL    HW226820   0.310   2.628   5.192  0.6259  0.9516  1.0510
 8819SOL     OW26821   4.504   2.425   5.767 -0.2043 -0.2400  0.2725
 8819SOL    HW126822   4.549   2.408   5.849  0.6532 -0.0967 -0.1541
 8819SOL    HW226823   4.540   2.360   5.706  0.6683  0.9323 -0.5033
 8820SOL     OW26824   2.372   3.049   5.126  0.3602  0.1563 -0.3177
 8820SOL    HW126825   2.322   3.002   5.193  0.5769 -1.3406 -1.1566
 8820SOL    HW226826   2.454   3.071   5.169  0.3980 -0.5650 -0.0030
 8821SOL     OW26827   1.586   6.793   4.062 -0.0152 -0.0512 -0.5874
 8821SOL    HW126828   1.493   6.786   4.040 -0.4998  3.4171 -0.2884
 8821SOL    HW226829   1.627   6.827   3.983  0.5576  0.5611 -0.0461
 8822SOL     OW26830   3.980   5.721   5.169 -0.5012 -0.5849  0.5559
 8822SOL    HW126831   4.027   5.648   5.131  0.7714  0.3927  0.1943
 8822SOL    HW226832   3.965   5.696   5.260  0.9514 -0.8186  0.7443
 8823SOL     OW26833   5.624   3.604   0.056 -0.8520  0.4953  0.0782
 8823SOL    HW126834   5.546   3.550   0.045 -0.2827 -0.4176  0.4186
 8823SOL    HW226835   5.656   3.584   0.144 -0.3105  0.9671 -0.0026
 8824SOL     OW26836   2.281   4.296   5.559 -0.0618  0.4911  0.0029
 8824SOL    HW126837   2.309   4.213   5.521 -0.3273 -0.4714  1.7903
 8824SOL    HW226838   2.187   4.286   5.572 -0.0176  0.8851  0.6774
 8825SOL     OW26839   3.006   0.414   3.635 -0.2537  0.4861 -0.5129
 8825SOL    HW126840   2.968   0.463   3.707  0.3980  0.1525  0.0650
 8825SOL    HW226841   2.935   0.408   3.570 -2.0624 -2.1546  1.4746
 8826SOL     OW26842   4.902   6.234   4.217 -0.3113 -0.8165 -0.3433
 8826SOL    HW126843   4.909   6.196   4.305 -0.0492 -2.5110 -1.0546
 8826SOL    HW226844   4.813   6.213   4.189 -0.6711  0.4545 -0.1670
 8827SOL     OW26845   0.419   3.409   1.265 -0.2626  0.2271 -0.0044
 8827SOL    HW126846   0.419   3.504   1.280  0.1115  0.6850 -2.5475
 8827SOL    HW226847   0.498   3.378   1.310 -0.6806  0.9974  1.3242
 8828SOL     OW26848   5.172   5.932   0.516  0.6943  0.2053 -0.0202
 8828SOL    HW126849   5.247   5.951   0.573  0.0528  0.4475  0.7717
 8828SOL    HW226850   5.177   5.999   0.448  1.7680 -0.4003 -0.5617
 8829SOL     OW26851   2.624   4.127   3.843  0.2387  0.6191 -0.6111
 8829SOL    HW126852   2.575   4.145   3.923  0.7925  0.0067 -0.1320
 8829SOL    HW226853   2.609   4.035   3.825  1.6754  0.2670 -0.1271
 8830SOL     OW26854   1.676   4.538   6.304 -0.5681 -0.4886 -0.5245
 8830SOL    HW126855   1.635   4.590   6.373  0.7146  2.0417 -1.5512
 8830SOL    HW226856   1.690   4.599   6.232  0.8681 -2.3102 -1.9171
 8831SOL     OW26857   4.894   5.869   2.462 -0.2885  0.0886 -0.4876
 8831SOL    HW126858   4.881   5.775   2.474 -1.3299  0.2042 -0.5856
 8831SOL    HW226859   4.807   5.902   2.439  0.3954  0.7989 -2.2529
 8832SOL     OW26860   3.173   0.770   1.943  0.1208 -0.0095  0.9261
 8832SOL    HW126861   3.199   0.679   1.929  0.0051 -0.0855  1.2059
 8832SOL    HW226862   3.117   0.791   1.868  1.7558  0.4641 -0.2324
 8833SOL     OW26863   5.914   6.543   3.465 -0.0788  0.1825  0.0333
 8833SOL    HW126864   5.945   6.537   3.375 -0.2100  2.3236 -0.2066
 8833SOL    HW226865   5.987   6.582   3.513 -0.6046  0.6423  0.4804
 8834SOL     OW26866   2.837   6.014   0.875  0.0404 -0.1705 -0.7126
 8834SOL    HW126867   2.858   5.972   0.792 -0.1256  1.7039 -1.7686
 8834SOL    HW226868   2.900   6.086   0.881 -1.4470  1.1439 -0.3987
 8835SOL     OW26869   4.607   2.807   2.869  0.0569  0.6202  0.4471
 8835SOL    HW126870   4.643   2.728   2.828  1.7386  0.9821  1.1442
 8835SOL    HW226871   4.658   2.878   2.832 -1.5164  1.4460 -0.2493
 8836SOL     OW26872   0.675   6.395   5.972  0.0269 -0.1957  0.0359
 8836SOL    HW126873   0.635   6.450   6.040 -0.0536  0.6764 -0.6986
 8836SOL    HW226874   0.749   6.353   6.015  0.5146  1.0385  0.4339
 8837SOL     OW26875   1.016   0.216   5.643 -0.2910 -0.6445  0.1901
 8837SOL    HW126876   0.995   0.199   5.551 -1.8971 -0.6304  0.5230
 8837SOL    HW226877   0.931   0.238   5.683  0.1825 -1.7760  1.9255
 8838SOL     OW26878   4.422   5.365   2.787 -0.2915 -0.3526 -0.0288
 8838SOL    HW126879   4.503   5.325   2.819 -0.0287  0.4570  0.3321
 8838SOL    HW226880   4.353   5.329   2.843 -0.0700 -0.3603  0.2417
 8839SOL     OW26881   0.684   5.892   0.902  0.1079  0.2242 -0.1706
 8839SOL    HW126882   0.690   5.801   0.929  0.0936 -0.1884 -1.4698
 8839SOL    HW226883   0.591   5.912   0.902  0.0060 -0.2155 -1.2671
 8840SOL     OW26884   2.742   1.973   6.504 -0.2566 -0.5571 -0.1208
 8840SOL    HW126885   2.715   1.952   6.414 -0.3571  0.5777 -0.3707
 8840SOL    HW226886   2.838   1.976   6.500 -0.2689 -0.3233 -0.2314
 8841SOL     OW26887   1.920   2.712   0.005 -0.4005 -0.0318 -0.0462
 8841SOL    HW126888   1.977   2.672  -0.061 -0.5486 -1.1796  0.4891
 8841SOL    HW226889   1.957   2.799   0.019  2.7427 -1.4586  1.9448
 8842SOL     OW26890   3.486   4.100   3.005  0.1015 -0.0170  0.1062
 8842SOL    HW126891   3.443   4.062   2.928  0.5307  0.6665 -0.4843
 8842SOL    HW226892   3.437   4.180   3.024  0.3102  0.0836  0.2294
 8843SOL     OW26893   0.729   6.228   2.124  0.2581 -0.2963 -0.0940
 8843SOL    HW126894   0.697   6.145   2.159  0.1503  0.0703  0.6968
 8843SOL    HW226895   0.686   6.236   2.039 -1.7334  0.1357  0.8930
 8844SOL     OW26896   0.275   2.030   2.595 -0.0803 -0.0352  0.2610
 8844SOL    HW126897   0.188   2.070   2.588 -0.7370 -1.4442 -0.2519
 8844SOL    HW226898   0.322   2.061   2.518 -0.8602 -0.8468 -0.5766
 8845SOL     OW26899   4.760   1.823   3.146  0.0451  0.3493 -0.0528
 8845SOL    HW126900   4.718   1.843   3.062 -1.3124  1.8044  0.9190
 8845SOL    HW226901   4.854   1.827   3.127 -0.2329  0.8055 -1.4665
 8846SOL     OW26902   5.250   0.321   0.778 -0.1444 -0.8666 -0.2927
 8846SOL    HW126903   5.247   0.408   0.737  1.3601  1.3114  3.6578
 8846SOL    HW226904   5.321   0.276   0.732  2.0377  1.7224  0.2363
 8847SOL     OW26905   4.799   2.848   3.359  0.1974  0.0698 -0.2463
 8847SOL    HW126906   4.793   2.752   3.363 -0.9427  0.1012 -0.8755
 8847SOL    HW226907   4.874   2.869   3.414  0.9603 -1.2410 -0.7507
 8848SOL     OW26908   2.130   5.334   3.612  0.3949 -0.4144 -0.1447
 8848SOL    HW126909   2.112   5.423   3.644  1.2992 -0.1068 -0.4508
 8848SOL    HW226910   2.116   5.278   3.688 -0.3522 -0.0340  0.0106
 8849SOL     OW26911   3.760   0.771   4.411  0.1623 -0.1203 -0.0917
 8849SOL    HW126912   3.717   0.755   4.327  1.4045  1.9164 -1.2014
 8849SOL    HW226913   3.798   0.858   4.403 -1.6454  1.2213  3.4664
 8850SOL     OW26914   0.000   5.978   3.595 -0.6363 -0.1303 -0.0617
 8850SOL    HW126915   0.065   6.038   3.557 -0.0821 -1.0209 -0.5532
 8850SOL    HW226916  -0.043   5.939   3.520 -0.1265 -1.2723  0.2174
 8851SOL     OW26917   0.847   1.849   3.323 -0.0832  0.1724  0.0656
 8851SOL    HW126918   0.798   1.767   3.329  0.1216  0.0492  0.0678
 8851SOL    HW226919   0.930   1.824   3.282  0.5650  0.1147  1.3652
 8852SOL     OW26920   3.883   3.527   3.226  0.3048 -0.2683 -0.4055
 8852SOL    HW126921   3.974   3.548   3.244  0.1955 -0.6392  0.6571
 8852SOL    HW226922   3.860   3.461   3.291 -1.1148  0.8129  0.2424
 8853SOL     OW26923   2.368   0.185   6.181 -0.2778 -0.4905 -0.2065
 8853SOL    HW126924   2.421   0.150   6.109  0.9885  2.4322 -0.8166
 8853SOL    HW226925   2.401   0.140   6.259  1.7416 -0.1943 -0.8451
 8854SOL     OW26926   0.012   5.988   2.770 -0.2412  0.1281  0.1311
 8854SOL    HW126927   0.074   5.986   2.698 -0.2986 -1.2345  0.0914
 8854SOL    HW226928   0.056   5.942   2.842 -0.8808 -0.1472  0.3623
 8855SOL     OW26929   0.497   5.219   2.748  0.1762  0.2700 -0.2720
 8855SOL    HW126930   0.459   5.132   2.736  0.8397  0.0313 -0.7403
 8855SOL    HW226931   0.422   5.278   2.756 -0.3507 -0.6305  2.5539
 8856SOL     OW26932   6.232   3.346   1.711  0.0267 -0.2678  0.0245
 8856SOL    HW126933   6.213   3.392   1.793 -0.6716 -1.6337  0.6488
 8856SOL    HW226934   6.274   3.413   1.656  1.5166  0.3794  1.8621
 8857SOL     OW26935   0.874   6.289   5.495 -0.7636 -0.0945 -0.6219
 8857SOL    HW126936   0.909   6.202   5.478  0.9398  0.9904 -3.5485
 8857SOL    HW226937   0.818   6.279   5.571 -0.2005 -3.6051 -0.5297
 8858SOL     OW26938   6.529   5.896   2.110  0.4932 -0.2346 -0.3428
 8858SOL    HW126939   6.527   5.938   2.025  0.5916  2.3474  0.8306
 8858SOL    HW226940   6.593   5.825   2.101  1.9330  1.1865 -1.9042
 8859SOL     OW26941   0.675   5.027   4.989  0.5096  0.0087 -0.0096
 8859SOL    HW126942   0.598   5.002   5.040  1.1627  1.2321  1.6502
 8859SOL    HW226943   0.638   5.064   4.908 -0.5299 -2.0723 -0.5678
 8860SOL     OW26944   5.152   1.967   5.145 -0.1001  0.3046  0.0441
 8860SOL    HW126945   5.102   1.949   5.224 -1.9538  1.4977 -0.7961
 8860SOL    HW226946   5.222   2.026   5.173  0.7396 -1.1633  1.1830
 8861SOL     OW26947   6.651   3.518   3.534  0.1718  0.2345 -0.6033
 8861SOL    HW126948   6.707   3.482   3.465 -0.5275  0.1819 -1.1462
 8861SOL    HW226949   6.563   3.519   3.497 -0.3967 -0.7523  0.6540
 8862SOL     OW26950   6.091   2.384   1.337 -0.2169 -0.1493  0.0149
 8862SOL    HW126951   6.161   2.433   1.381 -1.0037 -0.3564  1.5483
 8862SOL    HW226952   6.099   2.295   1.371  0.1350 -0.7346 -1.4854
 8863SOL     OW26953   6.728   5.995   5.005  0.2152 -0.3239  0.3034
 8863SOL    HW126954   6.716   5.915   5.056  1.9512 -0.2923  0.8446
 8863SOL    HW226955   6.730   6.065   5.070 -0.1725  0.0344 -0.0615
 8864SOL     OW26956   3.311   6.053   1.661 -0.0773 -0.4125  0.0765
 8864SOL    HW126957   3.403   6.037   1.639 -0.3649 -1.0596 -0.6978
 8864SOL    HW226958   3.263   5.987   1.611 -0.9633 -0.0829  0.4851
 8865SOL     OW26959   0.495   1.257   5.398  0.1413  0.4340  0.0339
 8865SOL    HW126960   0.404   1.243   5.422  0.0268  1.5081  0.2666
 8865SOL    HW226961   0.494   1.335   5.342  0.7420 -0.4010 -1.1973
 8866SOL     OW26962   4.986   1.631   6.174  0.3539  0.3050 -0.3350
 8866SOL    HW126963   5.064   1.683   6.194  0.4969 -0.3180  0.8357
 8866SOL    HW226964   4.912   1.690   6.190  0.5604  0.7839 -1.0894
 8867SOL     OW26965   3.327   4.054   3.515  0.5574  0.1778 -0.1321
 8867SOL    HW126966   3.419   4.060   3.540  0.3246 -0.7909  1.0384
 8867SOL    HW226967   3.281   4.034   3.596 -0.8734  1.9804 -0.4301
 8868SOL     OW26968   0.714   1.208   4.329  0.0319  0.1913  1.3001
 8868SOL    HW126969   0.685   1.164   4.249  0.2231 -0.6087  1.6624
 8868SOL    HW226970   0.803   1.176   4.343  0.8938  2.1158  0.5637
 8869SOL     OW26971   6.359   6.728   5.668  1.0286  0.5534 -0.1925
 8869SOL    HW126972   6.319   6.809   5.700  0.2775  0.6794 -1.3869
 8869SOL    HW226973   6.453   6.740   5.681  0.8060  0.8364  1.3644
 8870SOL     OW26974   0.986   1.786   4.177  0.1964 -0.1374 -0.4771
 8870SOL    HW126975   0.893   1.810   4.177  0.3333  0.4407  0.1041
 8870SOL    HW226976   0.987   1.693   4.198 -0.3656 -0.7787 -2.9795
 8871SOL     OW26977   0.477   0.003   4.054  0.5025 -0.1093 -0.0908
 8871SOL    HW126978   0.491   0.093   4.021  0.2485  0.5226  1.4534
 8871SOL    HW226979   0.560  -0.018   4.098  0.1712 -0.1965  0.4972
 8872SOL     OW26980   5.105   5.614   0.902  0.2204  0.1736 -0.0120
 8872SOL    HW126981   5.053   5.690   0.875 -1.9947 -0.5773  1.8607
 8872SOL    HW226982   5.165   5.648   0.969  0.7753  0.6626 -0.7463
 8873SOL     OW26983   3.847   1.232   4.924 -0.3298  0.1242  0.1458
 8873SOL    HW126984   3.791   1.205   4.852  1.0510  0.6737 -1.1816
 8873SOL    HW226985   3.832   1.166   4.992 -1.2449 -0.7221 -0.8548
 8874SOL     OW26986   3.982   3.586   2.341 -0.6160 -0.0328 -0.2966
 8874SOL    HW126987   4.070   3.547   2.343 -1.3285 -1.7467  0.0229
 8874SOL    HW226988   3.966   3.613   2.432 -1.1486 -1.5853  0.1140
 8875SOL     OW26989   1.896   5.577   0.347  0.3104  0.4297 -0.4467
 8875SOL    HW126990   1.897   5.539   0.435  1.7486  0.1647 -0.5449
 8875SOL    HW226991   1.909   5.503   0.288  2.1959  0.8822 -0.6896
 8876SOL     OW26992   3.773   0.574   5.806  0.5150 -0.0216  0.2838
 8876SOL    HW126993   3.742   0.504   5.864  1.2152 -0.5096  0.0754
 8876SOL    HW226994   3.780   0.650   5.863 -1.4721  0.2396  0.2605
 8877SOL     OW26995   0.116   6.066   6.399  0.1992  0.3017  0.8405
 8877SOL    HW126996   0.146   5.992   6.451 -1.7821 -1.7596 -0.7316
 8877SOL    HW226997   0.066   6.120   6.461  0.7615 -0.2214  1.7755
 8878SOL     OW26998   6.422   4.097   1.186  0.2683 -0.2578  1.1733
 8878SOL    HW126999   6.441   4.026   1.124 -0.2342  0.0825  0.6140
 8878SOL    HW227000   6.348   4.143   1.147 -1.5447 -1.3384  3.1064
 8879SOL     OW27001   2.822   6.134   2.364  0.7345  0.6373  0.1267
 8879SOL    HW127002   2.817   6.230   2.366  1.8194  0.7284 -0.6385
 8879SOL    HW227003   2.814   6.112   2.272 -5.1507 -0.4419  0.5324
 8880SOL     OW27004   5.442   3.794   4.246  0.3936  0.0939  0.5664
 8880SOL    HW127005   5.417   3.705   4.222  1.0211  0.0101  0.2076
 8880SOL    HW227006   5.359   3.840   4.256  0.0329 -0.7381  1.5670
 8881SOL     OW27007   3.660   2.149   1.969 -0.0016 -0.1977  0.2901
 8881SOL    HW127008   3.606   2.144   2.047 -0.3972  0.5630  0.0688
 8881SOL    HW227009   3.703   2.234   1.975  1.2866 -0.8338  0.5274
 8882SOL     OW27010   6.776   6.108   1.979  0.1644 -0.4848  0.3124
 8882SOL    HW127011   6.834   6.035   2.000  0.0004 -0.6013  0.3642
 8882SOL    HW227012   6.834   6.177   1.947  0.6739  0.3874  2.8911
 8883SOL     OW27013   2.903   4.609   2.286 -0.1482 -0.7248 -0.5226
 8883SOL    HW127014   2.888   4.696   2.323 -0.1428 -0.8273 -0.2786
 8883SOL    HW227015   2.993   4.588   2.311 -0.3873 -1.0994  0.0313
 8884SOL     OW27016   6.205   1.765   5.275  0.0441  0.4392 -0.2732
 8884SOL    HW127017   6.153   1.823   5.218  0.5762  0.4648 -0.7366
 8884SOL    HW227018   6.147   1.748   5.349 -0.3729  1.0313 -0.4475
 8885SOL     OW27019   3.078   0.048   0.363  0.1397  0.0021 -0.4463
 8885SOL    HW127020   3.056   0.111   0.432 -0.2251 -0.2934 -0.2918
 8885SOL    HW227021   3.152   0.089   0.317  0.6670 -0.0003  0.3774
 8886SOL     OW27022   5.611   5.318   0.151  0.2667 -0.6148 -0.7432
 8886SOL    HW127023   5.631   5.408   0.128  1.0765 -0.6401 -0.1640
 8886SOL    HW227024   5.696   5.278   0.170 -0.2722 -0.7736  1.6043
 8887SOL     OW27025   2.833   4.703   6.583  0.3468 -0.7510  0.1236
 8887SOL    HW127026   2.914   4.752   6.595 -0.1030  0.1856 -0.5331
 8887SOL    HW227027   2.770   4.768   6.553 -0.3853 -1.6529 -0.3509
 8888SOL     OW27028   0.887   4.810   3.256  0.7986 -0.0462 -0.2241
 8888SOL    HW127029   0.856   4.720   3.267 -0.2058  0.4034  0.9189
 8888SOL    HW227030   0.897   4.842   3.346 -0.2751  1.4356 -0.6029
 8889SOL     OW27031   1.786   4.414   1.964 -0.3183 -0.0415 -0.7783
 8889SOL    HW127032   1.882   4.411   1.968 -0.2701  0.6483 -1.1127
 8889SOL    HW227033   1.757   4.390   2.052  0.1910  0.4948 -0.4514
 8890SOL     OW27034   0.971   3.493   6.196  0.0016 -0.0849 -0.1411
 8890SOL    HW127035   0.925   3.517   6.277  3.3247  1.5689  1.4999
 8890SOL    HW227036   1.016   3.411   6.218  1.7333  0.8916  0.1716
 8891SOL     OW27037   2.024   0.400   1.271  0.5479  0.3704 -0.2920
 8891SOL    HW127038   2.099   0.346   1.296  1.2148  0.2437 -2.3529
 8891SOL    HW227039   2.016   0.387   1.176 -3.2101 -1.0337  0.0508
 8892SOL     OW27040   5.707   1.425   2.911  0.1497 -0.3984 -0.4249
 8892SOL    HW127041   5.743   1.483   2.844  1.4706  1.5744  1.8669
 8892SOL    HW227042   5.751   1.450   2.992 -2.6005 -1.4785  1.5722
 8893SOL     OW27043   5.926   3.429   3.199  0.3362 -0.2445 -0.3875
 8893SOL    HW127044   5.850   3.396   3.152  0.9489  0.3826 -1.9049
 8893SOL    HW227045   5.901   3.517   3.226  1.0113  0.5917 -2.2882
 8894SOL     OW27046   5.670   4.152   3.616 -0.1945  0.3467 -0.0931
 8894SOL    HW127047   5.610   4.116   3.552  0.5712 -1.9424  0.4056
 8894SOL    HW227048   5.753   4.109   3.598  0.3654  0.6680  1.5745
 8895SOL     OW27049   5.552   5.349   4.003 -0.0956 -0.2862 -0.3287
 8895SOL    HW127050   5.615   5.289   4.043 -2.6308 -1.9143  1.4566
 8895SOL    HW227051   5.529   5.307   3.920  0.3831 -0.1805 -0.5234
 8896SOL     OW27052   1.828   0.496   2.642 -0.2479  0.5459 -0.0874
 8896SOL    HW127053   1.887   0.444   2.587 -0.5402  0.1841 -0.0643
 8896SOL    HW227054   1.777   0.431   2.690 -0.5130  0.8580  0.0561
 8897SOL     OW27055   4.781   1.037   1.320 -0.4128 -0.3912 -0.0667
 8897SOL    HW127056   4.734   1.103   1.371 -0.6831 -1.9373  1.8158
 8897SOL    HW227057   4.852   1.086   1.278 -0.0906  1.0067  1.9224
 8898SOL     OW27058   4.505   1.042   3.550  0.4884  0.0266 -0.5246
 8898SOL    HW127059   4.534   0.961   3.508 -0.2348 -0.4711 -0.0853
 8898SOL    HW227060   4.514   1.108   3.482  0.8272 -0.4678 -0.9763
 8899SOL     OW27061   4.171   0.952   1.612 -0.3073 -0.2466 -0.1873
 8899SOL    HW127062   4.248   0.928   1.562  0.2144  1.5289 -0.2757
 8899SOL    HW227063   4.203   0.966   1.701 -0.4490  0.8564 -0.3015
 8900SOL     OW27064   1.227   5.727   2.028  0.2277  0.3886 -0.2074
 8900SOL    HW127065   1.278   5.669   1.973  2.8093  2.5144 -0.2487
 8900SOL    HW227066   1.264   5.717   2.115  0.1586  1.3340 -0.0548
 8901SOL     OW27067   0.376   3.022   1.493 -0.1276 -0.3740 -0.5306
 8901SOL    HW127068   0.290   3.037   1.454 -0.7448  1.3717  1.3277
 8901SOL    HW227069   0.365   3.043   1.585  1.6017 -3.0074  0.3913
 8902SOL     OW27070   0.657   5.862   5.475  0.2390 -0.3204  0.3546
 8902SOL    HW127071   0.671   5.814   5.557  1.3467  0.1502  0.4656
 8902SOL    HW227072   0.578   5.824   5.438  1.3801 -2.6767  0.1281
 8903SOL     OW27073   3.444   0.279   3.933  0.3445 -1.2385 -0.0821
 8903SOL    HW127074   3.537   0.265   3.953  0.4358 -1.7565 -0.8144
 8903SOL    HW227075   3.397   0.230   4.001  0.5144  1.1510  1.9009
 8904SOL     OW27076   3.039   6.132   4.614  0.4743  0.2687 -0.4506
 8904SOL    HW127077   3.050   6.077   4.536 -1.2242  0.9838 -1.2477
 8904SOL    HW227078   3.078   6.081   4.685 -2.4021 -2.7872 -0.8322
 8905SOL     OW27079   3.980   3.594   1.249  0.5560  0.0663 -0.1895
 8905SOL    HW127080   4.064   3.640   1.253  0.8856 -0.5742  0.4513
 8905SOL    HW227081   3.995   3.522   1.188  0.5042 -0.1137  0.0104
 8906SOL     OW27082   4.942   4.447   5.825  0.4779  0.3527 -0.0103
 8906SOL    HW127083   4.952   4.497   5.744  0.8649  1.8547  0.9235
 8906SOL    HW227084   4.941   4.513   5.894  0.1854 -0.8914  1.2272
 8907SOL     OW27085   0.598   3.535   2.582 -0.1098  0.4849 -0.3582
 8907SOL    HW127086   0.524   3.475   2.590  0.1130  0.2747  0.1971
 8907SOL    HW227087   0.605   3.576   2.669  1.2288 -0.4545  0.0137
 8908SOL     OW27088   0.767   1.335   1.737  0.4725  0.3864 -0.2301
 8908SOL    HW127089   0.829   1.356   1.667  1.2832 -0.9450  0.0517
 8908SOL    HW227090   0.683   1.366   1.703  0.8433 -0.2036 -1.8098
 8909SOL     OW27091   4.993   1.996   5.673 -0.2648 -0.2958  0.1485
 8909SOL    HW127092   4.899   2.002   5.686 -0.4419 -1.0455 -0.6827
 8909SOL    HW227093   5.031   2.028   5.755 -1.1722  2.2109 -0.3072
 8910SOL     OW27094   0.920   2.431   0.984 -0.0719 -0.1535  0.3611
 8910SOL    HW127095   0.920   2.335   0.983 -1.8804 -0.2013  1.3089
 8910SOL    HW227096   1.008   2.455   1.012 -0.0648 -1.5870  1.6598
 8911SOL     OW27097   0.899   4.044   4.289  0.9290  0.3277 -0.0793
 8911SOL    HW127098   0.809   4.028   4.317  0.5046  1.3385 -0.8064
 8911SOL    HW227099   0.948   3.967   4.320 -0.5683 -1.3166 -1.5451
 8912SOL     OW27100   4.149   0.096   3.113  0.3993  0.2792 -0.3335
 8912SOL    HW127101   4.155   0.191   3.103 -0.6411  0.3083 -0.8475
 8912SOL    HW227102   4.102   0.083   3.195 -0.9704  0.2582 -1.0954
 8913SOL     OW27103   1.468   2.512   3.317  0.5945 -0.6502  0.2506
 8913SOL    HW127104   1.443   2.597   3.279  2.0244 -0.5518 -0.5229
 8913SOL    HW227105   1.487   2.458   3.241  2.8207 -0.6826  0.7819
 8914SOL     OW27106   1.533   0.248   6.352  0.5297 -0.1524  0.4857
 8914SOL    HW127107   1.566   0.177   6.297  0.4608 -0.9166  1.4031
 8914SOL    HW227108   1.603   0.263   6.415  2.1303  3.0758 -1.8149
 8915SOL     OW27109   1.603   2.307   6.737  0.0506  0.0576  0.1854
 8915SOL    HW127110   1.620   2.401   6.744  0.8067 -0.0059 -0.6401
 8915SOL    HW227111   1.689   2.268   6.724 -0.2454 -0.7738  0.6758
 8916SOL     OW27112   0.575   6.282   2.393  0.0229 -0.2241  0.0426
 8916SOL    HW127113   0.623   6.326   2.323 -0.0986 -0.0800  0.0493
 8916SOL    HW227114   0.492   6.329   2.398  0.3826  0.3382  0.8890
 8917SOL     OW27115   5.726   6.067   4.988 -0.4740 -0.5538 -0.4476
 8917SOL    HW127116   5.793   6.125   5.026 -1.3430  0.7837 -0.8641
 8917SOL    HW227117   5.775   5.995   4.949  0.6495 -0.1600  0.1900
 8918SOL     OW27118   5.405   0.724   5.745  0.0958  0.6452  0.0283
 8918SOL    HW127119   5.357   0.795   5.703 -3.8969 -2.0911 -0.6068
 8918SOL    HW227120   5.380   0.728   5.837 -1.9694 -1.0525 -0.3795
 8919SOL     OW27121   5.236   0.463   3.438  0.0998  0.0342 -0.0071
 8919SOL    HW127122   5.235   0.482   3.531 -0.5631  0.7816 -0.1621
 8919SOL    HW227123   5.328   0.445   3.418 -0.1282 -3.5723  1.4318
 8920SOL     OW27124   6.098   5.365   4.243 -0.2781 -0.5479 -0.0992
 8920SOL    HW127125   6.008   5.393   4.258 -0.2174 -0.3607 -0.0782
 8920SOL    HW227126   6.116   5.303   4.314  0.3350  1.0817  1.2191
 8921SOL     OW27127   6.178   6.164   3.827  0.3127 -0.2543  0.4527
 8921SOL    HW127128   6.147   6.209   3.748  3.7130 -0.2609 -1.0955
 8921SOL    HW227129   6.188   6.073   3.800  0.4269 -0.4827  1.2549
 8922SOL     OW27130   3.413   2.690   6.726  0.6557 -0.4161 -0.1550
 8922SOL    HW127131   3.397   2.707   6.819  1.6585  1.8187 -0.3233
 8922SOL    HW227132   3.483   2.751   6.702  1.4235 -1.9323 -2.0599
 8923SOL     OW27133   4.743   0.028   1.881  0.1269 -0.1042 -0.5228
 8923SOL    HW127134   4.675   0.038   1.814  0.3234  0.1841 -0.6799
 8923SOL    HW227135   4.750  -0.067   1.894 -1.4927 -0.1075  0.6962
 8924SOL     OW27136   0.497   3.370   4.359 -0.4341  0.3585 -0.6923
 8924SOL    HW127137   0.571   3.357   4.418 -1.4046  1.9355  0.9888
 8924SOL    HW227138   0.537   3.394   4.275  0.9829 -2.4206 -0.9049
 8925SOL     OW27139   1.600   6.723   4.751  0.1690 -0.2889 -0.5216
 8925SOL    HW127140   1.508   6.744   4.740  0.7007  2.2101 -0.8159
 8925SOL    HW227141   1.645   6.776   4.685  2.0503  1.3610  1.8906
 8926SOL     OW27142   0.032   1.108   4.499 -0.0160 -0.2551  0.4748
 8926SOL    HW127143  -0.049   1.148   4.467 -0.2749 -0.9011  0.3048
 8926SOL    HW227144   0.088   1.183   4.521 -1.3138  0.2339  2.3286
 8927SOL     OW27145   1.708   4.125   1.216 -0.5337 -0.2720 -0.1203
 8927SOL    HW127146   1.783   4.087   1.171 -0.3313 -0.3472  0.2718
 8927SOL    HW227147   1.642   4.056   1.216  0.0906 -0.9056  1.2314
 8928SOL     OW27148   3.084   4.170   0.353 -0.0282  0.6397 -0.0122
 8928SOL    HW127149   3.050   4.260   0.343  0.9849  0.9721 -0.5417
 8928SOL    HW227150   3.065   4.148   0.444 -2.2448  0.5609 -0.4202
 8929SOL     OW27151   3.624   5.864   3.647  0.6155 -0.3689  0.4408
 8929SOL    HW127152   3.627   5.871   3.552  2.3756  0.6581  0.5395
 8929SOL    HW227153   3.710   5.829   3.671  0.2847 -0.3777  1.6769
 8930SOL     OW27154   3.479   6.057   3.939  0.1398 -0.1746 -0.0450
 8930SOL    HW127155   3.574   6.069   3.928  0.3254 -1.6156 -0.2780
 8930SOL    HW227156   3.445   6.145   3.955  1.7531  0.1651  1.8678
 8931SOL     OW27157   4.137   0.164   0.239 -0.0806 -0.3875 -0.3591
 8931SOL    HW127158   4.130   0.089   0.181 -4.6095 -0.9651  0.6363
 8931SOL    HW227159   4.227   0.159   0.274  0.7500 -3.5085 -2.5698
 8932SOL     OW27160   2.714   1.277   6.538  0.0884 -0.1322 -0.4432
 8932SOL    HW127161   2.685   1.210   6.599 -2.2535  0.0350 -1.2711
 8932SOL    HW227162   2.758   1.342   6.592  0.0508 -1.0614  0.7288
 8933SOL     OW27163   2.826   6.310   5.931 -0.0279  0.3327  0.5120
 8933SOL    HW127164   2.807   6.400   5.904  1.3024  0.2024 -0.9815
 8933SOL    HW227165   2.907   6.287   5.885 -0.0152 -1.4363  1.3255
 8934SOL     OW27166   4.000   3.451   5.906 -0.5969 -0.3045  0.0287
 8934SOL    HW127167   3.912   3.484   5.890 -0.4367 -0.6340 -1.7106
 8934SOL    HW227168   3.988   3.357   5.920 -0.3807 -0.7131 -2.1787
 8935SOL     OW27169   3.687   6.723   4.934  0.4696  0.0990  0.0694
 8935SOL    HW127170   3.735   6.688   4.859  0.1015  0.4418 -0.3293
 8935SOL    HW227171   3.695   6.818   4.926  1.0244  0.1292  0.8605
 8936SOL     OW27172   4.846   3.844   0.773  0.3714  0.0860  0.0304
 8936SOL    HW127173   4.931   3.824   0.733  1.5670 -0.7507  2.7985
 8936SOL    HW227174   4.852   3.936   0.797  0.5514 -0.0116  0.3589
 8937SOL     OW27175   5.741   2.810   5.199 -0.3304 -0.1770 -0.3028
 8937SOL    HW127176   5.791   2.884   5.166 -1.7969 -0.3508 -3.2718
 8937SOL    HW227177   5.668   2.850   5.247  0.4704  0.1688  0.6565
 8938SOL     OW27178   1.393   6.383   6.159  0.1180  0.7271 -0.4013
 8938SOL    HW127179   1.383   6.291   6.134 -0.3834  0.6640  0.0134
 8938SOL    HW227180   1.413   6.428   6.077 -1.5675  0.5268 -0.9553
 8939SOL     OW27181   0.813   5.422   0.165  0.5947 -0.4098 -0.4444
 8939SOL    HW127182   0.798   5.340   0.212  0.1206 -0.7337 -1.1374
 8939SOL    HW227183   0.908   5.431   0.161  0.6958 -1.6384 -1.5543
 8940SOL     OW27184   5.466   5.767   5.498  0.6579  0.0197  0.2342
 8940SOL    HW127185   5.371   5.758   5.491  0.7392 -0.5558 -0.1956
 8940SOL    HW227186   5.497   5.680   5.523  0.9426  0.5667  1.9508
 8941SOL     OW27187   5.948   0.212   3.509  0.1414 -0.1665 -0.1254
 8941SOL    HW127188   5.971   0.273   3.579  1.5343 -0.0291 -0.6565
 8941SOL    HW227189   5.972   0.126   3.544 -0.2991 -0.2319  0.0172
 8942SOL     OW27190   4.714   2.331   5.936  0.1064 -0.1829 -0.2585
 8942SOL    HW127191   4.660   2.286   6.001 -0.0266  2.0081  1.2908
 8942SOL    HW227192   4.804   2.314   5.965  0.1136 -0.5912 -0.5131
 8943SOL     OW27193   0.527   3.933   5.096  0.1591  0.1181  0.4312
 8943SOL    HW127194   0.441   3.950   5.056  0.8066  3.6412  0.2045
 8943SOL    HW227195   0.513   3.857   5.152 -2.3991 -1.0798 -1.6118
 8944SOL     OW27196   6.680   0.389   1.551  0.7039  0.2740  0.2724
 8944SOL    HW127197   6.684   0.372   1.457  0.9539  1.6259  0.0178
 8944SOL    HW227198   6.649   0.479   1.558 -1.8461 -0.6045  1.5760
 8945SOL     OW27199   5.138   0.181   5.077  0.3503 -0.2518 -0.1764
 8945SOL    HW127200   5.196   0.177   5.153  2.1074 -2.9071 -1.5269
 8945SOL    HW227201   5.058   0.223   5.111  1.9278  0.9119  2.4620
 8946SOL     OW27202   0.295   4.169   5.989  0.2282  0.2793 -0.0277
 8946SOL    HW127203   0.376   4.214   5.966  0.5202  0.3289  1.0119
 8946SOL    HW227204   0.305   4.149   6.083 -0.8184 -0.0079  0.0363
 8947SOL     OW27205   5.175   4.080   2.274 -1.0070  0.2665  0.4244
 8947SOL    HW127206   5.165   4.175   2.273  0.1062  0.3988  0.3074
 8947SOL    HW227207   5.220   4.059   2.192 -1.9019 -0.4450  0.1061
 8948SOL     OW27208   5.270   4.236   1.777  0.4156  0.0722 -0.5282
 8948SOL    HW127209   5.208   4.264   1.710  0.5678 -0.6151 -0.9635
 8948SOL    HW227210   5.239   4.278   1.857  0.2132  0.8747 -1.0155
 8949SOL     OW27211   5.429   0.067   3.281  0.6213  0.2326 -0.0978
 8949SOL    HW127212   5.424  -0.012   3.227 -0.7710 -0.7352  1.3546
 8949SOL    HW227213   5.346   0.112   3.267  1.0739  1.0335 -0.2809
 8950SOL     OW27214   4.963   3.612   5.181 -0.3669  0.1833 -0.1028
 8950SOL    HW127215   5.055   3.596   5.198 -0.2665  0.5860 -0.2566
 8950SOL    HW227216   4.953   3.600   5.086 -0.3957  0.4925 -0.1413
 8951SOL     OW27217   5.899   3.961   5.338 -0.2020  0.0511 -0.7447
 8951SOL    HW127218   5.987   3.930   5.360  0.1888  0.1820 -2.0422
 8951SOL    HW227219   5.912   4.017   5.261 -1.5741 -0.9978 -1.7887
 8952SOL     OW27220   1.726   1.953   0.439  0.8957 -0.5588 -0.2807
 8952SOL    HW127221   1.735   2.028   0.381  1.4548 -0.8189 -0.5390
 8952SOL    HW227222   1.745   1.877   0.384  1.1097 -0.8333  0.1603
 8953SOL     OW27223   3.450   1.242   3.054  0.1181 -0.0423 -0.0900
 8953SOL    HW127224   3.404   1.164   3.021 -0.8107  0.0325  0.9801
 8953SOL    HW227225   3.521   1.256   2.991 -0.9296 -0.5465 -1.4221
 8954SOL     OW27226   0.848   6.753   1.078  0.3404  0.4400  0.0755
 8954SOL    HW127227   0.868   6.841   1.109  1.3072  1.0450 -2.0512
 8954SOL    HW227228   0.861   6.697   1.154  1.4843  1.9344  1.0328
 8955SOL     OW27229   4.398   0.043   2.209 -0.4267 -0.3787  0.1801
 8955SOL    HW127230   4.338  -0.021   2.170  2.1195 -2.2898 -0.8772
 8955SOL    HW227231   4.398   0.021   2.302 -0.2211 -1.3841 -0.0481
 8956SOL     OW27232   5.035   0.479   2.469 -0.0689 -0.1816  0.0276
 8956SOL    HW127233   4.973   0.520   2.409  1.5316 -0.0492 -1.6409
 8956SOL    HW227234   5.119   0.520   2.449  1.1957 -2.6616 -0.1890
 8957SOL     OW27235   4.300   6.064   2.304  0.1110 -0.2246 -0.2487
 8957SOL    HW127236   4.254   6.080   2.222 -0.2024  0.7098  0.0898
 8957SOL    HW227237   4.314   5.970   2.306  0.1016 -0.2676 -1.3590
 8958SOL     OW27238   6.125   5.920   6.177 -0.3266  0.0707 -0.2975
 8958SOL    HW127239   6.063   5.877   6.236 -0.9690 -0.4929 -1.3638
 8958SOL    HW227240   6.201   5.938   6.233 -2.0676  2.4339  1.5101
 8959SOL     OW27241   3.597   0.254   0.884 -0.4333  0.2186  0.1722
 8959SOL    HW127242   3.602   0.162   0.861  0.5145  0.5721 -1.1565
 8959SOL    HW227243   3.662   0.265   0.953  0.9175  0.2392 -1.0401
 8960SOL     OW27244   2.246   3.910   6.720 -0.7125 -0.0715  0.1219
 8960SOL    HW127245   2.339   3.932   6.727 -0.7881  0.4213 -0.3451
 8960SOL    HW227246   2.217   3.954   6.640 -1.7344  1.1795  1.1478
 8961SOL     OW27247   0.555   6.744   1.551  0.2553  0.3839 -0.0510
 8961SOL    HW127248   0.473   6.695   1.543  0.9631 -0.6459 -1.3117
 8961SOL    HW227249   0.620   6.679   1.578  1.3731  0.3982 -2.4952
 8962SOL     OW27250   3.593   3.841   4.166  0.6128  0.0872  0.1252
 8962SOL    HW127251   3.632   3.754   4.155 -0.5435 -0.2515 -1.8045
 8962SOL    HW227252   3.541   3.834   4.246  0.0278 -1.2182 -0.3411
 8963SOL     OW27253   3.340   3.982   1.664  0.5469 -0.2317 -0.3848
 8963SOL    HW127254   3.373   3.924   1.595  0.3852 -1.6034  0.6612
 8963SOL    HW227255   3.245   3.971   1.660  0.4161  0.9465 -0.9945
 8964SOL     OW27256   4.319   4.806   1.083 -0.7236 -0.3180  0.1289
 8964SOL    HW127257   4.328   4.889   1.037 -1.0423 -0.8721 -0.9629
 8964SOL    HW227258   4.382   4.811   1.155 -0.3827  0.6524 -0.2313
 8965SOL     OW27259   1.981   4.722   5.298  0.1465 -0.7123  0.2012
 8965SOL    HW127260   1.917   4.650   5.293 -1.3641  0.5759  0.0649
 8965SOL    HW227261   2.053   4.686   5.349 -0.6012 -2.2987  0.2177
 8966SOL     OW27262   1.650   2.172   5.714  0.2629  0.0066 -0.4819
 8966SOL    HW127263   1.724   2.231   5.698  0.2297  0.3145  0.4513
 8966SOL    HW227264   1.623   2.191   5.803  0.6876 -1.9175  0.0964
 8967SOL     OW27265   3.837   0.269   5.547 -0.6587  0.0215 -0.0509
 8967SOL    HW127266   3.816   0.220   5.626  0.2027  0.5065  0.4865
 8967SOL    HW227267   3.872   0.203   5.486  1.1538  0.0281  0.9124
 8968SOL     OW27268   2.142   4.142   1.193 -0.0196 -0.5952 -0.1753
 8968SOL    HW127269   2.074   4.098   1.244 -0.2879 -0.7809 -0.6850
 8968SOL    HW227270   2.190   4.070   1.150 -0.2501 -0.4056 -0.7498
 8969SOL     OW27271   1.134   3.523   6.459  0.4895  0.0010 -0.0171
 8969SOL    HW127272   1.143   3.587   6.530 -1.4956  0.0803  0.2177
 8969SOL    HW227273   1.128   3.577   6.380  1.8852 -0.0573 -0.1897
 8970SOL     OW27274   1.541   4.769   1.546 -0.7957  0.0987  0.1465
 8970SOL    HW127275   1.583   4.826   1.610 -0.4321 -0.6431  0.5865
 8970SOL    HW227276   1.452   4.804   1.537 -1.0325 -0.1138  1.4874
 8971SOL     OW27277   5.951   3.813   2.610 -0.4390 -0.1383 -0.0371
 8971SOL    HW127278   5.976   3.892   2.658 -0.7078  0.8827 -1.5137
 8971SOL    HW227279   5.872   3.782   2.654  0.5389 -0.5257  1.5429
 8972SOL     OW27280   5.066   3.884   5.249  0.2881 -0.1824 -0.0753
 8972SOL    HW127281   5.132   3.937   5.293  0.2714 -1.6457  1.8294
 8972SOL    HW227282   5.035   3.823   5.316 -0.2998 -2.0296 -1.9075
 8973SOL     OW27283   4.929   6.315   1.258  0.9377  0.0552  0.4243
 8973SOL    HW127284   4.925   6.234   1.308  0.0193 -0.0778  0.1426
 8973SOL    HW227285   4.890   6.381   1.315 -1.3840 -0.3589 -0.5858
 8974SOL     OW27286   2.006   6.299   6.019  0.2613  0.4640  0.2528
 8974SOL    HW127287   1.980   6.391   6.023 -1.1575  0.0833  0.2632
 8974SOL    HW227288   1.928   6.250   6.046  1.1004 -0.7390  0.6269
 8975SOL     OW27289   0.529   0.883   6.005 -0.3073  0.4937  0.3291
 8975SOL    HW127290   0.470   0.809   6.022 -0.2195 -0.0500 -1.5805
 8975SOL    HW227291   0.591   0.880   6.078 -1.5234 -0.0330  1.3913
 8976SOL     OW27292   2.703   5.759   1.824  0.2214  0.8152 -0.3503
 8976SOL    HW127293   2.639   5.731   1.759  0.1406  1.1799 -0.4318
 8976SOL    HW227294   2.692   5.854   1.829 -1.8857  0.5362  2.3930
 8977SOL     OW27295   1.867   1.246   5.390 -0.1727 -0.3399 -0.2832
 8977SOL    HW127296   1.882   1.168   5.443 -1.6095 -0.3926  0.0830
 8977SOL    HW227297   1.946   1.254   5.336  0.0918 -1.9204 -0.1794
 8978SOL     OW27298   3.356   4.714   4.050  0.1474  0.3618  0.5222
 8978SOL    HW127299   3.386   4.641   4.103 -0.3400  0.1457  0.5071
 8978SOL    HW227300   3.261   4.703   4.046  0.3062 -0.5093 -1.7007
 8979SOL     OW27301   6.338   3.154   3.566  0.0000  0.3071 -0.1450
 8979SOL    HW127302   6.376   3.139   3.479 -1.3814  0.2911 -0.7820
 8979SOL    HW227303   6.251   3.115   3.560  0.2714 -0.6185  1.6055
 8980SOL     OW27304   1.860   2.975   5.514  0.1102 -0.5105 -0.3129
 8980SOL    HW127305   1.783   2.921   5.533 -1.0818  0.5360 -1.8967
 8980SOL    HW227306   1.901   2.932   5.439  1.1704 -1.1235  0.5890
 8981SOL     OW27307   5.433   0.594   5.025  0.2480 -0.0926 -0.0633
 8981SOL    HW127308   5.470   0.640   4.950  2.7914 -0.3885  0.8965
 8981SOL    HW227309   5.505   0.591   5.089 -1.0266 -2.0280  1.3978
 8982SOL     OW27310   2.191   0.492   5.332 -0.2469 -0.4262 -0.0758
 8982SOL    HW127311   2.115   0.506   5.276 -0.3552  0.8560  0.3434
 8982SOL    HW227312   2.261   0.543   5.291 -0.0585 -0.2902  0.4077
 8983SOL     OW27313   4.582   3.539   1.449  0.3462 -0.0177  0.5723
 8983SOL    HW127314   4.523   3.607   1.481  1.0636  1.3700 -0.9568
 8983SOL    HW227315   4.559   3.529   1.357  1.5566 -0.4940  0.3091
 8984SOL     OW27316   2.252   3.383   1.771 -0.3150 -0.0270  0.3366
 8984SOL    HW127317   2.203   3.301   1.776  0.2595 -0.4572 -0.6925
 8984SOL    HW227318   2.239   3.424   1.856 -2.1897 -0.2607  0.2075
 8985SOL     OW27319   2.041   5.096   2.657 -0.3264 -0.3464  0.3279
 8985SOL    HW127320   2.058   5.098   2.563 -0.9826 -0.2889  0.2006
 8985SOL    HW227321   2.101   5.161   2.694  1.1855 -1.6213  0.1835
 8986SOL     OW27322   4.899   1.870   2.585 -0.1021  0.0550  0.1662
 8986SOL    HW127323   4.961   1.798   2.574 -0.4942 -0.0361 -1.8104
 8986SOL    HW227324   4.880   1.900   2.496 -1.7610  1.0561  0.7964
 8987SOL     OW27325   6.139   3.736   6.777 -0.0909 -0.7544  0.0307
 8987SOL    HW127326   6.175   3.648   6.773 -1.6258 -1.3516 -1.3107
 8987SOL    HW227327   6.062   3.729   6.834  0.2029 -0.1079  0.5294
 8988SOL     OW27328   2.849   0.205   2.748 -0.2168 -0.9783  0.1915
 8988SOL    HW127329   2.807   0.266   2.808  1.6848 -0.0302  0.6483
 8988SOL    HW227330   2.882   0.135   2.804  1.8259  0.0585  0.3715
 8989SOL     OW27331   1.254   5.040   4.944  0.3053 -0.1269  0.2248
 8989SOL    HW127332   1.238   5.085   4.861  0.2238 -0.3770  0.1069
 8989SOL    HW227333   1.348   5.052   4.960  0.4520 -0.6666 -0.2412
 8990SOL     OW27334   6.500   1.708   4.713 -0.3471  0.5036  0.1778
 8990SOL    HW127335   6.502   1.760   4.632 -2.2079 -1.6301 -1.3738
 8990SOL    HW227336   6.540   1.624   4.688  1.0945  0.5333  2.1557
 8991SOL     OW27337   3.490   0.679   5.634 -0.4251 -0.1600  0.0130
 8991SOL    HW127338   3.550   0.629   5.689 -0.0941 -0.5620 -0.7045
 8991SOL    HW227339   3.528   0.675   5.547 -0.4396  1.2574 -0.0869
 8992SOL     OW27340   4.035   6.087   5.899  0.1163  0.1110  0.0262
 8992SOL    HW127341   3.946   6.123   5.898 -0.2290 -0.6985  0.6394
 8992SOL    HW227342   4.070   6.107   5.812 -0.5915  0.6088 -0.1537
 8993SOL     OW27343   5.119   4.436   6.187  0.1850  0.1571 -0.1757
 8993SOL    HW127344   5.164   4.355   6.163 -0.7411 -0.5399  0.3619
 8993SOL    HW227345   5.026   4.413   6.184 -0.0541  0.8872  1.0548
 8994SOL     OW27346   1.067   0.579   0.924  0.3239  0.3002 -0.2245
 8994SOL    HW127347   1.042   0.671   0.931 -1.7398 -0.3261  1.9819
 8994SOL    HW227348   0.984   0.531   0.923  1.3298 -1.6559  1.6506
 8995SOL     OW27349   6.216   0.389   6.009 -0.2313 -0.6234  0.1629
 8995SOL    HW127350   6.176   0.401   5.922  0.6963  2.8619  0.0521
 8995SOL    HW227351   6.143   0.367   6.066 -1.4396  0.3694 -0.9338
 8996SOL     OW27352   6.514   2.153   2.237  0.3584  0.5156 -0.2845
 8996SOL    HW127353   6.499   2.121   2.148  1.9336  0.0319 -0.4059
 8996SOL    HW227354   6.505   2.248   2.231 -2.0227  0.3227 -0.4145
 8997SOL     OW27355   6.267   2.134   6.388 -0.6585  0.5532  0.2733
 8997SOL    HW127356   6.311   2.052   6.411 -0.3326  0.6880  0.1408
 8997SOL    HW227357   6.178   2.124   6.422 -1.0134 -0.3921 -0.8653
 8998SOL     OW27358   3.758   1.336   5.347  0.3338 -0.0475  0.4398
 8998SOL    HW127359   3.724   1.304   5.263 -2.4353 -0.9481  1.7543
 8998SOL    HW227360   3.782   1.256   5.394 -0.1379  0.2691  1.2372
 8999SOL     OW27361   4.546   3.314   3.546  0.6654 -0.4854  0.2323
 8999SOL    HW127362   4.484   3.369   3.592  1.3211  1.3929 -1.0168
 8999SOL    HW227363   4.492   3.246   3.504 -0.1212 -1.0037  2.0025
 9000SOL     OW27364   6.716   6.367   6.173 -0.8038  0.2325 -0.2656
 9000SOL    HW127365   6.690   6.458   6.160 -0.2692  0.2117 -1.7431
 9000SOL    HW227366   6.802   6.372   6.215 -0.2046  0.4681 -1.4698
 9001SOL     OW27367   0.015   1.726   2.396  0.0274 -0.0960  0.3112
 9001SOL    HW127368   0.016   1.652   2.457  1.4168 -0.0380  0.3825
 9001SOL    HW227369   0.105   1.733   2.365 -0.8327 -0.8476 -2.6992
 9002SOL     OW27370   0.657   1.500   4.036 -0.2009  0.3400  0.0254
 9002SOL    HW127371   0.663   1.481   4.130 -1.3855 -1.7386 -0.2578
 9002SOL    HW227372   0.572   1.542   4.025 -0.4092 -0.1350 -0.2084
 9003SOL     OW27373   1.826   5.746   4.494 -0.8746 -0.5360 -0.0122
 9003SOL    HW127374   1.835   5.655   4.466  0.2401 -0.0856 -1.1896
 9003SOL    HW227375   1.796   5.740   4.585  0.1377 -2.0885  0.2606
 9004SOL     OW27376   1.036   6.249   1.093  0.6462 -0.2547 -0.1125
 9004SOL    HW127377   0.948   6.279   1.071  0.2792 -1.1565  0.0677
 9004SOL    HW227378   1.078   6.324   1.135 -0.7433 -0.4351  1.7263
 9005SOL     OW27379   3.210   3.699   2.355  0.3755  0.3926 -0.1528
 9005SOL    HW127380   3.234   3.662   2.271  2.4398 -0.4170  0.7089
 9005SOL    HW227381   3.159   3.631   2.398  1.7890 -0.4119  0.3327
 9006SOL     OW27382   2.117   2.409   0.133  0.5952  0.0441 -0.4665
 9006SOL    HW127383   2.170   2.360   0.070  0.4131  0.7569 -1.1862
 9006SOL    HW227384   2.033   2.422   0.089 -0.0511 -0.7006  0.4950
 9007SOL     OW27385   1.701   6.776   5.504  0.5493 -0.7023 -0.0357
 9007SOL    HW127386   1.653   6.714   5.448  0.5951 -0.8445  0.0820
 9007SOL    HW227387   1.634   6.835   5.537  0.6114 -0.1951 -0.7841
 9008SOL     OW27388   5.469   5.619   3.535 -0.7181  0.2647  0.3669
 9008SOL    HW127389   5.517   5.662   3.464  1.1321 -0.6737  1.0011
 9008SOL    HW227390   5.409   5.560   3.490 -0.0698  0.2031 -0.4421
 9009SOL     OW27391   4.186   0.471   1.429 -0.0881  0.3222 -0.0432
 9009SOL    HW127392   4.269   0.482   1.383  0.5839 -0.9164  0.8074
 9009SOL    HW227393   4.210   0.469   1.522 -1.1415  0.5333  0.2450
 9010SOL     OW27394   1.277   3.697   3.562  0.1192 -0.1818  0.1037
 9010SOL    HW127395   1.233   3.619   3.529  0.4326  0.0231 -0.8181
 9010SOL    HW227396   1.205   3.755   3.589 -0.1605 -0.1873 -0.6122
 9011SOL     OW27397   6.271   1.066   4.724 -0.0359 -0.4898 -0.3867
 9011SOL    HW127398   6.272   0.972   4.739  0.6105 -0.5676 -0.8427
 9011SOL    HW227399   6.179   1.088   4.712 -0.4068 -0.7442  1.5507
 9012SOL     OW27400   2.693   0.908   4.754  0.5106 -0.4504 -0.5757
 9012SOL    HW127401   2.742   0.975   4.708 -0.2982 -0.0380 -0.8478
 9012SOL    HW227402   2.750   0.830   4.751  1.0129 -0.0676 -1.1349
 9013SOL     OW27403   2.907   0.299   1.536  0.2154 -0.2482  0.2885
 9013SOL    HW127404   2.894   0.262   1.449  0.0708 -0.8169  0.5451
 9013SOL    HW227405   2.992   0.342   1.532 -0.3569  0.8701 -0.5178
 9014SOL     OW27406   3.776   6.035   2.940  1.1946 -0.1353 -0.0773
 9014SOL    HW127407   3.754   6.125   2.915 -1.9318 -0.3269  1.3885
 9014SOL    HW227408   3.764   5.984   2.860 -0.6095  0.3428 -0.1675
 9015SOL     OW27409   2.689   1.804   4.798  0.4435 -0.0326  0.3490
 9015SOL    HW127410   2.611   1.859   4.786 -1.2476 -1.9048  1.8980
 9015SOL    HW227411   2.757   1.864   4.826 -0.2334  1.7760 -1.6395
 9016SOL     OW27412   4.046   1.933   2.199  0.7004  0.3160 -0.2592
 9016SOL    HW127413   3.954   1.961   2.195  0.7764  0.4661 -2.1874
 9016SOL    HW227414   4.049   1.871   2.272 -0.7121  1.0588  0.4748
 9017SOL     OW27415   6.484   3.635   6.604  0.5078 -0.2287  0.1737
 9017SOL    HW127416   6.449   3.719   6.634 -0.7728  0.4066 -2.6959
 9017SOL    HW227417   6.522   3.595   6.682  0.5852  2.7180  1.7966
 9018SOL     OW27418   1.851   6.316   0.470  0.0993  0.3232  0.2775
 9018SOL    HW127419   1.931   6.350   0.512  1.2282 -0.7651 -0.9101
 9018SOL    HW227420   1.852   6.223   0.491 -1.2769  0.4286  0.8644
 9019SOL     OW27421   1.826   1.732   1.425 -0.5191 -0.1971 -0.3382
 9019SOL    HW127422   1.794   1.815   1.461  1.8447  0.4689  0.3994
 9019SOL    HW227423   1.853   1.753   1.336 -0.3782 -0.3013 -0.3200
 9020SOL     OW27424   2.925   3.941   3.268 -0.3365  0.4350 -0.1072
 9020SOL    HW127425   2.920   4.013   3.331 -0.2594  0.4424 -0.1099
 9020SOL    HW227426   2.921   3.984   3.182 -0.5017  0.4208 -0.1074
 9021SOL     OW27427   1.556   0.757   4.389  0.3461 -0.1570 -0.2534
 9021SOL    HW127428   1.488   0.811   4.348  0.0581  0.0532  0.4745
 9021SOL    HW227429   1.515   0.672   4.403 -0.4187  0.4669  1.8007
 9022SOL     OW27430   0.036   5.061   0.480 -0.1984 -0.0530 -0.0472
 9022SOL    HW127431   0.116   5.111   0.496 -0.9830  2.3186 -2.6539
 9022SOL    HW227432   0.059   5.003   0.407 -0.3989 -0.5956  0.3190
 9023SOL     OW27433   5.014   3.482   2.100 -0.0321 -0.4204  0.3688
 9023SOL    HW127434   4.998   3.576   2.096  2.1527  0.0509  1.0150
 9023SOL    HW227435   5.053   3.468   2.186  2.2148 -1.4058 -0.7146
 9024SOL     OW27436   4.247   3.119   2.904 -0.1107 -0.2628 -0.0559
 9024SOL    HW127437   4.216   3.135   2.993  0.7168  1.3793 -0.0259
 9024SOL    HW227438   4.209   3.190   2.852  2.3094  0.9462 -0.2925
 9025SOL     OW27439   4.820   6.565   6.626  0.1500  0.6944  1.0301
 9025SOL    HW127440   4.831   6.481   6.581  1.7427  0.7497  1.2495
 9025SOL    HW227441   4.735   6.559   6.668  0.0406 -0.6363  0.6578
 9026SOL     OW27442   1.445   3.755   2.481  0.0120  0.3019  0.0891
 9026SOL    HW127443   1.540   3.759   2.493  0.4974  0.5079 -3.0636
 9026SOL    HW227444   1.422   3.841   2.446 -1.0426 -0.3224 -0.7925
 9027SOL     OW27445   5.259   4.105   0.003  0.0225 -0.1135 -0.2326
 9027SOL    HW127446   5.312   4.075   0.077 -1.3706 -0.8745  0.4902
 9027SOL    HW227447   5.284   4.047  -0.069  1.1242  0.3958 -0.2782
 9028SOL     OW27448   4.604   5.537   5.327  0.3641 -0.5650 -0.4504
 9028SOL    HW127449   4.635   5.527   5.417 -0.3408 -0.7215 -0.2241
 9028SOL    HW227450   4.636   5.458   5.283  2.8693  0.6355 -0.9874
 9029SOL     OW27451   4.645   2.361   3.550  0.1678  0.5716  0.3142
 9029SOL    HW127452   4.682   2.324   3.630 -1.2123  0.4293  0.9241
 9029SOL    HW227453   4.603   2.286   3.507 -0.7898  1.0164  0.4661
 9030SOL     OW27454   1.802   0.623   5.782  0.7080 -0.2434  0.2800
 9030SOL    HW127455   1.724   0.567   5.778 -0.3453  1.2035 -0.6520
 9030SOL    HW227456   1.774   0.697   5.836  1.5026  0.2386  0.0402
 9031SOL     OW27457   6.572   0.396   6.295 -0.2121  0.3595  0.1367
 9031SOL    HW127458   6.565   0.302   6.316  1.5685  0.3698  0.9762
 9031SOL    HW227459   6.516   0.439   6.359  1.2478  0.0321  1.6883
 9032SOL     OW27460   5.927   4.885   2.256  0.2198  0.2966 -0.5004
 9032SOL    HW127461   5.933   4.790   2.245  0.8354  0.2492  0.1734
 9032SOL    HW227462   5.835   4.901   2.277  0.0485 -0.1131 -0.9214
 9033SOL     OW27463   1.050   0.469   6.460  0.2341  0.0231  0.4367
 9033SOL    HW127464   1.083   0.420   6.385  0.8399  1.1168 -0.0283
 9033SOL    HW227465   1.009   0.547   6.422  0.3559  0.4841  1.2318
 9034SOL     OW27466   2.134   6.643   6.243 -0.0910 -0.3040  0.0210
 9034SOL    HW127467   2.137   6.561   6.292  0.8072  0.2680  0.9638
 9034SOL    HW227468   2.172   6.708   6.302  1.2523  0.3788 -1.5177
 9035SOL     OW27469   3.332   0.107   3.244 -0.1538  1.0138  0.0566
 9035SOL    HW127470   3.355   0.188   3.288  0.9948  0.7647 -0.0447
 9035SOL    HW227471   3.322   0.043   3.315  0.5008  0.8892  0.0413
 9036SOL     OW27472   4.190   1.306   2.359 -0.1363  0.2450 -0.6455
 9036SOL    HW127473   4.199   1.324   2.265  0.1204  0.8833 -0.5043
 9036SOL    HW227474   4.172   1.212   2.364 -0.2718  0.2285 -1.3418
 9037SOL     OW27475   1.938   0.722   5.378  0.0022  0.0800  0.0180
 9037SOL    HW127476   1.980   0.638   5.361  0.1745  0.5353 -2.1052
 9037SOL    HW227477   1.991   0.761   5.448 -0.0400 -1.5182  0.9861
 9038SOL     OW27478   5.846   1.463   5.264 -0.4580  0.0069 -0.5776
 9038SOL    HW127479   5.918   1.489   5.206 -0.6776  1.5562 -0.2097
 9038SOL    HW227480   5.793   1.404   5.211  2.2083 -3.0293 -0.1623
 9039SOL     OW27481   2.055   5.111   1.918 -0.2696  0.3013 -0.3010
 9039SOL    HW127482   2.037   5.072   1.832  0.6382  3.1847 -1.9409
 9039SOL    HW227483   2.141   5.077   1.942 -0.4005 -0.3127 -0.6721
 9040SOL     OW27484   4.791   3.460   2.673  0.0492 -0.5193  0.0784
 9040SOL    HW127485   4.763   3.519   2.743 -1.8502 -1.8959  0.5470
 9040SOL    HW227486   4.880   3.433   2.698 -0.3978 -0.5788  1.6994
 9041SOL     OW27487   3.216   6.403   4.890  1.1789  0.3854  0.2177
 9041SOL    HW127488   3.291   6.344   4.892  1.1202  0.3183  1.5995
 9041SOL    HW227489   3.245   6.480   4.941 -0.0788 -0.1785  1.8793
 9042SOL     OW27490   4.387   3.317   1.575 -0.0450  0.4670  0.6560
 9042SOL    HW127491   4.431   3.395   1.542 -1.3050  0.0432 -2.3519
 9042SOL    HW227492   4.312   3.350   1.625 -0.0386  1.1851  0.1955
 9043SOL     OW27493   4.872   1.793   0.776  0.1093  0.3755  0.4053
 9043SOL    HW127494   4.876   1.889   0.775 -1.2573  0.4523  0.9470
 9043SOL    HW227495   4.963   1.765   0.762  0.7248  1.7540  1.4603
 9044SOL     OW27496   4.157   5.380   2.897  0.3724 -0.2079 -0.0729
 9044SOL    HW127497   4.132   5.303   2.949  0.0934 -0.1230 -0.0799
 9044SOL    HW227498   4.117   5.453   2.943 -0.1630 -0.1680 -0.5995
 9045SOL     OW27499   3.797   4.062   0.627 -0.1119 -0.3955 -0.2281
 9045SOL    HW127500   3.826   4.056   0.536  0.0309 -1.8247 -0.1120
 9045SOL    HW227501   3.745   3.983   0.641 -1.1657  0.4021  0.5929
 9046SOL     OW27502   3.512   5.361   5.512  0.2470  0.4372  0.7861
 9046SOL    HW127503   3.564   5.286   5.539 -0.8692  0.1474  2.2495
 9046SOL    HW227504   3.422   5.329   5.512  0.0469  0.7092 -2.4416
 9047SOL     OW27505   1.086   0.262   6.208  0.0622 -0.1135 -0.0963
 9047SOL    HW127506   1.169   0.308   6.190 -0.1070  0.0175 -0.5461
 9047SOL    HW227507   1.021   0.308   6.155 -0.3354 -0.1089  0.3826
 9048SOL     OW27508   4.207   1.301   2.969 -0.3940 -0.4835 -0.0562
 9048SOL    HW127509   4.184   1.393   2.956  0.6138 -0.5550 -3.0939
 9048SOL    HW227510   4.266   1.301   3.045 -0.5458  1.3438  0.0955
 9049SOL     OW27511   1.023   6.562   0.296 -0.4519  0.0586 -0.1950
 9049SOL    HW127512   1.072   6.532   0.372  1.6178  2.3481 -0.4930
 9049SOL    HW227513   0.984   6.645   0.323  1.4467  1.6296 -1.8808
 9050SOL     OW27514   3.130   0.681   4.211  0.3272 -0.1998  0.4191
 9050SOL    HW127515   3.053   0.678   4.154  0.3679 -1.6402  0.4035
 9050SOL    HW227516   3.094   0.697   4.298  0.0227 -0.5755  0.3666
 9051SOL     OW27517   1.459   1.602   6.468 -0.1403  0.1673 -0.8718
 9051SOL    HW127518   1.543   1.646   6.458  1.8646 -3.4233 -1.2905
 9051SOL    HW227519   1.435   1.576   6.379 -0.6613 -0.6013 -0.5190
 9052SOL     OW27520   2.219   4.893   2.038 -0.0919  0.1460 -0.1788
 9052SOL    HW127521   2.165   4.845   1.974 -0.4218  1.5620 -0.9977
 9052SOL    HW227522   2.250   4.825   2.098 -0.7982 -1.0519 -1.1126
 9053SOL     OW27523   2.162   4.442   5.246 -0.0724  0.3105 -0.7853
 9053SOL    HW127524   2.166   4.506   5.317 -0.3006 -2.0664  1.5275
 9053SOL    HW227525   2.224   4.374   5.272  0.0675 -0.5243 -3.0824
 9054SOL     OW27526   6.602   0.388   4.312  0.4119  0.4436 -0.5990
 9054SOL    HW127527   6.563   0.471   4.339 -3.2321 -1.0104 -0.8282
 9054SOL    HW227528   6.589   0.330   4.387 -2.3155 -1.3624 -2.2864
 9055SOL     OW27529   5.582   3.069   6.434  0.2630 -0.6478 -0.0159
 9055SOL    HW127530   5.516   3.112   6.380  0.0641  1.4785  1.7661
 9055SOL    HW227531   5.532   3.016   6.496  0.3635 -0.9931 -0.2267
 9056SOL     OW27532   3.806   3.270   1.194  0.1559 -0.6311  0.3339
 9056SOL    HW127533   3.797   3.308   1.282 -1.9685  0.5046 -0.2865
 9056SOL    HW227534   3.747   3.194   1.195  0.4933 -0.9038  0.0156
 9057SOL     OW27535   5.158   3.149   0.699 -0.4947  0.0425 -0.0615
 9057SOL    HW127536   5.164   3.230   0.750 -1.7783  1.1633 -1.6029
 9057SOL    HW227537   5.245   3.110   0.706 -0.3952  0.5618  2.2708
 9058SOL     OW27538   6.462   3.219   0.607  0.5709  0.6649 -0.8133
 9058SOL    HW127539   6.554   3.243   0.620  0.7995  1.0585 -2.8226
 9058SOL    HW227540   6.447   3.233   0.514 -0.8373 -1.7614 -1.0448
 9059SOL     OW27541   4.506   6.584   5.794 -0.3498  0.2292 -0.0144
 9059SOL    HW127542   4.583   6.535   5.824  0.1913  1.1318  0.1145
 9059SOL    HW227543   4.496   6.655   5.857 -0.5956  0.7850 -0.6610
 9060SOL     OW27544   4.850   6.775   4.983  0.0083  0.4531 -0.2694
 9060SOL    HW127545   4.880   6.700   5.035 -1.4635  0.3081  0.4096
 9060SOL    HW227546   4.837   6.845   5.047 -1.2159  0.4668 -0.5171
 9061SOL     OW27547   6.424   0.467   3.638  0.3194  0.2250  0.5277
 9061SOL    HW127548   6.379   0.412   3.702  1.3324  0.7574  1.7200
 9061SOL    HW227549   6.354   0.512   3.591 -0.4419 -0.3112  1.1304
 9062SOL     OW27550   3.071   6.232   3.062  0.2646  0.1072  0.1873
 9062SOL    HW127551   3.084   6.326   3.069  0.7369 -0.0333  1.2814
 9062SOL    HW227552   3.159   6.196   3.051  0.0893 -0.2116 -0.1943
 9063SOL     OW27553   1.521   3.159   4.653  0.5774  0.1237  0.4593
 9063SOL    HW127554   1.465   3.082   4.664 -1.6277  1.1711 -2.1530
 9063SOL    HW227555   1.500   3.215   4.728 -0.3151 -0.4266  0.6370
 9064SOL     OW27556   2.090   6.695   4.858  0.4120  0.0339 -0.3332
 9064SOL    HW127557   2.004   6.731   4.838  1.3303  1.7324 -1.5003
 9064SOL    HW227558   2.105   6.629   4.789 -0.4041 -1.1333  0.5699
 9065SOL     OW27559   0.370   5.103   1.765  0.5999 -0.1189 -0.9238
 9065SOL    HW127560   0.384   5.178   1.706  0.7407  0.3258 -0.3339
 9065SOL    HW227561   0.457   5.081   1.797  0.3926  0.4536  0.0873
 9066SOL     OW27562   1.883   1.725   6.281  0.6031  0.6328 -0.6430
 9066SOL    HW127563   1.964   1.766   6.311 -0.0693  1.1746  0.5022
 9066SOL    HW227564   1.825   1.728   6.357 -0.1383 -0.7054 -1.1207
 9067SOL     OW27565   0.753   0.877   1.553 -0.0592 -0.1417  0.9750
 9067SOL    HW127566   0.715   0.792   1.531 -0.2472  0.1708  0.0533
 9067SOL    HW227567   0.794   0.863   1.638 -0.9569 -0.8804  1.3070
 9068SOL     OW27568   1.056   1.310   0.021  0.4470 -0.1165  0.5015
 9068SOL    HW127569   1.072   1.363   0.100 -1.1940 -0.6557  1.2398
 9068SOL    HW227570   1.107   1.230   0.035  1.8239  0.6424  0.0227
 9069SOL     OW27571   1.730   3.825   2.488 -0.1508  0.0026 -0.3039
 9069SOL    HW127572   1.805   3.856   2.539 -0.4844  0.6176 -0.1809
 9069SOL    HW227573   1.741   3.863   2.401  0.0330 -0.4583 -0.4877
 9070SOL     OW27574   1.172   0.569   3.659  0.0004  0.0772 -0.3993
 9070SOL    HW127575   1.262   0.558   3.688  0.0832  0.4351 -0.5183
 9070SOL    HW227576   1.131   0.624   3.725  0.3534  1.3999 -1.2486
 9071SOL     OW27577   5.668   1.025   6.059 -0.2910 -1.1075 -0.1118
 9071SOL    HW127578   5.635   0.945   6.017 -1.0930 -0.3339 -1.0049
 9071SOL    HW227579   5.678   1.087   5.987  0.0299 -0.3020  0.6139
 9072SOL     OW27580   2.830   0.941   5.762  0.7467 -0.1964 -0.1443
 9072SOL    HW127581   2.768   0.972   5.695 -0.9469 -0.9067  1.0082
 9072SOL    HW227582   2.838   1.014   5.823  2.1676  0.3946 -1.0119
 9073SOL     OW27583   3.927   3.101   4.726  0.2754 -0.1286  0.4511
 9073SOL    HW127584   3.866   3.138   4.789 -0.4400  0.2046 -0.4098
 9073SOL    HW227585   3.987   3.174   4.706 -1.7378  1.0240 -2.0046
 9074SOL     OW27586   3.779   6.288   4.570  0.0980 -0.0645 -0.1823
 9074SOL    HW127587   3.841   6.261   4.502 -0.3770  0.1544 -0.7154
 9074SOL    HW227588   3.701   6.315   4.521 -0.9333 -1.5963  0.5024
 9075SOL     OW27589   4.109   1.854   0.850  0.4189 -0.5856 -0.4127
 9075SOL    HW127590   4.119   1.906   0.929  0.1746  0.8943 -1.3087
 9075SOL    HW227591   4.195   1.815   0.836  0.3479 -1.1893  0.7888
 9076SOL     OW27592   1.200   3.581   4.014  0.4763 -0.4326  0.1900
 9076SOL    HW127593   1.219   3.635   4.091 -0.9318 -1.4011  1.2689
 9076SOL    HW227594   1.196   3.643   3.942  0.0166  0.7748  1.2106
 9077SOL     OW27595   2.303   1.555   4.526  0.4565  0.3120 -0.0942
 9077SOL    HW127596   2.293   1.632   4.582  2.7583  0.4970  0.1869
 9077SOL    HW227597   2.291   1.481   4.585  0.6812  0.4884  0.1747
 9078SOL     OW27598   1.112   6.352   6.462  0.1165 -0.0927 -0.1148
 9078SOL    HW127599   1.154   6.315   6.384  0.7586  1.4821 -0.5463
 9078SOL    HW227600   1.111   6.279   6.524  1.7938 -0.7348 -0.7622
 9079SOL     OW27601   6.544   1.293   1.361 -0.0789 -0.3725  0.3003
 9079SOL    HW127602   6.533   1.263   1.451 -0.7527 -0.9791  0.0281
 9079SOL    HW227603   6.539   1.388   1.366  0.6819 -0.3594  1.0017
 9080SOL     OW27604   4.319   4.384   0.225  0.0150  0.2719  0.1904
 9080SOL    HW127605   4.336   4.474   0.199  0.0595  0.4908  0.9500
 9080SOL    HW227606   4.403   4.353   0.259 -0.1231  0.1064  0.3835
 9081SOL     OW27607   2.521   4.701   6.246 -0.3269 -0.0743 -0.2476
 9081SOL    HW127608   2.432   4.701   6.281  0.2507  0.9023  1.2996
 9081SOL    HW227609   2.570   4.645   6.305  0.0937 -0.6724 -1.1409
 9082SOL     OW27610   3.706   0.873   0.528  0.1010 -0.1505  0.5421
 9082SOL    HW127611   3.672   0.877   0.617 -0.9708  2.2100  0.0928
 9082SOL    HW227612   3.631   0.848   0.474  0.5923 -0.9567  0.2036
 9083SOL     OW27613   3.954   0.855   5.813  0.1839  0.0252  0.0583
 9083SOL    HW127614   3.916   0.797   5.879  0.4484 -0.7203 -0.4318
 9083SOL    HW227615   3.942   0.943   5.848 -2.7768 -0.0719 -0.4363
 9084SOL     OW27616   4.504   2.682   5.657  0.6907 -0.5409  0.1113
 9084SOL    HW127617   4.509   2.602   5.708 -1.2848 -1.6820 -1.3395
 9084SOL    HW227618   4.557   2.665   5.579  0.0469 -0.5628 -0.3301
 9085SOL     OW27619   2.911   1.438   1.531  0.1745  0.5545  0.6018
 9085SOL    HW127620   2.900   1.378   1.457  1.6107  1.2057 -0.1879
 9085SOL    HW227621   2.828   1.434   1.578 -0.5911 -0.2657 -0.7638
 9086SOL     OW27622   3.321   4.169   4.006  0.2077 -0.5657  0.5006
 9086SOL    HW127623   3.317   4.252   3.959 -0.5096 -0.3716  0.8904
 9086SOL    HW227624   3.414   4.158   4.028  0.4304 -0.2754 -0.2622
 9087SOL     OW27625   6.765   4.983   3.198 -0.1355  0.0517 -0.3923
 9087SOL    HW127626   6.816   4.962   3.277  0.2294 -0.3893 -0.7407
 9087SOL    HW227627   6.778   4.907   3.141 -0.3865  0.3789 -0.8832
 9088SOL     OW27628   4.891   3.204   5.314 -0.3197 -0.4038 -0.8427
 9088SOL    HW127629   4.906   3.151   5.236  0.5149 -1.3331 -0.0876
 9088SOL    HW227630   4.803   3.180   5.343 -1.2980  1.1290 -2.3436
 9089SOL     OW27631   0.113   5.838   1.034  0.6465 -0.3269 -0.3257
 9089SOL    HW127632   0.116   5.911   1.096  1.0983  0.3442 -1.1176
 9089SOL    HW227633   0.195   5.791   1.047 -0.5797 -2.0637  1.7533
 9090SOL     OW27634   5.546   5.080   6.358 -0.4904  0.1591  0.6890
 9090SOL    HW127635   5.561   5.022   6.433  1.7680  1.1881  1.1236
 9090SOL    HW227636   5.565   5.025   6.282 -0.4325 -0.2411  0.9858
 9091SOL     OW27637   6.435   3.813   1.288  0.1591 -0.3315  0.5916
 9091SOL    HW127638   6.418   3.730   1.245 -1.1587 -0.3938  1.1821
 9091SOL    HW227639   6.523   3.838   1.259 -0.6939 -0.2755 -2.2857
 9092SOL     OW27640   0.989   2.639   4.045 -0.3450 -0.2034 -0.0620
 9092SOL    HW127641   1.050   2.587   4.097 -1.5181 -2.7733 -1.0893
 9092SOL    HW227642   1.035   2.656   3.963 -0.6139 -1.3207 -0.4636
 9093SOL     OW27643   6.146   1.970   3.584 -0.6135 -0.2813  0.6185
 9093SOL    HW127644   6.154   1.938   3.674 -0.6687 -0.7908  0.4486
 9093SOL    HW227645   6.146   2.065   3.592  1.0511 -0.2895  1.0058
 9094SOL     OW27646   3.513   1.475   5.419  0.0488  0.3148 -0.2689
 9094SOL    HW127647   3.536   1.561   5.384  0.5579  1.3745  2.4234
 9094SOL    HW227648   3.596   1.426   5.420 -0.1164 -0.0087 -1.1839
 9095SOL     OW27649   3.134   0.399   2.721  0.0643  1.0739 -0.0086
 9095SOL    HW127650   3.067   0.392   2.652  0.8964 -0.5245 -0.7126
 9095SOL    HW227651   3.188   0.473   2.694  0.3490  0.5035 -1.0903
 9096SOL     OW27652   1.944   1.522   6.090  0.2303  0.5272 -0.4864
 9096SOL    HW127653   1.893   1.577   6.150  0.6081  1.3456 -0.8932
 9096SOL    HW227654   1.967   1.581   6.018  1.3563  0.0599 -0.5289
 9097SOL     OW27655   6.286   2.621   0.351 -1.0308 -0.0352  0.1835
 9097SOL    HW127656   6.321   2.541   0.312  0.4430  0.2633  0.8083
 9097SOL    HW227657   6.360   2.682   0.350 -1.6703  0.7932  1.1590
 9098SOL     OW27658   5.468   1.436   3.941 -0.1727 -0.4316  0.5248
 9098SOL    HW127659   5.505   1.421   4.028  0.3869 -0.6895  0.2436
 9098SOL    HW227660   5.542   1.466   3.887 -0.7312  0.8270  0.4063
 9099SOL     OW27661   4.711   0.226   5.995 -0.1304  0.2924  0.0452
 9099SOL    HW127662   4.750   0.305   5.957  0.4183  0.2710  0.5410
 9099SOL    HW227663   4.683   0.174   5.920  1.0608  0.1813 -0.3425
 9100SOL     OW27664   3.019   1.346   5.223 -0.2122  0.7146 -0.2977
 9100SOL    HW127665   3.007   1.270   5.167  1.0535  1.5186 -1.7330
 9100SOL    HW227666   2.956   1.410   5.190 -0.3544  0.7524  0.0419
 9101SOL     OW27667   6.456   0.591   1.550  0.0350  0.3752 -0.7986
 9101SOL    HW127668   6.455   0.686   1.541 -1.0442  0.5144  0.3923
 9101SOL    HW227669   6.371   0.563   1.514 -0.3119  0.0425  0.2317
 9102SOL     OW27670   5.210   3.192   1.609 -0.2075  0.2602  1.2433
 9102SOL    HW127671   5.122   3.196   1.647  0.1399 -0.0938  2.1191
 9102SOL    HW227672   5.240   3.282   1.607 -0.6083  0.3894  0.8885
 9103SOL     OW27673   3.844   5.283   4.555  0.2337 -0.1450 -0.5336
 9103SOL    HW127674   3.905   5.309   4.486 -0.5924 -1.9704 -2.0347
 9103SOL    HW227675   3.764   5.260   4.508 -0.4810 -1.0608  1.0670
 9104SOL     OW27676   0.582   1.909   1.512  0.5765 -0.0470 -0.0783
 9104SOL    HW127677   0.498   1.880   1.547 -0.1438  2.4110  0.4497
 9104SOL    HW227678   0.572   1.903   1.417 -0.3377  0.4664 -0.0320
 9105SOL     OW27679   0.990   6.324   0.457  0.7796 -1.0462  0.1882
 9105SOL    HW127680   0.924   6.321   0.527  0.9995 -0.6191  0.4162
 9105SOL    HW227681   0.974   6.245   0.406 -0.9706 -0.1561 -0.7174
 9106SOL     OW27682   5.678   2.765   1.379 -0.4445  0.1593  0.1934
 9106SOL    HW127683   5.658   2.675   1.352 -2.0879  0.5219  0.1295
 9106SOL    HW227684   5.594   2.810   1.380  0.3844  1.8101 -0.0817
 9107SOL     OW27685   3.434   0.742   4.528  0.4006 -0.0488 -0.2514
 9107SOL    HW127686   3.405   0.810   4.467 -1.1764 -1.5525 -1.2820
 9107SOL    HW227687   3.521   0.716   4.495  0.1402  0.0777 -1.0596
 9108SOL     OW27688   4.766   5.171   6.612 -0.8035  0.0955  0.0837
 9108SOL    HW127689   4.846   5.184   6.560 -0.2701  0.0948  0.8824
 9108SOL    HW227690   4.774   5.083   6.647 -0.9217  0.2743  0.5664
 9109SOL     OW27691   6.253   6.758   0.920  0.0857  0.0067 -0.4670
 9109SOL    HW127692   6.337   6.785   0.882  0.8953 -1.4617  0.1967
 9109SOL    HW227693   6.214   6.701   0.854 -0.4074  0.6857 -0.7733
 9110SOL     OW27694   4.025   2.290   3.966 -0.2199  0.0016 -0.6067
 9110SOL    HW127695   4.096   2.342   3.930 -1.9914  0.7099 -3.4261
 9110SOL    HW227696   3.998   2.337   4.045  0.6134  1.2845 -1.0578
 9111SOL     OW27697   5.390   1.904   5.044 -0.1543  0.5536  0.3415
 9111SOL    HW127698   5.398   1.941   4.957 -0.2326 -0.1274  0.0386
 9111SOL    HW227699   5.306   1.938   5.077  1.4215  3.6807  1.5820
 9112SOL     OW27700   0.514   0.111   5.844  0.2104  0.2609  0.2414
 9112SOL    HW127701   0.508   0.159   5.926  0.1655  1.3655 -0.3933
 9112SOL    HW227702   0.429   0.124   5.802  0.2024 -0.3732  0.0522
 9113SOL     OW27703   6.655   0.002   2.719  0.2476 -0.1366 -0.2082
 9113SOL    HW127704   6.694   0.055   2.649 -1.0925  0.1129 -0.7942
 9113SOL    HW227705   6.592   0.060   2.761  0.9062 -0.3487  1.1191
 9114SOL     OW27706   0.963   4.604   2.189  0.2366 -0.0067  0.4547
 9114SOL    HW127707   0.895   4.562   2.137  0.1306  1.4458 -0.6330
 9114SOL    HW227708   1.041   4.550   2.174 -0.5015 -1.3176  1.2147
 9115SOL     OW27709   2.326   3.231   6.414 -0.1918  0.6149  0.5777
 9115SOL    HW127710   2.232   3.241   6.428 -0.0446  1.8942  0.7062
 9115SOL    HW227711   2.341   3.259   6.324  0.3761  2.7536  1.2790
 9116SOL     OW27712   5.279   1.406   4.652  0.5649 -0.1229 -0.4725
 9116SOL    HW127713   5.271   1.339   4.720  0.7085 -1.5479 -1.7953
 9116SOL    HW227714   5.190   1.420   4.621  0.4013  1.0677  0.4724
 9117SOL     OW27715   3.131   2.289   6.039  0.2208  0.0348 -0.1940
 9117SOL    HW127716   3.170   2.219   5.988 -3.7696 -2.7486  0.1606
 9117SOL    HW227717   3.145   2.263   6.130 -0.4555  0.2121 -0.0373
 9118SOL     OW27718   0.232   5.163   3.075  0.2087  0.2803  0.2132
 9118SOL    HW127719   0.196   5.121   2.998  0.9267  1.0125 -0.5397
 9118SOL    HW227720   0.261   5.091   3.131 -3.0158 -0.3937  1.2079
 9119SOL     OW27721   0.830   5.813   0.131 -0.0172  0.7305  0.7168
 9119SOL    HW127722   0.852   5.806   0.038  1.1385  0.1652  1.0109
 9119SOL    HW227723   0.762   5.880   0.135 -0.3222  0.5247 -0.5692
 9120SOL     OW27724   4.836   4.259   4.501  0.1242 -0.1443 -0.1038
 9120SOL    HW127725   4.896   4.226   4.434 -0.0876 -0.3955 -0.1727
 9120SOL    HW227726   4.858   4.209   4.580  1.1440  0.9451  0.3314
 9121SOL     OW27727   4.392   6.625   1.078  0.1079  0.0962 -0.7704
 9121SOL    HW127728   4.398   6.611   0.984  0.4525 -1.0855 -0.5890
 9121SOL    HW227729   4.402   6.538   1.116 -2.5596  0.1448  0.2777
 9122SOL     OW27730   0.868   6.703   4.670  0.1692  0.1722  0.3907
 9122SOL    HW127731   0.879   6.754   4.750 -0.4393 -0.7745  1.1159
 9122SOL    HW227732   0.880   6.765   4.599  1.0064  0.9814  1.2135
 9123SOL     OW27733   6.144   4.520   2.088 -0.3191  0.7571 -0.1266
 9123SOL    HW127734   6.216   4.574   2.055 -0.4782 -0.1018 -2.0756
 9123SOL    HW227735   6.178   4.481   2.169  2.7987 -2.1267 -2.5106
 9124SOL     OW27736   0.159   4.694   1.015  0.0936  0.6531  0.0794
 9124SOL    HW127737   0.169   4.623   0.952  1.1140  1.1668 -0.3598
 9124SOL    HW227738   0.072   4.731   0.995 -1.8248 -2.2378  2.2398
 9125SOL     OW27739   3.337   4.459   5.400  1.1472  0.8665 -0.2200
 9125SOL    HW127740   3.289   4.514   5.462  1.2235 -0.6081  1.2528
 9125SOL    HW227741   3.410   4.423   5.452  0.2795 -1.7114 -0.6135
 9126SOL     OW27742   5.386   5.843   0.035  0.3526 -0.2043  0.3348
 9126SOL    HW127743   5.420   5.915  -0.018  2.2966 -3.0099 -2.5876
 9126SOL    HW227744   5.300   5.824  -0.003 -1.4406  2.0665  2.8587
 9127SOL     OW27745   0.694   4.644   3.957 -0.0776  0.4243 -0.1099
 9127SOL    HW127746   0.617   4.685   3.997  0.5821  1.2304  0.3567
 9127SOL    HW227747   0.761   4.648   4.024  1.1201  1.9900 -1.3150
 9128SOL     OW27748   3.382   4.621   5.766 -0.4366 -0.2241  0.1132
 9128SOL    HW127749   3.299   4.666   5.754 -0.4513 -0.6538 -1.5757
 9128SOL    HW227750   3.449   4.687   5.749 -0.4402 -0.2586 -0.0336
 9129SOL     OW27751   0.466   5.362   6.427  0.7925 -0.3033  0.3808
 9129SOL    HW127752   0.468   5.386   6.334  0.0042  0.6823  0.6045
 9129SOL    HW227753   0.543   5.404   6.464  1.1171 -0.7099  0.1828
 9130SOL     OW27754   3.966   6.511   3.572  0.0284  0.2576  0.6192
 9130SOL    HW127755   4.051   6.530   3.534 -0.1946 -0.6949 -0.3867
 9130SOL    HW227756   3.985   6.457   3.649  0.3205 -0.0118  0.3575
 9131SOL     OW27757   4.223   1.818   5.642 -0.3408 -0.1734 -0.4083
 9131SOL    HW127758   4.178   1.901   5.628  0.5888  0.2001 -1.3095
 9131SOL    HW227759   4.179   1.756   5.585  1.2472  0.5621 -2.5599
 9132SOL     OW27760   5.870   3.812   4.179 -0.6402 -0.9474 -0.3815
 9132SOL    HW127761   5.897   3.904   4.186 -1.1666 -0.6494 -1.9415
 9132SOL    HW227762   5.808   3.800   4.251  0.0231 -0.3105  0.3156
 9133SOL     OW27763   5.660   6.437   2.826 -0.1177 -0.1367  0.2670
 9133SOL    HW127764   5.743   6.433   2.875 -0.4726 -0.8790  0.8349
 9133SOL    HW227765   5.631   6.346   2.823 -1.0286  0.1484  0.2733
 9134SOL     OW27766   5.864   3.020   1.467 -0.1517  0.6589  0.0395
 9134SOL    HW127767   5.787   2.963   1.461  0.6225 -0.4345  0.2363
 9134SOL    HW227768   5.828   3.108   1.462 -1.4167  0.1707  0.0277
 9135SOL     OW27769   0.452   2.793   1.380  0.4211 -0.1441 -0.2520
 9135SOL    HW127770   0.439   2.874   1.429 -1.3325  1.0432 -2.4497
 9135SOL    HW227771   0.513   2.817   1.309 -0.0542 -0.7465 -0.8883
 9136SOL     OW27772   0.318   1.966   3.924  0.2991 -0.1065  0.9768
 9136SOL    HW127773   0.396   1.952   3.870  0.0446  0.3134  0.4843
 9136SOL    HW227774   0.334   2.051   3.967 -0.2951  0.4491  0.1279
 9137SOL     OW27775   6.661   4.230   1.141 -0.1917  0.0629  0.0963
 9137SOL    HW127776   6.682   4.293   1.210 -0.9942  0.4807 -0.0314
 9137SOL    HW227777   6.574   4.196   1.166 -0.5397  0.3049 -0.7722
 9138SOL     OW27778   4.604   4.279   0.317 -0.1083 -0.3437  0.0211
 9138SOL    HW127779   4.644   4.347   0.371 -3.3747  1.8830 -0.0864
 9138SOL    HW227780   4.621   4.307   0.227 -1.0453  0.0933 -0.0271
 9139SOL     OW27781   1.042   5.473   3.230  0.1465  0.2049 -0.1898
 9139SOL    HW127782   1.106   5.469   3.159  1.2036 -0.7405  0.7914
 9139SOL    HW227783   0.991   5.392   3.221  0.8521 -0.3407  0.6386
 9140SOL     OW27784   1.662   1.782   4.356 -0.2832  0.4753  0.1343
 9140SOL    HW127785   1.714   1.730   4.295  2.3557  2.0525  0.8682
 9140SOL    HW227786   1.660   1.730   4.436  1.4371  0.9123  0.5228
 9141SOL     OW27787   0.577   3.731   0.654 -0.0072  1.0160 -0.0663
 9141SOL    HW127788   0.625   3.809   0.625  1.4725  1.2573  2.6672
 9141SOL    HW227789   0.599   3.664   0.589  0.0528  2.4163 -1.5467
 9142SOL     OW27790   1.005   0.551   2.346 -0.1424 -0.4962 -0.2394
 9142SOL    HW127791   0.915   0.584   2.352  0.4460  1.3931 -0.9027
 9142SOL    HW227792   0.997   0.464   2.309 -1.6103  0.2747 -1.8587
 9143SOL     OW27793   5.063   4.336   0.883  0.2354  0.1552  0.2788
 9143SOL    HW127794   5.078   4.256   0.934 -1.2172 -0.3334 -0.0075
 9143SOL    HW227795   4.980   4.320   0.838 -0.3563  2.0300  0.6203
 9144SOL     OW27796   6.393   6.623   6.630  0.5343 -0.0079  0.0060
 9144SOL    HW127797   6.435   6.663   6.554  1.4226  2.2199  1.5895
 9144SOL    HW227798   6.448   6.648   6.704 -0.4572 -1.8872  1.4684
 9145SOL     OW27799   4.063   2.617   2.078  0.3123  0.0327 -0.0175
 9145SOL    HW127800   4.136   2.637   2.136  0.1896  1.8376 -0.4455
 9145SOL    HW227801   4.097   2.631   1.990  0.2056 -1.7238 -0.3885
 9146SOL     OW27802   3.761   1.395   0.420  0.5310 -0.0380 -0.1389
 9146SOL    HW127803   3.847   1.364   0.449  1.3235  0.4229 -1.8730
 9146SOL    HW227804   3.701   1.363   0.486  1.5781 -3.3464 -0.6037
 9147SOL     OW27805   5.424   2.884   1.346 -0.2265 -0.5212  0.6189
 9147SOL    HW127806   5.365   2.884   1.421 -0.8143  0.6688  0.1849
 9147SOL    HW227807   5.432   2.976   1.322  0.0036 -0.8790 -0.7435
 9148SOL     OW27808   1.637   1.966   4.909 -0.1898  0.2681 -0.4760
 9148SOL    HW127809   1.613   2.024   4.837  0.2866 -0.3819 -1.1751
 9148SOL    HW227810   1.568   1.900   4.912  0.0909 -0.0435 -0.7303
 9149SOL     OW27811   4.192   1.453   4.830  0.1775 -0.5928  0.1104
 9149SOL    HW127812   4.265   1.395   4.811 -0.0654 -0.1569 -2.5255
 9149SOL    HW227813   4.186   1.511   4.753  0.4052  2.9518  2.5226
 9150SOL     OW27814   0.815   3.475   1.629  0.9059 -0.4407  0.2364
 9150SOL    HW127815   0.859   3.531   1.692 -1.1999 -1.2090  2.5904
 9150SOL    HW227816   0.855   3.389   1.641  1.6489 -0.2494 -0.7467
 9151SOL     OW27817   4.636   6.646   0.392 -0.0075 -0.4215 -0.3135
 9151SOL    HW127818   4.663   6.578   0.329  0.2842 -0.4511 -0.1578
 9151SOL    HW227819   4.714   6.700   0.404  0.7084 -1.7772  1.8030
 9152SOL     OW27820   6.653   1.702   0.230 -0.5207  0.1896 -0.7690
 9152SOL    HW127821   6.719   1.660   0.175 -1.9716  0.1778 -2.5811
 9152SOL    HW227822   6.694   1.783   0.260  0.6826 -0.3312 -0.9551
 9153SOL     OW27823   4.043   6.533   2.170  0.4618 -0.1364  0.3837
 9153SOL    HW127824   3.990   6.465   2.128  0.0987  1.0456 -1.2083
 9153SOL    HW227825   3.989   6.564   2.242 -1.3129  1.3136 -1.4483
 9154SOL     OW27826   0.481   0.522   1.984  0.0272  0.2397 -0.1665
 9154SOL    HW127827   0.495   0.552   1.894  0.9967 -0.8112 -0.3938
 9154SOL    HW227828   0.386   0.530   1.997 -0.2202 -0.1315 -1.4988
 9155SOL     OW27829   0.885   6.564   5.867  0.5427 -0.1988 -0.6849
 9155SOL    HW127830   0.938   6.594   5.941 -1.6023  4.4771 -0.7041
 9155SOL    HW227831   0.799   6.544   5.906  0.0472  0.0679 -1.6241
 9156SOL     OW27832   5.400   0.422   3.028  0.1658 -0.6058  0.6025
 9156SOL    HW127833   5.315   0.415   3.072  0.0872 -0.9135  0.3983
 9156SOL    HW227834   5.464   0.402   3.096  0.0549 -0.8316  0.6409
 9157SOL     OW27835   5.310   3.955   3.797  0.0558 -0.1374  0.0571
 9157SOL    HW127836   5.250   3.892   3.837  0.6107  0.2437  1.5255
 9157SOL    HW227837   5.345   4.005   3.870  1.6553  0.1150 -0.8346
 9158SOL     OW27838   0.580   5.668   3.328  0.9372 -0.0819  0.1523
 9158SOL    HW127839   0.571   5.699   3.238 -1.0246 -0.8886  0.0169
 9158SOL    HW227840   0.527   5.729   3.380  0.0195 -1.0378  0.3772
 9159SOL     OW27841   3.985   5.614   1.972 -0.5706 -0.1483 -0.0643
 9159SOL    HW127842   3.999   5.570   1.888 -0.3930 -0.4286  0.1133
 9159SOL    HW227843   3.979   5.707   1.949  1.9763  0.0727 -0.1250
 9160SOL     OW27844   3.788   1.346   0.876 -0.2889 -0.3038 -0.4594
 9160SOL    HW127845   3.752   1.309   0.795  0.3205 -1.9890 -0.0076
 9160SOL    HW227846   3.874   1.304   0.886  0.6851  1.6642 -0.1576
 9161SOL     OW27847   1.100   3.987   5.394 -0.0772  0.2177  0.3958
 9161SOL    HW127848   1.152   4.021   5.467  1.3007  0.4919 -0.6762
 9161SOL    HW227849   1.061   3.907   5.429  3.1890 -1.5036  0.5462
 9162SOL     OW27850   3.665   5.744   1.426 -1.2023 -0.2605  0.1084
 9162SOL    HW127851   3.740   5.764   1.371 -0.7836 -1.0011  0.3969
 9162SOL    HW227852   3.673   5.651   1.446 -2.0216 -0.2805  0.4062
 9163SOL     OW27853   6.376   3.353   3.989  0.2828  0.3702  0.4506
 9163SOL    HW127854   6.414   3.272   4.023  1.3048 -0.0560 -1.5555
 9163SOL    HW227855   6.282   3.344   4.006  0.6781  0.2546  3.1196
 9164SOL     OW27856   1.342   4.008   6.560  0.3001  0.0090  0.4616
 9164SOL    HW127857   1.346   4.002   6.465 -2.3175  1.0038  0.2152
 9164SOL    HW227858   1.376   4.096   6.579 -0.2399  0.2506  0.3281
 9165SOL     OW27859   1.325   0.377   1.544  0.2531 -0.4534  0.4339
 9165SOL    HW127860   1.417   0.395   1.566 -0.5470  2.0321  2.2098
 9165SOL    HW227861   1.280   0.381   1.628 -2.0651  2.7998 -0.7519
 9166SOL     OW27862   1.859   2.510   5.983  0.3695  0.1012  0.4329
 9166SOL    HW127863   1.828   2.589   6.027  1.1412  1.0264 -0.6261
 9166SOL    HW227864   1.952   2.506   6.005  0.6151  0.2123 -0.5490
 9167SOL     OW27865   5.310   3.985   5.349  0.5524  0.0608 -0.2368
 9167SOL    HW127866   5.336   3.978   5.441 -0.0578  0.3726 -0.0335
 9167SOL    HW227867   5.310   4.079   5.331 -1.1537  0.1465  0.0013
 9168SOL     OW27868   3.501   1.849   0.219  0.0130 -0.5144 -0.0730
 9168SOL    HW127869   3.567   1.794   0.178 -2.0591 -2.0229 -1.5606
 9168SOL    HW227870   3.488   1.810   0.306  0.3454 -0.8005 -0.1508
 9169SOL     OW27871   3.246   1.843   0.932  0.1208 -1.1024 -0.6739
 9169SOL    HW127872   3.159   1.839   0.971 -0.3778  0.2029 -1.5783
 9169SOL    HW227873   3.272   1.752   0.919  0.1723 -1.6162  2.3218
 9170SOL     OW27874   4.446   4.994   3.933  0.0924  0.4559 -0.0428
 9170SOL    HW127875   4.507   4.942   3.984  1.4096 -0.6645 -2.5853
 9170SOL    HW227876   4.359   4.962   3.959  0.7963 -1.4190  0.1172
 9171SOL     OW27877   2.834   3.618   5.337 -0.7834  0.0480 -0.0849
 9171SOL    HW127878   2.819   3.599   5.430  0.1596  0.5920  0.1960
 9171SOL    HW227879   2.915   3.668   5.336 -0.4265 -0.5096 -1.2683
 9172SOL     OW27880   5.772   4.591   4.432  0.7137 -0.3713 -0.1092
 9172SOL    HW127881   5.733   4.670   4.469  1.2497 -1.1379  2.3533
 9172SOL    HW227882   5.704   4.524   4.441  1.6187 -1.1284  1.8964
 9173SOL     OW27883   4.080   4.410   3.360 -0.1485 -0.0345 -0.7398
 9173SOL    HW127884   4.153   4.447   3.311 -0.2286  0.5875 -0.3964
 9173SOL    HW227885   4.005   4.467   3.339 -0.1881  0.2262  0.0772
 9174SOL     OW27886   4.731   1.962   6.569 -0.7218  0.1259  0.0609
 9174SOL    HW127887   4.758   1.994   6.482 -2.5818  0.5550 -0.3940
 9174SOL    HW227888   4.786   2.011   6.630 -0.3707  0.8620 -0.8205
 9175SOL     OW27889   2.330   1.151   0.508 -0.0342  0.0477  0.1110
 9175SOL    HW127890   2.370   1.075   0.467  0.4898  1.1404 -1.5343
 9175SOL    HW227891   2.287   1.117   0.586 -1.7139 -2.3322 -1.6849
 9176SOL     OW27892   2.692   1.852   3.896  0.1433 -0.1985 -0.1175
 9176SOL    HW127893   2.628   1.810   3.953 -1.7064  3.3357  0.6776
 9176SOL    HW227894   2.771   1.861   3.949 -0.2610 -0.4302  0.5260
 9177SOL     OW27895   3.841   6.345   2.106  0.1886 -0.0484 -0.1928
 9177SOL    HW127896   3.863   6.273   2.046 -0.1222 -1.2642  1.1099
 9177SOL    HW227897   3.772   6.310   2.161  1.2679  0.6322  1.6669
 9178SOL     OW27898   0.746   3.817   6.213  0.1144  0.9033  0.5760
 9178SOL    HW127899   0.659   3.825   6.174  0.4482  2.6894  0.1346
 9178SOL    HW227900   0.806   3.828   6.140  0.7391 -0.3632  0.8754
 9179SOL     OW27901   0.556   0.350   2.203  0.3061  0.5849  0.0937
 9179SOL    HW127902   0.542   0.408   2.277 -3.2735 -0.3957  0.3612
 9179SOL    HW227903   0.505   0.389   2.132  0.8995 -0.2880 -0.8474
 9180SOL     OW27904   3.434   6.338   2.914 -0.5264 -0.0837 -0.4595
 9180SOL    HW127905   3.394   6.313   2.997  0.0909 -2.2747 -0.7521
 9180SOL    HW227906   3.363   6.378   2.864 -1.5193 -0.9256  0.2457
 9181SOL     OW27907   4.034   1.909   3.737 -0.1251  0.4513  0.1015
 9181SOL    HW127908   4.115   1.872   3.701 -0.6644  0.9061 -1.7034
 9181SOL    HW227909   4.014   1.854   3.813  0.3877 -1.4324 -1.0514
 9182SOL     OW27910   6.754   2.562   2.824  0.0823 -0.1497  0.3884
 9182SOL    HW127911   6.664   2.559   2.856 -1.0012 -0.1655 -2.3779
 9182SOL    HW227912   6.806   2.523   2.894 -2.2328 -1.3797  1.5266
 9183SOL     OW27913   1.512   0.953   1.498 -0.3378 -0.1882  0.6584
 9183SOL    HW127914   1.559   0.942   1.580  0.9061  1.9008  0.2973
 9183SOL    HW227915   1.565   1.015   1.448 -2.8547  1.4022 -0.2393
 9184SOL     OW27916   3.897   3.629   0.331  0.1123 -0.0487 -0.2546
 9184SOL    HW127917   3.905   3.614   0.237  0.7801 -1.2641 -0.0247
 9184SOL    HW227918   3.820   3.685   0.340 -0.7114 -0.9571 -1.4302
 9185SOL     OW27919   4.644   3.544   0.161 -0.1898  0.1043 -0.8208
 9185SOL    HW127920   4.699   3.617   0.133 -0.4257  0.2028 -1.0322
 9185SOL    HW227921   4.562   3.585   0.190 -0.4094 -0.0893 -1.1547
 9186SOL     OW27922   0.032   4.811   1.572 -0.1429 -0.1064  0.5461
 9186SOL    HW127923  -0.061   4.799   1.592  0.0846 -0.1429  1.6206
 9186SOL    HW227924   0.077   4.797   1.655  0.9823 -1.6579 -0.2799
 9187SOL     OW27925   4.665   1.020   4.596  0.5716 -0.2914 -0.1637
 9187SOL    HW127926   4.710   1.089   4.645  1.2522  0.5368 -1.8557
 9187SOL    HW227927   4.588   0.998   4.649  1.0985  0.7795  1.0835
 9188SOL     OW27928   1.450   3.627   1.305 -0.2509  0.5653 -0.2091
 9188SOL    HW127929   1.511   3.684   1.352  1.2054 -1.1925  0.1500
 9188SOL    HW227930   1.499   3.599   1.228 -0.7398 -0.5846 -0.1151
 9189SOL     OW27931   2.111   2.655   1.481 -0.0299 -0.2778 -0.0917
 9189SOL    HW127932   2.111   2.582   1.419 -0.9170 -0.5390  0.1992
 9189SOL    HW227933   2.203   2.682   1.487  0.2879 -1.2825 -0.2971
 9190SOL     OW27934   2.447   1.975   4.604  0.1654  0.1420  0.0457
 9190SOL    HW127935   2.521   1.922   4.574 -0.9457 -1.4291 -0.0191
 9190SOL    HW227936   2.370   1.936   4.561 -0.6013  2.5219 -0.9179
 9191SOL     OW27937   3.561   5.814   4.377  0.0217  0.1924  0.0764
 9191SOL    HW127938   3.500   5.788   4.308  0.9420 -2.0713  0.0445
 9191SOL    HW227939   3.588   5.732   4.418  1.4402  1.2916  1.4819
 9192SOL     OW27940   1.185   3.162   0.195 -0.4015 -0.3092 -0.6637
 9192SOL    HW127941   1.248   3.206   0.138 -0.7707 -0.4997 -1.2214
 9192SOL    HW227942   1.239   3.114   0.258  0.0062  0.0078 -0.7680
 9193SOL     OW27943   5.716   3.783   2.746 -0.1513 -0.3441  0.4713
 9193SOL    HW127944   5.657   3.855   2.767 -0.7532 -1.2005  1.8772
 9193SOL    HW227945   5.657   3.711   2.722  0.4498  0.1714 -3.1758
 9194SOL     OW27946   2.241   4.969   4.670 -0.2258 -0.5395  0.3667
 9194SOL    HW127947   2.184   4.988   4.596  1.6781  0.2554 -0.9717
 9194SOL    HW227948   2.262   4.876   4.662  0.0982 -0.4217 -0.2009
 9195SOL     OW27949   0.592   1.810   5.982 -0.4864  0.0090  0.4605
 9195SOL    HW127950   0.553   1.821   5.895  1.3915  0.5413 -0.3599
 9195SOL    HW227951   0.672   1.760   5.967 -0.0524  0.2328  1.8594
 9196SOL     OW27952   4.699   6.416   0.256 -0.0745 -0.0332  0.3385
 9196SOL    HW127953   4.697   6.330   0.214  1.2396  0.1508 -0.1291
 9196SOL    HW227954   4.758   6.406   0.330 -0.2976  0.3459  0.5729
 9197SOL     OW27955   4.692   2.570   4.640  0.1907  0.1535  0.4524
 9197SOL    HW127956   4.752   2.643   4.652  0.8842 -0.0086 -1.6910
 9197SOL    HW227957   4.605   2.610   4.641  0.2250  0.3917  3.5594
 9198SOL     OW27958   5.113   2.758   0.954 -0.0310 -0.0262 -0.5878
 9198SOL    HW127959   5.033   2.726   0.911  0.6214 -2.0403 -0.4191
 9198SOL    HW227960   5.085   2.782   1.042 -0.4449 -0.8365 -0.4860
 9199SOL     OW27961   4.721   6.662   2.913 -0.6740  0.1209  0.0052
 9199SOL    HW127962   4.758   6.638   2.998 -1.4642 -1.4885 -0.0591
 9199SOL    HW227963   4.716   6.579   2.865  0.1251  1.0504 -1.7852
 9200SOL     OW27964   5.709   3.943   1.495 -0.3107 -0.1440 -0.8141
 9200SOL    HW127965   5.623   3.907   1.474 -0.9910  0.2952  1.0488
 9200SOL    HW227966   5.754   3.948   1.410 -1.7006 -1.3982 -1.6795
 9201SOL     OW27967   3.372   0.791   2.528  0.2462  0.0492  0.4908
 9201SOL    HW127968   3.391   0.881   2.553  1.6190 -0.5123  1.6392
 9201SOL    HW227969   3.453   0.760   2.488 -0.9415 -0.0220 -2.0010
 9202SOL     OW27970   0.005   1.406   3.498  0.3021  0.3782  0.7820
 9202SOL    HW127971   0.093   1.407   3.460 -0.5846 -0.4927 -1.4271
 9202SOL    HW227972   0.006   1.331   3.558 -0.0904 -2.4274 -2.4422
 9203SOL     OW27973   4.046   0.033   6.270 -0.0249 -0.8813 -0.8502
 9203SOL    HW127974   4.083  -0.047   6.232 -2.0097 -1.4768 -1.6497
 9203SOL    HW227975   3.963   0.006   6.309 -0.0764  0.5457  0.1275
 9204SOL     OW27976   1.538   4.857   2.287 -0.1160  0.3207 -0.2414
 9204SOL    HW127977   1.498   4.935   2.327  0.5361  0.8762 -0.6452
 9204SOL    HW227978   1.588   4.817   2.357 -0.2094  0.4370 -0.1070
 9205SOL     OW27979   1.651   6.386   5.453  0.2427  0.5922  0.0016
 9205SOL    HW127980   1.591   6.448   5.411 -0.0149 -0.4684 -1.2889
 9205SOL    HW227981   1.718   6.369   5.386 -1.2819 -2.7060 -0.8886
 9206SOL     OW27982   6.164   1.806   6.646 -0.0019  0.6087 -0.1375
 9206SOL    HW127983   6.182   1.726   6.695 -2.2941 -0.1377 -0.4157
 9206SOL    HW227984   6.249   1.829   6.607  0.8180 -1.4144  0.3090
 9207SOL     OW27985   4.115   2.136   3.495 -0.7365 -0.8033  0.2379
 9207SOL    HW127986   4.077   2.218   3.527  0.2016 -0.0622 -0.4816
 9207SOL    HW227987   4.208   2.142   3.515 -0.5694 -1.4643 -0.2786
 9208SOL     OW27988   6.709   2.662   5.032  0.0835  0.2137 -0.2978
 9208SOL    HW127989   6.634   2.654   4.974  0.3987  0.5810 -0.7598
 9208SOL    HW227990   6.705   2.584   5.088 -0.2074 -0.1508 -0.8232
 9209SOL     OW27991   3.195   6.007   1.303 -0.1102 -0.4926  0.0719
 9209SOL    HW127992   3.259   5.943   1.271  0.3140 -1.2750  2.2771
 9209SOL    HW227993   3.118   5.955   1.325 -0.0663 -0.1588  1.0818
 9210SOL     OW27994   4.895   3.034   3.552 -0.2648  0.1027  0.5646
 9210SOL    HW127995   4.842   2.993   3.619 -0.4364  1.4872  1.3239
 9210SOL    HW227996   4.839   3.103   3.516  0.9206  1.4914  1.2768
 9211SOL     OW27997   5.936   0.251   6.673  0.5608  0.1552  0.3847
 9211SOL    HW127998   5.892   0.175   6.635 -2.3771  2.0644 -0.3439
 9211SOL    HW227999   6.029   0.227   6.674 -0.3272 -3.8825  1.4268
 9212SOL     OW28000   1.971   4.881   1.393  0.4228  0.4515  0.2337
 9212SOL    HW128001   1.967   4.976   1.388  1.5831  0.4974  0.0020
 9212SOL    HW228002   1.947   4.861   1.484 -0.8389  0.8827  0.0110
 9213SOL     OW28003   2.333   1.246   1.063 -0.3349  0.4879  0.5416
 9213SOL    HW128004   2.400   1.203   1.118  0.5148 -0.9942 -1.5308
 9213SOL    HW228005   2.351   1.339   1.073 -1.0822  0.4036  3.7724
 9214SOL     OW28006   5.919   1.665   2.524 -0.5176 -0.6663 -0.4039
 9214SOL    HW128007   5.939   1.635   2.436 -0.2555  2.3751 -1.5177
 9214SOL    HW228008   5.974   1.743   2.536  0.2428 -1.5305  2.8974
 9215SOL     OW28009   4.514   3.841   2.542  0.3462 -0.0930 -0.5290
 9215SOL    HW128010   4.458   3.918   2.533  1.0079  0.2006 -2.5011
 9215SOL    HW228011   4.573   3.864   2.615 -0.8952  0.3090  0.3904
 9216SOL     OW28012   1.487   4.538   1.965  0.0001 -0.2660 -0.2154
 9216SOL    HW128013   1.578   4.511   1.957 -0.1280 -0.4279 -1.2474
 9216SOL    HW228014   1.441   4.461   1.998  0.1456 -0.3674 -0.2499
 9217SOL     OW28015   0.957   6.255   5.874  0.3103 -0.0311 -0.0323
 9217SOL    HW128016   0.918   6.232   5.958  1.3469  0.0690  0.4893
 9217SOL    HW228017   0.951   6.351   5.871 -1.3183 -0.1111 -0.8851
 9218SOL     OW28018   1.392   5.575   2.508  0.0973 -0.0992  0.1056
 9218SOL    HW128019   1.460   5.640   2.496  0.7688 -0.4442  1.8672
 9218SOL    HW228020   1.409   5.510   2.440  0.1590  0.9173 -0.8763
 9219SOL     OW28021   2.904   0.592   2.123  0.5901  0.8370 -0.0580
 9219SOL    HW128022   2.820   0.548   2.137  0.1300  1.9368  0.8792
 9219SOL    HW228023   2.951   0.536   2.063 -1.2479  0.7124 -1.4829
 9220SOL     OW28024   2.798   4.587   1.444  0.3283 -0.0995  0.4141
 9220SOL    HW128025   2.885   4.627   1.435 -0.4602  1.4493 -0.7790
 9220SOL    HW228026   2.776   4.557   1.356 -0.3980 -0.3553  0.6759
 9221SOL     OW28027   4.739   0.663   4.981  0.0002  0.4284 -0.3148
 9221SOL    HW128028   4.807   0.702   5.036 -0.3088  0.2385  0.2108
 9221SOL    HW228029   4.733   0.572   5.012 -0.2370  0.3454 -0.6023
 9222SOL     OW28030   1.362   3.674   2.815  0.2211  0.0520 -0.5261
 9222SOL    HW128031   1.337   3.762   2.788  0.6893  0.9806  1.8080
 9222SOL    HW228032   1.278   3.629   2.828 -0.1446  1.0840  0.9810
 9223SOL     OW28033   3.461   4.779   1.731 -0.2120 -0.5171  0.3285
 9223SOL    HW128034   3.522   4.849   1.712 -0.1458 -0.7958 -0.5161
 9223SOL    HW228035   3.433   4.795   1.822 -0.2449  0.6172  0.1325
 9224SOL     OW28036   0.320   1.854   1.621  0.8880  0.5699  0.1721
 9224SOL    HW128037   0.255   1.838   1.690  1.8707 -0.8460  0.8071
 9224SOL    HW228038   0.286   1.931   1.575 -2.9123 -1.8118 -1.4929
 9225SOL     OW28039   6.714   2.896   3.811 -0.5590  0.1554  0.3560
 9225SOL    HW128040   6.622   2.924   3.803 -0.0089  1.6505 -1.8975
 9225SOL    HW228041   6.756   2.932   3.732  1.6404 -1.8125  0.5392
 9226SOL     OW28042   2.443   3.340   5.332  0.8234 -0.2362 -0.0983
 9226SOL    HW128043   2.408   3.398   5.264  0.4918 -0.0380  0.2403
 9226SOL    HW228044   2.377   3.343   5.402  1.2592 -0.2889  0.3143
 9227SOL     OW28045   4.253   0.470   0.511 -0.5273  0.6016  0.6672
 9227SOL    HW128046   4.315   0.492   0.441 -0.4612  0.8066  0.7861
 9227SOL    HW228047   4.308   0.429   0.578 -0.5728  0.5006  0.6421
 9228SOL     OW28048   1.398   5.867   0.498 -0.1844 -0.0041  0.0353
 9228SOL    HW128049   1.434   5.791   0.543 -1.1479 -0.8420 -0.5664
 9228SOL    HW228050   1.323   5.833   0.450 -0.6164  1.3275 -0.2735
 9229SOL     OW28051   1.128   3.786   6.593  0.0315 -0.4134 -0.1792
 9229SOL    HW128052   1.171   3.871   6.583  0.4808 -0.7114 -0.8571
 9229SOL    HW228053   1.036   3.804   6.577 -0.1034  0.2134  1.1833
 9230SOL     OW28054   3.257   1.205   2.642 -0.4041  0.0194  0.1166
 9230SOL    HW128055   3.282   1.294   2.617  0.3641 -0.3343 -0.4123
 9230SOL    HW228056   3.203   1.216   2.720 -0.2190  0.9428  0.1227
 9231SOL     OW28057   0.180   6.294   6.257  0.3794  0.2923 -0.3735
 9231SOL    HW128058   0.191   6.237   6.333 -0.2421  0.3896 -0.2039
 9231SOL    HW228059   0.180   6.235   6.182  0.2467  0.1177 -0.2378
 9232SOL     OW28060   0.177   1.154   5.811 -0.2483 -0.1472 -0.0728
 9232SOL    HW128061   0.224   1.169   5.893 -0.9438 -1.4822  0.6103
 9232SOL    HW228062   0.194   1.232   5.759  3.1561 -0.7364 -0.1173
 9233SOL     OW28063   5.725   3.169   0.350 -0.4115  0.0972 -0.1346
 9233SOL    HW128064   5.634   3.157   0.321  0.0438  0.0930 -1.6198
 9233SOL    HW228065   5.764   3.081   0.343 -0.1929  0.1700  0.1491
 9234SOL     OW28066   3.092   2.747   1.577  0.0179  0.3125  0.2571
 9234SOL    HW128067   3.172   2.722   1.531  0.2083 -0.3101  0.9135
 9234SOL    HW228068   3.072   2.834   1.544 -0.8701 -0.7983 -2.3847
 9235SOL     OW28069   6.729   5.275   3.730  0.4015  0.2365  0.2363
 9235SOL    HW128070   6.680   5.253   3.651  0.1232  1.0497  0.1762
 9235SOL    HW228071   6.791   5.203   3.740  0.0261 -0.1857 -0.3743
 9236SOL     OW28072   1.048   2.087   2.529  0.1634  0.0100  0.5783
 9236SOL    HW128073   1.082   2.166   2.486 -1.4634 -0.2370 -1.2633
 9236SOL    HW228074   1.047   2.021   2.461  0.7097 -1.4207  1.8946
 9237SOL     OW28075   0.126   1.868   6.418  0.7695 -0.2767 -0.0593
 9237SOL    HW128076   0.071   1.879   6.495  2.4773  0.0150  1.1790
 9237SOL    HW228077   0.079   1.914   6.348 -1.1197 -1.0808  0.6261
 9238SOL     OW28078   6.236   5.073   2.556  0.1083 -0.3437  0.5148
 9238SOL    HW128079   6.278   5.021   2.487  0.1048  0.0057  0.2460
 9238SOL    HW228080   6.163   5.116   2.511  0.5567  0.4797  0.5569
 9239SOL     OW28081   3.998   4.604   3.125 -0.2038  0.3778 -0.4960
 9239SOL    HW128082   4.067   4.637   3.183  0.6311 -0.1037 -1.1870
 9239SOL    HW228083   4.035   4.525   3.086 -1.6335 -0.6118  0.0622
 9240SOL     OW28084   3.744   3.573   5.547 -0.3996  0.0671  0.4623
 9240SOL    HW128085   3.831   3.611   5.563 -0.0897 -0.9628  1.3551
 9240SOL    HW228086   3.751   3.483   5.578 -1.8042 -0.0225  0.5941
 9241SOL     OW28087   6.397   2.366   6.249  0.2505  0.0080  0.1928
 9241SOL    HW128088   6.340   2.289   6.249  0.6428 -0.2947  0.7724
 9241SOL    HW228089   6.337   2.440   6.250 -0.1462 -0.2572 -1.4048
 9242SOL     OW28090   6.213   0.893   3.313 -0.3376  0.3111 -0.4062
 9242SOL    HW128091   6.283   0.958   3.308  0.8402 -0.9004 -0.1830
 9242SOL    HW228092   6.163   0.917   3.391 -0.9006  1.8541 -1.1892
 9243SOL     OW28093   4.429   0.453   2.837  0.4587  0.2824  0.1006
 9243SOL    HW128094   4.458   0.471   2.747  1.0194  1.6397  0.5124
 9243SOL    HW228095   4.474   0.373   2.861  1.0640  0.4266 -0.5045
 9244SOL     OW28096   4.252   3.188   2.173 -0.2141 -0.0292  0.1280
 9244SOL    HW128097   4.346   3.191   2.189 -0.3118 -0.1161  0.7571
 9244SOL    HW228098   4.221   3.114   2.226 -0.4461 -0.8182 -1.0779
 9245SOL     OW28099   5.539   3.944   2.173 -0.1736 -0.0230 -0.9340
 9245SOL    HW128100   5.456   3.923   2.216  1.1869 -1.8483  0.9690
 9245SOL    HW228101   5.561   3.866   2.123 -0.1434  0.8992 -2.4390
 9246SOL     OW28102   4.552   1.887   6.748  0.1895 -0.2482  0.6318
 9246SOL    HW128103   4.584   1.797   6.743 -1.5939 -0.9959  1.6619
 9246SOL    HW228104   4.580   1.927   6.666  1.5265 -1.5531  0.4084
 9247SOL     OW28105   5.138   4.639   1.806  0.5461 -0.3440 -0.2920
 9247SOL    HW128106   5.160   4.672   1.718  1.7281 -2.1861 -0.7556
 9247SOL    HW228107   5.044   4.624   1.803  0.3628  0.8614 -0.8032
 9248SOL     OW28108   0.224   6.199   0.765  0.2486  0.0068  0.3683
 9248SOL    HW128109   0.267   6.266   0.818 -2.0989  0.4942  1.8330
 9248SOL    HW228110   0.201   6.243   0.683 -1.8913  1.3143  1.5859
 9249SOL     OW28111   2.328   3.759   4.379  0.2040  0.0101  0.0605
 9249SOL    HW128112   2.249   3.722   4.341  1.2141 -1.9568 -0.3079
 9249SOL    HW228113   2.391   3.759   4.307  0.8461  0.5022  0.6127
 9250SOL     OW28114   0.734   1.529   2.979 -0.2024 -0.0899  0.0482
 9250SOL    HW128115   0.728   1.435   2.960  1.0268 -0.2978  0.5925
 9250SOL    HW228116   0.822   1.553   2.951 -0.2506  0.7480  0.5914
 9251SOL     OW28117   2.930   5.316   1.037  0.5045  0.3403 -0.4784
 9251SOL    HW128118   3.002   5.304   1.099 -1.1620  0.3690  1.6010
 9251SOL    HW228119   2.884   5.394   1.070 -2.1106 -1.2985  0.0604
 9252SOL     OW28120   5.645   4.339   4.374 -0.2415 -0.1179  0.0178
 9252SOL    HW128121   5.667   4.282   4.448 -0.1560  0.8541  0.7503
 9252SOL    HW228122   5.554   4.365   4.389 -0.0258  0.5955  0.1302
 9253SOL     OW28123   4.286   1.406   3.852  0.0066  0.0436 -0.3476
 9253SOL    HW128124   4.316   1.487   3.893 -0.7309 -0.8073  2.0116
 9253SOL    HW228125   4.315   1.413   3.761  0.2201  2.7964 -0.1376
 9254SOL     OW28126   3.586   6.214   3.557  0.2619 -0.0755  0.0964
 9254SOL    HW128127   3.568   6.274   3.485  2.1089 -0.5746 -0.8317
 9254SOL    HW228128   3.524   6.142   3.544  1.4140 -0.7981 -1.8310
 9255SOL     OW28129   5.597   5.927   0.374  0.3740  0.2423 -0.2092
 9255SOL    HW128130   5.519   5.887   0.336  1.5076 -1.1629 -1.1516
 9255SOL    HW228131   5.670   5.889   0.325  1.5850  2.8077 -0.5517
 9256SOL     OW28132   4.398   0.928   1.456 -0.1151  0.1004  0.0268
 9256SOL    HW128133   4.421   0.862   1.390  1.6864  0.6478  0.0486
 9256SOL    HW228134   4.405   1.011   1.409 -0.9724  0.3850  0.3733
 9257SOL     OW28135   5.031   1.297   4.929 -0.4324  0.1161 -0.6264
 9257SOL    HW128136   4.982   1.252   4.998  0.0392  0.0730 -0.3160
 9257SOL    HW228137   5.114   1.250   4.924 -0.6566 -0.2149 -1.5889
 9258SOL     OW28138   3.169   5.230   2.129  0.5730 -0.2183 -0.1885
 9258SOL    HW128139   3.211   5.291   2.069 -0.0940  0.0693 -0.3694
 9258SOL    HW228140   3.158   5.280   2.210 -0.1402 -0.0291 -0.3944
 9259SOL     OW28141   4.431   4.449   1.043 -0.2692 -0.3522  0.0134
 9259SOL    HW128142   4.455   4.359   1.063 -0.6031 -0.4306  0.0642
 9259SOL    HW228143   4.438   4.494   1.127 -0.8347 -0.4956  0.1398
 9260SOL     OW28144   1.577   6.584   0.946  0.2655 -0.2182  0.1152
 9260SOL    HW128145   1.634   6.635   0.889  0.5582 -0.2024  0.4190
 9260SOL    HW228146   1.550   6.509   0.893  1.1111 -0.5827  0.1828
 9261SOL     OW28147   5.863   2.837   1.214 -0.8617 -0.0244 -0.5993
 9261SOL    HW128148   5.796   2.797   1.269 -2.0242  0.2750 -1.7468
 9261SOL    HW228149   5.904   2.902   1.271  0.6913 -2.3537  1.1240
 9262SOL     OW28150   2.929   5.162   0.523 -0.2088 -0.6238  0.1068
 9262SOL    HW128151   2.942   5.254   0.503 -0.9971 -0.4601  0.2909
 9262SOL    HW228152   2.890   5.161   0.611 -1.8081 -1.0157 -0.5733
 9263SOL     OW28153   1.364   4.868   4.309 -0.2001 -0.0735  0.3450
 9263SOL    HW128154   1.354   4.857   4.214 -1.3206 -1.2227  0.5763
 9263SOL    HW228155   1.452   4.903   4.319 -0.4405  1.0779 -1.1869
 9264SOL     OW28156   1.852   0.075   1.162 -0.2700  0.1380 -0.0034
 9264SOL    HW128157   1.773   0.020   1.160 -0.0535 -0.2352 -3.0706
 9264SOL    HW228158   1.830   0.149   1.106 -0.2225  2.9403  3.3028
 9265SOL     OW28159   4.710   6.525   2.575 -0.4042 -0.4519  0.5615
 9265SOL    HW128160   4.763   6.481   2.641 -0.1603 -0.0626  0.6328
 9265SOL    HW228161   4.760   6.515   2.494  0.0691  0.3889  0.7310
 9266SOL     OW28162   5.395   1.900   1.643 -0.0537 -0.1686 -0.5096
 9266SOL    HW128163   5.418   1.808   1.630 -1.1383 -0.1717 -2.7906
 9266SOL    HW228164   5.303   1.907   1.615 -0.0051  1.5984 -0.3721
 9267SOL     OW28165   5.039   1.277   1.626 -0.0874 -0.0734  0.7613
 9267SOL    HW128166   5.106   1.210   1.613 -0.3090 -0.2832  0.7102
 9267SOL    HW228167   5.004   1.259   1.713 -1.6341 -1.3438 -0.0867
 9268SOL     OW28168   4.612   1.549   5.929 -0.3353 -0.0497  0.0141
 9268SOL    HW128169   4.706   1.533   5.937  0.3919  3.1941 -0.5615
 9268SOL    HW228170   4.585   1.577   6.017 -0.1852  1.3402 -0.3616
 9269SOL     OW28171   1.646   6.557   4.236 -0.2753 -0.0156 -0.4868
 9269SOL    HW128172   1.685   6.634   4.194  1.4887 -1.4385 -1.5707
 9269SOL    HW228173   1.606   6.508   4.165  0.0350 -0.9109 -0.0566
 9270SOL     OW28174   3.784   1.440   2.631 -0.4731  0.2945 -0.0075
 9270SOL    HW128175   3.794   1.394   2.547 -0.3293 -0.3856  0.3767
 9270SOL    HW228176   3.690   1.452   2.641 -0.5619 -0.5323  0.2109
 9271SOL     OW28177   4.338   3.350   1.169  0.2723  0.0240  0.2259
 9271SOL    HW128178   4.327   3.445   1.159 -1.0302 -0.1035  0.3348
 9271SOL    HW228179   4.311   3.333   1.259  0.2297 -0.4901  0.1140
 9272SOL     OW28180   1.712   5.322   2.484  0.1399  0.1844 -0.2783
 9272SOL    HW128181   1.656   5.275   2.547  0.6508 -0.1951 -0.1080
 9272SOL    HW228182   1.759   5.386   2.538 -1.7260  2.0560 -0.7111
 9273SOL     OW28183   3.809   1.777   1.478 -0.2611  0.1528  0.1791
 9273SOL    HW128184   3.868   1.704   1.495 -0.9081 -0.4745 -0.2664
 9273SOL    HW228185   3.868   1.850   1.456  0.3871 -0.1896  0.7299
 9274SOL     OW28186   4.102   6.472   4.385 -0.4079  0.5297  0.4802
 9274SOL    HW128187   4.012   6.460   4.353 -0.4515 -0.0336  0.7926
 9274SOL    HW228188   4.156   6.428   4.320 -0.4757 -0.3806  1.0276
 9275SOL     OW28189   1.062   6.477   0.765 -0.0826  0.5083 -0.1059
 9275SOL    HW128190   1.080   6.523   0.847  1.3933 -1.8878  1.0238
 9275SOL    HW228191   1.093   6.536   0.697  1.9238  1.1508  1.2728
 9276SOL     OW28192   4.485   3.359   5.976 -0.1492  0.5264  0.4352
 9276SOL    HW128193   4.406   3.379   6.026 -0.1044  2.2917 -0.1360
 9276SOL    HW228194   4.456   3.295   5.910 -1.5838  2.4052 -0.8937
 9277SOL     OW28195   5.065   0.437   0.967  0.5431 -0.0114  0.2190
 9277SOL    HW128196   5.000   0.387   0.918 -0.0043 -1.4395  2.2443
 9277SOL    HW228197   5.147   0.423   0.920 -0.4863  1.7397 -2.3311
 9278SOL     OW28198   4.574   5.368   0.392  0.3860 -0.7802 -0.0278
 9278SOL    HW128199   4.545   5.411   0.311 -1.7215  0.1091  1.1045
 9278SOL    HW228200   4.512   5.296   0.404  3.8863 -4.5528 -1.9342
 9279SOL     OW28201   1.287   2.039   2.163  0.3612 -0.1233  0.3840
 9279SOL    HW128202   1.363   2.003   2.119 -0.4047  1.1382 -2.1737
 9279SOL    HW228203   1.312   2.129   2.185  0.0661 -0.1310  0.7632
 9280SOL     OW28204   0.525   4.065   1.724  0.3908 -0.0884  0.4489
 9280SOL    HW128205   0.481   4.130   1.669  0.8173 -2.0001 -2.3383
 9280SOL    HW228206   0.609   4.105   1.747  0.5769  0.4410 -1.0679
 9281SOL     OW28207   1.846   3.647   6.643  0.0167  0.6782 -0.0448
 9281SOL    HW128208   1.930   3.615   6.610  0.6739  2.5793 -0.3629
 9281SOL    HW228209   1.841   3.613   6.732 -0.3014 -1.9013 -0.9837
 9282SOL     OW28210   5.261   4.978   1.318  0.3321 -0.0904  0.4026
 9282SOL    HW128211   5.177   4.981   1.272  1.1292 -0.7416 -1.1952
 9282SOL    HW228212   5.247   5.029   1.397 -1.6848 -0.5518  0.3944
 9283SOL     OW28213   1.986   2.406   4.686  0.1474  0.1621 -0.0209
 9283SOL    HW128214   1.940   2.351   4.749  0.6728  0.9572  1.1055
 9283SOL    HW228215   1.920   2.469   4.656 -0.3413 -0.7868 -0.9879
 9284SOL     OW28216   0.945   1.450   3.986 -0.6563 -0.4801 -0.1001
 9284SOL    HW128217   1.000   1.515   3.942 -1.3759  0.3898  0.2603
 9284SOL    HW228218   0.860   1.492   3.993 -0.7020 -0.8000  1.6589
 9285SOL     OW28219   0.566   0.701   3.204  0.0646 -0.0028  0.1364
 9285SOL    HW128220   0.613   0.677   3.283  1.4755  3.0517  0.3702
 9285SOL    HW228221   0.590   0.792   3.188  0.7658 -0.7487 -4.4391
 9286SOL     OW28222   5.310   1.211   4.237 -0.1686 -0.2923 -0.1967
 9286SOL    HW128223   5.324   1.176   4.149 -0.3302 -2.4242  0.5706
 9286SOL    HW228224   5.335   1.139   4.295 -1.5745  0.5133  1.4717
 9287SOL     OW28225   0.863   5.887   3.849  0.7400  0.0834 -0.3359
 9287SOL    HW128226   0.864   5.791   3.844 -1.3054 -0.1073  1.3116
 9287SOL    HW228227   0.940   5.915   3.801  0.7438 -2.3427 -1.8888
 9288SOL     OW28228   6.219   0.323   6.383  0.2057 -0.5753  0.2865
 9288SOL    HW128229   6.193   0.333   6.292 -0.9857  0.4033  0.7088
 9288SOL    HW228230   6.299   0.271   6.380  2.0424  2.1483 -1.5206
 9289SOL     OW28231   3.773   1.800   5.626 -0.4142 -0.1421  0.2501
 9289SOL    HW128232   3.762   1.762   5.539 -0.7995 -0.8303  0.5872
 9289SOL    HW228233   3.684   1.802   5.662 -0.0255 -1.9082  1.4522
 9290SOL     OW28234   5.894   5.789   5.991  0.4088  0.1147  0.2664
 9290SOL    HW128235   5.845   5.716   6.027 -0.5502  1.4892  1.8999
 9290SOL    HW228236   5.977   5.789   6.040 -0.1459  0.8850  1.2489
 9291SOL     OW28237   2.441   1.880   4.204 -0.3678 -0.1680 -0.4508
 9291SOL    HW128238   2.410   1.874   4.294  0.2629  1.6466 -0.0788
 9291SOL    HW228239   2.487   1.964   4.200  0.8145 -0.8502 -2.0977
 9292SOL     OW28240   2.513   3.506   0.691 -0.2552 -0.5413  0.0738
 9292SOL    HW128241   2.485   3.570   0.757  1.3655 -1.9631  2.2785
 9292SOL    HW228242   2.592   3.467   0.728  0.2428 -2.0299 -2.3743
 9293SOL     OW28243   6.517   3.169   3.353  0.3460  0.9601 -0.1887
 9293SOL    HW128244   6.533   3.260   3.327  1.9406  1.5925  2.5995
 9293SOL    HW228245   6.593   3.121   3.321  0.1657  0.8518 -0.4644
 9294SOL     OW28246   0.311   2.689   2.856  0.4036 -0.6541  0.2026
 9294SOL    HW128247   0.352   2.775   2.858  1.2506 -1.0403 -0.0005
 9294SOL    HW228248   0.240   2.698   2.792  0.5913 -0.1554  0.0582
 9295SOL     OW28249   4.306   1.319   5.396  0.0949 -0.1074  0.1629
 9295SOL    HW128250   4.366   1.247   5.417  0.4338 -0.0606 -0.6253
 9295SOL    HW228251   4.311   1.328   5.301  0.3731  1.2315  0.2848
 9296SOL     OW28252   3.145   5.632   1.032  0.7839 -0.7765 -0.2148
 9296SOL    HW128253   3.151   5.658   0.940  1.5516 -0.2774 -0.0283
 9296SOL    HW228254   3.224   5.581   1.047  1.1521 -0.0202  0.4354
 9297SOL     OW28255   2.849   4.609   2.015 -0.0327 -0.2146 -0.5857
 9297SOL    HW128256   2.767   4.656   2.028  1.3175  2.0231  0.5096
 9297SOL    HW228257   2.889   4.605   2.102  1.0267 -1.2610 -1.0885
 9298SOL     OW28258   4.281   6.286   5.074 -0.2768 -0.5136  0.7739
 9298SOL    HW128259   4.316   6.197   5.079  0.8793 -0.1109  0.1364
 9298SOL    HW228260   4.312   6.319   4.990 -0.5506  0.5506  1.0850
 9299SOL     OW28261   5.546   1.775   4.587  0.3001  0.2479 -0.1884
 9299SOL    HW128262   5.517   1.736   4.669  0.5995  1.6232  0.5979
 9299SOL    HW228263   5.642   1.770   4.590  0.3055 -0.1862 -0.7225
 9300SOL     OW28264   4.180   1.713   5.020  0.2856  0.1276  0.3313
 9300SOL    HW128265   4.255   1.658   5.041  0.6261  0.5332  0.1730
 9300SOL    HW228266   4.143   1.673   4.941  1.1237  0.7032 -0.3662
 9301SOL     OW28267   0.442   2.325   1.863 -0.0510  0.1502  0.1118
 9301SOL    HW128268   0.430   2.405   1.810  2.3664  1.1123  0.8795
 9301SOL    HW228269   0.471   2.357   1.948  0.7152 -1.5496  0.5271
 9302SOL     OW28270   1.533   4.986   5.215  0.3083  0.3454 -0.3699
 9302SOL    HW128271   1.608   5.045   5.220  0.2003  0.3773  1.9551
 9302SOL    HW228272   1.572   4.899   5.206  0.6030  0.4612 -0.2457
 9303SOL     OW28273   6.589   1.212   1.606 -0.2378 -0.6527 -0.5447
 9303SOL    HW128274   6.517   1.191   1.665 -0.6549 -0.3506 -0.9368
 9303SOL    HW228275   6.643   1.274   1.654  1.0462 -2.6069  0.6569
 9304SOL     OW28276   5.632   2.408   3.396  0.0458  0.1160  0.3275
 9304SOL    HW128277   5.607   2.475   3.460  1.9578  2.3151 -1.0537
 9304SOL    HW228278   5.727   2.401   3.404 -0.0586 -2.3416  0.2442
 9305SOL     OW28279   3.147   1.400   4.401  0.0056 -0.7137 -0.0675
 9305SOL    HW128280   3.199   1.379   4.479  0.8182 -0.2033 -0.4617
 9305SOL    HW228281   3.167   1.331   4.339  1.8971  0.5714 -0.9930
 9306SOL     OW28282   2.198   1.549   6.737  0.1699  0.0609  0.1896
 9306SOL    HW128283   2.152   1.562   6.820 -0.0497  1.5996 -0.1427
 9306SOL    HW228284   2.276   1.499   6.760 -1.4064 -2.2695  0.8333
 9307SOL     OW28285   1.758   0.257   3.778  0.2909 -0.1797  0.6848
 9307SOL    HW128286   1.738   0.164   3.772 -0.3113 -0.0427  0.5277
 9307SOL    HW228287   1.693   0.292   3.839 -1.2433  0.6294 -1.3160
 9308SOL     OW28288   6.231   1.388   0.924  0.0104 -0.0641  0.0067
 9308SOL    HW128289   6.249   1.342   0.841 -4.2921 -0.5142 -0.9241
 9308SOL    HW228290   6.222   1.480   0.899 -1.3360 -0.2063 -0.0778
 9309SOL     OW28291   4.655   1.862   0.255  0.0075  0.0074  0.2964
 9309SOL    HW128292   4.678   1.945   0.214  1.1503 -0.6389 -0.4122
 9309SOL    HW228293   4.582   1.829   0.203  0.4328 -0.0662 -0.2566
 9310SOL     OW28294   3.872   1.539   6.755  0.0681 -0.2537 -0.1436
 9310SOL    HW128295   3.960   1.511   6.780  0.1126 -1.1965 -1.2673
 9310SOL    HW228296   3.867   1.523   6.661 -0.8002  1.2126 -0.3755
 9311SOL     OW28297   1.245   6.467   0.464  0.3019 -0.2751  0.4735
 9311SOL    HW128298   1.258   6.533   0.532 -2.1614  2.2183 -1.2541
 9311SOL    HW228299   1.175   6.411   0.498  0.1409  0.0193  0.6279
 9312SOL     OW28300   1.584   6.438   3.195 -0.5284  0.5886 -0.0615
 9312SOL    HW128301   1.605   6.484   3.276 -0.4202  0.2181  0.1185
 9312SOL    HW228302   1.552   6.352   3.222  1.1399 -0.1967 -0.4483
 9313SOL     OW28303   2.812   3.612   0.350 -0.2714 -0.5117  0.7334
 9313SOL    HW128304   2.885   3.586   0.294 -2.0251 -0.6621 -1.6260
 9313SOL    HW228305   2.809   3.545   0.418  0.2339 -1.9543 -0.6089
 9314SOL     OW28306   6.615   4.955   3.647 -0.5337 -0.5124 -0.8475
 9314SOL    HW128307   6.555   5.028   3.658  1.5291  1.1887 -0.2773
 9314SOL    HW228308   6.567   4.879   3.682 -1.1822  1.3285  2.6933
 9315SOL     OW28309   3.751   0.912   0.221  0.1739 -0.3930 -0.1479
 9315SOL    HW128310   3.830   0.963   0.237  1.1929 -1.2636 -1.9906
 9315SOL    HW228311   3.755   0.839   0.282 -0.4182  0.7659  1.3240
 9316SOL     OW28312   3.474   3.496   3.118  0.4539 -0.0770 -0.1214
 9316SOL    HW128313   3.489   3.472   3.210 -1.0693 -1.6559 -0.2402
 9316SOL    HW228314   3.471   3.412   3.072  0.9459  0.6874 -1.6031
 9317SOL     OW28315   6.385   2.473   4.448  0.0560 -0.2026  0.1170
 9317SOL    HW128316   6.463   2.526   4.459 -0.0409 -0.2295  1.0244
 9317SOL    HW228317   6.405   2.391   4.494 -0.9786  0.2972  1.5359
 9318SOL     OW28318   2.958   6.103   3.306 -0.1979  0.0619  0.0077
 9318SOL    HW128319   2.995   6.019   3.335 -0.0360  0.2764  0.4231
 9318SOL    HW228320   3.022   6.136   3.242 -0.3552 -0.2166 -0.3017
 9319SOL     OW28321   3.477   5.328   0.140 -0.2713  0.3423  0.1025
 9319SOL    HW128322   3.395   5.327   0.190  0.6940 -0.7956  1.7852
 9319SOL    HW228323   3.456   5.374   0.059 -2.8944 -1.0300 -0.0931
 9320SOL     OW28324   3.017   1.258   2.168 -0.2150 -0.0790 -0.2295
 9320SOL    HW128325   3.062   1.207   2.236  4.1335 -0.4546 -2.9869
 9320SOL    HW228326   2.957   1.195   2.127 -0.3402 -0.8291  1.0517
 9321SOL     OW28327   4.674   5.871   6.096  0.2621 -0.0566 -0.2585
 9321SOL    HW128328   4.612   5.895   6.165 -0.6738  0.3438 -1.2023
 9321SOL    HW228329   4.705   5.784   6.121  1.8467  1.0544  1.9379
 9322SOL     OW28330   1.138   6.791   6.275  0.3495  0.1290 -0.2629
 9322SOL    HW128331   1.114   6.785   6.367  0.9980 -2.1734 -0.1675
 9322SOL    HW228332   1.109   6.878   6.247 -1.9669  0.0129  1.5196
 9323SOL     OW28333   6.123   0.799   4.232  0.9590  0.2058  0.4477
 9323SOL    HW128334   6.197   0.739   4.219  0.9464  0.6816 -2.5642
 9323SOL    HW228335   6.056   0.768   4.170  0.4379  2.4879 -0.2156
 9324SOL     OW28336   5.962   3.298   1.997 -0.2151  0.8479 -0.7680
 9324SOL    HW128337   5.961   3.217   1.945 -0.5082  0.3904 -0.0661
 9324SOL    HW228338   5.872   3.307   2.028  0.3687  0.0347  1.2749
 9325SOL     OW28339   4.037   4.390   0.304  0.0171 -0.0619 -0.3213
 9325SOL    HW128340   4.010   4.482   0.305 -1.9688 -0.5729  1.1776
 9325SOL    HW228341   3.990   4.352   0.229 -1.4374 -0.3822  0.7012
 9326SOL     OW28342   4.516   1.727   1.072  0.0720  0.4854  0.3037
 9326SOL    HW128343   4.575   1.685   1.009  0.9681  1.8283  0.2100
 9326SOL    HW228344   4.568   1.738   1.151 -0.6843 -0.1208  0.8961
 9327SOL     OW28345   4.445   4.511   2.159 -0.3860  0.1318 -0.2654
 9327SOL    HW128346   4.455   4.437   2.099 -0.9063 -0.6693  0.6040
 9327SOL    HW228347   4.402   4.578   2.107 -0.7686 -0.5211 -0.8196
 9328SOL     OW28348   4.034   5.391   2.127 -0.2722  0.1642  0.1792
 9328SOL    HW128349   4.023   5.468   2.072 -2.2975 -0.3986 -0.2912
 9328SOL    HW228350   4.012   5.421   2.215  3.5299  1.2129  0.9745
 9329SOL     OW28351   4.008   4.132   1.594 -0.1405 -0.3336 -0.6811
 9329SOL    HW128352   3.952   4.057   1.577 -0.8001  0.2809 -1.2654
 9329SOL    HW228353   3.982   4.197   1.529  1.8672 -0.3396 -1.5498
 9330SOL     OW28354   6.149   5.620   2.156  0.7352  0.3514 -0.1169
 9330SOL    HW128355   6.107   5.534   2.165  0.8330  0.3222  0.0710
 9330SOL    HW228356   6.235   5.609   2.195  1.2190  0.2060 -1.2005
 9331SOL     OW28357   4.778   5.594   5.104  0.0482  0.2001  0.1569
 9331SOL    HW128358   4.710   5.622   5.043  1.8172  1.8006 -1.2211
 9331SOL    HW228359   4.763   5.647   5.183 -0.9131 -0.2537  0.2962
 9332SOL     OW28360   5.725   6.499   4.275 -0.1309  0.2411  0.0564
 9332SOL    HW128361   5.645   6.485   4.224 -0.0460  0.9445 -0.2827
 9332SOL    HW228362   5.794   6.507   4.210  0.1970 -0.1967  0.3430
 9333SOL     OW28363   4.337   6.011   1.237  0.1435 -0.8597  0.2830
 9333SOL    HW128364   4.387   5.960   1.173  0.6182 -0.8238  0.6212
 9333SOL    HW228365   4.366   5.979   1.322 -0.9178 -1.3182  0.4883
 9334SOL     OW28366   0.277   2.670   1.200 -0.6796  0.1403 -0.4923
 9334SOL    HW128367   0.324   2.714   1.271  0.6984 -0.8171 -0.7900
 9334SOL    HW228368   0.337   2.603   1.169 -1.9483 -0.6003 -1.4247
 9335SOL     OW28369   0.258   6.337   2.678  0.6137 -0.0323  0.0045
 9335SOL    HW128370   0.186   6.299   2.727 -0.3070  0.0849 -1.2176
 9335SOL    HW228371   0.334   6.283   2.701 -0.3305 -1.5890 -0.4394
 9336SOL     OW28372   4.486   1.990   6.012  0.4207 -0.4651 -0.2934
 9336SOL    HW128373   4.488   1.915   5.953  0.4114 -0.4114 -0.3620
 9336SOL    HW228374   4.402   1.981   6.059  1.1945 -1.4757  0.9675
 9337SOL     OW28375   5.248   2.916   0.162 -0.0076 -0.5456 -0.3491
 9337SOL    HW128376   5.208   2.969   0.231  1.0651  0.0534 -0.1631
 9337SOL    HW228377   5.330   2.961   0.142 -0.1265 -0.8982 -1.7805
 9338SOL     OW28378   1.952   4.550   1.614  0.0294  0.0010  0.4036
 9338SOL    HW128379   1.995   4.576   1.532 -0.7548 -1.1753 -0.4195
 9338SOL    HW228380   1.930   4.633   1.657  4.3429  0.7493  1.6464
 9339SOL     OW28381   1.275   3.149   6.539  0.2884 -0.1384  0.3790
 9339SOL    HW128382   1.346   3.210   6.521  0.8068 -1.0724 -0.9860
 9339SOL    HW228383   1.201   3.204   6.565  1.1073  0.9565  0.4393
 9340SOL     OW28384   6.794   4.519   2.531 -0.1957 -0.0591 -0.0683
 9340SOL    HW128385   6.747   4.466   2.596 -1.3208 -0.1970 -0.9697
 9340SOL    HW228386   6.782   4.472   2.449 -1.6883  1.8262 -1.0110
 9341SOL     OW28387   4.930   2.517   0.552 -0.1299  0.0479  0.1489
 9341SOL    HW128388   5.009   2.534   0.603 -1.5804  0.3117  2.4422
 9341SOL    HW228389   4.871   2.589   0.576 -0.4912  0.9237 -2.9251
 9342SOL     OW28390   1.647   6.115   0.731 -0.1013  0.2905  0.3925
 9342SOL    HW128391   1.612   6.152   0.812 -0.3740  0.2132  0.3102
 9342SOL    HW228392   1.703   6.043   0.761 -1.7309 -1.0150  0.4492
 9343SOL     OW28393   2.802   0.705   1.549  0.1446 -0.7739 -0.0934
 9343SOL    HW128394   2.734   0.649   1.586  0.5742 -1.6579 -0.6093
 9343SOL    HW228395   2.758   0.753   1.478  0.1795 -1.7983 -0.8387
 9344SOL     OW28396   5.772   6.259   6.279  0.0906  0.0704  0.1579
 9344SOL    HW128397   5.774   6.302   6.365 -0.3031 -0.5853  0.5020
 9344SOL    HW228398   5.826   6.315   6.223  0.4247  0.4564  0.8523
 9345SOL     OW28399   6.720   4.059   5.460  0.0099 -0.1357 -0.5656
 9345SOL    HW128400   6.778   4.128   5.494 -0.2908  0.3181 -0.9482
 9345SOL    HW228401   6.776   3.982   5.451  0.1086 -0.2586  0.8979
 9346SOL     OW28402   0.783   3.448   2.808  0.4651 -0.1731 -0.2048
 9346SOL    HW128403   0.863   3.402   2.830 -0.0349 -0.3085  1.4557
 9346SOL    HW228404   0.736   3.390   2.748  0.8461 -0.8265  0.1348
 9347SOL     OW28405   0.344   5.329   1.269 -0.0301 -0.0221 -0.3450
 9347SOL    HW128406   0.365   5.342   1.176  1.8748 -1.1719 -0.1210
 9347SOL    HW228407   0.393   5.398   1.314  0.6448 -0.6785 -0.0592
 9348SOL     OW28408   2.057   6.244   2.600  0.1356  0.5371  0.4149
 9348SOL    HW128409   1.988   6.234   2.666  0.1867  2.1221  0.7380
 9348SOL    HW228410   2.069   6.155   2.565 -0.4499 -0.1939  1.9629
 9349SOL     OW28411   3.428   4.923   1.216  0.0723 -0.5086 -0.0870
 9349SOL    HW128412   3.397   4.861   1.281 -0.6305 -0.2818 -0.2014
 9349SOL    HW228413   3.377   4.904   1.138 -0.0257  0.0972 -0.1750
 9350SOL     OW28414   2.399   0.301   3.302  0.1086  0.1753  0.3296
 9350SOL    HW128415   2.482   0.347   3.315  0.9867 -0.9610 -1.0253
 9350SOL    HW228416   2.342   0.367   3.262  0.9556  0.4569 -0.4403
 9351SOL     OW28417   2.081   4.482   2.844 -0.0447 -0.4701  0.0573
 9351SOL    HW128418   2.080   4.530   2.927 -2.8634 -1.7368  0.8384
 9351SOL    HW228419   2.061   4.549   2.778 -2.2210 -0.1688  0.9425
 9352SOL     OW28420   6.244   4.776   2.010  0.1236  0.0846 -0.5038
 9352SOL    HW128421   6.334   4.771   1.977  1.6009  1.1728  2.9178
 9352SOL    HW228422   6.233   4.868   2.035 -1.2996 -0.3756  0.7249
 9353SOL     OW28423   4.842   4.308   0.695  0.1259  0.5316 -0.3115
 9353SOL    HW128424   4.885   4.337   0.615  0.5089 -3.2124 -1.6462
 9353SOL    HW228425   4.769   4.369   0.706  2.0352  3.2175 -1.4936
 9354SOL     OW28426   0.753   4.559   0.126 -0.0328 -0.1834  0.4864
 9354SOL    HW128427   0.795   4.474   0.112  0.0484  0.2138 -2.1350
 9354SOL    HW228428   0.826   4.619   0.142 -0.0633 -0.4964  1.9189
 9355SOL     OW28429   1.635   4.320   1.370  0.0206 -0.2218  0.0003
 9355SOL    HW128430   1.694   4.326   1.444  0.4569 -0.0356 -0.3577
 9355SOL    HW228431   1.665   4.243   1.322  0.9012  0.7100 -0.9776
 9356SOL     OW28432   3.996   6.370   5.076 -0.4294 -0.1688  0.0927
 9356SOL    HW128433   3.947   6.298   5.035 -0.4945 -0.8194  1.2589
 9356SOL    HW228434   4.049   6.327   5.142  1.6392  0.5411 -1.0245
 9357SOL     OW28435   5.490   5.004   4.121 -0.3561 -0.1328 -0.0052
 9357SOL    HW128436   5.474   5.060   4.196  0.1306 -0.7636  0.5872
 9357SOL    HW228437   5.433   4.928   4.135  1.0365 -1.1015  0.6940
 9358SOL     OW28438   3.298   3.574   6.599  0.2258  0.0536  0.6175
 9358SOL    HW128439   3.356   3.647   6.580  1.0680 -0.5673  0.7608
 9358SOL    HW228440   3.213   3.601   6.563  0.9899  0.2782 -1.1427
 9359SOL     OW28441   2.322   4.025   4.404  0.1512  0.1519  0.5004
 9359SOL    HW128442   2.411   4.020   4.439  0.5884  0.6318 -0.4739
 9359SOL    HW228443   2.312   3.944   4.353  0.8279  1.0063 -1.0851
 9360SOL     OW28444   4.445   6.513   3.145  0.8039  0.3459 -0.1172
 9360SOL    HW128445   4.396   6.510   3.063 -0.7784 -0.8387  0.8041
 9360SOL    HW228446   4.488   6.428   3.151  0.8193  0.3795  0.3220
 9361SOL     OW28447   5.113   0.271   1.236 -0.4724  0.1801  0.1466
 9361SOL    HW128448   5.026   0.304   1.257 -0.1064  0.9851  0.4210
 9361SOL    HW228449   5.100   0.219   1.156 -1.4814 -1.0781  1.0753
 9362SOL     OW28450   0.414   1.472   0.560 -0.6769  0.2727  0.0644
 9362SOL    HW128451   0.489   1.422   0.592 -1.4943 -1.8869 -1.1703
 9362SOL    HW228452   0.391   1.530   0.633  1.2957 -0.0008  0.9830
 9363SOL     OW28453   3.356   3.818   5.433  0.2769 -0.0565  0.0648
 9363SOL    HW128454   3.331   3.733   5.396  2.2832 -0.1473 -1.2610
 9363SOL    HW228455   3.432   3.799   5.488  0.2513  0.7754  0.3984
 9364SOL     OW28456   1.404   5.154   4.460 -0.2250  0.3179  0.7457
 9364SOL    HW128457   1.319   5.162   4.416  0.5034 -0.0934 -0.8259
 9364SOL    HW228458   1.395   5.077   4.516 -0.1829 -1.2618 -1.2696
 9365SOL     OW28459   0.030   1.750   4.892 -0.1106 -0.1347 -0.0524
 9365SOL    HW128460  -0.003   1.732   4.979  2.0103  0.6883  1.0021
 9365SOL    HW228461  -0.013   1.832   4.866  0.5123  0.5440  0.9783
 9366SOL     OW28462   2.964   3.030   6.278  0.5911  0.1026 -0.0410
 9366SOL    HW128463   2.981   2.978   6.200  1.1360 -1.0952  0.8590
 9366SOL    HW228464   2.988   3.120   6.253 -2.1766  0.3714 -2.2330
 9367SOL     OW28465   3.990   2.530   0.646 -0.2002  0.1734 -0.2395
 9367SOL    HW128466   3.952   2.617   0.634 -0.3383  0.0598 -0.6555
 9367SOL    HW228467   3.941   2.492   0.719 -0.9526  0.0003 -0.8153
 9368SOL     OW28468   1.597   6.266   5.684  0.5123  0.0093 -0.5362
 9368SOL    HW128469   1.603   6.303   5.596 -1.7180  1.4208 -0.1822
 9368SOL    HW228470   1.563   6.177   5.670 -1.2179  0.7071 -1.0958
 9369SOL     OW28471   0.180   6.035   1.194 -0.3630 -0.3408  0.2161
 9369SOL    HW128472   0.259   6.089   1.191 -1.2292  1.0112  0.8894
 9369SOL    HW228473   0.112   6.094   1.226 -1.8752 -1.2240 -1.2279
 9370SOL     OW28474   4.328   2.815   5.441  0.4841 -0.6336 -0.0419
 9370SOL    HW128475   4.329   2.840   5.533  2.2063 -0.5124 -0.0693
 9370SOL    HW228476   4.324   2.720   5.442 -2.3012 -0.5996  0.0865
 9371SOL     OW28477   3.364   5.063   5.217 -0.3484  0.0475  0.1331
 9371SOL    HW128478   3.436   5.054   5.154 -0.9549  0.5030 -0.6385
 9371SOL    HW228479   3.408   5.066   5.303  0.4184 -1.8728 -0.1284
 9372SOL     OW28480   3.817   5.408   0.657  0.1458 -0.0944 -0.1111
 9372SOL    HW128481   3.851   5.433   0.571  0.5835  2.6775  0.7780
 9372SOL    HW228482   3.722   5.422   0.650  0.1054 -0.4155 -0.2712
 9373SOL     OW28483   4.169   6.579   1.770 -0.0708  0.1984  0.2862
 9373SOL    HW128484   4.165   6.484   1.763  0.1463 -0.2272  3.9233
 9373SOL    HW228485   4.238   6.595   1.835  0.0131  2.8643 -0.3566
 9374SOL     OW28486   1.471   2.993   6.789  0.2704 -0.3761 -0.7501
 9374SOL    HW128487   1.389   2.946   6.776  0.1876 -1.7403  3.2587
 9374SOL    HW228488   1.445   3.084   6.800 -1.2705 -1.0985  3.0653
 9375SOL     OW28489   1.595   6.392   1.937  0.1026 -0.6930  0.1489
 9375SOL    HW128490   1.540   6.317   1.958 -0.3061 -0.5046 -0.2142
 9375SOL    HW228491   1.637   6.416   2.020 -3.1710  1.4320  1.4214
 9376SOL     OW28492   3.636   5.569   5.060  0.1211  0.1695  0.6504
 9376SOL    HW128493   3.659   5.653   5.022 -0.6356  0.0557 -0.0983
 9376SOL    HW228494   3.615   5.513   4.984 -0.5340 -0.3293  1.1825
 9377SOL     OW28495   0.492   2.513   3.807 -0.2904 -0.8284 -0.4250
 9377SOL    HW128496   0.548   2.459   3.863 -1.9438 -1.4934  0.6679
 9377SOL    HW228497   0.430   2.555   3.867  0.1144  1.2934 -1.4051
 9378SOL     OW28498   4.558   0.566   3.637  0.4153 -0.0599 -0.3594
 9378SOL    HW128499   4.513   0.637   3.683  0.2104 -0.4477  0.0423
 9378SOL    HW228500   4.551   0.589   3.544  0.6257  0.6082 -0.2140
 9379SOL     OW28501   1.222   6.223   5.681 -0.2543  0.0327  0.0938
 9379SOL    HW128502   1.155   6.171   5.638  0.2501 -0.4359 -0.1284
 9379SOL    HW228503   1.183   6.248   5.765 -0.6727 -0.3043 -0.0012
 9380SOL     OW28504   5.497   4.773   0.845 -0.8023 -0.0741  0.1435
 9380SOL    HW128505   5.437   4.817   0.784 -0.0628  1.5115  0.4969
 9380SOL    HW228506   5.450   4.775   0.929 -1.4237 -1.4179 -0.1394
 9381SOL     OW28507   2.199   1.048   0.718 -0.0221 -0.0624 -0.2061
 9381SOL    HW128508   2.248   1.000   0.784  1.7011 -0.3733 -1.6087
 9381SOL    HW228509   2.128   1.091   0.766  1.3619  0.0337  1.8686
 9382SOL     OW28510   1.848   5.808   3.709 -0.0953  0.0405  0.1001
 9382SOL    HW128511   1.772   5.760   3.676 -1.9702  2.8921 -0.0861
 9382SOL    HW228512   1.870   5.869   3.639  1.9816 -0.2694  0.4375
 9383SOL     OW28513   3.335   2.075   4.129 -0.1396  0.1676  0.0962
 9383SOL    HW128514   3.371   2.118   4.051 -0.3246 -0.2885 -0.2511
 9383SOL    HW228515   3.256   2.032   4.097 -0.3138  0.1256  0.5814
 9384SOL     OW28516   0.849   0.154   4.486  0.0778 -0.7088 -0.0378
 9384SOL    HW128517   0.802   0.222   4.535 -1.0174 -1.3490 -0.1727
 9384SOL    HW228518   0.783   0.087   4.470 -0.3383  0.4525 -4.4528
 9385SOL     OW28519   5.567   2.631   5.899  0.2575 -0.5600  0.4358
 9385SOL    HW128520   5.536   2.720   5.880 -0.3660 -0.8339  0.1613
 9385SOL    HW228521   5.612   2.604   5.819  0.7978 -0.3463  0.6621
 9386SOL     OW28522   0.351   3.328   1.950 -0.3312 -0.3382  0.3557
 9386SOL    HW128523   0.315   3.268   1.884  1.2175 -1.2756  0.2974
 9386SOL    HW228524   0.356   3.412   1.906 -0.1655 -0.7560 -0.4527
 9387SOL     OW28525   1.666   6.241   2.421  0.4119  0.4815  0.2014
 9387SOL    HW128526   1.606   6.280   2.485 -2.1715 -0.9968 -1.1499
 9387SOL    HW228527   1.683   6.312   2.359 -2.9069  0.1282 -1.3275
 9388SOL     OW28528   6.023   0.150   5.759  0.3214 -0.3667 -0.6458
 9388SOL    HW128529   5.996   0.242   5.759  0.3523 -0.3516 -1.2365
 9388SOL    HW228530   6.118   0.153   5.748  0.3995 -0.4596 -0.0518
 9389SOL     OW28531   1.847   1.129   3.833 -0.5074 -0.1464  0.3783
 9389SOL    HW128532   1.769   1.182   3.816  0.3972  0.4302 -2.3555
 9389SOL    HW228533   1.820   1.040   3.808 -0.4194 -0.0076 -0.2309
 9390SOL     OW28534   0.385   0.557   0.784  0.2206 -0.8935 -0.1548
 9390SOL    HW128535   0.340   0.480   0.749 -0.3625 -1.7809  2.2700
 9390SOL    HW228536   0.422   0.526   0.867  3.4585  0.4086 -0.9617
 9391SOL     OW28537   3.298   6.693   5.403 -0.8443 -0.1023 -0.0888
 9391SOL    HW128538   3.234   6.741   5.350  0.1055  0.9588 -0.3283
 9391SOL    HW228539   3.381   6.737   5.385 -0.2847 -0.5345  1.3208
 9392SOL     OW28540   0.223   3.543   1.540 -0.1583  0.0163  0.1563
 9392SOL    HW128541   0.261   3.559   1.627  1.6362 -0.3575 -0.5233
 9392SOL    HW228542   0.271   3.467   1.507 -0.6960  0.2687 -1.2459
 9393SOL     OW28543   4.702   3.412   6.121  0.4116 -0.4609 -0.3434
 9393SOL    HW128544   4.771   3.416   6.055  1.5951 -4.2324  0.4334
 9393SOL    HW228545   4.629   3.369   6.078  0.1798 -0.4749  0.0596
 9394SOL     OW28546   1.525   1.911   2.072  0.1567  0.1685 -0.7868
 9394SOL    HW128547   1.583   1.936   2.001 -0.2415  2.2918 -0.4534
 9394SOL    HW228548   1.580   1.914   2.150 -0.5031  3.5390 -0.2629
 9395SOL     OW28549   4.274   1.622   6.666  0.4277  0.2433  0.1718
 9395SOL    HW128550   4.356   1.600   6.620  0.0771 -0.5183 -0.1144
 9395SOL    HW228551   4.214   1.648   6.596  0.1640 -0.0436  0.2881
 9396SOL     OW28552   4.417   3.967   3.308 -0.0268 -0.7537 -0.5767
 9396SOL    HW128553   4.472   3.992   3.234 -0.6811 -3.0954 -1.9240
 9396SOL    HW228554   4.441   3.877   3.327 -0.8131 -0.6347  1.2441
 9397SOL     OW28555   0.022   5.438   3.985  0.1481  0.0281 -0.2012
 9397SOL    HW128556   0.043   5.347   3.966  2.5581  0.4906 -0.1073
 9397SOL    HW228557  -0.073   5.442   3.984 -0.0300 -2.6055  0.3752
 9398SOL     OW28558   0.222   4.997   4.956  0.1334  0.0887 -0.1313
 9398SOL    HW128559   0.166   4.966   4.884 -0.0125 -0.2680  0.1298
 9398SOL    HW228560   0.184   5.081   4.981  0.0539  0.1135 -0.3318
 9399SOL     OW28561   3.683   5.528   2.227  0.2709  0.1264  0.2967
 9399SOL    HW128562   3.666   5.450   2.280 -1.3399 -1.0220 -1.7546
 9399SOL    HW228563   3.772   5.554   2.249  0.1866 -1.1787  2.3885
 9400SOL     OW28564   6.724   6.324   3.597  0.0027  0.2485  0.9405
 9400SOL    HW128565   6.643   6.279   3.574  0.9662 -1.2914  0.3658
 9400SOL    HW228566   6.755   6.362   3.515 -0.5642  1.6173  1.3330
 9401SOL     OW28567   4.931   3.246   6.648 -0.2306  0.1728 -0.2632
 9401SOL    HW128568   4.943   3.298   6.728  0.5702  0.1713 -0.3841
 9401SOL    HW228569   4.970   3.161   6.668  0.5430  0.3795 -0.8798
 9402SOL     OW28570   1.479   3.957   4.124  0.0533  0.0148  0.3128
 9402SOL    HW128571   1.453   4.049   4.132 -0.8090 -0.2431  0.6488
 9402SOL    HW228572   1.399   3.912   4.097  0.5302 -0.6042 -0.1061
 9403SOL     OW28573   6.417   1.776   5.701 -0.0358 -0.0149 -0.3951
 9403SOL    HW128574   6.349   1.808   5.761  1.2216  1.7078  0.1759
 9403SOL    HW228575   6.410   1.832   5.624  0.3700 -0.2030 -0.5724
 9404SOL     OW28576   0.842   1.303   4.747 -0.4383 -0.6659 -0.2844
 9404SOL    HW128577   0.752   1.283   4.772 -0.3070  1.1757  1.9895
 9404SOL    HW228578   0.896   1.249   4.805 -0.0771 -0.6753 -0.6247
 9405SOL     OW28579   3.549   5.226   2.881 -0.3787 -0.7752 -0.5790
 9405SOL    HW128580   3.481   5.159   2.887 -0.4210 -0.9064 -2.2503
 9405SOL    HW228581   3.502   5.309   2.889 -0.5131 -0.9020 -0.0200
 9406SOL     OW28582   1.486   4.402   0.399  0.0154 -0.2504 -0.0255
 9406SOL    HW128583   1.506   4.442   0.315 -0.3603  0.1806  0.0862
 9406SOL    HW228584   1.554   4.434   0.458  0.6893 -1.1051 -0.3194
 9407SOL     OW28585   2.553   5.752   1.072 -0.4479 -0.3544  0.1041
 9407SOL    HW128586   2.554   5.841   1.039 -0.9016 -0.9057 -1.4446
 9407SOL    HW228587   2.576   5.761   1.165 -0.5283  1.3587 -0.0138
 9408SOL     OW28588   1.749   5.263   1.675 -0.0463 -0.0139  0.0809
 9408SOL    HW128589   1.712   5.326   1.737 -0.6643  0.0424 -0.3349
 9408SOL    HW228590   1.843   5.283   1.673 -0.2767  1.0824 -0.2566
 9409SOL     OW28591   4.443   1.239   0.728  0.1604  0.4736 -0.1578
 9409SOL    HW128592   4.528   1.282   0.721  1.6293 -2.4211 -2.4241
 9409SOL    HW228593   4.387   1.287   0.668  0.2926  2.0959  0.9633
 9410SOL     OW28594   4.221   5.536   2.643 -0.3431 -0.4628 -0.0606
 9410SOL    HW128595   4.238   5.473   2.574 -2.7740  0.3823 -1.5584
 9410SOL    HW228596   4.222   5.484   2.724  1.2391 -1.7022 -0.8218
 9411SOL     OW28597   1.044   3.531   3.123 -0.1419 -0.3323 -0.0741
 9411SOL    HW128598   1.052   3.437   3.111 -1.0272 -0.8190  2.5443
 9411SOL    HW228599   0.953   3.551   3.103  0.4127  0.2970 -2.1807
 9412SOL     OW28600   0.081   3.910   4.105 -0.7294 -0.3807  0.4224
 9412SOL    HW128601   0.082   3.963   4.025  0.1787 -0.5341  0.3241
 9412SOL    HW228602   0.088   3.974   4.176 -0.7441 -0.2935  0.3446
 9413SOL     OW28603   4.611   5.558   1.922  0.6660 -0.1023  0.3760
 9413SOL    HW128604   4.614   5.592   2.012 -0.5563 -0.7218  0.6636
 9413SOL    HW228605   4.572   5.472   1.930 -2.2487  0.9640 -1.0337
 9414SOL     OW28606   1.798   0.151   5.785  0.4993 -0.1298  0.0279
 9414SOL    HW128607   1.890   0.175   5.800  0.9668 -2.0159  0.4511
 9414SOL    HW228608   1.793   0.058   5.810 -1.3259 -0.3057 -0.8314
 9415SOL     OW28609   1.091   6.742   3.838  0.7223 -0.3396 -0.3515
 9415SOL    HW128610   1.127   6.743   3.749  0.6405  1.3850 -0.4110
 9415SOL    HW228611   1.166   6.763   3.894 -0.0326  3.4504 -0.4895
 9416SOL     OW28612   2.502   4.069   2.327 -0.2104  0.4721  0.5064
 9416SOL    HW128613   2.444   4.034   2.395 -0.7931 -1.3759 -0.8674
 9416SOL    HW228614   2.588   4.069   2.368 -0.6209 -0.1291  1.4226
 9417SOL     OW28615   4.627   3.598   3.714 -0.1957  0.0837 -0.2699
 9417SOL    HW128616   4.656   3.632   3.629 -0.0368  1.8932  0.4672
 9417SOL    HW228617   4.542   3.558   3.695  0.0341  0.0568 -1.3576
 9418SOL     OW28618   5.721   0.566   2.320 -0.1415 -0.3581 -0.4352
 9418SOL    HW128619   5.630   0.558   2.348  0.4865 -0.1505  1.8141
 9418SOL    HW228620   5.736   0.489   2.265 -1.9794  0.2541 -1.9212
 9419SOL     OW28621   0.420   6.158   5.728 -0.1452 -0.4908 -0.5214
 9419SOL    HW128622   0.388   6.083   5.679 -0.8035 -2.6852  2.9272
 9419SOL    HW228623   0.499   6.126   5.772 -1.6724 -0.0250  2.8196
 9420SOL     OW28624   2.775   2.876   1.739 -0.2403 -0.1262  0.2808
 9420SOL    HW128625   2.789   2.783   1.755 -0.3916 -0.2234 -0.1390
 9420SOL    HW228626   2.764   2.914   1.826  0.7512 -0.3471  0.5163
 9421SOL     OW28627   5.266   0.496   3.705 -0.0835  0.4917  0.2714
 9421SOL    HW128628   5.184   0.465   3.743 -0.1884  1.4486  0.8515
 9421SOL    HW228629   5.291   0.570   3.760  2.2562 -1.0167  1.4115
 9422SOL     OW28630   2.728   1.034   0.518 -0.0039 -0.5270  0.1273
 9422SOL    HW128631   2.779   1.000   0.445 -0.3663  0.4462 -0.6034
 9422SOL    HW228632   2.672   1.102   0.479 -0.0110  0.2084  1.3476
 9423SOL     OW28633   5.650   1.627   3.454  0.7846 -0.4819 -0.4063
 9423SOL    HW128634   5.672   1.719   3.470 -1.5403 -0.1563  1.5986
 9423SOL    HW228635   5.732   1.580   3.468  1.5114  1.0839  1.0664
 9424SOL     OW28636   4.291   2.464   2.573 -0.0693  0.1603 -0.0644
 9424SOL    HW128637   4.286   2.392   2.511  0.3893 -0.9561  1.1609
 9424SOL    HW228638   4.201   2.478   2.601 -0.4368  1.3215 -1.6300
 9425SOL     OW28639   5.319   3.586   0.963 -0.0770  0.2713  0.1078
 9425SOL    HW128640   5.270   3.660   0.927  0.0137  0.8857  1.1884
 9425SOL    HW228641   5.352   3.539   0.887 -3.7046 -1.1498 -0.7837
 9426SOL     OW28642   6.317   2.474   2.331 -0.2704 -0.3372 -0.1763
 9426SOL    HW128643   6.401   2.450   2.291  0.2632 -0.1446  0.7778
 9426SOL    HW228644   6.279   2.390   2.358 -0.3398 -0.4188 -0.5262
 9427SOL     OW28645   3.515   3.057   0.158  0.3017  0.5410  0.0212
 9427SOL    HW128646   3.567   3.008   0.221 -0.9944 -0.5914  0.2376
 9427SOL    HW228647   3.554   3.037   0.073  0.9473  0.6624  0.2849
 9428SOL     OW28648   0.790   1.947   0.499  0.3755 -0.3965 -0.4691
 9428SOL    HW128649   0.853   1.879   0.523 -0.1412 -0.1098  2.0182
 9428SOL    HW228650   0.840   2.008   0.444  1.7364 -1.1673 -0.1334
 9429SOL     OW28651   3.325   1.991   0.063 -0.0469  0.8375  0.5318
 9429SOL    HW128652   3.389   1.964   0.129 -0.0654  0.9890  0.6114
 9429SOL    HW228653   3.241   1.962   0.098 -0.1373  1.5235  0.9030
 9430SOL     OW28654   0.072   4.081   3.897  0.2543  0.2567 -0.5348
 9430SOL    HW128655  -0.003   4.135   3.922 -1.1590 -1.4736 -0.8981
 9430SOL    HW228656   0.093   4.109   3.807 -0.7703 -0.0977 -0.8975
 9431SOL     OW28657   4.380   4.663   6.449  0.4392  0.1342  0.1552
 9431SOL    HW128658   4.328   4.638   6.372  0.0712 -1.7815  0.9536
 9431SOL    HW228659   4.465   4.688   6.414  0.1280 -0.2361 -0.9082
 9432SOL     OW28660   0.359   2.637   4.018  0.0617 -0.3318  0.7390
 9432SOL    HW128661   0.293   2.688   4.065 -0.0327  1.2455 -0.9669
 9432SOL    HW228662   0.440   2.688   4.028  0.8122 -1.7241  1.9694
 9433SOL     OW28663   0.206   5.293   4.702  0.5018 -0.0504  0.0748
 9433SOL    HW128664   0.293   5.276   4.740  0.7244  0.2200 -0.3134
 9433SOL    HW228665   0.222   5.300   4.608  0.3260  1.7096  0.1451
 9434SOL     OW28666   1.098   1.510   4.725  0.3282  0.4082  0.5383
 9434SOL    HW128667   1.039   1.436   4.714  0.2868  0.4738  0.3148
 9434SOL    HW228668   1.184   1.470   4.739 -0.1446  0.2354  3.5146
 9435SOL     OW28669   3.245   5.367   4.725  0.4178  0.1472 -0.6460
 9435SOL    HW128670   3.246   5.409   4.639  0.4075 -0.9840 -1.2194
 9435SOL    HW228671   3.246   5.274   4.706 -0.1296 -0.1297  0.5796
 9436SOL     OW28672   0.209   5.570   4.139 -0.0290 -0.2997 -0.1335
 9436SOL    HW128673   0.138   5.547   4.078  0.6790  0.4495 -1.2809
 9436SOL    HW228674   0.257   5.488   4.150  0.7808 -0.1055 -1.8991
 9437SOL     OW28675   1.966   1.220   2.516 -0.0290 -0.4943  0.3474
 9437SOL    HW128676   1.965   1.146   2.455 -0.7571  0.5561 -0.9844
 9437SOL    HW228677   1.975   1.180   2.602 -0.7252 -2.1435 -0.3032
 9438SOL     OW28678   0.410   4.948   2.745  0.2587  0.2494 -0.6174
 9438SOL    HW128679   0.423   4.882   2.813  3.1257  1.7016  0.4081
 9438SOL    HW228680   0.336   4.999   2.775 -2.1602 -2.4644 -1.5301
 9439SOL     OW28681   4.193   5.325   3.881 -0.5981 -0.2244 -0.1111
 9439SOL    HW128682   4.284   5.353   3.879 -1.3155  2.3751 -0.7141
 9439SOL    HW228683   4.196   5.231   3.896  2.1802 -0.2770 -0.6151
 9440SOL     OW28684   3.614   0.975   1.185 -0.2070 -0.2906 -0.2810
 9440SOL    HW128685   3.653   1.062   1.178  0.8940 -0.8605 -1.8017
 9440SOL    HW228686   3.664   0.921   1.123 -1.6994 -1.7043 -0.3247
 9441SOL     OW28687   3.718   0.888   6.600  0.2422  0.1691  0.5696
 9441SOL    HW128688   3.688   0.916   6.513 -0.3804 -0.6603  0.5070
 9441SOL    HW228689   3.788   0.950   6.622  2.8338 -1.6240 -1.9847
 9442SOL     OW28690   2.932   5.635   0.770  0.2611  0.6608 -0.0155
 9442SOL    HW128691   2.846   5.595   0.782  1.0959 -1.6727 -1.2204
 9442SOL    HW228692   2.967   5.646   0.858 -0.4398 -0.3150  0.3963
 9443SOL     OW28693   6.724   5.641   0.936 -0.2903  0.4869  0.2790
 9443SOL    HW128694   6.717   5.663   0.843  0.6238 -3.2724 -0.8509
 9443SOL    HW228695   6.772   5.714   0.975 -0.0513  1.8284 -2.3166
 9444SOL     OW28696   6.055   1.383   6.581  0.2113 -0.3310 -0.6264
 9444SOL    HW128697   6.149   1.364   6.587  0.0409 -1.0141  0.0265
 9444SOL    HW228698   6.047   1.439   6.504  1.0510 -0.9144 -1.1587
 9445SOL     OW28699   6.280   2.493   6.578 -0.0941  0.2788 -0.0933
 9445SOL    HW128700   6.359   2.518   6.529  0.6929 -2.5515 -0.4093
 9445SOL    HW228701   6.309   2.485   6.668 -0.4970  1.0164  0.1159
 9446SOL     OW28702   2.249   1.866   5.245 -0.4555 -0.7834 -0.2823
 9446SOL    HW128703   2.322   1.817   5.282  0.0421 -0.3595 -0.7037
 9446SOL    HW228704   2.212   1.807   5.179  0.0603 -0.6438 -0.6955
 9447SOL     OW28705   0.138   2.351   6.229  0.2048  0.2535  0.5218
 9447SOL    HW128706   0.067   2.331   6.289 -0.5827  1.3862  0.0011
 9447SOL    HW228707   0.156   2.444   6.243  0.0927  0.5075 -0.8858
 9448SOL     OW28708   2.336   6.340   1.255  0.0289  0.0410  0.2267
 9448SOL    HW128709   2.374   6.298   1.332  0.3213 -1.2410 -0.5769
 9448SOL    HW228710   2.293   6.269   1.208 -0.0667  0.7770 -0.8387
 9449SOL     OW28711   3.596   3.129   2.139 -0.4696 -0.0630  0.0559
 9449SOL    HW128712   3.514   3.086   2.164  0.1741 -0.9787  0.6201
 9449SOL    HW228713   3.602   3.205   2.197 -0.9448  0.0452 -0.0314
 9450SOL     OW28714   0.806   2.751   2.343  0.3958  0.1634  0.1433
 9450SOL    HW128715   0.766   2.759   2.257 -0.6851 -0.6212  0.5483
 9450SOL    HW228716   0.741   2.704   2.396  0.6535  1.3940  1.6369
 9451SOL     OW28717   1.489   1.195   5.024  0.0827  1.0891  0.2035
 9451SOL    HW128718   1.507   1.101   5.020 -0.4458  1.0163 -0.7750
 9451SOL    HW228719   1.427   1.205   5.095 -1.5297  0.3849 -1.0480
 9452SOL     OW28720   0.298   5.402   3.373  0.6236 -0.0075  0.3499
 9452SOL    HW128721   0.213   5.358   3.364 -0.9402  2.8456 -0.2614
 9452SOL    HW228722   0.350   5.369   3.300  0.3319 -2.2802  1.0959
 9453SOL     OW28723   0.027   3.988   0.803  0.1314  0.1823  0.2860
 9453SOL    HW128724   0.087   4.021   0.736 -1.3072  0.4821 -0.9056
 9453SOL    HW228725   0.063   4.021   0.886  2.5105 -1.0356 -0.1618
 9454SOL     OW28726   4.972   5.477   1.298  0.4621  0.0548  0.6276
 9454SOL    HW128727   5.040   5.544   1.307 -0.9898  1.4827  1.3942
 9454SOL    HW228728   4.968   5.461   1.204 -0.1102  2.1091  0.2583
 9455SOL     OW28729   6.297   1.185   4.433 -0.5284  0.1393 -0.1042
 9455SOL    HW128730   6.237   1.151   4.367  0.1530 -0.5876 -0.3742
 9455SOL    HW228731   6.267   1.148   4.515 -0.6357  0.0254 -0.1949
 9456SOL     OW28732   3.179   4.927   6.284 -0.3218  0.0139 -0.2273
 9456SOL    HW128733   3.196   4.991   6.353  1.1246  0.0670 -0.5993
 9456SOL    HW228734   3.231   4.957   6.210 -0.0200 -1.3031 -0.5764
 9457SOL     OW28735   2.564   2.179   0.967 -0.1019 -0.0473  0.1807
 9457SOL    HW128736   2.469   2.185   0.956 -0.2603  0.3333  1.6076
 9457SOL    HW228737   2.580   2.088   0.989  0.3290 -1.0819 -3.7150
 9458SOL     OW28738   4.857   2.748   2.298 -0.0009 -0.3635 -0.0188
 9458SOL    HW128739   4.784   2.782   2.350  0.0139  0.1145 -0.2952
 9458SOL    HW228740   4.851   2.653   2.305 -1.0249 -0.3484 -0.5370
 9459SOL     OW28741   0.247   0.386   6.208  0.0236  0.1440 -0.0250
 9459SOL    HW128742   0.232   0.341   6.124 -0.3980  1.9965 -0.9864
 9459SOL    HW228743   0.168   0.367   6.259 -0.4170  0.2702 -0.6402
 9460SOL     OW28744   4.909   2.426   3.777 -0.0827  0.3961  0.5711
 9460SOL    HW128745   4.988   2.418   3.831  0.1451 -0.7395  0.1115
 9460SOL    HW228746   4.856   2.350   3.800  0.3879 -0.5779 -1.3481
 9461SOL     OW28747   3.716   1.045   5.097 -0.4726  0.5054  0.6989
 9461SOL    HW128748   3.628   1.081   5.109 -0.4631 -0.1364  3.3319
 9461SOL    HW228749   3.743   1.017   5.185  1.9609 -0.2705 -0.2034
 9462SOL     OW28750   4.004   0.425   0.415  0.2492 -0.0364 -0.1913
 9462SOL    HW128751   4.089   0.431   0.458 -0.5110  1.1454  1.2396
 9462SOL    HW228752   4.005   0.340   0.371  0.9016 -1.5970  2.6258
 9463SOL     OW28753   3.834   3.688   4.854  0.0973  0.2341  0.4545
 9463SOL    HW128754   3.825   3.635   4.775 -1.3897  0.3715  0.5132
 9463SOL    HW228755   3.757   3.668   4.906  0.9288  0.3302  1.7879
 9464SOL     OW28756   4.283   2.833   0.634  0.0729  0.1296 -0.3768
 9464SOL    HW128757   4.327   2.822   0.719  0.6692  4.9544  0.2306
 9464SOL    HW228758   4.354   2.843   0.571 -0.1948  1.8491 -0.4514
 9465SOL     OW28759   5.557   4.666   2.267  0.1405 -0.0951  0.4928
 9465SOL    HW128760   5.539   4.736   2.330  0.3153  1.5474 -1.1864
 9465SOL    HW228761   5.565   4.711   2.182 -0.4952 -2.2405 -0.7968
 9466SOL     OW28762   3.988   6.035   2.209  0.1076  0.4625 -0.1278
 9466SOL    HW128763   4.024   5.951   2.237  0.5144  0.8360  0.5033
 9466SOL    HW228764   4.029   6.052   2.124  1.2354  0.7481  0.4485
 9467SOL     OW28765   6.797   0.837   5.248 -0.2976 -0.0209 -0.3452
 9467SOL    HW128766   6.872   0.790   5.285 -0.2500  1.3315  1.3974
 9467SOL    HW228767   6.769   0.896   5.318  0.2696  3.3082 -2.7403
 9468SOL     OW28768   2.919   2.859   6.506  0.2953  0.0452  0.1109
 9468SOL    HW128769   3.003   2.845   6.551 -0.4304  0.8459  1.8160
 9468SOL    HW228770   2.942   2.914   6.431  1.4149 -0.4387  0.0759
 9469SOL     OW28771   6.354   3.602   0.369 -0.2958 -0.0125  0.0593
 9469SOL    HW128772   6.334   3.658   0.443  2.3386 -0.6047  1.3502
 9469SOL    HW228773   6.438   3.562   0.391 -0.8020 -2.4837 -1.9510
 9470SOL     OW28774   2.919   3.845   1.908 -0.0745  0.6163  0.2384
 9470SOL    HW128775   2.894   3.846   2.001 -0.8544 -0.3267  0.0464
 9470SOL    HW228776   2.840   3.818   1.862  0.2396  1.3034 -0.7393
 9471SOL     OW28777   3.671   6.375   6.155 -0.0699  0.0185  0.3174
 9471SOL    HW128778   3.642   6.296   6.110  1.0120  1.1019 -2.4864
 9471SOL    HW228779   3.688   6.346   6.245 -2.9607 -2.1187  0.3249
 9472SOL     OW28780   2.731   1.333   0.139  0.0890 -0.3835 -0.2562
 9472SOL    HW128781   2.666   1.362   0.204  0.6527  0.3050  0.0116
 9472SOL    HW228782   2.688   1.260   0.094 -1.6897  1.2589 -1.4209
 9473SOL     OW28783   4.050   1.466   0.787 -0.0035 -0.6145 -0.4284
 9473SOL    HW128784   3.975   1.429   0.741 -0.8118 -0.4474  0.7025
 9473SOL    HW228785   4.018   1.548   0.824  0.9944 -0.1110 -0.6335
 9474SOL     OW28786   2.749   1.803   6.069  0.5492 -0.2171  0.7725
 9474SOL    HW128787   2.719   1.753   5.994 -0.1893  0.9687  0.2365
 9474SOL    HW228788   2.838   1.831   6.046  0.9488 -1.2288  1.0631
 9475SOL     OW28789   0.485   4.211   0.038 -0.2989 -0.2947  0.2029
 9475SOL    HW128790   0.414   4.275   0.037 -0.7370 -0.7499 -1.3326
 9475SOL    HW228791   0.480   4.169  -0.048  3.0514  0.9952 -0.7746
 9476SOL     OW28792   5.756   1.801   3.685 -0.1045  0.1151  0.0262
 9476SOL    HW128793   5.823   1.807   3.617  0.8213  3.1507  1.0571
 9476SOL    HW228794   5.793   1.741   3.749  0.1153 -0.8124 -0.9348
 9477SOL     OW28795   4.997   0.600   4.192  0.2726 -0.2919 -0.6207
 9477SOL    HW128796   4.974   0.524   4.139 -0.9537 -0.2799 -0.1544
 9477SOL    HW228797   4.958   0.674   4.146 -2.4583 -0.4796  1.1367
 9478SOL     OW28798   0.385   4.650   4.993 -0.0179  0.1865 -0.5875
 9478SOL    HW128799   0.417   4.740   5.000  1.4914 -0.3978  0.4405
 9478SOL    HW228800   0.335   4.636   5.073  0.5467 -0.1832 -0.2950
 9479SOL     OW28801   3.527   2.517   1.223 -0.1444 -0.7595 -0.0973
 9479SOL    HW128802   3.477   2.440   1.196 -1.0628 -0.5933  1.0622
 9479SOL    HW228803   3.472   2.591   1.199  0.1521 -0.5128 -0.0218
 9480SOL     OW28804   4.000   3.300   5.303  0.1393 -0.0513 -0.8461
 9480SOL    HW128805   3.917   3.347   5.295 -0.2205 -0.3255  0.8790
 9480SOL    HW228806   4.061   3.366   5.338 -0.0593 -0.5215  0.4323
 9481SOL     OW28807   1.677   0.767   6.723 -0.1317 -0.2883 -0.1948
 9481SOL    HW128808   1.723   0.702   6.776  1.2695 -0.6587 -1.7931
 9481SOL    HW228809   1.713   0.757   6.635 -1.3564  1.2751 -0.9337
 9482SOL     OW28810   5.804   2.955   4.019 -0.0450 -0.2733 -0.0690
 9482SOL    HW128811   5.867   3.023   4.047 -1.6356  0.9287  0.7364
 9482SOL    HW228812   5.852   2.873   4.028  1.5319  0.6275  0.1667
 9483SOL     OW28813   2.295   5.386   4.116  0.1723  0.3708 -0.2001
 9483SOL    HW128814   2.251   5.458   4.161 -0.4883  0.4447 -0.9322
 9483SOL    HW228815   2.291   5.313   4.178  0.6863  0.9075  0.4745
 9484SOL     OW28816   0.915   6.574   3.281  0.3337 -0.4116 -0.2204
 9484SOL    HW128817   0.867   6.652   3.306  0.6626 -0.0496 -0.6900
 9484SOL    HW228818   0.895   6.562   3.188 -1.5643 -2.2282  0.3455
 9485SOL     OW28819   5.216   0.817   5.062  0.3970  0.1208 -0.0923
 9485SOL    HW128820   5.257   0.813   5.148  0.6365 -0.6399 -0.2312
 9485SOL    HW228821   5.224   0.728   5.028 -0.4344  0.2090 -0.5576
 9486SOL     OW28822   0.666   3.331   1.388  0.3820  0.1909 -0.1631
 9486SOL    HW128823   0.716   3.374   1.318 -0.1774 -0.2564 -0.8424
 9486SOL    HW228824   0.725   3.334   1.464  1.6310 -0.6818 -1.0467
 9487SOL     OW28825   0.575   1.819   5.669  0.1919  0.3284 -0.4986
 9487SOL    HW128826   0.545   1.836   5.580 -1.0576 -0.2399 -0.2139
 9487SOL    HW228827   0.639   1.749   5.660 -1.3083 -1.0544 -0.7898
 9488SOL     OW28828   5.898   3.847   1.945 -0.0605 -0.0293  0.4901
 9488SOL    HW128829   5.881   3.868   1.853 -2.3104  0.9222  1.0498
 9488SOL    HW228830   5.898   3.931   1.989 -1.6009 -0.6112  1.6997
 9489SOL     OW28831   6.335   3.274   5.799  0.2985 -0.1064  0.5118
 9489SOL    HW128832   6.355   3.220   5.723 -0.9992 -0.0074  0.0736
 9489SOL    HW228833   6.414   3.269   5.854  1.1921 -0.3038 -0.7489
 9490SOL     OW28834   5.486   1.503   6.291  0.1501  0.6099 -0.4498
 9490SOL    HW128835   5.498   1.507   6.196  1.8224  0.9002 -0.2605
 9490SOL    HW228836   5.575   1.505   6.327 -0.4642  1.5115  1.1583
 9491SOL     OW28837   6.653   5.607   5.747  0.1190  0.6170 -0.0211
 9491SOL    HW128838   6.741   5.568   5.741 -0.3275 -0.5888  0.8895
 9491SOL    HW228839   6.597   5.535   5.775 -1.3876  1.0784 -1.6656
 9492SOL     OW28840   2.599   2.303   5.675 -0.3657  0.4965  0.3071
 9492SOL    HW128841   2.571   2.367   5.609 -1.7236  0.8920  1.2154
 9492SOL    HW228842   2.520   2.252   5.694  0.7370 -1.6668 -0.5773
 9493SOL     OW28843   0.181   3.750   1.373  0.4074 -0.7059 -0.3481
 9493SOL    HW128844   0.178   3.677   1.435  2.0600 -0.0132  0.6221
 9493SOL    HW228845   0.274   3.771   1.365  0.0363  0.7142 -1.3031
 9494SOL     OW28846   6.050   3.615   6.232  0.0891  0.4576  0.0087
 9494SOL    HW128847   5.970   3.667   6.224  0.4559  1.0904  0.3264
 9494SOL    HW228848   6.119   3.680   6.243  0.9643  0.0556 -2.3997
 9495SOL     OW28849   1.001   3.808   4.374  0.0555 -0.5805 -0.0776
 9495SOL    HW128850   1.000   3.725   4.325 -1.1775 -1.0051  0.6293
 9495SOL    HW228851   0.993   3.781   4.465  0.8288  0.2755  0.2535
 9496SOL     OW28852   6.576   5.463   1.045 -0.0180  0.1132  0.0076
 9496SOL    HW128853   6.617   5.532   0.994  0.5459 -0.7270 -0.6988
 9496SOL    HW228854   6.633   5.452   1.121  1.1479 -1.0744 -0.9854
 9497SOL     OW28855   1.933   2.757   0.871 -0.3438  0.0658 -0.1127
 9497SOL    HW128856   1.923   2.852   0.883 -1.1555  0.0543 -0.6758
 9497SOL    HW228857   1.942   2.745   0.777  1.1663 -0.3042  0.0446
 9498SOL     OW28858   0.770   2.799   0.915 -0.2463  0.5845 -0.7531
 9498SOL    HW128859   0.736   2.786   1.004 -1.2639  1.8518 -0.9374
 9498SOL    HW228860   0.862   2.823   0.928 -0.5961  1.5763  0.0170
 9499SOL     OW28861   6.775   3.036   3.604  0.3182  0.0774 -0.1375
 9499SOL    HW128862   6.733   3.120   3.585  0.4587 -0.0373 -1.0176
 9499SOL    HW228863   6.867   3.050   3.580  0.8822  0.4122  2.0293
 9500SOL     OW28864   5.282   4.082   4.843 -0.1203 -0.3265 -0.4778
 9500SOL    HW128865   5.209   4.033   4.881 -0.5250  0.4858 -0.1890
 9500SOL    HW228866   5.307   4.144   4.911  0.5184 -0.2618 -0.7657
 9501SOL     OW28867   4.419   1.734   0.161 -0.1882  0.3520  0.3942
 9501SOL    HW128868   4.352   1.787   0.206 -1.3788 -1.5568  0.9949
 9501SOL    HW228869   4.382   1.718   0.075  0.2599  0.6491  0.1435
 9502SOL     OW28870   2.746   3.368   2.505 -0.2631 -0.2320 -0.2532
 9502SOL    HW128871   2.687   3.381   2.580  0.0467 -1.2549  0.1873
 9502SOL    HW228872   2.736   3.448   2.453 -3.4543 -1.0796 -1.1814
 9503SOL     OW28873   2.904   4.817   2.912 -0.2664  0.4143 -0.1959
 9503SOL    HW128874   2.821   4.862   2.928 -1.3891 -1.1853 -1.1018
 9503SOL    HW228875   2.959   4.840   2.986 -1.3306  1.9567  0.1584
 9504SOL     OW28876   0.535   0.551   4.188 -0.1170  0.6183 -0.2865
 9504SOL    HW128877   0.471   0.593   4.244 -0.0136 -0.5549  0.7587
 9504SOL    HW228878   0.612   0.608   4.192 -0.4921  1.1141 -0.1252
 9505SOL     OW28879   3.691   0.591   4.578 -0.4088 -0.0309  0.1179
 9505SOL    HW128880   3.716   0.662   4.520  0.0252  1.2038  1.7428
 9505SOL    HW228881   3.769   0.536   4.585  0.2256  0.9727  1.1408
 9506SOL     OW28882   0.665   4.759   5.252 -0.3109 -1.0378 -0.0663
 9506SOL    HW128883   0.752   4.723   5.237  0.8415  0.7789  1.6358
 9506SOL    HW228884   0.655   4.828   5.186  0.6573  0.4114  1.2186
 9507SOL     OW28885   1.245   3.740   4.948  0.2129 -0.2052 -0.2973
 9507SOL    HW128886   1.158   3.716   4.916  0.7867 -1.0135 -1.2960
 9507SOL    HW228887   1.238   3.833   4.971 -0.3359  0.3276 -2.4447
 9508SOL     OW28888   4.401   2.929   3.586  0.5055 -0.0586 -0.3997
 9508SOL    HW128889   4.361   2.867   3.648 -0.7158  1.1710  0.0755
 9508SOL    HW228890   4.425   3.004   3.640  1.6382  0.0550 -1.0383
 9509SOL     OW28891   4.099   6.426   2.729  0.7572 -0.1841 -0.3623
 9509SOL    HW128892   4.012   6.387   2.735  1.8587 -2.9715 -0.7554
 9509SOL    HW228893   4.088   6.501   2.671 -1.4931 -0.0248  0.1848
 9510SOL     OW28894   3.188   0.254   6.373  0.1901 -0.6333  0.8172
 9510SOL    HW128895   3.114   0.293   6.420 -0.2339  0.6065 -0.8272
 9510SOL    HW228896   3.254   0.323   6.371 -1.3353  1.0568 -3.9521
 9511SOL     OW28897   0.976   5.445   2.048  0.9197  0.0104  0.2424
 9511SOL    HW128898   0.903   5.457   2.108  0.7722 -0.9801  0.2788
 9511SOL    HW228899   0.991   5.531   2.010 -1.5258 -0.1035 -1.2130
 9512SOL     OW28900   0.880   1.159   2.226 -0.7067  0.2440  0.1156
 9512SOL    HW128901   0.838   1.091   2.279  0.9239 -2.0064 -1.2408
 9512SOL    HW228902   0.949   1.194   2.282  0.0693 -1.0817  0.0453
 9513SOL     OW28903   0.324   1.589   2.582  0.3299 -0.1086 -0.1286
 9513SOL    HW128904   0.412   1.626   2.586  0.3648 -0.2479  0.7547
 9513SOL    HW228905   0.268   1.654   2.624 -0.0965  0.2431 -1.2140
 9514SOL     OW28906   2.884   3.162   3.525 -0.5878 -0.8302 -0.1363
 9514SOL    HW128907   2.880   3.150   3.430  0.7265 -1.5322 -0.1208
 9514SOL    HW228908   2.969   3.203   3.541 -0.2280 -1.8851  0.8296
 9515SOL     OW28909   2.605   1.903   1.015  0.1420  0.0335 -0.1723
 9515SOL    HW128910   2.650   1.836   1.066  1.3861  1.2535  0.4086
 9515SOL    HW228911   2.618   1.878   0.924  0.2915 -0.6781  0.0416
 9516SOL     OW28912   0.380   4.791   2.996 -0.0177 -0.3825 -0.7498
 9516SOL    HW128913   0.320   4.718   2.988  0.1249 -0.6919  0.7978
 9516SOL    HW228914   0.340   4.849   3.061  0.8500 -0.0953 -0.4473
 9517SOL     OW28915   5.270   2.236   0.085  0.8064  0.8045 -0.1297
 9517SOL    HW128916   5.214   2.281   0.021 -0.6041  0.1268  0.5715
 9517SOL    HW228917   5.291   2.303   0.150 -0.4796  0.7322  0.3974
 9518SOL     OW28918   1.331   3.501   4.397 -0.7963 -0.7465 -0.1797
 9518SOL    HW128919   1.320   3.479   4.490  0.4485 -1.7470 -0.2440
 9518SOL    HW228920   1.371   3.588   4.398  1.5554 -1.7564  0.3456
 9519SOL     OW28921   2.587   2.303   0.394 -0.3220  0.1664 -0.2129
 9519SOL    HW128922   2.626   2.216   0.396 -1.1724 -0.2144  0.9975
 9519SOL    HW228923   2.500   2.289   0.357 -0.7487  0.3598  0.6890
 9520SOL     OW28924   4.536   1.157   3.288 -0.3815 -0.4534  0.1702
 9520SOL    HW128925   4.512   1.081   3.234  0.0670  1.5230 -3.0626
 9520SOL    HW228926   4.631   1.155   3.291 -0.3247  0.3766 -0.6315
 9521SOL     OW28927   2.226   2.712   3.931  0.2001 -0.2921 -0.3461
 9521SOL    HW128928   2.261   2.798   3.911  1.2742 -0.6670 -0.1640
 9521SOL    HW228929   2.212   2.713   4.026 -2.7939  0.7245 -0.6760
 9522SOL     OW28930   3.029   4.907   2.670  0.2455 -0.2665  0.4519
 9522SOL    HW128931   2.994   4.869   2.750  2.2399 -0.2617  1.3853
 9522SOL    HW228932   3.033   5.001   2.688  0.2533 -0.2129  0.1738
 9523SOL     OW28933   5.431   3.525   4.143  0.2996 -0.4838 -0.3730
 9523SOL    HW128934   5.520   3.508   4.112  0.6408 -0.8016  0.7295
 9523SOL    HW228935   5.384   3.443   4.129  0.3532 -0.5120 -0.3871
 9524SOL     OW28936   2.463   3.109   5.643 -0.0968  0.0764  0.0417
 9524SOL    HW128937   2.480   3.198   5.674 -1.4578  0.4460 -0.2254
 9524SOL    HW228938   2.546   3.081   5.604  0.5165  1.0078  0.6408
 9525SOL     OW28939   5.184   5.744   1.599  0.1644 -0.0990  0.4695
 9525SOL    HW128940   5.181   5.659   1.643  1.1167  0.8177  2.4526
 9525SOL    HW228941   5.107   5.791   1.632 -0.4410 -0.2056 -0.7315
 9526SOL     OW28942   1.947   3.989   3.148 -0.0482 -0.1471 -0.3381
 9526SOL    HW128943   2.037   3.959   3.134 -0.2128 -0.2537 -1.2658
 9526SOL    HW228944   1.905   3.917   3.196 -0.3089 -1.2522 -2.1135
 9527SOL     OW28945   5.576   4.950   2.199  0.0996  0.4157 -0.2104
 9527SOL    HW128946   5.519   4.916   2.130 -0.1016 -0.1153  0.2162
 9527SOL    HW228947   5.621   5.024   2.158 -0.2030  0.2603 -0.8352
 9528SOL     OW28948   5.308   5.159   2.951  0.1403 -0.2352  0.2063
 9528SOL    HW128949   5.387   5.128   2.997  0.8456  0.0485 -0.7750
 9528SOL    HW228950   5.244   5.173   3.020  0.6854 -1.2601  0.9481
 9529SOL     OW28951   2.773   5.207   2.412 -0.0698 -0.0462  0.1580
 9529SOL    HW128952   2.867   5.220   2.403 -0.1914  0.2304 -0.8209
 9529SOL    HW228953   2.751   5.145   2.343 -0.5731 -0.3047  0.5432
 9530SOL     OW28954   3.269   0.853   3.977 -0.2019 -0.6075  0.2339
 9530SOL    HW128955   3.204   0.845   3.908 -0.0871  1.0305 -0.1129
 9530SOL    HW228956   3.248   0.935   4.021  0.6127 -0.8945  1.2198
 9531SOL     OW28957   3.483   5.329   1.878  0.1416  0.2250 -0.5281
 9531SOL    HW128958   3.409   5.275   1.850 -0.4511  0.2674  0.8728
 9531SOL    HW228959   3.509   5.292   1.962  0.2364  1.6280  0.0795
 9532SOL     OW28960   1.913   5.153   4.016 -0.0550 -0.7318 -0.5714
 9532SOL    HW128961   1.845   5.212   4.049 -0.3378 -1.2601 -0.2105
 9532SOL    HW228962   1.937   5.100   4.092 -0.8515 -2.1030 -1.2508
 9533SOL     OW28963   6.457   5.532   4.875  0.3203  0.5318  0.4199
 9533SOL    HW128964   6.442   5.617   4.916  0.5398  0.2229  1.1748
 9533SOL    HW228965   6.527   5.547   4.811  0.3556  0.9206  0.5497
 9534SOL     OW28966   0.154   2.565   0.482 -0.5303  0.0848 -0.2838
 9534SOL    HW128967   0.171   2.540   0.391  0.8687  0.7661 -0.2513
 9534SOL    HW228968   0.224   2.523   0.532 -0.3690  0.9557  0.2519
 9535SOL     OW28969   3.649   5.566   4.460 -0.4466 -0.1141  0.2636
 9535SOL    HW128970   3.689   5.551   4.375 -1.8089  0.8695 -0.5899
 9535SOL    HW228971   3.608   5.482   4.483 -0.1252 -0.3606 -0.0572
 9536SOL     OW28972   2.120   2.480   6.053 -0.1483  0.1432 -0.2859
 9536SOL    HW128973   2.173   2.472   5.974 -0.6366 -0.0775 -0.5912
 9536SOL    HW228974   2.149   2.408   6.109  1.6705  1.4786  0.6273
 9537SOL     OW28975   4.953   1.518   1.500  0.3892  0.0707  0.0675
 9537SOL    HW128976   4.947   1.583   1.570 -1.5646 -0.0844  0.1087
 9537SOL    HW228977   4.957   1.434   1.545 -1.7271 -0.0892  0.0714
 9538SOL     OW28978   1.714   0.404   2.221 -0.6663 -0.0062 -1.0018
 9538SOL    HW128979   1.667   0.379   2.300 -0.3843 -2.5887 -1.5778
 9538SOL    HW228980   1.748   0.492   2.240  0.7275 -1.1383  2.3636
 9539SOL     OW28981   1.388   0.329   0.944 -0.0525  0.1584 -0.1510
 9539SOL    HW128982   1.480   0.306   0.930 -0.8116 -3.1228 -0.4277
 9539SOL    HW228983   1.389   0.380   1.026  2.2387  2.7946 -1.6281
 9540SOL     OW28984   0.918   5.512   2.741 -0.7309 -0.1354  0.5739
 9540SOL    HW128985   0.866   5.561   2.678 -0.7039  3.1386  2.8135
 9540SOL    HW228986   1.009   5.525   2.713 -0.8167 -0.4756  0.1387
 9541SOL     OW28987   3.579   4.158   0.129 -0.1843 -0.0933 -0.1814
 9541SOL    HW128988   3.554   4.074   0.090  0.2206  0.4937 -1.7518
 9541SOL    HW228989   3.545   4.153   0.219 -0.2222 -1.9056 -0.2527
 9542SOL     OW28990   4.513   3.409   2.564  0.1765 -0.6676 -0.4950
 9542SOL    HW128991   4.607   3.413   2.581  0.0133 -0.1214  0.3191
 9542SOL    HW228992   4.497   3.481   2.502  0.0895  0.1385  0.4337
 9543SOL     OW28993   2.153   4.182   2.077 -0.7044 -0.0115  0.1594
 9543SOL    HW128994   2.123   4.160   1.989  0.0956 -0.0479 -0.1058
 9543SOL    HW228995   2.143   4.278   2.081 -0.5033  0.0199 -0.0586
 9544SOL     OW28996   2.391   0.200   3.557 -0.1390 -0.3508 -1.3214
 9544SOL    HW128997   2.375   0.238   3.471  0.6603 -0.8901 -1.7154
 9544SOL    HW228998   2.393   0.105   3.542  0.8425 -0.4162 -0.8710
 9545SOL     OW28999   0.846   3.001   3.559  0.3533  0.8386  0.0665
 9545SOL    HW129000   0.904   2.979   3.486 -0.4348  0.3977 -0.4437
 9545SOL    HW229001   0.847   2.923   3.615  0.9569  1.1766  0.5357
 9546SOL     OW29002   6.541   3.704   4.818 -0.3467  0.2035 -0.3215
 9546SOL    HW129003   6.548   3.766   4.891  0.7718 -1.1692  0.7897
 9546SOL    HW229004   6.471   3.741   4.763 -1.1490  1.3604  1.3611
 9547SOL     OW29005   3.225   4.407   4.708  0.3797  0.5173  0.6815
 9547SOL    HW129006   3.208   4.402   4.802 -0.3701 -0.2022  0.5187
 9547SOL    HW229007   3.309   4.451   4.701 -0.1986  1.8265  1.6353
 9548SOL     OW29008   1.373   5.200   5.885 -0.1191  0.4405 -0.2284
 9548SOL    HW129009   1.356   5.161   5.800 -1.2663  0.4496 -0.0157
 9548SOL    HW229010   1.348   5.133   5.949 -0.9369  1.0540  0.1175
 9549SOL     OW29011   2.414   4.439   5.775  0.0853  0.9659  0.1292
 9549SOL    HW129012   2.327   4.433   5.736 -0.2350  0.7265  0.8543
 9549SOL    HW229013   2.462   4.364   5.739  0.3415  1.6811 -1.0786
 9550SOL     OW29014   2.593   5.428   4.293  0.1455  0.4694  0.4836
 9550SOL    HW129015   2.633   5.373   4.361 -0.3603 -0.4646  0.0451
 9550SOL    HW229016   2.504   5.394   4.285  0.0320  0.9306 -0.2746
 9551SOL     OW29017   0.312   2.198   0.217 -0.3073 -0.0878 -0.8228
 9551SOL    HW129018   0.234   2.209   0.162 -0.4753 -1.0111 -0.8015
 9551SOL    HW229019   0.357   2.122   0.179 -0.1826 -0.4483  0.0271
 9552SOL     OW29020   3.826   6.146   3.709  0.2175  0.1750  0.1088
 9552SOL    HW129021   3.745   6.164   3.662 -1.0650 -1.1418  1.7119
 9552SOL    HW229022   3.822   6.052   3.728  0.6767  0.6207  2.7706
 9553SOL     OW29023   3.242   5.424   1.231  0.1718  0.0124  0.1944
 9553SOL    HW129024   3.155   5.433   1.269  0.4302 -0.3298  0.8881
 9553SOL    HW229025   3.269   5.335   1.254 -0.0172 -0.5377 -1.5624
 9554SOL     OW29026   6.356   2.801   3.056 -0.0935  0.4885 -0.4712
 9554SOL    HW129027   6.305   2.729   3.019  2.2779 -0.2769 -2.5831
 9554SOL    HW229028   6.416   2.758   3.117 -0.4668  1.0826  0.3341
 9555SOL     OW29029   1.502   1.256   1.247  0.2646 -0.0339  0.6652
 9555SOL    HW129030   1.429   1.259   1.184 -1.1662 -1.8914  2.1085
 9555SOL    HW229031   1.563   1.322   1.216 -0.3992 -0.7739 -2.6311
 9556SOL     OW29032   2.383   1.906   1.544 -0.3953  0.1076  0.0310
 9556SOL    HW129033   2.444   1.918   1.471  0.7688 -0.6524  0.8324
 9556SOL    HW229034   2.350   1.994   1.562  0.4935  0.5542 -0.4103
 9557SOL     OW29035   4.487   5.280   5.491 -0.3282 -0.3132 -0.3464
 9557SOL    HW129036   4.490   5.314   5.402  0.3514  0.5517 -0.0192
 9557SOL    HW229037   4.403   5.234   5.497 -1.7147  2.0076 -0.6160
 9558SOL     OW29038   0.708   2.307   1.803 -0.8275  0.0743 -0.5765
 9558SOL    HW129039   0.753   2.227   1.776  0.3561  0.4023  0.3525
 9558SOL    HW229040   0.615   2.289   1.787 -0.6493 -1.7257  0.2371
 9559SOL     OW29041   0.792   6.125   6.621 -0.2398  0.1817 -0.1626
 9559SOL    HW129042   0.879   6.155   6.646  0.5693  0.4965 -3.0636
 9559SOL    HW229043   0.761   6.191   6.559 -1.5651 -1.1367 -0.9610
 9560SOL     OW29044   0.238   3.415   0.159  0.0600 -0.3628 -0.1314
 9560SOL    HW129045   0.222   3.473   0.085 -0.0657 -1.1688 -0.7468
 9560SOL    HW229046   0.247   3.474   0.234  2.7124  0.6389 -1.1468
 9561SOL     OW29047   3.622   6.370   5.432 -0.4318 -0.3515 -0.0598
 9561SOL    HW129048   3.558   6.417   5.377 -2.4480 -1.7962  0.9131
 9561SOL    HW229049   3.707   6.399   5.399 -1.4304  3.8768  0.3746
 9562SOL     OW29050   4.189   2.544   1.452 -1.0211 -0.5850  0.0508
 9562SOL    HW129051   4.195   2.571   1.360  0.5505  0.0154  0.3066
 9562SOL    HW229052   4.151   2.457   1.449  0.9252 -1.4540 -1.3495
 9563SOL     OW29053   5.452   5.786   1.571 -0.2428  0.5226 -0.1931
 9563SOL    HW129054   5.357   5.782   1.584 -0.2388  2.4295  0.7373
 9563SOL    HW229055   5.467   5.873   1.534  1.1308  0.1293 -0.6040
 9564SOL     OW29056   2.526   0.028   6.026 -0.1100 -0.4862 -0.4395
 9564SOL    HW129057   2.536  -0.058   5.983  0.5941 -0.4704 -0.3271
 9564SOL    HW229058   2.606   0.038   6.077 -0.9640 -0.5301  0.9502
 9565SOL     OW29059   4.418   3.152   3.372 -0.1934  0.1114  0.3185
 9565SOL    HW129060   4.426   3.069   3.326  0.4309  0.3259  0.0251
 9565SOL    HW229061   4.450   3.218   3.310 -0.9825  0.6118  0.4276
 9566SOL     OW29062   0.185   1.601   4.403 -0.2693 -0.0701  0.0589
 9566SOL    HW129063   0.120   1.658   4.362 -0.6900 -0.6289 -0.0754
 9566SOL    HW229064   0.157   1.594   4.495 -0.3224 -0.1982  0.0336
 9567SOL     OW29065   6.744   4.938   2.408  0.2671  0.2151 -0.1448
 9567SOL    HW129066   6.806   5.010   2.418 -0.1019  0.6203 -0.7476
 9567SOL    HW229067   6.748   4.892   2.492  0.7554  0.7341  0.1251
 9568SOL     OW29068   0.873   3.842   2.138 -0.2656  0.0165  0.0343
 9568SOL    HW129069   0.895   3.748   2.138 -1.0324 -0.1697  0.0145
 9568SOL    HW229070   0.951   3.884   2.102  1.0755 -0.3603  2.2971
 9569SOL     OW29071   4.781   5.326   0.737 -0.4690  0.1784  0.2326
 9569SOL    HW129072   4.756   5.403   0.686  0.6568  0.8234  0.6253
 9569SOL    HW229073   4.876   5.328   0.738 -0.4540 -0.1133  1.9293
 9570SOL     OW29074   5.701   4.115   6.129  0.1911 -0.3072  0.2072
 9570SOL    HW129075   5.768   4.102   6.062 -0.6915 -1.4846 -0.4898
 9570SOL    HW229076   5.658   4.030   6.136 -1.8171  0.6320 -0.0231
 9571SOL     OW29077   3.302   5.096   0.337  0.4167 -0.4479  0.2126
 9571SOL    HW129078   3.215   5.090   0.298  0.7891  0.4316 -0.8241
 9571SOL    HW229079   3.344   5.013   0.313  0.4190 -0.1846 -0.7718
 9572SOL     OW29080   2.947   6.462   3.749 -0.0931 -0.1817 -0.3569
 9572SOL    HW129081   2.877   6.397   3.754 -0.3845 -0.0260 -1.8880
 9572SOL    HW229082   2.901   6.546   3.758 -0.1022 -0.0889 -1.1674
 9573SOL     OW29083   6.197   5.118   4.366  0.1648  0.3966  0.1886
 9573SOL    HW129084   6.130   5.094   4.430  0.8884  2.1613  1.6926
 9573SOL    HW229085   6.192   5.049   4.299  0.3274 -2.3405  2.7984
 9574SOL     OW29086   4.296   4.626   0.858 -0.6363 -1.0691  0.1183
 9574SOL    HW129087   4.320   4.551   0.912 -2.6448 -0.5418  1.8360
 9574SOL    HW229088   4.314   4.702   0.913 -1.3480 -0.4373 -0.5082
 9575SOL     OW29089   1.249   6.094   0.993 -0.1472  0.5214  0.3878
 9575SOL    HW129090   1.249   6.002   1.020 -0.1002  0.7582  1.2473
 9575SOL    HW229091   1.193   6.137   1.057  0.5698  1.2410  0.5531
 9576SOL     OW29092   4.452   4.110   1.365  0.5169 -0.1234  0.2893
 9576SOL    HW129093   4.536   4.109   1.410  1.0552  3.1153 -0.4242
 9576SOL    HW229094   4.397   4.168   1.417  0.3753  1.7683 -1.8221
 9577SOL     OW29095   0.774   5.236   5.868 -0.1910 -0.0823  0.5922
 9577SOL    HW129096   0.683   5.242   5.840  0.6301  5.1623 -2.2706
 9577SOL    HW229097   0.772   5.258   5.961 -1.8701  2.4230  0.0835
 9578SOL     OW29098   3.391   4.363   3.073 -0.2202 -0.4027 -0.3560
 9578SOL    HW129099   3.345   4.382   2.991 -1.2910 -0.8368  0.1247
 9578SOL    HW229100   3.325   4.320   3.128  1.0552 -2.0770 -0.0383
 9579SOL     OW29101   3.935   3.887   6.624  0.1954 -0.2732 -0.0788
 9579SOL    HW129102   3.936   3.960   6.562  0.0583  0.1933  0.4677
 9579SOL    HW229103   4.014   3.899   6.677 -0.4083  0.1043  0.7367
 9580SOL     OW29104   6.575   6.731   1.507 -0.3098  0.6268  0.0970
 9580SOL    HW129105   6.606   6.816   1.538 -2.0280  1.2931  0.1241
 9580SOL    HW229106   6.484   6.747   1.482 -1.4042 -1.6749  2.1529
 9581SOL     OW29107   2.723   1.043   5.513 -0.2101  0.2412 -0.0494
 9581SOL    HW129108   2.635   1.072   5.489 -0.7470 -0.9754  0.3361
 9581SOL    HW229109   2.731   0.956   5.475  0.7781  0.2802  0.0424
 9582SOL     OW29110   2.383   2.279   2.399  0.0922 -0.2912  0.3758
 9582SOL    HW129111   2.333   2.357   2.376  2.1801 -0.1018 -5.0087
 9582SOL    HW229112   2.334   2.207   2.359  0.7271 -1.0343  0.9000
 9583SOL     OW29113   3.164   4.964   1.866  0.4776 -0.2668  0.4547
 9583SOL    HW129114   3.091   4.902   1.861  1.1426 -1.1369  1.2386
 9583SOL    HW229115   3.228   4.921   1.923  1.1624  0.9370  0.6131
 9584SOL     OW29116   4.408   2.026   4.177  0.4740  0.2004 -0.1534
 9584SOL    HW129117   4.353   2.012   4.101  0.0807 -1.7097  0.4228
 9584SOL    HW229118   4.375   2.107   4.217  0.1001  0.7141 -1.4718
 9585SOL     OW29119   5.394   5.333   5.937  0.0862  0.1009  0.5860
 9585SOL    HW129120   5.319   5.318   5.994 -0.9195 -2.4691 -1.2466
 9585SOL    HW229121   5.470   5.308   5.990 -0.7801 -1.7354  1.0501
 9586SOL     OW29122   2.252   1.516   4.963 -0.5385 -0.0136 -0.0727
 9586SOL    HW129123   2.259   1.486   5.053  2.1777  1.3895  0.2900
 9586SOL    HW229124   2.224   1.607   4.969 -0.9080 -0.0812 -0.6653
 9587SOL     OW29125   0.841   5.932   6.383  0.1287 -0.0870  0.0723
 9587SOL    HW129126   0.920   5.881   6.367  1.0866  1.3917 -0.1054
 9587SOL    HW229127   0.870   6.023   6.377 -1.4586  0.4870  0.6589
 9588SOL     OW29128   3.892   3.189   6.771 -0.3896  0.6146  0.2049
 9588SOL    HW129129   3.875   3.105   6.814 -0.4388  0.5247  0.0147
 9588SOL    HW229130   3.982   3.211   6.796 -0.2797  0.3697  0.0427
 9589SOL     OW29131   5.321   0.483   4.646 -0.4810  0.3062  0.6012
 9589SOL    HW129132   5.318   0.460   4.739 -3.5700 -0.6193  0.4003
 9589SOL    HW229133   5.266   0.417   4.604 -0.4568  1.6323 -1.6515
 9590SOL     OW29134   6.241   6.763   2.041 -0.0082 -0.0596  0.6961
 9590SOL    HW129135   6.168   6.788   1.984 -1.2027 -2.0115  1.2767
 9590SOL    HW229136   6.232   6.819   2.118  0.2800  1.0294 -0.0374
 9591SOL     OW29137   4.830   2.371   6.685 -0.1892 -0.1445  0.0783
 9591SOL    HW129138   4.749   2.392   6.639  0.6261  1.8933 -0.5325
 9591SOL    HW229139   4.829   2.428   6.762  0.6693 -0.0800  0.0500
 9592SOL     OW29140   1.368   6.042   5.829 -0.2942  1.1319 -0.1225
 9592SOL    HW129141   1.351   5.955   5.793 -0.6425  1.1304  0.0480
 9592SOL    HW229142   1.322   6.102   5.770 -1.7095  1.0641  0.8700
 9593SOL     OW29143   5.317   0.982   1.307 -0.3596 -0.1004  0.2456
 9593SOL    HW129144   5.388   0.980   1.372  1.3058  0.0735 -1.4845
 9593SOL    HW229145   5.292   1.074   1.302  0.0196 -0.0024  0.1230
 9594SOL     OW29146   5.946   5.860   2.635 -0.2125  0.2724 -0.3654
 9594SOL    HW129147   5.983   5.917   2.568  0.4585 -0.0340 -0.2709
 9594SOL    HW229148   5.981   5.895   2.717 -0.3811  0.1621 -0.2463
 9595SOL     OW29149   4.037   6.320   4.665  0.0814  0.2573 -0.0087
 9595SOL    HW129150   3.942   6.323   4.652  0.1615 -1.3348 -1.4122
 9595SOL    HW229151   4.060   6.228   4.649  1.7429  0.3898  1.3385
 9596SOL     OW29152   1.076   4.435   0.153  0.2097  0.8390  0.0090
 9596SOL    HW129153   1.114   4.462   0.237  0.4464  1.1110 -0.1848
 9596SOL    HW229154   1.024   4.358   0.175 -0.1780  1.2315  0.5061
 9597SOL     OW29155   4.938   4.260   6.591 -0.3230 -0.6516 -0.4304
 9597SOL    HW129156   5.023   4.302   6.576 -0.7564  0.4871  0.1888
 9597SOL    HW229157   4.956   4.195   6.660 -0.1309  0.2614  0.4113
 9598SOL     OW29158   3.287   0.544   1.782  0.4177  0.0910  0.3096
 9598SOL    HW129159   3.247   0.519   1.699  0.6317 -0.2976  0.3173
 9598SOL    HW229160   3.373   0.502   1.780  0.7055  0.6666  0.4233
 9599SOL     OW29161   2.184   4.703   3.590 -0.2696 -0.1045  0.2834
 9599SOL    HW129162   2.264   4.681   3.543 -0.5453  0.8948 -0.6949
 9599SOL    HW229163   2.116   4.705   3.522 -1.1602 -1.0632  1.1123
 9600SOL     OW29164   5.037   2.663   4.438 -0.0557  0.3106  0.5066
 9600SOL    HW129165   5.031   2.741   4.492  0.7010  0.9903 -0.3498
 9600SOL    HW229166   5.069   2.695   4.353  1.0374 -1.0155  0.3795
 9601SOL     OW29167   1.705   3.197   5.615  0.1899  0.0815 -0.0489
 9601SOL    HW129168   1.776   3.140   5.586  0.7457  0.6931  0.0968
 9601SOL    HW229169   1.696   3.180   5.708 -1.4444 -1.7161 -0.4649
 9602SOL     OW29170   6.678   3.396   6.076 -0.8984  0.4891  0.0044
 9602SOL    HW129171   6.732   3.446   6.015 -0.1361 -2.0027 -1.4882
 9602SOL    HW229172   6.689   3.442   6.160  1.3186  1.6642 -0.8440
 9603SOL     OW29173   5.414   4.864   1.979  0.6896 -0.4323 -0.2075
 9603SOL    HW129174   5.423   4.776   1.943  1.5304 -0.4175 -0.0344
 9603SOL    HW229175   5.319   4.873   1.994  0.5670 -1.2126 -0.4428
 9604SOL     OW29176   2.630   5.730   4.415 -0.0490 -0.5445 -0.0108
 9604SOL    HW129177   2.589   5.646   4.438  0.9743 -1.3311 -0.9579
 9604SOL    HW229178   2.641   5.726   4.320 -0.2562  0.8069 -0.0989
 9605SOL     OW29179   0.049   0.823   0.350  0.1208 -0.4557  0.6923
 9605SOL    HW129180   0.072   0.818   0.443 -1.1052  0.2783  1.0520
 9605SOL    HW229181   0.089   0.745   0.312  2.1931  0.1558  1.4658
 9606SOL     OW29182   1.640   3.571   6.522  0.2799 -0.0038  0.1786
 9606SOL    HW129183   1.713   3.610   6.570 -0.1256  2.6983 -1.1974
 9606SOL    HW229184   1.562   3.614   6.557 -0.3036 -0.2121 -0.8043
 9607SOL     OW29185   1.427   3.381   2.257 -0.0054 -0.0864  0.0102
 9607SOL    HW129186   1.439   3.291   2.286  0.6751  0.1450  0.4805
 9607SOL    HW229187   1.382   3.425   2.329 -0.6501 -0.1325 -0.3617
 9608SOL     OW29188   3.677   6.487   6.498 -0.2505  0.0672  0.3808
 9608SOL    HW129189   3.613   6.524   6.559  0.8609 -0.3384  1.8356
 9608SOL    HW229190   3.677   6.548   6.424 -2.8703 -0.3370 -0.0430
 9609SOL     OW29191   1.690   3.821   5.257  0.5660  0.5825 -0.1031
 9609SOL    HW129192   1.696   3.853   5.166 -2.0215  1.2345 -0.1226
 9609SOL    HW229193   1.742   3.884   5.307 -0.0683  1.7549 -0.8471
 9610SOL     OW29194   0.813   6.694   2.443  0.1322 -0.0584  0.2456
 9610SOL    HW129195   0.875   6.629   2.409  0.6148 -0.3942  1.7223
 9610SOL    HW229196   0.767   6.650   2.514 -1.3464  0.4213 -0.3616
 9611SOL     OW29197   3.447   5.505   0.889 -0.4143 -0.5612  0.6943
 9611SOL    HW129198   3.430   5.544   0.803 -0.6017  0.5076  1.2021
 9611SOL    HW229199   3.537   5.474   0.884 -0.3566 -0.3252  0.1911
 9612SOL     OW29200   2.802   0.121   2.096 -0.4500  0.2818 -0.3933
 9612SOL    HW129201   2.840   0.073   2.023 -1.2281 -1.0537  0.0251
 9612SOL    HW229202   2.758   0.196   2.056 -0.3997 -0.1244 -1.2322
 9613SOL     OW29203   1.971   0.491   6.338  0.1436 -0.1029 -0.4018
 9613SOL    HW129204   1.977   0.419   6.275 -1.3786 -0.7962  0.1814
 9613SOL    HW229205   1.973   0.571   6.285  0.9162 -0.6059 -1.1354
 9614SOL     OW29206   0.087   3.128   2.921  0.1279 -0.3147  0.3885
 9614SOL    HW129207   0.096   3.038   2.890 -0.0884  0.1128 -0.9816
 9614SOL    HW229208   0.012   3.163   2.872 -2.1569 -0.4403  3.4635
 9615SOL     OW29209   0.732   5.140   2.072 -0.0586  0.3005  0.1562
 9615SOL    HW129210   0.751   5.230   2.098 -1.1446  0.4325  0.5511
 9615SOL    HW229211   0.656   5.115   2.126  0.7316 -1.1291  0.6583
 9616SOL     OW29212   5.364   2.933   2.086  0.3987 -0.2576  0.4316
 9616SOL    HW129213   5.309   2.942   2.007  2.1788  1.8379 -0.6773
 9616SOL    HW229214   5.353   2.841   2.112 -4.2645  0.1664  0.8628
 9617SOL     OW29215   3.943   0.524   1.316  0.4678 -0.0094  0.5941
 9617SOL    HW129216   4.020   0.538   1.371  0.7398  2.0418 -0.2144
 9617SOL    HW229217   3.895   0.607   1.322 -0.3945 -0.3898 -0.8473
 9618SOL     OW29218   6.010   3.211   2.891  0.1665 -0.1369  0.3510
 9618SOL    HW129219   5.944   3.141   2.898  0.4751 -0.4089  0.6353
 9618SOL    HW229220   6.092   3.164   2.876  0.3424  0.1790  0.3308
 9619SOL     OW29221   1.234   1.559   3.083  0.3073 -0.0739  0.3603
 9619SOL    HW129222   1.281   1.568   3.166 -0.3636 -0.6866  0.8167
 9619SOL    HW229223   1.303   1.536   3.020  0.4898 -2.2921  1.2833
 9620SOL     OW29224   5.832   0.786   1.555 -0.0460  1.1220  0.1353
 9620SOL    HW129225   5.764   0.721   1.536  0.4107  0.3726  0.9531
 9620SOL    HW229226   5.841   0.784   1.650  0.8451  1.4924  0.0684
 9621SOL     OW29227   4.411   5.697   5.220 -0.4025  0.2342  0.7880
 9621SOL    HW129228   4.490   5.649   5.246 -0.3307  0.2290  0.5655
 9621SOL    HW229229   4.344   5.668   5.282 -0.4513 -0.4254  0.4330
 9622SOL     OW29230   3.042   5.322   2.424  0.8546 -0.2154 -0.2743
 9622SOL    HW129231   3.016   5.414   2.430  0.0200 -0.4882  0.5091
 9622SOL    HW229232   3.107   5.311   2.494 -0.4905 -0.6696  0.9495
 9623SOL     OW29233   1.718   3.684   4.359  0.1379 -0.3742  0.4133
 9623SOL    HW129234   1.700   3.778   4.361 -0.1891 -0.4308  0.2037
 9623SOL    HW229235   1.801   3.675   4.405  0.7114  0.1417 -0.4782
 9624SOL     OW29236   0.668   5.222   0.345 -0.6703  0.4186  0.0549
 9624SOL    HW129237   0.652   5.182   0.259 -0.8078  2.8285 -1.1244
 9624SOL    HW229238   0.582   5.229   0.385 -1.0278  1.9583 -0.9129
 9625SOL     OW29239   5.275   3.326   5.073 -0.0510  0.0583  0.5653
 9625SOL    HW129240   5.273   3.421   5.086  0.8917  0.2619 -0.5424
 9625SOL    HW229241   5.334   3.314   4.999 -0.4648 -1.3767  0.4428
 9626SOL     OW29242   3.768   5.317   1.836  0.5253 -0.0153  0.0274
 9626SOL    HW129243   3.791   5.249   1.900  0.1421  1.9290  2.3951
 9626SOL    HW229244   3.673   5.319   1.836  0.5174 -0.0762 -0.7375
 9627SOL     OW29245   2.105   3.132   1.755  0.9148 -0.1810  0.2297
 9627SOL    HW129246   2.172   3.072   1.722 -0.5102 -1.3231 -0.7419
 9627SOL    HW229247   2.024   3.104   1.711 -0.6307 -0.2019  2.8683
 9628SOL     OW29248   2.134   1.514   3.186  0.5445 -0.0919  0.4630
 9628SOL    HW129249   2.064   1.536   3.125  0.4789 -0.3686  0.4386
 9628SOL    HW229250   2.187   1.594   3.192 -0.3628  0.4757  1.2994
 9629SOL     OW29251   5.487   5.830   3.073 -0.5344  0.7010 -0.0545
 9629SOL    HW129252   5.525   5.742   3.076 -0.1151  0.7893 -1.8455
 9629SOL    HW229253   5.410   5.824   3.130 -0.7802 -0.9645 -0.5007
 9630SOL     OW29254   5.478   6.044   0.586 -0.0610  0.2342 -0.2276
 9630SOL    HW129255   5.489   6.139   0.582  0.1375  0.3288  1.6583
 9630SOL    HW229256   5.548   6.009   0.531  2.4509  1.1173  2.1765
 9631SOL     OW29257   2.360   2.128   1.811 -0.1247 -0.1896  0.5083
 9631SOL    HW129258   2.305   2.108   1.887  1.2645 -0.1540  1.5402
 9631SOL    HW229259   2.439   2.075   1.823 -0.6134 -1.6567 -1.8832
 9632SOL     OW29260   0.320   6.380   2.414  0.3658  0.6002  0.4255
 9632SOL    HW129261   0.283   6.375   2.501 -0.4054  2.5636  0.2594
 9632SOL    HW229262   0.246   6.364   2.355  0.3343  1.7054  0.1335
 9633SOL     OW29263   4.316   2.696   2.152 -0.0904  0.2084 -0.2039
 9633SOL    HW129264   4.390   2.700   2.091  0.2297  4.4635  0.1091
 9633SOL    HW229265   4.357   2.679   2.237  0.1456 -0.4495 -0.4453
 9634SOL     OW29266   3.344   0.479   2.151 -0.6298 -0.7392 -0.1732
 9634SOL    HW129267   3.315   0.501   2.240 -0.7769 -2.4450  0.2421
 9634SOL    HW229268   3.264   0.477   2.099 -0.6206 -0.3439 -0.2011
 9635SOL     OW29269   5.446   2.920   6.630 -0.0043  0.5580  0.1949
 9635SOL    HW129270   5.470   2.931   6.722 -0.4398  1.2376  0.2304
 9635SOL    HW229271   5.493   2.841   6.603  1.1427  1.0722  0.6437
 9636SOL     OW29272   5.588   5.039   2.487  0.4865 -0.4610  0.1707
 9636SOL    HW129273   5.599   4.977   2.414 -1.1382  0.8067 -1.2231
 9636SOL    HW229274   5.661   5.100   2.478  0.5728 -0.6037 -0.0911
 9637SOL     OW29275   0.989   4.711   0.135  0.4266  0.8784  0.1742
 9637SOL    HW129276   1.054   4.662   0.184  0.5690  1.4426  0.5574
 9637SOL    HW229277   1.026   4.799   0.127  0.1553  0.9391 -0.4625
 9638SOL     OW29278   6.147   3.854   1.221  0.3460 -0.0975 -0.1401
 9638SOL    HW129279   6.138   3.786   1.155 -0.7460 -0.9202  0.8033
 9638SOL    HW229280   6.241   3.866   1.231  0.5401  0.2093 -1.9647
 9639SOL     OW29281   5.917   2.817   2.561  0.3413  0.7539 -0.2648
 9639SOL    HW129282   6.001   2.857   2.585  0.7676  0.2509 -0.8985
 9639SOL    HW229283   5.876   2.882   2.503  0.3469  0.9470 -0.0537
 9640SOL     OW29284   0.110   2.626   1.721 -0.0875 -0.3293 -0.5014
 9640SOL    HW129285   0.078   2.717   1.727  0.5195 -0.0598 -1.2170
 9640SOL    HW229286   0.041   2.574   1.763 -0.0256  0.5457  0.7458
 9641SOL     OW29287   5.590   0.298   3.185  0.3568  0.0058  0.0499
 9641SOL    HW129288   5.579   0.203   3.191 -0.9209  0.0986 -0.6421
 9641SOL    HW229289   5.596   0.326   3.277  0.0461 -0.6581  0.2821
 9642SOL     OW29290   2.038   2.272   5.358  0.2193 -0.0560  0.1131
 9642SOL    HW129291   2.013   2.225   5.438  0.0579  0.1340  0.1755
 9642SOL    HW229292   2.020   2.363   5.378 -0.2757 -0.0575 -0.3103
 9643SOL     OW29293   3.486   6.566   6.656 -0.2660 -0.0698  0.2778
 9643SOL    HW129294   3.403   6.612   6.643 -0.3012 -0.1719  0.1357
 9643SOL    HW229295   3.485   6.541   6.748 -0.4419 -0.1654  0.2501
 9644SOL     OW29296   5.279   0.849   6.260  0.3249 -0.5141 -0.3100
 9644SOL    HW129297   5.342   0.781   6.285 -0.2196 -1.6166 -1.7570
 9644SOL    HW229298   5.197   0.801   6.248 -0.9672  0.9575  2.0228
 9645SOL     OW29299   1.979   5.393   5.975  0.1283 -0.1135  0.0458
 9645SOL    HW129300   1.913   5.388   5.906  0.2892  0.4563 -0.1508
 9645SOL    HW229301   2.061   5.409   5.929  0.1753  0.6648  0.3907
 9646SOL     OW29302   6.486   3.913   5.553  0.4439 -0.6396  0.5459
 9646SOL    HW129303   6.562   3.959   5.517 -0.7644  0.9859 -0.0690
 9646SOL    HW229304   6.493   3.924   5.648  0.9911 -0.5622  0.5005
 9647SOL     OW29305   3.615   2.204   5.520  0.1718  0.1054 -0.1621
 9647SOL    HW129306   3.579   2.221   5.433  0.3486  1.0974 -0.0514
 9647SOL    HW229307   3.597   2.283   5.570  1.3194  0.1077  0.2856
 9648SOL     OW29308   2.617   5.453   6.330 -0.7160  0.0746 -0.1516
 9648SOL    HW129309   2.699   5.449   6.380 -0.8807  0.0683  0.1224
 9648SOL    HW229310   2.561   5.512   6.381 -2.0446 -2.3410  1.4347
 9649SOL     OW29311   2.874   1.596   6.208  0.0735  0.1061  0.9261
 9649SOL    HW129312   2.868   1.598   6.304  2.0097  2.0098  1.0860
 9649SOL    HW229313   2.829   1.675   6.180  0.6356  0.2389  0.3807
 9650SOL     OW29314   3.508   1.580   3.380  0.1339 -0.3339 -0.2553
 9650SOL    HW129315   3.581   1.575   3.441 -0.6335  0.4162  0.7628
 9650SOL    HW229316   3.465   1.494   3.387 -0.6671  0.1569  1.2159
 9651SOL     OW29317   5.599   6.339   1.225 -0.6053 -0.1948  0.2995
 9651SOL    HW129318   5.568   6.262   1.272 -0.4946  0.0866  0.8463
 9651SOL    HW229319   5.686   6.314   1.192 -1.6411 -1.2361 -1.8567
 9652SOL     OW29320   6.686   2.811   2.640  0.4496  0.9710  0.4506
 9652SOL    HW129321   6.667   2.845   2.553  0.4664  0.2577  0.1626
 9652SOL    HW229322   6.774   2.773   2.633  0.1843  0.3245  0.6012
 9653SOL     OW29323   3.058   3.313   6.130  0.4562 -0.4551  0.2050
 9653SOL    HW129324   3.007   3.303   6.210  1.4400 -0.8092  0.8028
 9653SOL    HW229325   3.143   3.347   6.159  0.3355  0.8583 -0.8455
 9654SOL     OW29326   6.111   3.621   5.280 -0.2155  0.3740  0.1138
 9654SOL    HW129327   6.200   3.595   5.259 -0.6009 -1.7062  0.8020
 9654SOL    HW229328   6.115   3.650   5.371 -0.4573 -0.9997  0.5750
 9655SOL     OW29329   1.162   1.985   6.136 -0.3393 -0.6208  0.2028
 9655SOL    HW129330   1.235   2.045   6.120 -0.1689 -0.7001  0.6552
 9655SOL    HW229331   1.107   2.032   6.199 -2.3034  0.7712 -2.3213
 9656SOL     OW29332   4.855   2.201   3.054 -0.0988  0.3227 -1.2006
 9656SOL    HW129333   4.801   2.275   3.080 -1.2942 -1.1593  0.8003
 9656SOL    HW229334   4.795   2.143   3.007  0.0730 -0.7000 -0.1930
 9657SOL     OW29335   0.096   2.047   4.396 -0.8279  0.3578 -0.0846
 9657SOL    HW129336   0.076   2.089   4.312 -0.6200 -0.0345 -0.3369
 9657SOL    HW229337   0.015   2.053   4.446 -0.8394  0.9311 -0.1698
 9658SOL     OW29338   1.987   4.290   4.587 -0.3280  0.5636 -0.3112
 9658SOL    HW129339   1.992   4.207   4.634 -0.3984 -0.0382 -1.3320
 9658SOL    HW229340   1.927   4.344   4.639 -3.0371 -1.2230 -1.3723
 9659SOL     OW29341   4.896   0.326   1.601  0.1995  0.1120 -0.5124
 9659SOL    HW129342   4.911   0.405   1.549  1.8681 -0.2238 -0.5935
 9659SOL    HW229343   4.898   0.357   1.692 -1.6375  0.5233 -0.5713
 9660SOL     OW29344   6.278   1.741   4.913  0.0722  0.1455  0.1243
 9660SOL    HW129345   6.345   1.700   4.858  1.9634 -1.6308  3.4230
 9660SOL    HW229346   6.309   1.831   4.926  0.1636  0.2555 -0.8264
 9661SOL     OW29347   3.875   5.134   3.588  0.7939  0.7522  0.0459
 9661SOL    HW129348   3.899   5.227   3.583  0.9897  0.6454 -1.5646
 9661SOL    HW229349   3.892   5.100   3.500  0.5150 -0.7691  0.5480
 9662SOL     OW29350   2.945   5.733   5.063 -0.0805  0.2938  0.2671
 9662SOL    HW129351   2.930   5.815   5.111 -0.0430  1.1334 -1.0999
 9662SOL    HW229352   3.028   5.700   5.098  1.1822  2.1285 -0.8313
 9663SOL     OW29353   4.210   0.648   3.165  0.1254  0.1565 -0.0653
 9663SOL    HW129354   4.162   0.688   3.092 -0.9217 -0.6892  0.1454
 9663SOL    HW229355   4.156   0.665   3.242 -0.6737 -2.1374 -0.0507
 9664SOL     OW29356   5.059   3.559   0.457  0.2619  0.3739 -0.0389
 9664SOL    HW129357   5.060   3.470   0.495 -0.4020  0.4068  0.0716
 9664SOL    HW229358   4.975   3.595   0.485  1.0554  1.5150  1.0065
 9665SOL     OW29359   6.512   4.433   0.469 -0.2455 -0.5189  0.2189
 9665SOL    HW129360   6.520   4.472   0.382 -0.3025  1.3890  1.0210
 9665SOL    HW229361   6.497   4.340   0.452  0.9978 -0.4213 -1.7812
 9666SOL     OW29362   0.160   2.229   2.811  0.1973 -0.3682  0.1952
 9666SOL    HW129363   0.132   2.278   2.889 -0.8149 -0.0810 -0.3360
 9666SOL    HW229364   0.080   2.216   2.761  0.5671 -1.9446 -0.0418
 9667SOL     OW29365   3.115   4.163   4.189 -0.6734 -0.4617 -0.4431
 9667SOL    HW129366   3.045   4.101   4.167 -0.6216 -0.2864 -1.1557
 9667SOL    HW229367   3.164   4.172   4.107  0.2635 -0.6766  0.0860
 9668SOL     OW29368   2.398   3.706   3.687  0.1113  0.4219 -0.9893
 9668SOL    HW129369   2.320   3.659   3.659  0.4933 -0.4300 -0.6701
 9668SOL    HW229370   2.419   3.669   3.773 -0.9624  2.8962  0.4413
 9669SOL     OW29371   2.278   2.593   4.381  0.6780  0.2116 -0.0870
 9669SOL    HW129372   2.264   2.509   4.339 -0.0945  1.1349 -1.7704
 9669SOL    HW229373   2.373   2.608   4.375  0.7264 -0.2116 -0.4270
 9670SOL     OW29374   5.458   6.555   2.168  0.5569  0.1818 -0.5940
 9670SOL    HW129375   5.402   6.596   2.233  1.2083 -0.1686  0.2041
 9670SOL    HW229376   5.473   6.466   2.200  3.0873  0.8104  0.2438
 9671SOL     OW29377   1.330   0.720   0.554 -0.1369  0.6833 -0.3371
 9671SOL    HW129378   1.252   0.774   0.541 -1.1222 -0.5831  0.1001
 9671SOL    HW229379   1.336   0.709   0.649 -0.4835 -0.6974 -0.4585
 9672SOL     OW29380   0.003   6.700   2.950 -0.0875 -0.1868 -0.0326
 9672SOL    HW129381  -0.039   6.743   2.876  0.3925 -1.3950 -1.0546
 9672SOL    HW229382   0.097   6.714   2.937 -0.0452  0.9701  1.2607
 9673SOL     OW29383   4.491   5.700   1.633  0.3113 -0.1472  0.0091
 9673SOL    HW129384   4.494   5.608   1.608  2.2313 -0.5103  1.3756
 9673SOL    HW229385   4.538   5.746   1.563 -3.7461  0.4541 -2.6741
 9674SOL     OW29386   6.525   3.288   0.934 -0.5256  0.0539  0.5157
 9674SOL    HW129387   6.438   3.288   0.974  0.0615 -0.8024  1.8603
 9674SOL    HW229388   6.580   3.336   0.996 -0.2237  1.5742 -0.8503
 9675SOL     OW29389   5.700   1.521   1.330 -0.1255  0.2154 -0.3130
 9675SOL    HW129390   5.659   1.603   1.301 -1.2589 -0.4025 -0.5370
 9675SOL    HW229391   5.768   1.503   1.266 -0.5816  0.4391 -0.8653
 9676SOL     OW29392   6.538   1.374   3.414 -0.2168  0.7390 -0.2850
 9676SOL    HW129393   6.516   1.467   3.411 -0.7646  0.6632  0.8226
 9676SOL    HW229394   6.628   1.372   3.448 -1.0156  0.8114  1.9917
 9677SOL     OW29395   2.379   4.359   1.952  0.2401 -0.1040  0.1574
 9677SOL    HW129396   2.320   4.434   1.961 -1.1330 -1.0519 -0.4530
 9677SOL    HW229397   2.357   4.302   2.026  0.0074 -0.6904 -0.3512
 9678SOL     OW29398   2.011   1.629   5.195  0.3022  0.4903 -0.5241
 9678SOL    HW129399   1.963   1.648   5.276 -0.5676  1.8580 -1.3229
 9678SOL    HW229400   1.981   1.542   5.170 -1.3109  1.0427 -0.6421
 9679SOL     OW29401   5.146   3.761   4.218  0.2381  0.4227 -0.4014
 9679SOL    HW129402   5.158   3.766   4.313  0.0754  1.4670 -0.4186
 9679SOL    HW229403   5.097   3.681   4.204 -0.0116  0.4165  0.4299
 9680SOL     OW29404   0.317   5.138   5.941  0.1163 -0.2962 -0.2466
 9680SOL    HW129405   0.302   5.144   6.035  1.6028 -0.0135  0.0017
 9680SOL    HW229406   0.253   5.074   5.910  0.2299 -1.0982  1.1174
 9681SOL     OW29407   6.730   5.854   5.560 -0.3431 -0.3432  0.1762
 9681SOL    HW129408   6.769   5.771   5.534 -2.9015 -1.2444 -1.0915
 9681SOL    HW229409   6.652   5.830   5.610 -1.2813  1.2607 -0.4323
 9682SOL     OW29410   0.657   6.187   3.277  0.1114 -0.0519  0.4831
 9682SOL    HW129411   0.595   6.148   3.338 -0.4710  0.5186  0.2668
 9682SOL    HW229412   0.706   6.250   3.330  1.7122 -1.6777  1.0655
 9683SOL     OW29413   1.567   0.346   2.782 -0.1542 -0.6331  0.2872
 9683SOL    HW129414   1.512   0.380   2.852 -1.4450 -1.3000 -0.3717
 9683SOL    HW229415   1.574   0.252   2.800  2.3344 -0.3346  1.3854
 9684SOL     OW29416   4.505   1.059   5.439 -0.0240 -0.0256 -0.2574
 9684SOL    HW129417   4.480   0.993   5.505 -0.7378  0.8627  0.3828
 9684SOL    HW229418   4.554   1.124   5.489 -2.0719  1.5618 -0.2038
 9685SOL     OW29419   4.849   1.727   6.796  0.5493  0.0046 -0.3476
 9685SOL    HW129420   4.924   1.723   6.855  0.4088  0.4643 -0.1314
 9685SOL    HW229421   4.878   1.786   6.726  0.2795  0.4523 -0.0911
 9686SOL     OW29422   5.394   2.806   5.688 -0.1957 -0.3200 -0.1029
 9686SOL    HW129423   5.408   2.736   5.624  0.4225  0.6246 -1.0414
 9686SOL    HW229424   5.300   2.804   5.706 -0.1935 -1.3535 -0.1434
 9687SOL     OW29425   3.625   3.809   1.715 -0.3022  0.9314 -0.2464
 9687SOL    HW129426   3.565   3.747   1.756  1.4080 -0.6939 -0.0226
 9687SOL    HW229427   3.587   3.825   1.628 -0.3341 -1.2538 -0.6977
 9688SOL     OW29428   1.446   3.157   3.037  0.6021  0.3416  0.0852
 9688SOL    HW129429   1.437   3.113   3.122  1.5455 -0.0253  0.0105
 9688SOL    HW229430   1.513   3.224   3.052  2.3990 -1.1309 -0.8671
 9689SOL     OW29431   3.086   1.047   1.624  0.4278 -0.3875 -0.1507
 9689SOL    HW129432   3.110   1.016   1.537 -0.3647  0.9378 -0.8708
 9689SOL    HW229433   3.056   0.969   1.670  0.4043 -1.0217 -1.2208
 9690SOL     OW29434   3.704   0.060   1.529 -0.2759  0.1197  0.1471
 9690SOL    HW129435   3.778   0.033   1.474 -0.1861  0.8821 -0.1237
 9690SOL    HW229436   3.721   0.019   1.613  0.3319  0.0788  0.0140
 9691SOL     OW29437   4.158   6.290   6.651  0.0814  0.0435 -0.2117
 9691SOL    HW129438   4.148   6.360   6.586 -0.7095  0.1625  0.0328
 9691SOL    HW229439   4.196   6.334   6.727 -0.4647  0.2248 -0.0390
 9692SOL     OW29440   0.834   3.752   1.531 -0.3567 -0.4857 -0.0090
 9692SOL    HW129441   0.747   3.750   1.573 -0.0616 -1.0388  0.5872
 9692SOL    HW229442   0.871   3.666   1.549 -0.2808 -0.8047 -1.5652
 9693SOL     OW29443   6.606   0.603   0.377 -0.1586  0.6040 -0.4720
 9693SOL    HW129444   6.610   0.669   0.308  0.5133 -0.6225 -1.6470
 9693SOL    HW229445   6.527   0.552   0.357 -0.6642  1.0295  0.4144
 9694SOL     OW29446   1.756   5.783   0.496  0.3187 -0.1712 -0.4447
 9694SOL    HW129447   1.727   5.868   0.464  0.0639  0.5561  1.5814
 9694SOL    HW229448   1.786   5.737   0.417 -0.8375  1.2387 -1.7858
 9695SOL     OW29449   2.148   6.668   5.966  0.3311  0.3658 -0.2878
 9695SOL    HW129450   2.149   6.660   6.061  1.2884  0.1766 -0.3033
 9695SOL    HW229451   2.061   6.636   5.940  0.7506 -1.4325  0.3787
 9696SOL     OW29452   0.538   3.538   4.109  0.5496 -0.2318 -0.5858
 9696SOL    HW129453   0.465   3.577   4.062 -0.2676 -1.7897 -0.6710
 9696SOL    HW229454   0.614   3.591   4.084 -0.5188  1.3785 -0.5364
 9697SOL     OW29455   1.296   3.854   0.906  0.5414  0.1281  0.3850
 9697SOL    HW129456   1.385   3.887   0.909  1.2230 -1.0216 -2.8893
 9697SOL    HW229457   1.241   3.932   0.904  1.5853  0.8898  0.7563
 9698SOL     OW29458   1.609   0.918   5.601 -0.4877 -0.2184  0.0384
 9698SOL    HW129459   1.560   0.838   5.622  1.3407 -1.2387  0.6228
 9698SOL    HW229460   1.571   0.984   5.658 -2.6585 -0.3887 -1.1110
 9699SOL     OW29461   2.158   1.757   4.987 -0.2814  0.2499 -0.4892
 9699SOL    HW129462   2.154   1.841   4.941 -0.8900  0.1547 -0.6257
 9699SOL    HW229463   2.066   1.736   5.006 -0.0273  0.5320  1.2111
 9700SOL     OW29464   4.267   4.069   1.722  0.3399  0.1041  0.7157
 9700SOL    HW129465   4.202   4.120   1.674  1.1214  0.2361 -0.2394
 9700SOL    HW229466   4.221   3.989   1.749 -0.1897  0.1560 -0.0168
 9701SOL     OW29467   5.504   0.025   3.551 -0.4679 -0.5437  0.4472
 9701SOL    HW129468   5.450   0.071   3.486 -2.3198 -0.8223  1.7117
 9701SOL    HW229469   5.456  -0.056   3.569 -0.7616  0.1423  3.1570
 9702SOL     OW29470   4.130   4.169   5.002  0.4632 -0.4380 -0.2324
 9702SOL    HW129471   4.046   4.123   4.994  0.5370 -0.6099 -0.0244
 9702SOL    HW229472   4.190   4.103   5.037  0.4158 -0.0113  0.6855
 9703SOL     OW29473   6.311   3.320   4.382 -0.1912  0.4823 -0.3421
 9703SOL    HW129474   6.350   3.404   4.360 -0.3012  0.0421 -2.4441
 9703SOL    HW229475   6.222   3.341   4.409  0.4953  1.2116  1.5367
 9704SOL     OW29476   1.332   6.271   0.273 -0.2592 -0.1741  0.2254
 9704SOL    HW129477   1.336   6.363   0.247  0.0780 -0.4482 -0.7656
 9704SOL    HW229478   1.294   6.272   0.360 -1.4073  0.8170 -0.2577
 9705SOL     OW29479   3.903   4.214   1.868 -0.2751 -0.2515 -0.2065
 9705SOL    HW129480   3.862   4.128   1.860 -3.4898  1.1125  0.2643
 9705SOL    HW229481   3.851   4.271   1.811 -0.4553  2.0562  2.0879
 9706SOL     OW29482   0.106   6.451   4.935  0.1419 -0.0219 -0.0325
 9706SOL    HW129483   0.087   6.507   5.010 -1.5965  2.2510 -2.0316
 9706SOL    HW229484   0.191   6.481   4.903  0.8202 -0.9022  0.8843
 9707SOL     OW29485   4.942   1.491   0.637 -0.0743 -0.3978 -0.1508
 9707SOL    HW129486   4.989   1.573   0.653 -1.2214  0.0226  1.2790
 9707SOL    HW229487   5.011   1.425   0.628  0.8366  0.5822 -0.5271
 9708SOL     OW29488   6.016   2.233   5.846 -0.2330 -0.3498  0.0551
 9708SOL    HW129489   6.092   2.218   5.903  1.7783  1.0960 -2.0817
 9708SOL    HW229490   6.020   2.326   5.825 -2.5107 -0.2889 -0.3140
 9709SOL     OW29491   5.836   4.860   1.597 -0.1995  0.3226 -0.1952
 9709SOL    HW129492   5.890   4.862   1.676  0.1084  1.6912 -0.4189
 9709SOL    HW229493   5.898   4.849   1.525 -0.3183  0.8482 -0.3788
 9710SOL     OW29494   6.520   5.882   0.939 -0.2683 -0.6521 -0.5996
 9710SOL    HW129495   6.516   5.822   0.865 -0.3467 -0.9458 -0.3599
 9710SOL    HW229496   6.595   5.939   0.920 -0.5458 -0.4448 -1.1093
 9711SOL     OW29497   1.654   4.250   4.558 -0.2190 -0.4268 -0.2622
 9711SOL    HW129498   1.681   4.260   4.467  0.1316 -0.0093 -0.1196
 9711SOL    HW229499   1.598   4.326   4.575  0.0823 -0.2536 -0.0076
 9712SOL     OW29500   2.765   4.607   5.165  0.0471 -0.1954  0.3437
 9712SOL    HW129501   2.770   4.557   5.246 -1.4298  0.8627  1.1335
 9712SOL    HW229502   2.845   4.659   5.164  0.6062 -1.0303  0.5490
 9713SOL     OW29503   1.633   2.178   4.677 -0.2569 -0.1939  0.2084
 9713SOL    HW129504   1.587   2.192   4.759 -0.2248  2.8757 -0.1753
 9713SOL    HW229505   1.725   2.188   4.699 -0.1565 -0.6007 -0.0125
 9714SOL     OW29506   2.967   0.907   4.125 -0.5595 -0.5691 -0.0835
 9714SOL    HW129507   2.902   0.952   4.071  2.3938  0.8304 -2.8008
 9714SOL    HW229508   2.981   0.824   4.080  3.2381  1.3404 -2.8945
 9715SOL     OW29509   4.639   4.364   5.949 -0.1180  0.1152 -0.2110
 9715SOL    HW129510   4.718   4.343   5.899  0.5960  1.8142  0.1423
 9715SOL    HW229511   4.671   4.410   6.026 -1.5337  2.9790 -1.2027
 9716SOL     OW29512   1.064   0.533   0.375  0.2926 -0.5199  0.2995
 9716SOL    HW129513   1.046   0.604   0.314  0.0468 -0.5999  0.2764
 9716SOL    HW229514   1.152   0.503   0.353  1.0310  0.7926  1.3066
 9717SOL     OW29515   5.054   3.285   5.928 -0.0057  0.5520 -0.3141
 9717SOL    HW129516   5.147   3.282   5.950  0.0263  0.0853 -0.5143
 9717SOL    HW229517   5.038   3.205   5.879 -1.3737 -1.4621  3.0544
 9718SOL     OW29518   0.537   5.570   2.856  0.1400  0.2936 -0.3200
 9718SOL    HW129519   0.562   5.655   2.893  1.5321  0.1126 -0.7716
 9718SOL    HW229520   0.578   5.506   2.914 -0.2489 -0.0576 -0.4319
 9719SOL     OW29521   0.808   3.210   1.058  0.3109 -0.0310  0.1714
 9719SOL    HW129522   0.850   3.295   1.074  0.3035 -0.2875  1.6325
 9719SOL    HW229523   0.762   3.222   0.975  1.4045  0.9692 -0.3220
 9720SOL     OW29524   3.855   0.558   4.178 -0.3651 -0.4236 -0.1624
 9720SOL    HW129525   3.783   0.534   4.236 -0.6374  1.4378  0.3395
 9720SOL    HW229526   3.813   0.575   4.093 -0.4055 -0.0992 -0.0771
 9721SOL     OW29527   2.669   1.641   5.011  0.3329  0.1994  0.0004
 9721SOL    HW129528   2.717   1.559   5.001  0.8951  0.6454 -0.9687
 9721SOL    HW229529   2.650   1.670   4.922 -1.6348  0.1074  0.3239
 9722SOL     OW29530   6.655   0.294   3.629  0.1617 -0.1911  0.0948
 9722SOL    HW129531   6.572   0.343   3.629  0.2309 -0.0454  1.1390
 9722SOL    HW229532   6.703   0.329   3.554  0.9707  2.7149  1.7963
 9723SOL     OW29533   6.779   2.216   1.686 -0.7769  0.1212 -0.5984
 9723SOL    HW129534   6.734   2.193   1.605 -1.2227 -1.6345  0.1233
 9723SOL    HW229535   6.851   2.153   1.693 -0.4659  0.5433  0.1502
 9724SOL     OW29536   6.501   2.538   6.436 -0.2476 -0.1604 -0.5449
 9724SOL    HW129537   6.475   2.476   6.368 -1.4307 -0.4509  0.1422
 9724SOL    HW229538   6.535   2.614   6.389  0.2515 -0.9055 -1.4124
 9725SOL     OW29539   3.598   1.673   4.609  0.5840  0.0581 -0.3947
 9725SOL    HW129540   3.555   1.759   4.609  0.1465 -0.1565 -0.3800
 9725SOL    HW229541   3.686   1.690   4.577  0.3624  0.4500 -0.8043
 9726SOL     OW29542   0.132   6.653   3.544  0.2842  0.1690 -0.1386
 9726SOL    HW129543   0.088   6.716   3.601  0.5007  0.4617 -0.2930
 9726SOL    HW229544   0.208   6.625   3.594  0.5463  0.5255 -0.3373
 9727SOL     OW29545   4.340   0.426   4.802 -0.1440 -0.0372 -0.2187
 9727SOL    HW129546   4.382   0.512   4.809 -1.0605  0.4285 -0.2725
 9727SOL    HW229547   4.272   0.427   4.870 -1.2468 -0.0780 -1.2832
 9728SOL     OW29548   2.758   6.542   5.758 -0.2148  0.3733  0.4163
 9728SOL    HW129549   2.797   6.629   5.766 -0.9838  0.6763  0.9893
 9728SOL    HW229550   2.667   6.553   5.787 -1.7537  0.3801 -3.7844
 9729SOL     OW29551   6.279   0.550   4.157  0.2256  0.0646  0.4473
 9729SOL    HW129552   6.360   0.548   4.107 -0.7215  0.7484 -1.2283
 9729SOL    HW229553   6.261   0.458   4.177  0.7418 -0.2224 -0.3430
 9730SOL     OW29554   5.702   4.264   0.557 -0.8366  0.6785 -0.3763
 9730SOL    HW129555   5.733   4.202   0.623 -3.7034 -0.7016 -0.1665
 9730SOL    HW229556   5.753   4.244   0.479  0.4679  0.2274  0.5550
 9731SOL     OW29557   0.262   3.598   0.378 -0.1295  0.0967 -0.1121
 9731SOL    HW129558   0.310   3.552   0.447  1.9024  1.4508 -0.5486
 9731SOL    HW229559   0.177   3.617   0.417  0.5372 -0.2540  1.5951
 9732SOL     OW29560   4.022   1.442   5.051 -0.1773  0.3938 -0.1725
 9732SOL    HW129561   4.095   1.456   4.991 -1.2419  0.7169 -1.4406
 9732SOL    HW229562   3.968   1.375   5.009 -2.9735  3.2787 -1.6297
 9733SOL     OW29563   0.030   2.018   3.081 -0.6164  0.3760 -0.3826
 9733SOL    HW129564  -0.013   1.935   3.058  1.4090 -1.2447  1.2308
 9733SOL    HW229565  -0.037   2.066   3.131 -1.4381 -0.8742 -0.2193
 9734SOL     OW29566   4.969   3.392   6.441 -0.0694 -0.5551  0.4203
 9734SOL    HW129567   4.882   3.429   6.428 -0.7348 -1.7936  1.1859
 9734SOL    HW229568   4.959   3.333   6.516  1.3131 -1.0854  0.2134
 9735SOL     OW29569   5.733   4.355   3.443 -0.5663 -0.0981  0.5126
 9735SOL    HW129570   5.711   4.262   3.434 -0.5647 -0.1788  1.2401
 9735SOL    HW229571   5.733   4.370   3.538 -4.1831  1.5187  0.4024
 9736SOL     OW29572   0.183   3.438   5.193  0.6475 -0.2276 -0.5601
 9736SOL    HW129573   0.200   3.448   5.100  2.2399  1.4089 -0.1527
 9736SOL    HW229574   0.129   3.514   5.216 -0.3281 -0.9947 -0.2626
 9737SOL     OW29575   5.315   1.949   0.201  0.1036 -0.0403 -0.1823
 9737SOL    HW129576   5.261   2.028   0.193  1.1012  0.6994  0.2300
 9737SOL    HW229577   5.304   1.921   0.292  1.6794  1.0765  0.3931
 9738SOL     OW29578   4.616   5.175   1.569  0.5937  0.0236  0.1868
 9738SOL    HW129579   4.620   5.085   1.537 -0.7667 -0.6781  1.7865
 9738SOL    HW229580   4.645   5.170   1.660  0.7856  1.2669  0.2181
 9739SOL     OW29581   3.395   1.162   4.928 -0.5007  0.1254  0.3121
 9739SOL    HW129582   3.466   1.224   4.949 -0.7416  1.0139 -1.3143
 9739SOL    HW229583   3.351   1.148   5.011  0.6928  0.7128  1.0785
 9740SOL     OW29584   6.268   5.032   5.078  0.1800 -0.5417  0.0797
 9740SOL    HW129585   6.286   4.999   4.990 -2.4028 -0.7253 -0.4793
 9740SOL    HW229586   6.243   5.124   5.064  1.2982 -0.0947  0.8576
 9741SOL     OW29587   2.095   2.096   0.737  0.4760 -0.4986 -0.1858
 9741SOL    HW129588   2.084   2.095   0.642 -0.3597  0.7995 -0.1193
 9741SOL    HW229589   2.007   2.109   0.772  0.9156  0.1430  0.7211
 9742SOL     OW29590   1.536   1.914   2.882  0.1891  0.5924  0.3811
 9742SOL    HW129591   1.467   1.979   2.887 -0.3975  0.1202 -1.0554
 9742SOL    HW229592   1.532   1.868   2.966 -0.3287  1.4511  0.8428
 9743SOL     OW29593   4.870   0.599   0.357  0.5952 -0.1715  0.2807
 9743SOL    HW129594   4.948   0.609   0.303 -1.3100 -0.4595 -2.7664
 9743SOL    HW229595   4.850   0.687   0.389 -0.1341  0.7556 -2.4931
 9744SOL     OW29596   5.016   6.291   2.041 -0.1902 -0.5989 -0.0037
 9744SOL    HW129597   4.921   6.300   2.052 -0.1411  0.0164 -0.0139
 9744SOL    HW229598   5.035   6.336   1.959  0.2864  0.5423  0.6948
 9745SOL     OW29599   2.186   0.736   4.002  0.2064 -0.0660  0.3104
 9745SOL    HW129600   2.251   0.698   3.942  2.0836  1.3949  1.2987
 9745SOL    HW229601   2.136   0.797   3.948  2.1886  1.5893  0.2307
 9746SOL     OW29602   5.250   5.688   6.442  0.1439 -0.1885  0.6319
 9746SOL    HW129603   5.159   5.675   6.415  0.2851 -1.3514  0.6542
 9746SOL    HW229604   5.301   5.631   6.385  0.9907  1.1766 -0.0438
 9747SOL     OW29605   6.262   5.623   4.689 -0.6583  0.4347  0.4007
 9747SOL    HW129606   6.347   5.590   4.720  0.2026  2.2646  0.1233
 9747SOL    HW229607   6.212   5.637   4.770  0.4902  2.3011  0.8838
 9748SOL     OW29608   1.690   2.847   0.373 -0.0994  0.1794  0.0784
 9748SOL    HW129609   1.677   2.925   0.319 -2.5856 -1.0286 -1.2560
 9748SOL    HW229610   1.628   2.859   0.446  1.7960  0.8534  1.6731
 9749SOL     OW29611   0.549   3.117   6.728 -0.2559 -0.8886 -0.1097
 9749SOL    HW129612   0.588   3.088   6.810 -2.1757  0.4606  1.3612
 9749SOL    HW229613   0.484   3.183   6.753 -0.5792 -0.0553 -2.7504
 9750SOL     OW29614   0.239   3.125   3.511 -1.2355  0.4188  0.0236
 9750SOL    HW129615   0.264   3.068   3.438 -1.5692  0.4696 -0.1303
 9750SOL    HW229616   0.251   3.214   3.477 -2.4807  0.4546 -0.3584
 9751SOL     OW29617   3.604   1.580   0.905  0.5733  0.1028 -0.2395
 9751SOL    HW129618   3.635   1.642   0.971 -1.6326  0.6481  0.3724
 9751SOL    HW229619   3.670   1.511   0.904  1.6033  1.0206  1.1957
 9752SOL     OW29620   0.712   1.806   0.024 -0.0431 -0.3873 -0.0308
 9752SOL    HW129621   0.669   1.839  -0.055 -1.2660 -3.0869 -0.6097
 9752SOL    HW229622   0.697   1.712   0.023  1.8654 -0.8443  2.2878
 9753SOL     OW29623   4.129   5.938   5.297 -0.6646 -0.9152 -0.0897
 9753SOL    HW129624   4.105   6.031   5.293 -1.7734 -1.2120 -0.7718
 9753SOL    HW229625   4.063   5.894   5.245  0.1806 -2.0416 -0.2524
 9754SOL     OW29626   2.733   5.140   1.071  0.1512 -0.0896 -0.7230
 9754SOL    HW129627   2.747   5.066   1.131 -0.0721 -0.8800 -1.6251
 9754SOL    HW229628   2.815   5.189   1.074  1.9312 -2.5930 -3.1233
 9755SOL     OW29629   0.378   0.041   6.453  0.0547 -0.8633 -0.3100
 9755SOL    HW129630   0.357  -0.046   6.419 -0.3307  0.5446 -4.1496
 9755SOL    HW229631   0.295   0.089   6.451  1.0326  1.0017 -3.3328
 9756SOL     OW29632   0.415   3.329   2.597  0.0721  0.4404 -0.1764
 9756SOL    HW129633   0.380   3.297   2.681  0.3004 -0.3659 -0.3745
 9756SOL    HW229634   0.363   3.282   2.531 -0.4229  1.4148 -0.5038
 9757SOL     OW29635   2.231   2.466   5.819  0.6207 -0.3438 -0.1767
 9757SOL    HW129636   2.323   2.493   5.829  0.3574  0.0701  1.4451
 9757SOL    HW229637   2.190   2.537   5.771  0.3912  1.3066  2.2722
 9758SOL     OW29638   3.113   4.646   3.687  0.1873  0.0543  0.0286
 9758SOL    HW129639   3.173   4.685   3.751  0.4089  0.4704 -0.4248
 9758SOL    HW229640   3.158   4.567   3.657  1.5321  1.4784 -1.9056
 9759SOL     OW29641   5.244   5.766   2.370 -0.3263 -0.5113 -0.5340
 9759SOL    HW129642   5.239   5.726   2.456 -1.5318  0.7245 -0.0032
 9759SOL    HW229643   5.199   5.704   2.312  0.1767 -1.1758 -0.2306
 9760SOL     OW29644   1.625   3.683   0.470 -0.2567 -0.5119 -0.4821
 9760SOL    HW129645   1.647   3.594   0.499  1.2644 -0.3626 -1.0541
 9760SOL    HW229646   1.619   3.733   0.551  0.0777 -0.9002 -0.2081
 9761SOL     OW29647   6.198   5.566   3.307 -0.4111  0.2976 -0.3897
 9761SOL    HW129648   6.270   5.586   3.367  0.2517  1.0379 -1.4071
 9761SOL    HW229649   6.222   5.483   3.266 -0.2876  0.3902 -0.5043
 9762SOL     OW29650   5.839   2.522   0.797 -0.6226 -0.2521  0.1510
 9762SOL    HW129651   5.767   2.579   0.824 -0.3977  0.8963 -1.4966
 9762SOL    HW229652   5.864   2.555   0.710  1.2120 -1.2727  0.2440
 9763SOL     OW29653   2.388   2.652   1.595 -0.3522  0.1203  0.3946
 9763SOL    HW129654   2.457   2.589   1.571 -2.0048 -0.9593 -2.0022
 9763SOL    HW229655   2.406   2.729   1.541 -1.3216 -0.4103 -0.7252
 9764SOL     OW29656   3.708   6.655   4.243 -0.7156  0.4776  0.4520
 9764SOL    HW129657   3.694   6.748   4.227 -0.8513  0.4442  0.3741
 9764SOL    HW229658   3.668   6.612   4.168 -1.4635  0.3138  0.9315
 9765SOL     OW29659   1.543   6.371   4.063  0.7033  0.0417  0.6032
 9765SOL    HW129660   1.463   6.398   4.018  0.9663  0.9411  0.6495
 9765SOL    HW229661   1.579   6.301   4.008 -0.3696 -0.7325  0.8564
 9766SOL     OW29662   3.955   0.107   5.979 -0.5169  0.0216  0.3015
 9766SOL    HW129663   3.953   0.051   6.056  0.4692 -2.8170 -1.5672
 9766SOL    HW229664   4.048   0.131   5.969 -0.8406  1.5836  0.7449
 9767SOL     OW29665   4.926   3.679   1.505 -0.1426  0.4506 -0.4371
 9767SOL    HW129666   5.022   3.674   1.512 -0.1352  1.2434  0.1808
 9767SOL    HW229667   4.904   3.613   1.440  1.0074  1.5331 -2.0172
 9768SOL     OW29668   4.411   0.714   5.159 -0.1996  0.0653  0.4472
 9768SOL    HW129669   4.390   0.714   5.253 -1.2464 -0.3383  0.2280
 9768SOL    HW229670   4.448   0.800   5.142  0.8028 -0.1538  1.3999
 9769SOL     OW29671   5.384   0.037   0.196 -0.0389 -0.1516  0.3924
 9769SOL    HW129672   5.382   0.132   0.184  0.4842 -0.3375 -1.3015
 9769SOL    HW229673   5.444   0.024   0.270 -0.3160  0.8299  0.8153
 9770SOL     OW29674   6.628   3.044   1.898  0.8073 -0.8980 -0.0856
 9770SOL    HW129675   6.631   3.140   1.900  2.8985 -0.9138  0.1508
 9770SOL    HW229676   6.558   3.021   1.959  0.1953  0.4718 -0.2320
 9771SOL     OW29677   4.225   6.615   5.660  0.5170 -0.3442  0.0232
 9771SOL    HW129678   4.290   6.583   5.723  0.1941  0.9611  1.0748
 9771SOL    HW229679   4.141   6.608   5.707 -0.0195 -1.2660 -1.0235
 9772SOL     OW29680   2.842   2.190   5.575  0.3139  0.1778 -0.4095
 9772SOL    HW129681   2.802   2.131   5.511  0.8973 -1.4858  0.7075
 9772SOL    HW229682   2.933   2.200   5.545 -0.2549  2.1903 -1.7080
 9773SOL     OW29683   0.427   1.351   6.209  0.6104  0.5945  0.0542
 9773SOL    HW129684   0.496   1.316   6.265  0.9995  1.2605  0.0049
 9773SOL    HW229685   0.452   1.443   6.195  0.0796  0.6571 -0.5256
 9774SOL     OW29686   6.329   4.621   5.333 -0.0769  0.0677 -0.2866
 9774SOL    HW129687   6.388   4.656   5.400  2.1470 -1.3153 -1.3911
 9774SOL    HW229688   6.260   4.578   5.382 -0.1589  1.6231  1.0681
 9775SOL     OW29689   2.348   0.652   0.713 -0.4971  0.0768 -0.1076
 9775SOL    HW129690   2.320   0.624   0.626 -1.5136 -0.0036  0.2355
 9775SOL    HW229691   2.425   0.707   0.696 -1.7969  1.6626 -1.2327
 9776SOL     OW29692   0.235   1.818   5.164 -0.7091  0.1382  0.0789
 9776SOL    HW129693   0.256   1.911   5.174 -1.1444  0.5436 -2.3378
 9776SOL    HW229694   0.140   1.816   5.155 -0.5895 -0.3721 -1.2048
 9777SOL     OW29695   3.394   2.277   1.796 -0.3620  0.7609 -0.8994
 9777SOL    HW129696   3.419   2.361   1.835 -1.1882  1.1647 -1.2115
 9777SOL    HW229697   3.476   2.241   1.762  0.0470  1.3065 -0.5094
 9778SOL     OW29698   3.405   5.452   6.708  0.8832 -0.2536 -0.5349
 9778SOL    HW129699   3.394   5.532   6.759  0.6641 -0.9008  0.4630
 9778SOL    HW229700   3.351   5.466   6.630 -0.9762 -0.3070  0.6771
 9779SOL     OW29701   0.868   4.337   2.832 -0.6300  0.1173 -0.3096
 9779SOL    HW129702   0.849   4.389   2.910  1.2614 -0.8737  0.8952
 9779SOL    HW229703   0.812   4.260   2.840  1.1769 -1.1284  1.4050
 9780SOL     OW29704   3.144   2.688   2.171 -0.0990 -0.0431  0.0633
 9780SOL    HW129705   3.167   2.732   2.090 -0.6993 -0.8290 -0.5472
 9780SOL    HW229706   3.092   2.753   2.219 -2.1067 -0.4716 -1.4002
 9781SOL     OW29707   5.200   1.067   3.703  0.6102  0.3099 -0.3205
 9781SOL    HW129708   5.270   1.007   3.729  0.3531  0.1274 -0.0487
 9781SOL    HW229709   5.219   1.148   3.750  0.3104  0.0731  0.2165
 9782SOL     OW29710   0.279   4.949   3.264  0.2836  0.2339 -0.0947
 9782SOL    HW129711   0.308   5.039   3.281  0.8628  0.2200 -0.9493
 9782SOL    HW229712   0.280   4.907   3.350  0.4844  0.9070  0.2411
 9783SOL     OW29713   4.850   5.885   4.831  0.4529 -0.2833 -0.1001
 9783SOL    HW129714   4.934   5.850   4.861 -0.3594 -0.3461  2.3704
 9783SOL    HW229715   4.873   5.968   4.788  1.6923  0.9339  2.6488
 9784SOL     OW29716   2.905   3.499   5.987 -0.3188  0.4427 -0.2166
 9784SOL    HW129717   2.935   3.430   6.046  0.1367  0.7672 -0.0694
 9784SOL    HW229718   2.819   3.524   6.022 -1.6177 -1.7251 -1.6820
 9785SOL     OW29719   1.785   1.263   4.134  0.1935 -0.5872 -0.0133
 9785SOL    HW129720   1.768   1.279   4.041 -0.2791 -0.4449  0.0916
 9785SOL    HW229721   1.704   1.290   4.178  0.4556 -0.5434  0.4515
 9786SOL     OW29722   6.129   5.784   1.283  0.0347  0.3428 -0.0750
 9786SOL    HW129723   6.055   5.844   1.274 -0.1771 -0.0226 -0.8741
 9786SOL    HW229724   6.205   5.837   1.260  0.0531  0.7681  0.9232
 9787SOL     OW29725   5.817   1.522   6.665 -0.0303 -0.1533 -0.1619
 9787SOL    HW129726   5.787   1.547   6.578  0.7811  1.1821 -0.0813
 9787SOL    HW229727   5.886   1.457   6.649 -1.7262 -2.0261 -0.3865
 9788SOL     OW29728   5.567   4.708   4.896  0.5460 -0.5624 -0.9667
 9788SOL    HW129729   5.490   4.766   4.891  0.4481 -0.5702  0.1908
 9788SOL    HW229730   5.639   4.766   4.919  0.7081 -0.7054 -1.1107
 9789SOL     OW29731   6.650   3.440   3.014 -0.2845  0.3973  0.5048
 9789SOL    HW129732   6.665   3.371   2.949  0.7400  0.1827  0.9512
 9789SOL    HW229733   6.555   3.442   3.025 -0.3645 -0.6195  0.1377
 9790SOL     OW29734   2.764   6.588   1.717  0.2905  0.8392  0.3275
 9790SOL    HW129735   2.684   6.604   1.668 -0.4259  0.1103  1.2292
 9790SOL    HW229736   2.830   6.568   1.650 -0.6735 -0.2065 -0.3414
 9791SOL     OW29737   6.601   4.717   0.707  0.2807 -0.1225 -0.2076
 9791SOL    HW129738   6.552   4.635   0.711 -1.1923  0.7188 -0.3532
 9791SOL    HW229739   6.636   4.720   0.618  0.9841 -0.9179  0.0209
 9792SOL     OW29740   5.439   5.316   2.510 -0.3077 -0.0140 -0.2888
 9792SOL    HW129741   5.393   5.344   2.589 -1.0586 -2.4145  0.1891
 9792SOL    HW229742   5.499   5.248   2.539 -0.8636 -1.2149 -1.7937
 9793SOL     OW29743   2.033   3.199   1.417  0.0572  0.3918  0.4370
 9793SOL    HW129744   1.962   3.246   1.460 -2.5342 -1.6150 -1.3842
 9793SOL    HW229745   2.035   3.113   1.458  0.3065 -0.1487 -0.6594
 9794SOL     OW29746   1.750   4.401   2.849  0.0112  0.3354 -0.2657
 9794SOL    HW129747   1.804   4.367   2.778 -0.4244 -0.6753 -0.1339
 9794SOL    HW229748   1.768   4.343   2.923 -2.4082 -1.0757 -0.6625
 9795SOL     OW29749   3.295   4.881   4.698  0.3065  0.0255  0.4666
 9795SOL    HW129750   3.287   4.935   4.619  3.0661 -0.7612 -0.4764
 9795SOL    HW229751   3.328   4.942   4.765  2.0146 -0.1175 -0.1964
 9796SOL     OW29752   2.022   3.295   6.512 -0.3165 -0.3995 -0.3211
 9796SOL    HW129753   2.038   3.201   6.521 -0.1991 -0.3675 -0.1999
 9796SOL    HW229754   1.935   3.300   6.471 -0.1508 -0.5669 -0.7054
 9797SOL     OW29755   6.045   2.724   0.260  0.5516  0.0687 -0.2395
 9797SOL    HW129756   6.006   2.644   0.224 -0.7756 -0.0752  1.3940
 9797SOL    HW229757   6.137   2.701   0.274  0.1863 -1.1949  0.2180
 9798SOL     OW29758   5.030   6.214   5.069  0.0720 -0.1177 -0.3021
 9798SOL    HW129759   5.055   6.121   5.072  1.0590  0.1517  2.3159
 9798SOL    HW229760   5.113   6.261   5.067 -0.4290  0.7630 -2.5177
 9799SOL     OW29761   3.098   2.139   5.472  0.2103  0.0460 -0.0545
 9799SOL    HW129762   3.094   2.055   5.426  0.3460  0.2319 -0.4135
 9799SOL    HW229763   3.177   2.181   5.438  1.6225 -0.7483  1.9940
 9800SOL     OW29764   0.010   0.930   3.554 -0.0772  0.3897  0.1980
 9800SOL    HW129765  -0.011   0.948   3.462  2.3791  2.8492 -0.0243
 9800SOL    HW229766  -0.005   1.013   3.599 -0.1450 -0.4640  1.8314
 9801SOL     OW29767   6.228   6.707   4.001 -0.0300  0.0966  0.3066
 9801SOL    HW129768   6.252   6.736   3.913  0.5772  0.4821  0.5918
 9801SOL    HW229769   6.147   6.754   4.020  1.1930  2.0822  0.9549
 9802SOL     OW29770   4.811   5.329   0.268 -0.3067 -0.4924  0.0420
 9802SOL    HW129771   4.730   5.352   0.314 -2.0259 -0.8507 -2.6291
 9802SOL    HW229772   4.858   5.412   0.259 -2.5666  0.6450 -2.2968
 9803SOL     OW29773   5.029   5.490   4.580 -0.2354 -0.1977  0.1408
 9803SOL    HW129774   4.971   5.562   4.554  0.4508  1.0223  1.8061
 9803SOL    HW229775   4.972   5.431   4.630 -0.8248 -0.9067 -1.3204
 9804SOL     OW29776   0.014   0.836   3.797 -0.0351 -0.1088  0.8766
 9804SOL    HW129777   0.004   0.840   3.702 -2.6431 -0.1616  1.0587
 9804SOL    HW229778   0.081   0.769   3.811  0.8729  0.3579 -0.9038
 9805SOL     OW29779   4.236   3.283   2.505 -0.1511 -0.2456 -0.5902
 9805SOL    HW129780   4.331   3.281   2.519  0.3107 -0.3647 -3.1762
 9805SOL    HW229781   4.224   3.343   2.431 -2.1518  0.0778 -0.0560
 9806SOL     OW29782   3.296   5.887   1.941  0.5514  0.5734  0.0263
 9806SOL    HW129783   3.272   5.951   1.874  0.9806  0.0755 -0.6144
 9806SOL    HW229784   3.327   5.811   1.891  0.4628  0.0328  0.7839
 9807SOL     OW29785   4.951   4.155   4.764  0.2176 -1.3468 -0.1336
 9807SOL    HW129786   4.978   4.107   4.842 -0.1065 -2.7590 -0.8551
 9807SOL    HW229787   4.980   4.245   4.780  2.1105 -2.0458  0.6657
 9808SOL     OW29788   2.794   6.365   0.778 -0.1872  0.1875  0.4406
 9808SOL    HW129789   2.704   6.376   0.750  0.0280 -0.0048 -0.3417
 9808SOL    HW229790   2.847   6.394   0.703  0.4075  0.9175  1.1163
 9809SOL     OW29791   2.034   5.501   3.091  0.6505  0.1751  0.3503
 9809SOL    HW129792   2.023   5.542   3.177  0.1242 -1.0168  0.8738
 9809SOL    HW229793   2.002   5.412   3.103  1.4472 -0.2923 -0.8428
 9810SOL     OW29794   2.546   5.000   4.614 -0.1461 -0.2802 -0.1375
 9810SOL    HW129795   2.453   5.006   4.592 -0.1153  0.7114 -0.0201
 9810SOL    HW229796   2.548   5.004   4.710 -0.0099 -0.7995 -0.1147
 9811SOL     OW29797   6.759   2.741   4.285 -0.1735 -0.0811  0.0813
 9811SOL    HW129798   6.772   2.649   4.262  0.7859  0.0388  0.1287
 9811SOL    HW229799   6.847   2.778   4.290 -0.5595  0.8983 -0.1429
 9812SOL     OW29800   0.277   5.143   2.011  0.1650 -0.2229 -0.4457
 9812SOL    HW129801   0.287   5.154   1.916  0.5487 -0.1995 -0.4068
 9812SOL    HW229802   0.324   5.217   2.049  1.5092 -1.1562 -0.2083
 9813SOL     OW29803   4.634   1.720   6.156 -0.0658  0.3361 -0.1835
 9813SOL    HW129804   4.661   1.703   6.247 -2.0320 -1.2383  0.1885
 9813SOL    HW229805   4.635   1.815   6.148 -3.2967  0.8219  2.7204
 9814SOL     OW29806   6.356   1.404   6.200  0.3025 -0.2186 -0.5652
 9814SOL    HW129807   6.404   1.363   6.272 -0.9240  0.9303  0.9914
 9814SOL    HW229808   6.406   1.482   6.179 -0.0231  0.1449 -0.0218
 9815SOL     OW29809   0.610   0.305   3.185  0.7304  0.4273 -0.1107
 9815SOL    HW129810   0.569   0.220   3.199  1.3853  0.2073  0.5367
 9815SOL    HW229811   0.697   0.285   3.150 -0.2027  0.9175 -3.0352
 9816SOL     OW29812   2.247   2.139   5.596 -0.2570  0.1508  0.4745
 9816SOL    HW129813   2.284   2.182   5.518 -1.6521  1.0504  0.2700
 9816SOL    HW229814   2.287   2.052   5.596 -1.6209 -0.5905 -2.3628
 9817SOL     OW29815   6.731   5.695   4.952  0.2031  0.3283  0.7978
 9817SOL    HW129816   6.644   5.728   4.977 -1.7215 -3.0226 -0.7453
 9817SOL    HW229817   6.741   5.615   5.003  0.6088 -1.3329 -1.7336
 9818SOL     OW29818   3.452   0.931   1.905 -0.7792 -0.0525  0.2554
 9818SOL    HW129819   3.492   0.884   1.832  1.1225 -1.4079  2.0741
 9818SOL    HW229820   3.386   0.870   1.939 -1.0033  0.1902  0.2592
 9819SOL     OW29821   1.803   2.214   3.178 -0.0726  0.0867  0.0504
 9819SOL    HW129822   1.735   2.273   3.146  1.7897  2.3505  0.0597
 9819SOL    HW229823   1.869   2.215   3.109  1.4394  0.5545  1.4627
 9820SOL     OW29824   3.112   4.994   3.761 -0.3343  0.3631 -0.3302
 9820SOL    HW129825   3.091   5.007   3.853 -0.1450  0.3791 -0.2886
 9820SOL    HW229826   3.176   4.923   3.761 -0.4993  0.2140 -0.4665
 9821SOL     OW29827   1.648   4.723   1.285  0.1284 -0.4892 -0.3167
 9821SOL    HW129828   1.596   4.726   1.365  0.8358 -1.1291  0.1848
 9821SOL    HW229829   1.712   4.653   1.301  0.7795 -0.0919 -1.1310
 9822SOL     OW29830   1.617   3.238   6.220  0.0686 -0.1794 -0.2994
 9822SOL    HW129831   1.522   3.251   6.216 -0.1652 -1.4866  0.2928
 9822SOL    HW229832   1.650   3.276   6.138 -1.2694 -1.8294 -1.7010
 9823SOL     OW29833   1.280   1.187   4.286  0.0154  0.3617 -0.0740
 9823SOL    HW129834   1.328   1.264   4.256  0.6996 -0.0456 -0.0554
 9823SOL    HW229835   1.192   1.197   4.249 -0.4345  1.9851  1.3286
 9824SOL     OW29836   5.116   3.280   6.210 -0.3239 -0.0609 -0.1612
 9824SOL    HW129837   5.064   3.214   6.164  0.4762 -0.7169 -0.1601
 9824SOL    HW229838   5.072   3.291   6.295 -0.7429 -0.2291 -0.3546
 9825SOL     OW29839   6.686   2.167   6.528  0.3577  0.3812 -0.4212
 9825SOL    HW129840   6.623   2.119   6.583 -0.3968 -0.7996 -2.2326
 9825SOL    HW229841   6.772   2.141   6.561 -0.0705 -0.5643 -0.0274
 9826SOL     OW29842   2.923   4.228   2.592  0.0423 -0.1794 -0.0783
 9826SOL    HW129843   2.885   4.306   2.553 -1.2673 -1.6299 -1.8822
 9826SOL    HW229844   2.865   4.157   2.565  1.7807 -1.9416  0.5719
 9827SOL     OW29845   0.401   6.498   6.662 -0.2464 -0.4839 -0.1766
 9827SOL    HW129846   0.475   6.559   6.659 -1.3895  0.9299 -0.5406
 9827SOL    HW229847   0.437   6.419   6.703  1.7773 -0.2996 -1.4785
 9828SOL     OW29848   6.028   4.511   4.541  0.2018 -0.3515 -0.3614
 9828SOL    HW129849   6.086   4.571   4.495 -2.1339  0.6978 -2.1273
 9828SOL    HW229850   5.940   4.539   4.517 -1.0465 -2.9817  0.7259
 9829SOL     OW29851   0.703   4.640   0.726 -0.3035 -0.3755  0.3143
 9829SOL    HW129852   0.678   4.710   0.666  2.3431  0.8031  0.4239
 9829SOL    HW229853   0.746   4.575   0.670  0.0923 -0.3712  0.6056
 9830SOL     OW29854   2.147   0.646   2.756  0.6639  0.1601  0.6227
 9830SOL    HW129855   2.081   0.579   2.773  0.7296 -0.2999 -0.7816
 9830SOL    HW229856   2.114   0.724   2.800 -0.5588 -0.2032  0.3862
 9831SOL     OW29857   6.534   4.398   5.217  0.3683  0.1186  0.0812
 9831SOL    HW129858   6.533   4.456   5.140  1.5212 -0.6072 -0.5095
 9831SOL    HW229859   6.589   4.444   5.280 -0.6249  0.7412  0.5146
 9832SOL     OW29860   2.707   2.990   2.895  0.0945 -0.1103 -0.3866
 9832SOL    HW129861   2.619   3.027   2.885  0.2400 -0.0705 -1.8160
 9832SOL    HW229862   2.694   2.909   2.944 -1.0712 -1.1651 -2.2840
 9833SOL     OW29863   6.694   4.121   1.772  0.2614  0.4649 -0.2212
 9833SOL    HW129864   6.614   4.073   1.791  0.2744  0.6612  0.3516
 9833SOL    HW229865   6.722   4.155   1.857  0.7312  0.7384 -0.4821
 9834SOL     OW29866   5.470   0.107   0.984 -0.0980  0.6011 -0.3633
 9834SOL    HW129867   5.376   0.107   0.998  0.0278 -0.3517  0.5620
 9834SOL    HW229868   5.506   0.161   1.054  0.1453 -0.1390  0.0901
 9835SOL     OW29869   1.862   1.793   3.480  0.3426  0.2476  0.6464
 9835SOL    HW129870   1.935   1.842   3.442 -0.3321 -0.4817 -1.7903
 9835SOL    HW229871   1.902   1.715   3.519  0.8380 -1.3929 -2.7581
 9836SOL     OW29872   4.726   5.378   4.492 -0.0230 -0.0606  0.1287
 9836SOL    HW129873   4.660   5.444   4.472  0.9905  1.3089  1.0122
 9836SOL    HW229874   4.757   5.403   4.580  1.6545 -0.6223 -0.2683
 9837SOL     OW29875   4.155   2.637   1.154  0.3620  0.1632 -0.3267
 9837SOL    HW129876   4.179   2.578   1.083 -0.6669  0.2260 -0.7429
 9837SOL    HW229877   4.066   2.611   1.178 -0.0033  1.3519 -0.3293
 9838SOL     OW29878   0.455   2.434   5.415 -0.2535 -0.1042 -0.2291
 9838SOL    HW129879   0.426   2.488   5.342  0.9662 -0.9148 -1.3552
 9838SOL    HW229880   0.515   2.370   5.376 -0.3990 -1.2447  1.3148
 9839SOL     OW29881   3.236   3.580   5.489  0.0172 -0.2897  0.0354
 9839SOL    HW129882   3.290   3.518   5.538 -0.4332 -0.8621 -0.1826
 9839SOL    HW229883   3.153   3.583   5.536 -0.0197  0.0243 -0.0484
 9840SOL     OW29884   5.643   4.233   1.621  0.3229 -0.3930 -0.2036
 9840SOL    HW129885   5.724   4.220   1.670  0.8373 -0.2813 -1.0071
 9840SOL    HW229886   5.633   4.153   1.569  0.7371  0.2020 -1.2410
 9841SOL     OW29887   3.416   4.813   6.750 -0.0970  0.1221  0.0580
 9841SOL    HW129888   3.378   4.764   6.677  1.5540 -1.0396 -0.0948
 9841SOL    HW229889   3.505   4.779   6.757  0.3481  1.4701  1.4985
 9842SOL     OW29890   2.335   6.307   2.877  0.0291  0.2303  0.1309
 9842SOL    HW129891   2.417   6.302   2.829  0.5970  1.8191  0.8544
 9842SOL    HW229892   2.306   6.398   2.865 -1.0010  0.0216  0.8877
 9843SOL     OW29893   5.717   2.497   1.255  0.2505 -0.8403 -0.3488
 9843SOL    HW129894   5.661   2.421   1.272  0.7432 -0.8721  1.2885
 9843SOL    HW229895   5.759   2.477   1.172 -0.2633 -1.9797 -0.3518
 9844SOL     OW29896   3.143   4.590   0.574  0.2695 -0.1756 -0.7645
 9844SOL    HW129897   3.114   4.564   0.661  0.0194 -0.1027 -0.8256
 9844SOL    HW229898   3.092   4.537   0.514 -0.0985  0.2994 -0.8831
 9845SOL     OW29899   1.480   3.998   2.898 -0.2073 -0.0088 -0.2395
 9845SOL    HW129900   1.526   3.921   2.931 -0.6319 -1.0533 -1.9754
 9845SOL    HW229901   1.388   3.971   2.893 -0.3170  0.4892 -1.1654
 9846SOL     OW29902   6.486   6.012   3.296  0.7594  0.1665  1.0176
 9846SOL    HW129903   6.462   6.073   3.226 -1.0760  0.1704  1.6003
 9846SOL    HW229904   6.504   5.930   3.251  2.3593  0.8677  0.3077
 9847SOL     OW29905   4.664   1.609   0.845  0.3013 -0.3558  0.5294
 9847SOL    HW129906   4.600   1.581   0.780 -0.0805 -1.9837  1.5685
 9847SOL    HW229907   4.734   1.650   0.793 -0.0703 -1.4561 -0.9045
 9848SOL     OW29908   0.608   4.407   5.432  0.0001 -0.4033 -0.6207
 9848SOL    HW129909   0.620   4.445   5.345 -0.6544  0.1873 -0.4620
 9848SOL    HW229910   0.520   4.368   5.430 -0.6363  0.9118  0.2276
 9849SOL     OW29911   5.317   1.994   2.030  0.2298  0.2283 -0.0318
 9849SOL    HW129912   5.357   2.026   1.949  0.7934 -1.8866 -0.6599
 9849SOL    HW229913   5.357   2.045   2.099  2.2154 -0.1216 -0.8593
 9850SOL     OW29914   4.828   5.231   2.586 -0.4369 -0.7022 -0.1756
 9850SOL    HW129915   4.903   5.267   2.634 -1.3623 -1.1556  1.7123
 9850SOL    HW229916   4.867   5.167   2.526  0.8609  0.6643 -0.8647
 9851SOL     OW29917   3.337   4.112   5.032  0.4198 -0.2797 -0.3897
 9851SOL    HW129918   3.245   4.092   5.048 -0.6118  2.6577 -1.9671
 9851SOL    HW229919   3.361   4.173   5.102 -0.0233  1.8783 -2.0402
 9852SOL     OW29920   5.756   3.575   1.430 -0.6545  0.1004 -0.4906
 9852SOL    HW129921   5.799   3.626   1.498  0.6665  0.9824 -1.9181
 9852SOL    HW229922   5.794   3.487   1.439 -0.5767  0.1795 -0.0255
 9853SOL     OW29923   4.304   6.266   0.756  0.2883 -0.4160 -0.0760
 9853SOL    HW129924   4.374   6.256   0.692 -0.8766 -0.2011 -1.4258
 9853SOL    HW229925   4.243   6.195   0.737 -0.5878  0.2669  0.1191
 9854SOL     OW29926   4.642   4.860   1.535 -0.1520 -0.3874  0.0132
 9854SOL    HW129927   4.605   4.850   1.622  1.4735  1.1505  0.9428
 9854SOL    HW229928   4.720   4.804   1.535  0.8021  0.9010  0.1742
 9855SOL     OW29929   1.943   6.136   3.164  0.2141 -0.1372  0.3470
 9855SOL    HW129930   2.038   6.123   3.164  0.2739  0.2469 -0.3543
 9855SOL    HW229931   1.932   6.228   3.186 -0.0085 -0.2188  0.5807
 9856SOL     OW29932   2.103   0.298   6.670 -0.0028 -0.5488 -0.4852
 9856SOL    HW129933   2.064   0.369   6.721  0.3482 -0.0553 -0.8952
 9856SOL    HW229934   2.186   0.280   6.715  0.1619 -0.3259 -0.6995
 9857SOL     OW29935   0.998   0.962   3.288 -0.0315 -0.2135  0.2082
 9857SOL    HW129936   1.015   1.055   3.303  1.1421 -0.6769  2.1791
 9857SOL    HW229937   1.042   0.918   3.361  0.0722 -2.3789 -1.0733
 9858SOL     OW29938   2.870   3.686   0.986 -0.0183 -0.2197 -0.8432
 9858SOL    HW129939   2.936   3.618   0.999 -1.7464 -1.9697 -0.6746
 9858SOL    HW229940   2.853   3.721   1.073 -0.4265 -0.8927 -0.6461
 9859SOL     OW29941   1.045   1.656   6.472 -0.4842  0.2038  0.4138
 9859SOL    HW129942   1.010   1.572   6.503 -0.5701  0.1814  0.2592
 9859SOL    HW229943   0.973   1.718   6.483 -0.4814  0.2176  0.3570
 9860SOL     OW29944   6.152   5.982   3.133  0.3533 -0.0716 -0.1907
 9860SOL    HW129945   6.072   5.939   3.163  0.6556 -0.1493  0.5219
 9860SOL    HW229946   6.219   5.955   3.196  0.9020  0.1446 -0.6711
 9861SOL     OW29947   0.405   5.347   4.879 -0.0496 -0.1997 -0.5441
 9861SOL    HW129948   0.339   5.358   4.948  0.2671 -0.7137 -0.1550
 9861SOL    HW229949   0.418   5.435   4.844  0.5720  0.2471  0.7759
 9862SOL     OW29950   2.313   3.252   3.869  0.5331  0.0467 -0.4022
 9862SOL    HW129951   2.230   3.249   3.821  0.5585  0.5804 -0.4845
 9862SOL    HW229952   2.307   3.331   3.923  1.0543  0.1825 -0.5322
 9863SOL     OW29953   2.446   5.017   2.461  0.4925  0.0600  0.1069
 9863SOL    HW129954   2.379   4.975   2.408  1.1853  0.9589 -1.5756
 9863SOL    HW229955   2.469   5.096   2.413  1.0872  1.0017  1.8382
 9864SOL     OW29956   3.638   4.389   0.295 -0.1476 -0.1773 -0.3105
 9864SOL    HW129957   3.642   4.321   0.228  0.1460  0.1429 -0.6245
 9864SOL    HW229958   3.656   4.343   0.378  1.6641 -0.2297 -0.6919
 9865SOL     OW29959   0.933   5.583   1.675 -0.0299  0.0770  0.2985
 9865SOL    HW129960   0.967   5.528   1.604 -0.4213 -1.0690  0.9662
 9865SOL    HW229961   0.954   5.672   1.648  1.5994 -0.4524 -0.3133
 9866SOL     OW29962   3.606   3.629   1.047 -0.1946 -0.3274  0.0191
 9866SOL    HW129963   3.677   3.692   1.038  0.3046 -0.9197 -0.2127
 9866SOL    HW229964   3.638   3.549   1.006 -1.4062 -0.2836 -1.0841
 9867SOL     OW29965   5.172   5.672   1.299  0.1929  0.1067  0.1135
 9867SOL    HW129966   5.237   5.687   1.231 -0.5287  0.4641 -0.5105
 9867SOL    HW229967   5.192   5.738   1.366  1.5280 -0.8858  0.7503
 9868SOL     OW29968   1.014   2.859   6.360 -0.7177 -0.4634  0.5849
 9868SOL    HW129969   0.981   2.906   6.437 -0.8723  0.1687  0.1356
 9868SOL    HW229970   1.086   2.912   6.328 -1.9951  0.4413 -0.9582
 9869SOL     OW29971   5.835   0.449   5.231 -0.1793  0.3391 -0.0425
 9869SOL    HW129972   5.750   0.493   5.231 -0.0869  0.5342  0.8897
 9869SOL    HW229973   5.865   0.454   5.140 -0.0184  2.4967  0.0786
 9870SOL     OW29974   0.466   6.647   2.427 -0.7336 -0.1342  0.4190
 9870SOL    HW129975   0.393   6.586   2.437  1.1190 -2.7458 -0.8079
 9870SOL    HW229976   0.526   6.625   2.498  0.0625  0.1175 -0.1632
 9871SOL     OW29977   4.365   0.520   6.225 -0.3750 -0.4168 -0.2702
 9871SOL    HW129978   4.307   0.445   6.236 -0.1777 -0.3941  1.1961
 9871SOL    HW229979   4.349   0.573   6.304  1.1503 -0.0831 -0.1653
 9872SOL     OW29980   3.709   1.238   4.689  0.1458  0.2398  0.5949
 9872SOL    HW129981   3.654   1.163   4.670  0.6991  0.3507 -1.8238
 9872SOL    HW229982   3.656   1.314   4.664  1.1773  0.3607 -1.4466
 9873SOL     OW29983   1.789   4.461   4.009 -0.3137 -0.0695 -0.4734
 9873SOL    HW129984   1.823   4.424   3.927 -3.4834  0.7160 -2.3305
 9873SOL    HW229985   1.730   4.394   4.043  1.8720 -0.9096  1.9943
 9874SOL     OW29986   1.328   4.550   0.893 -0.3503  0.7512 -0.4972
 9874SOL    HW129987   1.323   4.588   0.805 -0.3011 -1.3003 -1.4376
 9874SOL    HW229988   1.422   4.542   0.910 -0.3026 -1.1473 -1.3698
 9875SOL     OW29989   1.132   4.790   4.010 -0.2050 -0.2805 -0.0637
 9875SOL    HW129990   1.150   4.729   4.083  1.4139  1.4505  1.0854
 9875SOL    HW229991   1.219   4.815   3.979 -0.7917  1.8985 -0.0686
 9876SOL     OW29992   2.051   5.200   1.616 -0.1813  0.0337  0.4471
 9876SOL    HW129993   1.988   5.173   1.549  0.3600 -0.7662  0.2416
 9876SOL    HW229994   2.123   5.241   1.567  2.1121 -3.9651 -0.0198
 9877SOL     OW29995   4.074   3.717   4.976 -0.0321 -0.2800 -0.5302
 9877SOL    HW129996   3.985   3.705   4.943  0.3553  0.0905 -1.7629
 9877SOL    HW229997   4.127   3.731   4.897  0.9447  0.5487  0.2437
 9878SOL     OW29998   2.381   1.383   1.729 -0.3617  0.2721  0.0514
 9878SOL    HW129999   2.328   1.419   1.801 -1.3268  0.7614 -0.8708
 9878SOL    HW230000   2.373   1.289   1.738  0.3516  0.2973  1.1677
 9879SOL     OW30001   4.260   2.049   4.778  0.1928  0.2861  0.0651
 9879SOL    HW130002   4.286   1.995   4.854  2.9670 -0.9973 -1.6181
 9879SOL    HW230003   4.282   2.138   4.804  0.6831 -0.0699  0.9467
 9880SOL     OW30004   2.463   3.999   4.954 -0.1063 -0.0053 -0.3583
 9880SOL    HW130005   2.525   4.043   4.897  1.3952 -0.3875  0.9087
 9880SOL    HW230006   2.506   3.997   5.040 -1.2000 -1.6588  0.2073
 9881SOL     OW30007   5.561   4.775   2.589  0.3535 -0.0958  0.4874
 9881SOL    HW130008   5.653   4.754   2.575  0.0569 -0.5267 -1.0417
 9881SOL    HW230009   5.553   4.868   2.567  0.2741 -0.2771 -0.2886
 9882SOL     OW30010   1.948   3.613   4.019  0.1907 -0.5176  0.2594
 9882SOL    HW130011   1.868   3.651   3.983  0.6748 -0.2631 -0.5679
 9882SOL    HW230012   2.004   3.599   3.943  1.0786 -0.3342  0.8719
 9883SOL     OW30013   0.786   3.984   0.574 -0.1857  0.1002  0.2414
 9883SOL    HW130014   0.807   3.913   0.513  0.5943 -0.1705  0.8178
 9883SOL    HW230015   0.697   4.011   0.549 -0.7310 -1.4720  0.3978
 9884SOL     OW30016   3.731   3.028   5.534 -0.6545 -0.1221 -0.3540
 9884SOL    HW130017   3.742   3.102   5.593  2.3847 -0.7056 -0.0532
 9884SOL    HW230018   3.736   3.066   5.446  1.5899  0.0110 -0.2071
 9885SOL     OW30019   2.705   1.160   6.106  0.3232  0.1579 -0.1540
 9885SOL    HW130020   2.632   1.217   6.081 -0.5006 -1.4212 -1.5786
 9885SOL    HW230021   2.767   1.169   6.034  1.9633  2.0464  1.3850
 9886SOL     OW30022   5.492   4.742   6.142 -0.0011 -0.1047 -0.6061
 9886SOL    HW130023   5.455   4.787   6.066 -0.6511 -1.6413 -1.2403
 9886SOL    HW230024   5.434   4.766   6.214  0.9386  1.8125 -0.4249
 9887SOL     OW30025   0.986   3.762   5.182  0.0304 -0.0729  0.1315
 9887SOL    HW130026   0.922   3.821   5.143  1.0981  0.2474 -1.2280
 9887SOL    HW230027   0.945   3.731   5.262 -3.4688 -2.8294 -2.3949
 9888SOL     OW30028   3.689   1.772   3.526 -0.0254  0.0755 -0.3791
 9888SOL    HW130029   3.726   1.858   3.506  2.5800 -0.7651  0.3053
 9888SOL    HW230030   3.751   1.733   3.588 -0.6360 -2.5952 -1.2751
 9889SOL     OW30031   6.472   2.412   5.405  0.4686 -0.1735 -0.2939
 9889SOL    HW130032   6.421   2.493   5.398  0.6749 -0.1616 -2.0508
 9889SOL    HW230033   6.456   2.381   5.494 -1.3310  0.6636 -0.2923
 9890SOL     OW30034   4.257   2.455   0.724  0.6917  0.4293 -0.2185
 9890SOL    HW130035   4.171   2.494   0.708 -0.0821 -0.0826  2.1979
 9890SOL    HW230036   4.258   2.375   0.671 -0.1839  0.6072 -0.5164
 9891SOL     OW30037   1.720   6.731   0.764  0.1886 -0.5138 -0.2450
 9891SOL    HW130038   1.805   6.760   0.731 -0.7464  2.1053 -0.6210
 9891SOL    HW230039   1.669   6.712   0.685 -0.5402  1.1227 -0.2224
 9892SOL     OW30040   3.411   0.018   4.062  0.2112  0.0931 -0.3204
 9892SOL    HW130041   3.459  -0.019   3.988  0.9081 -1.3416  0.8025
 9892SOL    HW230042   3.340  -0.044   4.079  0.7512 -0.2106  0.9299
 9893SOL     OW30043   6.144   4.161   1.096  0.0146 -0.3724 -0.1611
 9893SOL    HW130044   6.100   4.077   1.079 -0.1973 -0.4186  0.5728
 9893SOL    HW230045   6.074   4.226   1.090 -0.1534 -0.4381  0.9379
 9894SOL     OW30046   2.175   1.751   1.658 -0.2488 -0.1781 -0.1100
 9894SOL    HW130047   2.248   1.808   1.635 -0.3919 -0.1015 -0.3791
 9894SOL    HW230048   2.099   1.791   1.615 -0.1882 -1.1077 -1.1100
 9895SOL     OW30049   2.043   6.284   2.916 -0.3847  0.1957  0.0490
 9895SOL    HW130050   2.055   6.363   2.969  0.3416 -0.9953  1.7169
 9895SOL    HW230051   2.127   6.272   2.872 -0.2427 -0.1049  0.4103
 9896SOL     OW30052   2.870   6.221   0.428  0.2809 -0.2272  0.1532
 9896SOL    HW130053   2.954   6.189   0.461  0.1552  1.3884  2.2566
 9896SOL    HW230054   2.805   6.167   0.472  0.1663  0.1559  0.4543
 9897SOL     OW30055   1.623   0.656   2.782 -0.1278  0.0216 -0.3697
 9897SOL    HW130056   1.675   0.613   2.714 -0.3065  0.1854 -0.6082
 9897SOL    HW230057   1.559   0.589   2.809  0.9586 -0.6150  0.7822
 9898SOL     OW30058   2.708   1.319   2.598  0.0984 -0.2402  0.6276
 9898SOL    HW130059   2.697   1.225   2.609 -1.0776 -0.1759  0.1368
 9898SOL    HW230060   2.735   1.330   2.507 -0.4762 -0.0555  0.4784
 9899SOL     OW30061   1.238   4.681   2.738  0.6618  0.2496 -0.1487
 9899SOL    HW130062   1.194   4.671   2.822  0.2192  0.0644 -0.4017
 9899SOL    HW230063   1.320   4.726   2.759  0.2143  0.8822  0.2864
 9900SOL     OW30064   1.941   3.110   5.120  0.0071 -0.4924 -0.1248
 9900SOL    HW130065   2.001   3.113   5.046 -0.8997 -0.3491 -0.8689
 9900SOL    HW230066   1.905   3.021   5.118 -1.0167 -0.0810 -0.6811
 9901SOL     OW30067   5.795   2.466   3.721  0.0650  0.3394  0.9625
 9901SOL    HW130068   5.824   2.418   3.644  2.2071  2.0670  0.6251
 9901SOL    HW230069   5.705   2.491   3.701  0.7528  1.2248 -1.2342
 9902SOL     OW30070   1.054   0.552   5.569  0.1368  0.1146 -0.0562
 9902SOL    HW130071   1.134   0.566   5.620 -0.5729  1.2503  0.8011
 9902SOL    HW230072   1.025   0.464   5.594  1.0502 -0.2621 -0.2912
 9903SOL     OW30073   5.832   4.747   2.578  0.2934 -0.2090 -0.2028
 9903SOL    HW130074   5.879   4.830   2.567 -1.4082  0.8927  0.4857
 9903SOL    HW230075   5.890   4.694   2.633  1.5720  0.3447 -0.9588
 9904SOL     OW30076   4.183   3.665   0.375  0.6354 -0.1701  0.7548
 9904SOL    HW130077   4.203   3.657   0.468  1.1193  1.2874  0.8007
 9904SOL    HW230078   4.092   3.695   0.372  0.5743 -0.3535  0.7478
 9905SOL     OW30079   2.276   0.309   0.312 -0.1872  0.1877 -0.0702
 9905SOL    HW130080   2.181   0.312   0.321 -0.1297  0.2469  0.5448
 9905SOL    HW230081   2.301   0.399   0.294  0.0156  0.7481  2.6483
 9906SOL     OW30082   2.742   2.549   1.747 -0.7330 -0.2793 -0.6271
 9906SOL    HW130083   2.698   2.553   1.662  0.5094 -1.3522 -1.3656
 9906SOL    HW230084   2.675   2.517   1.807 -1.0488 -1.7025 -1.6813
 9907SOL     OW30085   3.300   1.920   2.312  0.0259  0.0226 -0.0805
 9907SOL    HW130086   3.245   1.860   2.363 -2.5056  1.9262 -0.3953
 9907SOL    HW230087   3.243   1.953   2.243  1.6476  1.9337 -0.6146
 9908SOL     OW30088   6.091   1.999   1.355  0.2653 -0.4489 -0.4605
 9908SOL    HW130089   6.100   1.917   1.404 -0.1422 -0.4411 -0.3639
 9908SOL    HW230090   6.022   2.046   1.401  1.4482  0.5762  0.3283
 9909SOL     OW30091   2.088   0.365   3.451 -0.0675 -0.1237 -0.1500
 9909SOL    HW130092   2.068   0.324   3.535 -1.6416 -0.9273 -0.8582
 9909SOL    HW230093   2.089   0.293   3.389 -2.7837  0.7620 -1.4187
 9910SOL     OW30094   1.842   0.828   1.440 -0.3116  0.1675 -0.6287
 9910SOL    HW130095   1.781   0.883   1.391  0.4933 -0.5146 -2.4681
 9910SOL    HW230096   1.919   0.884   1.454 -0.1189  0.0196 -1.0948
 9911SOL     OW30097   5.062   2.240   2.030  0.2409  0.7070  0.2097
 9911SOL    HW130098   5.002   2.222   2.103  0.4824 -0.0500  0.2225
 9911SOL    HW230099   5.136   2.285   2.071 -0.3712  1.7996  0.1715
 9912SOL     OW30100   2.121   6.587   1.490 -0.5491 -0.5221  0.2618
 9912SOL    HW130101   2.037   6.623   1.460 -0.1415 -0.5466 -0.9933
 9912SOL    HW230102   2.159   6.656   1.544  0.1643  0.9631 -2.0026
 9913SOL     OW30103   6.757   1.207   2.100  0.0239  0.4629 -0.3310
 9913SOL    HW130104   6.727   1.147   2.032  1.6357  0.6907 -1.2954
 9913SOL    HW230105   6.817   1.267   2.055 -0.4347  1.9164  0.8906
 9914SOL     OW30106   6.029   5.264   3.516  0.2955  0.2773 -0.0453
 9914SOL    HW130107   6.053   5.172   3.523  2.6077  0.7577 -0.6477
 9914SOL    HW230108   6.066   5.305   3.594  0.4094  0.8885 -0.4109
 9915SOL     OW30109   0.006   5.218   5.058  0.0021 -0.0248  0.2177
 9915SOL    HW130110  -0.040   5.201   5.140  0.0029  0.1167  0.2470
 9915SOL    HW230111  -0.063   5.231   4.993 -0.0877  2.9701  0.7852
 9916SOL     OW30112   0.405   1.371   2.272 -0.1419 -0.1987  0.3807
 9916SOL    HW130113   0.427   1.364   2.179  0.0846 -0.0733  0.4238
 9916SOL    HW230114   0.476   1.327   2.317 -0.2487 -0.2544  0.4958
 9917SOL     OW30115   3.643   1.863   2.812 -0.3193  0.2941 -0.1326
 9917SOL    HW130116   3.559   1.833   2.779 -0.3038 -0.2399  0.2892
 9917SOL    HW230117   3.696   1.784   2.818 -0.0352  0.5133  0.3116
 9918SOL     OW30118   1.764   3.775   3.250 -0.1149  0.4684 -0.5100
 9918SOL    HW130119   1.807   3.725   3.181  0.7539 -0.3892  0.5960
 9918SOL    HW230120   1.696   3.717   3.284  0.2784  0.3799  0.1583
 9919SOL     OW30121   6.006   6.054   2.870  0.2208 -0.3875 -0.3532
 9919SOL    HW130122   6.090   6.055   2.914  1.3143  0.2051 -2.3218
 9919SOL    HW230123   5.941   6.048   2.940  1.7399  2.5691  1.5075
 9920SOL     OW30124   5.712   5.457   1.175  0.5366  0.2805  0.0930
 9920SOL    HW130125   5.769   5.521   1.218 -0.6588  0.5010  1.4326
 9920SOL    HW230126   5.651   5.510   1.124  1.1654  0.0663 -0.9107
 9921SOL     OW30127   1.546   0.866   2.575  0.4512 -0.1439 -0.1787
 9921SOL    HW130128   1.459   0.862   2.536  0.6352  2.6379 -1.1250
 9921SOL    HW230129   1.538   0.816   2.657 -1.5588 -1.2530 -0.9856
 9922SOL     OW30130   0.531   2.729   3.640 -0.0135 -0.0441 -0.8287
 9922SOL    HW130131   0.464   2.787   3.677 -2.3069 -2.4776 -0.8733
 9922SOL    HW230132   0.514   2.644   3.680  3.2212 -0.7998 -0.7574
 9923SOL     OW30133   2.968   2.146   3.566  0.1257 -0.3289  0.1284
 9923SOL    HW130134   3.028   2.198   3.620 -1.1591  3.2347 -1.5482
 9923SOL    HW230135   2.888   2.138   3.619 -1.0559  2.9805 -0.8746
 9924SOL     OW30136   2.099   0.918   1.507 -0.2878 -0.0714 -0.4902
 9924SOL    HW130137   2.141   0.981   1.566 -2.1990  0.2996  0.5705
 9924SOL    HW230138   2.166   0.852   1.491  1.2331  1.3473 -0.2800
 9925SOL     OW30139   1.580   3.890   1.200 -0.4751 -0.4007  0.0448
 9925SOL    HW130140   1.647   3.841   1.152  0.3706  2.2465 -1.6863
 9925SOL    HW230141   1.501   3.880   1.147 -0.2455  0.2257 -0.4327
 9926SOL     OW30142   6.271   4.855   3.317 -0.3722  0.3279 -0.1011
 9926SOL    HW130143   6.290   4.878   3.226  0.1889 -0.8274 -0.2983
 9926SOL    HW230144   6.197   4.795   3.312  0.2687 -0.5018  0.1049
 9927SOL     OW30145   1.862   4.145   5.818 -0.4043 -0.2624 -0.1948
 9927SOL    HW130146   1.783   4.155   5.870 -1.5835 -2.2549 -1.4454
 9927SOL    HW230147   1.927   4.111   5.879 -0.1944  2.1338  1.0337
 9928SOL     OW30148   2.633   1.609   1.943  0.0114 -0.0227  0.4475
 9928SOL    HW130149   2.636   1.697   1.981  0.3585 -0.5628  1.6966
 9928SOL    HW230150   2.542   1.599   1.913 -0.1835  0.5251  0.8445
 9929SOL     OW30151   4.139   0.410   2.600  0.3235 -0.2985  0.1579
 9929SOL    HW130152   4.157   0.504   2.604  0.0674 -0.2108 -0.6212
 9929SOL    HW230153   4.210   0.374   2.547 -2.0567  0.1743 -3.7161
 9930SOL     OW30154   5.126   4.957   1.585  0.3886  0.6969  0.0059
 9930SOL    HW130155   5.148   4.866   1.564 -0.8903 -0.1321  1.9627
 9930SOL    HW230156   5.208   4.997   1.612  1.4274  0.8601 -2.9791
 9931SOL     OW30157   5.340   6.493   6.023 -0.2748 -0.3309  0.6486
 9931SOL    HW130158   5.407   6.538   6.075 -0.3237 -1.1585  1.4510
 9931SOL    HW230159   5.263   6.493   6.079  0.1701 -2.8035  1.3559
 9932SOL     OW30160   0.268   6.265   3.366  0.0416 -0.0127 -0.0628
 9932SOL    HW130161   0.315   6.291   3.446 -0.2363  0.2278  0.0244
 9932SOL    HW230162   0.187   6.317   3.368  0.5878  0.9358 -1.1189
 9933SOL     OW30163   0.869   1.914   4.882 -0.0767 -0.0056 -0.5419
 9933SOL    HW130164   0.894   1.932   4.791  1.2900  2.1303  0.1948
 9933SOL    HW230165   0.825   1.993   4.912  1.3249  0.1570  1.2504
 9934SOL     OW30166   1.662   4.560   5.738 -0.3494 -0.6369  0.4452
 9934SOL    HW130167   1.616   4.481   5.768  1.3190 -1.7479  0.1980
 9934SOL    HW230168   1.742   4.527   5.698  0.6996  1.2432  0.9100
 9935SOL     OW30169   1.048   6.403   2.586 -0.2214  0.1754 -0.0082
 9935SOL    HW130170   1.142   6.411   2.571 -0.2759  0.0283 -0.4336
 9935SOL    HW230171   1.008   6.417   2.501 -0.4385 -2.3236 -0.3975
 9936SOL     OW30172   3.781   6.558   6.768  0.0548 -0.1466  0.1579
 9936SOL    HW130173   3.766   6.622   6.838 -1.4130 -2.2609  1.9308
 9936SOL    HW230174   3.774   6.608   6.687  1.0925  2.2779  1.4859
 9937SOL     OW30175   2.942   5.639   1.745  0.1007 -0.4383 -0.3280
 9937SOL    HW130176   2.868   5.689   1.779  0.2188 -1.4720  1.5819
 9937SOL    HW230177   2.902   5.575   1.685 -0.5605 -0.9078  0.5971
 9938SOL     OW30178   6.174   1.599   3.816  0.1518  0.3901 -0.1192
 9938SOL    HW130179   6.257   1.575   3.856  0.4245  0.4785 -0.6208
 9938SOL    HW230180   6.165   1.539   3.742 -0.6785 -0.2356  0.4686
 9939SOL     OW30181   2.312   0.904   6.120 -0.4440 -0.0501  0.0379
 9939SOL    HW130182   2.257   0.975   6.085  2.1518  2.2196  0.1902
 9939SOL    HW230183   2.312   0.837   6.052 -1.6852  0.8294 -0.8646
 9940SOL     OW30184   2.379   2.006   6.763  0.3392 -0.1554  0.1187
 9940SOL    HW130185   2.441   2.078   6.775  0.2085 -0.0237  0.0066
 9940SOL    HW230186   2.381   1.987   6.669 -0.1921  0.2146  0.0251
 9941SOL     OW30187   5.619   5.746   3.358  0.0676  0.2722 -0.1030
 9941SOL    HW130188   5.605   5.838   3.335  1.3834  0.6475  0.4796
 9941SOL    HW230189   5.714   5.736   3.359 -0.0225 -1.7302 -2.5390
 9942SOL     OW30190   1.237   1.200   3.863 -0.5253 -0.5598 -0.0443
 9942SOL    HW130191   1.156   1.216   3.911 -0.1943  0.8681  0.0719
 9942SOL    HW230192   1.211   1.205   3.771 -0.3904  1.0583 -0.0214
 9943SOL     OW30193   0.154   4.693   5.555  0.1500  0.4326  0.2255
 9943SOL    HW130194   0.152   4.658   5.644 -0.2008 -1.6535 -0.5404
 9943SOL    HW230195   0.245   4.682   5.527  0.6558  2.6294  0.8514
 9944SOL     OW30196   0.668   5.402   2.640  0.3294 -0.0908  0.0540
 9944SOL    HW130197   0.615   5.327   2.665 -0.5636  0.3968 -0.3504
 9944SOL    HW230198   0.641   5.472   2.699  0.7254  0.0840  0.0326
 9945SOL     OW30199   2.870   3.762   1.238  0.0065  0.5476  0.1918
 9945SOL    HW130200   2.949   3.807   1.209 -0.4680  0.8614 -0.6300
 9945SOL    HW230201   2.890   3.735   1.328 -0.0406  3.3187  1.1591
 9946SOL     OW30202   0.140   3.621   3.359  0.1933 -0.4451 -0.0754
 9946SOL    HW130203   0.056   3.619   3.313 -0.2471  1.3656  0.5788
 9946SOL    HW230204   0.155   3.530   3.384 -1.7143 -0.7730  0.0357
 9947SOL     OW30205   0.128   3.850   5.409  0.6159 -0.2242  0.1038
 9947SOL    HW130206   0.126   3.854   5.314  1.0424 -2.3237 -0.0475
 9947SOL    HW230207   0.137   3.756   5.429  1.1962  0.2234  2.1965
 9948SOL     OW30208   3.118   0.463   6.793  0.7843  0.0100 -0.5908
 9948SOL    HW130209   3.154   0.467   6.881  0.8473  1.3251 -0.6593
 9948SOL    HW230210   3.075   0.377   6.788  1.4826 -0.4156  0.4300
 9949SOL     OW30211   5.599   1.907   2.888  0.1404 -0.7296  0.8936
 9949SOL    HW130212   5.665   1.951   2.835  0.7978 -1.9210  0.6829
 9949SOL    HW230213   5.562   1.976   2.942 -0.9022  0.6318 -1.4220
 9950SOL     OW30214   1.218   6.145   4.717 -0.2829  0.3026 -0.1240
 9950SOL    HW130215   1.262   6.111   4.639 -1.7468 -0.0085 -0.8443
 9950SOL    HW230216   1.127   6.117   4.707 -0.4340 -0.0649  1.8841
 9951SOL     OW30217   4.188   3.834   4.307  0.0471  0.4564  0.6156
 9951SOL    HW130218   4.124   3.771   4.275 -0.0149 -0.2430  2.0470
 9951SOL    HW230219   4.252   3.842   4.236 -0.6912 -0.1408 -0.1375
 9952SOL     OW30220   3.108   0.224   3.475 -0.6192 -0.2475  0.4117
 9952SOL    HW130221   3.085   0.302   3.525 -1.0154 -0.4271  0.5164
 9952SOL    HW230222   3.115   0.254   3.384  0.5465  0.1721  0.6253
 9953SOL     OW30223   0.840   0.942   4.416  0.4789  0.1336 -0.4286
 9953SOL    HW130224   0.851   0.888   4.338 -0.2145  1.5202 -1.5302
 9953SOL    HW230225   0.919   0.925   4.468  1.9734  0.6754 -2.3756
 9954SOL     OW30226   6.416   1.151   1.148  0.0080 -0.0535  0.1711
 9954SOL    HW130227   6.456   1.067   1.173  1.5275  0.6011  0.0257
 9954SOL    HW230228   6.445   1.212   1.216 -2.8340 -0.0331  1.4856
 9955SOL     OW30229   6.147   2.390   5.256  0.1526 -0.0577 -0.4203
 9955SOL    HW130230   6.139   2.448   5.332  1.1789  0.7666 -0.9194
 9955SOL    HW230231   6.100   2.310   5.282  0.9524 -0.0224  1.2952
 9956SOL     OW30232   5.902   3.662   1.674  0.3851  0.5305 -0.7295
 9956SOL    HW130233   5.917   3.616   1.757  3.0407  1.4599 -0.5939
 9956SOL    HW230234   5.925   3.753   1.693  0.3390  0.9037 -2.3335
 9957SOL     OW30235   5.508   2.307   5.644  0.0764 -0.0491  0.1349
 9957SOL    HW130236   5.551   2.343   5.722  2.1384  0.6938 -1.2680
 9957SOL    HW230237   5.566   2.237   5.615 -0.8054 -0.4914 -0.6098
 9958SOL     OW30238   4.493   5.429   1.532 -0.2915  0.2301  0.4003
 9958SOL    HW130239   4.438   5.389   1.464  1.2591  0.7290 -1.2603
 9958SOL    HW230240   4.509   5.358   1.594 -2.2140 -0.0922  0.5807
 9959SOL     OW30241   5.417   3.651   0.343 -0.3194  0.1288  0.0670
 9959SOL    HW130242   5.415   3.727   0.401 -0.7150  0.5303 -0.4580
 9959SOL    HW230243   5.329   3.646   0.306  0.4926  1.2914 -2.2488
 9960SOL     OW30244   1.303   6.342   3.386  0.0622 -0.5491  0.1101
 9960SOL    HW130245   1.231   6.279   3.383 -0.9914  0.5352  1.6782
 9960SOL    HW230246   1.273   6.416   3.334  0.2598 -0.2867  0.3698
 9961SOL     OW30247   3.608   5.080   0.059 -0.2475  0.6871 -0.1974
 9961SOL    HW130248   3.670   5.045   0.122 -0.0249 -1.1517 -1.3635
 9961SOL    HW230249   3.561   5.148   0.107  0.4185 -0.1210  1.7029
 9962SOL     OW30250   6.478   1.412   5.742 -0.0498  0.1987  0.2075
 9962SOL    HW130251   6.573   1.416   5.747  0.1169 -0.0477 -1.7374
 9962SOL    HW230252   6.456   1.462   5.663 -1.5707  0.5852  0.8390
 9963SOL     OW30253   5.786   2.809   1.835 -0.3977 -0.0469 -0.1226
 9963SOL    HW130254   5.782   2.753   1.913  0.4258  0.5855  0.3877
 9963SOL    HW230255   5.778   2.748   1.761  0.2494 -0.8147  0.4256
 9964SOL     OW30256   2.447   1.665   5.227 -0.0191  0.3755  0.1574
 9964SOL    HW130257   2.395   1.586   5.243 -0.7742  0.8690  0.1549
 9964SOL    HW230258   2.489   1.648   5.142  1.3165 -0.8002  1.0019
 9965SOL     OW30259   0.732   4.178   3.680  0.4027 -0.0966 -0.4741
 9965SOL    HW130260   0.644   4.157   3.651  0.8962 -1.0527 -1.3309
 9965SOL    HW230261   0.721   4.255   3.737 -0.8059  0.6341 -1.6464
 9966SOL     OW30262   1.437   5.401   2.292 -0.1886 -0.1474 -0.3791
 9966SOL    HW130263   1.525   5.432   2.271  0.5713 -1.8432  0.1249
 9966SOL    HW230264   1.440   5.307   2.274 -2.0522 -0.1759 -0.8041
 9967SOL     OW30265   5.458   6.123   4.407 -0.3277 -0.0474  0.2541
 9967SOL    HW130266   5.421   6.040   4.377  0.2202 -0.4035  0.5493
 9967SOL    HW230267   5.382   6.181   4.417 -0.8787 -0.9468  1.4348
 9968SOL     OW30268   0.869   4.706   4.169  0.1351 -0.2396 -0.4005
 9968SOL    HW130269   0.920   4.776   4.128  0.6153 -0.2905  0.0886
 9968SOL    HW230270   0.809   4.752   4.228 -2.0773 -0.0129 -2.6738
 9969SOL     OW30271   3.332   1.513   0.051 -0.6221  0.4063  0.0472
 9969SOL    HW130272   3.343   1.608   0.044 -2.3190  0.5039 -3.7350
 9969SOL    HW230273   3.399   1.477  -0.007 -0.3784 -0.6951  0.9865
 9970SOL     OW30274   4.911   1.889   2.290  0.0053 -0.3848  0.0858
 9970SOL    HW130275   4.901   1.936   2.207 -0.4495  2.6122  1.7185
 9970SOL    HW230276   4.999   1.912   2.320  0.3788 -1.8878  0.2470
 9971SOL     OW30277   4.247   0.707   1.243 -0.0929  0.2236  0.5024
 9971SOL    HW130278   4.185   0.726   1.314 -0.3405  0.2527  0.2825
 9971SOL    HW230279   4.214   0.759   1.169 -0.7676 -1.0197 -0.0989
 9972SOL     OW30280   1.529   5.468   5.119 -0.1348  0.0503  0.4384
 9972SOL    HW130281   1.547   5.385   5.075 -1.5746  0.1941 -0.5075
 9972SOL    HW230282   1.442   5.456   5.158  0.6362  0.3203  2.3603
 9973SOL     OW30283   3.398   1.150   1.258  0.2642  0.0610  0.2777
 9973SOL    HW130284   3.410   1.170   1.351 -0.3368 -0.6686  0.5201
 9973SOL    HW230285   3.487   1.133   1.226  0.4092 -0.3735  0.8861
 9974SOL     OW30286   3.194   5.167   3.558 -0.1199 -0.3007  0.0317
 9974SOL    HW130287   3.126   5.155   3.493  1.4010 -1.3099 -1.4491
 9974SOL    HW230288   3.162   5.121   3.635 -0.4194 -2.1943 -1.1725
 9975SOL     OW30289   6.416   2.184   5.060  0.5857 -0.0864 -0.5046
 9975SOL    HW130290   6.493   2.230   5.030  0.3450  0.5607 -0.1428
 9975SOL    HW230291   6.345   2.248   5.056 -0.1359 -0.9005 -1.6583
 9976SOL     OW30292   4.034   1.940   5.365 -0.0342  0.4038 -0.3345
 9976SOL    HW130293   4.087   1.924   5.288  0.6546  0.2195  0.1690
 9976SOL    HW230294   4.088   1.996   5.421 -1.3620  2.3506 -0.9003
 9977SOL     OW30295   0.987   4.009   1.320  0.4547 -0.4807 -0.2487
 9977SOL    HW130296   1.037   4.074   1.269  1.4924 -1.1194 -0.0628
 9977SOL    HW230297   0.912   4.058   1.352  0.8469  0.4594 -0.7049
 9978SOL     OW30298   5.581   4.222   6.586  0.2891  0.6195 -0.3838
 9978SOL    HW130299   5.616   4.162   6.651  1.3620  0.8296 -0.7539
 9978SOL    HW230300   5.644   4.221   6.515 -0.3905  1.1164 -1.0130
 9979SOL     OW30301   0.849   0.878   2.907 -0.3003 -0.2366 -0.6467
 9979SOL    HW130302   0.765   0.897   2.865 -1.1706 -1.9140  0.2492
 9979SOL    HW230303   0.852   0.782   2.913  0.8994 -0.1441  0.8685
 9980SOL     OW30304   3.638   1.203   2.523 -0.5115  0.0788  0.2979
 9980SOL    HW130305   3.592   1.223   2.442 -0.2747 -0.5776 -0.0077
 9980SOL    HW230306   3.729   1.227   2.505 -0.4348 -0.1913  0.3173
 9981SOL     OW30307   4.519   3.131   2.815  0.0315 -0.5107  0.2315
 9981SOL    HW130308   4.426   3.130   2.839 -0.6642 -2.2571 -2.1413
 9981SOL    HW230309   4.520   3.103   2.723  2.8914 -0.0910  0.0513
 9982SOL     OW30310   6.333   6.034   2.276  0.5639 -0.5728  0.0880
 9982SOL    HW130311   6.396   5.995   2.215  1.6953 -1.2202  1.5979
 9982SOL    HW230312   6.376   6.113   2.309 -0.9176  0.9691 -1.4763
 9983SOL     OW30313   3.778   0.723   6.041  0.5245  0.5968 -0.2032
 9983SOL    HW130314   3.783   0.816   6.065  0.2466 -0.0867  2.9899
 9983SOL    HW230315   3.791   0.677   6.124 -0.4474 -2.2234 -1.5042
 9984SOL     OW30316   0.129   0.065   5.234  0.2026 -0.2314 -0.6141
 9984SOL    HW130317   0.146   0.129   5.165 -0.0777  2.4205  1.5898
 9984SOL    HW230318   0.060   0.106   5.288  2.5191 -0.6308  2.9848
 9985SOL     OW30319   4.007   3.281   1.459 -0.0134  0.6083  0.1835
 9985SOL    HW130320   3.949   3.355   1.447 -0.6536  0.1053  0.1218
 9985SOL    HW230321   4.059   3.303   1.537 -0.3476  1.0186  0.2913
 9986SOL     OW30322   3.570   5.573   1.982 -0.1390 -0.1087  0.0263
 9986SOL    HW130323   3.565   5.479   1.962  2.5275 -0.7030  1.6838
 9986SOL    HW230324   3.602   5.576   2.072 -0.2785  2.4228  0.0454
 9987SOL     OW30325   4.504   6.267   2.281 -0.7868 -0.0232  0.2851
 9987SOL    HW130326   4.436   6.334   2.274 -1.3458 -0.7299 -2.3331
 9987SOL    HW230327   4.459   6.190   2.314 -0.9421 -0.1009 -0.1089
 9988SOL     OW30328   5.165   1.502   6.641  1.0616 -0.8671 -0.3838
 9988SOL    HW130329   5.135   1.505   6.732  2.7026 -0.0777  0.1816
 9988SOL    HW230330   5.089   1.528   6.590  0.2203 -0.8941  0.8022
 9989SOL     OW30331   4.987   4.112   0.277 -0.0370 -0.7729 -0.3608
 9989SOL    HW130332   5.019   4.202   0.274  0.3018 -0.9254 -1.5063
 9989SOL    HW230333   4.914   4.110   0.216 -1.4991 -0.7431  1.3103
 9990SOL     OW30334   2.880   4.742   3.786 -0.6481 -0.0504 -0.0199
 9990SOL    HW130335   2.815   4.676   3.813 -0.2692  0.3396  2.0313
 9990SOL    HW230336   2.961   4.691   3.775 -0.8312 -0.2359 -0.5107
 9991SOL     OW30337   3.420   6.281   6.573  0.1182 -0.1270 -0.9224
 9991SOL    HW130338   3.397   6.368   6.542 -2.5066  0.3153  1.7896
 9991SOL    HW230339   3.363   6.222   6.524 -1.6956  0.2643  0.5830
 9992SOL     OW30340   5.338   1.198   5.615  0.1188  0.1822  0.6914
 9992SOL    HW130341   5.423   1.238   5.633  0.3863 -0.1585  0.2044
 9992SOL    HW230342   5.276   1.272   5.614  0.4089  0.4316  1.0277
 9993SOL     OW30343   6.584   3.180   5.966 -0.7082 -0.2743 -0.5143
 9993SOL    HW130344   6.639   3.252   5.996  1.1417 -1.1823 -1.5042
 9993SOL    HW230345   6.609   3.168   5.874 -2.2033 -1.0786 -0.8401
 9994SOL     OW30346   3.886   6.786   3.167 -0.1383  0.0439  0.2529
 9994SOL    HW130347   3.955   6.787   3.100  0.1662  0.9832  0.5663
 9994SOL    HW230348   3.932   6.804   3.249 -0.8184  1.2472  0.3969
 9995SOL     OW30349   5.360   5.159   3.900 -0.2662 -0.0156 -0.0782
 9995SOL    HW130350   5.270   5.182   3.925 -0.0373 -0.1557  0.9301
 9995SOL    HW230351   5.388   5.096   3.967  0.6901  0.2610 -0.2033
 9996SOL     OW30352   5.995   0.369   2.550  0.2250  0.3141 -0.2343
 9996SOL    HW130353   6.033   0.320   2.622 -0.8856  1.1223  0.9352
 9996SOL    HW230354   5.912   0.326   2.532 -0.0781  0.8647 -0.1883
 9997SOL     OW30355   1.389   2.365   3.775 -0.0396 -0.0990 -0.2441
 9997SOL    HW130356   1.465   2.338   3.724  0.5192  0.5910  0.1941
 9997SOL    HW230357   1.425   2.388   3.861 -0.6166  1.0132 -0.2737
 9998SOL     OW30358   3.176   6.270   1.540  0.2613 -0.0211  0.5941
 9998SOL    HW130359   3.115   6.205   1.575  0.4114 -1.0335 -0.9248
 9998SOL    HW230360   3.262   6.230   1.551  0.4603  0.4525  0.7513
 9999SOL     OW30361   2.058   4.093   6.588  0.1184  0.4314 -0.5980
 9999SOL    HW130362   2.018   4.130   6.667 -0.9381  0.1851 -0.9958
 9999SOL    HW230363   2.144   4.133   6.583 -0.0289  0.8937  0.3620
10000SOL     OW30364   6.212   4.424   2.770 -0.2295  0.4271 -0.4382
10000SOL    HW130365   6.181   4.339   2.737  0.2868 -0.6383  1.6522
10000SOL    HW230366   6.298   4.435   2.729 -1.7853  1.8221 -3.6601
10001SOL     OW30367   6.569   3.190   4.621  0.0917  0.1678  0.0844
10001SOL    HW130368   6.571   3.177   4.526 -2.7611  1.1369 -0.2214
10001SOL    HW230369   6.588   3.283   4.632  0.3188  0.0768  0.4735
10002SOL     OW30370   1.755   0.390   6.597 -0.4548  0.5323  0.0160
10002SOL    HW130371   1.742   0.348   6.682 -1.6860 -0.8188 -0.8094
10002SOL    HW230372   1.776   0.481   6.619  0.1454  0.0209  1.7790
10003SOL     OW30373   0.396   4.844   1.591  0.2484 -0.3140  0.2665
10003SOL    HW130374   0.376   4.916   1.651 -2.1120 -0.6317 -0.0536
10003SOL    HW230375   0.386   4.882   1.504 -0.6326 -0.9115  0.0988
10004SOL     OW30376   4.534   4.636   4.597  0.2484  0.0439 -0.5477
10004SOL    HW130377   4.469   4.575   4.633 -0.2427 -0.1576 -1.7240
10004SOL    HW230378   4.482   4.711   4.566  0.6990  0.4035 -0.4389
10005SOL     OW30379   3.163   0.803   3.338  0.5388  0.4083 -0.0174
10005SOL    HW130380   3.202   0.869   3.395 -0.4670  0.7384  0.3081
10005SOL    HW230381   3.232   0.738   3.325  0.9592  0.6138  1.1116
10006SOL     OW30382   0.448   6.191   2.802  0.0809  0.0359 -0.1953
10006SOL    HW130383   0.395   6.111   2.805 -0.7225  0.5139 -1.0623
10006SOL    HW230384   0.488   6.196   2.888  0.2896 -1.3914 -0.1790
10007SOL     OW30385   2.003   4.092   2.462  0.1073 -0.1899  0.1709
10007SOL    HW130386   2.021   4.185   2.475 -1.1122  0.0229  0.4284
10007SOL    HW230387   1.959   4.087   2.378  1.1554 -0.6786 -0.3658
10008SOL     OW30388   3.039   5.548   6.347  0.0558 -0.5788  0.0926
10008SOL    HW130389   3.008   5.471   6.300 -0.6264  0.3380 -1.0289
10008SOL    HW230390   2.990   5.549   6.429  1.5307 -2.4144  1.0690
10009SOL     OW30391   2.803   2.999   0.949  0.0622 -0.1316 -0.4956
10009SOL    HW130392   2.730   3.050   0.984 -1.2704 -1.0946 -1.7350
10009SOL    HW230393   2.831   3.048   0.872  1.6253  0.9135  0.6940
10010SOL     OW30394   0.189   2.547   2.180 -0.8093  0.2720  0.0475
10010SOL    HW130395   0.120   2.506   2.129 -1.4750  0.3305  0.8760
10010SOL    HW230396   0.228   2.611   2.121 -1.0021 -0.2452 -0.6503
10011SOL     OW30397   6.617   2.464   3.736  0.4833  0.7085  0.4534
10011SOL    HW130398   6.606   2.411   3.815 -0.4925  0.8354  0.4149
10011SOL    HW230399   6.556   2.537   3.748  1.3344  1.4690  0.2062
10012SOL     OW30400   1.945   5.183   2.160  0.3489  0.0228 -0.3598
10012SOL    HW130401   1.985   5.268   2.141  0.4456  0.0671  0.0361
10012SOL    HW230402   1.956   5.133   2.079 -1.6530  1.1157 -1.3859
10013SOL     OW30403   5.867   5.924   1.669 -0.3963 -0.2823  0.1314
10013SOL    HW130404   5.914   5.901   1.749  0.7029  0.1520 -0.3856
10013SOL    HW230405   5.798   5.858   1.663  0.9075 -1.7042  0.2312
10014SOL     OW30406   2.333   4.177   6.579 -0.2803  0.3914 -0.3696
10014SOL    HW130407   2.355   4.270   6.589  1.9635 -0.1019 -0.1912
10014SOL    HW230408   2.323   4.165   6.485  1.2874  0.4558 -0.5589
10015SOL     OW30409   3.383   0.609   3.951 -0.2481  0.3509 -0.1669
10015SOL    HW130410   3.346   0.578   4.034 -0.0336  0.5934  0.0207
10015SOL    HW230411   3.341   0.694   3.936  1.2780  1.3230  0.7848
10016SOL     OW30412   1.835   4.764   0.711 -0.3144 -0.3970  0.1202
10016SOL    HW130413   1.756   4.804   0.748  0.3514  0.8345  0.2489
10016SOL    HW230414   1.885   4.838   0.676  0.7872 -1.1603  0.0454
10017SOL     OW30415   6.266   3.956   5.128 -0.0310 -0.0130  0.3016
10017SOL    HW130416   6.205   3.890   5.096  1.0546 -1.1461  0.5012
10017SOL    HW230417   6.349   3.910   5.138  2.2427  2.3268 -4.2406
10018SOL     OW30418   3.169   0.345   5.956  0.2441  0.6596 -0.6460
10018SOL    HW130419   3.156   0.439   5.942  1.1225  0.5436 -2.5688
10018SOL    HW230420   3.259   0.337   5.987  0.2878  0.4392 -0.8233
10019SOL     OW30421   6.618   4.195   4.661  0.2804 -0.1045 -0.0846
10019SOL    HW130422   6.570   4.271   4.628  0.2185  0.1865  0.6573
10019SOL    HW230423   6.566   4.119   4.633  0.6263  0.0842 -1.3000
10020SOL     OW30424   6.779   3.257   0.256  0.6196 -0.0536 -0.2895
10020SOL    HW130425   6.731   3.175   0.263  0.1070  0.2402 -0.2720
10020SOL    HW230426   6.779   3.277   0.163  2.8447 -1.2847 -0.5988
10021SOL     OW30427   0.984   3.531   4.185  0.0110  0.2393  0.3980
10021SOL    HW130428   1.034   3.542   4.104  0.1728  0.3761  0.5150
10021SOL    HW230429   0.921   3.603   4.184  1.0706  1.2169  1.1635
10022SOL     OW30430   1.995   0.813   5.635 -0.5351 -0.0079  0.2651
10022SOL    HW130431   2.076   0.818   5.685 -0.5923 -1.7046  0.5680
10022SOL    HW230432   1.959   0.727   5.655 -0.8974 -0.5051 -2.1893
10023SOL     OW30433   1.806   3.968   4.586  0.2047 -0.2579 -0.1726
10023SOL    HW130434   1.880   3.998   4.533 -1.1055  0.2002 -1.8445
10023SOL    HW230435   1.731   3.974   4.527 -1.2496 -0.2835  1.5970
10024SOL     OW30436   5.072   6.051   0.181 -0.2502 -0.2843 -0.5344
10024SOL    HW130437   5.086   6.083   0.092  0.1646  0.9512 -0.0438
10024SOL    HW230438   5.116   6.115   0.237 -0.1957 -1.2311  0.5490
10025SOL     OW30439   0.428   2.223   4.088 -0.4444 -0.0331  0.4981
10025SOL    HW130440   0.464   2.292   4.143 -1.2973  0.6797  0.1845
10025SOL    HW230441   0.455   2.142   4.131  0.0124  0.4952  1.2328
10026SOL     OW30442   6.244   1.726   4.149  0.1682 -0.2922  0.4945
10026SOL    HW130443   6.310   1.657   4.147  2.1032  1.4751 -0.1697
10026SOL    HW230444   6.199   1.713   4.233  0.5718 -2.2278  0.4608
10027SOL     OW30445   1.358   6.515   0.197  0.5976 -0.2236  0.1148
10027SOL    HW130446   1.403   6.596   0.172 -1.3877  0.5539 -1.2294
10027SOL    HW230447   1.304   6.539   0.271 -0.1727 -0.2411 -0.4314
10028SOL     OW30448   1.667   3.010   0.649 -0.3592 -0.4262  0.2581
10028SOL    HW130449   1.628   3.096   0.632 -1.9859 -1.4049 -1.2499
10028SOL    HW230450   1.749   3.030   0.695 -0.0881  1.9867 -1.0958
10029SOL     OW30451   0.296   0.923   4.970 -0.0519  0.4043 -0.0051
10029SOL    HW130452   0.211   0.968   4.971 -0.6720 -0.7338 -0.7101
10029SOL    HW230453   0.291   0.862   4.897  0.4266 -1.4672  1.4509
10030SOL     OW30454   5.648   2.976   4.850 -0.1692 -0.1251  0.0288
10030SOL    HW130455   5.677   2.941   4.765  1.7486 -0.5269  0.8050
10030SOL    HW230456   5.577   2.917   4.876  0.7145 -1.3598 -0.2838
10031SOL     OW30457   0.283   2.157   1.732 -0.1597 -0.4850  0.1653
10031SOL    HW130458   0.342   2.218   1.777  1.1452 -0.7034 -1.1685
10031SOL    HW230459   0.276   2.083   1.793  2.4403 -1.2557 -0.3347
10032SOL     OW30460   6.037   5.113   2.276 -0.3129 -0.0898 -0.3439
10032SOL    HW130461   5.998   5.026   2.270 -0.2346 -0.2171  0.7520
10032SOL    HW230462   5.973   5.164   2.327 -1.1171  0.9692 -2.2927
10033SOL     OW30463   4.200   0.689   4.954  0.1529 -0.4972  0.2085
10033SOL    HW130464   4.125   0.687   5.013  0.6409  1.9801  1.0342
10033SOL    HW230465   4.275   0.704   5.012  0.9602 -0.4463 -0.8276
10034SOL     OW30466   3.797   4.448   3.318  0.1062  0.5109 -0.3956
10034SOL    HW130467   3.755   4.418   3.237 -0.1173 -0.3494  0.0256
10034SOL    HW230468   3.794   4.544   3.312 -2.2654  0.5120 -0.2350
10035SOL     OW30469   6.260   2.640   4.246  0.4976 -0.2186 -0.2446
10035SOL    HW130470   6.253   2.569   4.182  0.6062  0.3318 -0.8848
10035SOL    HW230471   6.296   2.598   4.324  0.4907 -0.8830 -0.5864
10036SOL     OW30472   3.100   4.946   2.194 -0.0083 -0.0617  0.3679
10036SOL    HW130473   3.020   4.981   2.154  0.2227 -1.3448 -1.3256
10036SOL    HW230474   3.165   5.016   2.184 -0.3868  0.2272 -0.0789
10037SOL     OW30475   5.264   1.326   0.987  0.3273 -0.1088 -0.7524
10037SOL    HW130476   5.236   1.365   0.904  1.2448  0.9420 -0.5826
10037SOL    HW230477   5.324   1.257   0.962 -1.5193 -1.6988 -1.0704
10038SOL     OW30478   3.719   3.736   6.495  0.2855  0.3041  0.0335
10038SOL    HW130479   3.729   3.643   6.517  0.0362  0.4176  0.6504
10038SOL    HW230480   3.801   3.776   6.522 -0.2095  0.5311  1.2770
10039SOL     OW30481   3.179   6.534   1.673 -0.1631 -0.2055 -0.1602
10039SOL    HW130482   3.151   6.450   1.636  1.8548 -1.8692  1.8827
10039SOL    HW230483   3.232   6.574   1.604  0.7334 -1.6888 -0.3775
10040SOL     OW30484   6.583   3.549   2.021 -0.2868  0.0902 -0.3063
10040SOL    HW130485   6.610   3.527   2.110 -0.5012 -0.1653 -0.3043
10040SOL    HW230486   6.602   3.643   2.013 -0.0204  0.0571 -0.0832
10041SOL     OW30487   3.133   6.627   1.928  0.3449 -0.1005  0.2204
10041SOL    HW130488   3.212   6.582   1.960 -0.6069 -1.7259  0.4069
10041SOL    HW230489   3.134   6.613   1.833  0.2270 -0.2035  0.2346
10042SOL     OW30490   1.109   3.252   6.277 -0.1671 -0.2952  0.6469
10042SOL    HW130491   1.132   3.159   6.272  0.1808 -0.1632 -0.8047
10042SOL    HW230492   1.088   3.267   6.369 -0.1288 -1.7851  0.9225
10043SOL     OW30493   2.222   1.267   2.049  0.2416 -0.1054  0.5153
10043SOL    HW130494   2.183   1.301   1.968  0.7510 -1.5696 -0.3989
10043SOL    HW230495   2.276   1.193   2.020  1.5794  0.2079  2.0418
10044SOL     OW30496   0.490   5.315   1.575 -0.5811 -0.3430  0.1148
10044SOL    HW130497   0.435   5.363   1.513 -0.2610 -0.0497  0.0548
10044SOL    HW230498   0.529   5.245   1.523 -1.3227 -0.9021  0.2791
10045SOL     OW30499   0.253   3.113   0.704  0.1856  0.0495  0.7095
10045SOL    HW130500   0.212   3.139   0.622  2.3689  0.4500 -0.3481
10045SOL    HW230501   0.243   3.189   0.761 -1.6590 -0.3586  0.9933
10046SOL     OW30502   1.093   0.266   6.621 -0.4308  0.0610 -0.4281
10046SOL    HW130503   1.076   0.350   6.576  0.6550  0.5532  0.0536
10046SOL    HW230504   1.150   0.218   6.562 -0.2943  0.0530 -0.2913
10047SOL     OW30505   2.277   2.489   1.890 -0.1439 -0.0305 -0.2372
10047SOL    HW130506   2.339   2.472   1.820  0.6925 -0.4762  0.5942
10047SOL    HW230507   2.221   2.411   1.893  0.9819 -0.8231  0.7760
10048SOL     OW30508   1.618   0.349   1.959 -0.2476 -0.4203 -0.4376
10048SOL    HW130509   1.567   0.268   1.965 -0.7411 -0.2197 -1.5867
10048SOL    HW230510   1.650   0.364   2.048  0.1312 -2.0521 -0.2659
10049SOL     OW30511   2.002   2.843   1.171  0.0974  0.2618  0.2603
10049SOL    HW130512   2.004   2.749   1.150  0.1804  0.6355 -1.5446
10049SOL    HW230513   1.940   2.850   1.244 -2.4208 -0.8528 -1.6268
10050SOL     OW30514   6.759   3.417   3.270 -0.0100 -0.0204  0.0045
10050SOL    HW130515   6.825   3.348   3.265 -2.0971 -2.1894  0.5971
10050SOL    HW230516   6.732   3.431   3.179  0.5071  0.1129 -0.1295
10051SOL     OW30517   0.682   4.991   3.142 -0.4944 -0.6045 -0.0698
10051SOL    HW130518   0.735   4.918   3.173  0.1429 -0.7745 -1.4778
10051SOL    HW230519   0.686   4.984   3.046 -1.7303  0.3395 -0.2100
10052SOL     OW30520   5.244   2.105   3.991 -0.4950  0.5044 -0.0452
10052SOL    HW130521   5.246   2.183   4.047 -1.7825  0.7999 -0.3724
10052SOL    HW230522   5.218   2.139   3.905 -2.1165 -0.4002  0.0542
10053SOL     OW30523   2.225   4.231   4.863 -0.2924  0.0256  0.1026
10053SOL    HW130524   2.317   4.230   4.890  0.3365 -0.1570 -1.9067
10053SOL    HW230525   2.218   4.160   4.799 -2.1631 -0.7945  1.1352
10054SOL     OW30526   4.609   3.903   4.901  0.2666  0.8624 -0.2972
10054SOL    HW130527   4.601   3.812   4.930 -0.0476  0.6340 -1.0739
10054SOL    HW230528   4.690   3.934   4.941  0.3309  0.2699  0.0444
10055SOL     OW30529   6.732   0.399   5.664 -0.0463 -0.1654  0.3535
10055SOL    HW130530   6.730   0.368   5.754  0.1041 -0.5134  0.2404
10055SOL    HW230531   6.755   0.492   5.671 -1.0329  0.0583  0.7258
10056SOL     OW30532   1.278   4.613   5.502  0.2738  0.7261 -0.2089
10056SOL    HW130533   1.197   4.586   5.458 -0.1734  1.8462 -0.1089
10056SOL    HW230534   1.315   4.531   5.535 -2.1474  0.3804  2.0209
10057SOL     OW30535   4.161   1.628   5.423  0.4391 -0.6378  0.3048
10057SOL    HW130536   4.154   1.580   5.506  1.7434 -0.2931  0.6386
10057SOL    HW230537   4.098   1.586   5.365 -0.0554 -1.2833  1.2879
10058SOL     OW30538   2.600   6.645   3.142  0.6567  0.2698  0.1474
10058SOL    HW130539   2.553   6.562   3.141 -0.2919  0.7223 -2.3197
10058SOL    HW230540   2.543   6.705   3.189  0.4263 -0.0125  0.2281
10059SOL     OW30541   1.468   1.047   0.270 -0.2840  0.0393 -0.4795
10059SOL    HW130542   1.466   0.953   0.250 -0.0125  0.1847 -1.2626
10059SOL    HW230543   1.517   1.085   0.196 -1.2525  0.9143 -0.6871
10060SOL     OW30544   1.452   5.435   6.025 -0.7742 -0.0942  0.2212
10060SOL    HW130545   1.509   5.373   6.069  1.1378  0.6380 -1.0745
10060SOL    HW230546   1.391   5.380   5.975  0.3735 -0.9561 -0.2788
10061SOL     OW30547   6.047   3.915   5.719  0.3149 -0.0819  0.2359
10061SOL    HW130548   6.006   3.832   5.697  0.9865 -0.6301  0.9951
10061SOL    HW230549   5.995   3.981   5.671  0.8669 -1.0626 -1.8159
10062SOL     OW30550   3.273   6.786   4.709  0.4456 -0.6819 -0.3723
10062SOL    HW130551   3.272   6.691   4.720 -1.8385 -0.6163  0.7183
10062SOL    HW230552   3.302   6.820   4.793 -1.2560 -0.4311  0.1650
10063SOL     OW30553   5.010   5.855   1.889 -0.0047  0.7567 -0.4418
10063SOL    HW130554   4.987   5.924   1.827  1.1246  1.2211 -0.3652
10063SOL    HW230555   5.008   5.897   1.975 -1.2629  0.1881 -0.1494
10064SOL     OW30556   2.232   2.474   1.302  0.5102 -0.0161  0.3506
10064SOL    HW130557   2.257   2.530   1.228  0.8303  1.1002  1.2819
10064SOL    HW230558   2.236   2.385   1.267 -0.0610  0.5233 -1.1820
10065SOL     OW30559   1.699   1.738   6.501 -0.1930 -0.3193 -0.1750
10065SOL    HW130560   1.652   1.812   6.539  0.4985  0.1841 -0.2690
10065SOL    HW230561   1.749   1.701   6.574 -0.9778 -1.0541 -0.0032
10066SOL     OW30562   0.700   3.495   5.361  0.0994  0.1618 -0.3971
10066SOL    HW130563   0.783   3.539   5.377  0.4134 -1.0098  1.4809
10066SOL    HW230564   0.724   3.413   5.318 -0.3838  1.0966 -2.6310
10067SOL     OW30565   5.134   4.346   0.124  0.5512 -0.1200 -0.0848
10067SOL    HW130566   5.173   4.424   0.163 -0.4316  1.3166 -1.8589
10067SOL    HW230567   5.202   4.312   0.066  0.7380 -0.2214  0.1878
10068SOL     OW30568   0.159   3.086   1.332  0.2697  0.3983  0.3611
10068SOL    HW130569   0.090   3.132   1.380  0.5572  0.6207  0.5674
10068SOL    HW230570   0.115   3.011   1.292  0.1639 -0.2493  1.6427
10069SOL     OW30571   2.813   3.625   4.871  0.9007 -0.2895  0.4034
10069SOL    HW130572   2.822   3.549   4.929  0.9242 -0.6056 -0.0117
10069SOL    HW230573   2.729   3.663   4.894  0.8473 -0.4918  0.5490
10070SOL     OW30574   1.286   6.729   3.094 -0.4493 -0.3529 -0.3428
10070SOL    HW130575   1.351   6.674   3.051 -0.6768 -2.0445  1.3445
10070SOL    HW230576   1.323   6.746   3.181 -2.2709 -1.4546  0.7065
10071SOL     OW30577   3.712   2.018   3.222  0.4600 -0.4896 -0.1376
10071SOL    HW130578   3.681   2.109   3.230 -0.4268 -0.7335 -0.6807
10071SOL    HW230579   3.770   2.006   3.297 -0.5188  0.0935  0.7458
10072SOL     OW30580   5.400   5.011   4.694  0.1397  0.1673 -0.1017
10072SOL    HW130581   5.382   4.942   4.758 -0.8452  0.6026  0.1152
10072SOL    HW230582   5.361   4.979   4.613  2.4368 -0.9273 -0.8349
10073SOL     OW30583   2.544   1.942   0.644 -0.1319  0.0042  0.0426
10073SOL    HW130584   2.583   1.858   0.669  1.1961  0.2351 -1.1412
10073SOL    HW230585   2.452   1.934   0.670 -0.0541 -1.8343 -0.0832
10074SOL     OW30586   1.763   5.289   3.114 -0.0139  0.3982 -0.7542
10074SOL    HW130587   1.741   5.352   3.183 -0.9641 -1.3276  0.6154
10074SOL    HW230588   1.681   5.275   3.067  0.7957  2.1248 -2.8055
10075SOL     OW30589   4.192   5.286   4.327 -0.3817  0.0540  0.4059
10075SOL    HW130590   4.270   5.230   4.333 -0.9098 -0.9044 -1.1290
10075SOL    HW230591   4.179   5.319   4.416  1.1832 -0.5779  0.8983
10076SOL     OW30592   6.288   2.365   3.712  0.1157 -0.0909 -0.2551
10076SOL    HW130593   6.356   2.311   3.752 -0.4476 -1.4511 -1.0739
10076SOL    HW230594   6.327   2.397   3.631  0.4511  0.7791  0.2320
10077SOL     OW30595   0.964   6.023   2.086 -0.3341  0.2177  0.0395
10077SOL    HW130596   0.974   6.048   2.178 -2.3297 -2.3458  1.0730
10077SOL    HW230597   0.873   6.046   2.065  0.1015  0.7750 -1.3359
10078SOL     OW30598   4.104   4.407   5.239 -0.4544 -0.0751 -0.0146
10078SOL    HW130599   4.094   4.335   5.176  1.7667 -0.0963 -0.4041
10078SOL    HW230600   4.016   4.417   5.277 -1.0708 -2.2846 -0.6806
10079SOL     OW30601   6.299   5.889   0.137  0.2706 -0.0107 -0.4632
10079SOL    HW130602   6.293   5.793   0.135 -0.1075 -0.0008 -0.1088
10079SOL    HW230603   6.209   5.918   0.119 -0.0855  0.2370  1.4639
10080SOL     OW30604   6.760   0.761   5.004  0.2821  0.3563  0.6857
10080SOL    HW130605   6.785   0.771   5.095  1.0853  1.0426  0.3969
10080SOL    HW230606   6.755   0.850   4.969 -1.7293  0.2210  0.4878
10081SOL     OW30607   5.595   6.530   6.146  0.0334  0.3405  0.1874
10081SOL    HW130608   5.616   6.621   6.126 -0.0194  0.0910 -1.1527
10081SOL    HW230609   5.652   6.479   6.087 -0.6749 -0.4524  0.1682
10082SOL     OW30610   0.497   0.480   0.134 -0.3412 -0.0040  0.2020
10082SOL    HW130611   0.472   0.391   0.159 -0.5116  0.2499  0.9934
10082SOL    HW230612   0.529   0.473   0.044  0.8195 -1.0792  0.6663
10083SOL     OW30613   3.925   0.170   3.617 -0.2517 -0.3128  0.4222
10083SOL    HW130614   3.922   0.110   3.692  0.4959  0.1990  0.8827
10083SOL    HW230615   3.947   0.255   3.656 -2.6433  0.5844 -0.0357
10084SOL     OW30616   4.477   5.533   0.154  0.4780  0.5301 -0.0244
10084SOL    HW130617   4.541   5.558   0.088 -0.7173  1.2794 -0.9226
10084SOL    HW230618   4.394   5.568   0.122 -0.0120  1.6206  2.2579
10085SOL     OW30619   4.299   0.807   0.599 -0.2094 -0.3801 -0.0205
10085SOL    HW130620   4.258   0.792   0.684  0.6726 -0.7259  0.3504
10085SOL    HW230621   4.332   0.896   0.603  2.4884 -1.3474  1.1612
10086SOL     OW30622   3.190   6.514   6.034  0.0703  0.6031  0.1644
10086SOL    HW130623   3.127   6.550   6.096 -1.1234  0.1467 -0.7367
10086SOL    HW230624   3.235   6.590   5.998  0.4269  0.8976  1.2097
10087SOL     OW30625   3.701   5.522   4.001 -0.1649 -0.2445 -0.4735
10087SOL    HW130626   3.644   5.590   3.965 -1.0718 -0.7286  0.0268
10087SOL    HW230627   3.663   5.440   3.971  0.3976 -0.5639 -0.3217
10088SOL     OW30628   4.200   1.097   2.080  0.1345 -0.0163 -0.4280
10088SOL    HW130629   4.237   1.086   1.993  2.6906  0.9335  0.4380
10088SOL    HW230630   4.269   1.065   2.139 -1.0436  0.4601  1.2812
10089SOL     OW30631   1.054   1.937   2.316  0.1287 -0.6808  0.4544
10089SOL    HW130632   1.141   1.949   2.277  0.6551 -0.1952  1.7155
10089SOL    HW230633   0.994   1.933   2.241  0.9397  1.4431 -0.3874
10090SOL     OW30634   1.217   5.089   4.696 -0.2261  0.3679 -0.3868
10090SOL    HW130635   1.141   5.137   4.663 -0.0597  0.8415 -0.0845
10090SOL    HW230636   1.205   5.000   4.662 -1.1360  0.3204  0.0112
10091SOL     OW30637   1.885   5.953   1.169 -0.8950  0.3717 -0.3260
10091SOL    HW130638   1.815   5.941   1.233 -0.5470  0.8201  0.1374
10091SOL    HW230639   1.855   6.026   1.115 -0.6886  0.7027  0.0053
10092SOL     OW30640   1.183   1.370   2.337  0.5233  0.6631  0.6575
10092SOL    HW130641   1.199   1.427   2.262  1.2316 -1.5005 -0.9412
10092SOL    HW230642   1.251   1.303   2.331 -0.0583 -0.1730  2.6457
10093SOL     OW30643   5.534   4.169   5.182 -0.4673 -0.5424 -0.6410
10093SOL    HW130644   5.545   4.174   5.277 -1.5098 -1.4100 -0.4517
10093SOL    HW230645   5.621   4.187   5.147 -0.1313  0.1015  0.4614
10094SOL     OW30646   2.295   1.385   1.473  0.0531 -0.5680 -0.0498
10094SOL    HW130647   2.256   1.471   1.457 -0.3058 -0.6850  0.1680
10094SOL    HW230648   2.339   1.394   1.557 -1.9429 -1.2227  1.1484
10095SOL     OW30649   3.211   0.671   5.622 -0.5110 -0.5212 -0.3051
10095SOL    HW130650   3.297   0.673   5.579  0.8103  1.4654  2.1998
10095SOL    HW230651   3.178   0.583   5.602  2.5349 -1.7788 -0.5255
10096SOL     OW30652   5.366   6.635   5.144 -0.0413  0.5030 -0.7385
10096SOL    HW130653   5.314   6.614   5.066 -1.0474  0.7741 -0.1542
10096SOL    HW230654   5.400   6.723   5.127  0.4151  0.2472 -1.2074
10097SOL     OW30655   1.994   5.499   1.562 -0.0841  0.5360  0.1780
10097SOL    HW130656   1.907   5.533   1.581 -0.7803 -1.6199  1.1612
10097SOL    HW230657   2.002   5.504   1.467 -1.9626 -0.7166 -0.0920
10098SOL     OW30658   0.831   2.898   4.610  0.0038 -0.0064 -0.8732
10098SOL    HW130659   0.921   2.865   4.612 -0.1786 -0.4918 -0.4906
10098SOL    HW230660   0.780   2.824   4.577 -0.5510 -0.4617  0.9240
10099SOL     OW30661   3.044   1.456   6.006  0.5022  0.2980 -0.4752
10099SOL    HW130662   2.953   1.473   6.033  0.5788  0.1093 -0.0834
10099SOL    HW230663   3.090   1.539   6.021  0.4457  0.3254 -0.4529
10100SOL     OW30664   0.876   1.107   3.682 -0.6017 -0.1055 -0.6040
10100SOL    HW130665   0.858   1.153   3.764 -0.5492 -0.0471 -0.6249
10100SOL    HW230666   0.790   1.096   3.641 -0.5823  0.2614 -0.7506
10101SOL     OW30667   0.160   4.492   5.975  0.3401  0.1414 -0.0231
10101SOL    HW130668   0.103   4.497   6.051 -1.5979 -1.3276 -1.2601
10101SOL    HW230669   0.183   4.399   5.968  3.0179  0.6770  0.4456
10102SOL     OW30670   6.677   5.616   4.694  0.4724  0.5135  0.4007
10102SOL    HW130671   6.743   5.564   4.648 -0.2900 -1.6441  1.6084
10102SOL    HW230672   6.726   5.662   4.763  1.3744  2.5994 -1.5026
10103SOL     OW30673   3.409   2.267   0.420 -0.4504 -0.8599  0.0446
10103SOL    HW130674   3.341   2.309   0.368 -0.6146  0.3220  1.1793
10103SOL    HW230675   3.482   2.256   0.358 -0.3214  1.3193 -0.2666
10104SOL     OW30676   1.284   2.013   5.053  0.3745 -0.2693 -0.3070
10104SOL    HW130677   1.328   1.964   4.982  0.4093  1.0571 -1.2338
10104SOL    HW230678   1.309   2.104   5.038 -1.1418  0.2785  0.3104
10105SOL     OW30679   3.473   5.201   1.557  0.2198  0.3506 -0.5836
10105SOL    HW130680   3.429   5.201   1.472 -0.5104  1.0098 -0.2254
10105SOL    HW230681   3.407   5.235   1.618  1.1703  1.2014  0.0016
10106SOL     OW30682   1.228   1.365   6.058  0.5977 -0.7771 -0.2885
10106SOL    HW130683   1.139   1.347   6.088  0.1872  1.1933 -0.1941
10106SOL    HW230684   1.282   1.355   6.136  0.1536 -0.0032  0.1318
10107SOL     OW30685   5.660   2.778   2.248  0.6954  0.2122 -0.2809
10107SOL    HW130686   5.723   2.717   2.211  1.9853  0.5916  1.1918
10107SOL    HW230687   5.685   2.864   2.213 -0.7206  0.0370 -1.8392
10108SOL     OW30688   2.118   1.960   2.414 -0.5309 -0.4744 -0.4345
10108SOL    HW130689   2.054   2.001   2.472 -0.3972 -0.2744 -0.4273
10108SOL    HW230690   2.107   1.866   2.428  0.5539 -0.4064  1.0738
10109SOL     OW30691   2.553   6.387   0.663  0.6139  0.0643 -0.0121
10109SOL    HW130692   2.561   6.428   0.577  0.4041 -0.8399 -0.4783
10109SOL    HW230693   2.557   6.460   0.725 -1.3510  0.9616 -0.8722
10110SOL     OW30694   4.752   5.087   5.099  0.3837 -1.2181 -0.0360
10110SOL    HW130695   4.706   5.011   5.134 -0.1154 -1.1948 -0.6287
10110SOL    HW230696   4.843   5.074   5.126  0.4678 -2.4541 -0.8312
10111SOL     OW30697   1.738   5.726   3.344  0.5388  0.1134  0.0782
10111SOL    HW130698   1.675   5.771   3.401 -0.1403 -0.4821 -0.1935
10111SOL    HW230699   1.787   5.797   3.302 -1.7985  0.7198 -1.8162
10112SOL     OW30700   2.084   5.050   3.758  0.2755 -0.3780 -0.3184
10112SOL    HW130701   2.085   5.071   3.851  1.5626 -0.9910 -0.1714
10112SOL    HW230702   2.162   4.995   3.745  0.0007 -0.4728 -1.7130
10113SOL     OW30703   4.172   4.242   5.726  0.4634 -0.0533 -0.4500
10113SOL    HW130704   4.236   4.289   5.672  0.8958  0.3957  0.4342
10113SOL    HW230705   4.225   4.196   5.791 -0.1240  1.5537  1.2770
10114SOL     OW30706   5.544   2.711   4.557  0.1365  0.7254 -0.0660
10114SOL    HW130707   5.495   2.711   4.639  2.1881 -1.2340  1.2874
10114SOL    HW230708   5.628   2.751   4.579  1.5499 -1.7359 -0.5257
10115SOL     OW30709   6.300   2.171   1.611  0.2541  0.0765 -0.0609
10115SOL    HW130710   6.340   2.205   1.531  3.5269  1.7099  2.0183
10115SOL    HW230711   6.338   2.084   1.622 -0.5570 -0.3368 -0.5042
10116SOL     OW30712   3.460   6.593   2.330  0.8973 -0.0685 -1.1827
10116SOL    HW130713   3.506   6.611   2.248  0.2850  0.8341 -1.3483
10116SOL    HW230714   3.384   6.651   2.328 -0.7003 -2.0273 -1.2806
10117SOL     OW30715   6.527   4.348   2.075  0.0706 -0.7767 -0.1007
10117SOL    HW130716   6.504   4.335   1.983 -0.2979  0.5492 -0.2237
10117SOL    HW230717   6.443   4.369   2.117  0.5878  1.3869 -0.0208
10118SOL     OW30718   3.283   1.139   5.191 -0.1415 -0.3011 -0.0459
10118SOL    HW130719   3.216   1.176   5.249  0.0372 -1.2932  0.8086
10118SOL    HW230720   3.347   1.098   5.249  1.3507  0.8086 -0.8420
10119SOL     OW30721   4.557   0.146   1.745 -0.3148  0.1420 -0.2073
10119SOL    HW130722   4.549   0.156   1.650  0.0344  1.4797 -0.1124
10119SOL    HW230723   4.573   0.234   1.777 -0.3368 -0.3096  1.0976
10120SOL     OW30724   3.977   4.048   4.712 -0.2151  0.1981  0.3691
10120SOL    HW130725   4.016   4.038   4.626 -0.5202 -1.4010  0.3985
10120SOL    HW230726   3.901   4.104   4.698  0.2843  0.7373 -0.2198
10121SOL     OW30727   5.645   0.677   4.321  0.0663  0.1961 -0.0676
10121SOL    HW130728   5.651   0.617   4.395 -0.2307  0.7813  0.4442
10121SOL    HW230729   5.552   0.684   4.303  0.1519 -0.1202 -0.6506
10122SOL     OW30730   4.158   5.016   1.400  0.2646  0.1553  0.6710
10122SOL    HW130731   4.230   5.006   1.462 -0.1276 -1.7925  0.8783
10122SOL    HW230732   4.184   4.965   1.323 -1.1246 -1.1368  1.0031
10123SOL     OW30733   6.359   5.919   1.156  0.2403 -0.1401  0.5943
10123SOL    HW130734   6.299   5.983   1.118 -0.0658 -0.2452  0.8952
10123SOL    HW230735   6.419   5.897   1.085 -0.9617 -1.1217 -0.1503
10124SOL     OW30736   2.834   3.603   5.626  0.0442 -0.1795 -0.0919
10124SOL    HW130737   2.785   3.685   5.614 -0.2721 -0.5669 -1.7185
10124SOL    HW230738   2.823   3.582   5.719 -1.2951  0.7409 -0.0095
10125SOL     OW30739   6.301   5.541   5.657  0.6368 -0.0117 -0.2061
10125SOL    HW130740   6.306   5.493   5.574  0.4129  0.8028 -0.7073
10125SOL    HW230741   6.215   5.582   5.656  0.9865  0.7551 -0.0085
10126SOL     OW30742   3.652   4.858   3.085 -0.7939 -0.0659 -0.2712
10126SOL    HW130743   3.660   4.805   3.006  0.1719 -0.1654 -0.1219
10126SOL    HW230744   3.654   4.795   3.157 -0.3530  0.1092 -0.1233
10127SOL     OW30745   6.612   3.598   1.524 -0.7036  0.2563 -0.4807
10127SOL    HW130746   6.666   3.676   1.532 -0.9150  0.3801 -0.2536
10127SOL    HW230747   6.565   3.592   1.607 -0.2650 -0.4298 -0.2731
10128SOL     OW30748   0.707   4.923   6.118 -0.2048  0.5463 -0.2697
10128SOL    HW130749   0.698   5.009   6.078  0.4164  0.5739 -0.3562
10128SOL    HW230750   0.771   4.878   6.063 -1.0126 -0.2069 -0.6168
10129SOL     OW30751   5.675   6.256   4.782 -0.1781 -0.4129  0.2877
10129SOL    HW130752   5.680   6.192   4.852  2.4450 -1.7830 -0.9884
10129SOL    HW230753   5.689   6.341   4.825 -0.1602 -1.0606  1.5845
10130SOL     OW30754   4.215   0.374   5.066 -0.0115 -0.4751  0.5979
10130SOL    HW130755   4.306   0.374   5.096  0.3873  1.9864 -0.3955
10130SOL    HW230756   4.164   0.405   5.141  0.4927  1.8173  0.0648
10131SOL     OW30757   4.481   1.347   0.100 -0.2597 -0.2471 -0.4879
10131SOL    HW130758   4.574   1.333   0.086 -0.1939 -0.4690  0.1418
10131SOL    HW230759   4.440   1.329   0.015  0.3391  0.5551 -0.9640
10132SOL     OW30760   5.875   3.130   4.856  0.2201  0.1319 -0.1397
10132SOL    HW130761   5.809   3.062   4.842  0.1769 -0.3993  2.1462
10132SOL    HW230762   5.835   3.210   4.820  0.5826 -1.0780 -3.5470
10133SOL     OW30763   4.144   3.012   3.815 -0.2468 -0.9736  0.3570
10133SOL    HW130764   4.175   3.032   3.903  0.1295  0.0959  0.0013
10133SOL    HW230765   4.049   3.009   3.822 -0.1748 -2.2836  1.0639
10134SOL     OW30766   5.495   0.259   5.741  0.0531  0.0333  0.1976
10134SOL    HW130767   5.575   0.264   5.689  0.5189 -1.1079  0.7703
10134SOL    HW230768   5.525   0.261   5.832 -0.4876 -1.3194  0.4234
10135SOL     OW30769   0.383   2.423   0.569  0.0275 -0.2235 -0.0389
10135SOL    HW130770   0.345   2.335   0.563  1.8241 -1.1156  0.9064
10135SOL    HW230771   0.465   2.411   0.616 -0.0154  2.0907  0.7839
10136SOL     OW30772   1.462   6.111   4.271  0.8283 -0.3516 -0.3391
10136SOL    HW130773   1.538   6.165   4.250  0.4827  0.1609 -0.3045
10136SOL    HW230774   1.450   6.056   4.194  1.7915 -1.1104  0.0289
10137SOL     OW30775   3.189   2.890   3.951 -0.2436  0.1349 -0.0093
10137SOL    HW130776   3.234   2.970   3.977 -0.2292 -0.3777  1.6622
10137SOL    HW230777   3.111   2.920   3.905  1.0395  1.0450 -1.7210
10138SOL     OW30778   5.085   2.083   4.638  0.4886  0.0349 -0.8162
10138SOL    HW130779   5.012   2.021   4.634  0.3087 -0.0300  1.8431
10138SOL    HW230780   5.066   2.137   4.714  3.3829 -0.2144  0.1745
10139SOL     OW30781   5.620   0.859   2.859  0.1525  0.3191 -0.3215
10139SOL    HW130782   5.544   0.899   2.902 -1.1505 -2.8919  0.7578
10139SOL    HW230783   5.599   0.863   2.766 -3.0129 -2.9880  0.0036
10140SOL     OW30784   0.718   6.568   6.266 -0.4449 -0.1903  0.0992
10140SOL    HW130785   0.640   6.582   6.212 -0.8748 -1.2352  0.4395
10140SOL    HW230786   0.714   6.637   6.332 -0.3174  0.6305 -0.7304
10141SOL     OW30787   5.030   3.064   5.758 -0.3661  0.3870  0.5262
10141SOL    HW130788   4.996   3.033   5.673  1.7593 -2.5138  0.5809
10141SOL    HW230789   5.028   2.986   5.814  0.7514  1.6000  2.3432
10142SOL     OW30790   5.173   3.287   4.709 -0.7256  1.1086  0.4183
10142SOL    HW130791   5.164   3.301   4.615  0.2659  0.3072  0.1825
10142SOL    HW230792   5.084   3.269   4.739 -1.2817  2.7383 -0.1011
10143SOL     OW30793   4.576   6.139   1.468  0.2507 -0.0458 -0.0645
10143SOL    HW130794   4.549   6.221   1.510  1.1590  0.5266 -0.5435
10143SOL    HW230795   4.509   6.122   1.403  0.2401  0.5283 -0.2125
10144SOL     OW30796   1.670   0.139   4.590  0.5548 -0.2027  0.8079
10144SOL    HW130797   1.728   0.211   4.568  0.2063 -0.2164 -0.2045
10144SOL    HW230798   1.588   0.181   4.616  1.0846 -0.1732  2.5207
10145SOL     OW30799   2.924   4.057   0.043 -0.2162  0.1693 -0.1153
10145SOL    HW130800   2.941   4.040   0.136  0.1403  2.3775  0.2884
10145SOL    HW230801   3.009   4.044   0.000 -0.6850 -2.2558 -0.4239
10146SOL     OW30802   2.563   3.695   6.498 -0.1586 -0.0134  0.1619
10146SOL    HW130803   2.480   3.697   6.545  0.2195  2.9080  0.9135
10146SOL    HW230804   2.629   3.691   6.567  0.3493  0.3588 -0.2935
10147SOL     OW30805   4.746   3.064   6.353 -0.0526 -0.0650  0.5504
10147SOL    HW130806   4.732   3.101   6.440  2.4284 -0.7880  1.3274
10147SOL    HW230807   4.753   2.970   6.367  1.7030 -0.0876 -0.1882
10148SOL     OW30808   5.720   4.640   0.760 -0.1971  0.1000 -0.7461
10148SOL    HW130809   5.686   4.645   0.671 -0.6857 -1.0483 -0.6310
10148SOL    HW230810   5.649   4.674   0.815 -0.7720 -1.3016 -0.6018
10149SOL     OW30811   4.798   5.820   5.592  0.1609 -0.2532  0.1157
10149SOL    HW130812   4.856   5.863   5.529 -0.6356 -0.1832 -0.5849
10149SOL    HW230813   4.737   5.888   5.618 -1.6349 -1.0938 -1.6393
10150SOL     OW30814   6.146   1.601   0.762  0.5213  0.0568  0.6058
10150SOL    HW130815   6.084   1.582   0.691  0.7092 -1.8826  0.9188
10150SOL    HW230816   6.211   1.659   0.722 -1.2925  1.9694  0.2026
10151SOL     OW30817   1.474   0.721   6.011  0.0714 -0.4506 -0.0370
10151SOL    HW130818   1.421   0.736   5.932 -0.3133 -1.0100  0.1167
10151SOL    HW230819   1.561   0.752   5.986 -0.4699  1.1322 -0.0585
10152SOL     OW30820   5.566   3.482   1.935 -0.5701 -0.0692 -0.0634
10152SOL    HW130821   5.485   3.517   1.897  0.4591  0.7730 -1.5369
10152SOL    HW230822   5.617   3.451   1.860  0.5827 -0.4074  0.8261
10153SOL     OW30823   3.289   0.893   4.928 -0.6748 -0.3875 -0.2923
10153SOL    HW130824   3.380   0.874   4.904 -0.4380 -0.8023  0.8733
10153SOL    HW230825   3.290   0.986   4.953 -0.3218 -0.6771  0.8029
10154SOL     OW30826   3.128   0.490   5.012  0.0175  0.2505  0.1806
10154SOL    HW130827   3.218   0.507   5.040  1.5643  1.1908 -4.3874
10154SOL    HW230828   3.088   0.577   5.006 -0.1324  0.1363 -0.6593
10155SOL     OW30829   4.493   2.865   3.351  0.3309  0.2457  0.4312
10155SOL    HW130830   4.452   2.893   3.433 -3.1103 -0.5146 -0.8760
10155SOL    HW230831   4.547   2.790   3.375 -2.5124 -1.5427  1.7859
10156SOL     OW30832   4.345   4.584   2.745  0.1102 -0.4270  0.1289
10156SOL    HW130833   4.405   4.632   2.803 -1.0482  0.0442  0.9916
10156SOL    HW230834   4.282   4.651   2.716  0.0456 -0.8930 -0.8121
10157SOL     OW30835   1.590   0.648   6.237  0.0139 -0.5299 -0.4164
10157SOL    HW130836   1.531   0.662   6.163 -0.6269  1.0428  0.3546
10157SOL    HW230837   1.615   0.556   6.230 -0.4076 -0.5447 -2.2941
10158SOL     OW30838   1.318   5.614   3.640  0.1689  0.2721  0.2338
10158SOL    HW130839   1.243   5.568   3.604  0.8176 -0.8652  0.2771
10158SOL    HW230840   1.316   5.700   3.598 -1.7468  0.6732  1.0347
10159SOL     OW30841   5.999   0.308   4.595  0.2970  0.5430 -0.2977
10159SOL    HW130842   6.066   0.273   4.654 -0.8981  1.0425  1.4620
10159SOL    HW230843   6.047   0.336   4.518  2.0443  0.4125  0.6842
10160SOL     OW30844   6.479   1.694   5.143 -0.2697 -0.1210 -0.0677
10160SOL    HW130845   6.395   1.716   5.184  0.0624 -0.1514  0.6388
10160SOL    HW230846   6.463   1.611   5.099 -0.6619 -0.0343 -0.0916
10161SOL     OW30847   3.358   2.927   6.326  0.1154  0.2384  0.1567
10161SOL    HW130848   3.357   2.962   6.237  1.7629 -0.0886 -0.0161
10161SOL    HW230849   3.299   2.852   6.323 -0.6932  0.8723 -0.3556
10162SOL     OW30850   5.532   4.741   6.710 -0.1606  0.2613 -0.8148
10162SOL    HW130851   5.543   4.815   6.651  0.5287  0.5893 -0.2893
10162SOL    HW230852   5.445   4.706   6.690  0.4025 -0.1992 -2.6579
10163SOL     OW30853   3.565   6.661   5.832 -0.4409 -0.2191  0.8394
10163SOL    HW130854   3.525   6.610   5.761  0.2985 -0.9176  0.9081
10163SOL    HW230855   3.645   6.613   5.854  1.7843  2.3775 -0.9482
10164SOL     OW30856   6.097   6.795   5.153 -0.3090 -0.2923  0.1914
10164SOL    HW130857   6.084   6.877   5.199 -1.9706 -0.6760  0.4494
10164SOL    HW230858   6.026   6.738   5.183 -0.0403 -1.3460 -1.0529
10165SOL     OW30859   3.016   0.625   4.440  0.3531 -0.5287  0.4305
10165SOL    HW130860   3.100   0.580   4.452 -0.2868 -1.5645  1.1276
10165SOL    HW230861   2.966   0.568   4.382 -0.1485 -0.2803  0.6193
10166SOL     OW30862   2.496   4.499   5.143  0.0064  0.2396  0.3650
10166SOL    HW130863   2.478   4.426   5.203  0.8396  1.9855  2.8832
10166SOL    HW230864   2.591   4.498   5.132  0.3793  2.4584  2.6234
10167SOL     OW30865   5.035   2.773   3.795 -0.0352  0.6506 -0.3045
10167SOL    HW130866   5.122   2.800   3.825  0.4752 -1.2099  0.0527
10167SOL    HW230867   5.013   2.699   3.851 -0.8341 -0.3815 -1.9003
10168SOL     OW30868   5.578   1.399   4.180 -0.4334  0.7206 -0.0384
10168SOL    HW130869   5.543   1.456   4.248  1.5893  0.9380  0.8990
10168SOL    HW230870   5.571   1.311   4.216  2.9880  1.0179  1.7117
10169SOL     OW30871   6.259   4.870   6.528 -0.0459  0.0939 -0.5675
10169SOL    HW130872   6.209   4.825   6.459  0.8633  0.3807 -1.4391
10169SOL    HW230873   6.193   4.919   6.577 -0.6924  0.0989 -1.4139
10170SOL     OW30874   1.139   5.401   4.882  0.8172  0.1784  0.3131
10170SOL    HW130875   1.077   5.388   4.953 -0.4199  1.2820 -0.5044
10170SOL    HW230876   1.084   5.403   4.803  2.0893 -0.4812 -0.6186
10171SOL     OW30877   2.071   2.238   3.546  0.6140 -0.6485  0.0001
10171SOL    HW130878   2.133   2.260   3.477 -1.2422  2.2787 -0.9596
10171SOL    HW230879   2.083   2.308   3.611  0.6193 -1.9705  1.4742
10172SOL     OW30880   1.258   1.992   6.582 -0.3352  0.6434 -0.7038
10172SOL    HW130881   1.229   1.903   6.602 -0.5862  0.8338 -0.2193
10172SOL    HW230882   1.225   2.045   6.654  0.7124  0.9638 -0.4442
10173SOL     OW30883   4.732   5.512   0.549 -0.3184 -0.2579 -0.0418
10173SOL    HW130884   4.805   5.532   0.491  0.0684  0.7758  0.7776
10173SOL    HW230885   4.671   5.462   0.494  0.0216  0.7068 -1.3400
10174SOL     OW30886   2.608   6.324   1.730 -0.3192  0.1787 -0.4479
10174SOL    HW130887   2.566   6.354   1.811  0.9466 -1.6323  0.9616
10174SOL    HW230888   2.655   6.401   1.698 -0.7261  0.9077  0.6200
10175SOL     OW30889   5.819   3.771   6.659 -0.0463  0.2867 -0.3467
10175SOL    HW130890   5.862   3.728   6.585  1.5732  1.2481  0.0031
10175SOL    HW230891   5.855   3.727   6.737 -1.4231 -0.4323 -0.0787
10176SOL     OW30892   0.971   1.407   1.576  0.0506  0.4704 -0.0877
10176SOL    HW130893   0.991   1.492   1.615 -2.1958  0.7911  0.5181
10176SOL    HW230894   1.000   1.415   1.485 -1.2569  2.3953 -0.4007
10177SOL     OW30895   5.471   1.045   4.946 -0.2993  0.2649  0.2931
10177SOL    HW130896   5.450   0.954   4.925  0.5296  0.7403 -3.2113
10177SOL    HW230897   5.558   1.041   4.986  0.2488 -0.4357 -0.9057
10178SOL     OW30898   4.724   6.345   3.486 -0.0743 -0.0924 -0.6608
10178SOL    HW130899   4.699   6.435   3.465  0.3236  0.6273  1.7132
10178SOL    HW230900   4.643   6.304   3.516  0.1032  0.0194 -0.0248
10179SOL     OW30901   0.701   6.032   1.899 -0.0310  0.8094 -0.5132
10179SOL    HW130902   0.715   5.938   1.894 -0.2693  0.8195 -1.6812
10179SOL    HW230903   0.731   6.065   1.814 -1.6867  1.5571 -0.8386
10180SOL     OW30904   3.307   5.150   1.330 -0.9136  0.0891 -0.6851
10180SOL    HW130905   3.385   5.105   1.298 -0.7251 -0.3422  0.3366
10180SOL    HW230906   3.233   5.100   1.295 -0.7084 -0.9842  0.3367
10181SOL     OW30907   0.826   3.606   4.499  0.7584  0.2774 -0.3914
10181SOL    HW130908   0.748   3.656   4.523  0.1868 -0.4237 -0.7317
10181SOL    HW230909   0.874   3.595   4.581  0.7437  1.1266 -0.2684
10182SOL     OW30910   2.043   6.673   0.243 -0.0720  0.4553  0.1088
10182SOL    HW130911   2.011   6.634   0.162  0.3796 -0.0109  0.1463
10182SOL    HW230912   1.974   6.657   0.307 -0.3123  0.5880 -0.1178
10183SOL     OW30913   4.041   0.038   3.390 -0.1700 -0.1313  0.0978
10183SOL    HW130914   4.065  -0.054   3.402 -1.7971 -0.5531  0.3822
10183SOL    HW230915   3.989   0.060   3.467  0.5067  1.1709  0.2215
10184SOL     OW30916   2.769   3.576   2.314  0.2779 -0.3599 -0.2808
10184SOL    HW130917   2.720   3.608   2.238  1.8246 -0.3724 -1.3403
10184SOL    HW230918   2.752   3.640   2.383 -0.7325 -0.0542 -0.7900
10185SOL     OW30919   1.311   5.314   4.155 -0.9096 -0.0928  0.0098
10185SOL    HW130920   1.249   5.279   4.091  0.5315 -0.2894 -1.3339
10185SOL    HW230921   1.270   5.395   4.186 -1.8018 -0.1673 -0.9022
10186SOL     OW30922   5.294   2.753   0.487 -0.0160 -0.3774  0.3209
10186SOL    HW130923   5.226   2.703   0.534 -1.0321  1.7667  1.2710
10186SOL    HW230924   5.285   2.726   0.396 -2.7974  0.4265  0.2680
10187SOL     OW30925   4.267   3.605   2.794 -0.4005 -0.2167  0.0721
10187SOL    HW130926   4.292   3.641   2.708  0.1424 -1.7611 -0.4569
10187SOL    HW230927   4.251   3.512   2.777  0.5904 -0.7452  1.8032
10188SOL     OW30928   6.368   1.312   0.161  0.0790 -0.0256  0.0080
10188SOL    HW130929   6.416   1.243   0.116 -0.2266 -1.7545  2.1311
10188SOL    HW230930   6.436   1.367   0.200  0.3662 -1.0157  0.9434
10189SOL     OW30931   6.616   3.961   3.990  0.2624  0.5514  0.2298
10189SOL    HW130932   6.605   4.052   3.962  1.7570  0.6156 -0.2393
10189SOL    HW230933   6.710   3.945   3.982  0.1098 -0.8355  0.9516
10190SOL     OW30934   5.256   1.649   3.963 -0.5307  0.3136  0.7839
10190SOL    HW130935   5.179   1.602   3.997  1.2441  0.1847  5.2649
10190SOL    HW230936   5.324   1.581   3.956  0.0134  0.9400 -0.3214
10191SOL     OW30937   2.481   0.399   2.643 -0.6352 -0.2218 -0.0528
10191SOL    HW130938   2.409   0.381   2.583 -1.3643 -1.5756  1.1615
10191SOL    HW230939   2.505   0.313   2.678 -0.2622  0.5151  1.6014
10192SOL     OW30940   3.222   4.071   6.454 -0.2550 -0.2412  0.3043
10192SOL    HW130941   3.164   4.027   6.392 -1.8424  1.2964  0.6545
10192SOL    HW230942   3.305   4.078   6.407 -0.6806 -1.3371 -0.6838
10193SOL     OW30943   5.487   4.092   0.685  0.0569 -0.3584 -0.3476
10193SOL    HW130944   5.411   4.148   0.700 -0.7214 -1.0717 -1.4810
10193SOL    HW230945   5.554   4.150   0.651  0.3617  0.4543  1.5275
10194SOL     OW30946   2.984   0.821   1.740  0.0941  0.2260  0.1992
10194SOL    HW130947   2.913   0.837   1.801  0.9644  1.6077  0.9075
10194SOL    HW230948   2.945   0.768   1.670 -1.1805 -0.4660  1.3998
10195SOL     OW30949   2.782   2.295   1.324  0.2983 -0.1979 -0.2409
10195SOL    HW130950   2.823   2.297   1.410 -0.7308 -1.1343  0.3005
10195SOL    HW230951   2.805   2.209   1.288  1.4813  0.5298 -1.3165
10196SOL     OW30952   5.512   5.752   6.483  0.4085  0.2514  0.0465
10196SOL    HW130953   5.418   5.765   6.493  0.1024  0.0522 -2.0746
10196SOL    HW230954   5.541   5.716   6.567 -1.1508  1.5520  1.2054
10197SOL     OW30955   5.831   4.226   0.327  0.0261 -0.3520  0.4023
10197SOL    HW130956   5.761   4.188   0.275  0.3902 -0.9987  0.3707
10197SOL    HW230957   5.868   4.296   0.273  0.4411 -1.0547 -0.2428
10198SOL     OW30958   0.148   3.449   4.345  0.4864 -0.6094 -0.2230
10198SOL    HW130959   0.151   3.528   4.289  0.6572  0.2072  0.9035
10198SOL    HW230960   0.177   3.378   4.287 -0.1185  0.0664 -1.3950
10199SOL     OW30961   1.462   4.500   1.664 -0.3792  0.3953 -0.2089
10199SOL    HW130962   1.446   4.592   1.641  1.5499  1.1428  1.1675
10199SOL    HW230963   1.486   4.503   1.757  1.0242 -1.3295 -0.4736
10200SOL     OW30964   4.430   6.548   6.149 -0.2430 -0.2542 -0.4541
10200SOL    HW130965   4.495   6.618   6.161 -1.3769  1.2240 -2.2789
10200SOL    HW230966   4.375   6.579   6.077 -1.8669 -2.2826 -0.1811
10201SOL     OW30967   4.222   5.177   5.450  0.1171  0.1424 -0.4423
10201SOL    HW130968   4.128   5.188   5.466  0.1892 -2.6676  3.3172
10201SOL    HW230969   4.226   5.116   5.376 -1.0814 -0.1284 -0.3080
10202SOL     OW30970   5.838   3.680   0.843  0.4576  0.7015  0.3424
10202SOL    HW130971   5.772   3.628   0.797  1.1793 -0.7403  0.8550
10202SOL    HW230972   5.882   3.616   0.900  2.3159  1.6177 -0.0144
10203SOL     OW30973   5.916   0.025   2.329  0.3314 -0.1910  0.4707
10203SOL    HW130974   5.843   0.034   2.391  0.7004  0.0714  0.8723
10203SOL    HW230975   5.891   0.080   2.255 -0.4255 -1.0318  0.0804
10204SOL     OW30976   6.696   3.024   3.150  0.4705 -0.2422 -0.8261
10204SOL    HW130977   6.667   2.995   3.064 -0.6538  2.1595 -1.3669
10204SOL    HW230978   6.791   3.019   3.147  0.3893 -1.7660 -1.5762
10205SOL     OW30979   1.069   6.194   3.407 -0.2129 -0.4800 -0.2172
10205SOL    HW130980   0.996   6.255   3.415 -0.0538 -0.2119 -0.7084
10205SOL    HW230981   1.030   6.112   3.378 -0.2551 -0.1526 -1.1296
10206SOL     OW30982   1.887   2.499   1.227 -0.0762 -0.1514  0.5677
10206SOL    HW130983   1.967   2.508   1.176 -0.8562  1.6407 -0.4201
10206SOL    HW230984   1.904   2.425   1.285  2.2049  0.0336  0.2352
10207SOL     OW30985   6.290   2.009   4.894 -0.4373 -0.0065  0.0798
10207SOL    HW130986   6.228   2.062   4.843 -0.4946 -0.0125  0.1423
10207SOL    HW230987   6.342   2.073   4.943 -0.3098  0.0034 -0.0690
10208SOL     OW30988   2.402   6.336   1.985  0.3000  0.3263 -0.1673
10208SOL    HW130989   2.338   6.313   1.917  0.3424 -0.1957 -0.0346
10208SOL    HW230990   2.412   6.431   1.977  1.2526  0.1198 -1.7263
10209SOL     OW30991   1.536   1.150   3.732 -0.5711 -0.0019 -0.1400
10209SOL    HW130992   1.594   1.081   3.700 -1.2989 -0.6583 -0.0646
10209SOL    HW230993   1.497   1.187   3.653  1.0842  1.5049 -0.3226
10210SOL     OW30994   3.844   1.953   2.608 -0.6188 -0.4185  0.8442
10210SOL    HW130995   3.935   1.962   2.579 -0.9936 -0.6086 -0.4627
10210SOL    HW230996   3.804   1.895   2.543 -2.2414  1.4264  0.1038
10211SOL     OW30997   3.837   2.377   3.790  0.2330 -0.0091  0.2918
10211SOL    HW130998   3.895   2.337   3.855  2.6276 -0.6188 -2.0615
10211SOL    HW230999   3.826   2.310   3.723  0.0993  1.4876 -1.2582
10212SOL     OW31000   0.837   2.933   6.099 -0.1676  0.2533  0.5263
10212SOL    HW131001   0.826   2.872   6.026  1.5360  1.7295 -1.0693
10212SOL    HW231002   0.911   2.899   6.149  1.3200  1.3307 -0.8309
10213SOL     OW31003   5.171   6.614   5.728  0.8280  0.3402  0.3293
10213SOL    HW131004   5.248   6.665   5.751  1.9661 -1.3660  0.5002
10213SOL    HW231005   5.142   6.576   5.811  0.5881 -0.0493  0.0702
10214SOL     OW31006   5.782   5.329   4.227  0.3050  0.1110  0.2865
10214SOL    HW131007   5.719   5.311   4.297  0.2493  1.9505  0.7796
10214SOL    HW231008   5.787   5.248   4.177 -1.8714 -0.3418  0.6996
10215SOL     OW31009   5.696   4.343   1.255  0.1078 -0.0768 -0.9405
10215SOL    HW131010   5.664   4.269   1.307  0.9476 -0.0592 -0.3810
10215SOL    HW231011   5.629   4.411   1.267  0.6524  0.2195  0.8090
10216SOL     OW31012   2.707   4.048   2.514  0.2180  0.1334 -0.5551
10216SOL    HW131013   2.753   3.964   2.516 -3.0434 -1.9630 -2.4395
10216SOL    HW231014   2.684   4.065   2.605  1.4670 -0.7080 -0.0572
10217SOL     OW31015   3.707   4.236   5.107 -0.3568 -0.3252  0.0805
10217SOL    HW131016   3.802   4.231   5.113 -0.1655  0.2647 -1.7771
10217SOL    HW231017   3.675   4.173   5.171  1.3139 -1.6800 -0.3620
10218SOL     OW31018   4.048   3.676   4.152 -0.0025  0.1140  0.2321
10218SOL    HW131019   4.088   3.676   4.065  0.5526  0.1882  0.4800
10218SOL    HW231020   3.999   3.595   4.156  0.1433  0.0095 -0.0773
10219SOL     OW31021   6.243   5.326   2.307  0.3553 -0.2229 -1.0287
10219SOL    HW131022   6.172   5.262   2.313  1.6642 -1.8650 -2.2693
10219SOL    HW231023   6.316   5.278   2.270  0.9932  2.3285 -3.4294
10220SOL     OW31024   6.338   0.601   1.298  0.1815 -0.1981 -0.1780
10220SOL    HW131025   6.433   0.590   1.293 -0.0492 -2.3261 -1.4996
10220SOL    HW231026   6.306   0.568   1.214 -1.7283  0.7060  0.1387
10221SOL     OW31027   6.001   5.113   3.807 -0.2433 -0.1810 -0.8199
10221SOL    HW131028   6.052   5.193   3.793 -0.3435  0.0826  0.2152
10221SOL    HW231029   6.054   5.043   3.769  0.4910  0.2012 -0.5072
10222SOL     OW31030   3.679   4.857   6.647 -0.2780 -0.2531  0.4828
10222SOL    HW131031   3.639   4.928   6.698 -1.7785  0.0146 -0.9847
10222SOL    HW231032   3.756   4.832   6.699  0.8126  2.9722  0.7116
10223SOL     OW31033   3.674   1.079   2.110  0.4517 -0.1789  0.1684
10223SOL    HW131034   3.637   1.146   2.167  0.6933  0.3733 -0.3135
10223SOL    HW231035   3.685   1.123   2.025  1.2959 -0.6108  0.0422
10224SOL     OW31036   0.204   5.671   2.167  0.1598  0.0494  0.2501
10224SOL    HW131037   0.295   5.656   2.139 -0.1624  0.4874 -1.1497
10224SOL    HW231038   0.180   5.753   2.124 -0.7017  0.2770  1.1361
10225SOL     OW31039   3.757   6.171   5.862  0.0906 -0.1375 -0.4769
10225SOL    HW131040   3.696   6.124   5.919 -0.2215 -0.8347 -1.3703
10225SOL    HW231041   3.707   6.190   5.783  0.6372  0.4857 -0.6855
10226SOL     OW31042   0.342   1.794   0.350 -0.3188 -0.5627  0.1403
10226SOL    HW131043   0.371   1.828   0.266 -0.7622 -0.3642  0.0660
10226SOL    HW231044   0.395   1.840   0.415  0.3665 -1.0737 -0.0509
10227SOL     OW31045   0.987   4.922   5.808 -0.0095 -0.2477  0.5038
10227SOL    HW131046   1.077   4.906   5.781 -0.4338 -1.6061 -0.1690
10227SOL    HW231047   0.934   4.894   5.734 -1.0576 -1.0320  1.5151
10228SOL     OW31048   4.573   4.134   4.198  0.2199  0.0974  0.1087
10228SOL    HW131049   4.548   4.157   4.287 -1.2018  0.4281 -0.3459
10228SOL    HW231050   4.665   4.162   4.190  0.5283 -0.4211  1.6090
10229SOL     OW31051   5.703   0.515   6.395 -0.0027  0.3854  0.1852
10229SOL    HW131052   5.681   0.471   6.314  1.2454 -0.1857  0.1310
10229SOL    HW231053   5.731   0.602   6.369 -0.6457  0.5747  0.1148
10230SOL     OW31054   3.925   2.979   4.278 -0.0672  0.1460 -0.2187
10230SOL    HW131055   3.894   3.047   4.219  0.3512  0.6077  0.0894
10230SOL    HW231056   3.877   2.900   4.252 -0.6275  0.5818 -0.5058
10231SOL     OW31057   0.925   3.050   0.243 -0.0523 -0.1789  0.1359
10231SOL    HW131058   1.003   3.101   0.221 -1.0679  0.6251 -1.8382
10231SOL    HW231059   0.925   3.047   0.339  2.4711 -0.3684  0.2005
10232SOL     OW31060   3.827   6.046   1.610  0.0920  0.5561 -0.1107
10232SOL    HW131061   3.739   6.069   1.642 -0.1067  1.2590 -1.1225
10232SOL    HW231062   3.818   6.041   1.515  1.2027  0.9192 -0.2531
10233SOL     OW31063   2.949   1.777   1.930  0.9586  0.6178 -0.4019
10233SOL    HW131064   2.889   1.782   2.005  2.3003  1.5671  0.6454
10233SOL    HW231065   2.934   1.689   1.895  1.0867 -0.2963  1.6809
10234SOL     OW31066   1.342   5.250   3.166 -0.4833 -0.4086  0.6038
10234SOL    HW131067   1.269   5.244   3.227  0.6236 -2.3700  1.8474
10234SOL    HW231068   1.337   5.170   3.115 -0.7765  0.7323 -1.2463
10235SOL     OW31069   2.444   1.829   0.204 -0.4608 -0.4838  0.5533
10235SOL    HW131070   2.437   1.878   0.122  2.9688 -0.8989 -0.1494
10235SOL    HW231071   2.419   1.891   0.272 -2.6665  0.0894 -0.7050
10236SOL     OW31072   6.612   6.156   6.037  0.5750  0.5317 -0.8090
10236SOL    HW131073   6.623   6.228   6.100 -1.0326  0.7124 -0.6680
10236SOL    HW231074   6.670   6.087   6.069  1.3358  1.3696 -0.3192
10237SOL     OW31075   5.629   6.783   2.341  0.0616  0.3026 -0.3750
10237SOL    HW131076   5.595   6.697   2.364 -0.4151  0.7736  0.8040
10237SOL    HW231077   5.660   6.774   2.251 -0.0407 -1.0706 -0.2910
10238SOL     OW31078   6.598   2.615   6.135  0.2634  0.3113 -0.0532
10238SOL    HW131079   6.644   2.690   6.171 -0.1830  0.7313 -0.3484
10238SOL    HW231080   6.510   2.620   6.172  0.6151 -0.8533  1.0345
10239SOL     OW31081   4.042   4.040   6.090  0.1377 -0.8564  0.2729
10239SOL    HW131082   4.106   4.093   6.042 -1.4789  0.2342 -0.7800
10239SOL    HW231083   3.982   4.104   6.129 -2.5644 -1.7779 -1.9884
10240SOL     OW31084   4.682   2.134   6.142  0.2484  0.2526  0.7885
10240SOL    HW131085   4.635   2.090   6.072  0.3478  0.9834  0.2421
10240SOL    HW231086   4.615   2.160   6.205  0.0628  0.2562  0.5883
10241SOL     OW31087   2.452   3.603   2.837  0.1935  0.7163 -0.5604
10241SOL    HW131088   2.381   3.612   2.900 -0.8885 -0.5645 -1.5467
10241SOL    HW231089   2.474   3.693   2.812 -1.7075  1.1127 -0.9205
10242SOL     OW31090   2.614   0.685   0.349 -0.6745 -0.5114  0.5285
10242SOL    HW131091   2.704   0.656   0.365 -0.5114  0.5620  1.7451
10242SOL    HW231092   2.562   0.640   0.416 -0.7966  0.0555  0.8206
10243SOL     OW31093   4.854   5.594   1.688  0.3202  0.0841 -0.3105
10243SOL    HW131094   4.832   5.566   1.777 -0.8237  0.5744 -0.4230
10243SOL    HW231095   4.863   5.512   1.639  0.3114 -0.1738  0.1128
10244SOL     OW31096   5.750   4.169   2.623 -0.5782  0.2338  0.5428
10244SOL    HW131097   5.723   4.121   2.544 -0.2841 -1.2161  1.2923
10244SOL    HW231098   5.703   4.252   2.618  0.5831  0.8562 -1.9424
10245SOL     OW31099   5.444   3.577   2.847  0.5312 -0.2005  0.3439
10245SOL    HW131100   5.428   3.663   2.886  0.1806 -0.7500  1.4571
10245SOL    HW231101   5.414   3.515   2.913  0.8437 -1.1862 -0.4159
10246SOL     OW31102   2.085   3.030   6.574  0.0900 -0.0986 -0.0115
10246SOL    HW131103   2.073   3.028   6.669  1.1236 -3.0159  0.1617
10246SOL    HW231104   2.170   2.988   6.560  0.0605  0.4582 -2.2366
10247SOL     OW31105   0.568   6.047   3.541 -0.1000 -0.0898 -0.4946
10247SOL    HW131106   0.525   6.122   3.583 -1.1747 -0.8284 -0.2312
10247SOL    HW231107   0.498   5.982   3.533  0.6438 -0.7897 -1.3926
10248SOL     OW31108   1.232   5.849   5.697  0.2986 -0.2471 -0.0078
10248SOL    HW131109   1.239   5.820   5.606 -2.9173  1.7979 -1.0771
10248SOL    HW231110   1.228   5.768   5.748  0.2119 -1.4901 -1.8916
10249SOL     OW31111   5.378   5.564   5.182 -0.3406  0.1228  0.1840
10249SOL    HW131112   5.432   5.643   5.188 -1.1891  0.7743 -0.5121
10249SOL    HW231113   5.433   5.500   5.138 -0.1274  0.7693 -0.5025
10250SOL     OW31114   4.905   4.512   0.110 -0.6347  0.2072  0.1818
10250SOL    HW131115   4.984   4.467   0.141 -0.8743 -0.2615  0.1095
10250SOL    HW231116   4.838   4.444   0.105 -1.1755  0.6946  0.6957
10251SOL     OW31117   3.965   3.847   5.692  0.5660  0.3336  0.3017
10251SOL    HW131118   4.013   3.775   5.652  0.9745  0.6959  0.1241
10251SOL    HW231119   3.946   3.906   5.619  0.5420  0.5738  0.4988
10252SOL     OW31120   1.843   5.007   0.480 -0.0102 -0.0035  0.8765
10252SOL    HW131121   1.804   5.067   0.417  0.5030 -0.2938  0.2712
10252SOL    HW231122   1.888   5.064   0.543  1.8002  0.2350 -0.5659
10253SOL     OW31123   3.391   1.138   4.388  0.2601  0.2501 -1.1230
10253SOL    HW131124   3.399   1.146   4.483 -0.5758  1.1108 -1.1107
10253SOL    HW231125   3.443   1.060   4.366  1.6330  0.8630 -0.1476
10254SOL     OW31126   4.096   4.646   5.688  0.1466 -0.4287  0.0046
10254SOL    HW131127   4.092   4.565   5.737 -0.8267 -0.8873 -0.7906
10254SOL    HW231128   4.068   4.714   5.750  0.5326 -0.7626  0.5418
10255SOL     OW31129   5.601   2.238   1.346  0.0379 -0.1792  0.1198
10255SOL    HW131130   5.528   2.187   1.380 -1.2307  0.8517 -0.9874
10255SOL    HW231131   5.649   2.176   1.290  0.2826 -0.9689  1.1691
10256SOL     OW31132   5.227   1.769   6.250  0.2847 -0.2299  0.1646
10256SOL    HW131133   5.238   1.858   6.217 -0.5153  0.5398  1.8500
10256SOL    HW231134   5.312   1.728   6.237  0.5969  0.6924 -0.8576
10257SOL     OW31135   3.030   6.699   4.383 -0.2469 -0.1012  0.2726
10257SOL    HW131136   3.056   6.650   4.461  0.2912  0.6306  0.5615
10257SOL    HW231137   3.005   6.785   4.415 -0.9492 -0.0970 -0.2629
10258SOL     OW31138   0.550   2.977   5.221  0.3855 -0.1901 -0.2197
10258SOL    HW131139   0.469   3.005   5.263  0.2038  0.4499 -0.9560
10258SOL    HW231140   0.537   3.000   5.128  1.2427 -0.4547 -0.4118
10259SOL     OW31141   2.388   1.281   5.573  0.2282  0.1392 -0.4061
10259SOL    HW131142   2.349   1.367   5.559 -0.4148 -0.3356 -1.7455
10259SOL    HW231143   2.459   1.296   5.636  0.4499  1.7369 -0.9989
10260SOL     OW31144   3.972   4.753   6.292  0.1684 -0.2512 -0.5454
10260SOL    HW131145   3.996   4.707   6.372 -0.1061  1.8859  0.8503
10260SOL    HW231146   3.913   4.822   6.321  0.8193  1.1942 -2.4621
10261SOL     OW31147   0.883   3.311   5.139 -0.0647 -0.5519  0.3964
10261SOL    HW131148   0.942   3.251   5.093 -0.1674 -0.3568  0.0116
10261SOL    HW231149   0.942   3.364   5.194  0.3336  0.8719 -1.3269
10262SOL     OW31150   6.099   5.304   0.380  0.2687  0.2151 -0.4918
10262SOL    HW131151   6.179   5.295   0.431 -0.7220 -0.5168  0.9764
10262SOL    HW231152   6.029   5.300   0.444 -0.9396  1.5421 -1.6743
10263SOL     OW31153   6.016   2.220   4.013  0.0264 -0.1855 -0.5279
10263SOL    HW131154   6.093   2.209   4.070  0.8204 -3.1745 -1.9397
10263SOL    HW231155   5.975   2.301   4.042  2.8502  0.7206  1.3211
10264SOL     OW31156   0.927   2.086   3.388 -0.0467 -0.3342 -0.3872
10264SOL    HW131157   0.836   2.116   3.379  0.2068  0.2134 -1.3155
10264SOL    HW231158   0.926   1.995   3.358 -0.4548 -0.6418  0.5245
10265SOL     OW31159   5.225   2.831   4.276  0.0897 -0.5968  0.0102
10265SOL    HW131160   5.291   2.883   4.323  0.5660  0.1729 -1.4423
10265SOL    HW231161   5.146   2.885   4.279 -0.2313 -1.1103  0.9763
10266SOL     OW31162   2.868   6.794   0.190 -0.4136 -0.3180 -0.0763
10266SOL    HW131163   2.930   6.747   0.134  0.3129 -0.3790  0.7549
10266SOL    HW231164   2.923   6.844   0.249 -1.1788  1.4872 -0.8362
10267NA      NA31165   3.194   3.174   2.560 -0.1281  0.2047  0.2314
10268NA      NA31166   6.547   2.314   5.821  0.1357 -0.0887  0.5791
10269NA      NA31167   5.849   1.919   1.055  0.1512  0.5348  0.4837
10270NA      NA31168   6.132   6.172   4.341  0.4652  0.2019  0.2484
10271NA      NA31169   2.874   3.197   2.510  0.2061 -0.2836 -0.1047
10272NA      NA31170   5.580   6.186   4.569 -0.0197 -0.0112 -0.1785
10273NA      NA31171   2.463   3.051   6.432  0.7928  0.1893 -0.2494
10274NA      NA31172   2.188   2.830   2.468  0.0355  0.3316 -0.1516
10275NA      NA31173   5.193   4.696   3.667 -0.1976 -0.2567 -0.2912
10276NA      NA31174   5.797   1.637   0.047  0.2795 -0.3606 -0.1083
10277NA      NA31175   2.040   3.056   2.818  0.3337 -0.1009  0.0369
10278NA      NA31176   3.590   5.550   5.544 -0.2265  0.0251 -0.3547
10279NA      NA31177   3.961   1.997   3.548 -0.0544 -0.1872 -0.5352
10280NA      NA31178   4.045   4.239   2.195 -0.3699 -0.2940 -0.3208
10281NA      NA31179   2.241   2.867   2.785  0.0181 -0.2632 -0.1064
10282NA      NA31180   2.388   3.096   2.608 -0.0467  0.2226  0.4474
10283NA      NA31181   3.550   0.223   3.727  0.1826 -0.1178  0.3309
10284NA      NA31182   2.823   2.333   5.734  0.0795  0.0315  0.3044
10285NA      NA31183   3.302   5.935   2.139  0.5635 -0.0575  0.1663
10286NA      NA31184   3.139   3.091   2.829  0.1634 -0.2297  0.1143
10287NA      NA31185   2.699   3.602   3.517  0.5408 -0.4314 -0.4275
10288NA      NA31186   3.258   2.276   1.634  0.1039 -0.0043 -0.3587
10289NA      NA31187   3.950   2.701   3.530  0.1994 -0.0034 -0.0724
10290NA      NA31188   5.791   2.877   5.730  0.2040 -0.4875 -0.0711
10291NA      NA31189   2.640   6.241   5.480  0.2684 -0.2450 -0.1704
10292NA      NA31190   0.955   5.038   2.095 -0.2296 -0.4363  0.2942
10293NA      NA31191   2.616   3.967   2.957 -0.0437  0.0747  0.1448
10294NA      NA31192   0.806   3.010   1.161 -0.1621  0.0349 -0.3900
10295NA      NA31193   2.591   3.792   3.262 -0.2335  0.1557 -0.3371
10296NA      NA31194   4.116   2.726   3.230  0.1266  0.0638  0.2860
10297NA      NA31195   1.866   6.176   2.956 -0.0808  0.0872  0.5554
10298NA      NA31196   3.897   2.786   3.045  0.2714  0.4458 -0.1515
10299NA      NA31197   2.172   4.692   3.794 -0.0269  0.2955  0.0608
10300NA      NA31198   3.762   5.947   3.146  0.0803 -0.2347  0.1610
10301NA      NA31199   0.409   0.059   2.418  0.1144 -0.6484 -0.1531
10302NA      NA31200   2.754   4.837   0.174 -0.1957 -0.1351 -0.1435
10303NA      NA31201   3.761   2.047   2.776  0.2034  0.0601  0.3828
10304NA      NA31202   5.043   1.676   4.761 -0.0369 -0.0239 -0.4192
10305NA      NA31203   0.405   2.505   5.617  0.0299 -0.1289 -0.1819
10306NA      NA31204   1.165   2.394   2.938  0.1766 -0.3671 -0.3516
10307NA      NA31205   4.008   2.488   3.004 -0.0003  0.3479 -0.6245
10308NA      NA31206   0.749   2.336   0.684 -0.1386 -0.3901  0.1388
10309NA      NA31207   3.373   3.273   2.807  0.1036 -0.3768 -0.2370
10310NA      NA31208   1.315   3.407   3.993  0.2487  0.0273 -0.0120
10311NA      NA31209   3.759   6.196   0.091 -0.0905 -0.1763  0.0088
10312CL      CL31210   6.463   0.313   6.740 -0.4498 -0.0707  0.1742
10313CL      CL31211   0.678   2.780   1.183  0.4458 -0.0101  0.0527
10314CL      CL31212   4.579   1.819   3.863 -0.2666  0.0370 -0.2590
10315CL      CL31213   2.964   4.481   0.340 -0.2134  0.2369  0.2444
10316CL      CL31214   0.160   5.575   5.725 -0.0132  0.1267 -0.2059
10317CL      CL31215   0.211   3.640   6.759  0.4003 -0.3434 -0.5317
10318CL      CL31216   4.885   3.241   4.778 -0.2528  0.0045  0.2053
10319CL      CL31217   5.332   4.730   4.182 -0.0940 -0.0073  0.0947
10320CL      CL31218   5.182   2.066   5.895  0.0810 -0.1460  0.1018
10321CL      CL31219   2.462   4.007   5.517  0.6791  0.4482 -0.3221
10322CL      CL31220   3.482   6.131   6.039 -0.0556  0.6593  0.2926
10323CL      CL31221   2.550   3.809   4.153 -0.1847 -0.4427  0.3009
10324CL      CL31222   5.204   1.307   0.631  0.1057  0.0786  0.0016
10325CL      CL31223   5.130   3.455   2.364  0.2307 -0.2444 -0.6741
10326CL      CL31224   5.541   3.806   4.672  0.0256  0.2493  0.3440
10327CL      CL31225   0.533   4.339   5.920 -0.0835 -0.4736 -0.5720
10328CL      CL31226   4.862   3.753   2.029  0.1451 -0.0462  0.4039
10329CL      CL31227   2.030   6.601   2.968  0.0168 -0.5103 -0.3571
10330CL      CL31228   3.829   5.511   5.659 -0.0417  0.3924 -0.0994
10331CL      CL31229   2.913   3.366   0.518 -0.4310  0.0654 -0.0125
10332CL      CL31230   3.877   4.981   2.284  0.1054 -0.4178  0.1425
10333CL      CL31231   4.035   1.304   0.077  0.0656  0.2117  0.2621
10334CL      CL31232   2.104   4.466   2.047 -0.2535  0.0516  0.0523
10335CL      CL31233   1.659   6.483   2.225 -0.2517 -0.3168 -0.0862
10336CL      CL31234   2.218   5.540   2.555 -0.2280  0.2174  0.0778
10337CL      CL31235   4.784   4.997   3.562  0.1933 -0.0555  0.0591
10338CL      CL31236   1.016   2.952   1.040 -0.2312  0.1285  0.0342
10339CL      CL31237   6.739   6.679   6.249 -0.2372  0.3425 -0.3355
10340CL      CL31238   6.068   2.515   5.763  0.3724 -0.0498  0.0028
   6.79811   6.79811   6.79811
